FOO
135168
    1MOL0     O    1   1.937   5.325   5.319 -0.3567  0.3150  0.3813
    1MOL0     C    2   1.819   5.289   5.334  0.3679 -0.5311  1.0887
    1MOL0     O    3   1.763   5.219   5.440 -0.3650 -0.1062  0.6629
    1MOL0     C    4   1.842   5.186   5.544 -0.4780 -0.1805  0.3564
    1MOL0     C    5   1.931   5.079   5.543 -0.7382  1.1856  0.3046
    1MOL0     C    6   2.001   5.051   5.660 -0.4119 -0.0252 -0.5359
    1MOL0     C    7   1.990   5.141   5.773 -0.0967  0.0280 -0.4241
    1MOL0     O    8   2.065   5.116   5.882 -0.3251  0.2157 -0.7498
    1MOL0     C    9   2.094   4.981   5.927  1.1411 -0.7460  0.0156
    1MOL0     C   10   2.082   4.996   6.078  0.1132  0.4851 -0.1655
    1MOL0     C   11   1.932   4.984   6.125  0.0837 -0.1367 -1.4192
    1MOL0     C   12   1.934   4.968   6.277  0.7799 -0.4377 -0.0023
    1MOL0     C   13   1.787   4.944   6.334 -0.4451 -0.3725  0.4294
    1MOL0     C   14   1.699   5.071   6.335  0.3053  0.3779 -0.2420
    1MOL0     C   15   1.550   5.045   6.366 -0.3491  0.5697 -0.3689
    1MOL0     C   16   1.463   5.172   6.365 -0.1248 -0.2112  0.8018
    1MOL0     N   17   1.507   5.281   6.444  0.0256  0.1072 -0.2264
    1MOL0     C   18   1.507   5.418   6.431 -0.2650  0.2573  0.7000
    1MOL0     C   19   1.534   5.465   6.560 -0.3198  0.5125  0.2189
    1MOL0     C   20   1.531   5.615   6.589 -0.9679  0.0643 -1.1729
    1MOL0     C   21   1.384   5.639   6.623  0.5473  0.1716 -0.1184
    1MOL0     C   22   1.366   5.770   6.690 -0.1181 -0.2517  0.7064
    1MOL0     C   23   1.358   5.887   6.599 -0.0717  0.4418  0.0885
    1MOL0     O   24   1.481   5.931   6.542  0.2933 -0.6200  0.2869
    1MOL0     C   25   1.570   5.983   6.630  0.6231 -0.6409 -0.3991
    1MOL0     C   26   1.702   5.941   6.618  0.2619 -0.0308 -0.0314
    1MOL0     C   27   1.802   6.013   6.693 -0.5977  0.1953 -0.7384
    1MOL0     C   28   1.769   6.113   6.783  0.0891 -0.4212  0.6570
    1MOL0     C   29   1.875   6.171   6.866  0.2820 -0.2571  0.3127
    1MOL0     O   30   1.840   6.233   6.982 -0.0177 -0.0117 -0.9540
    1MOL0     C   31   1.937   6.298   7.059 -0.2074 -0.2626  0.0720
    1MOL0     C   32   1.997   6.415   7.009  0.2006  0.3120  0.5951
    1MOL0     C   33   2.102   6.461   7.073 -0.4684 -0.3086 -0.3447
    1MOL0     C   34   2.152   6.413   7.199 -0.2736 -0.1699  0.4030
    1MOL0     O   35   2.256   6.476   7.254 -0.3225  0.5886  0.5186
    1MOL0     C   36   2.369   6.394   7.262  0.3147  0.2789 -0.4776
    1MOL0     C   37   2.508   6.463   7.248  0.5035  0.2252 -0.7036
    1MOL0     C   38   2.509   6.594   7.342 -0.8063  0.5018  0.4138
    1MOL0     C   39   2.509   6.564   7.498  0.2058  0.1978 -0.0548
    1MOL0     C   40   2.600   6.444   7.542  0.8099 -0.0094 -0.2159
    1MOL0     C   41   2.755   6.451   7.500 -0.6190 -0.1907  0.5780
    1MOL0     C   42   2.840   6.330   7.534 -0.2991 -0.2705  0.2845
    1MOL0     C   43   2.825   6.211   7.450  0.9469  1.1899  0.2587
    1MOL0    Cl   44   2.667   6.134   7.490 -0.3166  0.1542  0.2154
    1MOL0     C   45   2.087   6.307   7.261 -0.7168 -0.5379  0.2064
    1MOL0     C   46   1.974   6.252   7.192 -0.2250 -0.0967 -0.7314
    1MOL0     O   47   1.996   6.157   6.833  0.4508 -0.3811  1.0269
    1MOL0     C   48   1.631   6.144   6.799  0.6737 -0.2398  0.6563
    1MOL0     C   49   1.529   6.074   6.725 -0.4535 -0.4229  0.2764
    1MOL0     N   50   1.579   5.366   6.631  0.2283  0.6790  0.2220
    1MOL0     N   51   1.545   5.254   6.572 -0.0774 -0.5295 -0.4135
    1MOL0     C   52   1.900   5.245   5.774 -1.1595  0.4973 -0.3651
    1MOL0     C   53   1.824   5.266   5.657  0.2689  0.3311  0.1199
    1MOL0     C   54   1.716   5.313   5.228 -0.5341 -0.3912 -0.8594
    1MOL0     C   55   1.582   5.272   5.241  0.7413  0.2971 -1.0882
    1MOL0     C   56   1.497   5.284   5.129 -0.3375  0.2394 -1.0957
    1MOL0     C   57   1.537   5.344   5.018 -0.8417  0.8416  1.5674
    1MOL0     O   58   1.453   5.355   4.909 -0.4052 -0.5700 -0.3202
    1MOL0     C   59   1.317   5.339   4.921  1.0096  0.8439  0.3978
    1MOL0     C   60   1.271   5.193   4.925  0.7549  0.0775 -0.3092
    1MOL0     C   61   1.195   5.165   4.789  0.4947  0.3659 -1.6146
    1MOL0     C   62   1.141   5.024   4.779  0.0168 -0.4257  0.0129
    1MOL0     C   63   1.081   5.003   4.646 -0.8436 -0.6418  0.4947
    1MOL0     C   64   1.031   4.976   4.538 -0.0242  0.1817  0.3810
    1MOL0     C   65   1.666   5.388   5.008 -0.0228  0.3304  0.6156
    1MOL0     C   66   1.765   5.375   5.109  0.7693  0.9110 -0.3474
    1MOL0     H   67   1.953   5.002   5.469  1.4870 -1.1298  3.1411
    1MOL0     H   68   2.071   4.969   5.675 -1.3326 -0.9883 -1.3766
    1MOL0     H   69   2.192   4.940   5.903  2.1391  0.3527  1.9235
    1MOL0     H   70   2.015   4.914   5.893 -0.4342  0.2860  1.4577
    1MOL0     H   71   2.132   5.088   6.109 -0.1860  0.2139  1.1659
    1MOL0     H   72   2.130   4.905   6.116  1.8644  1.2692 -0.3788
    1MOL0     H   73   1.883   4.894   6.087 -0.3626 -0.4881 -0.0838
    1MOL0     H   74   1.867   5.062   6.085 -1.0679  0.3600  1.1861
    1MOL0     H   75   1.995   4.880   6.302 -1.7336 -2.6411 -1.1308
    1MOL0     H   76   1.969   5.055   6.334 -0.8517  0.6404 -0.5869
    1MOL0     H   77   1.797   4.909   6.438  1.8684 -0.1710  0.3355
    1MOL0     H   78   1.732   4.875   6.269 -3.3162  0.2993  1.9530
    1MOL0     H   79   1.713   5.120   6.239  4.8667  2.2101  1.0705
    1MOL0     H   80   1.748   5.139   6.405  0.5297  0.2782 -0.3019
    1MOL0     H   81   1.514   4.971   6.294  0.7412 -0.4026  0.0593
    1MOL0     H   82   1.545   5.000   6.465  1.8638  1.9745  0.4577
    1MOL0     H   83   1.372   5.141   6.417  0.0477  2.4362  2.9060
    1MOL0     H   84   1.444   5.205   6.263  0.6609 -0.7140  0.4803
    1MOL0     H   85   1.473   5.477   6.347 -1.8784 -0.8777  0.4954
    1MOL0     H   86   1.570   5.668   6.501 -0.4771  1.1623 -0.3336
    1MOL0     H   87   1.598   5.637   6.673 -0.2072 -1.3690 -1.3690
    1MOL0     H   88   1.341   5.563   6.689 -4.4154  1.3823 -1.5490
    1MOL0     H   89   1.324   5.634   6.532  1.7080 -0.2535 -0.8903
    1MOL0     H   90   1.262   5.759   6.723 -0.3721 -2.4641 -0.6066
    1MOL0     H   91   1.436   5.776   6.774  2.5415 -0.8836 -1.3281
    1MOL0     H   92   1.311   5.972   6.650 -1.1589  0.6357 -1.1878
    1MOL0     H   93   1.283   5.868   6.522  0.2445  1.2935 -0.4526
    1MOL0     H   94   1.720   5.850   6.563 -0.9103  1.9387 -4.0373
    1MOL0     H   95   1.906   5.981   6.698 -1.0773 -1.2744  2.4362
    1MOL0     H   96   1.965   6.457   6.914 -1.7533 -1.3713  0.4259
    1MOL0     H   97   2.161   6.548   7.045  1.9608 -0.0055  4.4798
    1MOL0     H   98   2.363   6.310   7.193  0.1598  1.5196 -2.0346
    1MOL0     H   99   2.346   6.348   7.359  2.2343 -2.0962 -1.0673
    1MOL0     H  100   2.502   6.511   7.150 -2.8844  1.1748 -0.1610
    1MOL0     H  101   2.602   6.409   7.257  2.2747  2.6833 -2.8540
    1MOL0     H  102   2.436   6.669   7.313 -1.0861 -0.5972 -1.9073
    1MOL0     H  103   2.601   6.649   7.319  0.2170 -1.3717 -0.1796
    1MOL0     H  104   2.537   6.654   7.553  2.1664  0.1235 -0.8513
    1MOL0     H  105   2.408   6.524   7.511  1.0820 -2.1493  0.0058
    1MOL0     H  106   2.552   6.363   7.486 -2.1810  1.4661 -0.0207
    1MOL0     H  107   2.595   6.418   7.648  3.2489 -0.4616 -0.1622
    1MOL0     H  108   2.797   6.549   7.526  1.8186 -0.2153 -2.6158
    1MOL0     H  109   2.761   6.450   7.391  3.8076 -1.8142  0.6039
    1MOL0     H  110   2.942   6.371   7.537  0.1801 -1.3464 -0.5782
    1MOL0     H  111   2.826   6.302   7.639 -2.2142  0.3970  0.2469
    1MOL0     H  112   2.905   6.136   7.458  0.2753  0.5584  1.3615
    1MOL0     H  113   2.812   6.244   7.347 -1.2328 -0.9359 -0.2281
    1MOL0     H  114   2.132   6.275   7.354  0.7503  0.9200  0.0369
    1MOL0     H  115   1.915   6.174   7.239  0.8930 -0.1588  0.6222
    1MOL0     H  116   1.618   6.231   6.863  3.3669  0.5458  0.2739
    1MOL0     H  117   1.427   6.104   6.747 -0.5015 -0.0164 -0.4894
    1MOL0     H  118   1.881   5.310   5.859 -1.7474 -0.0272 -0.0853
    1MOL0     H  119   1.744   5.339   5.651 -1.3429 -1.2522  1.3755
    1MOL0     H  120   1.533   5.234   5.330  0.9629  3.3998  0.4922
    1MOL0     H  121   1.395   5.249   5.143  0.8291 -2.3969  2.5013
    1MOL0     H  122   1.266   5.395   4.842 -2.1939  2.3421  3.2448
    1MOL0     H  123   1.292   5.383   5.018  0.2676  0.0520  0.5769
    1MOL0     H  124   1.361   5.130   4.931 -1.2052 -3.0371 -1.0275
    1MOL0     H  125   1.203   5.177   5.009 -0.3210  1.3662 -0.9046
    1MOL0     H  126   1.272   5.173   4.712 -0.1447  2.1189 -2.1005
    1MOL0     H  127   1.114   5.237   4.774  0.7400  1.5114  1.7314
    1MOL0     H  128   1.222   4.951   4.789  0.0688 -0.8382 -2.6610
    1MOL0     H  129   1.067   5.003   4.857 -0.3759  1.2029  0.1032
    1MOL0     H  130   0.987   4.955   4.443 -2.3146  1.1144  1.1483
    1MOL0     H  131   1.699   5.444   4.920  0.9067  1.0156  1.3743
    1MOL0     H  132   1.867   5.412   5.112  0.8991  0.7773 -2.0385
    2MOL0     O  133   5.054   0.436   6.460  0.3623  0.0881  0.5439
    2MOL0     C  134   4.997   0.400   6.358  0.0753  0.5035 -0.0752
    2MOL0     O  135   5.055   0.329   6.255 -0.2417  0.4578  0.0503
    2MOL0     C  136   5.187   0.292   6.266 -0.4589 -1.2251  0.6482
    2MOL0     C  137   5.291   0.396   6.296 -0.5660 -0.0455  0.6179
    2MOL0     C  138   5.427   0.341   6.300  0.3646 -0.3764 -0.2542
    2MOL0     C  139   5.454   0.207   6.282 -0.0932 -0.4398 -0.3201
    2MOL0     O  140   5.582   0.173   6.282  0.2001  0.2067 -0.0220
    2MOL0     C  141   5.639   0.167   6.155  0.4404 -0.7990  0.2353
    2MOL0     C  142   5.776   0.096   6.145  0.3591 -0.2066  0.6771
    2MOL0     C  143   5.778  -0.057   6.134 -0.4058  0.4020  0.9785
    2MOL0     C  144   5.725  -0.117   6.271  0.7651  0.4254 -0.1923
    2MOL0     C  145   5.721  -0.268   6.275  0.0829  0.1874 -0.4866
    2MOL0     C  146   5.862  -0.342   6.261  0.4108 -0.2324  0.1072
    2MOL0     C  147   5.956  -0.288   6.380  0.5415 -0.1060 -0.1581
    2MOL0     C  148   5.894  -0.303   6.519 -0.4703 -0.2599 -0.2342
    2MOL0     N  149   5.872  -0.445   6.564  0.2090 -0.1599 -0.5765
    2MOL0     C  150   5.921  -0.514   6.671  0.6089 -0.5661  0.5000
    2MOL0     C  151   5.852  -0.626   6.692 -0.2003 -0.3099 -0.2951
    2MOL0     C  152   5.879  -0.724   6.807 -0.9155 -0.1613  0.9432
    2MOL0     C  153   5.963  -0.853   6.762  0.3472 -0.6701  0.9948
    2MOL0     C  154   6.081  -0.826   6.654  0.4606 -0.4060  0.4497
    2MOL0     C  155   6.213  -0.876   6.700  0.2554 -1.4463  0.7896
    2MOL0     O  156   6.245  -0.821   6.827  0.4159  0.7077 -0.2606
    2MOL0     C  157   6.330  -0.900   6.900 -0.2069  0.3988 -0.5210
    2MOL0     C  158   6.349  -0.865   7.034 -0.5212  0.2871  0.4850
    2MOL0     C  159   6.449  -0.933   7.114  0.5272  0.4024  0.1220
    2MOL0     C  160   6.506  -1.057   7.087 -0.4817 -0.1076  0.7789
    2MOL0     C  161   6.596  -1.123   7.181  0.5576  0.7190  0.9120
    2MOL0     O  162   6.642  -1.066   7.296 -0.0167 -0.0601  0.3128
    2MOL0     C  163   6.686  -1.146   7.400  0.0154 -0.6283 -0.0353
    2MOL0     C  164   6.771  -1.083   7.496 -0.0718  0.1804 -0.4419
    2MOL0     C  165   6.822  -1.157   7.597  0.3255  0.8166  0.2453
    2MOL0     C  166   6.795  -1.297   7.607  0.6653 -0.6332 -0.8185
    2MOL0     O  167   6.869  -1.371   7.690  0.2720  0.0589 -0.5349
    2MOL0     C  168   6.991  -1.422   7.634  0.4552  0.4931  0.1157
    2MOL0     C  169   7.010  -1.567   7.691  0.1348  0.0290 -0.3389
    2MOL0     C  170   7.133  -1.640   7.639 -0.0182  0.6782 -0.3756
    2MOL0     C  171   7.152  -1.785   7.688  0.4442 -0.2217 -0.0457
    2MOL0     C  172   7.276  -1.857   7.626  0.5282 -0.1421 -0.0947
    2MOL0     C  173   7.273  -1.878   7.479 -0.4434  0.8566 -0.2837
    2MOL0     C  174   7.152  -1.973   7.441 -0.4093  0.1100 -1.1341
    2MOL0     C  175   7.174  -2.045   7.305  0.3570 -0.8266  0.0506
    2MOL0    Cl  176   7.017  -2.122   7.251  0.3261 -0.2534  0.1222
    2MOL0     C  177   6.685  -1.346   7.545 -0.3794  0.4329 -0.3434
    2MOL0     C  178   6.624  -1.267   7.441 -1.0889  0.4702  0.0406
    2MOL0     O  179   6.615  -1.240   7.146  0.5677 -0.0919 -0.2145
    2MOL0     C  180   6.476  -1.096   6.950 -0.8153  0.0460 -0.3361
    2MOL0     C  181   6.396  -1.018   6.856 -0.7217  0.4630  1.5364
    2MOL0     N  182   5.761  -0.632   6.595  1.0017 -0.1417  0.6324
    2MOL0     N  183   5.767  -0.524   6.522  0.0643  0.0679 -0.2794
    2MOL0     C  184   5.359   0.106   6.253 -0.6702  0.2744  0.0312
    2MOL0     C  185   5.225   0.157   6.233 -0.3340 -0.6096  0.3673
    2MOL0     C  186   4.854   0.428   6.341 -0.4558  0.0140  0.3088
    2MOL0     C  187   4.800   0.431   6.210 -0.5456  0.2870 -0.3816
    2MOL0     C  188   4.671   0.475   6.192 -0.3635 -0.3217  0.7066
    2MOL0     C  189   4.593   0.521   6.294 -0.2673 -0.0126 -1.5777
    2MOL0     O  190   4.475   0.569   6.262  0.0835  0.4190 -0.3139
    2MOL0     C  191   4.399   0.645   6.352 -0.5248 -1.0891  0.1384
    2MOL0     C  192   4.279   0.568   6.428 -0.6481 -0.2320 -0.6131
    2MOL0     C  193   4.170   0.670   6.475 -0.1429  0.0728 -0.7832
    2MOL0     C  194   4.054   0.594   6.550 -0.3862  1.0989 -0.3180
    2MOL0     C  195   4.103   0.502   6.659 -0.2106  0.2760 -0.0364
    2MOL0     C  196   4.162   0.430   6.733  0.9824  0.2625 -0.1129
    2MOL0     C  197   4.642   0.507   6.421 -0.1894 -0.1448 -0.6279
    2MOL0     C  198   4.767   0.465   6.440 -0.3056 -0.4750 -0.8311
    2MOL0     H  199   5.265   0.500   6.311 -0.0414  0.3969 -1.2751
    2MOL0     H  200   5.509   0.408   6.326 -1.3928  1.7081  0.2191
    2MOL0     H  201   5.628   0.268   6.113  1.3791 -1.6126 -2.1719
    2MOL0     H  202   5.575   0.102   6.094  0.0733 -1.6690  1.5130
    2MOL0     H  203   5.838   0.138   6.225 -1.7324  4.2557  0.2822
    2MOL0     H  204   5.815   0.119   6.045  2.6889 -3.8936  0.5842
    2MOL0     H  205   5.878  -0.099   6.115 -1.6887 -1.5460 -2.1726
    2MOL0     H  206   5.717  -0.098   6.053 -1.5342 -0.7167  2.3346
    2MOL0     H  207   5.789  -0.081   6.352  1.8045 -0.6166 -0.5150
    2MOL0     H  208   5.621  -0.087   6.290 -0.2326 -3.1423  0.8402
    2MOL0     H  209   5.671  -0.297   6.182 -1.3598  1.7541 -0.2514
    2MOL0     H  210   5.669  -0.306   6.364  0.4895  3.1306  1.1213
    2MOL0     H  211   5.906  -0.331   6.162  0.0538 -3.4424 -0.5273
    2MOL0     H  212   5.852  -0.451   6.263  0.5800 -0.2479  0.0689
    2MOL0     H  213   6.048  -0.348   6.380  0.0991 -0.8150  1.1239
    2MOL0     H  214   5.985  -0.187   6.351  2.7318 -0.7531 -0.4385
    2MOL0     H  215   5.807  -0.243   6.547 -1.0615 -0.8997 -0.6576
    2MOL0     H  216   5.974  -0.263   6.582  0.5445 -2.3021 -0.1389
    2MOL0     H  217   6.013  -0.477   6.716 -0.1785  2.4016 -0.0881
    2MOL0     H  218   5.799  -0.760   6.871  0.3596 -3.0631  1.0568
    2MOL0     H  219   5.943  -0.674   6.880 -0.6793 -1.6125  1.7644
    2MOL0     H  220   5.895  -0.925   6.715  0.4184 -1.3885  1.9574
    2MOL0     H  221   5.999  -0.903   6.853 -0.3389  0.8020  2.1339
    2MOL0     H  222   6.050  -0.887   6.568  2.2700 -0.6911 -0.0366
    2MOL0     H  223   6.087  -0.721   6.624  0.2078 -0.5700 -0.1929
    2MOL0     H  224   6.291  -0.872   6.624  0.6257 -0.6780  1.1924
    2MOL0     H  225   6.188  -0.982   6.708 -2.6049 -1.0395 -1.1383
    2MOL0     H  226   6.297  -0.779   7.074 -0.2695 -0.6024  2.8890
    2MOL0     H  227   6.463  -0.891   7.213 -1.0411  0.5541  0.3018
    2MOL0     H  228   6.814  -0.984   7.486  0.5503  0.1792  1.7651
    2MOL0     H  229   6.908  -1.116   7.649  3.7331 -0.0831 -4.0121
    2MOL0     H  230   7.067  -1.351   7.668 -2.3384  2.2625  3.3031
    2MOL0     H  231   6.994  -1.421   7.525 -1.0535  3.1614  0.0303
    2MOL0     H  232   6.930  -1.638   7.669 -0.2694  0.9442 -2.0879
    2MOL0     H  233   7.004  -1.558   7.799  3.9343  0.7259 -0.0263
    2MOL0     H  234   7.220  -1.587   7.678  1.5770 -0.6279 -1.9938
    2MOL0     H  235   7.142  -1.633   7.530  0.0337 -1.2225 -0.5182
    2MOL0     H  236   7.162  -1.786   7.797  0.7871 -3.1126 -0.0141
    2MOL0     H  237   7.063  -1.839   7.656 -1.7441  2.1344  1.6583
    2MOL0     H  238   7.296  -1.948   7.683 -0.1624 -0.3991 -0.2541
    2MOL0     H  239   7.363  -1.792   7.646  1.3974 -1.1952 -0.3524
    2MOL0     H  240   7.370  -1.919   7.448 -0.3485  1.7130 -1.1783
    2MOL0     H  241   7.270  -1.790   7.414  0.7060  0.8235 -0.4113
    2MOL0     H  242   7.127  -2.052   7.513  0.1636 -0.3648 -1.4454
    2MOL0     H  243   7.056  -1.921   7.428 -0.5011 -0.0445 -1.0749
    2MOL0     H  244   7.242  -2.125   7.338 -1.7244 -2.3917  0.7324
    2MOL0     H  245   7.209  -1.981   7.224 -2.4687  1.0466  0.2021
    2MOL0     H  246   6.657  -1.448   7.571  1.7594  0.7311  4.0225
    2MOL0     H  247   6.542  -1.310   7.384  0.7787 -1.3166 -1.4734
    2MOL0     H  248   6.527  -1.186   6.917 -2.7383 -0.5209 -1.9951
    2MOL0     H  249   6.387  -1.066   6.759 -4.4950 -0.2179  2.0626
    2MOL0     H  250   5.382   0.002   6.232 -0.6420  0.6788 -2.1687
    2MOL0     H  251   5.152   0.082   6.203 -0.0307 -0.4954 -0.7223
    2MOL0     H  252   4.866   0.401   6.129 -1.0352 -2.2049  0.0575
    2MOL0     H  253   4.633   0.503   6.094  0.3380 -0.2704  0.4487
    2MOL0     H  254   4.362   0.727   6.289  0.1136  1.0644  2.4163
    2MOL0     H  255   4.461   0.702   6.421  0.4892 -2.8459  0.7271
    2MOL0     H  256   4.235   0.500   6.354 -2.7526  2.6163 -2.2202
    2MOL0     H  257   4.327   0.507   6.504  1.6117  1.3903 -0.6345
    2MOL0     H  258   4.127   0.726   6.392  1.1369 -1.4673 -2.5605
    2MOL0     H  259   4.217   0.737   6.548 -1.5718  1.7690 -1.3512
    2MOL0     H  260   3.982   0.668   6.587  1.7283  2.2559  1.7930
    2MOL0     H  261   3.996   0.533   6.480 -1.4715 -0.8809  2.1326
    2MOL0     H  262   4.208   0.365   6.805  3.0677  0.6090 -1.0828
    2MOL0     H  263   4.583   0.533   6.508  1.2297  0.6359  0.1344
    2MOL0     H  264   4.799   0.481   6.543 -2.7977 -0.7380  0.0716
    3MOL0     O  265   4.094   7.758   0.881 -0.1833 -0.2892  0.4319
    3MOL0     C  266   4.202   7.713   0.858  0.4014  0.0176 -0.0758
    3MOL0     O  267   4.233   7.646   0.747 -0.5669 -0.0858  0.1357
    3MOL0     C  268   4.152   7.632   0.642 -0.0618 -0.1867  0.2953
    3MOL0     C  269   4.162   7.714   0.534 -0.2272 -0.1259  0.0850
    3MOL0     C  270   4.069   7.700   0.431  0.2079  0.1350  0.0721
    3MOL0     C  271   3.968   7.593   0.430 -0.5301  0.0500  0.1014
    3MOL0     O  272   3.882   7.553   0.327 -0.2150  0.6595 -1.0679
    3MOL0     C  273   3.859   7.637   0.220 -0.7170 -0.3506  0.3582
    3MOL0     C  274   3.760   7.580   0.126  0.3931 -0.2515  0.5541
    3MOL0     C  275   3.624   7.562   0.197  0.4282 -0.7581  0.3660
    3MOL0     C  276   3.512   7.544   0.098 -1.2482 -0.2427  0.0795
    3MOL0     C  277   3.376   7.511   0.145  0.0699 -0.1327 -0.9185
    3MOL0     C  278   3.347   7.377   0.220 -0.8421 -0.7258 -0.8253
    3MOL0     C  279   3.269   7.278   0.139  0.1126  0.2900 -0.3598
    3MOL0     C  280   3.364   7.167   0.087  0.7176 -0.3198 -0.6570
    3MOL0     N  281   3.282   7.063   0.019  0.2456  0.3459 -0.2220
    3MOL0     C  282   3.327   6.985  -0.084 -0.4818  0.3924  0.7174
    3MOL0     C  283   3.251   6.881  -0.091 -0.1784  0.1669 -0.2867
    3MOL0     C  284   3.272   6.768  -0.186 -0.1688 -0.1723 -0.6023
    3MOL0     C  285   3.343   6.641  -0.133  0.2084 -0.5711 -0.2163
    3MOL0     C  286   3.274   6.579  -0.005  0.2785 -0.4911 -0.1586
    3MOL0     C  287   3.379   6.481   0.058  0.1748  0.0187 -0.0751
    3MOL0     O  288   3.405   6.378  -0.033 -1.0734 -0.1120  0.2830
    3MOL0     C  289   3.302   6.288  -0.062 -0.1167  0.1225 -0.0219
    3MOL0     C  290   3.235   6.300  -0.182 -0.5118 -0.0303  0.6328
    3MOL0     C  291   3.128   6.209  -0.213  0.0998 -0.5702  0.0627
    3MOL0     C  292   3.110   6.104  -0.122  0.3445 -0.1286 -0.5527
    3MOL0     C  293   2.997   6.006  -0.143  0.1202 -0.0006 -0.6197
    3MOL0     O  294   2.912   6.030  -0.252 -0.2416 -0.1998 -0.1280
    3MOL0     C  295   2.802   5.955  -0.294 -0.0691 -0.7266 -0.3524
    3MOL0     C  296   2.745   5.844  -0.235  0.1534  0.5858 -0.8257
    3MOL0     C  297   2.638   5.780  -0.303  0.4490 -0.4091  0.1107
    3MOL0     C  298   2.598   5.808  -0.430 -0.1639 -0.4856 -0.0685
    3MOL0     O  299   2.493   5.734  -0.478 -0.0539 -0.1591  0.8842
    3MOL0     C  300   2.384   5.812  -0.523 -0.5604 -0.1618  0.2937
    3MOL0     C  301   2.255   5.737  -0.492  0.4648  1.4507 -0.1185
    3MOL0     C  302   2.245   5.704  -0.339  0.6507 -0.3171 -0.6329
    3MOL0     C  303   2.095   5.655  -0.312  0.0120 -0.1166 -0.4272
    3MOL0     C  304   2.070   5.504  -0.354 -0.2045  0.0350 -0.3882
    3MOL0     C  305   1.926   5.461  -0.338  0.3525  0.0992 -0.2716
    3MOL0     C  306   1.833   5.547  -0.410  0.7746 -0.8569  1.2161
    3MOL0     C  307   1.696   5.487  -0.438  0.2297 -0.7484  0.0577
    3MOL0    Cl  308   1.598   5.476  -0.299  0.2003  0.0638 -0.3129
    3MOL0     C  309   2.656   5.913  -0.491 -0.7249  0.5183 -0.5017
    3MOL0     C  310   2.766   5.978  -0.428  0.2219  0.5008  0.3108
    3MOL0     O  311   2.959   5.943  -0.045 -0.5315  0.4148  0.6761
    3MOL0     C  312   3.191   6.094  -0.007  0.4367  0.5939 -0.5563
    3MOL0     C  313   3.282   6.186   0.023 -0.2225 -1.0896 -0.2111
    3MOL0     N  314   3.147   6.902  -0.007 -0.0099  0.5783 -0.4261
    3MOL0     N  315   3.167   7.006   0.066  0.8741 -0.5042  0.1142
    3MOL0     C  316   3.959   7.521   0.556 -0.2485  0.0896  1.7170
    3MOL0     C  317   4.036   7.550   0.664 -0.4626  0.5675 -0.2367
    3MOL0     C  318   4.313   7.753   0.950 -0.9405 -0.2103  0.0177
    3MOL0     C  319   4.302   7.877   1.016  0.2128 -0.4716  0.1915
    3MOL0     C  320   4.398   7.912   1.112 -0.3086  0.6223 -0.2549
    3MOL0     C  321   4.493   7.828   1.154 -0.9770  0.0515 -0.8624
    3MOL0     O  322   4.587   7.847   1.251  0.3447 -0.0683 -0.8731
    3MOL0     C  323   4.592   7.967   1.321  0.3434  0.3772 -0.8677
    3MOL0     C  324   4.473   7.953   1.417  0.5978  0.2008 -0.0130
    3MOL0     C  325   4.460   8.051   1.524 -0.0206  0.4663 -0.3050
    3MOL0     C  326   4.558   8.035   1.642 -0.2303 -0.2364 -0.2949
    3MOL0     C  327   4.511   7.919   1.719  0.7325 -0.2390 -1.0920
    3MOL0     C  328   4.484   7.817   1.789 -0.1426 -0.2979  0.1295
    3MOL0     C  329   4.501   7.704   1.085  0.1006 -1.1463  0.5973
    3MOL0     C  330   4.421   7.670   0.978  0.5297 -0.2504  0.0744
    3MOL0     H  331   4.245   7.782   0.517 -1.4963  1.8472  1.2578
    3MOL0     H  332   4.093   7.744   0.334  1.1325 -0.8692 -0.1728
    3MOL0     H  333   3.948   7.651   0.158 -1.2221  1.9507  0.0320
    3MOL0     H  334   3.825   7.730   0.267  1.6797 -0.8916  3.4188
    3MOL0     H  335   3.799   7.481   0.100  0.7965  0.5877 -2.4233
    3MOL0     H  336   3.744   7.650   0.043 -0.1052  2.2330  2.6067
    3MOL0     H  337   3.606   7.645   0.266  0.2475 -1.6070  1.3719
    3MOL0     H  338   3.623   7.472   0.259 -0.7059  0.3945  2.1171
    3MOL0     H  339   3.509   7.633   0.034  5.5827 -0.7857 -1.8309
    3MOL0     H  340   3.554   7.460   0.042  2.0113 -1.1705  3.4848
    3MOL0     H  341   3.299   7.526   0.068 -2.4961  2.8937  1.9377
    3MOL0     H  342   3.357   7.597   0.211 -2.2250  0.4953 -2.2548
    3MOL0     H  343   3.291   7.389   0.313  0.0947 -1.7914 -0.1077
    3MOL0     H  344   3.441   7.334   0.257 -1.2248 -1.6551 -0.8991
    3MOL0     H  345   3.199   7.233   0.210  0.5109 -0.2432 -0.2930
    3MOL0     H  346   3.212   7.321   0.056 -0.4647 -0.4797 -0.3680
    3MOL0     H  347   3.429   7.131   0.168  0.1680 -3.9658 -1.6676
    3MOL0     H  348   3.424   7.204   0.003 -1.3012 -1.6789 -2.8083
    3MOL0     H  349   3.427   6.980  -0.127 -0.5588 -1.3785  0.6712
    3MOL0     H  350   3.336   6.817  -0.260  0.2261  2.8877  1.5963
    3MOL0     H  351   3.176   6.733  -0.226 -0.7896 -0.9580  1.4407
    3MOL0     H  352   3.444   6.671  -0.104  0.0715 -1.1256  0.8921
    3MOL0     H  353   3.346   6.575  -0.220  0.9540  2.2618 -2.4999
    3MOL0     H  354   3.251   6.658   0.068  0.2911  0.0598 -0.7361
    3MOL0     H  355   3.171   6.546  -0.021  0.0168  0.6291 -0.9181
    3MOL0     H  356   3.323   6.432   0.137 -3.0166 -0.7265 -2.5753
    3MOL0     H  357   3.475   6.520   0.093  0.3954  0.3006 -0.9616
    3MOL0     H  358   3.259   6.382  -0.249 -1.1009 -1.0589 -0.8921
    3MOL0     H  359   3.073   6.209  -0.307 -3.9622 -0.7983  2.1908
    3MOL0     H  360   2.780   5.802  -0.141  1.4074  0.0425 -1.5118
    3MOL0     H  361   2.579   5.715  -0.239  1.3613 -0.0580  1.3299
    3MOL0     H  362   2.397   5.839  -0.629 -2.3247  2.6497  0.6755
    3MOL0     H  363   2.380   5.908  -0.471 -0.5558 -1.5508  3.0033
    3MOL0     H  364   2.241   5.647  -0.551  1.4806  0.2851  1.3470
    3MOL0     H  365   2.161   5.787  -0.519 -2.6711 -2.3597  2.5950
    3MOL0     H  366   2.284   5.793  -0.288  0.5810  0.8442 -2.5177
    3MOL0     H  367   2.316   5.631  -0.298  0.3852  0.4474  1.3040
    3MOL0     H  368   2.087   5.655  -0.203  1.6714 -1.1884 -0.2588
    3MOL0     H  369   2.017   5.713  -0.361  4.1356  3.6557 -3.3568
    3MOL0     H  370   2.123   5.434  -0.289 -2.0396  2.3612  3.9884
    3MOL0     H  371   2.089   5.488  -0.461  2.7227 -0.4182  0.1065
    3MOL0     H  372   1.901   5.462  -0.232  0.3977  0.7290 -0.2577
    3MOL0     H  373   1.915   5.360  -0.378 -2.0059 -0.4151  1.4320
    3MOL0     H  374   1.817   5.638  -0.351  0.6101 -0.9575  1.3288
    3MOL0     H  375   1.877   5.565  -0.508 -0.8347  1.7744  0.8685
    3MOL0     H  376   1.702   5.385  -0.476 -0.9191 -0.9412  0.3620
    3MOL0     H  377   1.646   5.549  -0.513  3.9020 -1.1995 -3.0874
    3MOL0     H  378   2.617   5.948  -0.586  0.7746 -0.4715 -1.5365
    3MOL0     H  379   2.812   6.056  -0.488  0.4716  0.7018  0.7530
    3MOL0     H  380   3.168   6.015   0.063 -1.4551  0.1502 -1.6061
    3MOL0     H  381   3.330   6.175   0.120 -0.5002  2.8007  0.5060
    3MOL0     H  382   3.872   7.457   0.568 -3.0624  3.1977 -0.2315
    3MOL0     H  383   4.021   7.498   0.758  0.9560 -1.7190 -1.1990
    3MOL0     H  384   4.229   7.956   1.003 -0.3924 -1.3748 -2.7122
    3MOL0     H  385   4.410   8.015   1.143  3.6698 -0.5525  3.0541
    3MOL0     H  386   4.601   8.057   1.260  0.8664  0.9593  0.0537
    3MOL0     H  387   4.683   7.977   1.381 -0.4295 -0.5165  0.5181
    3MOL0     H  388   4.376   7.957   1.367 -0.0541 -1.2575  1.0618
    3MOL0     H  389   4.472   7.851   1.457 -0.0196  0.2065  0.0055
    3MOL0     H  390   4.357   8.055   1.559 -0.2348  1.2166 -0.9902
    3MOL0     H  391   4.477   8.145   1.471 -1.3077  1.5344  1.1016
    3MOL0     H  392   4.662   8.015   1.614 -0.8022 -1.2949 -1.7504
    3MOL0     H  393   4.567   8.129   1.699 -0.1345  1.5874 -3.1288
    3MOL0     H  394   4.467   7.731   1.852 -1.3525 -0.7429 -0.7709
    3MOL0     H  395   4.576   7.631   1.115  2.7496 -1.1886 -4.9965
    3MOL0     H  396   4.437   7.577   0.925  1.8570  1.0979 -2.0338
    4MOL0     O  397   0.439   3.156   1.189  0.1549 -0.3006 -0.4427
    4MOL0     C  398   0.417   3.173   1.311 -1.0243 -1.1350 -0.2753
    4MOL0     O  399   0.510   3.188   1.416 -0.2020 -0.7685 -0.0421
    4MOL0     C  400   0.637   3.171   1.398 -0.3537  0.1670 -0.0879
    4MOL0     C  401   0.711   3.117   1.501 -0.3108  0.2574 -1.1989
    4MOL0     C  402   0.849   3.114   1.495 -1.5107  0.3067  0.6642
    4MOL0     C  403   0.917   3.158   1.385 -0.3240 -0.1036 -0.4115
    4MOL0     O  404   1.053   3.137   1.404  0.3673 -0.7590  0.7870
    4MOL0     C  405   1.143   3.237   1.353  0.3963 -0.7895  0.6537
    4MOL0     C  406   1.284   3.195   1.393  0.1068 -0.5374  0.4524
    4MOL0     C  407   1.295   3.219   1.545  0.1870 -0.2143  0.0936
    4MOL0     C  408   1.435   3.171   1.585 -0.2985 -0.2651 -0.2469
    4MOL0     C  409   1.461   3.172   1.739  0.0772 -0.5480  0.4930
    4MOL0     C  410   1.404   3.049   1.815 -0.3105 -0.0630  0.4804
    4MOL0     C  411   1.305   3.095   1.919  0.3385  0.3643  0.0608
    4MOL0     C  412   1.247   2.986   2.005  0.0069  1.0348 -0.0708
    4MOL0     N  413   1.350   2.942   2.104  0.9670 -0.6438 -0.7825
    4MOL0     C  414   1.399   3.006   2.218  0.5974 -0.1911 -0.8041
    4MOL0     C  415   1.488   2.923   2.264  0.3202 -0.2134  0.3127
    4MOL0     C  416   1.586   2.947   2.380  0.0976 -0.8475 -0.4293
    4MOL0     C  417   1.525   2.889   2.508 -0.5043 -0.5839  0.3000
    4MOL0     C  418   1.583   2.749   2.536  0.1832 -0.2107  0.9978
    4MOL0     C  419   1.731   2.739   2.559 -0.6072 -0.6110  0.3920
    4MOL0     O  420   1.752   2.610   2.615  0.0173 -0.6288 -0.4120
    4MOL0     C  421   1.823   2.601   2.735 -0.9917 -0.9407 -1.2372
    4MOL0     C  422   1.950   2.681   2.761  0.3720 -0.6675 -0.4748
    4MOL0     C  423   2.010   2.668   2.891 -0.0849  0.1067  0.0420
    4MOL0     C  424   1.972   2.588   2.996  1.2429 -1.2339 -1.0421
    4MOL0     C  425   2.035   2.593   3.133 -0.5250  0.1013  0.5448
    4MOL0     O  426   2.101   2.710   3.164  1.3106  0.4439  0.3753
    4MOL0     C  427   2.148   2.725   3.285 -0.0476 -0.0580 -0.2509
    4MOL0     C  428   2.070   2.716   3.400  0.7567  0.4286 -0.4804
    4MOL0     C  429   2.130   2.726   3.530  0.3586 -0.4389 -0.1211
    4MOL0     C  430   2.271   2.740   3.545 -0.3619  1.5210  0.2273
    4MOL0     O  431   2.335   2.742   3.660  0.1540 -0.4854 -0.2229
    4MOL0     C  432   2.258   2.709   3.777 -0.9315  0.1284 -0.1769
    4MOL0     C  433   2.353   2.685   3.904  0.5767 -0.0823 -0.3934
    4MOL0     C  434   2.457   2.805   3.902  0.7573  0.6852 -0.7706
    4MOL0     C  435   2.534   2.798   4.043  0.0091  0.0332 -0.0144
    4MOL0     C  436   2.656   2.893   4.063 -0.4927  0.4393 -0.2160
    4MOL0     C  437   2.734   2.817   4.179 -0.3312  0.1495 -0.0492
    4MOL0     C  438   2.849   2.907   4.227  0.1659  0.4503 -0.8995
    4MOL0     C  439   2.970   2.831   4.293 -0.1414  0.4628  0.3841
    4MOL0    Cl  440   3.120   2.923   4.278  0.0229  0.2439  0.3463
    4MOL0     C  441   2.346   2.741   3.428 -0.0208 -0.1842 -0.4969
    4MOL0     C  442   2.289   2.735   3.301  0.5681  0.3100  0.3206
    4MOL0     O  443   2.022   2.499   3.219 -0.4001  0.9276  1.2433
    4MOL0     C  444   1.865   2.504   2.964 -0.0034 -0.7913  0.6692
    4MOL0     C  445   1.789   2.515   2.841 -0.7657  0.3127 -0.0923
    4MOL0     N  446   1.502   2.810   2.184  0.3492  0.4505  0.3380
    4MOL0     N  447   1.409   2.819   2.096  0.4586 -0.0344  0.2167
    4MOL0     C  448   0.845   3.195   1.271  0.3796  0.6415 -0.8824
    4MOL0     C  449   0.707   3.201   1.281  0.2990 -0.2783 -0.1603
    4MOL0     C  450   0.278   3.192   1.347  0.4629 -0.8158 -0.4711
    4MOL0     C  451   0.243   3.163   1.477 -0.2740  0.6441 -0.9920
    4MOL0     C  452   0.110   3.160   1.519 -0.7643  0.2209  0.7057
    4MOL0     C  453   0.011   3.224   1.431  0.8187  0.1564 -0.3020
    4MOL0     O  454  -0.122   3.244   1.464  0.2281 -0.2452  0.1739
    4MOL0     C  455  -0.160   3.187   1.584  0.1643  0.1378  0.0196
    4MOL0     C  456  -0.312   3.175   1.610 -0.2272 -0.9371  0.1444
    4MOL0     C  457  -0.348   3.052   1.696 -0.2105  0.5638 -0.5374
    4MOL0     C  458  -0.276   3.053   1.839 -0.8473 -0.4568  0.3176
    4MOL0     C  459  -0.158   2.976   1.842 -0.3155 -0.0656 -0.1303
    4MOL0     C  460  -0.065   2.899   1.857 -0.1138  1.1700  0.4538
    4MOL0     C  461   0.047   3.275   1.302 -0.4901  0.0308  0.2333
    4MOL0     C  462   0.182   3.248   1.262  1.7948 -0.0604 -0.1340
    4MOL0     H  463   0.655   3.082   1.587 -1.2801  1.5289 -1.2807
    4MOL0     H  464   0.897   3.057   1.575 -1.5597 -1.1516 -0.2974
    4MOL0     H  465   1.117   3.338   1.385  1.1892  0.0332 -1.1763
    4MOL0     H  466   1.132   3.235   1.244  1.2756  3.5936  0.3338
    4MOL0     H  467   1.350   3.269   1.348  0.8509 -1.7910 -0.5611
    4MOL0     H  468   1.301   3.093   1.358 -1.3555 -0.7588  0.3226
    4MOL0     H  469   1.228   3.153   1.601  0.3818 -0.9302 -0.5065
    4MOL0     H  470   1.272   3.321   1.577 -0.1418 -0.4749  0.7168
    4MOL0     H  471   1.448   3.074   1.537  1.1237 -1.0720  1.6381
    4MOL0     H  472   1.504   3.236   1.531 -1.5488 -0.9730 -2.8247
    4MOL0     H  473   1.416   3.263   1.778 -0.9457 -1.6033  1.8927
    4MOL0     H  474   1.569   3.180   1.757  0.5004 -0.4809 -1.7451
    4MOL0     H  475   1.479   2.985   1.862 -0.8792  0.3927  2.0565
    4MOL0     H  476   1.353   2.987   1.741 -0.3642 -3.1408  2.9144
    4MOL0     H  477   1.351   3.171   1.983 -2.4767  3.2665 -1.1162
    4MOL0     H  478   1.225   3.146   1.865  0.6703 -0.9594 -1.7624
    4MOL0     H  479   1.216   2.906   1.938  2.3737  1.3102 -1.6199
    4MOL0     H  480   1.153   3.016   2.052  0.2483 -0.1426  1.2640
    4MOL0     H  481   1.371   3.101   2.260  0.5873 -2.0719  4.0484
    4MOL0     H  482   1.592   3.054   2.401 -1.0726 -1.0751  1.3038
    4MOL0     H  483   1.684   2.901   2.366 -0.3953 -1.9852 -0.1988
    4MOL0     H  484   1.418   2.878   2.489 -0.0744  0.6249 -3.5977
    4MOL0     H  485   1.557   2.960   2.585  3.5954  0.0481 -1.7230
    4MOL0     H  486   1.519   2.702   2.611 -1.4527  1.7591  0.9204
    4MOL0     H  487   1.568   2.690   2.446 -2.7786  1.3193  0.3882
    4MOL0     H  488   1.760   2.815   2.631  2.5422 -1.1252 -0.1647
    4MOL0     H  489   1.795   2.735   2.470 -0.2854 -2.5196  0.6566
    4MOL0     H  490   1.977   2.756   2.686 -2.1778  0.7241 -0.1150
    4MOL0     H  491   2.102   2.725   2.900 -0.9954  1.5429  0.4672
    4MOL0     H  492   1.962   2.705   3.394  0.8007  0.2477 -0.9256
    4MOL0     H  493   2.067   2.716   3.617  0.5486 -0.5581  0.0063
    4MOL0     H  494   2.207   2.613   3.762 -0.8083  0.2719 -1.6667
    4MOL0     H  495   2.179   2.781   3.798 -0.2995  0.6921  0.2847
    4MOL0     H  496   2.398   2.585   3.905 -1.9749 -1.3298 -2.0070
    4MOL0     H  497   2.283   2.684   3.988 -1.4350 -1.2869 -1.9925
    4MOL0     H  498   2.405   2.900   3.889  0.8960  0.8274 -0.3003
    4MOL0     H  499   2.525   2.791   3.818  1.8178  3.1545 -0.3967
    4MOL0     H  500   2.463   2.822   4.122 -1.7920 -0.1264 -1.5076
    4MOL0     H  501   2.561   2.692   4.046  2.4206  0.6064  0.6948
    4MOL0     H  502   2.612   2.991   4.085 -1.5609 -0.3849  1.5393
    4MOL0     H  503   2.727   2.896   3.980 -0.6673 -2.2453 -0.5323
    4MOL0     H  504   2.777   2.722   4.144  0.0096  0.6631 -1.0522
    4MOL0     H  505   2.674   2.791   4.267  1.2073 -0.0148  1.0069
    4MOL0     H  506   2.883   2.960   4.138 -0.3528  0.6930 -0.9572
    4MOL0     H  507   2.807   2.974   4.303 -1.1256 -1.4283  0.1404
    4MOL0     H  508   2.988   2.736   4.240  0.5559  0.7800  0.0329
    4MOL0     H  509   2.952   2.797   4.395 -2.8180 -3.1801 -1.0594
    4MOL0     H  510   2.453   2.735   3.441  0.0105 -1.1647 -1.0784
    4MOL0     H  511   2.352   2.724   3.213  2.9327  0.1988  1.9228
    4MOL0     H  512   1.819   2.426   3.025 -1.8356 -0.9508 -0.8004
    4MOL0     H  513   1.697   2.457   2.841 -0.5172 -0.1222  1.3047
    4MOL0     H  514   0.894   3.226   1.179 -0.8323  0.9932 -1.4301
    4MOL0     H  515   0.658   3.239   1.192 -3.3233 -0.2836  1.6633
    4MOL0     H  516   0.312   3.140   1.558 -2.6023  1.1832  1.3030
    4MOL0     H  517   0.094   3.116   1.617  1.3768  0.3151  1.1293
    4MOL0     H  518  -0.096   3.232   1.660 -1.0418  1.6018  0.2202
    4MOL0     H  519  -0.131   3.082   1.584 -1.5236 -0.3600  0.6854
    4MOL0     H  520  -0.347   3.267   1.656  1.4955  0.0885 -0.5117
    4MOL0     H  521  -0.352   3.161   1.510  0.2197  0.3576 -0.2250
    4MOL0     H  522  -0.346   2.963   1.633 -0.2260 -0.1284  0.4073
    4MOL0     H  523  -0.455   3.057   1.718 -0.4519 -2.8046 -0.5047
    4MOL0     H  524  -0.255   3.159   1.849 -1.3546  0.1471 -3.5705
    4MOL0     H  525  -0.352   3.013   1.908 -2.7754 -0.3551 -1.6292
    4MOL0     H  526   0.033   2.857   1.847 -0.7463  0.3159 -4.2985
    4MOL0     H  527  -0.027   3.332   1.246 -2.9133 -1.7892  1.3927
    4MOL0     H  528   0.214   3.281   1.163  0.3757  1.3189 -0.1689
    5MOL0     O  529   0.836   8.403   7.416  0.2009  0.2658 -0.2346
    5MOL0     C  530   0.854   8.370   7.303  0.7430 -0.0391 -0.4569
    5MOL0     O  531   0.898   8.240   7.275  0.5268  0.0100 -0.1212
    5MOL0     C  532   0.916   8.149   7.371  0.1860 -0.0810  0.2258
    5MOL0     C  533   1.015   8.174   7.469  0.5997  0.3962  0.8167
    5MOL0     C  534   1.038   8.082   7.571  0.6651  0.1809 -0.4825
    5MOL0     C  535   0.965   7.963   7.574 -0.4973 -0.2423 -0.7684
    5MOL0     O  536   0.989   7.879   7.684  0.6066 -0.3160 -0.2301
    5MOL0     C  537   0.984   7.738   7.650 -0.0600 -0.8662  1.4363
    5MOL0     C  538   1.097   7.669   7.729 -0.4623 -0.8664  0.4673
    5MOL0     C  539   1.236   7.702   7.670 -0.3025  1.4361  0.1452
    5MOL0     C  540   1.324   7.611   7.746 -0.1679  0.0466  0.3559
    5MOL0     C  541   1.468   7.619   7.724  0.9850 -0.3771  0.1475
    5MOL0     C  542   1.516   7.745   7.798  0.1736 -0.0067  0.7138
    5MOL0     C  543   1.661   7.759   7.836  0.3190  0.0385 -0.6423
    5MOL0     C  544   1.720   7.894   7.886  0.5828  0.4109 -0.2806
    5MOL0     N  545   1.729   7.994   7.776  0.1533  0.5735  0.3097
    5MOL0     C  546   1.619   8.059   7.726 -0.0404 -0.2418  0.3003
    5MOL0     C  547   1.670   8.144   7.633  0.1703 -0.3596  0.4746
    5MOL0     C  548   1.597   8.242   7.545 -0.4421 -0.2375  0.0630
    5MOL0     C  549   1.503   8.338   7.616  0.1657  0.7855  0.4613
    5MOL0     C  550   1.414   8.436   7.527  0.2934  1.4462  0.6700
    5MOL0     C  551   1.327   8.512   7.620  0.9337 -0.5679 -1.1161
    5MOL0     O  552   1.408   8.582   7.724  0.0752 -0.2005 -0.2251
    5MOL0     C  553   1.363   8.555   7.849 -0.9626  0.6958  0.5291
    5MOL0     C  554   1.245   8.612   7.883 -0.0634  0.2939 -0.1202
    5MOL0     C  555   1.208   8.601   8.023 -1.1209  0.8925  1.1611
    5MOL0     C  556   1.283   8.521   8.114 -0.8887 -0.4071  0.8114
    5MOL0     C  557   1.240   8.509   8.248  0.3051  0.3483  0.5943
    5MOL0     O  558   1.291   8.405   8.326 -0.0011  0.0364 -0.5760
    5MOL0     C  559   1.249   8.395   8.460 -0.4702  0.1605 -0.4343
    5MOL0     C  560   1.351   8.384   8.549 -0.2678  0.5713 -0.4818
    5MOL0     C  561   1.329   8.366   8.685  0.6786 -0.2565 -0.3529
    5MOL0     C  562   1.193   8.369   8.733  1.3965  0.1133  0.6123
    5MOL0     O  563   1.158   8.353   8.866 -0.6913  0.2955 -0.2991
    5MOL0     C  564   1.175   8.217   8.918 -0.0932  0.7323 -0.0244
    5MOL0     C  565   1.270   8.231   9.041  0.5810  0.0435 -0.7316
    5MOL0     C  566   1.306   8.099   9.122  1.0534 -0.5292  0.0019
    5MOL0     C  567   1.338   8.129   9.272  0.8953  0.0845  0.3644
    5MOL0     C  568   1.371   8.007   9.347  0.8909 -1.0335  0.8604
    5MOL0     C  569   1.412   8.054   9.485 -0.1194 -0.5275 -0.7552
    5MOL0     C  570   1.410   7.941   9.601 -0.1628  0.5850 -0.1121
    5MOL0     C  571   1.469   7.986   9.733  0.2726  0.1042 -0.6676
    5MOL0    Cl  572   1.398   7.891   9.864 -0.1568  0.2216 -0.3390
    5MOL0     C  573   1.095   8.389   8.635 -0.3832 -0.5525  0.3043
    5MOL0     C  574   1.116   8.400   8.503 -1.0026 -0.1188  0.9190
    5MOL0     O  575   1.157   8.588   8.290 -0.1307 -0.5774  0.2243
    5MOL0     C  576   1.394   8.454   8.062  0.2211 -0.4182 -0.7722
    5MOL0     C  577   1.439   8.480   7.931 -0.3281 -0.1712 -0.2850
    5MOL0     N  578   1.808   8.136   7.638 -0.5758 -0.1098  0.4901
    5MOL0     N  579   1.839   8.036   7.713  0.7223  0.1136  0.4946
    5MOL0     C  580   0.865   7.934   7.478 -0.4909 -0.2542  0.3196
    5MOL0     C  581   0.856   8.022   7.375 -0.1694  0.4911  0.1407
    5MOL0     C  582   0.817   8.453   7.181 -0.5724 -0.6758 -0.1384
    5MOL0     C  583   0.863   8.388   7.061  0.7438 -1.5404 -0.1496
    5MOL0     C  584   0.833   8.455   6.942  0.4242  0.1298 -0.4913
    5MOL0     C  585   0.765   8.569   6.938 -0.8625 -0.4400  0.8508
    5MOL0     O  586   0.748   8.619   6.812  0.6260 -0.7422 -0.5971
    5MOL0     C  587   0.723   8.770   6.802 -0.3670 -0.9518 -0.0815
    5MOL0     C  588   0.779   8.821   6.671  0.6466  0.5973  0.2114
    5MOL0     C  589   0.729   8.740   6.543 -0.1274  0.3978  0.6794
    5MOL0     C  590   0.577   8.746   6.513  0.3386  0.2883  1.5821
    5MOL0     C  591   0.542   8.882   6.472  1.2354  0.4572  0.7524
    5MOL0     C  592   0.488   8.991   6.458 -1.0496  1.5954  0.2663
    5MOL0     C  593   0.720   8.632   7.057  0.3311 -0.3017 -0.1713
    5MOL0     C  594   0.748   8.578   7.177  0.2298  0.7857 -0.8796
    5MOL0     H  595   1.076   8.263   7.486  2.8966 -1.2707  1.8466
    5MOL0     H  596   1.096   8.102   7.661 -0.8887 -1.8783  1.0838
    5MOL0     H  597   0.999   7.726   7.542 -1.1644 -0.8420  1.2709
    5MOL0     H  598   0.879   7.717   7.671 -0.6446  1.6543  1.2892
    5MOL0     H  599   1.084   7.560   7.724  0.8468 -0.9660 -3.4183
    5MOL0     H  600   1.098   7.706   7.832 -3.4355 -3.1344  1.4785
    5MOL0     H  601   1.283   7.800   7.680  2.0650  0.5395 -1.4645
    5MOL0     H  602   1.247   7.663   7.569  0.4301  3.1091 -0.4523
    5MOL0     H  603   1.307   7.613   7.854  0.7368 -2.8927  0.6358
    5MOL0     H  604   1.295   7.511   7.711 -0.9427  1.2801 -2.8492
    5MOL0     H  605   1.503   7.625   7.620 -0.1916  1.6355 -0.1896
    5MOL0     H  606   1.510   7.529   7.769  2.1681  0.2594  0.3836
    5MOL0     H  607   1.455   7.764   7.887  1.3112 -1.0465  1.7603
    5MOL0     H  608   1.496   7.830   7.732  1.4608  0.0628  0.3874
    5MOL0     H  609   1.696   7.681   7.905  1.1178  2.8647  2.4311
    5MOL0     H  610   1.711   7.739   7.741  1.3459 -0.3549 -0.0394
    5MOL0     H  611   1.826   7.877   7.906  0.6923 -0.3834 -1.4401
    5MOL0     H  612   1.665   7.935   7.971  0.1212  2.2464 -1.4039
    5MOL0     H  613   1.517   8.035   7.754  0.5449  0.2531  3.2393
    5MOL0     H  614   1.535   8.179   7.481 -4.2205  1.4048  1.8093
    5MOL0     H  615   1.668   8.307   7.492  0.0729  0.4355  1.5337
    5MOL0     H  616   1.558   8.389   7.696  0.4994  0.0443  0.7072
    5MOL0     H  617   1.441   8.265   7.669  2.1779 -2.0593 -0.8673
    5MOL0     H  618   1.468   8.509   7.468 -1.0332  0.5260 -1.8433
    5MOL0     H  619   1.358   8.374   7.455  2.6967  2.0081 -1.8316
    5MOL0     H  620   1.258   8.443   7.670  3.5152 -0.6096  2.7247
    5MOL0     H  621   1.285   8.597   7.566  0.5327  1.9885  2.8745
    5MOL0     H  622   1.192   8.681   7.818 -1.0835  0.0355  0.4162
    5MOL0     H  623   1.121   8.663   8.041 -1.9128  0.5523 -1.1327
    5MOL0     H  624   1.447   8.395   8.499  0.1294  1.3841  0.4083
    5MOL0     H  625   1.419   8.354   8.745  1.1201  1.9956 -0.4778
    5MOL0     H  626   1.228   8.143   8.857  1.0812 -1.4394  3.3677
    5MOL0     H  627   1.080   8.179   8.955 -0.4260  3.2739  2.0624
    5MOL0     H  628   1.202   8.291   9.103 -0.6785  0.1778 -2.1590
    5MOL0     H  629   1.359   8.290   9.017  0.2138  1.7674  1.8230
    5MOL0     H  630   1.392   8.049   9.076 -1.0189 -3.4998 -0.9496
    5MOL0     H  631   1.228   8.023   9.121  1.2277 -0.7071 -0.2732
    5MOL0     H  632   1.426   8.192   9.260 -0.7230  2.2310 -1.0949
    5MOL0     H  633   1.262   8.189   9.323  0.6959 -0.3087  0.5401
    5MOL0     H  634   1.456   7.954   9.304  2.1211  1.7257 -0.3571
    5MOL0     H  635   1.285   7.940   9.357  0.2051 -0.1594  0.9809
    5MOL0     H  636   1.340   8.128   9.519  0.0198  0.4942 -2.5919
    5MOL0     H  637   1.513   8.096   9.482  1.4140 -3.7690  0.4049
    5MOL0     H  638   1.306   7.923   9.628 -0.4476 -0.9827 -2.0152
    5MOL0     H  639   1.453   7.848   9.563  1.7893  1.7497 -0.9167
    5MOL0     H  640   1.445   8.092   9.746  1.4134  0.1187  2.0349
    5MOL0     H  641   1.578   7.977   9.739  0.2168  0.4904  2.2702
    5MOL0     H  642   0.992   8.378   8.666 -1.1160  2.9513 -0.5007
    5MOL0     H  643   1.033   8.414   8.435 -0.8336 -1.8562  0.3087
    5MOL0     H  644   1.460   8.395   8.124  2.0069 -0.1014 -2.2814
    5MOL0     H  645   1.543   8.455   7.911  0.8336  3.7879 -0.0205
    5MOL0     H  646   0.800   7.849   7.500 -0.9813 -0.0909 -0.4527
    5MOL0     H  647   0.771   8.019   7.307 -3.0352  2.1024  3.3743
    5MOL0     H  648   0.911   8.291   7.047  0.1348 -2.1116  1.4604
    5MOL0     H  649   0.862   8.420   6.843  0.3604  4.6325 -2.3731
    5MOL0     H  650   0.771   8.836   6.874 -1.8211  2.7339 -2.2316
    5MOL0     H  651   0.617   8.798   6.799 -0.4539 -1.0419  1.5264
    5MOL0     H  652   0.755   8.928   6.669  1.5034  0.8000 -2.1577
    5MOL0     H  653   0.888   8.811   6.675  0.7998  2.3203  1.0784
    5MOL0     H  654   0.762   8.636   6.552 -0.6437  0.1875  0.1921
    5MOL0     H  655   0.782   8.775   6.454 -0.1678 -1.2850 -0.0556
    5MOL0     H  656   0.554   8.672   6.436 -0.3707  0.7282  1.3613
    5MOL0     H  657   0.500   8.732   6.589 -0.2233  3.5994  1.7970
    5MOL0     H  658   0.455   9.089   6.431  0.3669  1.3323 -2.9763
    5MOL0     H  659   0.657   8.720   7.061 -2.0827 -1.8239 -1.9327
    5MOL0     H  660   0.719   8.626   7.270  3.3535  0.7207  0.2474
    6MOL0     O  661   7.041   4.030   2.000  0.4852 -0.0993  0.2038
    6MOL0     C  662   6.928   4.027   1.958 -0.4147  0.0111  0.0003
    6MOL0     O  663   6.864   4.127   1.901  0.7022  0.0830 -1.3397
    6MOL0     C  664   6.909   4.256   1.908 -0.7215 -1.4682 -0.3898
    6MOL0     C  665   6.876   4.341   2.008  0.7059  0.1913 -0.8556
    6MOL0     C  666   6.952   4.461   2.022 -0.0059  0.1388  0.4891
    6MOL0     C  667   7.062   4.491   1.939 -0.2431 -0.7759 -0.7997
    6MOL0     O  668   7.133   4.614   1.957  0.2950 -0.0717 -0.5510
    6MOL0     C  669   7.132   4.664   2.091  0.8501  0.5450  0.2218
    6MOL0     C  670   7.205   4.808   2.112 -0.1239 -0.2209 -0.3946
    6MOL0     C  671   7.367   4.797   2.076 -1.1882 -0.0949  0.3019
    6MOL0     C  672   7.414   4.937   2.053 -0.2897 -0.6732  0.2588
    6MOL0     C  673   7.559   4.930   2.039 -0.3059  0.7743 -0.0419
    6MOL0     C  674   7.617   4.859   1.903 -0.0971 -0.6337 -0.5344
    6MOL0     C  675   7.772   4.860   1.920 -0.6071  0.7891  0.0525
    6MOL0     C  676   7.835   4.869   1.775  0.1406  0.6680 -1.3595
    6MOL0     N  677   7.981   4.862   1.784 -0.2161 -0.1117  0.0062
    6MOL0     C  678   8.062   4.966   1.824  0.1937 -0.6627  0.0622
    6MOL0     C  679   8.183   4.907   1.846 -0.2337 -0.6687 -0.2394
    6MOL0     C  680   8.299   4.989   1.891  0.2317  0.7778 -0.1004
    6MOL0     C  681   8.429   4.969   1.824 -0.6471 -0.2512 -0.8252
    6MOL0     C  682   8.535   5.079   1.842  0.2936 -0.0817 -0.3238
    6MOL0     C  683   8.584   5.082   1.994  0.8560  0.6365 -0.6485
    6MOL0     O  684   8.645   5.205   2.030 -0.6198 -0.1993 -0.8077
    6MOL0     C  685   8.571   5.325   2.041 -0.2933 -0.0525  0.4808
    6MOL0     C  686   8.646   5.446   2.071 -0.2471  0.0664  0.8084
    6MOL0     C  687   8.575   5.565   2.087 -0.6890 -0.5565 -0.3728
    6MOL0     C  688   8.441   5.567   2.072  0.5278  0.2069 -0.8266
    6MOL0     C  689   8.374   5.696   2.086  0.6458  1.0299  0.8941
    6MOL0     O  690   8.250   5.685   2.136  0.5318  0.4311 -0.3341
    6MOL0     C  691   8.161   5.793   2.134  0.1570  0.5568 -0.2802
    6MOL0     C  692   8.141   5.857   2.015 -0.2857 -0.2050  0.8810
    6MOL0     C  693   8.064   5.968   2.013  1.1626  1.0943 -0.1190
    6MOL0     C  694   7.986   6.010   2.122  0.0528  0.5887  0.5360
    6MOL0     O  695   7.906   6.119   2.099 -1.0100 -0.0638 -0.5115
    6MOL0     C  696   7.799   6.139   2.188 -0.2682  0.3163  0.7777
    6MOL0     C  697   7.749   6.276   2.148  0.1596  1.6547 -0.1267
    6MOL0     C  698   7.598   6.283   2.189 -0.4909  0.1853 -0.3567
    6MOL0     C  699   7.566   6.264   2.341 -0.1238  0.0291 -0.3197
    6MOL0     C  700   7.413   6.252   2.362  0.6384  0.8995 -0.2976
    6MOL0     C  701   7.379   6.225   2.505  0.1081 -0.3027 -0.0441
    6MOL0     C  702   7.448   6.313   2.615 -0.3105  0.5876 -0.2064
    6MOL0     C  703   7.359   6.302   2.740 -0.0613  0.1184  0.4733
    6MOL0    Cl  704   7.437   6.385   2.880 -0.2858  0.2763 -0.6010
    6MOL0     C  705   7.996   5.937   2.237  0.3714  1.3713 -0.9380
    6MOL0     C  706   8.088   5.833   2.239 -0.1278  0.0951  0.3794
    6MOL0     O  707   8.436   5.801   2.080  0.2544  0.1263  0.2841
    6MOL0     C  708   8.372   5.452   2.039  0.5891  0.4978 -0.5746
    6MOL0     C  709   8.434   5.327   2.028  0.5481  0.0397 -0.6201
    6MOL0     N  710   8.177   4.773   1.801 -0.7161  0.5366  0.0815
    6MOL0     N  711   8.054   4.754   1.751 -0.8174  0.1214  0.3314
    6MOL0     C  712   7.074   4.416   1.826 -0.0460  0.3130  0.2105
    6MOL0     C  713   7.007   4.294   1.810 -0.6554 -1.6138 -0.4463
    6MOL0     C  714   6.866   3.887   1.963  0.2807 -0.1519 -0.6255
    6MOL0     C  715   6.735   3.873   1.906 -0.2228 -0.6345 -0.5685
    6MOL0     C  716   6.666   3.752   1.904  0.1772 -0.2196 -0.4311
    6MOL0     C  717   6.721   3.639   1.970  0.6114 -0.4055 -0.4927
    6MOL0     O  718   6.650   3.522   1.941  0.5596 -0.0908  0.1655
    6MOL0     C  719   6.723   3.405   1.968  0.1608  0.7282 -0.9101
    6MOL0     C  720   6.611   3.304   1.931  0.5563  0.6863 -0.0036
    6MOL0     C  721   6.586   3.263   1.785  0.1149  0.9483  0.5780
    6MOL0     C  722   6.688   3.153   1.739 -0.3971  0.1068  0.1460
    6MOL0     C  723   6.649   3.100   1.610 -0.3089 -0.3443  0.2340
    6MOL0     C  724   6.624   3.055   1.502  0.6689 -0.3398 -0.5041
    6MOL0     C  725   6.849   3.654   2.025  0.3180  0.4474  0.6494
    6MOL0     C  726   6.918   3.773   2.026  0.5980 -0.3584 -0.3708
    6MOL0     H  727   6.795   4.331   2.079  2.1389 -0.1733  0.7823
    6MOL0     H  728   6.906   4.532   2.090 -1.8828  0.5119 -1.0944
    6MOL0     H  729   7.182   4.608   2.170 -0.7357  0.3570  1.1275
    6MOL0     H  730   7.029   4.681   2.123 -0.0995  3.2969 -3.5796
    6MOL0     H  731   7.190   4.862   2.205 -2.6267  0.6743 -1.2313
    6MOL0     H  732   7.155   4.882   2.049  0.9550  0.6075 -0.3158
    6MOL0     H  733   7.391   4.736   1.989  0.4206 -0.1989  0.7950
    6MOL0     H  734   7.415   4.761   2.167 -1.1363  1.8510  1.1083
    6MOL0     H  735   7.379   4.973   1.955  0.9399 -1.2686 -0.4225
    6MOL0     H  736   7.387   5.007   2.132  3.0605  4.9644 -2.9134
    6MOL0     H  737   7.603   4.870   2.119  2.1098  3.2465  0.6562
    6MOL0     H  738   7.596   5.032   2.030  0.4836  0.3193 -3.6986
    6MOL0     H  739   7.589   4.912   1.811 -3.0801 -2.3341 -0.7262
    6MOL0     H  740   7.573   4.760   1.886  0.8192 -0.8927 -1.4983
    6MOL0     H  741   7.810   4.944   1.980  1.2689 -0.8808  1.3179
    6MOL0     H  742   7.794   4.768   1.975  0.2905  2.3413  2.4468
    6MOL0     H  743   7.792   4.929   1.694 -1.7955  0.1575 -0.7668
    6MOL0     H  744   7.809   4.774   1.727  2.6531  0.1303 -1.7595
    6MOL0     H  745   8.030   5.067   1.844 -2.0624 -1.3886  0.3953
    6MOL0     H  746   8.314   4.975   1.999  2.6316  2.1030 -0.1991
    6MOL0     H  747   8.284   5.097   1.886 -4.2305  0.3251 -0.1180
    6MOL0     H  748   8.398   4.948   1.721  0.7912 -0.1133 -1.3103
    6MOL0     H  749   8.471   4.883   1.876  1.6738  0.9051 -0.6542
    6MOL0     H  750   8.623   5.060   1.780  1.7119  2.3625  0.7691
    6MOL0     H  751   8.487   5.170   1.806  1.7392 -0.1252 -2.5548
    6MOL0     H  752   8.650   4.999   2.018 -0.2277  0.4647  2.0853
    6MOL0     H  753   8.494   5.061   2.051  1.7726  2.8276  1.7999
    6MOL0     H  754   8.753   5.442   2.088 -0.4514  1.4791  2.8202
    6MOL0     H  755   8.622   5.657   2.121 -4.6884  2.2381 -1.6907
    6MOL0     H  756   8.189   5.815   1.928 -0.5182  0.0554  0.6273
    6MOL0     H  757   8.047   6.013   1.916 -0.9826 -1.3989 -1.0041
    6MOL0     H  758   7.835   6.157   2.290  2.5830  2.8887 -0.5262
    6MOL0     H  759   7.725   6.061   2.169  0.3362 -0.0743 -0.0181
    6MOL0     H  760   7.761   6.302   2.042 -0.4993  3.0375  0.1254
    6MOL0     H  761   7.811   6.343   2.208  2.0296 -0.3998  0.3700
    6MOL0     H  762   7.545   6.204   2.135 -2.4562  0.5286  0.9879
    6MOL0     H  763   7.564   6.385   2.170  1.0605  0.5527 -1.3545
    6MOL0     H  764   7.619   6.177   2.381  0.1970  0.5089  0.3039
    6MOL0     H  765   7.597   6.351   2.399 -0.6683 -0.6215  0.9905
    6MOL0     H  766   7.376   6.163   2.310  1.4109  0.4376 -0.0745
    6MOL0     H  767   7.356   6.340   2.332 -0.3457  0.7478  1.0250
    6MOL0     H  768   7.373   6.117   2.521 -2.0677 -0.8136 -3.2544
    6MOL0     H  769   7.274   6.256   2.502  0.4524  0.9697  0.4251
    6MOL0     H  770   7.551   6.287   2.639 -0.0567  0.3989 -1.4550
    6MOL0     H  771   7.432   6.413   2.574 -6.0974 -0.1817 -0.6686
    6MOL0     H  772   7.340   6.196   2.758  0.8127 -0.5525 -2.1100
    6MOL0     H  773   7.270   6.363   2.718  0.8088  1.3021  0.1260
    6MOL0     H  774   7.937   5.956   2.326  0.0177 -0.0872 -0.8383
    6MOL0     H  775   8.102   5.778   2.332 -1.2083 -1.7257 -0.4796
    6MOL0     H  776   8.264   5.466   2.039  0.5813  0.4359 -0.6350
    6MOL0     H  777   8.368   5.241   2.029  0.2710  0.2329  1.5659
    6MOL0     H  778   7.151   4.448   1.757 -1.9077  2.1885 -1.1544
    6MOL0     H  779   7.036   4.233   1.726 -2.4299 -0.2570 -2.1290
    6MOL0     H  780   6.689   3.963   1.866 -1.4255  1.0379  3.9539
    6MOL0     H  781   6.576   3.762   1.845  1.2068 -1.1400 -2.2600
    6MOL0     H  782   6.759   3.397   2.071 -2.4495  2.2686  0.2328
    6MOL0     H  783   6.813   3.394   1.908 -0.3007  2.2840 -1.9487
    6MOL0     H  784   6.632   3.209   1.981 -1.3819 -1.2696 -2.6111
    6MOL0     H  785   6.514   3.341   1.965 -0.7907 -1.0672 -1.7523
    6MOL0     H  786   6.593   3.357   1.729  1.0570  2.0385  2.4154
    6MOL0     H  787   6.491   3.213   1.766  1.9321 -1.5414 -2.9504
    6MOL0     H  788   6.787   3.201   1.732 -1.5658  2.9048  1.1937
    6MOL0     H  789   6.690   3.072   1.813  0.9316 -2.4860 -2.5202
    6MOL0     H  790   6.588   3.022   1.407  0.8106  1.9158 -1.4030
    6MOL0     H  791   6.906   3.567   2.059  2.8225  0.6546 -2.5177
    6MOL0     H  792   7.014   3.781   2.077  0.3989  1.5730 -0.2543
    7MOL0     O  793   7.277   3.416   1.229 -0.3738 -0.0990 -0.5020
    7MOL0     C  794   7.342   3.329   1.278 -0.4372  0.4756  0.2304
    7MOL0     O  795   7.332   3.192   1.254  0.1216  0.2017 -0.0665
    7MOL0     C  796   7.254   3.144   1.145 -0.7408  0.3145  0.0487
    7MOL0     C  797   7.207   3.214   1.035 -0.8526  0.0807 -0.0189
    7MOL0     C  798   7.146   3.157   0.923 -0.0609 -0.4240  0.0637
    7MOL0     C  799   7.119   3.021   0.925  0.6264  0.6196  1.3413
    7MOL0     O  800   7.044   2.979   0.811 -1.1626  0.0718 -0.4093
    7MOL0     C  801   6.899   3.010   0.824  0.3730  0.2874 -1.0065
    7MOL0     C  802   6.811   2.895   0.783  0.4936 -0.3847  0.1980
    7MOL0     C  803   6.839   2.860   0.629 -0.8279 -0.9479  0.7869
    7MOL0     C  804   6.730   2.755   0.586 -0.6044  0.2579  0.2308
    7MOL0     C  805   6.740   2.735   0.431 -0.0483  0.6502 -0.4739
    7MOL0     C  806   6.662   2.618   0.383  0.5902  0.0530 -0.6896
    7MOL0     C  807   6.725   2.478   0.423  0.3486 -0.3032 -0.3299
    7MOL0     C  808   6.616   2.370   0.410 -1.5949 -0.0615  0.0925
    7MOL0     N  809   6.682   2.239   0.435 -1.0937 -0.0033  0.0027
    7MOL0     C  810   6.673   2.156   0.541 -0.1330  1.0676  0.9799
    7MOL0     C  811   6.748   2.047   0.513 -0.4213 -0.3745 -0.0003
    7MOL0     C  812   6.767   1.930   0.609 -0.6475  0.2785  0.3739
    7MOL0     C  813   6.728   1.800   0.545  0.3373  0.1184 -0.6097
    7MOL0     C  814   6.816   1.747   0.436 -1.1659  0.8779  0.6803
    7MOL0     C  815   6.789   1.609   0.385 -0.2393 -0.1031 -1.2213
    7MOL0     O  816   6.655   1.565   0.395  0.6682 -0.3415  0.1981
    7MOL0     C  817   6.645   1.430   0.388 -0.3014  0.0928  0.5538
    7MOL0     C  818   6.665   1.366   0.264  0.1114  0.6586  0.2545
    7MOL0     C  819   6.634   1.229   0.249 -0.2077 -0.0569 -0.5207
    7MOL0     C  820   6.589   1.152   0.355 -0.5555 -1.1618  0.2133
    7MOL0     C  821   6.560   1.010   0.340 -1.2217  0.1839 -0.6264
    7MOL0     O  822   6.569   0.951   0.220 -0.4738  0.7107  0.4381
    7MOL0     C  823   6.570   0.810   0.224  0.3263 -1.1992 -0.0807
    7MOL0     C  824   6.667   0.751   0.149 -0.6534 -0.6901  0.5983
    7MOL0     C  825   6.647   0.616   0.122  0.5807  0.5657  0.5966
    7MOL0     C  826   6.547   0.539   0.185  0.9239  0.5753  0.7764
    7MOL0     O  827   6.536   0.409   0.164 -0.0772 -0.2828 -0.5206
    7MOL0     C  828   6.409   0.371   0.118  0.3872 -0.7184 -0.2856
    7MOL0     C  829   6.381   0.231   0.138 -0.3493  0.6523 -0.3730
    7MOL0     C  830   6.409   0.179   0.281  0.1395 -0.5577  0.6332
    7MOL0     C  831   6.410   0.030   0.288 -0.4848  0.7680 -0.0096
    7MOL0     C  832   6.420  -0.034   0.422  0.5022  0.2116  0.4902
    7MOL0     C  833   6.461  -0.182   0.417  0.1095 -0.5983  0.2906
    7MOL0     C  834   6.339  -0.273   0.393 -0.1234 -0.3400  0.3243
    7MOL0     C  835   6.375  -0.414   0.328 -0.1427 -1.0256 -0.4030
    7MOL0    Cl  836   6.460  -0.504   0.469 -0.0027 -0.1588  0.1212
    7MOL0     C  837   6.466   0.603   0.276 -0.5425  0.1623  0.3753
    7MOL0     C  838   6.477   0.738   0.284  0.0657  0.2661 -0.4592
    7MOL0     O  839   6.531   0.955   0.446  0.3883  0.0687 -0.3744
    7MOL0     C  840   6.580   1.223   0.480  0.8242 -0.5127  0.2303
    7MOL0     C  841   6.610   1.355   0.500  0.0770 -0.1280  0.0166
    7MOL0     N  842   6.807   2.065   0.384  0.4827  0.1190 -0.6309
    7MOL0     N  843   6.765   2.175   0.343  0.4712  0.4068 -0.2495
    7MOL0     C  844   7.160   2.948   1.030  0.3484  0.3327 -0.5753
    7MOL0     C  845   7.226   3.009   1.143 -0.1650 -0.1021 -0.2919
    7MOL0     C  846   7.433   3.370   1.391  0.1725 -0.4145 -0.5685
    7MOL0     C  847   7.481   3.283   1.488  0.2122  0.6562 -0.3083
    7MOL0     C  848   7.558   3.325   1.597 -0.6729  0.5821  0.1884
    7MOL0     C  849   7.607   3.454   1.601  0.7404  0.2136 -0.3220
    7MOL0     O  850   7.704   3.497   1.692  0.0948  0.7374  0.9583
    7MOL0     C  851   7.687   3.616   1.755  0.6438  0.0931  0.3753
    7MOL0     C  852   7.821   3.653   1.840  0.3556  0.3212 -0.2795
    7MOL0     C  853   7.845   3.548   1.956  0.0146 -1.8168 -0.1087
    7MOL0     C  854   7.970   3.587   2.034 -0.1910 -0.7167  0.3512
    7MOL0     C  855   7.997   3.488   2.135  0.1735 -0.8713 -0.5045
    7MOL0     C  856   8.010   3.387   2.209 -0.5567 -0.0252  0.6108
    7MOL0     C  857   7.556   3.546   1.504  0.6502 -0.4137  0.4647
    7MOL0     C  858   7.458   3.508   1.411 -0.0704 -0.1453 -0.0229
    7MOL0     H  859   7.221   3.321   1.030 -0.8022  0.0189 -1.9801
    7MOL0     H  860   7.123   3.214   0.834  1.2324 -1.9999 -1.3571
    7MOL0     H  861   6.865   3.104   0.780 -0.1975  1.4580  1.7096
    7MOL0     H  862   6.880   3.026   0.931 -0.5876 -0.4611 -1.0493
    7MOL0     H  863   6.704   2.916   0.790  0.5455 -0.1635  0.3286
    7MOL0     H  864   6.819   2.802   0.842 -0.8136 -0.4122  0.3475
    7MOL0     H  865   6.939   2.819   0.616 -0.2885  0.9682 -2.1345
    7MOL0     H  866   6.837   2.947   0.562  0.1795 -1.4345  0.1052
    7MOL0     H  867   6.767   2.665   0.635 -0.0206  1.4294  2.0320
    7MOL0     H  868   6.627   2.783   0.611 -0.1970  2.5222 -0.3283
    7MOL0     H  869   6.845   2.718   0.407 -0.8129  1.1949 -5.2680
    7MOL0     H  870   6.701   2.824   0.379 -0.9097 -0.3458 -1.6012
    7MOL0     H  871   6.628   2.639   0.281  0.6362  4.5016  0.0104
    7MOL0     H  872   6.572   2.642   0.440  3.0389  4.0066  2.0028
    7MOL0     H  873   6.813   2.457   0.362 -0.0690 -0.6102 -0.8488
    7MOL0     H  874   6.760   2.484   0.526 -3.5802  0.9258  1.1201
    7MOL0     H  875   6.566   2.364   0.313  1.6965  2.2059 -1.9789
    7MOL0     H  876   6.550   2.390   0.495 -1.8866 -3.6414  0.8821
    7MOL0     H  877   6.609   2.153   0.629  0.2904  0.1392  1.2675
    7MOL0     H  878   6.722   1.949   0.707 -2.2021 -1.4398  0.0629
    7MOL0     H  879   6.874   1.912   0.620  0.8466  4.3976 -3.9573
    7MOL0     H  880   6.630   1.817   0.499 -0.3800 -0.1524  0.7603
    7MOL0     H  881   6.725   1.728   0.627  2.3418  3.2428  2.4688
    7MOL0     H  882   6.796   1.813   0.351  0.7145  0.6021 -0.0292
    7MOL0     H  883   6.922   1.751   0.460 -0.3505 -0.1098 -2.2779
    7MOL0     H  884   6.853   1.542   0.443 -3.0034 -1.6265  0.2778
    7MOL0     H  885   6.833   1.609   0.285  1.0072  0.0190 -0.6967
    7MOL0     H  886   6.669   1.419   0.169  2.1138  1.4775  0.7598
    7MOL0     H  887   6.640   1.179   0.153 -1.6707 -1.2302 -0.0425
    7MOL0     H  888   6.744   0.802   0.092 -2.1228 -0.9074 -1.7445
    7MOL0     H  889   6.700   0.563   0.043 -1.5548  1.9585 -1.9155
    7MOL0     H  890   6.401   0.390   0.011  1.9782  1.0088 -0.1385
    7MOL0     H  891   6.329   0.431   0.163  1.3983  0.8965 -0.5512
    7MOL0     H  892   6.452   0.184   0.070  0.4700  2.2821 -0.6874
    7MOL0     H  893   6.282   0.195   0.111 -1.4186  1.5130  2.0888
    7MOL0     H  894   6.331   0.221   0.345  0.4700 -0.4913  1.0003
    7MOL0     H  895   6.510   0.215   0.298  1.2979 -0.6150 -4.5423
    7MOL0     H  896   6.313   0.007   0.241  0.0753 -0.0035 -0.8414
    7MOL0     H  897   6.486  -0.019   0.226  0.7150  2.5652 -0.0061
    7MOL0     H  898   6.327  -0.016   0.477 -1.5386 -0.2242 -2.5794
    7MOL0     H  899   6.483   0.033   0.482 -1.7193  2.3704  0.5676
    7MOL0     H  900   6.500  -0.201   0.517 -0.4654  1.1196  0.8806
    7MOL0     H  901   6.543  -0.210   0.351 -0.8746  1.0160 -1.7565
    7MOL0     H  902   6.288  -0.296   0.486 -4.7977  1.6775 -1.4511
    7MOL0     H  903   6.269  -0.214   0.334 -1.8374  0.1118  2.6824
    7MOL0     H  904   6.451  -0.388   0.253 -0.6257  1.3294 -0.1597
    7MOL0     H  905   6.304  -0.478   0.275  1.7526 -3.0976 -0.5953
    7MOL0     H  906   6.390   0.551   0.332 -0.2917  0.7210  1.2529
    7MOL0     H  907   6.403   0.793   0.341  1.2536 -1.0015  2.5284
    7MOL0     H  908   6.529   1.173   0.562 -2.0934  0.4372 -0.8771
    7MOL0     H  909   6.592   1.409   0.592  0.5285  2.5982 -1.3802
    7MOL0     H  910   7.140   2.842   1.016  0.1761  0.5453 -2.1673
    7MOL0     H  911   7.280   2.938   1.204  0.4064  0.3018 -0.3193
    7MOL0     H  912   7.459   3.177   1.480  1.4857  0.4325 -0.9911
    7MOL0     H  913   7.589   3.247   1.666 -0.7159  0.7355  0.3853
    7MOL0     H  914   7.601   3.608   1.822 -0.9817 -3.4218 -1.8439
    7MOL0     H  915   7.677   3.701   1.686 -3.1083 -0.1881  0.3663
    7MOL0     H  916   7.901   3.643   1.766 -0.1784 -0.0897 -0.8156
    7MOL0     H  917   7.809   3.756   1.874 -1.2094 -0.0125  0.2875
    7MOL0     H  918   7.857   3.451   1.906 -2.7888 -2.4189  0.2278
    7MOL0     H  919   7.756   3.564   2.018  0.4665  0.4382  0.0483
    7MOL0     H  920   8.050   3.594   1.960 -2.2568 -0.5725 -1.9832
    7MOL0     H  921   7.971   3.685   2.081  0.4036 -1.6229  2.3614
    7MOL0     H  922   8.008   3.299   2.270  0.2079 -1.4235 -1.2607
    7MOL0     H  923   7.597   3.646   1.502 -0.7645  0.1865 -1.6671
    7MOL0     H  924   7.435   3.582   1.335  1.4232  1.3607  0.9229
    8MOL0     O  925   2.722   6.946   9.811 -0.1121 -0.1146  0.0011
    8MOL0     C  926   2.815   6.875   9.796 -0.4763 -0.9946 -0.6215
    8MOL0     O  927   2.925   6.879   9.879  0.6692 -0.4663 -0.5592
    8MOL0     C  928   2.910   6.934  10.002 -0.9219  0.0368 -1.0631
    8MOL0     C  929   2.947   7.064  10.033  0.0493 -0.3816 -0.3545
    8MOL0     C  930   2.942   7.099  10.173 -0.2662  1.0221  0.1659
    8MOL0     C  931   2.916   7.011  10.271 -0.5690 -0.0933  0.3919
    8MOL0     O  932   2.885   7.061  10.397  0.3073  0.2756  0.1236
    8MOL0     C  933   2.892   6.953  10.494 -0.7881 -0.8276 -0.3168
    8MOL0     C  934   2.877   7.003  10.633 -0.2761 -0.1760  0.4517
    8MOL0     C  935   2.987   7.105  10.671  0.9320 -0.1694  0.2195
    8MOL0     C  936   2.965   7.118  10.817  0.2044 -0.3121 -0.9835
    8MOL0     C  937   3.085   7.183  10.881  0.4933  0.4148  0.0475
    8MOL0     C  938   3.063   7.217  11.024 -0.1858 -0.3522 -0.4065
    8MOL0     C  939   2.956   7.318  11.046  0.0871 -0.6445 -0.2905
    8MOL0     C  940   2.949   7.375  11.192  0.3266 -0.1427  0.1923
    8MOL0     N  941   3.018   7.506  11.206 -0.3910  0.2815 -0.3175
    8MOL0     C  942   3.056   7.559  11.321 -0.1043  0.1280 -0.6369
    8MOL0     C  943   3.100   7.682  11.288 -0.8015  0.0154 -0.2758
    8MOL0     C  944   3.153   7.777  11.392  0.3378 -0.0109 -0.3616
    8MOL0     C  945   3.050   7.893  11.407  0.5308  0.0544 -0.0717
    8MOL0     C  946   3.078   8.007  11.307 -0.1144  0.7804 -0.1968
    8MOL0     C  947   2.988   8.123  11.305  0.3122  0.0337 -0.5700
    8MOL0     O  948   2.969   8.181  11.438 -1.0260  0.1722 -0.1531
    8MOL0     C  949   3.074   8.261  11.478  0.0423 -0.4683 -1.1192
    8MOL0     C  950   3.190   8.301  11.404 -0.1733 -0.1173  0.5178
    8MOL0     C  951   3.295   8.366  11.467  0.4145  0.2373 -0.6087
    8MOL0     C  952   3.287   8.410  11.597 -0.0490 -0.6979  0.0990
    8MOL0     C  953   3.412   8.482  11.649 -0.1918  0.4142 -0.2035
    8MOL0     O  954   3.411   8.539  11.772  0.5471 -0.1249 -0.3364
    8MOL0     C  955   3.526   8.593  11.828  0.2226 -0.0912 -0.2224
    8MOL0     C  956   3.560   8.541  11.948  0.3895  0.6092 -0.1725
    8MOL0     C  957   3.662   8.584  12.023 -0.2743  0.6860 -0.6226
    8MOL0     C  958   3.734   8.698  11.983  0.3521 -0.3606 -1.3340
    8MOL0     O  959   3.849   8.764  12.035  0.2953 -0.1905 -0.3774
    8MOL0     C  960   3.931   8.681  12.129  0.4773 -0.1881 -0.4252
    8MOL0     C  961   4.007   8.774  12.219  0.3992  0.2912 -0.9065
    8MOL0     C  962   3.914   8.844  12.314 -0.3488 -0.5125 -0.1731
    8MOL0     C  963   3.963   8.966  12.392 -0.0365  0.2512  1.2185
    8MOL0     C  964   4.032   9.078  12.300  0.3505  0.3469  0.3007
    8MOL0     C  965   4.068   9.204  12.383 -0.1632  0.8486 -0.1859
    8MOL0     C  966   4.161   9.289  12.313 -0.1381 -0.4780 -0.2882
    8MOL0     C  967   4.174   9.419  12.396  0.0420  0.4545  0.3816
    8MOL0    Cl  968   4.308   9.501  12.306 -0.1652  0.5244 -0.0399
    8MOL0     C  969   3.698   8.753  11.858 -0.3364  0.3976  0.1251
    8MOL0     C  970   3.596   8.702  11.779  0.4301  0.4010  0.4161
    8MOL0     O  971   3.510   8.483  11.575 -0.4456  0.1302 -0.1168
    8MOL0     C  972   3.169   8.377  11.671 -0.6998  0.3429  0.5161
    8MOL0     C  973   3.065   8.311  11.614 -0.0817 -0.7305  0.2108
    8MOL0     N  974   3.104   7.700  11.154  1.1327  0.1202 -0.0805
    8MOL0     N  975   3.062   7.586  11.100 -0.5098  0.8932 -0.3408
    8MOL0     C  976   2.885   6.874  10.234 -0.1261 -0.2859  0.1611
    8MOL0     C  977   2.869   6.841  10.101  0.3122  0.2617  0.3175
    8MOL0     C  978   2.830   6.787   9.680 -0.0298 -0.2491 -0.2727
    8MOL0     C  979   2.933   6.689   9.670 -0.0970 -0.2742  0.3670
    8MOL0     C  980   2.939   6.591   9.570  0.3051  0.3819  0.2486
    8MOL0     C  981   2.839   6.591   9.472  0.6030  0.6188  0.6366
    8MOL0     O  982   2.836   6.519   9.351 -0.3343  0.2323 -0.3209
    8MOL0     C  983   2.968   6.488   9.302 -0.2945  0.4974  0.7661
    8MOL0     C  984   2.991   6.339   9.333  0.3832  0.7890  0.1538
    8MOL0     C  985   3.143   6.303   9.329  0.8675 -0.2231 -0.7641
    8MOL0     C  986   3.173   6.244   9.190  0.7468  0.7801 -0.4949
    8MOL0     C  987   3.315   6.240   9.162 -0.1141  0.5787 -0.3277
    8MOL0     C  988   3.425   6.248   9.100  0.5460 -0.1721 -0.7327
    8MOL0     C  989   2.734   6.685   9.485  1.3550 -0.5785 -0.4528
    8MOL0     C  990   2.733   6.787   9.591  0.2554 -0.5750  0.9151
    8MOL0     H  991   2.963   7.135   9.952 -1.7282 -0.9271 -1.2327
    8MOL0     H  992   2.980   7.195  10.209 -0.7227  0.8250  1.2166
    8MOL0     H  993   2.987   6.899  10.491 -0.1175  0.3414 -0.7373
    8MOL0     H  994   2.804   6.889  10.479 -1.8790  0.8916 -1.5319
    8MOL0     H  995   2.873   6.918  10.702 -1.0904  0.4294  1.1851
    8MOL0     H  996   2.781   7.057  10.636 -0.2095  0.0590 -0.8970
    8MOL0     H  997   2.970   7.200  10.619  1.6942  0.5654  1.2643
    8MOL0     H  998   3.087   7.063  10.660  1.1112 -0.0622  1.3068
    8MOL0     H  999   2.872   7.172  10.838  1.2249  0.7314  1.1869
    8MOL0     H 1000   2.961   7.020  10.866 -2.4520 -1.2043 -2.7479
    8MOL0     H 1001   3.111   7.269  10.820  2.8543 -0.0273  0.3037
    8MOL0     H 1002   3.174   7.118  10.882  1.9404  2.1586 -2.9755
    8MOL0     H 1003   3.150   7.255  11.078  1.1109 -4.2628  0.5607
    8MOL0     H 1004   3.044   7.129  11.087  1.0864 -2.8244 -3.2068
    8MOL0     H 1005   2.964   7.393  10.967 -0.6258 -0.0447  0.1907
    8MOL0     H 1006   2.863   7.268  11.018 -1.2865  2.8676 -2.7175
    8MOL0     H 1007   2.997   7.304  11.260 -1.7836  0.8068  2.8044
    8MOL0     H 1008   2.844   7.383  11.221 -0.1425  2.7657 -1.8891
    8MOL0     H 1009   3.040   7.518  11.420  3.3260 -2.4289 -0.9511
    8MOL0     H 1010   3.249   7.815  11.356  0.1153 -0.2287 -1.2099
    8MOL0     H 1011   3.175   7.720  11.483  2.2025  0.5105 -0.4433
    8MOL0     H 1012   3.042   7.935  11.508 -3.6824  3.8646 -1.6452
    8MOL0     H 1013   2.950   7.854  11.387  0.9668 -0.4782 -1.3072
    8MOL0     H 1014   3.181   8.043  11.318 -0.2295  0.4044  2.8266
    8MOL0     H 1015   3.080   7.954  11.211  0.1376 -0.1301  0.2910
    8MOL0     H 1016   2.892   8.085  11.271 -0.4457  3.0393 -2.0805
    8MOL0     H 1017   3.023   8.199  11.235 -0.6201  0.0784 -1.0002
    8MOL0     H 1018   3.205   8.276  11.300  0.4047  1.4221  0.1957
    8MOL0     H 1019   3.386   8.379  11.410  2.5337 -1.5635  2.1114
    8MOL0     H 1020   3.505   8.456  11.987  0.8476  0.9883  1.3520
    8MOL0     H 1021   3.686   8.519  12.106 -0.6368 -2.2466 -2.6843
    8MOL0     H 1022   4.008   8.620  12.082  2.2174  0.5005  1.3976
    8MOL0     H 1023   3.870   8.618  12.194  2.6824 -3.7386 -1.5297
    8MOL0     H 1024   4.047   8.853  12.154  0.3989  1.5044  0.5052
    8MOL0     H 1025   4.090   8.727  12.272 -0.1137  0.4952  0.1052
    8MOL0     H 1026   3.882   8.780  12.396 -1.1764  2.1405  1.6960
    8MOL0     H 1027   3.821   8.870  12.261 -0.8482 -1.1865  0.3654
    8MOL0     H 1028   3.885   9.013  12.454 -1.0009  0.2049  0.0588
    8MOL0     H 1029   4.038   8.925  12.460  2.8086  0.0294 -1.8371
    8MOL0     H 1030   3.950   9.105  12.232  0.1965 -0.9000 -0.0215
    8MOL0     H 1031   4.119   9.034  12.250  0.9397  1.4632  0.3104
    8MOL0     H 1032   4.114   9.161  12.472 -2.1909  0.0167  0.5247
    8MOL0     H 1033   3.973   9.255  12.400 -0.0741  0.6002  1.1728
    8MOL0     H 1034   4.262   9.248  12.300  0.4016 -0.7597  3.5675
    8MOL0     H 1035   4.112   9.315  12.219 -1.2412 -2.7191 -0.3814
    8MOL0     H 1036   4.197   9.410  12.502  1.5005  4.4493  0.5901
    8MOL0     H 1037   4.082   9.478  12.397 -0.9271 -1.0034  1.5312
    8MOL0     H 1038   3.760   8.838  11.830 -0.3387  0.3331 -0.0778
    8MOL0     H 1039   3.569   8.743  11.682  0.8184 -0.5560 -0.1265
    8MOL0     H 1040   3.152   8.403  11.775  0.6286  1.2242  0.5360
    8MOL0     H 1041   2.980   8.290  11.678  0.5743 -1.0363  0.9947
    8MOL0     H 1042   2.858   6.791  10.298  2.7139 -2.3267 -1.1060
    8MOL0     H 1043   2.825   6.745  10.075 -0.9520  0.8646  0.1401
    8MOL0     H 1044   3.009   6.682   9.747  0.0604 -3.9267  0.0273
    8MOL0     H 1045   3.018   6.518   9.552 -1.6892 -2.2048  1.3331
    8MOL0     H 1046   3.049   6.555   9.333 -0.9095  1.3814  0.5034
    8MOL0     H 1047   2.968   6.493   9.192  0.8407 -0.3203  0.6990
    8MOL0     H 1048   2.960   6.325   9.437 -0.0938  4.7962  0.7182
    8MOL0     H 1049   2.930   6.283   9.262  1.8393  1.1737 -1.4790
    8MOL0     H 1050   3.161   6.224   9.403  0.3134  1.1340  0.8989
    8MOL0     H 1051   3.198   6.395   9.352 -0.6911  1.0130 -1.7385
    8MOL0     H 1052   3.124   6.146   9.191 -0.4170  1.3291  1.2683
    8MOL0     H 1053   3.127   6.298   9.107  2.6939 -0.0882 -2.2077
    8MOL0     H 1054   3.509   6.250   9.033  1.4648 -5.3100 -0.1277
    8MOL0     H 1055   2.656   6.685   9.411 -0.1683 -0.9583  1.0816
    8MOL0     H 1056   2.654   6.861   9.599 -0.0880 -0.9262  0.7984
    9MOL0     O 1057   4.140   9.136   5.694  0.4134 -0.5177  0.2224
    9MOL0     C 1058   4.028   9.150   5.749 -0.8718  0.8745  0.6180
    9MOL0     O 1059   3.910   9.090   5.714  0.3772 -0.7566  0.0733
    9MOL0     C 1060   3.919   8.988   5.621  0.5720 -1.1895  0.5189
    9MOL0     C 1061   3.945   9.026   5.481 -0.6663 -0.6348 -0.8055
    9MOL0     C 1062   3.976   8.934   5.390  0.7494 -0.3606  0.8536
    9MOL0     C 1063   3.960   8.808   5.415  0.4599 -0.2372 -0.5612
    9MOL0     O 1064   4.002   8.723   5.320 -0.2145 -0.4892 -0.4752
    9MOL0     C 1065   3.968   8.583   5.334  1.3726 -0.6992  0.4528
    9MOL0     C 1066   4.031   8.496   5.224  0.6063  0.5901  0.4904
    9MOL0     C 1067   4.184   8.529   5.198 -0.1574  0.2145  0.5521
    9MOL0     C 1068   4.286   8.486   5.298 -0.1272  0.3455 -0.9180
    9MOL0     C 1069   4.420   8.479   5.233  0.5056  0.4949  0.1058
    9MOL0     C 1070   4.531   8.458   5.330 -0.2815  0.0786  0.7762
    9MOL0     C 1071   4.668   8.457   5.274  0.1203 -0.2562  0.4330
    9MOL0     C 1072   4.760   8.574   5.304 -0.4215  0.5194 -0.3518
    9MOL0     N 1073   4.887   8.561   5.240 -0.6348  0.1216 -0.1020
    9MOL0     C 1074   5.010   8.574   5.301 -0.3408 -0.1524 -0.1486
    9MOL0     C 1075   5.096   8.542   5.194  0.7813 -1.0935  0.5210
    9MOL0     C 1076   5.241   8.534   5.209 -0.0268  0.0724 -0.6286
    9MOL0     C 1077   5.306   8.610   5.094  0.5230 -0.3199  0.3184
    9MOL0     C 1078   5.332   8.762   5.106 -0.2438  0.3604 -0.7712
    9MOL0     C 1079   5.317   8.837   4.972  0.1004 -0.1455 -0.8341
    9MOL0     O 1080   5.437   8.818   4.892  0.5416  0.9294 -0.0829
    9MOL0     C 1081   5.530   8.920   4.910 -0.7423  1.4611 -0.5602
    9MOL0     C 1082   5.520   9.041   4.852 -0.6959 -1.4031 -0.4530
    9MOL0     C 1083   5.620   9.134   4.875  0.4571 -1.3257 -0.3576
    9MOL0     C 1084   5.727   9.112   4.955  0.6992  0.5804 -0.4605
    9MOL0     C 1085   5.829   9.216   4.987  0.3135 -0.2836 -0.8779
    9MOL0     O 1086   5.798   9.348   4.951  0.1547 -0.7710  0.0846
    9MOL0     C 1087   5.850   9.450   5.021 -0.2295 -0.9865 -0.4401
    9MOL0     C 1088   5.880   9.576   4.960  0.1505  0.8364  0.6155
    9MOL0     C 1089   5.907   9.695   5.033  0.4524 -0.0921  0.4755
    9MOL0     C 1090   5.898   9.703   5.176 -0.4875  0.4314  0.2447
    9MOL0     O 1091   5.896   9.822   5.239 -0.0655  0.2456  0.6437
    9MOL0     C 1092   5.808   9.844   5.347  0.1668  0.5155 -0.2289
    9MOL0     C 1093   5.801   9.994   5.387 -0.1162 -0.2205  0.3492
    9MOL0     C 1094   5.738  10.014   5.524  0.0563 -0.0366 -0.3549
    9MOL0     C 1095   5.821   9.973   5.642  0.5189  0.0128 -1.1846
    9MOL0     C 1096   5.745  10.005   5.783 -0.2151  0.0162 -0.1400
    9MOL0     C 1097   5.790   9.923   5.903  0.4100  0.5026  0.7153
    9MOL0     C 1098   5.931   9.968   5.941  0.0556  0.1287 -0.2044
    9MOL0     C 1099   5.945  10.000   6.101  0.0390  0.3100  0.8869
    9MOL0    Cl 1100   5.845  10.144   6.147  0.3477  0.6321 -0.2550
    9MOL0     C 1101   5.856   9.577   5.233 -0.8453  0.2795  0.2303
    9MOL0     C 1102   5.842   9.451   5.160  0.5154 -0.6203 -0.4334
    9MOL0     O 1103   5.931   9.176   5.042 -0.7147 -0.3553  0.0223
    9MOL0     C 1104   5.739   8.985   5.020 -0.3337  0.3561  0.0817
    9MOL0     C 1105   5.643   8.890   4.988  0.5112 -0.7872 -0.1882
    9MOL0     N 1106   5.032   8.514   5.073 -0.1825 -0.5503  0.4240
    9MOL0     N 1107   4.911   8.521   5.110 -0.1292 -0.8964 -1.1397
    9MOL0     C 1108   3.918   8.767   5.548 -0.5027 -0.1033 -0.8451
    9MOL0     C 1109   3.894   8.859   5.649 -0.1974  0.0201 -0.4420
    9MOL0     C 1110   4.016   9.233   5.878 -0.7785  0.7507 -0.5648
    9MOL0     C 1111   3.888   9.248   5.949 -0.3721  0.8783  0.1034
    9MOL0     C 1112   3.879   9.326   6.056 -0.1741  0.0441  0.3218
    9MOL0     C 1113   3.994   9.395   6.106 -0.2802 -0.1302  0.3317
    9MOL0     O 1114   3.962   9.478   6.207  0.0068 -0.0400 -0.1057
    9MOL0     C 1115   4.054   9.566   6.275 -0.1872 -0.7183 -0.4034
    9MOL0     C 1116   4.079   9.695   6.190  0.0025 -0.0896  0.3068
    9MOL0     C 1117   4.147   9.814   6.269  0.6001  0.4802 -0.3912
    9MOL0     C 1118   4.115   9.957   6.213  0.4169  0.2567  0.5243
    9MOL0     C 1119   4.152   9.953   6.069  0.4239  0.5623  0.3057
    9MOL0     C 1120   4.190   9.948   5.952  0.5285 -0.1588  0.6867
    9MOL0     C 1121   4.124   9.379   6.047 -0.0593  0.1278  0.2655
    9MOL0     C 1122   4.135   9.290   5.934 -0.9917  0.4206  0.1914
    9MOL0     H 1123   3.952   9.133   5.468  3.4851 -0.7671 -0.9385
    9MOL0     H 1124   3.987   8.973   5.289 -4.2912  1.4555  0.7358
    9MOL0     H 1125   3.860   8.570   5.341  1.3146 -0.5071 -0.0858
    9MOL0     H 1126   4.009   8.542   5.427  0.9219  0.4170  1.1546
    9MOL0     H 1127   3.977   8.510   5.130  0.8284  0.4885  0.3457
    9MOL0     H 1128   4.014   8.393   5.256  0.4650  1.2849  2.8611
    9MOL0     H 1129   4.197   8.635   5.175 -1.8970  0.1125 -1.1087
    9MOL0     H 1130   4.215   8.470   5.111 -1.2453 -2.9738  2.1614
    9MOL0     H 1131   4.296   8.565   5.373 -1.3309 -1.8080  1.6905
    9MOL0     H 1132   4.269   8.395   5.356  1.4888  0.4879 -0.1496
    9MOL0     H 1133   4.433   8.576   5.185  3.6419  0.2727  0.3055
    9MOL0     H 1134   4.426   8.396   5.161  0.7184  2.3555 -2.1330
    9MOL0     H 1135   4.521   8.356   5.371 -0.6683 -0.3582 -0.3749
    9MOL0     H 1136   4.519   8.544   5.397 -1.2353  1.0384 -0.5880
    9MOL0     H 1137   4.716   8.365   5.309 -2.5642 -1.0201  2.3982
    9MOL0     H 1138   4.671   8.462   5.165  0.5078  2.5755  0.4784
    9MOL0     H 1139   4.779   8.578   5.411  0.3039 -0.2961 -0.4371
    9MOL0     H 1140   4.716   8.669   5.272 -0.4169  0.3205 -0.9557
    9MOL0     H 1141   5.034   8.587   5.406 -2.1292  0.9232  0.1731
    9MOL0     H 1142   5.269   8.428   5.212 -0.2344  0.0186  1.5265
    9MOL0     H 1143   5.277   8.577   5.303 -0.2124 -0.5318 -0.2729
    9MOL0     H 1144   5.265   8.575   4.998  2.2864 -1.1839 -0.1521
    9MOL0     H 1145   5.403   8.561   5.093 -0.4942 -2.4980 -1.6475
    9MOL0     H 1146   5.268   8.807   5.181  2.9575  3.3119  0.4542
    9MOL0     H 1147   5.432   8.766   5.150 -0.6094  2.0664 -0.0402
    9MOL0     H 1148   5.312   8.945   4.988 -0.5345  0.7423 -5.5994
    9MOL0     H 1149   5.227   8.810   4.916 -2.0551  3.1591  0.7313
    9MOL0     H 1150   5.441   9.077   4.785  0.9989  1.1854 -1.2200
    9MOL0     H 1151   5.614   9.228   4.820  2.0508 -0.7414  0.3893
    9MOL0     H 1152   5.877   9.590   4.852 -1.5567  1.4075  0.7034
    9MOL0     H 1153   5.929   9.784   4.975  1.0309 -0.3511  0.2933
    9MOL0     H 1154   5.837   9.781   5.431  0.0552  0.9394  0.1277
    9MOL0     H 1155   5.708   9.807   5.322  0.1833  0.7422 -0.6353
    9MOL0     H 1156   5.743  10.060   5.321  1.8756  1.4795  0.1776
    9MOL0     H 1157   5.899  10.043   5.397 -0.2575 -0.1859  1.7295
    9MOL0     H 1158   5.651   9.948   5.527  0.6553 -0.8176  0.7712
    9MOL0     H 1159   5.711  10.120   5.531 -2.1693 -0.4076 -2.2044
    9MOL0     H 1160   5.844   9.866   5.648  1.7707  0.3196  0.0612
    9MOL0     H 1161   5.916  10.025   5.627  1.4377 -2.0507 -3.2156
    9MOL0     H 1162   5.641   9.976   5.765 -0.7814  2.8681 -2.3343
    9MOL0     H 1163   5.750  10.113   5.801  1.1986 -0.3092  1.6684
    9MOL0     H 1164   5.779   9.820   5.870  0.0730  1.4271 -2.4004
    9MOL0     H 1165   5.719   9.947   5.983 -0.7989  2.6537 -0.8758
    9MOL0     H 1166   5.991   9.885   5.905  1.1488  1.9413 -2.9310
    9MOL0     H 1167   5.962  10.061   5.891  2.5691 -1.7766 -2.4645
    9MOL0     H 1168   6.051  10.015   6.120  0.7776  1.4860 -3.1908
    9MOL0     H 1169   5.907   9.916   6.160 -2.7536 -0.1851 -1.3654
    9MOL0     H 1170   5.831   9.575   5.338  1.5693  1.2648  0.8821
    9MOL0     H 1171   5.811   9.366   5.220  2.3599 -0.5360  0.7163
    9MOL0     H 1172   5.802   8.959   5.104  1.3325  1.0332 -0.9257
    9MOL0     H 1173   5.633   8.789   5.028 -1.5503 -0.1636  1.0608
    9MOL0     H 1174   3.905   8.661   5.562  0.5076 -0.3567 -1.7010
    9MOL0     H 1175   3.879   8.827   5.752  0.5130  1.5001  0.1634
    9MOL0     H 1176   3.790   9.223   5.911 -0.2362  0.7694 -0.1766
    9MOL0     H 1177   3.781   9.368   6.080 -0.2302  0.4892 -0.6585
    9MOL0     H 1178   4.152   9.521   6.295 -1.1066 -1.8567  1.8355
    9MOL0     H 1179   4.023   9.593   6.377  4.0467  1.1478  0.6255
    9MOL0     H 1180   4.131   9.668   6.098  1.5729 -0.2855  1.2046
    9MOL0     H 1181   3.986   9.738   6.154  1.7836  0.2486 -4.5987
    9MOL0     H 1182   4.255   9.799   6.282  0.3409 -0.8719  0.3657
    9MOL0     H 1183   4.114   9.806   6.372 -2.9344 -0.1148 -1.4378
    9MOL0     H 1184   4.007   9.968   6.228  0.2258 -2.3315  1.5680
    9MOL0     H 1185   4.172  10.039   6.259  0.4915  0.7464 -0.4052
    9MOL0     H 1186   4.230   9.941   5.853 -0.7884  0.4987  0.0921
    9MOL0     H 1187   4.208   9.423   6.099  1.8806 -3.5025  0.5001
    9MOL0     H 1188   4.222   9.271   5.872  0.5178 -0.0467  2.3320
   10MOL0     O 1189   2.313   9.857   8.060  0.5919 -0.6390 -0.3425
   10MOL0     C 1190   2.381   9.771   7.997  0.2475 -0.5222 -0.7064
   10MOL0     O 1191   2.383   9.744   7.865 -0.3789 -1.2007  0.0285
   10MOL0     C 1192   2.265   9.761   7.803 -0.1595 -0.6415  1.0340
   10MOL0     C 1193   2.132   9.756   7.852  0.9506 -0.1673 -0.8374
   10MOL0     C 1194   2.021   9.772   7.774  0.6076 -0.1885 -0.1188
   10MOL0     C 1195   2.033   9.781   7.638  0.2044  0.1604 -0.2988
   10MOL0     O 1196   1.912   9.783   7.566 -0.2974 -0.1457  0.2753
   10MOL0     C 1197   1.893   9.897   7.484 -0.5381 -0.7137 -0.1740
   10MOL0     C 1198   1.750   9.934   7.467  0.5456 -1.0128 -0.4730
   10MOL0     C 1199   1.734  10.041   7.356 -0.4817 -0.0190 -0.7946
   10MOL0     C 1200   1.592  10.089   7.333  0.3228 -0.0376 -0.8312
   10MOL0     C 1201   1.590  10.217   7.259 -0.1193 -0.1783  0.0942
   10MOL0     C 1202   1.575  10.196   7.107 -0.3715 -0.0984 -0.2574
   10MOL0     C 1203   1.609  10.331   7.035 -0.1690 -0.1677  0.1343
   10MOL0     C 1204   1.754  10.379   7.057  0.0909  0.2475  0.0689
   10MOL0     N 1205   1.847  10.332   6.950 -1.1456  0.2656 -0.1269
   10MOL0     C 1206   1.926  10.219   6.970 -0.3324  0.0473 -0.4098
   10MOL0     C 1207   2.031  10.227   6.887  0.2447 -0.2036 -0.4440
   10MOL0     C 1208   2.154  10.129   6.887 -0.2813 -0.3327 -0.3793
   10MOL0     C 1209   2.270  10.169   6.795 -1.2503 -1.2897  0.4887
   10MOL0     C 1210   2.229  10.164   6.650 -0.9884  0.7570  0.2007
   10MOL0     C 1211   2.353  10.129   6.558  1.2095 -0.0404 -0.9045
   10MOL0     O 1212   2.462  10.222   6.587  0.4492  0.8092  1.3296
   10MOL0     C 1213   2.588  10.189   6.540  0.5458  0.4666 -0.3617
   10MOL0     C 1214   2.609  10.085   6.451  0.0762  0.6720 -0.3345
   10MOL0     C 1215   2.740  10.050   6.406  0.3804 -0.1841 -0.1588
   10MOL0     C 1216   2.850  10.117   6.452 -0.7289 -1.1524 -0.0064
   10MOL0     C 1217   2.985  10.081   6.414 -0.1948 -0.0102  0.3908
   10MOL0     O 1218   3.024  10.095   6.283  0.1668 -0.0153  0.2984
   10MOL0     C 1219   3.157  10.112   6.253  0.3489  0.9362  0.5609
   10MOL0     C 1220   3.249  10.005   6.261  0.1106 -0.3740 -0.4913
   10MOL0     C 1221   3.370  10.018   6.200 -0.9810 -0.0899 -0.3203
   10MOL0     C 1222   3.419  10.140   6.138  0.3147  0.4612  0.1443
   10MOL0     O 1223   3.549  10.156   6.078  0.4610 -0.6657  0.6695
   10MOL0     C 1224   3.542  10.214   5.946  0.2208  0.7037  0.1583
   10MOL0     C 1225   3.678  10.200   5.870  0.3480 -0.1387 -0.6642
   10MOL0     C 1226   3.687  10.060   5.806  0.0428 -0.0929  0.4939
   10MOL0     C 1227   3.708   9.953   5.916 -0.1102  0.2741 -0.6896
   10MOL0     C 1228   3.749   9.814   5.860  0.1563 -0.1227  0.5617
   10MOL0     C 1229   3.716   9.682   5.939  0.4614  1.0297 -0.4499
   10MOL0     C 1230   3.561   9.660   5.965 -0.4703 -0.6678 -1.1722
   10MOL0     C 1231   3.527   9.507   5.960  0.7021  0.0437 -0.4281
   10MOL0    Cl 1232   3.345   9.468   5.980  0.2119  0.1581 -0.6703
   10MOL0     C 1233   3.318  10.243   6.125  0.2144  0.4865  0.1477
   10MOL0     C 1234   3.191  10.234   6.183  1.5160 -0.5022 -0.9215
   10MOL0     O 1235   3.066  10.060   6.499 -0.8149  0.1152  0.1846
   10MOL0     C 1236   2.834  10.215   6.554 -0.7715  0.2797  0.3497
   10MOL0     C 1237   2.700  10.253   6.586  0.5404 -0.8400  0.5065
   10MOL0     N 1238   2.016  10.337   6.808 -0.0839 -0.4221 -0.8104
   10MOL0     N 1239   1.911  10.404   6.865 -0.3441 -0.5973  0.1636
   10MOL0     C 1240   2.159   9.791   7.580 -0.6475  0.1383 -0.6004
   10MOL0     C 1241   2.270   9.787   7.663 -0.4749 -0.7739 -0.1423
   10MOL0     C 1242   2.461   9.675   8.074  0.3771 -0.1097 -0.2588
   10MOL0     C 1243   2.483   9.547   8.019 -0.2855 -0.2234  0.3048
   10MOL0     C 1244   2.554   9.444   8.094  0.1163 -0.7058  0.3202
   10MOL0     C 1245   2.580   9.471   8.230 -0.4303  0.9440  0.3133
   10MOL0     O 1246   2.642   9.370   8.301 -0.2720 -0.1422 -0.4982
   10MOL0     C 1247   2.571   9.244   8.306  0.2323  0.2003 -0.2638
   10MOL0     C 1248   2.423   9.255   8.357  0.1330  0.0704 -0.0765
   10MOL0     C 1249   2.404   9.340   8.487  0.4088 -0.1562  0.8359
   10MOL0     C 1250   2.452   9.285   8.617  0.7270  0.4193 -0.4126
   10MOL0     C 1251   2.390   9.149   8.630 -0.1416 -0.5267 -0.5130
   10MOL0     C 1252   2.337   9.036   8.644  0.4278 -0.9359 -1.3356
   10MOL0     C 1253   2.548   9.594   8.288 -0.1665  0.3460  1.0682
   10MOL0     C 1254   2.491   9.696   8.210  0.0775  0.0639  0.2527
   10MOL0     H 1255   2.118   9.753   7.960 -2.9957  3.5025 -0.9605
   10MOL0     H 1256   1.924   9.763   7.823  0.1251  0.5073 -0.9199
   10MOL0     H 1257   1.933   9.860   7.389  1.5446 -0.6114  0.6044
   10MOL0     H 1258   1.948   9.986   7.514 -1.5955 -0.3015  0.5964
   10MOL0     H 1259   1.705   9.965   7.561  0.5812 -0.2871 -0.6920
   10MOL0     H 1260   1.695   9.843   7.438 -0.5919 -0.1366 -1.1478
   10MOL0     H 1261   1.784  10.004   7.267  1.2959  2.2332 -0.8162
   10MOL0     H 1262   1.800  10.122   7.387  0.6515 -1.9895  2.4234
   10MOL0     H 1263   1.536  10.007   7.286  1.9041 -0.4653 -2.0770
   10MOL0     H 1264   1.539  10.100   7.428 -1.8110 -3.0729 -1.4954
   10MOL0     H 1265   1.687  10.262   7.280 -0.7186  0.6209  1.3435
   10MOL0     H 1266   1.509  10.285   7.289  2.3142  1.8556  2.5235
   10MOL0     H 1267   1.472  10.161   7.093 -1.3292  1.8519  1.2995
   10MOL0     H 1268   1.637  10.120   7.060  0.2175 -0.3603  0.9136
   10MOL0     H 1269   1.588  10.334   6.927  1.6670  0.3002 -0.2491
   10MOL0     H 1270   1.536  10.405   7.068  2.6187  2.7443  0.2334
   10MOL0     H 1271   1.792  10.351   7.156  0.8992  1.1156  0.0224
   10MOL0     H 1272   1.752  10.487   7.039  1.4247 -0.2338 -3.8581
   10MOL0     H 1273   1.909  10.134   7.034  1.3541 -2.1089 -2.6334
   10MOL0     H 1274   2.116  10.027   6.882  2.3765 -1.7820  3.6650
   10MOL0     H 1275   2.196  10.123   6.988 -1.2156 -2.2217 -0.0588
   10MOL0     H 1276   2.346  10.093   6.814 -1.9133 -1.9808  0.4214
   10MOL0     H 1277   2.305  10.270   6.816 -1.5325 -1.2374  0.7144
   10MOL0     H 1278   2.162  10.078   6.641 -2.6578  2.1635 -1.9755
   10MOL0     H 1279   2.172  10.248   6.609 -0.7665  0.2345 -1.2280
   10MOL0     H 1280   2.334  10.141   6.451  1.8597 -0.5777 -1.0885
   10MOL0     H 1281   2.386  10.026   6.573  1.4324 -0.0894 -1.6579
   10MOL0     H 1282   2.529  10.024   6.410  3.0858 -2.6431 -1.7489
   10MOL0     H 1283   2.752   9.973   6.330 -1.6505 -0.8703  0.1457
   10MOL0     H 1284   3.217   9.918   6.318  3.5359 -0.0963  2.1632
   10MOL0     H 1285   3.440   9.934   6.203 -0.0551  0.4991 -2.7248
   10MOL0     H 1286   3.514  10.316   5.972 -2.5749  0.7352 -2.4204
   10MOL0     H 1287   3.473  10.163   5.878  3.4401  2.0104 -4.6663
   10MOL0     H 1288   3.769  10.214   5.929  0.0117  1.1439 -0.4207
   10MOL0     H 1289   3.670  10.278   5.795 -1.6956  1.5136  1.1392
   10MOL0     H 1290   3.760  10.051   5.725 -0.4785 -2.6697  0.2305
   10MOL0     H 1291   3.607  10.039   5.734  0.8393 -1.2079 -0.0991
   10MOL0     H 1292   3.785   9.990   5.985 -3.4043  2.2233  2.3030
   10MOL0     H 1293   3.622   9.937   5.981  0.3191 -1.9887 -0.5877
   10MOL0     H 1294   3.858   9.806   5.864  0.0592 -1.0508  1.9405
   10MOL0     H 1295   3.719   9.809   5.755 -0.1518  1.2617  0.5677
   10MOL0     H 1296   3.774   9.670   6.031 -1.5180 -3.6378  0.4454
   10MOL0     H 1297   3.745   9.594   5.882 -2.6330 -1.0305  0.9088
   10MOL0     H 1298   3.541   9.689   6.068  1.3867 -1.5289 -0.5290
   10MOL0     H 1299   3.510   9.711   5.882  1.1370  0.8010 -1.3130
   10MOL0     H 1300   3.584   9.463   6.042  0.3849  1.2238  0.4544
   10MOL0     H 1301   3.554   9.469   5.861  0.9176  0.3553 -0.4890
   10MOL0     H 1302   3.337  10.334   6.069  1.8094  0.1264  0.0702
   10MOL0     H 1303   3.117  10.311   6.166 -0.3802 -1.3106  2.6610
   10MOL0     H 1304   2.923  10.268   6.588  0.8726 -2.4533  0.6243
   10MOL0     H 1305   2.691  10.338   6.653 -0.6561 -0.0231 -0.6403
   10MOL0     H 1306   2.171   9.807   7.474 -1.3984 -0.9472 -0.8641
   10MOL0     H 1307   2.367   9.809   7.620  0.3733  1.1388  2.4955
   10MOL0     H 1308   2.442   9.516   7.923 -1.3479 -1.5584  1.1503
   10MOL0     H 1309   2.570   9.346   8.052 -0.8371  0.3882 -2.9072
   10MOL0     H 1310   2.628   9.179   8.374 -0.6764  0.5484  0.8693
   10MOL0     H 1311   2.569   9.188   8.212  0.6110 -1.5366  0.7150
   10MOL0     H 1312   2.363   9.300   8.278 -2.8616 -0.2637  1.8212
   10MOL0     H 1313   2.373   9.159   8.377  1.8864 -0.7706  0.5035
   10MOL0     H 1314   2.298   9.353   8.508 -0.4373  0.4279 -3.0482
   10MOL0     H 1315   2.453   9.435   8.467 -1.2795  0.4074 -0.8949
   10MOL0     H 1316   2.560   9.296   8.619  0.6683  0.9177  0.1697
   10MOL0     H 1317   2.407   9.355   8.688  3.2511  1.6021  0.1272
   10MOL0     H 1318   2.292   8.940   8.660 -0.5987  0.0014  2.4354
   10MOL0     H 1319   2.592   9.605   8.387  3.9163  0.8422 -0.6225
   10MOL0     H 1320   2.480   9.797   8.249  1.0909  1.3122 -2.4988
   11MOL0     O 1321   1.662   4.019   4.230 -0.1081  0.1487  0.0081
   11MOL0     C 1322   1.753   3.952   4.271 -0.1124  0.6763  0.0617
   11MOL0     O 1323   1.818   3.960   4.392  0.6159  0.2774  0.1839
   11MOL0     C 1324   1.823   4.081   4.449 -0.2215  0.7343  0.2613
   11MOL0     C 1325   1.941   4.134   4.486 -0.0322  0.2457 -0.6241
   11MOL0     C 1326   1.964   4.257   4.549  0.2370 -0.0322 -0.0123
   11MOL0     C 1327   1.838   4.324   4.581 -0.1675  0.4399 -0.6977
   11MOL0     O 1328   1.835   4.460   4.624  0.0261  0.3122  0.4508
   11MOL0     C 1329   1.918   4.494   4.736  0.6459 -0.3836  0.1640
   11MOL0     C 1330   1.882   4.642   4.764 -0.5742  0.4220  0.2427
   11MOL0     C 1331   1.959   4.703   4.876 -1.1462  0.0442 -0.6524
   11MOL0     C 1332   2.110   4.719   4.854  0.2293  0.8264  0.0657
   11MOL0     C 1333   2.188   4.819   4.951 -0.3981  0.7770  0.2927
   11MOL0     C 1334   2.131   4.964   4.954 -0.5349  0.5545 -0.2907
   11MOL0     C 1335   2.184   5.048   5.086 -0.0984  0.8193  1.6853
   11MOL0     C 1336   2.094   5.036   5.207 -0.1394  0.4035  0.1058
   11MOL0     N 1337   2.118   4.912   5.270  0.2046  0.6301 -0.3511
   11MOL0     C 1338   2.042   4.797   5.265 -0.1953 -0.8437  0.4674
   11MOL0     C 1339   2.112   4.717   5.346 -0.1853 -0.5856 -1.0893
   11MOL0     C 1340   2.085   4.565   5.355  0.1572 -0.3439  0.4272
   11MOL0     C 1341   1.952   4.523   5.394  0.1446  0.0838  0.3108
   11MOL0     C 1342   1.918   4.530   5.537  0.4271 -0.3264 -0.9499
   11MOL0     C 1343   2.029   4.543   5.626 -0.2376  0.2492  0.4689
   11MOL0     O 1344   1.969   4.539   5.751 -0.6482  0.2870 -0.6682
   11MOL0     C 1345   2.048   4.572   5.860  0.3534 -0.4218  0.5939
   11MOL0     C 1346   2.183   4.605   5.862  0.0332 -0.2052  0.7117
   11MOL0     C 1347   2.262   4.621   5.981  0.0605 -0.5057  0.0975
   11MOL0     C 1348   2.190   4.629   6.096  0.1815  0.5464  0.2495
   11MOL0     C 1349   2.262   4.644   6.216 -1.2002  0.2074 -0.7666
   11MOL0     O 1350   2.403   4.656   6.211  0.2177 -0.2178 -0.0495
   11MOL0     C 1351   2.477   4.685   6.324 -0.1543 -0.1811  0.4303
   11MOL0     C 1352   2.561   4.793   6.330  0.1706  0.0780  0.1386
   11MOL0     C 1353   2.636   4.827   6.442  0.3142  0.8073 -0.3573
   11MOL0     C 1354   2.627   4.751   6.553  0.2501  0.3746 -0.5626
   11MOL0     O 1355   2.686   4.788   6.668  0.6569  0.3645  0.0294
   11MOL0     C 1356   2.587   4.824   6.758 -0.9998  0.4600 -0.7529
   11MOL0     C 1357   2.618   4.956   6.830 -0.2853  0.5381  0.4894
   11MOL0     C 1358   2.558   4.970   6.969  0.8992 -0.0130  0.8386
   11MOL0     C 1359   2.406   5.016   6.957  0.3696 -0.2446 -0.0550
   11MOL0     C 1360   2.332   5.053   7.094  0.6873  0.3948 -0.1155
   11MOL0     C 1361   2.186   5.059   7.069  1.7332  0.4346 -0.0530
   11MOL0     C 1362   2.113   5.083   7.198 -0.2461 -0.0980 -0.1338
   11MOL0     C 1363   1.964   5.067   7.157 -0.6267 -0.9607 -0.2199
   11MOL0    Cl 1364   1.882   5.095   7.313  0.5959 -0.1195  0.0796
   11MOL0     C 1365   2.556   4.629   6.544  0.0397  0.3911  0.5583
   11MOL0     C 1366   2.473   4.601   6.436  0.7577  0.1061 -0.1697
   11MOL0     O 1367   2.200   4.646   6.322  0.2656  0.7128  0.6337
   11MOL0     C 1368   2.043   4.609   6.098  0.2428 -0.2356  0.7445
   11MOL0     C 1369   1.978   4.585   5.981  0.0882 -0.8762 -0.1568
   11MOL0     N 1370   2.227   4.777   5.398 -0.8926  1.8795 -0.4869
   11MOL0     N 1371   2.227   4.895   5.356 -0.7369 -0.6529  0.5552
   11MOL0     C 1372   1.714   4.266   4.555  1.0251  0.3404  0.0287
   11MOL0     C 1373   1.704   4.140   4.503 -1.0304 -0.0427  0.2912
   11MOL0     C 1374   1.819   3.846   4.190 -0.3671  0.9770 -0.3623
   11MOL0     C 1375   1.929   3.769   4.234  0.1428  0.2351  0.3113
   11MOL0     C 1376   1.975   3.660   4.153  0.3868  0.3567  0.6181
   11MOL0     C 1377   1.908   3.622   4.037  0.0241 -0.6452 -0.7941
   11MOL0     O 1378   1.944   3.521   3.949 -0.6907 -0.0684 -0.6410
   11MOL0     C 1379   2.073   3.462   3.953  0.0556  0.6950 -0.4164
   11MOL0     C 1380   2.075   3.324   4.019 -1.2448 -0.8983  0.2621
   11MOL0     C 1381   1.947   3.238   3.985  0.1416  0.4891 -0.0624
   11MOL0     C 1382   1.951   3.095   4.042  0.6392  0.6762 -0.3497
   11MOL0     C 1383   1.997   3.103   4.181  0.6417 -0.5817 -0.0967
   11MOL0     C 1384   2.048   3.100   4.292 -0.9018  0.6724 -0.4010
   11MOL0     C 1385   1.801   3.695   3.993 -0.1774 -0.5594  0.1089
   11MOL0     C 1386   1.762   3.805   4.069  1.4807 -0.1784  0.1322
   11MOL0     H 1387   2.030   4.086   4.448 -0.4533 -0.2830 -0.9706
   11MOL0     H 1388   2.059   4.298   4.581  0.2200 -0.7141  0.9292
   11MOL0     H 1389   2.023   4.497   4.706  1.5668 -0.1814  3.0574
   11MOL0     H 1390   1.905   4.439   4.830 -0.0206 -0.8975 -0.2252
   11MOL0     H 1391   1.779   4.661   4.795 -0.2201  1.7594  0.6763
   11MOL0     H 1392   1.895   4.692   4.667 -0.5758 -0.9418 -0.4890
   11MOL0     H 1393   1.942   4.648   4.969 -0.3518 -0.1300 -0.6000
   11MOL0     H 1394   1.924   4.805   4.888  3.5378  1.8401  0.0147
   11MOL0     H 1395   2.142   4.617   4.873  1.1860  1.2425  0.7199
   11MOL0     H 1396   2.123   4.745   4.748  1.3173  2.8893  0.6569
   11MOL0     H 1397   2.289   4.829   4.909 -0.7438 -0.2092 -0.8134
   11MOL0     H 1398   2.207   4.788   5.054 -2.9690 -0.4202  0.4656
   11MOL0     H 1399   2.022   4.961   4.965 -0.7714 -1.2263 -2.5437
   11MOL0     H 1400   2.157   5.023   4.866  1.3416 -0.0144 -0.1702
   11MOL0     H 1401   2.286   5.012   5.101  0.2770  2.5330  3.7224
   11MOL0     H 1402   2.184   5.155   5.063 -2.1409  0.5888  0.3622
   11MOL0     H 1403   1.989   5.031   5.179  0.2875 -0.9023 -1.4285
   11MOL0     H 1404   2.113   5.119   5.276 -2.3957 -0.4537  1.8932
   11MOL0     H 1405   1.967   4.778   5.188  0.6434 -1.6899 -0.1705
   11MOL0     H 1406   2.161   4.507   5.409  0.0002 -0.2532  0.7481
   11MOL0     H 1407   2.097   4.540   5.249 -0.8516  0.8766  0.0038
   11MOL0     H 1408   1.939   4.423   5.354  1.4955  0.6674 -1.6980
   11MOL0     H 1409   1.890   4.588   5.332  1.3816  0.4609 -0.5547
   11MOL0     H 1410   1.838   4.603   5.555  3.0676  2.5534 -0.0356
   11MOL0     H 1411   1.873   4.433   5.558  0.9742 -0.2602  0.6155
   11MOL0     H 1412   2.070   4.643   5.610  0.0381  0.0856  0.1103
   11MOL0     H 1413   2.113   4.473   5.612  2.1061  3.0197 -0.2257
   11MOL0     H 1414   2.248   4.613   5.776  1.1888  1.8922  1.7036
   11MOL0     H 1415   2.369   4.640   5.979 -0.2437  1.5416 -2.1861
   11MOL0     H 1416   2.553   4.865   6.248 -0.8760 -1.7068 -1.3953
   11MOL0     H 1417   2.698   4.916   6.443 -0.1777  1.1634 -0.5874
   11MOL0     H 1418   2.586   4.738   6.825 -1.6927 -1.0405 -2.6149
   11MOL0     H 1419   2.481   4.822   6.733 -1.1167  2.3231 -0.5723
   11MOL0     H 1420   2.599   5.030   6.752 -0.4653 -0.3229 -0.3053
   11MOL0     H 1421   2.726   4.960   6.843  0.1704  0.2041 -2.5422
   11MOL0     H 1422   2.616   5.050   7.017  0.5119  0.7191  0.1175
   11MOL0     H 1423   2.570   4.880   7.030 -1.9345 -1.7283 -0.8884
   11MOL0     H 1424   2.384   5.102   6.893 -1.2911 -0.7407 -0.2032
   11MOL0     H 1425   2.359   4.930   6.910  1.1099 -1.8203  1.9573
   11MOL0     H 1426   2.354   5.154   7.129 -0.9698  2.2690 -3.8996
   11MOL0     H 1427   2.356   4.984   7.175  1.7111  0.0341 -0.7114
   11MOL0     H 1428   2.156   4.966   7.021  1.9153  0.2089  0.2702
   11MOL0     H 1429   2.171   5.143   7.000 -2.4089 -0.8936 -1.0555
   11MOL0     H 1430   2.139   5.002   7.266  0.2138 -4.6270 -5.0414
   11MOL0     H 1431   2.128   5.182   7.242 -1.0321 -0.9651  2.2071
   11MOL0     H 1432   1.935   4.967   7.124 -0.7360 -0.3903 -1.9407
   11MOL0     H 1433   1.933   5.137   7.079  0.7798  0.0323  0.0624
   11MOL0     H 1434   2.538   4.565   6.629 -1.8823  0.6498  0.3760
   11MOL0     H 1435   2.424   4.504   6.441 -1.7322  1.2089 -1.4440
   11MOL0     H 1436   1.992   4.625   6.192  1.7796 -3.5420  2.3279
   11MOL0     H 1437   1.871   4.572   5.992 -0.4418  3.1486  1.3584
   11MOL0     H 1438   1.624   4.323   4.578 -0.3423 -2.2941  1.7584
   11MOL0     H 1439   1.609   4.092   4.479 -0.1732 -2.0126  0.6307
   11MOL0     H 1440   1.969   3.788   4.333 -2.4650  1.2701  1.2338
   11MOL0     H 1441   2.063   3.603   4.178  0.2034 -1.3884 -2.2419
   11MOL0     H 1442   2.145   3.527   4.002 -0.2387  0.6243  0.1187
   11MOL0     H 1443   2.093   3.455   3.845 -1.6552 -0.7442 -0.7084
   11MOL0     H 1444   2.164   3.267   3.994 -2.1793 -1.6679 -1.5049
   11MOL0     H 1445   2.075   3.345   4.127 -2.1796 -1.5209  0.4013
   11MOL0     H 1446   1.936   3.224   3.877  0.7889  1.3522 -0.2479
   11MOL0     H 1447   1.857   3.281   4.032  0.4623  0.6032  0.4588
   11MOL0     H 1448   1.848   3.058   4.033  1.4060 -1.3402 -1.7204
   11MOL0     H 1449   2.018   3.025   3.991  1.9173 -0.3242  2.5323
   11MOL0     H 1450   2.102   3.088   4.383 -1.6222  2.2804  0.2754
   11MOL0     H 1451   1.744   3.663   3.906 -1.3745  1.4081  0.1112
   11MOL0     H 1452   1.669   3.845   4.032 -0.2670 -1.9865  2.2757
   12MOL0     O 1453  10.266   3.968   6.855 -0.3643 -0.1225 -0.0219
   12MOL0     C 1454  10.186   4.033   6.921  0.7745  0.2509 -0.0746
   12MOL0     O 1455  10.214   4.138   6.993  0.5465 -0.7973 -1.1228
   12MOL0     C 1456  10.330   4.147   7.063 -0.6243  0.3900  0.3768
   12MOL0     C 1457  10.334   4.257   7.157 -0.7741 -0.6197  0.1788
   12MOL0     C 1458  10.445   4.298   7.237 -0.7263  0.8822 -0.4704
   12MOL0     C 1459  10.564   4.233   7.212  0.2681  1.4999  0.0212
   12MOL0     O 1460  10.686   4.244   7.284 -0.1389 -0.6791 -1.0441
   12MOL0     C 1461  10.728   4.379   7.315 -0.1438 -0.1806 -0.1477
   12MOL0     C 1462  10.878   4.388   7.349  0.1362 -0.0410 -0.8655
   12MOL0     C 1463  10.923   4.331   7.488  0.8628  0.5276 -0.1313
   12MOL0     C 1464  10.870   4.419   7.603  0.9377  0.6235  0.9290
   12MOL0     C 1465  10.937   4.392   7.739  0.2069  0.5930  0.9122
   12MOL0     C 1466  10.881   4.472   7.860 -0.1148 -0.0753  0.1536
   12MOL0     C 1467  10.834   4.382   7.977  0.3019 -1.2080 -0.5888
   12MOL0     C 1468  10.750   4.458   8.078  0.7620 -0.7507 -0.2689
   12MOL0     N 1469  10.810   4.579   8.134 -0.9307  0.1584  1.1666
   12MOL0     C 1470  10.759   4.700   8.149  1.0804  0.2944 -0.3531
   12MOL0     C 1471  10.847   4.768   8.214  0.8015  0.1978 -0.5676
   12MOL0     C 1472  10.810   4.904   8.276 -0.1959  0.3665 -0.3183
   12MOL0     C 1473  10.931   4.990   8.304  0.9208 -0.2059  0.5135
   12MOL0     C 1474  10.901   5.120   8.371  0.2567  0.5385 -0.6078
   12MOL0     C 1475  10.847   5.103   8.511 -0.2800 -0.1286 -0.0980
   12MOL0     O 1476  10.730   5.037   8.533  0.0972 -0.0005 -0.3474
   12MOL0     C 1477  10.686   5.014   8.660  0.1058  0.3084  0.1095
   12MOL0     C 1478  10.570   4.941   8.677  0.1672 -0.9777  0.3368
   12MOL0     C 1479  10.507   4.918   8.803 -0.9759  0.6768  0.2480
   12MOL0     C 1480  10.574   4.958   8.913  0.1490 -0.8032  0.2775
   12MOL0     C 1481  10.519   4.935   9.051 -0.1360  0.0332  0.1787
   12MOL0     O 1482  10.579   4.991   9.164 -0.1786 -0.8458  0.2147
   12MOL0     C 1483  10.542   4.938   9.281 -0.1041 -0.2305  0.0865
   12MOL0     C 1484  10.582   4.813   9.327 -0.2012  0.0434  0.5178
   12MOL0     C 1485  10.558   4.777   9.460 -0.3561  0.1117  0.0360
   12MOL0     C 1486  10.497   4.861   9.552 -0.0478 -1.2761 -0.2378
   12MOL0     O 1487  10.481   4.817   9.683 -0.5769  0.1101 -0.1101
   12MOL0     C 1488  10.459   4.921   9.780 -0.0870 -0.6105 -0.4645
   12MOL0     C 1489  10.474   4.875   9.927 -0.1738 -0.9509  0.7822
   12MOL0     C 1490  10.622   4.825   9.943  0.9680 -0.4118 -0.6880
   12MOL0     C 1491  10.729   4.932   9.902  0.7636  0.1992  0.9240
   12MOL0     C 1492  10.864   4.887   9.956  0.2522  0.2168 -0.1068
   12MOL0     C 1493  10.908   4.754   9.902 -0.2762 -0.3482 -0.2532
   12MOL0     C 1494  11.040   4.702   9.958 -0.3423 -0.1843 -0.2958
   12MOL0     C 1495  11.079   4.563   9.930 -0.1941  0.7657 -0.3029
   12MOL0    Cl 1496  11.134   4.538   9.759  0.3075 -0.1224  0.8993
   12MOL0     C 1497  10.453   4.991   9.510 -0.4955  0.4698  0.4523
   12MOL0     C 1498  10.487   5.031   9.377 -0.1506  0.2403 -0.4041
   12MOL0     O 1499  10.428   4.842   9.063 -0.6957 -0.1714 -0.2525
   12MOL0     C 1500  10.702   5.024   8.889  0.7252  1.2006 -0.0561
   12MOL0     C 1501  10.763   5.050   8.770  0.3249  0.0143 -0.3073
   12MOL0     N 1502  10.952   4.686   8.236 -0.3213  0.0329  0.4854
   12MOL0     N 1503  10.938   4.577   8.183  0.5757 -0.1047 -0.7482
   12MOL0     C 1504  10.571   4.119   7.123  0.7384 -0.9227 -0.1630
   12MOL0     C 1505  10.457   4.077   7.050  1.3465 -0.4741 -0.0235
   12MOL0     C 1506  10.042   3.994   6.920 -0.1393  0.5292 -0.4008
   12MOL0     C 1507   9.976   3.928   6.814  0.0933  0.3442  0.0806
   12MOL0     C 1508   9.842   3.884   6.817  0.6335 -0.2015  0.3607
   12MOL0     C 1509   9.770   3.907   6.935 -0.4810 -0.3438  0.5717
   12MOL0     O 1510   9.650   3.868   6.960  0.9054 -0.3408 -0.3112
   12MOL0     C 1511   9.548   3.935   6.880 -1.0285 -0.1344  0.5529
   12MOL0     C 1512   9.439   3.942   6.984 -0.6171 -0.2470 -0.7283
   12MOL0     C 1513   9.361   3.807   7.028 -0.3054 -0.2581 -0.9223
   12MOL0     C 1514   9.282   3.735   6.901  0.7306  1.0178 -0.3294
   12MOL0     C 1515   9.153   3.813   6.864 -0.3919 -0.5579  0.1627
   12MOL0     C 1516   9.054   3.867   6.827  0.8050  0.3138 -0.0244
   12MOL0     C 1517   9.825   3.992   7.039 -0.3610 -0.4466  0.3649
   12MOL0     C 1518   9.964   4.022   7.038  0.0096  0.0565 -0.1074
   12MOL0     H 1519  10.244   4.306   7.191  0.9152  0.0966  4.2017
   12MOL0     H 1520  10.447   4.374   7.315  0.8945 -0.7784  1.2132
   12MOL0     H 1521  10.665   4.403   7.401 -0.1170 -2.4275  0.5833
   12MOL0     H 1522  10.707   4.458   7.243 -0.6287 -0.9450 -0.8611
   12MOL0     H 1523  10.907   4.493   7.349  1.9626 -0.5007 -0.6649
   12MOL0     H 1524  10.942   4.330   7.281  0.8022 -0.4184  0.0582
   12MOL0     H 1525  11.027   4.315   7.515 -0.0283  0.0214  3.4509
   12MOL0     H 1526  10.880   4.232   7.500 -2.8218  2.1894  2.4235
   12MOL0     H 1527  10.888   4.523   7.576  0.9034  0.4765  0.3320
   12MOL0     H 1528  10.762   4.408   7.618  0.9762 -2.4040 -0.2791
   12MOL0     H 1529  11.045   4.401   7.720 -0.0124 -2.1794 -2.7581
   12MOL0     H 1530  10.911   4.288   7.759 -4.7677  1.6360  1.0098
   12MOL0     H 1531  10.798   4.538   7.831  0.6336  1.0986  0.6219
   12MOL0     H 1532  10.957   4.543   7.893 -0.3770 -0.2963  1.3022
   12MOL0     H 1533  10.773   4.299   7.939 -1.3260  0.2352 -1.2404
   12MOL0     H 1534  10.922   4.340   8.025  0.0988  0.1035  1.0093
   12MOL0     H 1535  10.731   4.393   8.164  0.0706 -0.1158  0.0764
   12MOL0     H 1536  10.659   4.484   8.023  1.3193  1.5928 -0.2310
   12MOL0     H 1537  10.657   4.733   8.135  1.0136  0.7832  1.1253
   12MOL0     H 1538  10.745   4.882   8.360  0.1250 -0.5834 -0.3068
   12MOL0     H 1539  10.745   4.953   8.204  1.3331  2.3651 -0.4222
   12MOL0     H 1540  10.979   5.004   8.207  1.1618 -2.4114  0.2771
   12MOL0     H 1541  10.991   4.923   8.366 -2.2752 -0.5032  3.5748
   12MOL0     H 1542  10.990   5.182   8.384  0.1970  0.5363 -0.2033
   12MOL0     H 1543  10.828   5.175   8.311  0.4009  0.1493 -1.1518
   12MOL0     H 1544  10.840   5.204   8.553  1.2234  1.0350 -2.4136
   12MOL0     H 1545  10.920   5.058   8.579 -0.5584 -0.2223  0.1354
   12MOL0     H 1546  10.531   4.888   8.591  0.6592 -1.5027  0.4326
   12MOL0     H 1547  10.413   4.864   8.810 -0.6575 -0.0111 -0.5915
   12MOL0     H 1548  10.634   4.737   9.270 -0.4456 -0.0797  0.4590
   12MOL0     H 1549  10.616   4.696   9.502 -0.8936  0.1881  0.9634
   12MOL0     H 1550  10.358   4.957   9.760  0.2469  1.1264  0.7037
   12MOL0     H 1551  10.533   5.000   9.762  2.6403 -3.6211 -4.2882
   12MOL0     H 1552  10.401   4.794   9.931  2.0763 -3.1197 -0.0465
   12MOL0     H 1553  10.457   4.959   9.996  0.0861  0.0241 -0.3107
   12MOL0     H 1554  10.637   4.740   9.876 -0.7734 -0.9338 -0.4813
   12MOL0     H 1555  10.617   4.787  10.045 -0.5091 -0.0065 -0.5746
   12MOL0     H 1556  10.739   4.931   9.793 -0.9122 -1.3627  0.7309
   12MOL0     H 1557  10.689   5.024   9.947 -1.0573 -0.9459  1.7417
   12MOL0     H 1558  10.866   4.885  10.065  2.6725  1.6981 -0.0324
   12MOL0     H 1559  10.948   4.954   9.936  2.3184 -2.0650  0.4140
   12MOL0     H 1560  10.925   4.755   9.793  2.2594  0.3164  0.0674
   12MOL0     H 1561  10.835   4.675   9.918 -0.8312 -0.3150 -2.3011
   12MOL0     H 1562  11.119   4.769   9.925 -0.1524 -0.3245 -0.1368
   12MOL0     H 1563  11.039   4.713  10.067  0.4348 -0.7219 -0.2244
   12MOL0     H 1564  10.992   4.498   9.944  1.2060 -1.2639 -0.5601
   12MOL0     H 1565  11.167   4.534   9.989  0.6722  4.3639  0.3786
   12MOL0     H 1566  10.399   5.061   9.573 -0.9350 -0.6958  1.4241
   12MOL0     H 1567  10.461   5.132   9.348 -0.2413 -0.4262 -2.9020
   12MOL0     H 1568  10.736   5.060   8.985 -2.7865  0.4363  1.6680
   12MOL0     H 1569  10.862   5.096   8.772  0.5766 -0.4313 -1.5869
   12MOL0     H 1570  10.658   4.059   7.098  0.5072 -2.7336  2.9312
   12MOL0     H 1571  10.466   3.997   6.977 -2.0320 -0.1979 -0.8649
   12MOL0     H 1572  10.031   3.900   6.725  1.5529 -1.6895  1.5404
   12MOL0     H 1573   9.795   3.825   6.739 -1.8086  1.1510  0.6840
   12MOL0     H 1574   9.524   3.870   6.795  1.7072  1.0634 -1.2646
   12MOL0     H 1575   9.585   4.032   6.846 -2.9839  0.4809  0.0586
   12MOL0     H 1576   9.478   3.978   7.080  1.8778 -1.0078 -1.3812
   12MOL0     H 1577   9.369   4.020   6.953 -1.6009 -1.6916 -2.2882
   12MOL0     H 1578   9.295   3.835   7.110  2.6537  1.7546  0.9703
   12MOL0     H 1579   9.433   3.739   7.074 -0.1590  0.8964  0.6454
   12MOL0     H 1580   9.347   3.729   6.813  0.0638  2.2450 -0.9356
   12MOL0     H 1581   9.248   3.635   6.929 -0.6047  1.9106  1.4452
   12MOL0     H 1582   8.969   3.922   6.791  1.8260  0.7009 -2.0058
   12MOL0     H 1583   9.775   4.021   7.131  0.9179  0.5076  0.7808
   12MOL0     H 1584  10.003   4.065   7.130 -2.0672 -3.0156  2.4329
   13MOL0     O 1585   6.138   6.457   6.400 -0.1769  0.6419  0.8815
   13MOL0     C 1586   6.023   6.435   6.442 -1.2740  0.8840 -0.1309
   13MOL0     O 1587   5.984   6.452   6.572 -0.0888  0.2204  0.0821
   13MOL0     C 1588   6.073   6.503   6.678  0.7319  0.1311 -0.2545
   13MOL0     C 1589   6.179   6.595   6.657  0.1012 -0.5454  0.1090
   13MOL0     C 1590   6.241   6.654   6.765  0.3205 -0.6073  0.6768
   13MOL0     C 1591   6.208   6.609   6.889  0.6473  0.4543 -1.1935
   13MOL0     O 1592   6.279   6.660   6.995 -0.4883 -0.4064 -0.8750
   13MOL0     C 1593   6.203   6.724   7.104  1.0119  0.0920 -0.0215
   13MOL0     C 1594   6.293   6.725   7.230  0.1986  0.4587 -0.6204
   13MOL0     C 1595   6.322   6.578   7.276 -0.5937 -0.1669 -1.2775
   13MOL0     C 1596   6.400   6.585   7.412 -0.7079  0.3003 -0.4067
   13MOL0     C 1597   6.484   6.462   7.438  0.3570  0.5780  0.2000
   13MOL0     C 1598   6.563   6.462   7.575 -0.0613 -1.0534 -0.8007
   13MOL0     C 1599   6.682   6.557   7.576  0.7125  0.2109  0.5200
   13MOL0     C 1600   6.764   6.545   7.700 -0.0433  0.3485 -0.1527
   13MOL0     N 1601   6.847   6.421   7.686 -1.3805 -0.2627 -0.2712
   13MOL0     C 1602   6.873   6.316   7.772  1.3910 -0.1996 -0.8018
   13MOL0     C 1603   6.969   6.247   7.717  0.3853  0.2907 -0.6085
   13MOL0     C 1604   7.027   6.128   7.780 -0.5142  0.0183  0.1754
   13MOL0     C 1605   7.173   6.149   7.803 -0.5794 -0.7087  0.4765
   13MOL0     C 1606   7.281   6.144   7.693  0.1623 -0.3014  0.4207
   13MOL0     C 1607   7.278   6.005   7.616 -0.8054 -0.4164 -0.6289
   13MOL0     O 1608   7.396   6.006   7.534 -0.7616 -0.4777 -0.0979
   13MOL0     C 1609   7.377   6.023   7.404  0.1944 -0.2554  0.1927
   13MOL0     C 1610   7.439   5.950   7.314  0.6904 -0.0256  0.7543
   13MOL0     C 1611   7.437   5.966   7.174 -0.3517 -0.2587  0.0851
   13MOL0     C 1612   7.365   6.069   7.119 -0.5343  0.4838  0.0136
   13MOL0     C 1613   7.372   6.097   6.972 -0.5931 -0.0061  0.0085
   13MOL0     O 1614   7.470   6.038   6.910 -0.4252  0.4441 -0.2654
   13MOL0     C 1615   7.487   6.064   6.780 -0.0239 -0.0515  0.6370
   13MOL0     C 1616   7.580   6.153   6.739  0.0488 -0.2977  0.9620
   13MOL0     C 1617   7.604   6.173   6.601  0.1010 -0.3690  0.0525
   13MOL0     C 1618   7.524   6.118   6.504  0.1936  0.1607  0.5181
   13MOL0     O 1619   7.539   6.151   6.370  0.3314  0.0030  0.0090
   13MOL0     C 1620   7.423   6.138   6.279 -0.5701 -0.0384 -1.0176
   13MOL0     C 1621   7.447   6.198   6.145  0.7846 -0.2628 -0.4808
   13MOL0     C 1622   7.352   6.147   6.030  0.2205  0.7236 -0.2695
   13MOL0     C 1623   7.397   6.175   5.886  0.6210  0.4385  0.3672
   13MOL0     C 1624   7.281   6.161   5.788 -0.7060  0.2002 -0.5337
   13MOL0     C 1625   7.157   6.256   5.800 -0.8837 -0.0132 -0.0411
   13MOL0     C 1626   7.089   6.254   5.663 -0.0912 -0.6318  0.6733
   13MOL0     C 1627   6.964   6.341   5.654  0.7513  0.2807  0.1144
   13MOL0    Cl 1628   6.809   6.247   5.658 -0.2580 -0.2542  0.4535
   13MOL0     C 1629   7.424   6.034   6.546  0.1434  0.8122 -0.6593
   13MOL0     C 1630   7.417   6.001   6.682 -0.0186  0.6734 -0.3963
   13MOL0     O 1631   7.290   6.164   6.916  0.4178 -0.0976 -0.1350
   13MOL0     C 1632   7.304   6.152   7.205  0.0326  0.7455  0.4913
   13MOL0     C 1633   7.294   6.122   7.347 -0.6164 -0.3858  1.1730
   13MOL0     N 1634   6.990   6.288   7.588 -0.0482  0.1990 -0.0002
   13MOL0     N 1635   6.922   6.394   7.576 -0.3257  0.5587 -0.0199
   13MOL0     C 1636   6.114   6.512   6.909  0.0133  0.6212  0.0647
   13MOL0     C 1637   6.046   6.459   6.808  0.1708 -0.7599  0.0325
   13MOL0     C 1638   5.921   6.403   6.333  0.1801 -0.1602 -0.2767
   13MOL0     C 1639   5.949   6.396   6.196 -0.0766 -0.1680 -0.5094
   13MOL0     C 1640   5.849   6.380   6.099  0.0495  0.3216  0.1956
   13MOL0     C 1641   5.725   6.350   6.147 -0.2223 -0.2537  0.3480
   13MOL0     O 1642   5.635   6.292   6.056  0.3755  0.1039 -0.1356
   13MOL0     C 1643   5.656   6.297   5.908  0.0530 -0.3993 -0.5259
   13MOL0     C 1644   5.534   6.288   5.818  0.1770  0.1759 -0.6256
   13MOL0     C 1645   5.544   6.370   5.698  0.0742  0.1049  0.0098
   13MOL0     C 1646   5.421   6.376   5.604 -0.9387 -0.4471 -0.8628
   13MOL0     C 1647   5.445   6.447   5.482  0.1150  0.4865 -0.0721
   13MOL0     C 1648   5.463   6.507   5.382  0.1639 -0.1969  0.8744
   13MOL0     C 1649   5.695   6.352   6.278  0.6443  0.7946 -0.0555
   13MOL0     C 1650   5.789   6.377   6.379 -0.2806 -0.6294 -0.5582
   13MOL0     H 1651   6.198   6.631   6.556  1.5449  0.3100  0.6490
   13MOL0     H 1652   6.319   6.727   6.746 -0.0004 -0.1656  1.0266
   13MOL0     H 1653   6.112   6.673   7.135  1.0450 -0.9531 -1.5764
   13MOL0     H 1654   6.181   6.828   7.079 -0.5844 -0.5596 -1.4950
   13MOL0     H 1655   6.268   6.789   7.315 -0.0756  1.9513 -1.7815
   13MOL0     H 1656   6.386   6.774   7.199  0.7477  0.9197  1.6028
   13MOL0     H 1657   6.379   6.519   7.204  3.5711  1.4082  0.4419
   13MOL0     H 1658   6.239   6.512   7.306  0.0843 -0.2421  0.5931
   13MOL0     H 1659   6.472   6.667   7.411 -0.3080 -0.0413  0.0045
   13MOL0     H 1660   6.329   6.591   7.495 -0.6657  0.7880 -0.4027
   13MOL0     H 1661   6.547   6.432   7.353 -0.4264 -1.7083  0.3521
   13MOL0     H 1662   6.410   6.381   7.439  1.9092 -0.8779  1.2211
   13MOL0     H 1663   6.595   6.360   7.598  0.8020 -0.7302 -0.4914
   13MOL0     H 1664   6.492   6.494   7.652 -0.4791 -2.9241 -0.3585
   13MOL0     H 1665   6.746   6.544   7.488 -2.3514  0.9263 -1.9945
   13MOL0     H 1666   6.648   6.661   7.575  3.2745  1.2042  3.0461
   13MOL0     H 1667   6.700   6.553   7.788  0.4991  0.9005  0.2018
   13MOL0     H 1668   6.823   6.637   7.701  0.5296 -0.0015  1.8138
   13MOL0     H 1669   6.830   6.298   7.871  2.9387  2.7286  0.5200
   13MOL0     H 1670   7.003   6.046   7.711  3.5272  1.1880 -2.9959
   13MOL0     H 1671   6.969   6.118   7.873 -1.1956 -0.0926 -0.2520
   13MOL0     H 1672   7.201   6.064   7.866 -2.9762 -0.9172  1.3857
   13MOL0     H 1673   7.190   6.244   7.854  2.4905 -0.4265 -0.8403
   13MOL0     H 1674   7.251   6.220   7.620 -0.1128 -0.8438 -0.0467
   13MOL0     H 1675   7.378   6.171   7.736  0.0602 -0.8567  0.9971
   13MOL0     H 1676   7.181   5.995   7.567 -1.1670 -2.4426  0.4037
   13MOL0     H 1677   7.297   5.924   7.687  2.1245 -1.2922 -2.2276
   13MOL0     H 1678   7.500   5.871   7.356  4.0676  1.7129 -0.4988
   13MOL0     H 1679   7.491   5.893   7.114  0.2570  2.1790 -2.5654
   13MOL0     H 1680   7.634   6.209   6.816 -2.3561 -1.7420  3.9354
   13MOL0     H 1681   7.674   6.244   6.560 -0.3311 -0.8563 -1.6138
   13MOL0     H 1682   7.338   6.188   6.327  0.3704 -0.6224  1.4205
   13MOL0     H 1683   7.408   6.030   6.267 -0.3974 -0.0781 -0.8913
   13MOL0     H 1684   7.553   6.185   6.118  0.6810 -1.8292 -0.2229
   13MOL0     H 1685   7.432   6.305   6.156  1.7843 -0.0932 -0.6211
   13MOL0     H 1686   7.253   6.193   6.043 -0.8724 -0.0950 -4.4677
   13MOL0     H 1687   7.321   6.043   6.044 -1.3390  1.1422 -0.4528
   13MOL0     H 1688   7.429   6.278   5.876  0.5711  0.2731 -2.1417
   13MOL0     H 1689   7.486   6.118   5.859  0.9958  1.2000 -0.0068
   13MOL0     H 1690   7.263   6.054   5.789  3.3742 -0.6713  0.6573
   13MOL0     H 1691   7.319   6.179   5.687  2.7989  0.8653  0.7449
   13MOL0     H 1692   7.197   6.355   5.825  1.1615 -0.7880 -0.0663
   13MOL0     H 1693   7.085   6.214   5.871 -2.8817 -2.5731 -3.2851
   13MOL0     H 1694   7.135   6.301   5.575 -2.4303 -1.2520 -0.9674
   13MOL0     H 1695   7.081   6.149   5.635 -0.6608 -0.4402  0.1060
   13MOL0     H 1696   6.963   6.401   5.562 -1.2151 -1.0814 -0.8269
   13MOL0     H 1697   6.960   6.415   5.735  5.1090  1.3209 -0.3666
   13MOL0     H 1698   7.362   5.983   6.473 -0.0831  0.4368 -0.2084
   13MOL0     H 1699   7.341   5.937   6.725 -0.2663  0.6445 -0.8649
   13MOL0     H 1700   7.246   6.234   7.164 -0.4999  0.0756 -0.0972
   13MOL0     H 1701   7.250   6.200   7.409 -1.5960 -0.4212  0.5425
   13MOL0     H 1702   6.112   6.476   7.011 -0.3811 -0.0572 -0.1792
   13MOL0     H 1703   5.968   6.384   6.815 -0.8228  0.3543  3.7311
   13MOL0     H 1704   6.054   6.394   6.168  0.4370 -2.7571  1.2367
   13MOL0     H 1705   5.873   6.374   5.993 -1.2973 -3.4556 -0.0411
   13MOL0     H 1706   5.726   6.216   5.888  2.1376  1.1461  0.1886
   13MOL0     H 1707   5.709   6.388   5.880  1.9806 -0.7656  1.6408
   13MOL0     H 1708   5.532   6.181   5.795  1.2646 -0.2705  1.1881
   13MOL0     H 1709   5.447   6.330   5.870  0.9222  0.6499  0.2524
   13MOL0     H 1710   5.630   6.342   5.637  0.9213 -1.1502  1.6927
   13MOL0     H 1711   5.556   6.473   5.732 -2.7709 -0.0140  1.6686
   13MOL0     H 1712   5.399   6.271   5.582  2.7571 -1.9985  1.7202
   13MOL0     H 1713   5.337   6.418   5.659  0.1530  0.5382  0.1209
   13MOL0     H 1714   5.476   6.581   5.306  3.7953 -0.8004  0.7354
   13MOL0     H 1715   5.596   6.345   6.322  0.8804  2.7435  0.9098
   13MOL0     H 1716   5.763   6.376   6.485  1.4164 -0.0066 -0.1119
   14MOL0     O 1717   7.350   0.286   8.861 -0.3109 -0.1042  0.1424
   14MOL0     C 1718   7.261   0.205   8.866  0.0771 -0.3943  0.3320
   14MOL0     O 1719   7.152   0.203   8.789 -0.0441  0.4132 -0.4095
   14MOL0     C 1720   7.139   0.279   8.673 -0.4239 -0.5611  0.0705
   14MOL0     C 1721   7.087   0.216   8.558 -0.5044 -0.4970  1.3509
   14MOL0     C 1722   7.069   0.288   8.443  0.9005  0.2590  0.2125
   14MOL0     C 1723   7.110   0.417   8.439  0.0433  0.4856  0.1782
   14MOL0     O 1724   7.094   0.481   8.319  0.2488  0.5251  0.7972
   14MOL0     C 1725   7.178   0.592   8.284  0.0547 -0.3691  0.4278
   14MOL0     C 1726   7.165   0.619   8.129  0.2317  0.6553 -0.0547
   14MOL0     C 1727   7.225   0.492   8.062  0.5371 -0.4697  0.0495
   14MOL0     C 1728   7.221   0.502   7.908  0.0961 -0.3475 -0.6206
   14MOL0     C 1729   7.236   0.364   7.850 -0.4910 -0.2234 -0.2737
   14MOL0     C 1730   7.382   0.308   7.855 -0.1741  0.9079 -0.1544
   14MOL0     C 1731   7.394   0.170   7.771  0.5045  0.0312 -0.7703
   14MOL0     C 1732   7.530   0.106   7.799  0.0342  0.7031 -0.0844
   14MOL0     N 1733   7.556   0.008   7.704 -0.7413  0.2355 -0.1803
   14MOL0     C 1734   7.686  -0.002   7.649 -0.5172 -0.4086 -0.5283
   14MOL0     C 1735   7.715  -0.132   7.625  1.0545  0.7962 -0.2626
   14MOL0     C 1736   7.852  -0.180   7.586  0.6539  0.0321 -0.6019
   14MOL0     C 1737   7.938  -0.228   7.713  0.2457 -0.1126  0.3456
   14MOL0     C 1738   7.984  -0.097   7.779  0.4655 -0.3862  0.2710
   14MOL0     C 1739   8.023  -0.127   7.926  0.1125 -0.3892  0.3359
   14MOL0     O 1740   8.075  -0.005   7.989  0.0648  0.5173 -0.3347
   14MOL0     C 1741   7.996   0.111   7.997 -0.4725  0.7031  0.4178
   14MOL0     C 1742   7.860   0.109   8.005  0.5198 -0.1324  0.2428
   14MOL0     C 1743   7.782   0.232   8.025 -0.0450 -0.0677  0.3745
   14MOL0     C 1744   7.844   0.355   8.024 -0.2418  0.5737 -0.4339
   14MOL0     C 1745   7.766   0.483   8.055  0.7063 -0.5369  0.6341
   14MOL0     O 1746   7.834   0.598   8.037  0.7105  0.1216  0.1195
   14MOL0     C 1747   7.780   0.726   8.019 -0.6333  1.0167  0.4555
   14MOL0     C 1748   7.644   0.763   8.002 -0.0721 -0.2394  0.3889
   14MOL0     C 1749   7.619   0.898   7.988 -0.5596 -0.6178  1.2903
   14MOL0     C 1750   7.719   0.996   8.018 -0.7815  0.9198 -0.1213
   14MOL0     O 1751   7.674   1.124   8.021 -0.3909 -0.0119  0.5360
   14MOL0     C 1752   7.746   1.229   8.078  0.0790  0.0980  0.3014
   14MOL0     C 1753   7.772   1.194   8.222  0.1624 -0.3734 -1.0362
   14MOL0     C 1754   7.876   1.297   8.278  0.3506  0.3640  1.1375
   14MOL0     C 1755   8.017   1.297   8.217  0.0662 -0.0407  0.3683
   14MOL0     C 1756   8.112   1.389   8.295  0.2504  0.1457  0.2926
   14MOL0     C 1757   8.244   1.417   8.213 -0.1168  0.1373  0.0476
   14MOL0     C 1758   8.315   1.286   8.166  0.4422  0.7096 -0.1694
   14MOL0     C 1759   8.324   1.252   8.019 -0.1266 -0.3725 -0.5535
   14MOL0    Cl 1760   8.413   1.373   7.922  0.5570  0.3197  0.0770
   14MOL0     C 1761   7.857   0.950   8.029  0.4342 -0.3419  0.3051
   14MOL0     C 1762   7.882   0.815   8.012 -0.7092 -0.0506  0.2439
   14MOL0     O 1763   7.642   0.472   8.073 -0.1455  0.8323 -0.6521
   14MOL0     C 1764   7.993   0.356   8.011  0.3230  0.1457 -0.2603
   14MOL0     C 1765   8.062   0.232   8.001 -1.4754 -0.2497 -0.2325
   14MOL0     N 1766   7.598  -0.202   7.661  0.5854  0.0117  0.4506
   14MOL0     N 1767   7.507  -0.120   7.704 -0.2227 -0.9428 -0.8784
   14MOL0     C 1768   7.140   0.487   8.555  1.0451 -0.4356  0.4994
   14MOL0     C 1769   7.150   0.413   8.675  1.0270 -0.2466  0.2595
   14MOL0     C 1770   7.258   0.096   8.957  0.0061  0.0745  0.8100
   14MOL0     C 1771   7.152  -0.003   8.947 -0.5545 -1.2875 -0.0089
   14MOL0     C 1772   7.157  -0.121   9.025 -0.4392 -0.5067 -0.4478
   14MOL0     C 1773   7.253  -0.145   9.122  0.5285 -0.1581 -0.7926
   14MOL0     O 1774   7.264  -0.241   9.215  0.3841  0.7892 -0.1731
   14MOL0     C 1775   7.148  -0.332   9.223  0.2537  0.4994 -0.0533
   14MOL0     C 1776   7.036  -0.288   9.317  0.8739 -0.4134  0.9976
   14MOL0     C 1777   7.051  -0.306   9.461  0.3368  0.0276 -0.1261
   14MOL0     C 1778   7.188  -0.255   9.528 -0.2963  0.5698 -0.6989
   14MOL0     C 1779   7.242  -0.341   9.638  1.1246 -0.0728 -0.8109
   14MOL0     C 1780   7.287  -0.411   9.732  0.0874 -1.0104  0.0083
   14MOL0     C 1781   7.354  -0.049   9.129 -0.2083 -0.4307  0.3225
   14MOL0     C 1782   7.362   0.061   9.043  0.4587  0.6715 -0.2488
   14MOL0     H 1783   7.064   0.110   8.568  1.8280 -1.2292 -0.1386
   14MOL0     H 1784   7.028   0.238   8.356 -1.6170  0.7375  1.0302
   14MOL0     H 1785   7.282   0.573   8.313  1.4387  0.6187 -3.2852
   14MOL0     H 1786   7.145   0.687   8.328 -0.8059  1.5957 -3.8398
   14MOL0     H 1787   7.213   0.715   8.110 -0.4848  0.6823 -1.8728
   14MOL0     H 1788   7.059   0.620   8.104  0.0056  2.0103  0.8518
   14MOL0     H 1789   7.154   0.413   8.089 -0.5006 -0.7690 -3.1151
   14MOL0     H 1790   7.324   0.464   8.101 -0.0669  0.4731  2.4544
   14MOL0     H 1791   7.122   0.541   7.879  0.6657  3.0780  1.4767
   14MOL0     H 1792   7.287   0.586   7.884 -1.5272  0.3077 -3.3241
   14MOL0     H 1793   7.215   0.366   7.743  0.5204 -2.3570 -0.5681
   14MOL0     H 1794   7.165   0.294   7.894 -0.6188  0.4125  0.5571
   14MOL0     H 1795   7.394   0.292   7.962 -0.9258  3.3527  0.3624
   14MOL0     H 1796   7.455   0.379   7.815  0.4369  0.2474 -0.2169
   14MOL0     H 1797   7.317   0.093   7.782  0.8752 -0.2636 -0.1955
   14MOL0     H 1798   7.393   0.191   7.664  0.4066  5.4810  0.0232
   14MOL0     H 1799   7.504   0.041   7.883  0.8615 -0.7435 -0.9175
   14MOL0     H 1800   7.610   0.175   7.825  0.3448  1.0873 -1.9415
   14MOL0     H 1801   7.768   0.066   7.631 -0.5957  0.1113  0.9018
   14MOL0     H 1802   7.904  -0.107   7.523 -0.4717  1.5769  0.1911
   14MOL0     H 1803   7.838  -0.273   7.530 -0.4589  0.2672 -0.7399
   14MOL0     H 1804   8.023  -0.291   7.684  0.0182  1.1580 -3.6489
   14MOL0     H 1805   7.871  -0.283   7.780 -3.0461 -0.0790 -2.6794
   14MOL0     H 1806   8.065  -0.058   7.717 -1.8806 -1.5980 -3.9174
   14MOL0     H 1807   7.905  -0.021   7.783 -0.1427 -0.6597 -3.2909
   14MOL0     H 1808   8.102  -0.202   7.926 -0.5123 -1.0925  1.7723
   14MOL0     H 1809   7.935  -0.172   7.974 -1.1520 -1.6993 -2.9515
   14MOL0     H 1810   7.802   0.018   7.997  0.9080 -0.4318  0.7751
   14MOL0     H 1811   7.676   0.223   8.047 -0.0105 -1.7478  0.0245
   14MOL0     H 1812   7.569   0.688   7.980 -1.2776  0.8174  0.7923
   14MOL0     H 1813   7.522   0.937   7.961 -1.2812 -3.6784 -1.1237
   14MOL0     H 1814   7.689   1.322   8.075 -0.8465 -0.4558  0.3217
   14MOL0     H 1815   7.838   1.240   8.021 -1.0529  0.8215 -1.4621
   14MOL0     H 1816   7.820   1.096   8.232  0.8660 -0.0972 -1.5646
   14MOL0     H 1817   7.680   1.186   8.280  0.2217 -0.9901 -1.0211
   14MOL0     H 1818   7.893   1.274   8.384  1.6230 -1.2216  0.6441
   14MOL0     H 1819   7.821   1.392   8.281  1.0588  0.7587  2.2442
   14MOL0     H 1820   8.063   1.199   8.213 -0.1002 -0.4199  4.0634
   14MOL0     H 1821   8.004   1.348   8.121 -1.7694  1.3173  1.2513
   14MOL0     H 1822   8.130   1.339   8.391 -1.8706 -0.1222  0.6185
   14MOL0     H 1823   8.074   1.486   8.328  1.6915 -0.1252  3.0788
   14MOL0     H 1824   8.309   1.459   8.291  0.2994 -1.3445  0.5274
   14MOL0     H 1825   8.234   1.493   8.135  0.2031  0.5433  0.3967
   14MOL0     H 1826   8.415   1.281   8.210 -0.8223 -0.6116  2.8251
   14MOL0     H 1827   8.269   1.197   8.210 -1.2175  1.9327  0.6786
   14MOL0     H 1828   8.219   1.246   7.988 -0.4267  2.2738 -0.3178
   14MOL0     H 1829   8.349   1.146   8.007 -1.2419 -0.7279  0.1454
   14MOL0     H 1830   7.939   1.018   8.051  1.5863 -1.3563 -0.6628
   14MOL0     H 1831   7.984   0.782   8.032 -1.2745 -1.6452  0.6545
   14MOL0     H 1832   8.056   0.443   7.991  2.0470 -0.5495  1.7946
   14MOL0     H 1833   8.165   0.240   7.968 -1.9751 -1.7026 -2.3660
   14MOL0     H 1834   7.137   0.596   8.552 -1.5021 -0.3460  2.5998
   14MOL0     H 1835   7.160   0.463   8.771 -0.0824 -1.2334  0.9227
   14MOL0     H 1836   7.066  -0.004   8.881  0.5158 -3.6473 -1.4927
   14MOL0     H 1837   7.075  -0.190   9.010  0.3029 -1.4384 -0.2427
   14MOL0     H 1838   7.199  -0.418   9.268  2.3329  2.1535  0.8985
   14MOL0     H 1839   7.104  -0.364   9.128  1.5825  0.5303 -0.7096
   14MOL0     H 1840   7.024  -0.180   9.311  0.5823 -0.3115  2.9232
   14MOL0     H 1841   6.947  -0.333   9.272  0.9822 -0.2637  0.6228
   14MOL0     H 1842   7.046  -0.410   9.493 -3.1991  1.1788  3.9199
   14MOL0     H 1843   6.962  -0.258   9.501 -0.7601 -0.6306 -1.6896
   14MOL0     H 1844   7.267  -0.254   9.452  1.0819 -3.3727  0.4040
   14MOL0     H 1845   7.172  -0.151   9.557 -1.7413 -0.0629  0.9512
   14MOL0     H 1846   7.313  -0.467   9.820  2.6979 -0.3236 -0.2482
   14MOL0     H 1847   7.438  -0.069   9.196  2.4003  1.4788 -2.1499
   14MOL0     H 1848   7.450   0.124   9.043  0.6727  0.7943  4.5891
   15MOL0     O 1849   6.067   2.181   7.017  0.0215 -1.3555 -0.4203
   15MOL0     C 1850   6.171   2.249   7.041  0.6068 -0.3722 -1.0127
   15MOL0     O 1851   6.202   2.372   6.993 -0.1870  0.0278  0.5311
   15MOL0     C 1852   6.109   2.444   6.926  1.0951 -0.4419 -0.8750
   15MOL0     C 1853   5.994   2.488   6.992  0.2194  0.3836  0.2028
   15MOL0     C 1854   5.909   2.567   6.926  0.4468 -0.4741  0.2084
   15MOL0     C 1855   5.918   2.600   6.786 -0.5350  0.8971  0.0616
   15MOL0     O 1856   5.817   2.650   6.711 -0.2100 -0.2133 -0.6250
   15MOL0     C 1857   5.716   2.724   6.785  0.1620 -1.1543  0.5454
   15MOL0     C 1858   5.646   2.820   6.684  0.2579 -0.2550 -0.9859
   15MOL0     C 1859   5.711   2.954   6.701  0.3334  0.4461  0.2531
   15MOL0     C 1860   5.683   3.057   6.606 -0.1624 -0.0375  0.5483
   15MOL0     C 1861   5.762   3.184   6.650  0.7027 -0.6646 -1.2669
   15MOL0     C 1862   5.681   3.266   6.746 -0.6555 -0.7903  0.8945
   15MOL0     C 1863   5.749   3.401   6.782  0.2358  0.8407 -0.0019
   15MOL0     C 1864   5.704   3.433   6.932  0.3841  0.1056  1.0318
   15MOL0     N 1865   5.749   3.565   6.977  0.7045 -0.9043  0.4690
   15MOL0     C 1866   5.850   3.580   7.066  0.0987  0.9075  0.7112
   15MOL0     C 1867   5.854   3.708   7.090 -0.2728 -0.4800  0.0886
   15MOL0     C 1868   5.940   3.783   7.191 -0.3124 -0.2294  0.1949
   15MOL0     C 1869   5.850   3.850   7.305 -0.4883 -0.2255  1.0216
   15MOL0     C 1870   5.936   3.880   7.423 -0.3182  0.3103 -0.1425
   15MOL0     C 1871   6.022   4.002   7.416 -0.7545  0.4461 -0.5527
   15MOL0     O 1872   6.148   3.980   7.338 -0.1112  0.8956 -0.7010
   15MOL0     C 1873   6.236   3.888   7.387 -0.6953  0.5580  0.0155
   15MOL0     C 1874   6.284   3.901   7.520  1.0573 -0.7113  0.0560
   15MOL0     C 1875   6.376   3.803   7.562 -0.7181 -0.8748 -0.5197
   15MOL0     C 1876   6.413   3.694   7.478 -0.9540 -0.3385 -0.0488
   15MOL0     C 1877   6.509   3.580   7.529 -0.1905  0.6679 -0.2875
   15MOL0     O 1878   6.527   3.474   7.441  0.3372  0.6106 -0.4819
   15MOL0     C 1879   6.607   3.366   7.482  0.0827 -0.2923 -0.4582
   15MOL0     C 1880   6.571   3.235   7.456  0.3530  0.0396 -0.2167
   15MOL0     C 1881   6.655   3.122   7.479  1.3765 -0.5599 -0.5733
   15MOL0     C 1882   6.765   3.142   7.557  0.8031  0.8153 -1.4510
   15MOL0     O 1883   6.819   3.036   7.633  0.1951  0.6386 -0.2618
   15MOL0     C 1884   6.909   2.955   7.563  0.0471  0.1455 -0.2006
   15MOL0     C 1885   6.955   2.827   7.630 -0.2941  0.8149 -0.2106
   15MOL0     C 1886   6.834   2.729   7.627  0.5341 -0.2264  0.8761
   15MOL0     C 1887   6.883   2.589   7.634 -0.7350 -0.1431  0.5023
   15MOL0     C 1888   6.769   2.485   7.633 -1.0563  0.0310  0.8121
   15MOL0     C 1889   6.834   2.346   7.623  0.4322  0.0966 -0.6855
   15MOL0     C 1890   6.715   2.234   7.616  0.3994 -0.7553 -0.4472
   15MOL0     C 1891   6.760   2.091   7.673 -0.5442  0.4623 -0.8743
   15MOL0    Cl 1892   6.795   2.110   7.849  0.1714  0.0798 -0.3815
   15MOL0     C 1893   6.804   3.272   7.589  0.5076 -0.1921 -1.1423
   15MOL0     C 1894   6.733   3.387   7.541 -0.2985  0.6227  0.2859
   15MOL0     O 1895   6.553   3.591   7.645 -0.3381 -0.0203 -0.0712
   15MOL0     C 1896   6.372   3.691   7.351  1.2036  0.1409  0.8755
   15MOL0     C 1897   6.286   3.786   7.306 -0.3305 -0.4786  0.9254
   15MOL0     N 1898   5.779   3.774   6.999  0.0274 -0.2258 -0.1655
   15MOL0     N 1899   5.706   3.689   6.938  0.2852 -0.4547  0.9087
   15MOL0     C 1900   6.029   2.553   6.729 -0.0484 -0.4283  0.2554
   15MOL0     C 1901   6.130   2.479   6.798 -0.5570 -0.3443 -0.6855
   15MOL0     C 1902   6.252   2.194   7.156  0.2339  0.2408  0.1448
   15MOL0     C 1903   6.201   2.094   7.243 -1.0069  0.4106  1.3341
   15MOL0     C 1904   6.288   2.032   7.340 -0.5964  0.3783  0.1243
   15MOL0     C 1905   6.416   2.088   7.362 -0.0704  0.7993 -0.6864
   15MOL0     O 1906   6.497   2.024   7.445 -0.9807 -0.5536 -0.6684
   15MOL0     C 1907   6.566   1.912   7.389  0.4138  0.3326  0.2817
   15MOL0     C 1908   6.706   1.936   7.331 -0.1029  0.4337  0.3622
   15MOL0     C 1909   6.724   1.938   7.180  0.0819 -0.5794 -0.1664
   15MOL0     C 1910   6.875   1.951   7.135 -0.6421 -0.3878 -0.2565
   15MOL0     C 1911   6.958   2.044   7.226 -0.1087  0.1315  0.3452
   15MOL0     C 1912   7.028   2.102   7.302  0.1768 -0.3965 -0.9050
   15MOL0     C 1913   6.460   2.189   7.277 -0.8724 -0.1912 -1.0907
   15MOL0     C 1914   6.381   2.247   7.179  0.4866  0.0284  0.5535
   15MOL0     H 1915   5.971   2.437   7.085  0.7088 -0.4004 -0.0895
   15MOL0     H 1916   5.828   2.614   6.980 -1.2864 -1.4608 -1.4034
   15MOL0     H 1917   5.756   2.785   6.867 -0.5840  0.0355  0.0488
   15MOL0     H 1918   5.651   2.642   6.818 -0.3123 -0.7067  0.7392
   15MOL0     H 1919   5.542   2.843   6.709  0.4185  0.9119 -1.3537
   15MOL0     H 1920   5.670   2.810   6.578  0.7561  1.0989 -1.0116
   15MOL0     H 1921   5.818   2.931   6.690 -0.0489 -1.9699  1.1335
   15MOL0     H 1922   5.694   2.992   6.802 -0.1423 -0.8256  0.6607
   15MOL0     H 1923   5.723   3.028   6.508  1.3738  0.7959  0.9033
   15MOL0     H 1924   5.575   3.075   6.604  0.0665  1.4318  0.1684
   15MOL0     H 1925   5.770   3.251   6.564  0.8374  0.4845 -0.3873
   15MOL0     H 1926   5.861   3.167   6.695  0.4250  0.6474 -0.0844
   15MOL0     H 1927   5.665   3.206   6.836  0.5706 -3.2865 -0.4400
   15MOL0     H 1928   5.583   3.276   6.698 -0.7190 -0.2325  1.1424
   15MOL0     H 1929   5.858   3.396   6.779  0.2587  0.7377  0.7111
   15MOL0     H 1930   5.720   3.472   6.704 -0.8051  0.3003 -0.1346
   15MOL0     H 1931   5.737   3.349   6.993  0.6031 -2.1455 -1.9368
   15MOL0     H 1932   5.595   3.425   6.925  0.2888 -2.4523  3.7012
   15MOL0     H 1933   5.913   3.512   7.122 -0.2779  2.9684  3.8602
   15MOL0     H 1934   6.007   3.849   7.136  0.7848 -2.4767 -1.3423
   15MOL0     H 1935   5.998   3.704   7.239  5.3966  3.1036 -0.3007
   15MOL0     H 1936   5.780   3.774   7.341  0.4172 -1.3156  0.5297
   15MOL0     H 1937   5.796   3.936   7.263 -0.4190 -1.8891 -2.9670
   15MOL0     H 1938   5.876   3.903   7.512  1.2195  1.7000  0.5781
   15MOL0     H 1939   5.987   3.786   7.448 -1.1291  0.4439  2.3825
   15MOL0     H 1940   6.058   4.017   7.519  1.8764  1.6550 -1.5634
   15MOL0     H 1941   5.973   4.087   7.369 -0.7982 -0.0778 -1.4668
   15MOL0     H 1942   6.262   3.981   7.590  0.3319 -0.9628  0.1362
   15MOL0     H 1943   6.410   3.818   7.664 -0.8147 -0.8208 -0.4952
   15MOL0     H 1944   6.482   3.223   7.395 -1.2737 -0.7816  2.1991
   15MOL0     H 1945   6.623   3.020   7.462  0.7615 -0.4188 -0.3003
   15MOL0     H 1946   6.999   3.016   7.551 -0.1932  0.4503 -0.4978
   15MOL0     H 1947   6.872   2.925   7.464 -1.4596 -0.8998  0.6342
   15MOL0     H 1948   7.000   2.845   7.728 -2.3109  1.0677  0.7230
   15MOL0     H 1949   7.029   2.774   7.570  0.2509  0.5980  0.6527
   15MOL0     H 1950   6.776   2.742   7.535 -0.2511 -0.7993  1.2726
   15MOL0     H 1951   6.766   2.757   7.709  0.3525 -0.8042  0.9295
   15MOL0     H 1952   6.949   2.576   7.548  0.4482  0.1354  1.3533
   15MOL0     H 1953   6.942   2.564   7.722 -1.4230  1.3644  1.4125
   15MOL0     H 1954   6.706   2.500   7.545 -3.0650 -1.9658  1.8034
   15MOL0     H 1955   6.701   2.507   7.716 -2.3651 -2.3390  0.4707
   15MOL0     H 1956   6.898   2.327   7.709 -1.9640 -1.9947  0.7963
   15MOL0     H 1957   6.900   2.344   7.536  0.4615 -1.4005 -0.6501
   15MOL0     H 1958   6.621   2.265   7.664 -0.2572 -2.0370 -0.8674
   15MOL0     H 1959   6.702   2.214   7.510 -2.0632  0.2701 -0.4076
   15MOL0     H 1960   6.852   2.059   7.622 -1.1834 -2.5914 -0.3123
   15MOL0     H 1961   6.692   2.009   7.648 -0.1654  0.1894 -1.0349
   15MOL0     H 1962   6.890   3.281   7.655 -1.2009  0.3270  1.1294
   15MOL0     H 1963   6.775   3.485   7.562  0.1721  0.6589 -0.7752
   15MOL0     H 1964   6.400   3.614   7.280 -0.3106  1.4308 -1.2285
   15MOL0     H 1965   6.259   3.785   7.201 -1.3009  1.0283  1.1324
   15MOL0     H 1966   6.043   2.579   6.624  3.1175 -0.4029  0.5807
   15MOL0     H 1967   6.223   2.455   6.748 -0.0872  4.5768 -2.7720
   15MOL0     H 1968   6.095   2.069   7.233 -1.2715  1.9238 -0.0479
   15MOL0     H 1969   6.251   1.946   7.394 -0.3138  0.7518  0.9312
   15MOL0     H 1970   6.504   1.864   7.313 -2.0721  0.0842  2.3275
   15MOL0     H 1971   6.581   1.840   7.470  1.2513 -0.1368 -0.2673
   15MOL0     H 1972   6.723   2.036   7.374 -1.5171  1.5703 -1.5561
   15MOL0     H 1973   6.770   1.858   7.372  0.0152 -0.6060 -1.6671
   15MOL0     H 1974   6.669   2.024   7.140  0.9174  1.6941  3.1515
   15MOL0     H 1975   6.676   1.856   7.127 -0.3712  1.0634 -2.4563
   15MOL0     H 1976   6.920   1.851   7.134 -1.0423 -0.6363  2.1057
   15MOL0     H 1977   6.897   1.976   7.030  3.5758 -3.1215 -0.2885
   15MOL0     H 1978   7.097   2.119   7.382 -0.0355 -2.5402 -0.2029
   15MOL0     H 1979   6.559   2.230   7.297 -1.0137  0.3768 -1.5284
   15MOL0     H 1980   6.426   2.326   7.120  0.5482 -3.3594 -4.5661
   16MOL0     O 1981   8.222   4.393   2.560 -0.1235 -0.0572  0.4765
   16MOL0     C 1982   8.319   4.319   2.532 -0.6647  0.4978 -0.4108
   16MOL0     O 1983   8.422   4.291   2.619 -0.4388  0.1898 -0.1881
   16MOL0     C 1984   8.429   4.341   2.750 -0.8529 -0.5126  0.3229
   16MOL0     C 1985   8.560   4.322   2.800  0.4314  0.7228  0.4988
   16MOL0     C 1986   8.589   4.359   2.928 -0.7425 -0.0601 -1.1553
   16MOL0     C 1987   8.493   4.423   3.012  0.1618 -0.4589 -0.3563
   16MOL0     O 1988   8.521   4.473   3.133 -0.5879  0.0873  0.6167
   16MOL0     C 1989   8.652   4.528   3.154 -0.0151  0.5205 -0.7180
   16MOL0     C 1990   8.646   4.643   3.258  0.6342  0.1835 -0.0746
   16MOL0     C 1991   8.693   4.595   3.403  0.3134  1.0203 -0.7289
   16MOL0     C 1992   8.594   4.493   3.465  1.1263 -0.1032 -0.2163
   16MOL0     C 1993   8.626   4.445   3.611 -0.3968  0.2990 -0.3943
   16MOL0     C 1994   8.638   4.555   3.714  0.8198 -0.1334  0.1670
   16MOL0     C 1995   8.647   4.509   3.858  1.0471  1.0068  0.5619
   16MOL0     C 1996   8.764   4.434   3.912 -0.0813 -0.7743  0.3273
   16MOL0     N 1997   8.877   4.523   3.947 -0.3567 -0.4186 -0.3213
   16MOL0     C 1998   8.958   4.602   3.867  0.3319  0.1924 -0.0458
   16MOL0     C 1999   9.030   4.676   3.953  1.3093 -0.1281  0.6752
   16MOL0     C 2000   9.119   4.795   3.910 -0.4449 -0.0546 -0.4709
   16MOL0     C 2001   9.222   4.768   3.802  0.1071 -0.8199 -0.1150
   16MOL0     C 2002   9.286   4.902   3.761 -0.7508 -0.2717 -0.0424
   16MOL0     C 2003   9.365   4.977   3.870  0.1366  0.6968  0.1677
   16MOL0     O 2004   9.472   4.910   3.940  0.7527 -0.0284  0.3149
   16MOL0     C 2005   9.577   4.969   4.001 -0.7607 -0.2118  0.3875
   16MOL0     C 2006   9.701   4.900   4.023  0.3980  0.8608 -0.2360
   16MOL0     C 2007   9.806   4.972   4.085  1.0450 -0.4900  0.0080
   16MOL0     C 2008   9.788   5.102   4.129 -0.1468 -0.2100 -0.4167
   16MOL0     C 2009   9.898   5.161   4.199  0.5083 -0.1692 -0.8682
   16MOL0     O 2010   9.985   5.080   4.266  0.2968  0.4525  0.1718
   16MOL0     C 2011  10.044   5.117   4.384 -0.2562  0.2686 -0.0416
   16MOL0     C 2012  10.173   5.077   4.425 -0.6129 -0.1794 -0.1249
   16MOL0     C 2013  10.236   5.118   4.545  0.0091  0.6073 -0.0601
   16MOL0     C 2014  10.164   5.205   4.630  0.2733  0.5905 -0.6765
   16MOL0     O 2015  10.213   5.231   4.760 -0.0717  0.2244  0.0396
   16MOL0     C 2016  10.121   5.234   4.869 -0.8220 -0.9193  0.4852
   16MOL0     C 2017  10.184   5.251   5.007 -0.5251  0.3995  0.8011
   16MOL0     C 2018  10.114   5.171   5.119 -0.2210  0.1916 -0.2373
   16MOL0     C 2019  10.144   5.024   5.107 -0.1130  0.4167  0.0875
   16MOL0     C 2020  10.085   4.936   5.220 -1.4296  1.3055 -1.3555
   16MOL0     C 2021   9.930   4.971   5.252  0.1035 -0.2604 -0.6609
   16MOL0     C 2022   9.879   4.863   5.347 -0.6423 -0.3476  0.1596
   16MOL0     C 2023   9.721   4.875   5.371  0.2057 -0.1915 -0.1305
   16MOL0    Cl 2024   9.677   5.026   5.461  0.2890 -0.1785 -0.2130
   16MOL0     C 2025  10.034   5.236   4.594  0.2736 -0.2447  0.4006
   16MOL0     C 2026   9.972   5.191   4.475  0.3668 -0.3074 -0.1747
   16MOL0     O 2027   9.902   5.285   4.197 -0.4860  0.4480  0.3026
   16MOL0     C 2028   9.670   5.168   4.102 -0.2278 -0.5721  0.4678
   16MOL0     C 2029   9.564   5.107   4.044  0.3118  0.8359  0.2226
   16MOL0     N 2030   8.994   4.645   4.080  0.7096  0.9617  0.5804
   16MOL0     N 2031   8.911   4.547   4.079 -0.5405  0.3408 -1.3614
   16MOL0     C 2032   8.365   4.453   2.961  1.0108  0.9859 -0.6815
   16MOL0     C 2033   8.336   4.405   2.835 -0.0836  0.4326 -1.4343
   16MOL0     C 2034   8.339   4.253   2.401 -0.2333 -1.1087 -0.4843
   16MOL0     C 2035   8.305   4.317   2.282 -0.1278  0.1516  0.0005
   16MOL0     C 2036   8.338   4.256   2.160 -0.5764  0.4430  0.3903
   16MOL0     C 2037   8.417   4.140   2.147  0.0418 -1.0289  0.1717
   16MOL0     O 2038   8.449   4.084   2.029 -0.5482 -0.5759  0.0947
   16MOL0     C 2039   8.490   4.179   1.918 -0.3120  0.0266 -1.4692
   16MOL0     C 2040   8.606   4.256   1.957  0.0103  0.1139  0.0267
   16MOL0     C 2041   8.729   4.165   1.973  0.7099  1.3520 -0.0742
   16MOL0     C 2042   8.858   4.250   1.966  1.2315  0.3602  0.5734
   16MOL0     C 2043   8.876   4.334   2.078 -0.0528  0.1855 -0.6368
   16MOL0     C 2044   8.891   4.421   2.164  1.1469  0.6484  0.7671
   16MOL0     C 2045   8.451   4.086   2.267 -0.6446 -0.4039 -0.2375
   16MOL0     C 2046   8.411   4.135   2.391 -0.2370 -0.2760 -0.2758
   16MOL0     H 2047   8.620   4.253   2.741  0.3511  0.3200  0.8827
   16MOL0     H 2048   8.679   4.338   2.987 -0.8109  4.2444  0.8548
   16MOL0     H 2049   8.706   4.577   3.072 -1.3454  2.1368 -0.6829
   16MOL0     H 2050   8.709   4.440   3.186 -1.3261 -0.4413 -0.9356
   16MOL0     H 2051   8.545   4.686   3.257  0.0047 -1.1646 -2.5384
   16MOL0     H 2052   8.719   4.721   3.234  2.0372 -1.0582  0.0191
   16MOL0     H 2053   8.705   4.681   3.469 -0.7194  2.0736 -1.8661
   16MOL0     H 2054   8.792   4.549   3.391  0.3379  1.2804 -1.5584
   16MOL0     H 2055   8.496   4.541   3.469  1.1676 -0.1010  2.4133
   16MOL0     H 2056   8.571   4.404   3.405  1.5941 -0.3058 -0.0977
   16MOL0     H 2057   8.716   4.383   3.613  0.9681  2.0975 -2.4294
   16MOL0     H 2058   8.540   4.384   3.643 -1.2488 -1.0574 -4.6249
   16MOL0     H 2059   8.557   4.628   3.710  0.5558 -0.4588 -3.0962
   16MOL0     H 2060   8.731   4.603   3.683  0.2575  1.5948  1.0625
   16MOL0     H 2061   8.626   4.598   3.918  3.0322  1.4626  0.6483
   16MOL0     H 2062   8.560   4.445   3.874  0.6740  0.7605 -2.1143
   16MOL0     H 2063   8.793   4.356   3.842  0.4553 -3.3355  3.1518
   16MOL0     H 2064   8.738   4.387   4.008  0.5995 -1.6562  0.0839
   16MOL0     H 2065   8.968   4.618   3.760  2.8442 -0.2841  0.0687
   16MOL0     H 2066   9.163   4.827   4.005  0.6459  0.6483 -1.1758
   16MOL0     H 2067   9.051   4.875   3.879  1.1148  1.8728  0.8353
   16MOL0     H 2068   9.188   4.730   3.705 -0.0952 -0.2932 -0.2545
   16MOL0     H 2069   9.294   4.698   3.845 -0.2834 -0.7765  0.6316
   16MOL0     H 2070   9.366   4.871   3.694 -2.8202 -4.6658 -0.8440
   16MOL0     H 2071   9.230   4.977   3.704  2.5090  1.3863 -1.2967
   16MOL0     H 2072   9.315   5.018   3.958 -0.2169 -1.3881  0.9975
   16MOL0     H 2073   9.409   5.066   3.825 -2.3138  1.2776 -1.2754
   16MOL0     H 2074   9.718   4.796   3.995  1.1150  0.1166  2.5684
   16MOL0     H 2075   9.899   4.917   4.098  0.0422 -2.0384  1.0156
   16MOL0     H 2076  10.223   5.018   4.348  2.5556  3.0302 -0.7945
   16MOL0     H 2077  10.339   5.093   4.569  0.4457  1.7784 -0.6340
   16MOL0     H 2078  10.069   5.138   4.864 -0.9572 -0.7891 -1.1891
   16MOL0     H 2079  10.046   5.314   4.861  0.2409  0.0007 -0.5910
   16MOL0     H 2080  10.201   5.357   5.029  2.8480 -0.5379  3.7089
   16MOL0     H 2081  10.287   5.213   5.005 -1.4603 -2.4414 -1.9827
   16MOL0     H 2082  10.007   5.195   5.128  0.0713  0.7892  2.3942
   16MOL0     H 2083  10.155   5.201   5.216 -2.5097  1.4283  0.4509
   16MOL0     H 2084  10.102   5.003   5.008  0.6533  3.4161 -0.9959
   16MOL0     H 2085  10.252   5.007   5.109  0.1952  1.0838 -3.5829
   16MOL0     H 2086  10.143   4.975   5.303 -0.4517 -1.7546 -0.4758
   16MOL0     H 2087  10.102   4.828   5.210  2.1050  1.6617 -0.5841
   16MOL0     H 2088   9.882   4.991   5.156  0.3560  3.7838 -0.1175
   16MOL0     H 2089   9.927   5.068   5.303 -0.0593  1.3491 -3.5099
   16MOL0     H 2090   9.893   4.766   5.298 -0.4625  0.7084 -1.9755
   16MOL0     H 2091   9.937   4.858   5.440 -2.5605  1.3233  1.5129
   16MOL0     H 2092   9.688   4.785   5.424 -1.2393  0.0676 -0.5467
   16MOL0     H 2093   9.664   4.880   5.278  1.5079 -4.7738 -1.4560
   16MOL0     H 2094   9.990   5.305   4.665 -0.4026  0.9894 -1.1649
   16MOL0     H 2095   9.874   5.225   4.441 -0.6487 -3.1403 -0.3135
   16MOL0     H 2096   9.661   5.271   4.135  2.5857 -0.8455  2.4717
   16MOL0     H 2097   9.486   5.168   4.000 -0.3079  1.9641  2.6890
   16MOL0     H 2098   8.286   4.503   3.016  1.7593  1.9405 -0.4524
   16MOL0     H 2099   8.231   4.407   2.806 -0.2052  0.7450 -0.9871
   16MOL0     H 2100   8.270   4.420   2.280 -2.5989 -0.5332  2.2666
   16MOL0     H 2101   8.303   4.303   2.069 -2.2464  3.1678  2.2856
   16MOL0     H 2102   8.413   4.252   1.893 -1.7126 -1.8071 -2.7434
   16MOL0     H 2103   8.515   4.124   1.827 -0.1972  1.9862 -2.6735
   16MOL0     H 2104   8.623   4.331   1.880  3.1139  0.1600  0.6260
   16MOL0     H 2105   8.587   4.304   2.053  0.6178  2.7986 -1.1268
   16MOL0     H 2106   8.729   4.099   1.886  0.6257  2.0507 -0.6074
   16MOL0     H 2107   8.717   4.117   2.071 -3.4865  1.3859 -0.4062
   16MOL0     H 2108   8.932   4.168   1.969  1.2140  0.3751  1.8320
   16MOL0     H 2109   8.871   4.309   1.875 -1.1296 -0.2639 -0.2142
   16MOL0     H 2110   8.896   4.486   2.249  3.0227 -0.2664  1.4318
   16MOL0     H 2111   8.510   3.994   2.263 -1.2844 -0.7853 -1.2389
   16MOL0     H 2112   8.444   4.066   2.467 -1.0443 -3.6290 -2.7371
   17MOL0     O 2113   1.279   7.884   6.554 -0.0217 -0.4154  0.6141
   17MOL0     C 2114   1.294   7.769   6.520  0.4649  0.4008  0.2842
   17MOL0     O 2115   1.405   7.702   6.554 -0.2104 -0.5113  0.1787
   17MOL0     C 2116   1.506   7.736   6.640  0.0476 -0.1167 -0.4158
   17MOL0     C 2117   1.638   7.701   6.615 -0.5797 -0.4784  0.1336
   17MOL0     C 2118   1.745   7.735   6.697  0.0735 -0.0133 -0.6097
   17MOL0     C 2119   1.726   7.803   6.821  0.0806  1.3268 -0.6119
   17MOL0     O 2120   1.825   7.837   6.912 -0.4304  0.2332 -0.0927
   17MOL0     C 2121   1.955   7.782   6.885  0.0110 -0.7597 -0.7540
   17MOL0     C 2122   2.043   7.792   7.000 -0.2082 -0.9629  0.3877
   17MOL0     C 2123   2.192   7.755   6.959 -0.4743  0.2369  0.1203
   17MOL0     C 2124   2.260   7.869   6.892 -0.5431 -0.7677  0.1911
   17MOL0     C 2125   2.411   7.843   6.896 -2.0287 -1.1164  0.0785
   17MOL0     C 2126   2.479   7.942   6.792  0.1219  0.8769  0.7326
   17MOL0     C 2127   2.629   7.937   6.803 -0.5385  0.1234 -0.5274
   17MOL0     C 2128   2.698   8.001   6.679  0.3157 -0.2843 -0.1381
   17MOL0     N 2129   2.855   8.001   6.691  0.0507 -0.2209  0.1288
   17MOL0     C 2130   2.926   7.892   6.714 -0.8931 -0.0541 -0.0132
   17MOL0     C 2131   3.053   7.935   6.728 -0.4032  1.0359 -0.4439
   17MOL0     C 2132   3.142   7.835   6.802 -0.0390 -0.4338  0.2506
   17MOL0     C 2133   3.165   7.867   6.947 -0.2491 -0.8262  0.2656
   17MOL0     C 2134   3.259   7.758   6.996  0.6529  0.1481  0.1111
   17MOL0     C 2135   3.239   7.762   7.157 -0.3066  0.5974  0.1555
   17MOL0     O 2136   3.292   7.888   7.212  0.9694  0.2195  0.5671
   17MOL0     C 2137   3.430   7.899   7.228  0.9334  0.5763 -0.1308
   17MOL0     C 2138   3.479   8.010   7.298 -0.3286 -0.5352  0.4131
   17MOL0     C 2139   3.619   8.032   7.317 -0.4155  0.2425 -1.1494
   17MOL0     C 2140   3.716   7.940   7.270 -0.6641  0.5451  0.1880
   17MOL0     C 2141   3.862   7.967   7.303 -0.9914  1.1787  0.3558
   17MOL0     O 2142   3.938   7.847   7.287 -0.3546 -0.3229  0.6957
   17MOL0     C 2143   4.079   7.846   7.313  0.3254 -0.3899 -0.4657
   17MOL0     C 2144   4.157   7.750   7.247  0.1096 -0.1624 -0.0841
   17MOL0     C 2145   4.288   7.732   7.285 -0.7255 -0.5129  1.0356
   17MOL0     C 2146   4.356   7.812   7.381 -0.2332 -0.1617 -0.1499
   17MOL0     O 2147   4.493   7.807   7.415 -0.0529 -0.4268  0.2278
   17MOL0     C 2148   4.561   7.928   7.442 -0.4560 -0.3227 -0.1362
   17MOL0     C 2149   4.710   7.915   7.443 -0.0109 -0.3021 -0.0186
   17MOL0     C 2150   4.776   7.934   7.583  0.4242 -0.3122  0.1887
   17MOL0     C 2151   4.935   7.934   7.584  1.1529  0.5957  1.1290
   17MOL0     C 2152   5.001   7.919   7.716 -0.3991  0.2838  0.1634
   17MOL0     C 2153   5.020   8.070   7.775 -0.4594  0.6996  0.4537
   17MOL0     C 2154   5.089   8.048   7.910  0.5943  0.7327 -0.4742
   17MOL0     C 2155   5.101   8.177   7.981  0.6796 -0.2005 -0.5422
   17MOL0    Cl 2156   5.188   8.159   8.140  0.1643  0.6286 -0.7570
   17MOL0     C 2157   4.279   7.906   7.453  0.1225 -1.2619 -0.1022
   17MOL0     C 2158   4.139   7.928   7.418 -0.0321 -0.6126 -0.3581
   17MOL0     O 2159   3.904   8.074   7.341 -0.2412  0.0179 -0.6668
   17MOL0     C 2160   3.665   7.817   7.215 -0.1691 -0.1773  0.2911
   17MOL0     C 2161   3.524   7.795   7.203 -0.5048 -0.2188  0.3569
   17MOL0     N 2162   3.053   8.071   6.690  0.2907 -0.2018 -0.6596
   17MOL0     N 2163   2.936   8.113   6.670  0.0053  0.5725 -0.0928
   17MOL0     C 2164   1.592   7.835   6.846 -0.8498  0.0513  0.7392
   17MOL0     C 2165   1.490   7.808   6.763  0.6395  0.8478 -0.5362
   17MOL0     C 2166   1.188   7.702   6.438  0.3779  1.1144 -0.9106
   17MOL0     C 2167   1.050   7.738   6.451 -0.0211  0.4644 -0.0251
   17MOL0     C 2168   0.958   7.655   6.389  0.1099  0.1663  0.8268
   17MOL0     C 2169   0.992   7.550   6.314 -0.7033  0.2772  0.0630
   17MOL0     O 2170   0.885   7.496   6.240  0.5314  0.1614 -0.5769
   17MOL0     C 2171   0.893   7.358   6.206 -0.6377 -0.4106  0.3658
   17MOL0     C 2172   0.752   7.297   6.224 -0.4267  0.4952  0.2328
   17MOL0     C 2173   0.732   7.254   6.370  0.0625  0.6092  0.3867
   17MOL0     C 2174   0.585   7.214   6.379  0.2875  0.2749  0.1402
   17MOL0     C 2175   0.538   7.223   6.519  0.4574  0.4092  0.0957
   17MOL0     C 2176   0.483   7.234   6.624 -0.2536  0.4334  0.7098
   17MOL0     C 2177   1.128   7.511   6.298  0.6656 -0.4859  0.4569
   17MOL0     C 2178   1.219   7.586   6.364  0.3497  0.4208  0.9947
   17MOL0     H 2179   1.662   7.643   6.526  0.7627 -0.5455  0.5193
   17MOL0     H 2180   1.842   7.690   6.679  1.1157  1.4057  1.0841
   17MOL0     H 2181   2.008   7.844   6.811 -0.7313  0.7681 -0.0538
   17MOL0     H 2182   1.955   7.678   6.850 -1.7438 -0.8508 -0.5832
   17MOL0     H 2183   2.013   7.724   7.080 -3.0127  0.8765  1.0399
   17MOL0     H 2184   2.029   7.891   7.044 -1.1503 -1.5077  1.3663
   17MOL0     H 2185   2.184   7.671   6.889 -2.2906  1.8155 -1.6896
   17MOL0     H 2186   2.259   7.732   7.043  3.6039  3.7413 -1.7870
   17MOL0     H 2187   2.221   7.877   6.790  1.3307  0.3766 -0.4647
   17MOL0     H 2188   2.244   7.966   6.940 -2.3555  1.0338 -3.6418
   17MOL0     H 2189   2.447   7.745   6.864  1.5467 -0.4466  1.5001
   17MOL0     H 2190   2.447   7.858   6.998 -0.5058 -0.2280 -0.5542
   17MOL0     H 2191   2.449   8.043   6.820 -3.6573 -0.6575  2.9261
   17MOL0     H 2192   2.453   7.922   6.688 -2.2735  0.2511  1.3981
   17MOL0     H 2193   2.656   8.006   6.884 -1.1764  1.5033 -1.4598
   17MOL0     H 2194   2.666   7.838   6.832 -1.5369 -0.2205 -0.4138
   17MOL0     H 2195   2.669   8.104   6.659  1.2117  0.0924  0.3995
   17MOL0     H 2196   2.674   7.935   6.596 -0.2506 -0.2651  0.0065
   17MOL0     H 2197   2.890   7.796   6.749  0.3218 -0.5333 -0.0212
   17MOL0     H 2198   3.242   7.829   6.758  0.6718  1.6780  1.4183
   17MOL0     H 2199   3.096   7.736   6.791  0.5084 -0.9490  2.2058
   17MOL0     H 2200   3.065   7.873   6.992  0.3805 -1.3103  1.7736
   17MOL0     H 2201   3.214   7.964   6.960  0.5312 -1.1654 -0.0567
   17MOL0     H 2202   3.226   7.664   6.949  1.8460  0.4569 -1.4125
   17MOL0     H 2203   3.364   7.774   6.971  1.4053  1.4133  3.4955
   17MOL0     H 2204   3.269   7.673   7.213 -2.9509  0.5291  1.6118
   17MOL0     H 2205   3.134   7.779   7.180 -0.0254  0.9825  1.2524
   17MOL0     H 2206   3.408   8.084   7.334 -1.1735 -0.0509 -2.0775
   17MOL0     H 2207   3.651   8.125   7.364  0.1913 -0.4501 -0.1427
   17MOL0     H 2208   4.113   7.695   7.165 -3.0637  1.4758  0.3432
   17MOL0     H 2209   4.348   7.661   7.229  1.7987  1.4080  1.1686
   17MOL0     H 2210   4.522   7.974   7.533  1.9544  1.2264  0.1947
   17MOL0     H 2211   4.552   7.993   7.356  2.1983  1.4010  0.7468
   17MOL0     H 2212   4.753   7.998   7.386  0.8067 -0.9541 -0.3789
   17MOL0     H 2213   4.740   7.823   7.391 -0.0600  1.3547 -3.2845
   17MOL0     H 2214   4.731   7.851   7.638 -0.6618 -0.4116 -0.8193
   17MOL0     H 2215   4.747   8.031   7.622 -0.4312  0.8575 -2.9971
   17MOL0     H 2216   4.964   7.851   7.519  0.3515  0.8669  0.4031
   17MOL0     H 2217   4.977   8.022   7.534  0.3468  0.9227  1.0227
   17MOL0     H 2218   5.084   7.849   7.729  0.8172  1.8202  1.0013
   17MOL0     H 2219   4.923   7.870   7.775 -3.8373  2.4721 -2.1857
   17MOL0     H 2220   4.936   8.139   7.777 -1.0047  0.1643 -1.7177
   17MOL0     H 2221   5.096   8.121   7.715 -0.4080  2.2518  1.7687
   17MOL0     H 2222   5.027   7.985   7.975  2.0899  1.4930  1.8186
   17MOL0     H 2223   5.185   7.997   7.910 -0.1147 -0.7148  1.3680
   17MOL0     H 2224   5.002   8.219   8.002  0.2008 -1.9349  0.8430
   17MOL0     H 2225   5.148   8.246   7.911  0.8872  0.3262  0.1040
   17MOL0     H 2226   4.323   7.972   7.528  0.3394 -2.1479  0.5693
   17MOL0     H 2227   4.096   8.000   7.486 -0.6360 -1.7226  0.4725
   17MOL0     H 2228   3.731   7.740   7.176 -0.5628 -0.3464 -0.0454
   17MOL0     H 2229   3.511   7.707   7.141 -1.4035  0.8938 -1.1020
   17MOL0     H 2230   1.567   7.897   6.932 -1.0235 -0.7787  1.3036
   17MOL0     H 2231   1.398   7.853   6.799  2.5397  1.7882  3.9469
   17MOL0     H 2232   1.020   7.828   6.503 -0.9423  0.1375  0.0242
   17MOL0     H 2233   0.855   7.684   6.406  0.0820  1.1995 -0.8703
   17MOL0     H 2234   0.957   7.308   6.279 -0.5591  1.4555  1.6574
   17MOL0     H 2235   0.934   7.351   6.105  1.2225  0.8757  0.9709
   17MOL0     H 2236   0.679   7.368   6.185  1.5702  2.4424 -0.1200
   17MOL0     H 2237   0.751   7.210   6.157 -1.7213  0.5134  0.1929
   17MOL0     H 2238   0.764   7.336   6.435  2.5190  1.8351 -2.1255
   17MOL0     H 2239   0.800   7.170   6.390 -0.5124 -0.6403 -2.3826
   17MOL0     H 2240   0.517   7.280   6.324 -1.6328 -0.6350  1.3255
   17MOL0     H 2241   0.579   7.107   6.356  2.2865 -0.0998  1.1503
   17MOL0     H 2242   0.437   7.246   6.719  0.4360  2.2059  0.8510
   17MOL0     H 2243   1.149   7.440   6.219 -1.9426 -0.6671 -0.1810
   17MOL0     H 2244   1.322   7.571   6.334  0.1504 -1.5617  1.1735
   18MOL0     O 2245   1.869   2.979   0.927 -0.7629 -0.6473  0.1101
   18MOL0     C 2246   1.955   2.893   0.905  0.9428  0.0139 -0.1192
   18MOL0     O 2247   2.089   2.904   0.900 -0.3471  0.4108  0.5841
   18MOL0     C 2248   2.143   3.019   0.941 -0.8105  0.4476 -0.2417
   18MOL0     C 2249   2.116   3.138   0.875  0.3914  0.3647  0.0262
   18MOL0     C 2250   2.138   3.265   0.938 -0.6596 -0.0417  0.0627
   18MOL0     C 2251   2.207   3.262   1.062  0.2236 -0.8091  0.0636
   18MOL0     O 2252   2.228   3.387   1.120 -0.2351 -0.5381 -0.7654
   18MOL0     C 2253   2.140   3.505   1.094 -0.2386  0.2253 -0.2194
   18MOL0     C 2254   2.192   3.597   1.203  1.2610 -0.1862  0.0174
   18MOL0     C 2255   2.080   3.694   1.255 -0.3905  0.0269 -0.7479
   18MOL0     C 2256   2.145   3.782   1.377  1.3626  0.0915  0.2761
   18MOL0     C 2257   2.051   3.891   1.433  0.3582  0.3178 -0.2341
   18MOL0     C 2258   1.934   3.824   1.501 -0.1272  0.0316 -0.1493
   18MOL0     C 2259   1.851   3.920   1.585  0.3355  0.0162 -0.5057
   18MOL0     C 2260   1.715   3.854   1.613  0.5285  0.7341 -0.4040
   18MOL0     N 2261   1.623   3.935   1.696  0.6047 -0.2364 -0.3537
   18MOL0     C 2262   1.578   3.891   1.823  0.0412 -0.4177  0.2489
   18MOL0     C 2263   1.464   3.950   1.839  0.2319 -0.5431 -1.9830
   18MOL0     C 2264   1.375   3.939   1.960 -0.0560  0.6632  0.4688
   18MOL0     C 2265   1.378   3.795   2.020 -0.4856 -1.2107  1.3043
   18MOL0     C 2266   1.272   3.698   1.952 -0.9289 -0.5333 -0.7389
   18MOL0     C 2267   1.290   3.551   1.989  0.5896 -0.4765 -0.6008
   18MOL0     O 2268   1.410   3.488   1.958 -0.0853 -0.0114  0.1733
   18MOL0     C 2269   1.466   3.508   1.838 -0.0382  0.6103  0.2575
   18MOL0     C 2270   1.390   3.524   1.714 -0.2450 -0.0108 -0.5475
   18MOL0     C 2271   1.466   3.530   1.594 -0.2353  0.2752 -0.9964
   18MOL0     C 2272   1.603   3.510   1.585 -0.0783 -0.0450  0.0539
   18MOL0     C 2273   1.675   3.500   1.454  1.6574 -0.6788 -0.0562
   18MOL0     O 2274   1.596   3.459   1.350  0.0185  0.7508 -0.3925
   18MOL0     C 2275   1.650   3.467   1.225  0.7088  0.3141  0.3922
   18MOL0     C 2276   1.663   3.589   1.147 -0.8825  0.6641  0.6848
   18MOL0     C 2277   1.723   3.577   1.020  0.1682 -0.1470  0.0556
   18MOL0     C 2278   1.788   3.453   0.986  0.5461 -0.5422  0.1650
   18MOL0     O 2279   1.841   3.448   0.863  0.5459 -0.3810 -0.5220
   18MOL0     C 2280   1.822   3.331   0.778 -0.0260  0.3523  0.3956
   18MOL0     C 2281   1.671   3.313   0.743 -0.0078  0.5328 -0.1014
   18MOL0     C 2282   1.597   3.205   0.818  0.3682 -0.4734  0.9241
   18MOL0     C 2283   1.491   3.143   0.720 -1.2148 -0.3900  0.2344
   18MOL0     C 2284   1.420   3.028   0.780 -0.2934 -0.1347 -0.9232
   18MOL0     C 2285   1.301   3.077   0.867 -0.0919 -0.4557 -0.9111
   18MOL0     C 2286   1.193   2.959   0.889  0.9354 -0.1185  1.0055
   18MOL0     C 2287   1.099   3.018   0.996 -0.1873 -0.7768 -0.1859
   18MOL0    Cl 2288   1.022   3.160   0.928 -0.5724 -0.1854  0.2029
   18MOL0     C 2289   1.786   3.341   1.069 -0.2376  0.5112 -1.2687
   18MOL0     C 2290   1.712   3.347   1.188  0.0755  0.0310  0.2943
   18MOL0     O 2291   1.795   3.537   1.451 -0.0140 -0.0545 -0.8461
   18MOL0     C 2292   1.677   3.495   1.702 -0.0133 -0.7328 -0.0602
   18MOL0     C 2293   1.608   3.491   1.830 -0.4635  0.4615  0.1102
   18MOL0     N 2294   1.441   4.040   1.738  0.0539  0.4102 -0.2750
   18MOL0     N 2295   1.538   4.033   1.654 -0.0686 -0.2216  0.7832
   18MOL0     C 2296   2.233   3.139   1.127  0.1585  0.9521  0.8124
   18MOL0     C 2297   2.205   3.014   1.068  0.4502 -0.2184  0.0662
   18MOL0     C 2298   1.913   2.755   0.896 -0.9159  0.2740  0.5207
   18MOL0     C 2299   1.790   2.717   0.955 -0.6729  0.4647  0.1728
   18MOL0     C 2300   1.750   2.583   0.949  0.2858 -0.1345  0.0622
   18MOL0     C 2301   1.825   2.484   0.887  0.4859 -0.0725 -0.1522
   18MOL0     O 2302   1.777   2.358   0.900 -0.2116 -0.1373  0.7466
   18MOL0     C 2303   1.853   2.247   0.850  0.5009 -0.6301 -0.2273
   18MOL0     C 2304   1.815   2.212   0.711  0.1298  0.2050  0.2251
   18MOL0     C 2305   1.906   2.095   0.659 -0.2703  0.4039 -0.9319
   18MOL0     C 2306   1.872   2.060   0.508  0.7505  0.4759  0.4330
   18MOL0     C 2307   1.965   1.961   0.460 -0.3629  0.5555  0.0568
   18MOL0     C 2308   2.039   1.870   0.431 -0.3020  0.7717  0.3590
   18MOL0     C 2309   1.946   2.526   0.830 -0.5760  0.6302  0.6591
   18MOL0     C 2310   1.991   2.651   0.837 -0.7693  1.4268  0.0434
   18MOL0     H 2311   2.081   3.134   0.773  0.9014  1.1705 -0.1887
   18MOL0     H 2312   2.126   3.363   0.892  1.4191  0.7461  1.0772
   18MOL0     H 2313   2.040   3.473   1.126 -0.8084  2.0415 -0.0659
   18MOL0     H 2314   2.148   3.557   0.998  0.6979 -0.7894 -0.7187
   18MOL0     H 2315   2.274   3.655   1.161  2.4332 -0.6525  1.5627
   18MOL0     H 2316   2.229   3.532   1.284  0.6045  1.2681  1.5430
   18MOL0     H 2317   1.987   3.646   1.287  1.5810 -4.2388 -0.6916
   18MOL0     H 2318   2.047   3.761   1.176 -3.6003  0.1164  0.4965
   18MOL0     H 2319   2.171   3.719   1.463  1.5011 -2.2694 -1.3807
   18MOL0     H 2320   2.234   3.832   1.339  1.4736  0.7508  1.3743
   18MOL0     H 2321   2.006   3.959   1.360 -2.4566  0.3057  1.3671
   18MOL0     H 2322   2.109   3.960   1.495 -0.4085  1.6265 -0.9274
   18MOL0     H 2323   1.975   3.742   1.560 -0.2659  0.4585  0.5533
   18MOL0     H 2324   1.869   3.784   1.422 -2.4669  0.8597  1.2661
   18MOL0     H 2325   1.908   3.956   1.671  0.0638 -0.1146 -0.2701
   18MOL0     H 2326   1.825   4.002   1.518  1.0409  0.6189 -0.0461
   18MOL0     H 2327   1.728   3.757   1.661  0.9644 -0.0012 -1.9744
   18MOL0     H 2328   1.659   3.836   1.521  3.3247  1.3341 -2.3315
   18MOL0     H 2329   1.618   3.825   1.899  0.8490  1.0712  1.1650
   18MOL0     H 2330   1.272   3.967   1.934  0.2842  0.7113 -0.9242
   18MOL0     H 2331   1.409   4.010   2.036  2.8253  1.8926 -1.7631
   18MOL0     H 2332   1.351   3.794   2.125  0.6916 -0.6141  1.6335
   18MOL0     H 2333   1.477   3.747   2.022  0.0661 -0.2100 -0.0202
   18MOL0     H 2334   1.171   3.731   1.977 -1.1580 -1.3724 -0.5471
   18MOL0     H 2335   1.285   3.724   1.847 -0.9026  1.5975 -0.2645
   18MOL0     H 2336   1.208   3.490   1.950  2.3173 -2.9539 -0.6118
   18MOL0     H 2337   1.298   3.536   2.097 -0.9705  2.5495  0.0447
   18MOL0     H 2338   1.282   3.519   1.720 -0.1779  0.3567  2.7085
   18MOL0     H 2339   1.408   3.547   1.504  3.6633 -0.5090 -3.9286
   18MOL0     H 2340   1.609   3.676   1.183 -1.5349 -1.3699  5.4519
   18MOL0     H 2341   1.715   3.659   0.949 -0.2054  0.7688  1.1204
   18MOL0     H 2342   1.867   3.241   0.821 -1.2283 -0.0848  0.7630
   18MOL0     H 2343   1.883   3.348   0.688  2.1255  2.3751  2.0988
   18MOL0     H 2344   1.671   3.299   0.634 -0.4367  6.1396 -1.0905
   18MOL0     H 2345   1.624   3.409   0.766 -1.7687 -0.6724  1.6369
   18MOL0     H 2346   1.537   3.242   0.902 -4.7246 -2.3004 -1.5149
   18MOL0     H 2347   1.667   3.126   0.844 -1.7652 -2.1224  1.9537
   18MOL0     H 2348   1.420   3.217   0.681 -1.8284 -0.7611  0.6545
   18MOL0     H 2349   1.531   3.121   0.620 -0.9068 -1.0153  0.4938
   18MOL0     H 2350   1.491   2.969   0.839 -0.3852  1.3895  0.7941
   18MOL0     H 2351   1.385   2.959   0.703  1.6375 -3.4979  0.9478
   18MOL0     H 2352   1.263   3.163   0.811  0.1790 -1.2460 -2.3512
   18MOL0     H 2353   1.334   3.117   0.964  0.4643 -2.2913 -0.2909
   18MOL0     H 2354   1.136   2.957   0.796  0.4909 -0.1522  1.2775
   18MOL0     H 2355   1.236   2.863   0.918  4.4945  0.7817 -0.6979
   18MOL0     H 2356   1.154   3.043   1.088  0.0955  1.3536 -0.8772
   18MOL0     H 2357   1.017   2.948   1.016 -1.1368  1.3279  4.8459
   18MOL0     H 2358   1.830   3.247   1.035 -4.7174 -3.5226  2.5899
   18MOL0     H 2359   1.688   3.259   1.246 -1.2238 -0.2759 -0.6661
   18MOL0     H 2360   1.784   3.486   1.693  0.1276  1.7459 -1.9459
   18MOL0     H 2361   1.658   3.482   1.926 -1.0407 -2.1791  0.2268
   18MOL0     H 2362   2.270   3.145   1.229  0.4964  1.4237  0.6700
   18MOL0     H 2363   2.203   2.926   1.132  3.2461 -1.0825 -0.8980
   18MOL0     H 2364   1.730   2.785   1.014  2.4969  1.8574  2.0612
   18MOL0     H 2365   1.656   2.550   0.993 -1.3607  1.9568 -1.6933
   18MOL0     H 2366   1.813   2.165   0.910 -1.4411  0.5801  0.1935
   18MOL0     H 2367   1.959   2.244   0.880  0.6908 -1.1533 -0.9102
   18MOL0     H 2368   1.713   2.176   0.698  0.6114 -0.7967 -1.0243
   18MOL0     H 2369   1.820   2.296   0.641 -0.8176 -0.7301 -1.0059
   18MOL0     H 2370   1.893   2.009   0.724  2.9342  1.4272  1.2863
   18MOL0     H 2371   2.011   2.125   0.661 -0.4592  1.2473 -2.0685
   18MOL0     H 2372   1.770   2.022   0.506  1.0978 -0.5823  1.4983
   18MOL0     H 2373   1.868   2.151   0.448 -0.5818  0.4463  0.4567
   18MOL0     H 2374   2.098   1.786   0.400  0.8520  1.1614  1.4518
   18MOL0     H 2375   2.006   2.456   0.772 -0.2819  2.1150 -0.9036
   18MOL0     H 2376   2.081   2.688   0.789 -1.0704  2.4629  0.2684
   19MOL0     O 2377   8.475   3.958  11.064 -0.6196 -0.6109  0.3271
   19MOL0     C 2378   8.471   4.072  11.116  0.6938  0.2051 -0.3290
   19MOL0     O 2379   8.415   4.183  11.063 -0.0064  0.2303  0.4409
   19MOL0     C 2380   8.378   4.180  10.931 -0.3771 -0.3972 -0.1096
   19MOL0     C 2381   8.275   4.269  10.900 -0.1458 -0.0349 -0.1778
   19MOL0     C 2382   8.235   4.298  10.767  0.0324 -0.5121 -0.4171
   19MOL0     C 2383   8.302   4.241  10.658 -0.3904  1.1539 -0.2023
   19MOL0     O 2384   8.282   4.271  10.524  0.5108 -0.4159 -0.4750
   19MOL0     C 2385   8.168   4.373  10.499  0.0963  0.4143  0.9111
   19MOL0     C 2386   8.159   4.394  10.353  1.2910 -0.6553  0.8511
   19MOL0     C 2387   8.039   4.494  10.310  0.2243  0.2853 -0.4368
   19MOL0     C 2388   8.021   4.497  10.161 -0.9548 -0.3180 -0.2621
   19MOL0     C 2389   7.913   4.594  10.132  0.0897  0.4175  0.7069
   19MOL0     C 2390   7.895   4.601   9.976 -0.8387 -0.6625  0.7567
   19MOL0     C 2391   7.827   4.737   9.937  0.3056 -0.1707 -0.1757
   19MOL0     C 2392   7.925   4.851   9.919 -0.3972 -0.2205 -0.1092
   19MOL0     N 2393   7.867   4.968   9.846 -0.1405 -0.1667 -0.3368
   19MOL0     C 2394   7.798   4.958   9.727 -1.1113 -0.2349  0.5770
   19MOL0     C 2395   7.786   5.084   9.687  0.5525  0.3994 -0.4112
   19MOL0     C 2396   7.724   5.132   9.561  0.0955 -0.2421 -0.7747
   19MOL0     C 2397   7.572   5.160   9.544 -0.4410 -0.6918 -0.0610
   19MOL0     C 2398   7.520   5.274   9.635 -0.3303 -0.1179  0.8692
   19MOL0     C 2399   7.551   5.421   9.590  0.0456  0.9576 -0.3793
   19MOL0     O 2400   7.559   5.443   9.453 -0.8362  0.6098  0.5937
   19MOL0     C 2401   7.536   5.569   9.403  0.0339 -0.1525  0.0042
   19MOL0     C 2402   7.584   5.572   9.273  0.0925  0.2807 -0.6309
   19MOL0     C 2403   7.564   5.694   9.199 -0.8412 -0.2498 -0.1216
   19MOL0     C 2404   7.481   5.797   9.246  0.0308 -0.3708  0.4960
   19MOL0     C 2405   7.438   5.909   9.159  0.1267  0.8375 -0.5831
   19MOL0     O 2406   7.455   5.893   9.029 -0.2011  0.2211 -0.3552
   19MOL0     C 2407   7.427   6.001   8.939  0.3859  0.4520 -0.5006
   19MOL0     C 2408   7.484   6.127   8.952 -0.3151 -0.0430  0.6089
   19MOL0     C 2409   7.480   6.226   8.854  0.1230  0.6870  0.6231
   19MOL0     C 2410   7.404   6.204   8.740 -0.3034  0.4276  0.2226
   19MOL0     O 2411   7.404   6.291   8.631 -0.2573  0.2480 -0.2128
   19MOL0     C 2412   7.397   6.431   8.653 -0.0676 -0.3706 -0.3166
   19MOL0     C 2413   7.406   6.503   8.526  0.5015  0.2194  0.8362
   19MOL0     C 2414   7.282   6.478   8.433  1.2202 -0.1624 -0.3153
   19MOL0     C 2415   7.202   6.611   8.401 -1.1756  0.1317  0.2569
   19MOL0     C 2416   7.095   6.579   8.301 -0.4839 -0.4907  0.5358
   19MOL0     C 2417   7.013   6.698   8.241 -0.0305 -0.7274 -0.5227
   19MOL0     C 2418   6.913   6.629   8.153 -0.6032 -0.0807 -0.0524
   19MOL0     C 2419   6.853   6.709   8.041  0.2034  0.1696 -0.1646
   19MOL0    Cl 2420   6.964   6.698   7.909 -0.0994 -0.1518  0.3779
   19MOL0     C 2421   7.354   6.077   8.716 -0.2540 -0.2605  0.1238
   19MOL0     C 2422   7.368   5.973   8.814  0.8345  0.0065 -0.2554
   19MOL0     O 2423   7.418   6.015   9.220 -0.2829 -0.2992  0.0219
   19MOL0     C 2424   7.429   5.783   9.380 -0.4872 -0.0774  0.8125
   19MOL0     C 2425   7.463   5.674   9.458 -1.1061  0.2989 -0.9115
   19MOL0     N 2426   7.825   5.170   9.790 -0.3617 -0.4720  0.1705
   19MOL0     N 2427   7.883   5.100   9.880  0.2025  0.4108  0.2705
   19MOL0     C 2428   8.399   4.143  10.684  0.0248 -0.0510  0.8815
   19MOL0     C 2429   8.441   4.117  10.819  0.0139 -0.3267 -0.4407
   19MOL0     C 2430   8.523   4.082  11.253 -0.1291  0.0557 -0.3426
   19MOL0     C 2431   8.474   4.178  11.343 -0.2502  0.0663  0.1940
   19MOL0     C 2432   8.514   4.192  11.471  0.5506 -0.7669 -0.4082
   19MOL0     C 2433   8.609   4.107  11.520  0.2944 -0.0898  0.8299
   19MOL0     O 2434   8.657   4.120  11.647  0.5229 -0.0458 -0.2237
   19MOL0     C 2435   8.767   4.203  11.670 -0.0109 -0.3487  0.9417
   19MOL0     C 2436   8.727   4.345  11.707  0.2749  0.4163  0.0897
   19MOL0     C 2437   8.612   4.344  11.810  0.4476  0.4633 -0.4285
   19MOL0     C 2438   8.547   4.474  11.863  0.2572 -0.3355  0.0381
   19MOL0     C 2439   8.426   4.468  11.953 -0.2748 -1.3156 -0.4232
   19MOL0     C 2440   8.346   4.445  12.044  0.1023  1.2508 -0.1219
   19MOL0     C 2441   8.661   3.996  11.444 -0.5809  0.3524  0.5028
   19MOL0     C 2442   8.610   3.984  11.310 -0.3235  1.0822  0.3335
   19MOL0     H 2443   8.234   4.323  10.984  0.1854  2.1733 -1.3526
   19MOL0     H 2444   8.161   4.377  10.755  0.2396 -0.4499 -1.3344
   19MOL0     H 2445   8.193   4.462  10.558  0.0004  0.7672  0.4200
   19MOL0     H 2446   8.073   4.334  10.535 -0.4484  0.7392 -0.1575
   19MOL0     H 2447   8.143   4.306  10.290 -3.0260  0.0784  0.5746
   19MOL0     H 2448   8.254   4.436  10.319  0.9035 -0.7861 -0.4551
   19MOL0     H 2449   8.060   4.597  10.341  0.6735  0.0756 -0.0209
   19MOL0     H 2450   7.949   4.460  10.364  1.0482  1.7851  2.0283
   19MOL0     H 2451   8.114   4.543  10.125 -1.3018 -0.4305 -1.3297
   19MOL0     H 2452   8.025   4.401  10.109  3.6884 -1.0472  0.9584
   19MOL0     H 2453   7.939   4.693  10.170  2.1153 -0.0234  0.5733
   19MOL0     H 2454   7.814   4.572  10.172 -0.1318 -2.1787 -1.0440
   19MOL0     H 2455   7.838   4.521   9.929 -0.8238 -0.0028 -0.4082
   19MOL0     H 2456   7.993   4.607   9.929  0.5717  0.5095  3.5857
   19MOL0     H 2457   7.772   4.712   9.845 -0.9431 -1.5200  0.8809
   19MOL0     H 2458   7.750   4.758  10.011  2.1349  0.8227  1.5416
   19MOL0     H 2459   7.995   4.809   9.847  0.4224  1.7783 -0.5606
   19MOL0     H 2460   7.972   4.887  10.011 -3.5026  3.2068  0.4361
   19MOL0     H 2461   7.774   4.871   9.667 -0.8079  1.0244 -1.4516
   19MOL0     H 2462   7.755   5.052   9.493  0.5153  1.7963 -3.1344
   19MOL0     H 2463   7.790   5.214   9.533  0.4253  0.4962  1.8717
   19MOL0     H 2464   7.516   5.068   9.560 -1.6358 -0.1483 -1.0127
   19MOL0     H 2465   7.570   5.189   9.439  3.7858  0.7935  0.0459
   19MOL0     H 2466   7.412   5.265   9.641 -0.4655  0.6170 -0.3202
   19MOL0     H 2467   7.556   5.251   9.736 -2.2338 -2.8574  1.0374
   19MOL0     H 2468   7.638   5.464   9.640 -0.2378  1.2360 -0.1147
   19MOL0     H 2469   7.472   5.485   9.632 -0.0960  0.6816 -0.2278
   19MOL0     H 2470   7.650   5.504   9.220  0.5032 -0.2535  0.5205
   19MOL0     H 2471   7.617   5.708   9.105 -0.3031  1.7554  0.4413
   19MOL0     H 2472   7.529   6.158   9.046 -0.8098  1.4144  0.3884
   19MOL0     H 2473   7.534   6.319   8.865 -0.9556  1.3100  0.8083
   19MOL0     H 2474   7.486   6.466   8.706 -0.1407  0.5719 -0.8000
   19MOL0     H 2475   7.307   6.462   8.706 -1.2899 -1.2848 -1.7753
   19MOL0     H 2476   7.507   6.487   8.488  0.8667  3.1302  0.3025
   19MOL0     H 2477   7.396   6.611   8.541 -0.1512  0.1399  0.9929
   19MOL0     H 2478   7.210   6.405   8.472  1.2429 -1.4616 -2.5442
   19MOL0     H 2479   7.319   6.423   8.346  2.4253 -0.3448  0.2827
   19MOL0     H 2480   7.146   6.662   8.480  0.1188  1.5732  0.3016
   19MOL0     H 2481   7.268   6.681   8.347 -0.1489 -0.9519  0.0673
   19MOL0     H 2482   7.018   6.515   8.345 -0.0793 -2.0757 -0.9432
   19MOL0     H 2483   7.150   6.536   8.216 -1.0677  2.0273 -1.2205
   19MOL0     H 2484   7.067   6.768   8.177 -2.1989 -0.3308 -2.0177
   19MOL0     H 2485   6.973   6.765   8.318  3.0127  0.3324  0.2799
   19MOL0     H 2486   6.952   6.531   8.126  1.0373 -0.2128  2.4136
   19MOL0     H 2487   6.829   6.604   8.219  1.1293 -0.9060  1.9704
   19MOL0     H 2488   6.843   6.814   8.072  1.4176  1.3265 -3.2496
   19MOL0     H 2489   6.760   6.657   8.016  1.3803 -1.3717 -1.5110
   19MOL0     H 2490   7.311   6.064   8.617  0.2822  2.1258 -0.4857
   19MOL0     H 2491   7.341   5.868   8.801  0.3982 -0.0580  0.9988
   19MOL0     H 2492   7.380   5.868   9.427  0.8048  0.2429  1.6138
   19MOL0     H 2493   7.426   5.668   9.560 -0.4303 -0.0884 -0.6807
   19MOL0     H 2494   8.440   4.077  10.608 -0.9122  2.4585 -2.0356
   19MOL0     H 2495   8.534   4.062  10.827  2.0155  2.8720  0.2035
   19MOL0     H 2496   8.395   4.240  11.303 -2.5690 -2.7741 -0.0042
   19MOL0     H 2497   8.477   4.268  11.538 -0.2478 -2.2965  0.9603
   19MOL0     H 2498   8.828   4.221  11.581 -1.4653  4.7966  0.6541
   19MOL0     H 2499   8.831   4.171  11.753  1.6592 -0.6758 -0.4138
   19MOL0     H 2500   8.814   4.397  11.746 -0.1549  2.3920 -1.4410
   19MOL0     H 2501   8.686   4.398  11.620  0.1201 -1.4049 -1.0160
   19MOL0     H 2502   8.649   4.286  11.895  2.5173  0.0782 -1.5339
   19MOL0     H 2503   8.526   4.293  11.765 -0.4918  0.2676  1.4675
   19MOL0     H 2504   8.625   4.529  11.917  0.7590 -1.3725  0.3892
   19MOL0     H 2505   8.522   4.536  11.777  1.5783  0.4157  0.1746
   19MOL0     H 2506   8.277   4.425  12.123  0.2659  1.8579  0.1814
   19MOL0     H 2507   8.746   3.941  11.485 -2.2780 -2.2828  0.7024
   19MOL0     H 2508   8.641   3.901  11.247  3.6116  2.3210  0.3649
   20MOL0     O 2509   7.054   8.955   2.839 -0.1608 -0.4225  0.3799
   20MOL0     C 2510   6.931   8.965   2.817 -0.2541 -1.0617  0.2569
   20MOL0     O 2511   6.861   9.054   2.740 -0.0311 -0.9373  0.2973
   20MOL0     C 2512   6.909   9.169   2.678 -1.2111 -0.4775 -0.7183
   20MOL0     C 2513   6.822   9.232   2.591 -0.0721 -0.3794  0.4498
   20MOL0     C 2514   6.845   9.353   2.523 -0.4629  0.5152  0.0398
   20MOL0     C 2515   6.969   9.413   2.536 -0.4220  0.6652  0.4466
   20MOL0     O 2516   7.012   9.524   2.466  0.5562 -0.6012  0.1221
   20MOL0     C 2517   6.935   9.643   2.479 -0.3061  0.7503  0.1934
   20MOL0     C 2518   6.887   9.682   2.331  0.5656  0.2345  0.1341
   20MOL0     C 2519   6.871   9.841   2.300  0.3302 -0.0393 -0.2621
   20MOL0     C 2520   6.883   9.872   2.141  0.4150 -0.2515  0.2392
   20MOL0     C 2521   6.904  10.026   2.121 -0.2527  0.4195 -0.1280
   20MOL0     C 2522   6.915  10.072   1.974  0.1605  0.0929  0.1348
   20MOL0     C 2523   6.995  10.205   1.967  0.3382 -0.3515 -0.2530
   20MOL0     C 2524   7.002  10.268   1.830 -0.3978 -0.0413  0.6790
   20MOL0     N 2525   7.009  10.177   1.710 -0.0666 -0.0886  0.3855
   20MOL0     C 2526   7.132  10.128   1.664  0.1478 -0.0514 -0.1422
   20MOL0     C 2527   7.089  10.063   1.543 -0.0598  0.7393  0.0966
   20MOL0     C 2528   7.177   9.994   1.437  0.5382  0.1615 -0.1198
   20MOL0     C 2529   7.091   9.986   1.317  0.0372 -0.1767  0.1638
   20MOL0     C 2530   7.183   9.942   1.197 -0.6286  0.1560 -0.5318
   20MOL0     C 2531   7.104   9.930   1.067  0.1688  0.3257  0.8567
   20MOL0     O 2532   7.072  10.055   1.010  0.8925 -0.2289  0.2335
   20MOL0     C 2533   7.040  10.062   0.872  0.0817  0.2806  0.4406
   20MOL0     C 2534   6.950   9.963   0.819  0.5222 -0.7835 -0.4836
   20MOL0     C 2535   6.892   9.991   0.691 -0.4657  0.3961 -0.5202
   20MOL0     C 2536   6.934  10.106   0.617 -0.1946 -0.5194 -0.3399
   20MOL0     C 2537   6.881  10.139   0.479  0.8606  0.5288  0.8993
   20MOL0     O 2538   6.936  10.242   0.408 -0.1712  0.3419 -0.1235
   20MOL0     C 2539   6.869  10.320   0.318  0.0812  0.5669  0.6696
   20MOL0     C 2540   6.953  10.368   0.218  0.4164 -0.0545 -0.0173
   20MOL0     C 2541   6.907  10.465   0.127  0.6833  0.5728 -0.4744
   20MOL0     C 2542   6.769  10.488   0.118 -0.4298 -0.3080 -0.5022
   20MOL0     O 2543   6.731  10.585   0.036  0.5027 -0.2747  0.0461
   20MOL0     C 2544   6.592  10.621   0.026 -0.0293  0.3380 -0.1878
   20MOL0     C 2545   6.564  10.745  -0.067  0.4222 -0.2849 -0.3906
   20MOL0     C 2546   6.626  10.709  -0.197 -0.5339 -0.2854 -0.1167
   20MOL0     C 2547   6.589  10.824  -0.298  0.6702  0.8576 -0.1452
   20MOL0     C 2548   6.578  10.791  -0.444  0.6716 -0.8648  0.3236
   20MOL0     C 2549   6.700  10.747  -0.524 -0.6225  0.1776 -0.2978
   20MOL0     C 2550   6.692  10.746  -0.673  0.3864  0.6603  0.6568
   20MOL0     C 2551   6.567  10.689  -0.747  0.2733 -0.7527  0.2819
   20MOL0    Cl 2552   6.612  10.679  -0.910  0.0868 -0.0173 -0.1001
   20MOL0     C 2553   6.685  10.428   0.216  0.4124 -0.0971 -0.5496
   20MOL0     C 2554   6.732  10.341   0.314  0.0997  0.7198  0.3516
   20MOL0     O 2555   6.787  10.072   0.445  0.0252  0.1164 -0.3580
   20MOL0     C 2556   7.033  10.184   0.675 -0.5204  0.1873  0.1701
   20MOL0     C 2557   7.073  10.175   0.803 -0.6880 -0.1123 -0.4640
   20MOL0     N 2558   6.951  10.055   1.543  0.0940  1.1196  0.2589
   20MOL0     N 2559   6.904  10.127   1.643 -0.2679 -1.3020  0.4047
   20MOL0     C 2560   7.065   9.345   2.620 -0.2778 -0.6575  0.2067
   20MOL0     C 2561   7.037   9.220   2.681 -0.4637 -0.9086 -0.6514
   20MOL0     C 2562   6.842   8.855   2.863  0.0547 -0.2501 -0.3332
   20MOL0     C 2563   6.707   8.858   2.838 -0.5017  0.8315 -0.2741
   20MOL0     C 2564   6.628   8.754   2.886  0.0734 -0.0178 -0.2439
   20MOL0     C 2565   6.691   8.643   2.957 -0.4009 -0.0555  0.5182
   20MOL0     O 2566   6.640   8.528   2.996 -0.2004 -0.0253 -0.0518
   20MOL0     C 2567   6.504   8.521   3.029  0.6546  0.5118 -0.2176
   20MOL0     C 2568   6.439   8.389   2.982 -0.0244  0.8187  0.1163
   20MOL0     C 2569   6.337   8.323   3.078 -0.5002  0.2117  0.0078
   20MOL0     C 2570   6.232   8.251   3.008  0.9622 -0.3496  0.1485
   20MOL0     C 2571   6.282   8.132   2.949  0.6737  0.9809 -0.0155
   20MOL0     C 2572   6.347   8.038   2.898  0.9213  0.0476  0.4906
   20MOL0     C 2573   6.835   8.634   2.971  0.9831  0.0242 -0.0055
   20MOL0     C 2574   6.906   8.740   2.923 -0.2840  0.3929  0.0891
   20MOL0     H 2575   6.721   9.192   2.583 -0.1852 -0.7121  2.8725
   20MOL0     H 2576   6.774   9.404   2.459 -0.4416  2.0506  1.1937
   20MOL0     H 2577   6.996   9.728   2.510 -2.6395  2.3408  0.7198
   20MOL0     H 2578   6.842   9.631   2.535 -0.6306 -0.7800 -0.6074
   20MOL0     H 2579   6.790   9.637   2.308  1.1537 -0.7003 -0.6113
   20MOL0     H 2580   6.952   9.640   2.253 -1.5826 -1.3375 -0.8857
   20MOL0     H 2581   6.953   9.892   2.352  0.7319 -1.7370  0.8348
   20MOL0     H 2582   6.774   9.872   2.340  1.0271  1.4756  0.3672
   20MOL0     H 2583   6.974   9.826   2.099  1.0689  0.6139  0.6667
   20MOL0     H 2584   6.795   9.829   2.094 -1.5469  0.7534  2.7674
   20MOL0     H 2585   6.994  10.059   2.174 -1.1748  1.3364  0.9324
   20MOL0     H 2586   6.814  10.070   2.165 -1.7087 -2.6783  0.2797
   20MOL0     H 2587   6.814  10.095   1.938  0.4708  1.2433 -0.0196
   20MOL0     H 2588   6.963   9.996   1.911  1.8437  0.6273  0.7308
   20MOL0     H 2589   6.951  10.281   2.033 -1.4251 -0.5037 -1.2065
   20MOL0     H 2590   7.099  10.191   1.997  1.1452  1.8677 -1.7703
   20MOL0     H 2591   7.084  10.340   1.826 -1.7019  1.5086 -3.1525
   20MOL0     H 2592   6.913  10.331   1.816 -1.1353 -1.6758 -3.9548
   20MOL0     H 2593   7.234  10.149   1.695 -0.3764  0.0425  1.5719
   20MOL0     H 2594   7.214   9.893   1.460 -1.3196 -0.8597 -1.3543
   20MOL0     H 2595   7.256  10.065   1.411 -0.4333  1.7008  1.0197
   20MOL0     H 2596   7.046  10.080   1.286  1.0267  0.6214  1.0410
   20MOL0     H 2597   7.016   9.909   1.334 -0.2466 -0.4666 -2.0867
   20MOL0     H 2598   7.273  10.002   1.187 -0.7294  1.1957  3.2344
   20MOL0     H 2599   7.219   9.841   1.220 -3.1243 -0.9179 -0.9200
   20MOL0     H 2600   7.016   9.867   1.086 -0.0486  0.4230  0.1978
   20MOL0     H 2601   7.176   9.884   0.999  0.9523  1.0478  1.1803
   20MOL0     H 2602   6.910   9.881   0.877 -0.5641 -1.2044 -1.7895
   20MOL0     H 2603   6.806   9.939   0.651 -1.4751  0.7960  1.0470
   20MOL0     H 2604   7.060  10.349   0.225  0.2037 -1.2119  0.4437
   20MOL0     H 2605   6.966  10.505   0.045  0.9682 -2.9119 -2.1551
   20MOL0     H 2606   6.537  10.644   0.117 -1.9604 -1.9649 -0.6631
   20MOL0     H 2607   6.531  10.534   0.000 -1.1850 -0.4221  4.3016
   20MOL0     H 2608   6.601  10.844  -0.040  0.4172 -0.4959  0.4103
   20MOL0     H 2609   6.456  10.762  -0.077 -0.3036 -2.3530  2.6337
   20MOL0     H 2610   6.586  10.612  -0.229  5.1825 -2.6554 -1.3998
   20MOL0     H 2611   6.735  10.700  -0.193 -0.2664  2.4048  2.6425
   20MOL0     H 2612   6.492  10.857  -0.261  1.1108  1.8114  0.1806
   20MOL0     H 2613   6.664  10.903  -0.297 -0.8803  2.4521  2.9254
   20MOL0     H 2614   6.536  10.877  -0.497  2.7549 -0.4251 -0.7031
   20MOL0     H 2615   6.499  10.716  -0.452  0.0544 -0.2176  0.2338
   20MOL0     H 2616   6.731  10.644  -0.505  1.5323  0.3152 -2.5532
   20MOL0     H 2617   6.784  10.810  -0.493  0.5147 -0.8622 -1.1361
   20MOL0     H 2618   6.709  10.846  -0.712  0.7929 -0.6018 -2.6934
   20MOL0     H 2619   6.781  10.687  -0.695 -0.2879 -1.6290  3.4001
   20MOL0     H 2620   6.482  10.757  -0.735 -1.2165 -2.7391  1.7236
   20MOL0     H 2621   6.542  10.590  -0.708  2.0987 -1.3762 -0.0388
   20MOL0     H 2622   6.582  10.461   0.208  0.5650  0.0454 -2.6737
   20MOL0     H 2623   6.665  10.296   0.387 -0.7343 -1.6937 -1.7704
   20MOL0     H 2624   7.078  10.274   0.632  1.9613  0.8663  3.7251
   20MOL0     H 2625   7.141  10.243   0.853 -2.4209  3.3068 -2.3803
   20MOL0     H 2626   7.166   9.382   2.626 -0.8428  0.6945  3.3696
   20MOL0     H 2627   7.116   9.161   2.728 -0.4388 -1.9133 -1.9214
   20MOL0     H 2628   6.659   8.935   2.779 -3.3838  1.6699  2.8808
   20MOL0     H 2629   6.522   8.772   2.870 -0.1318 -1.8380 -1.1710
   20MOL0     H 2630   6.451   8.603   2.980  2.3937  1.4302 -0.6240
   20MOL0     H 2631   6.508   8.530   3.138  1.9717  3.6252 -0.4016
   20MOL0     H 2632   6.382   8.421   2.894  0.6806  2.1759  0.1198
   20MOL0     H 2633   6.507   8.313   2.942  0.2001  2.0895 -2.0959
   20MOL0     H 2634   6.292   8.395   3.146 -0.3547  0.1328  0.1890
   20MOL0     H 2635   6.389   8.249   3.141  0.6826  1.3111  0.3578
   20MOL0     H 2636   6.142   8.235   3.067  0.6799  1.0382  0.1286
   20MOL0     H 2637   6.190   8.316   2.930 -0.8307  0.7580  1.9703
   20MOL0     H 2638   6.406   7.955   2.866  3.8301  2.0173  0.3747
   20MOL0     H 2639   6.878   8.557   3.034  1.5108  0.9668  0.8110
   20MOL0     H 2640   7.013   8.733   2.941 -0.0862 -0.9555 -1.4037
   21MOL0     O 2641   0.059   5.434   1.434  0.3344  0.2035  0.0652
   21MOL0     C 2642   0.021   5.348   1.510 -0.0007  0.4793  0.1380
   21MOL0     O 2643  -0.108   5.326   1.552 -0.3204  0.8421 -0.2386
   21MOL0     C 2644  -0.200   5.434   1.532 -1.1181 -0.6038  0.0677
   21MOL0     C 2645  -0.267   5.483   1.645 -0.4344  0.0973  0.7072
   21MOL0     C 2646  -0.368   5.581   1.636 -0.0896  0.1034  0.6411
   21MOL0     C 2647  -0.394   5.639   1.510 -0.0828 -0.5729  0.1511
   21MOL0     O 2648  -0.473   5.746   1.509  0.2703 -0.6918 -0.3352
   21MOL0     C 2649  -0.464   5.847   1.407  0.2246  0.3510 -0.8758
   21MOL0     C 2650  -0.319   5.899   1.382 -0.1576 -0.4727 -0.4760
   21MOL0     C 2651  -0.318   6.039   1.306 -0.2038  0.2064  0.0293
   21MOL0     C 2652  -0.348   6.001   1.167 -0.0592  0.1046  1.0109
   21MOL0     C 2653  -0.342   6.120   1.072  0.2209  0.6085 -0.2086
   21MOL0     C 2654  -0.450   6.227   1.061  0.8786  1.1033  0.3437
   21MOL0     C 2655  -0.586   6.162   1.051  0.2902  0.7170  0.1360
   21MOL0     C 2656  -0.697   6.261   1.021 -0.0012 -0.2465 -0.5359
   21MOL0     N 2657  -0.695   6.383   1.100 -0.3818  0.1117 -0.1492
   21MOL0     C 2658  -0.609   6.494   1.085  0.7016 -0.6762  0.7083
   21MOL0     C 2659  -0.651   6.579   1.188  0.3792 -1.1124 -0.3712
   21MOL0     C 2660  -0.608   6.730   1.224 -0.0918 -0.0360  0.4291
   21MOL0     C 2661  -0.689   6.824   1.123 -0.0035 -0.2624  0.0490
   21MOL0     C 2662  -0.658   6.972   1.152  0.0295 -0.9246 -0.0958
   21MOL0     C 2663  -0.728   7.048   1.272  0.1777 -0.0884  0.6127
   21MOL0     O 2664  -0.868   7.037   1.274 -0.3935  0.5646  0.4150
   21MOL0     C 2665  -0.940   7.080   1.384 -0.6288 -0.0404  1.7012
   21MOL0     C 2666  -1.087   7.064   1.377 -0.7618 -0.5952  0.0701
   21MOL0     C 2667  -1.170   7.118   1.471  0.2689  0.2004  0.2381
   21MOL0     C 2668  -1.115   7.199   1.576  0.3377  0.1052  0.1889
   21MOL0     C 2669  -1.204   7.262   1.673 -0.1974 -0.2501  0.1810
   21MOL0     O 2670  -1.322   7.302   1.636  0.2612  0.3585 -0.3292
   21MOL0     C 2671  -1.404   7.377   1.713 -0.2577  0.3571  0.3914
   21MOL0     C 2672  -1.413   7.375   1.859 -0.4911  0.1537  1.3620
   21MOL0     C 2673  -1.494   7.471   1.923 -0.6414  0.6067 -0.1903
   21MOL0     C 2674  -1.562   7.565   1.850 -0.3927  0.2944 -0.2416
   21MOL0     O 2675  -1.653   7.647   1.911  0.0021  0.1503  0.2503
   21MOL0     C 2676  -1.587   7.760   1.973  0.3810  0.3937 -0.0453
   21MOL0     C 2677  -1.668   7.800   2.099 -0.3408  0.5814 -0.0217
   21MOL0     C 2678  -1.597   7.915   2.172 -0.6065 -0.7101  0.1572
   21MOL0     C 2679  -1.678   7.948   2.302  0.0151 -0.5356  0.7464
   21MOL0     C 2680  -1.641   8.079   2.375  0.1879  0.1026  0.5298
   21MOL0     C 2681  -1.508   8.078   2.462 -0.5560 -0.5688  0.1093
   21MOL0     C 2682  -1.384   8.066   2.364  0.8614 -0.9387  0.7917
   21MOL0     C 2683  -1.247   8.118   2.410  1.0083  0.3206  0.3437
   21MOL0    Cl 2684  -1.225   8.082   2.585  0.2199  0.4849  0.0976
   21MOL0     C 2685  -1.558   7.571   1.710 -1.0282  0.3240 -0.2634
   21MOL0     C 2686  -1.476   7.472   1.641 -0.2929  0.0019 -0.3243
   21MOL0     O 2687  -1.147   7.288   1.776 -0.3085  0.7402 -0.3215
   21MOL0     C 2688  -0.972   7.219   1.594 -0.0234 -0.5834  0.1071
   21MOL0     C 2689  -0.888   7.159   1.498 -0.1274  0.0153 -0.8729
   21MOL0     N 2690  -0.753   6.513   1.250  0.3028  0.5581 -0.5688
   21MOL0     N 2691  -0.773   6.392   1.205 -0.3046 -0.4053  0.3849
   21MOL0     C 2692  -0.329   5.588   1.398  0.4572  1.8059  0.1384
   21MOL0     C 2693  -0.228   5.493   1.412  0.3403  0.4077 -0.9007
   21MOL0     C 2694   0.139   5.262   1.552  0.3131  0.1640  0.3328
   21MOL0     C 2695   0.277   5.296   1.535 -0.0154 -1.0288 -0.3229
   21MOL0     C 2696   0.375   5.215   1.602 -0.0209 -0.1685  0.3142
   21MOL0     C 2697   0.335   5.103   1.671 -0.8311  0.5478  1.3038
   21MOL0     O 2698   0.425   5.024   1.735 -0.0623 -0.0478 -0.0513
   21MOL0     C 2699   0.530   4.958   1.661  0.0890 -0.4392 -0.0230
   21MOL0     C 2700   0.486   4.858   1.548  0.2060 -0.4623  0.4656
   21MOL0     C 2701   0.456   4.715   1.595  0.6204  0.8999  0.4634
   21MOL0     C 2702   0.369   4.650   1.499 -0.0739  0.4031 -0.0281
   21MOL0     C 2703   0.440   4.622   1.379  0.3410  0.4158  0.3334
   21MOL0     C 2704   0.509   4.598   1.280 -0.4575 -0.5301  0.2483
   21MOL0     C 2705   0.207   5.066   1.673 -0.9690  0.1073 -0.6840
   21MOL0     C 2706   0.108   5.148   1.624 -0.0725 -0.0530 -0.9426
   21MOL0     H 2707  -0.263   5.437   1.743 -0.3567 -1.7982 -0.1371
   21MOL0     H 2708  -0.431   5.615   1.717 -0.8671  1.7675 -0.6007
   21MOL0     H 2709  -0.524   5.929   1.447  1.0662  0.3710  0.4366
   21MOL0     H 2710  -0.514   5.817   1.314 -0.6489 -0.1589 -0.2540
   21MOL0     H 2711  -0.259   5.826   1.327 -1.3734 -3.0428  1.3658
   21MOL0     H 2712  -0.272   5.905   1.480 -2.5240 -1.6525  0.8240
   21MOL0     H 2713  -0.217   6.083   1.307  1.3582 -2.9212 -2.1984
   21MOL0     H 2714  -0.397   6.105   1.341  0.4970  0.2833  1.5716
   21MOL0     H 2715  -0.284   5.919   1.134  1.9002  0.4552  3.6033
   21MOL0     H 2716  -0.454   5.974   1.169 -1.3562  4.4078  0.0432
   21MOL0     H 2717  -0.324   6.076   0.974  0.7049  1.5705 -0.5625
   21MOL0     H 2718  -0.246   6.164   1.100 -0.2539  1.0942  0.6933
   21MOL0     H 2719  -0.419   6.273   0.966 -0.8718 -2.6573 -2.2804
   21MOL0     H 2720  -0.438   6.290   1.150 -2.8627  2.4236  0.1034
   21MOL0     H 2721  -0.582   6.090   0.968 -1.3029  2.0075 -1.1144
   21MOL0     H 2722  -0.613   6.108   1.142  2.4737 -0.0462  0.4041
   21MOL0     H 2723  -0.788   6.206   1.046  0.7375 -1.4800 -0.4585
   21MOL0     H 2724  -0.697   6.295   0.918 -0.3902 -1.9615 -1.1448
   21MOL0     H 2725  -0.536   6.502   1.005 -0.6577  1.1797 -0.4331
   21MOL0     H 2726  -0.499   6.738   1.219 -0.1481  0.7135  0.2999
   21MOL0     H 2727  -0.621   6.754   1.330  1.3787  0.7049  0.4727
   21MOL0     H 2728  -0.797   6.807   1.121 -0.5464  2.7431  0.3379
   21MOL0     H 2729  -0.645   6.804   1.025  3.0165  0.5931  1.1144
   21MOL0     H 2730  -0.552   6.994   1.167 -0.1471  0.2001 -0.4440
   21MOL0     H 2731  -0.681   7.028   1.061  0.3464  0.0708  0.4221
   21MOL0     H 2732  -0.702   7.153   1.254 -1.9316  0.3519 -0.2353
   21MOL0     H 2733  -0.678   7.013   1.363  4.3064 -6.1046 -3.2705
   21MOL0     H 2734  -1.134   7.025   1.288  1.3605 -0.0795 -1.3408
   21MOL0     H 2735  -1.273   7.085   1.457 -0.3053  0.1167  3.8436
   21MOL0     H 2736  -1.359   7.302   1.918 -0.3302  1.0333  2.3340
   21MOL0     H 2737  -1.507   7.467   2.031 -0.7974 -0.5794 -0.2334
   21MOL0     H 2738  -1.568   7.846   1.909  2.4652 -0.2236 -0.3474
   21MOL0     H 2739  -1.496   7.712   2.011 -0.1567  0.9100  1.9837
   21MOL0     H 2740  -1.663   7.711   2.163 -1.0881  1.8785  1.9462
   21MOL0     H 2741  -1.771   7.824   2.070  0.2499  0.6284 -2.2286
   21MOL0     H 2742  -1.574   7.998   2.104  1.0461  0.1682  1.6987
   21MOL0     H 2743  -1.502   7.875   2.206  0.0034  0.8774  0.4259
   21MOL0     H 2744  -1.783   7.965   2.275  1.0144  1.5046 -2.4057
   21MOL0     H 2745  -1.673   7.865   2.373  1.1930  0.4803  1.9003
   21MOL0     H 2746  -1.719   8.101   2.447 -1.1723 -2.8622  0.0896
   21MOL0     H 2747  -1.640   8.150   2.291 -4.3537 -1.1373 -0.8583
   21MOL0     H 2748  -1.500   8.010   2.547 -0.2840  1.2831  1.6297
   21MOL0     H 2749  -1.502   8.168   2.525 -0.4639 -1.2415  1.0706
   21MOL0     H 2750  -1.369   7.960   2.341 -0.2101 -1.3361  1.8118
   21MOL0     H 2751  -1.409   8.120   2.272  1.6291  0.7029  1.5111
   21MOL0     H 2752  -1.235   8.223   2.382 -0.5854  0.9075  1.6518
   21MOL0     H 2753  -1.173   8.071   2.346 -0.2555 -0.6938 -0.4348
   21MOL0     H 2754  -1.618   7.637   1.648  0.1201  2.2150  0.5593
   21MOL0     H 2755  -1.469   7.457   1.534  0.3652 -1.4557 -0.1022
   21MOL0     H 2756  -0.930   7.267   1.682  1.6412 -0.8609 -0.4984
   21MOL0     H 2757  -0.780   7.169   1.510 -0.3905 -0.3319  3.1223
   21MOL0     H 2758  -0.349   5.634   1.302  0.6528  1.9271  0.1555
   21MOL0     H 2759  -0.180   5.448   1.326  1.3412 -0.5783  0.1256
   21MOL0     H 2760   0.306   5.370   1.461 -0.6079  0.7557  1.1480
   21MOL0     H 2761   0.477   5.251   1.598  0.5803 -1.9036 -2.1737
   21MOL0     H 2762   0.590   4.911   1.740  3.5736  1.2919 -1.4226
   21MOL0     H 2763   0.587   5.033   1.605 -1.1918  0.3708 -0.2673
   21MOL0     H 2764   0.408   4.890   1.479 -0.2119 -3.3456 -0.5282
   21MOL0     H 2765   0.573   4.853   1.481  1.5804  1.0654  2.0488
   21MOL0     H 2766   0.414   4.712   1.696  0.4973 -1.6772  0.4032
   21MOL0     H 2767   0.546   4.655   1.605 -1.6275 -2.5949  1.5817
   21MOL0     H 2768   0.338   4.555   1.543 -3.7420  1.1016 -0.7493
   21MOL0     H 2769   0.285   4.720   1.490 -0.5670 -0.0445  0.8866
   21MOL0     H 2770   0.572   4.589   1.195  1.5108 -1.0394  1.6928
   21MOL0     H 2771   0.178   4.981   1.733 -1.4573 -0.1251 -1.2380
   21MOL0     H 2772   0.004   5.123   1.641 -1.0610  4.4035  0.8489
   22MOL0     O 2773   8.300   4.713   5.135 -0.3359 -0.4225 -0.3008
   22MOL0     C 2774   8.217   4.791   5.085 -0.2191 -0.0047 -0.2027
   22MOL0     O 2775   8.151   4.885   5.152  0.4715 -0.3544  0.5981
   22MOL0     C 2776   8.152   4.893   5.291 -0.0066 -0.1412 -0.6180
   22MOL0     C 2777   8.182   5.011   5.363 -0.3106 -0.4011  1.7259
   22MOL0     C 2778   8.159   5.034   5.501 -0.6653  1.0051 -0.4426
   22MOL0     C 2779   8.127   4.923   5.584 -0.3006 -0.3484  0.0219
   22MOL0     O 2780   8.118   4.954   5.720  0.0835  0.2660 -0.4356
   22MOL0     C 2781   8.082   4.849   5.815 -0.5528  0.2052 -0.1136
   22MOL0     C 2782   7.929   4.820   5.812 -0.9436 -0.7656  0.0915
   22MOL0     C 2783   7.883   4.713   5.907 -0.4809  0.0327 -0.6418
   22MOL0     C 2784   7.728   4.722   5.904 -1.0544  0.5907  0.3281
   22MOL0     C 2785   7.662   4.850   5.957 -0.2179  0.0107  0.1864
   22MOL0     C 2786   7.516   4.844   5.965  0.6613  0.6574  0.1845
   22MOL0     C 2787   7.478   4.790   6.106 -0.1766  0.6230 -0.0233
   22MOL0     C 2788   7.362   4.680   6.109 -0.3425  0.3610 -0.3395
   22MOL0     N 2789   7.230   4.712   6.052  0.1959  0.4733 -0.4552
   22MOL0     C 2790   7.202   4.718   5.914  0.3976  0.1890  0.3157
   22MOL0     C 2791   7.071   4.748   5.909 -0.3229 -0.6628 -0.7141
   22MOL0     C 2792   6.999   4.754   5.777 -0.3051 -0.8226  0.1598
   22MOL0     C 2793   7.026   4.629   5.692 -0.0883 -0.0743  1.1466
   22MOL0     C 2794   6.958   4.501   5.749  0.0839 -0.1798 -0.2286
   22MOL0     C 2795   6.804   4.513   5.780 -1.5168  0.0804  0.6868
   22MOL0     O 2796   6.728   4.549   5.659  0.2132  0.3349  0.6469
   22MOL0     C 2797   6.692   4.678   5.636 -0.0786  0.1511  0.0584
   22MOL0     C 2798   6.608   4.752   5.723  0.0037  1.1152 -0.2762
   22MOL0     C 2799   6.580   4.883   5.704  0.7251  0.3746 -0.3745
   22MOL0     C 2800   6.643   4.956   5.600  0.0359  0.2091  0.6642
   22MOL0     C 2801   6.609   5.097   5.577 -0.4519  1.2341 -0.5217
   22MOL0     O 2802   6.491   5.135   5.630 -0.1870 -0.1539 -0.1839
   22MOL0     C 2803   6.475   5.269   5.660 -0.5280 -0.3353  1.1475
   22MOL0     C 2804   6.423   5.295   5.788  0.5830  0.8063 -0.2042
   22MOL0     C 2805   6.413   5.422   5.827 -0.3534  0.2709 -0.1777
   22MOL0     C 2806   6.441   5.525   5.738  0.9428  0.5780  0.0738
   22MOL0     O 2807   6.418   5.659   5.772 -0.5019  0.7637  0.1142
   22MOL0     C 2808   6.477   5.700   5.898 -0.8207 -0.3794  0.0294
   22MOL0     C 2809   6.544   5.843   5.870  0.8001 -0.3502  0.1949
   22MOL0     C 2810   6.612   5.894   5.995 -0.1777 -0.2154  0.0583
   22MOL0     C 2811   6.610   6.047   5.991 -0.4204  1.0888 -0.1269
   22MOL0     C 2812   6.653   6.115   6.120 -1.0731 -0.2490 -1.2883
   22MOL0     C 2813   6.593   6.252   6.147  0.1689 -0.2523  0.2653
   22MOL0     C 2814   6.622   6.319   6.278  0.5004 -0.7764 -0.1903
   22MOL0     C 2815   6.741   6.416   6.272 -0.3228  0.1116 -0.0257
   22MOL0    Cl 2816   6.886   6.319   6.290  0.5579  0.1544 -0.5063
   22MOL0     C 2817   6.482   5.504   5.607 -0.9529  0.9996  0.2412
   22MOL0     C 2818   6.504   5.371   5.567 -0.9693  0.1297 -0.6778
   22MOL0     O 2819   6.697   5.165   5.534  0.1660 -0.3562  0.0556
   22MOL0     C 2820   6.720   4.882   5.508  0.1385  0.0198 -0.2145
   22MOL0     C 2821   6.742   4.746   5.519  0.0108 -0.6209  0.1336
   22MOL0     N 2822   7.017   4.749   6.034  0.0101 -0.0396  0.7302
   22MOL0     N 2823   7.108   4.721   6.117  0.3037 -0.6506  0.2510
   22MOL0     C 2824   8.099   4.801   5.515  0.2583 -0.2010  0.3843
   22MOL0     C 2825   8.108   4.783   5.373 -0.1454 -0.3861  0.0062
   22MOL0     C 2826   8.197   4.799   4.935  0.7323  0.6479  0.6867
   22MOL0     C 2827   8.176   4.926   4.869  0.7186  0.8139  0.0334
   22MOL0     C 2828   8.164   4.934   4.729 -0.6193  0.6247 -0.2172
   22MOL0     C 2829   8.177   4.824   4.646 -0.5936  0.4237 -0.0706
   22MOL0     O 2830   8.190   4.845   4.514 -0.4462 -0.6151  1.0139
   22MOL0     C 2831   8.133   4.746   4.433 -0.1568  0.3723  0.6006
   22MOL0     C 2832   8.050   4.814   4.320 -1.6984 -0.0062  0.2363
   22MOL0     C 2833   7.985   4.714   4.228 -0.3177 -0.1425 -0.1202
   22MOL0     C 2834   8.074   4.630   4.141 -0.6493 -0.2065 -0.4482
   22MOL0     C 2835   7.994   4.553   4.054 -0.2870 -0.5384  0.0696
   22MOL0     C 2836   7.927   4.493   3.977 -0.5790  0.1744  0.1376
   22MOL0     C 2837   8.194   4.695   4.715 -0.8071 -0.1693  0.4616
   22MOL0     C 2838   8.194   4.687   4.851 -0.3362  0.5743 -0.0314
   22MOL0     H 2839   8.227   5.089   5.301 -3.6111 -0.8551 -1.5385
   22MOL0     H 2840   8.168   5.128   5.555  0.8557 -0.2270  1.6180
   22MOL0     H 2841   8.124   4.859   5.916 -1.1542 -2.5683  0.5023
   22MOL0     H 2842   8.129   4.754   5.789  3.1938  1.5363  1.0829
   22MOL0     H 2843   7.901   4.803   5.707  4.4337 -2.2282 -1.4423
   22MOL0     H 2844   7.901   4.920   5.846  4.8205  0.8471  1.1430
   22MOL0     H 2845   7.914   4.730   6.010  1.7471 -3.6882 -0.5092
   22MOL0     H 2846   7.922   4.614   5.882  0.9053  0.9283 -2.2442
   22MOL0     H 2847   7.695   4.711   5.800 -0.8080 -0.3687  0.3418
   22MOL0     H 2848   7.700   4.632   5.959  1.8031 -1.2542 -0.9679
   22MOL0     H 2849   7.685   4.926   5.882  1.0204  0.8931  1.4059
   22MOL0     H 2850   7.698   4.889   6.053 -0.8613  2.2948 -0.4469
   22MOL0     H 2851   7.483   4.775   5.887 -1.4152  1.1735  0.5411
   22MOL0     H 2852   7.464   4.938   5.944 -2.4539 -1.2310 -1.3025
   22MOL0     H 2853   7.566   4.742   6.149 -0.7242 -0.1492  0.2825
   22MOL0     H 2854   7.444   4.871   6.171 -1.1631  0.6252 -0.5128
   22MOL0     H 2855   7.333   4.652   6.211 -0.9503  1.5626 -0.1610
   22MOL0     H 2856   7.393   4.589   6.058  0.7262 -0.4289  1.6204
   22MOL0     H 2857   7.275   4.701   5.836  0.6052 -3.6343  1.1179
   22MOL0     H 2858   7.020   4.843   5.717 -4.8500 -1.2823 -2.5671
   22MOL0     H 2859   6.894   4.775   5.800 -0.4324 -1.1090 -0.1416
   22MOL0     H 2860   7.132   4.604   5.688  0.3161  0.5559  4.6988
   22MOL0     H 2861   6.995   4.637   5.588  2.5599 -0.1514  0.2794
   22MOL0     H 2862   6.961   4.422   5.674  1.3026  0.2840 -0.7086
   22MOL0     H 2863   7.005   4.480   5.845  0.6548  0.8805 -0.2580
   22MOL0     H 2864   6.809   4.594   5.854  0.1906 -1.6884  2.6638
   22MOL0     H 2865   6.766   4.425   5.833 -0.5839 -0.7922 -0.0766
   22MOL0     H 2866   6.572   4.704   5.813 -2.5199 -1.7427 -2.5729
   22MOL0     H 2867   6.509   4.924   5.774  0.7712 -1.9735  1.1633
   22MOL0     H 2868   6.398   5.213   5.854 -1.2921  2.3573  1.1382
   22MOL0     H 2869   6.355   5.443   5.916 -0.5737  0.5045 -0.3752
   22MOL0     H 2870   6.565   5.641   5.927 -0.9603 -2.1937 -2.8404
   22MOL0     H 2871   6.401   5.704   5.976  0.4750 -1.3104  1.4033
   22MOL0     H 2872   6.467   5.911   5.835  0.4165 -0.9193 -0.0861
   22MOL0     H 2873   6.617   5.843   5.788 -0.5690  0.5878 -1.0732
   22MOL0     H 2874   6.709   5.844   5.999  2.0579  3.6695 -0.4847
   22MOL0     H 2875   6.555   5.871   6.085  1.2607 -2.0109  0.5720
   22MOL0     H 2876   6.672   6.080   5.907 -0.9989 -0.6071 -1.2777
   22MOL0     H 2877   6.510   6.089   5.976 -1.4297  0.0988  3.1386
   22MOL0     H 2878   6.762   6.124   6.130 -1.0692 -0.4927 -1.0981
   22MOL0     H 2879   6.634   6.049   6.206  3.8885 -3.1948 -2.0225
   22MOL0     H 2880   6.485   6.254   6.130 -0.3535  2.1863  3.0024
   22MOL0     H 2881   6.632   6.309   6.062 -2.5357 -0.5082 -1.2673
   22MOL0     H 2882   6.538   6.374   6.322  2.0870  0.4906  1.4118
   22MOL0     H 2883   6.626   6.244   6.356 -1.6448  0.5064  1.2647
   22MOL0     H 2884   6.727   6.484   6.357  1.8898  0.3102  0.2287
   22MOL0     H 2885   6.748   6.473   6.179 -1.1392  2.3106  1.1766
   22MOL0     H 2886   6.490   5.577   5.526 -3.2685 -0.9185 -1.8828
   22MOL0     H 2887   6.527   5.356   5.462 -0.6586 -1.6496 -0.3951
   22MOL0     H 2888   6.767   4.938   5.428  1.6346  2.7825  2.3757
   22MOL0     H 2889   6.803   4.677   5.461 -1.6848 -2.8569  0.8196
   22MOL0     H 2890   8.052   4.715   5.560  0.1525  0.1546  0.9641
   22MOL0     H 2891   8.074   4.688   5.333 -2.0136  0.8098 -1.4274
   22MOL0     H 2892   8.170   5.015   4.931  2.9230  1.9546 -1.2785
   22MOL0     H 2893   8.157   5.033   4.687 -5.0853  0.9237  0.7677
   22MOL0     H 2894   8.065   4.687   4.495  1.4347 -2.4696 -0.1886
   22MOL0     H 2895   8.205   4.686   4.377 -2.4957  0.7461 -3.2111
   22MOL0     H 2896   7.974   4.883   4.357 -1.6181  1.4208 -2.0215
   22MOL0     H 2897   8.120   4.881   4.267  1.6503 -3.1295  0.3173
   22MOL0     H 2898   7.924   4.772   4.158  0.8815 -0.9804 -1.9377
   22MOL0     H 2899   7.913   4.649   4.278 -0.2886 -0.9579 -1.0911
   22MOL0     H 2900   8.141   4.697   4.086  1.7901 -1.7748  0.4411
   22MOL0     H 2901   8.130   4.562   4.205 -2.1125  0.3452  1.5131
   22MOL0     H 2902   7.871   4.431   3.909 -0.0830 -0.7329  0.5413
   22MOL0     H 2903   8.210   4.601   4.664 -1.9899 -1.6110  2.5815
   22MOL0     H 2904   8.186   4.585   4.887 -1.2545  1.3262  2.0744
   23MOL0     O 2905   5.483   8.389   2.974 -0.9839  0.0799  0.3367
   23MOL0     C 2906   5.460   8.270   2.976 -0.3143 -1.0299 -0.5534
   23MOL0     O 2907   5.547   8.170   2.942 -0.4843 -0.1972 -0.2936
   23MOL0     C 2908   5.661   8.196   2.868  1.4157 -0.4397 -0.6512
   23MOL0     C 2909   5.669   8.294   2.769 -0.0531 -0.0466 -0.5896
   23MOL0     C 2910   5.791   8.320   2.702  0.1659 -1.1852  0.3742
   23MOL0     C 2911   5.903   8.251   2.731  0.4262 -0.4636 -0.5541
   23MOL0     O 2912   6.024   8.271   2.677 -0.8849  0.1199 -0.2387
   23MOL0     C 2913   6.068   8.410   2.660  0.6435  0.0209  0.0889
   23MOL0     C 2914   6.218   8.428   2.617  0.1999 -0.5395  0.8345
   23MOL0     C 2915   6.276   8.571   2.629  0.3886  0.5466 -0.6591
   23MOL0     C 2916   6.196   8.671   2.546  0.3615 -0.7858 -0.7018
   23MOL0     C 2917   6.292   8.791   2.521  0.4880 -0.0710 -0.7077
   23MOL0     C 2918   6.214   8.899   2.437  0.1711  0.2620  0.3716
   23MOL0     C 2919   6.307   9.022   2.425  1.3381 -0.0610 -0.8840
   23MOL0     C 2920   6.222   9.121   2.345  0.2985 -0.2793  0.3832
   23MOL0     N 2921   6.261   9.133   2.207 -0.9703  0.5695  0.4137
   23MOL0     C 2922   6.196   9.079   2.099  0.4465  0.1951 -1.3439
   23MOL0     C 2923   6.276   9.115   1.997 -0.2363  0.4693 -0.5460
   23MOL0     C 2924   6.250   9.086   1.854  0.8012 -0.7024 -0.4838
   23MOL0     C 2925   6.232   9.226   1.782  0.7660 -0.0968  0.8898
   23MOL0     C 2926   6.081   9.273   1.769  0.2053  0.0150 -0.2817
   23MOL0     C 2927   6.063   9.411   1.706 -1.2553  0.1624  0.1501
   23MOL0     O 2928   6.098   9.391   1.565  0.6140 -0.7386  0.0683
   23MOL0     C 2929   6.082   9.504   1.482  0.0459  0.1318 -0.9813
   23MOL0     C 2930   5.967   9.586   1.496  0.3242  0.2848  0.1668
   23MOL0     C 2931   5.938   9.672   1.388  0.4984 -0.0876 -0.2545
   23MOL0     C 2932   6.032   9.713   1.291  0.2435  0.1109  0.1149
   23MOL0     C 2933   5.992   9.818   1.193  1.0499 -0.5321 -0.2199
   23MOL0     O 2934   5.873   9.894   1.206  0.2539  0.3429 -0.5480
   23MOL0     C 2935   5.834   9.988   1.119  0.1634  0.2818  1.1247
   23MOL0     C 2936   5.910  10.043   1.015 -0.3942 -0.4120  0.7504
   23MOL0     C 2937   5.856  10.144   0.931 -0.1727  0.7269 -0.3510
   23MOL0     C 2938   5.716  10.170   0.934  0.9989 -0.5970 -0.3364
   23MOL0     O 2939   5.649  10.252   0.851 -0.6496  0.0316 -0.6993
   23MOL0     C 2940   5.694  10.311   0.733 -0.0767 -0.3032  0.4761
   23MOL0     C 2941   5.593  10.424   0.682 -0.4569  0.3844 -0.5150
   23MOL0     C 2942   5.597  10.539   0.780  0.6808  0.0685  0.6838
   23MOL0     C 2943   5.518  10.662   0.726  0.1788  0.8690 -0.1400
   23MOL0     C 2944   5.362  10.654   0.738 -0.1339 -1.1822 -0.0503
   23MOL0     C 2945   5.303  10.781   0.682 -0.6924 -0.1204 -0.0581
   23MOL0     C 2946   5.154  10.784   0.730 -1.3926  0.2130 -0.4670
   23MOL0     C 2947   5.072  10.885   0.653  1.0773 -0.1105 -0.0255
   23MOL0    Cl 2948   5.121  11.068   0.669  0.1516  0.0747  0.3315
   23MOL0     C 2949   5.641  10.096   1.027 -0.5197  0.2871  0.2860
   23MOL0     C 2950   5.697  10.017   1.125  0.6217 -0.4589  0.3160
   23MOL0     O 2951   6.082   9.840   1.126 -0.3186 -0.1359  0.4592
   23MOL0     C 2952   6.143   9.627   1.279  0.2873  0.2205  0.4449
   23MOL0     C 2953   6.167   9.525   1.378  0.1791  0.7005  1.2730
   23MOL0     N 2954   6.391   9.173   2.041 -0.7093 -0.0622 -0.1737
   23MOL0     N 2955   6.382   9.189   2.168  0.4087  0.2693 -0.8276
   23MOL0     C 2956   5.893   8.143   2.828  0.3989  0.5567 -0.7092
   23MOL0     C 2957   5.767   8.115   2.894 -0.2352  0.8934  0.7513
   23MOL0     C 2958   5.346   8.230   3.059  0.2824 -0.8531  0.3161
   23MOL0     C 2959   5.323   8.090   3.074 -0.0737 -0.0483  0.1248
   23MOL0     C 2960   5.209   8.049   3.139 -1.5235 -0.6414  1.2225
   23MOL0     C 2961   5.112   8.132   3.183  0.5342  0.2548  0.3414
   23MOL0     O 2962   4.990   8.077   3.229 -0.0719 -0.1734 -0.6467
   23MOL0     C 2963   4.992   8.022   3.359 -0.3904  1.1335 -0.8524
   23MOL0     C 2964   4.855   8.049   3.425 -0.1485  0.3689  0.5795
   23MOL0     C 2965   4.815   8.201   3.436 -1.0886  0.2093 -0.3256
   23MOL0     C 2966   4.670   8.220   3.484 -0.0440  0.4956 -0.4840
   23MOL0     C 2967   4.634   8.360   3.469 -1.4089 -1.3957  0.0435
   23MOL0     C 2968   4.599   8.473   3.458 -0.5238 -0.3572 -0.2207
   23MOL0     C 2969   5.123   8.267   3.159 -0.6511  0.2956  1.0185
   23MOL0     C 2970   5.244   8.320   3.092 -0.4850 -0.6045 -0.4356
   23MOL0     H 2971   5.592   8.365   2.742  0.1364 -0.4338 -2.2331
   23MOL0     H 2972   5.797   8.405   2.634 -1.9724 -0.4682  0.9860
   23MOL0     H 2973   6.048   8.442   2.763 -0.0108 -2.1786  0.7060
   23MOL0     H 2974   5.999   8.463   2.593  1.6080  0.0693 -0.8917
   23MOL0     H 2975   6.245   8.390   2.518  3.7024  1.6260  0.7892
   23MOL0     H 2976   6.277   8.374   2.692 -0.4624 -2.7954 -0.1745
   23MOL0     H 2977   6.385   8.577   2.620  0.4234 -0.1803 -0.7248
   23MOL0     H 2978   6.275   8.602   2.734  0.5506  0.3611 -0.6015
   23MOL0     H 2979   6.160   8.631   2.451 -0.9833 -0.3447 -0.4069
   23MOL0     H 2980   6.118   8.705   2.616  2.3851 -0.8722  1.7463
   23MOL0     H 2981   6.381   8.751   2.472  1.6749 -0.7897  1.8812
   23MOL0     H 2982   6.320   8.835   2.617 -4.1315 -0.1205  0.9239
   23MOL0     H 2983   6.124   8.920   2.496 -0.0894 -0.2115  0.1459
   23MOL0     H 2984   6.179   8.857   2.343 -1.5606 -2.5755  2.1331
   23MOL0     H 2985   6.325   9.068   2.523 -1.2614 -0.0882 -0.3358
   23MOL0     H 2986   6.406   9.008   2.379  1.6392 -0.1807 -0.2150
   23MOL0     H 2987   6.232   9.222   2.384  1.4071  0.4674 -1.6568
   23MOL0     H 2988   6.116   9.098   2.349  0.1925 -0.2725 -1.4360
   23MOL0     H 2989   6.112   9.011   2.108 -0.9334  2.0617  1.2289
   23MOL0     H 2990   6.154   9.035   1.862  0.8293 -0.9912 -1.8458
   23MOL0     H 2991   6.319   9.021   1.800 -0.9723 -1.9617 -1.3325
   23MOL0     H 2992   6.266   9.212   1.679 -2.1485 -2.3531  0.0870
   23MOL0     H 2993   6.295   9.307   1.818  2.3746  0.0805 -2.0350
   23MOL0     H 2994   6.017   9.194   1.729 -2.6440  2.8046 -1.6522
   23MOL0     H 2995   6.031   9.275   1.867 -0.4215  0.6128 -0.6040
   23MOL0     H 2996   6.132   9.491   1.737 -1.9219  0.1037  1.8740
   23MOL0     H 2997   5.961   9.443   1.726 -2.3180 -2.0452 -1.3688
   23MOL0     H 2998   5.895   9.573   1.576 -1.1404  1.3657 -0.9184
   23MOL0     H 2999   5.847   9.730   1.397  1.7832  2.3756 -1.9354
   23MOL0     H 3000   6.016  10.021   1.015 -0.2313  0.3291  0.8758
   23MOL0     H 3001   5.919  10.198   0.861  1.0573 -0.5191 -0.2684
   23MOL0     H 3002   5.698  10.231   0.658 -0.6974  0.3870 -0.3211
   23MOL0     H 3003   5.798  10.343   0.744 -0.4644  1.1032  0.1562
   23MOL0     H 3004   5.495  10.378   0.673 -1.4676  2.0236  1.2971
   23MOL0     H 3005   5.632  10.457   0.585 -0.8595 -1.9020 -1.4975
   23MOL0     H 3006   5.696  10.570   0.814  0.5181  1.6343 -0.1536
   23MOL0     H 3007   5.548  10.520   0.876 -0.0312  0.1708  0.3523
   23MOL0     H 3008   5.547  10.746   0.789  0.3462  2.2545 -1.9746
   23MOL0     H 3009   5.554  10.687   0.625 -0.2078  1.2802 -0.1785
   23MOL0     H 3010   5.335  10.653   0.844  5.4946 -0.4789  1.7485
   23MOL0     H 3011   5.319  10.573   0.679 -2.1274  0.0490 -0.3851
   23MOL0     H 3012   5.308  10.793   0.573  2.8393  1.2685  0.1187
   23MOL0     H 3013   5.350  10.871   0.722 -0.7009 -0.1171 -0.0556
   23MOL0     H 3014   5.112  10.683   0.724  1.2978 -0.9708 -0.9081
   23MOL0     H 3015   5.152  10.813   0.836  2.2957  0.6143 -0.3724
   23MOL0     H 3016   4.970  10.862   0.685  1.1299 -2.6402 -1.4192
   23MOL0     H 3017   5.075  10.864   0.545 -1.4337 -0.6061 -0.0658
   23MOL0     H 3018   5.533  10.090   1.032 -0.4068 -2.1759  1.2379
   23MOL0     H 3019   5.627   9.974   1.196  3.0589 -3.2798  1.2015
   23MOL0     H 3020   6.211   9.652   1.198 -2.0165 -0.7510 -1.9488
   23MOL0     H 3021   6.248   9.454   1.363 -2.0356 -1.5552 -0.9619
   23MOL0     H 3022   5.987   8.089   2.837  1.1210  1.5795 -1.7539
   23MOL0     H 3023   5.768   8.043   2.976  1.9055  1.4692  1.2932
   23MOL0     H 3024   5.395   8.013   3.051  0.5273  0.7362 -0.7117
   23MOL0     H 3025   5.204   7.941   3.154 -0.1376 -1.0091 -0.6844
   23MOL0     H 3026   5.067   8.078   3.415 -0.8068  0.2356  0.6416
   23MOL0     H 3027   5.014   7.915   3.358 -1.7546  0.8206 -1.6121
   23MOL0     H 3028   4.784   8.002   3.357  2.1573 -0.1316 -1.6053
   23MOL0     H 3029   4.851   7.996   3.521 -1.1266  1.7266  1.3263
   23MOL0     H 3030   4.831   8.245   3.337  0.0808 -1.5024 -0.9373
   23MOL0     H 3031   4.881   8.244   3.512 -2.3759  0.9009  0.4363
   23MOL0     H 3032   4.609   8.162   3.414  1.7587  0.8382 -2.4449
   23MOL0     H 3033   4.655   8.178   3.584 -1.5637  0.8091 -0.5535
   23MOL0     H 3034   4.561   8.573   3.443 -0.9431 -0.4730  0.0467
   23MOL0     H 3035   5.034   8.326   3.178 -0.9363  1.4737 -3.0882
   23MOL0     H 3036   5.253   8.421   3.055  4.0184  0.2254  2.1592
   24MOL0     O 3037   0.898   3.905   0.229 -0.5313  0.0286  1.2184
   24MOL0     C 3038   0.938   4.009   0.170 -0.1676 -0.1096 -0.8615
   24MOL0     O 3039   0.850   4.112   0.136 -1.0229  0.0870 -0.2509
   24MOL0     C 3040   0.715   4.112   0.169 -0.3344  0.5046  0.2302
   24MOL0     C 3041   0.661   4.171   0.283 -0.3002 -0.8173  1.4679
   24MOL0     C 3042   0.523   4.157   0.308 -0.3954 -0.5361 -0.8941
   24MOL0     C 3043   0.428   4.093   0.229 -0.2548 -0.5873 -0.3018
   24MOL0     O 3044   0.290   4.113   0.251  0.2142  0.5301 -1.0854
   24MOL0     C 3045   0.221   3.991   0.271 -0.1716  0.0994 -0.6786
   24MOL0     C 3046   0.097   3.977   0.183  0.1866 -0.2120  0.3984
   24MOL0     C 3047   0.132   3.940   0.040  0.0344  0.5938 -0.1038
   24MOL0     C 3048   0.013   3.896  -0.038  0.7485 -0.2207 -0.1688
   24MOL0     C 3049   0.044   3.888  -0.193 -0.5804 -0.5199  0.9047
   24MOL0     C 3050  -0.044   3.796  -0.280 -0.0493  0.7808 -0.0166
   24MOL0     C 3051  -0.183   3.854  -0.324  0.6553 -0.4840 -0.3224
   24MOL0     C 3052  -0.173   3.957  -0.439 -0.4707 -0.1405  0.3306
   24MOL0     N 3053  -0.305   3.972  -0.498  0.3524  0.3895  0.0617
   24MOL0     C 3054  -0.407   4.035  -0.424  0.5298  0.0444 -0.2385
   24MOL0     C 3055  -0.510   4.025  -0.509 -0.6188  0.0078 -0.8356
   24MOL0     C 3056  -0.642   4.081  -0.472  0.3561  0.3162  0.5619
   24MOL0     C 3057  -0.703   3.977  -0.369  0.3381 -1.0017 -0.8968
   24MOL0     C 3058  -0.862   3.988  -0.365  0.1401  0.7204  0.1379
   24MOL0     C 3059  -0.917   3.918  -0.251  0.2627  0.4329  0.3081
   24MOL0     O 3060  -0.898   3.778  -0.280  0.4947 -0.8817  0.1784
   24MOL0     C 3061  -0.920   3.690  -0.176  0.8182 -0.1124 -0.5581
   24MOL0     C 3062  -0.950   3.723  -0.045  0.3887 -0.0407  1.7899
   24MOL0     C 3063  -0.973   3.632   0.054  0.5858 -0.2042 -0.5383
   24MOL0     C 3064  -0.965   3.498   0.019  0.0510 -0.1061 -0.6586
   24MOL0     C 3065  -0.982   3.410   0.126  0.0503  0.1098 -0.4624
   24MOL0     O 3066  -0.962   3.466   0.250  0.2512 -0.0769 -0.9433
   24MOL0     C 3067  -0.961   3.389   0.363 -0.5756 -0.1449  0.9358
   24MOL0     C 3068  -0.968   3.457   0.480 -0.3246  0.5034  0.2302
   24MOL0     C 3069  -0.941   3.384   0.606 -0.1145  0.5333  0.1321
   24MOL0     C 3070  -0.909   3.250   0.613  0.1948 -0.1324 -0.2978
   24MOL0     O 3071  -0.893   3.201   0.739 -0.3344  0.1870 -0.3427
   24MOL0     C 3072  -0.933   3.062   0.759 -0.6379  0.0163 -0.2113
   24MOL0     C 3073  -0.947   3.038   0.909 -0.1362 -0.3797  0.7272
   24MOL0     C 3074  -0.965   2.890   0.930 -0.3109 -0.0389  0.3732
   24MOL0     C 3075  -0.976   2.836   1.073 -1.2209 -0.6735  0.4020
   24MOL0     C 3076  -0.963   2.689   1.078 -0.8696 -0.3958  1.9145
   24MOL0     C 3077  -0.997   2.625   1.214 -0.2757  0.5272  0.1232
   24MOL0     C 3078  -0.976   2.472   1.223  0.1736 -1.3986  0.3222
   24MOL0     C 3079  -1.091   2.376   1.179 -0.6022 -0.3935 -0.0475
   24MOL0    Cl 3080  -1.130   2.379   1.010  0.0583  0.0508  0.4961
   24MOL0     C 3081  -0.895   3.180   0.493 -0.5953 -0.3721  0.4344
   24MOL0     C 3082  -0.928   3.252   0.376 -0.1658  0.2963 -0.5363
   24MOL0     O 3083  -1.029   3.302   0.101  0.7059  0.2458 -0.8332
   24MOL0     C 3084  -0.948   3.465  -0.117 -0.6649  0.1519 -0.2137
   24MOL0     C 3085  -0.910   3.557  -0.209  0.2694 -0.7491 -0.0624
   24MOL0     N 3086  -0.477   3.960  -0.624 -0.2064 -0.5548  0.3388
   24MOL0     N 3087  -0.353   3.921  -0.613 -0.1565  0.3715 -0.2544
   24MOL0     C 3088   0.477   4.048   0.111 -0.9077 -0.2639  0.6858
   24MOL0     C 3089   0.618   4.053   0.080 -0.0611  0.0968  0.3881
   24MOL0     C 3090   1.078   4.009   0.116 -0.4542  0.1362 -0.4878
   24MOL0     C 3091   1.163   3.902   0.132  0.1828  0.1693 -0.3336
   24MOL0     C 3092   1.287   3.904   0.076 -0.6612  0.0622 -0.1331
   24MOL0     C 3093   1.329   4.012  -0.006  0.1282 -0.1902 -0.1057
   24MOL0     O 3094   1.455   4.013  -0.059 -0.3478 -0.1635 -0.0169
   24MOL0     C 3095   1.517   4.142  -0.096  0.1076  0.2043 -0.3564
   24MOL0     C 3096   1.536   4.244   0.010 -0.5691  0.1188 -0.7879
   24MOL0     C 3097   1.543   4.384  -0.052  0.2985 -0.6388  0.1059
   24MOL0     C 3098   1.679   4.426  -0.114 -1.0434 -0.3881 -0.8448
   24MOL0     C 3099   1.720   4.370  -0.244  0.1560  0.3878 -0.3169
   24MOL0     C 3100   1.758   4.334  -0.359 -0.8347  1.0312 -0.4970
   24MOL0     C 3101   1.234   4.112  -0.033 -1.9538  0.0696  0.4944
   24MOL0     C 3102   1.117   4.113   0.034 -0.1440 -0.6671  0.1866
   24MOL0     H 3103   0.725   4.234   0.344 -0.3774  0.4226  0.3063
   24MOL0     H 3104   0.485   4.202   0.399 -0.5607 -1.4568 -0.4948
   24MOL0     H 3105   0.200   3.989   0.379 -0.6325  1.8832 -0.7025
   24MOL0     H 3106   0.292   3.911   0.251 -1.3900 -0.6820 -2.0521
   24MOL0     H 3107   0.038   4.070   0.181  0.9010  0.2395 -0.0161
   24MOL0     H 3108   0.032   3.902   0.230 -1.9453  0.5987 -1.0748
   24MOL0     H 3109   0.206   3.860   0.051 -0.3251  0.5436  2.8516
   24MOL0     H 3110   0.188   4.021  -0.007 -1.6998  2.6802  1.2042
   24MOL0     H 3111  -0.029   3.800  -0.005 -0.8455  0.3405 -0.4792
   24MOL0     H 3112  -0.073   3.962  -0.025  0.6511 -0.4015  0.1228
   24MOL0     H 3113   0.150   3.860  -0.201 -0.3137  0.8360 -0.8424
   24MOL0     H 3114   0.043   3.990  -0.231  0.3394 -0.5308  0.8237
   24MOL0     H 3115  -0.062   3.708  -0.218 -1.7473  0.9188 -0.2758
   24MOL0     H 3116   0.010   3.771  -0.371 -1.8949  0.2031 -0.9952
   24MOL0     H 3117  -0.247   3.776  -0.366  0.5251 -0.8390  0.5120
   24MOL0     H 3118  -0.235   3.907  -0.244  0.9812  0.7413 -0.9019
   24MOL0     H 3119  -0.120   3.902  -0.517  2.7524  2.3802  0.5553
   24MOL0     H 3120  -0.116   4.045  -0.409  3.7720 -1.9206 -1.7174
   24MOL0     H 3121  -0.400   4.095  -0.334 -0.1586 -1.1843  0.6632
   24MOL0     H 3122  -0.697   4.086  -0.566 -0.7250  1.8493  1.2283
   24MOL0     H 3123  -0.633   4.182  -0.429 -1.9939  1.4788 -1.4270
   24MOL0     H 3124  -0.664   4.011  -0.273  0.6999  3.1573 -2.3498
   24MOL0     H 3125  -0.672   3.876  -0.398  0.7881 -0.6162 -1.7837
   24MOL0     H 3126  -0.885   4.092  -0.341  1.4041  0.7722  1.2673
   24MOL0     H 3127  -0.916   3.959  -0.456  1.7350  1.8284 -1.2416
   24MOL0     H 3128  -1.024   3.942  -0.250  0.0279 -0.2437 -1.8619
   24MOL0     H 3129  -0.863   3.946  -0.160 -1.5664  1.3960  1.1402
   24MOL0     H 3130  -0.962   3.824  -0.008 -1.6243 -0.2914  1.9091
   24MOL0     H 3131  -0.991   3.669   0.154 -3.7085  1.5487 -1.7729
   24MOL0     H 3132  -0.994   3.562   0.477 -0.4183  0.6609  3.4803
   24MOL0     H 3133  -0.941   3.439   0.700 -2.5175 -1.4152  1.3897
   24MOL0     H 3134  -0.860   2.991   0.719  0.6318  0.9404  0.3814
   24MOL0     H 3135  -1.026   3.041   0.706  0.3526  0.6124 -2.3137
   24MOL0     H 3136  -1.040   3.087   0.941 -0.1232 -0.4046  0.8033
   24MOL0     H 3137  -0.851   3.065   0.954 -0.0090 -0.6937  0.6430
   24MOL0     H 3138  -0.875   2.843   0.890 -1.2090  1.1586 -3.3869
   24MOL0     H 3139  -1.053   2.851   0.877  0.9581 -5.8355  1.7945
   24MOL0     H 3140  -0.899   2.891   1.130 -1.8830  3.9627 -2.5898
   24MOL0     H 3141  -1.078   2.863   1.102 -0.1865  0.8902  2.9385
   24MOL0     H 3142  -0.865   2.652   1.046 -1.8365 -0.7965 -0.9211
   24MOL0     H 3143  -1.020   2.636   1.001  0.3292 -0.0460  0.7374
   24MOL0     H 3144  -1.104   2.644   1.221 -0.4614  1.2503 -3.0797
   24MOL0     H 3145  -0.941   2.672   1.295  2.7407 -0.7860 -1.0285
   24MOL0     H 3146  -0.885   2.443   1.169  0.1513 -2.6182  0.9293
   24MOL0     H 3147  -0.962   2.440   1.326 -2.6039 -1.2090  0.8340
   24MOL0     H 3148  -1.182   2.374   1.239 -0.6202 -1.2655 -0.0906
   24MOL0     H 3149  -1.041   2.281   1.197  0.7173 -0.5503 -3.6573
   24MOL0     H 3150  -0.867   3.076   0.479  0.1477 -0.3465  1.5940
   24MOL0     H 3151  -0.923   3.190   0.287 -1.8592 -0.4478 -0.1617
   24MOL0     H 3152  -0.931   3.359  -0.137 -0.2767  0.3015 -0.7248
   24MOL0     H 3153  -0.899   3.530  -0.314 -1.4826 -1.3874 -0.1258
   24MOL0     H 3154   0.407   4.006   0.040 -3.3911  0.9408  2.2473
   24MOL0     H 3155   0.647   4.007  -0.014 -0.8165 -1.6569  0.9873
   24MOL0     H 3156   1.125   3.811   0.175 -1.5093  1.5122  1.1543
   24MOL0     H 3157   1.355   3.824   0.103  0.4586  1.0357  0.0633
   24MOL0     H 3158   1.453   4.192  -0.169 -0.0370  1.7655  0.7998
   24MOL0     H 3159   1.614   4.110  -0.136  1.6554 -1.0684  3.8898
   24MOL0     H 3160   1.453   4.233   0.081 -0.0760 -2.8311 -0.5478
   24MOL0     H 3161   1.628   4.221   0.064  0.6473  1.4125 -2.2314
   24MOL0     H 3162   1.541   4.447   0.038  1.5969 -0.4659  0.0300
   24MOL0     H 3163   1.452   4.406  -0.108  0.6333 -0.3718 -0.3402
   24MOL0     H 3164   1.680   4.535  -0.120  1.0831 -0.2677  0.5359
   24MOL0     H 3165   1.755   4.408  -0.037 -2.5189  0.7925  0.9776
   24MOL0     H 3166   1.788   4.300  -0.456  0.3175  1.4014 -0.2799
   24MOL0     H 3167   1.262   4.201  -0.088  2.2622 -1.2147  0.1856
   24MOL0     H 3168   1.057   4.204   0.026  2.8801  1.3176 -2.6076
   25MOL0     O 3169   0.422   7.784   2.767 -0.0482 -0.0982  0.1194
   25MOL0     C 3170   0.459   7.854   2.677  0.3270 -0.1212  0.3917
   25MOL0     O 3171   0.384   7.894   2.576  0.5505 -0.1014  0.1688
   25MOL0     C 3172   0.257   7.842   2.536  0.0921  0.0848 -0.1655
   25MOL0     C 3173   0.183   7.893   2.424 -0.2723 -0.3044  0.3123
   25MOL0     C 3174   0.072   7.824   2.370 -0.2196 -0.0677  1.0477
   25MOL0     C 3175   0.020   7.711   2.434 -0.8863  1.1306 -1.0365
   25MOL0     O 3176  -0.097   7.671   2.396  0.6280  0.3083  0.3933
   25MOL0     C 3177  -0.190   7.646   2.502 -0.0839  0.0053  0.2052
   25MOL0     C 3178  -0.335   7.679   2.459 -0.8581  0.6381  0.0896
   25MOL0     C 3179  -0.366   7.829   2.471 -0.0913  0.2410  1.5357
   25MOL0     C 3180  -0.503   7.862   2.420  0.2993 -0.4836  0.5501
   25MOL0     C 3181  -0.561   7.991   2.492 -0.5934 -0.2199 -0.0023
   25MOL0     C 3182  -0.480   8.125   2.461  0.1579 -0.0456 -0.2142
   25MOL0     C 3183  -0.478   8.239   2.573  0.1019  0.1018 -0.4575
   25MOL0     C 3184  -0.393   8.356   2.527 -0.0400  0.4931 -0.7497
   25MOL0     N 3185  -0.373   8.463   2.624  0.9570  0.0042  0.4095
   25MOL0     C 3186  -0.305   8.449   2.734 -0.6814 -0.2036  0.0892
   25MOL0     C 3187  -0.321   8.559   2.805  0.1736  0.3992 -0.3654
   25MOL0     C 3188  -0.275   8.593   2.941  0.2518  0.1828  0.5874
   25MOL0     C 3189  -0.124   8.577   2.972  0.9290  0.1516 -0.7532
   25MOL0     C 3190  -0.094   8.438   3.010  0.1397  0.6341 -0.0192
   25MOL0     C 3191  -0.149   8.407   3.150  0.0590  0.8177  0.0213
   25MOL0     O 3192  -0.115   8.268   3.184  0.4124 -0.3228 -0.6820
   25MOL0     C 3193  -0.193   8.155   3.143  1.0685 -0.3065  0.5014
   25MOL0     C 3194  -0.296   8.153   3.053  0.5508  0.2138 -0.1951
   25MOL0     C 3195  -0.364   8.029   3.021 -0.4569 -0.8083 -0.8820
   25MOL0     C 3196  -0.335   7.920   3.095 -1.0796  0.0367  0.6530
   25MOL0     C 3197  -0.403   7.794   3.051 -0.3010 -0.2271  0.3212
   25MOL0     O 3198  -0.501   7.791   2.961 -0.4860 -0.8051 -0.2096
   25MOL0     C 3199  -0.540   7.665   2.928  0.3333 -0.1449  0.4321
   25MOL0     C 3200  -0.474   7.611   2.815 -0.1249  1.4325  0.0250
   25MOL0     C 3201  -0.526   7.488   2.758 -0.9551 -0.1712  0.3647
   25MOL0     C 3202  -0.658   7.439   2.798 -0.3620 -0.3107  0.1672
   25MOL0     O 3203  -0.719   7.347   2.714 -0.4730 -0.6814  1.0059
   25MOL0     C 3204  -0.852   7.373   2.677 -0.2770  0.4545 -0.1059
   25MOL0     C 3205  -0.883   7.362   2.532 -0.3691  0.2523 -0.1122
   25MOL0     C 3206  -0.777   7.422   2.440 -0.8513  0.4582  0.2616
   25MOL0     C 3207  -0.821   7.427   2.292  1.0451 -0.3258 -0.4300
   25MOL0     C 3208  -0.703   7.454   2.193 -0.0896 -0.2284 -0.2827
   25MOL0     C 3209  -0.727   7.556   2.083  0.3270  0.2700  0.3224
   25MOL0     C 3210  -0.836   7.503   1.988 -0.6223  0.4320  0.4693
   25MOL0     C 3211  -0.844   7.596   1.861  0.2175  0.3263 -0.4794
   25MOL0    Cl 3212  -0.972   7.540   1.750 -0.0133  0.2987  0.2795
   25MOL0     C 3213  -0.728   7.498   2.908  0.3680  0.4211  0.5200
   25MOL0     C 3214  -0.660   7.604   2.968 -0.5580 -0.0611 -0.7495
   25MOL0     O 3215  -0.355   7.695   3.107 -0.3476  0.2751 -0.0902
   25MOL0     C 3216  -0.235   7.919   3.189 -0.1265  0.0754  0.0724
   25MOL0     C 3217  -0.162   8.037   3.205  0.6091  0.1529 -0.0943
   25MOL0     N 3218  -0.411   8.644   2.736 -0.1355 -0.1840 -0.0082
   25MOL0     N 3219  -0.434   8.585   2.621  0.6850  0.0289  0.5763
   25MOL0     C 3220   0.091   7.666   2.548  1.0306  0.6094 -0.5750
   25MOL0     C 3221   0.203   7.723   2.588  0.3239 -0.1290 -0.1817
   25MOL0     C 3222   0.589   7.917   2.694  0.1773 -0.0864  0.1419
   25MOL0     C 3223   0.687   7.866   2.780  0.2344 -0.5402 -0.0876
   25MOL0     C 3224   0.807   7.928   2.807  0.7504 -0.1539  0.9820
   25MOL0     C 3225   0.859   8.019   2.701  0.1728 -0.8843 -0.4568
   25MOL0     O 3226   0.984   8.065   2.723  0.3357 -0.6328  0.1372
   25MOL0     C 3227   1.048   8.121   2.606 -0.5252  0.0067 -0.0594
   25MOL0     C 3228   1.202   8.125   2.620  0.5549  1.5729  0.2628
   25MOL0     C 3229   1.249   8.236   2.711  0.3960  0.2061 -0.3121
   25MOL0     C 3230   1.400   8.236   2.736 -0.2007  0.0048 -0.4556
   25MOL0     C 3231   1.503   8.268   2.631  0.3887  0.7198  0.2905
   25MOL0     C 3232   1.568   8.306   2.535  0.7018  0.1362 -0.4176
   25MOL0     C 3233   0.768   8.066   2.609  0.0198 -0.9342 -0.4343
   25MOL0     C 3234   0.632   8.017   2.606 -0.9099  0.2853  0.1268
   25MOL0     H 3235   0.226   7.977   2.369 -1.2597  0.2724  0.4092
   25MOL0     H 3236   0.032   7.868   2.280  0.6324 -1.6671 -0.1777
   25MOL0     H 3237  -0.169   7.692   2.599  0.6353 -1.5493  0.8348
   25MOL0     H 3238  -0.190   7.541   2.535 -1.1334  0.4328  1.6425
   25MOL0     H 3239  -0.403   7.608   2.507 -0.6466 -1.8317 -2.9126
   25MOL0     H 3240  -0.344   7.667   2.351  1.3228  1.1517 -0.2066
   25MOL0     H 3241  -0.288   7.875   2.409  2.0161 -3.4368  1.1996
   25MOL0     H 3242  -0.350   7.856   2.576 -1.1765 -2.1434  2.3734
   25MOL0     H 3243  -0.485   7.888   2.315  1.4070  1.3479  1.1398
   25MOL0     H 3244  -0.578   7.784   2.433  1.5689 -2.0303 -0.9576
   25MOL0     H 3245  -0.559   7.975   2.601 -0.4196  4.7243  0.9335
   25MOL0     H 3246  -0.664   8.010   2.463  0.4645  4.4198 -1.4886
   25MOL0     H 3247  -0.526   8.180   2.379 -0.1338 -1.2524 -0.8849
   25MOL0     H 3248  -0.376   8.095   2.446  1.0853 -0.2697  4.9033
   25MOL0     H 3249  -0.582   8.263   2.595  0.3464  1.0801 -0.3566
   25MOL0     H 3250  -0.427   8.197   2.661 -0.5152  1.4655  0.5851
   25MOL0     H 3251  -0.437   8.388   2.432 -3.6098 -2.4395 -0.2940
   25MOL0     H 3252  -0.300   8.303   2.506  0.6281  1.5592 -0.5510
   25MOL0     H 3253  -0.243   8.361   2.751  1.3678  0.4951 -3.0031
   25MOL0     H 3254  -0.339   8.542   3.013  0.2578  0.0387  0.4920
   25MOL0     H 3255  -0.288   8.701   2.954  0.8413  0.6567 -2.0455
   25MOL0     H 3256  -0.092   8.656   3.041  3.3623  0.0268 -1.6321
   25MOL0     H 3257  -0.047   8.600   2.897  2.5838 -0.3928  0.6963
   25MOL0     H 3258  -0.118   8.372   2.926 -0.2531  2.9511 -1.8262
   25MOL0     H 3259   0.013   8.432   3.028  0.0871  1.4201  0.6174
   25MOL0     H 3260  -0.254   8.428   3.167 -0.3757  1.7769 -3.1560
   25MOL0     H 3261  -0.090   8.470   3.217  2.9410  1.1138 -2.5356
   25MOL0     H 3262  -0.325   8.243   3.000  1.6156  0.4305 -0.4243
   25MOL0     H 3263  -0.439   8.011   2.945 -2.3432 -1.4080  1.0086
   25MOL0     H 3264  -0.386   7.658   2.774  0.2678  1.5235  0.9394
   25MOL0     H 3265  -0.471   7.463   2.668  1.1028  0.7663  1.2999
   25MOL0     H 3266  -0.878   7.478   2.694 -1.2079  0.1321  0.5848
   25MOL0     H 3267  -0.911   7.319   2.751  0.1594 -0.1380 -0.1800
   25MOL0     H 3268  -0.980   7.408   2.510 -0.6358  1.4650  3.1085
   25MOL0     H 3269  -0.899   7.254   2.520 -0.3092 -0.2405  3.3230
   25MOL0     H 3270  -0.688   7.358   2.444 -1.9002 -0.9867  1.1923
   25MOL0     H 3271  -0.748   7.519   2.481  1.6123  0.0821 -0.4458
   25MOL0     H 3272  -0.871   7.338   2.252 -1.4745  1.0544 -0.6169
   25MOL0     H 3273  -0.899   7.503   2.288  1.1811 -0.2376 -2.3951
   25MOL0     H 3274  -0.675   7.356   2.153 -0.6988 -1.1203  1.3855
   25MOL0     H 3275  -0.623   7.503   2.251  0.1251 -2.3601  1.3300
   25MOL0     H 3276  -0.633   7.551   2.028  0.4481 -1.1498  0.6448
   25MOL0     H 3277  -0.741   7.661   2.113 -0.3098  0.3949 -0.4056
   25MOL0     H 3278  -0.811   7.402   1.954  3.0140  1.2628  0.2817
   25MOL0     H 3279  -0.926   7.507   2.050  0.7315  2.1296  2.4520
   25MOL0     H 3280  -0.756   7.610   1.798 -0.8017 -0.1868 -2.0683
   25MOL0     H 3281  -0.883   7.692   1.895 -0.0014  0.0814 -0.0283
   25MOL0     H 3282  -0.827   7.463   2.935  1.1442 -2.8235 -0.4333
   25MOL0     H 3283  -0.732   7.648   3.037 -1.8300 -2.9790 -0.0681
   25MOL0     H 3284  -0.213   7.831   3.250 -2.8406 -0.0252  1.0530
   25MOL0     H 3285  -0.096   8.061   3.288  3.1931 -0.0812 -1.9657
   25MOL0     H 3286   0.053   7.580   2.603  0.1549  0.6834 -1.0535
   25MOL0     H 3287   0.243   7.663   2.669  2.3832 -2.7993 -2.9578
   25MOL0     H 3288   0.670   7.781   2.844 -3.2290 -0.1405 -0.3170
   25MOL0     H 3289   0.866   7.906   2.895 -1.0661 -1.0853  2.0231
   25MOL0     H 3290   1.025   8.225   2.580 -0.4236 -0.6579 -3.3232
   25MOL0     H 3291   1.028   8.055   2.521 -0.0849 -2.5483  1.7124
   25MOL0     H 3292   1.227   8.023   2.653 -1.8390  0.7095 -0.3953
   25MOL0     H 3293   1.238   8.140   2.518 -2.4545  0.9032 -0.9986
   25MOL0     H 3294   1.199   8.229   2.808  1.4447  1.6097  0.3722
   25MOL0     H 3295   1.219   8.334   2.671  0.3874 -0.6852 -2.6209
   25MOL0     H 3296   1.428   8.285   2.829  2.8515 -0.2473 -1.1295
   25MOL0     H 3297   1.409   8.132   2.770 -3.7610 -0.4115 -0.3591
   25MOL0     H 3298   1.623   8.324   2.445  0.2726 -2.9017 -1.4174
   25MOL0     H 3299   0.801   8.140   2.537  2.0099 -2.1644 -0.8558
   25MOL0     H 3300   0.562   8.047   2.530 -0.4453 -1.0644 -0.8774
   26MOL0     O 3301   5.829   6.727  10.644 -0.5671  0.0991 -0.5388
   26MOL0     C 3302   5.850   6.850  10.651 -0.3031 -0.1763 -0.0854
   26MOL0     O 3303   5.887   6.922  10.544  0.5220  0.1874  0.3675
   26MOL0     C 3304   5.895   6.864  10.418  0.4092 -0.3890  0.3253
   26MOL0     C 3305   5.828   6.749  10.366  0.4104 -0.1521 -0.0229
   26MOL0     C 3306   5.846   6.716  10.234 -0.7089 -0.6651  0.1208
   26MOL0     C 3307   5.928   6.784  10.152  1.1902 -0.4854  0.5664
   26MOL0     O 3308   5.947   6.753  10.024  0.1690 -0.0096  0.2383
   26MOL0     C 3309   5.869   6.648   9.951  0.0209 -0.5237  0.3564
   26MOL0     C 3310   5.720   6.692   9.912 -0.4418  1.0454  0.5221
   26MOL0     C 3311   5.718   6.806   9.810 -0.0551  0.3711  0.1276
   26MOL0     C 3312   5.567   6.857   9.812 -0.8201  0.6323  0.1000
   26MOL0     C 3313   5.552   6.974   9.720 -0.2285 -0.0556  0.1797
   26MOL0     C 3314   5.421   6.957   9.643  0.0583  0.4453 -0.6151
   26MOL0     C 3315   5.407   7.080   9.547  0.9019  1.5546 -0.6797
   26MOL0     C 3316   5.342   7.033   9.408  0.0885  0.4704 -0.2843
   26MOL0     N 3317   5.429   7.067   9.298  0.3775 -0.4028 -0.5783
   26MOL0     C 3318   5.378   7.116   9.174  0.5546  0.0133 -0.7536
   26MOL0     C 3319   5.484   7.142   9.104  0.4732  0.2094 -0.0594
   26MOL0     C 3320   5.479   7.195   8.963  0.7844  0.6875 -0.0915
   26MOL0     C 3321   5.454   7.342   8.974  0.9001 -0.8395  1.0974
   26MOL0     C 3322   5.385   7.398   8.837  0.0155  0.3052 -0.5946
   26MOL0     C 3323   5.240   7.414   8.844  0.1638 -0.0075 -0.4894
   26MOL0     O 3324   5.181   7.506   8.746 -0.4520  0.2402 -0.6421
   26MOL0     C 3325   5.149   7.467   8.619 -0.2659  0.1473 -0.5472
   26MOL0     C 3326   5.105   7.566   8.532  0.0223 -0.0257  0.3226
   26MOL0     C 3327   5.057   7.532   8.407 -0.3376  0.0178  0.1076
   26MOL0     C 3328   5.051   7.395   8.364  0.3897 -0.1024 -0.0153
   26MOL0     C 3329   4.999   7.362   8.221  0.3248 -0.2250  0.1927
   26MOL0     O 3330   4.977   7.468   8.138  0.7387  1.0576 -0.4825
   26MOL0     C 3331   4.938   7.454   8.006  0.0583 -0.0400 -1.2119
   26MOL0     C 3332   5.006   7.525   7.907 -0.5293  0.3665 -0.4067
   26MOL0     C 3333   4.982   7.503   7.765 -0.2535 -0.5977  0.2561
   26MOL0     C 3334   4.883   7.415   7.723  0.3787  0.0596  0.0498
   26MOL0     O 3335   4.876   7.394   7.592 -0.1917 -0.1992  0.6959
   26MOL0     C 3336   4.757   7.348   7.517  0.0411 -0.6223  0.3235
   26MOL0     C 3337   4.706   7.474   7.435 -0.6454  0.0351 -0.5180
   26MOL0     C 3338   4.788   7.506   7.308 -1.3675 -0.3006 -0.5937
   26MOL0     C 3339   4.935   7.548   7.333 -0.3617 -0.0636  0.2763
   26MOL0     C 3340   5.007   7.567   7.194  0.1066  0.0309 -0.2997
   26MOL0     C 3341   5.155   7.616   7.204 -1.1531 -0.7101  0.1579
   26MOL0     C 3342   5.171   7.759   7.277  0.2342 -1.1377 -0.0549
   26MOL0     C 3343   5.061   7.857   7.231  0.0904 -0.1777  0.3659
   26MOL0    Cl 3344   5.115   8.022   7.274 -0.3636 -0.1334 -0.8317
   26MOL0     C 3345   4.812   7.347   7.820 -0.8379  0.4319  0.3569
   26MOL0     C 3346   4.830   7.369   7.959  0.4956 -0.1316  0.2842
   26MOL0     O 3347   4.981   7.245   8.190  0.4064 -0.3094  0.2767
   26MOL0     C 3348   5.099   7.305   8.452  0.1792  0.0356 -0.2474
   26MOL0     C 3349   5.154   7.332   8.576  0.2828 -0.4204 -0.1078
   26MOL0     N 3350   5.594   7.133   9.187  0.0121  0.6330 -0.1545
   26MOL0     N 3351   5.568   7.074   9.299  0.0716  0.1081  0.0645
   26MOL0     C 3352   6.000   6.890  10.205 -0.0693 -0.2574 -0.8283
   26MOL0     C 3353   5.979   6.933  10.336 -0.2911  0.2234  0.0593
   26MOL0     C 3354   5.818   6.916  10.768 -0.0284 -0.5583 -0.0830
   26MOL0     C 3355   5.820   7.055  10.768  0.4402 -0.7700 -1.3297
   26MOL0     C 3356   5.790   7.130  10.876  0.6259 -0.8499  0.4903
   26MOL0     C 3357   5.738   7.061  10.989  0.1279 -0.2468  0.4797
   26MOL0     O 3358   5.680   7.121  11.103 -0.6341  0.1647 -0.3228
   26MOL0     C 3359   5.712   7.259  11.133 -0.3746 -0.4769  0.2176
   26MOL0     C 3360   5.853   7.265  11.205 -0.1029 -0.1945  0.0822
   26MOL0     C 3361   5.883   7.399  11.268  0.5302 -0.1115  0.1608
   26MOL0     C 3362   5.923   7.516  11.179  0.6749 -0.0097  0.5403
   26MOL0     C 3363   5.808   7.574  11.108  0.1453  1.9167  0.1154
   26MOL0     C 3364   5.701   7.605  11.069 -0.3854  0.3768 -0.4061
   26MOL0     C 3365   5.715   6.923  10.985  0.5779  0.7631  0.0166
   26MOL0     C 3366   5.752   6.853  10.870 -0.5157 -0.4711 -0.2787
   26MOL0     H 3367   5.774   6.686  10.436  2.7099 -0.0556  1.9740
   26MOL0     H 3368   5.782   6.632  10.209  1.9052 -1.9510 -2.9346
   26MOL0     H 3369   5.873   6.555  10.007 -2.0759  0.0939  1.6531
   26MOL0     H 3370   5.928   6.618   9.864  0.7400 -0.3338  0.7687
   26MOL0     H 3371   5.684   6.725  10.010  0.5711  0.4525  1.1168
   26MOL0     H 3372   5.660   6.617   9.860 -1.6806  1.7505  0.8902
   26MOL0     H 3373   5.753   6.777   9.710  0.6952  0.2273  0.4232
   26MOL0     H 3374   5.770   6.894   9.849 -2.0455  1.6163  0.1323
   26MOL0     H 3375   5.492   6.780   9.792  0.3319 -0.8536  1.2467
   26MOL0     H 3376   5.562   6.894   9.915  0.6552  1.7186 -0.1881
   26MOL0     H 3377   5.640   6.977   9.655  1.5533 -2.8467  2.2112
   26MOL0     H 3378   5.534   7.063   9.779  2.8166  0.6085  0.2867
   26MOL0     H 3379   5.345   6.967   9.721  1.2204  3.9737  0.2409
   26MOL0     H 3380   5.432   6.860   9.595  3.0753 -0.7844  2.1417
   26MOL0     H 3381   5.338   7.147   9.600  0.7995 -0.1184  1.4132
   26MOL0     H 3382   5.503   7.132   9.543  3.3901 -2.0859  3.5450
   26MOL0     H 3383   5.261   7.100   9.379  1.0072  0.4839 -3.2094
   26MOL0     H 3384   5.314   6.927   9.404 -2.2118  1.0572 -1.4606
   26MOL0     H 3385   5.274   7.128   9.147  0.3634  0.5860  0.2013
   26MOL0     H 3386   5.401   7.144   8.906 -0.1232  3.0179 -1.0425
   26MOL0     H 3387   5.572   7.169   8.910 -0.1823 -0.9707 -1.0521
   26MOL0     H 3388   5.549   7.396   8.981 -0.2812  1.8663 -1.3515
   26MOL0     H 3389   5.388   7.375   9.055  0.5665  0.9005  0.1742
   26MOL0     H 3390   5.429   7.497   8.823 -1.2210  1.0573  0.5638
   26MOL0     H 3391   5.414   7.333   8.754  0.8894  0.5671 -0.5042
   26MOL0     H 3392   5.220   7.453   8.944 -2.4457  1.4537 -1.4815
   26MOL0     H 3393   5.181   7.323   8.829  0.4462  0.1393 -2.9009
   26MOL0     H 3394   5.119   7.671   8.557 -0.1477  0.5711 -1.9111
   26MOL0     H 3395   5.016   7.607   8.341  1.5880 -0.8610 -2.2404
   26MOL0     H 3396   5.079   7.602   7.929 -1.2323  0.7939  0.5357
   26MOL0     H 3397   5.034   7.544   7.679 -0.7251 -0.7007 -0.0832
   26MOL0     H 3398   4.687   7.298   7.584  0.1255 -0.1048  0.7967
   26MOL0     H 3399   4.783   7.275   7.440 -0.8539 -1.3546  0.6993
   26MOL0     H 3400   4.699   7.557   7.505 -2.8755 -0.4611 -0.0614
   26MOL0     H 3401   4.603   7.456   7.402 -0.1374 -2.8285 -0.8596
   26MOL0     H 3402   4.730   7.577   7.249 -3.2027 -1.2373  0.0008
   26MOL0     H 3403   4.791   7.411   7.254  0.8795 -1.1548  0.8748
   26MOL0     H 3404   4.936   7.641   7.390  1.4876  1.4296 -2.0179
   26MOL0     H 3405   4.986   7.464   7.382  0.3302 -1.2440 -2.2796
   26MOL0     H 3406   4.950   7.639   7.135  0.4184  1.3070  0.8994
   26MOL0     H 3407   5.005   7.477   7.132  0.7730 -1.1654  1.3433
   26MOL0     H 3408   5.188   7.621   7.100 -1.6109  2.5559  0.0619
   26MOL0     H 3409   5.220   7.546   7.257  0.1981  1.2148  1.2031
   26MOL0     H 3410   5.186   7.747   7.384  1.1875 -2.1625 -0.2920
   26MOL0     H 3411   5.267   7.804   7.252 -0.6526  1.0058  0.1577
   26MOL0     H 3412   4.975   7.831   7.293 -1.9077  0.4924 -1.9827
   26MOL0     H 3413   5.039   7.841   7.125 -2.9852 -1.0557  1.0616
   26MOL0     H 3414   4.737   7.277   7.785  2.7159 -1.6311 -4.3436
   26MOL0     H 3415   4.769   7.314   8.029 -2.4435  1.9561 -0.4502
   26MOL0     H 3416   5.098   7.203   8.416 -0.5579 -0.9369  2.2836
   26MOL0     H 3417   5.197   7.252   8.635 -1.1076 -0.5407  0.7844
   26MOL0     H 3418   6.076   6.926  10.137  1.0954 -1.1014 -0.0250
   26MOL0     H 3419   6.022   7.029  10.364  0.3823 -0.0622  0.0136
   26MOL0     H 3420   5.859   7.110  10.683  0.9631  0.8443 -0.0725
   26MOL0     H 3421   5.820   7.234  10.869  0.6448 -0.7897  1.3063
   26MOL0     H 3422   5.633   7.291  11.202 -1.0951  0.3059 -0.9497
   26MOL0     H 3423   5.712   7.321  11.043 -0.7178 -1.3571 -0.3893
   26MOL0     H 3424   5.841   7.182  11.275  1.9471 -2.6375 -2.2389
   26MOL0     H 3425   5.944   7.230  11.157  2.4328 -2.4704  5.7164
   26MOL0     H 3426   5.966   7.384  11.338  2.6274  2.8767 -1.4545
   26MOL0     H 3427   5.796   7.431  11.327  0.0703 -0.6629 -0.2076
   26MOL0     H 3428   5.974   7.602  11.224 -0.3430  2.2095 -2.2695
   26MOL0     H 3429   5.986   7.466  11.105 -0.0863 -1.0132  0.5472
   26MOL0     H 3430   5.595   7.622  11.071 -0.2366  1.6672 -1.6973
   26MOL0     H 3431   5.672   6.869  11.068  0.6643  1.1704  0.3300
   26MOL0     H 3432   5.732   6.747  10.872 -0.3751 -0.4979  1.8333
   27MOL0     O 3433   0.321   4.995   5.622 -0.2246 -0.3798 -0.2691
   27MOL0     C 3434   0.248   5.076   5.565 -0.3515  1.2967  1.3244
   27MOL0     O 3435   0.288   5.148   5.462  0.1923 -0.5077 -0.1890
   27MOL0     C 3436   0.363   5.098   5.363  0.7496  0.6080  0.1284
   27MOL0     C 3437   0.428   5.195   5.289 -0.1388  0.0672 -0.2512
   27MOL0     C 3438   0.520   5.161   5.183  0.2549 -0.1393 -0.6082
   27MOL0     C 3439   0.526   5.023   5.134  0.4367 -0.9375 -0.3395
   27MOL0     O 3440   0.611   4.984   5.031  0.3074  0.2682  0.2579
   27MOL0     C 3441   0.638   5.069   4.924 -0.1773 -0.4243  0.5621
   27MOL0     C 3442   0.722   5.009   4.806 -0.3876 -0.3531 -1.0649
   27MOL0     C 3443   0.721   5.112   4.691  0.8999  0.2286 -0.3095
   27MOL0     C 3444   0.743   5.264   4.744  0.5659 -0.5941  0.1143
   27MOL0     C 3445   0.763   5.375   4.649  0.1700  0.3974 -0.2021
   27MOL0     C 3446   0.841   5.338   4.520  0.0103  0.6054 -0.9017
   27MOL0     C 3447   0.865   5.457   4.427  0.4291  0.5686 -0.7363
   27MOL0     C 3448   0.935   5.407   4.294  0.5841 -0.4728  0.2312
   27MOL0     N 3449   1.077   5.381   4.314  0.4373 -0.5197 -0.0599
   27MOL0     C 3450   1.126   5.257   4.338 -0.0895  0.2887 -0.5616
   27MOL0     C 3451   1.259   5.275   4.359 -0.3191  0.3593 -0.5362
   27MOL0     C 3452   1.373   5.185   4.398 -0.3925  0.0388  0.5982
   27MOL0     C 3453   1.421   5.109   4.271 -0.9567 -0.2455 -0.4837
   27MOL0     C 3454   1.554   5.155   4.208 -0.0166 -0.6263  0.1392
   27MOL0     C 3455   1.602   5.037   4.123  0.2278 -0.2572  0.1898
   27MOL0     O 3456   1.500   4.993   4.028  0.6019 -0.1607  0.2040
   27MOL0     C 3457   1.510   4.873   3.957  0.8803  0.6667  0.2490
   27MOL0     C 3458   1.617   4.778   3.956  0.7525  0.9346 -0.3542
   27MOL0     C 3459   1.603   4.653   3.888 -0.0553  0.0053  0.9606
   27MOL0     C 3460   1.490   4.630   3.813  0.0715 -0.0075 -0.1360
   27MOL0     C 3461   1.463   4.494   3.765 -0.6017 -0.2828  1.2835
   27MOL0     O 3462   1.563   4.398   3.784 -0.2184  0.4350  0.6538
   27MOL0     C 3463   1.562   4.277   3.716  0.1400  0.8238  0.2386
   27MOL0     C 3464   1.532   4.252   3.579 -0.0636 -0.0050  0.8605
   27MOL0     C 3465   1.523   4.120   3.524  0.7565 -0.1484  0.0918
   27MOL0     C 3466   1.576   4.012   3.596  0.5659 -0.6339 -0.7152
   27MOL0     O 3467   1.592   3.892   3.534 -0.0316 -0.6358  0.4209
   27MOL0     C 3468   1.610   3.771   3.615  0.4453  0.3100 -0.0990
   27MOL0     C 3469   1.598   3.662   3.504  1.4197  1.1739  0.2639
   27MOL0     C 3470   1.541   3.530   3.568  0.1696  0.0236 -0.6548
   27MOL0     C 3471   1.627   3.410   3.535 -0.2259 -0.1466  0.4055
   27MOL0     C 3472   1.572   3.285   3.605  0.0622  0.6817 -0.3396
   27MOL0     C 3473   1.649   3.159   3.558  0.4935  0.9507 -0.6222
   27MOL0     C 3474   1.623   3.035   3.636  0.2255 -0.1490  0.2338
   27MOL0     C 3475   1.709   3.014   3.765 -0.1817 -0.1579  0.3205
   27MOL0    Cl 3476   1.881   3.022   3.729 -0.7746  0.2453 -0.0833
   27MOL0     C 3477   1.602   4.041   3.736 -0.2331  0.1882  1.1348
   27MOL0     C 3478   1.595   4.166   3.791 -0.0541  1.0133 -0.3146
   27MOL0     O 3479   1.362   4.471   3.694 -0.4274  0.0883 -0.4351
   27MOL0     C 3480   1.388   4.726   3.811  0.1050 -0.3784  0.2074
   27MOL0     C 3481   1.410   4.848   3.864  0.5692 -0.8100 -0.4902
   27MOL0     N 3482   1.278   5.406   4.361  0.4007 -0.0122  0.1017
   27MOL0     N 3483   1.170   5.476   4.342  0.7636 -0.0215  0.3780
   27MOL0     C 3484   0.447   4.931   5.194 -0.8509 -0.2512  0.3504
   27MOL0     C 3485   0.361   4.971   5.305  0.5609  1.0817 -0.7253
   27MOL0     C 3486   0.121   5.116   5.624 -1.5335  0.5466 -0.2013
   27MOL0     C 3487   0.073   5.058   5.744 -0.4035  0.0914 -0.3208
   27MOL0     C 3488  -0.046   5.095   5.807 -0.4368  1.3696 -0.1590
   27MOL0     C 3489  -0.139   5.152   5.727  0.0490  0.9573 -0.3234
   27MOL0     O 3490  -0.257   5.165   5.780  0.1158 -0.3293  0.2184
   27MOL0     C 3491  -0.352   5.243   5.716 -0.5425  0.1441  1.0933
   27MOL0     C 3492  -0.307   5.390   5.710 -0.6945  0.0556  0.0853
   27MOL0     C 3493  -0.410   5.485   5.641  0.4341  0.6086 -0.4268
   27MOL0     C 3494  -0.356   5.628   5.613  0.0458  0.8768 -0.3994
   27MOL0     C 3495  -0.350   5.711   5.729 -0.0563  0.6344  0.2150
   27MOL0     C 3496  -0.351   5.785   5.820  0.0047 -0.9398  0.7979
   27MOL0     C 3497  -0.098   5.203   5.595  0.0291 -0.2077 -0.8708
   27MOL0     C 3498   0.035   5.198   5.545  0.4611 -0.0187 -0.0811
   27MOL0     H 3499   0.421   5.298   5.322 -1.3155 -0.6173  1.8465
   27MOL0     H 3500   0.588   5.232   5.139 -0.3175 -0.4398 -2.0322
   27MOL0     H 3501   0.694   5.152   4.969  0.5168  0.1557 -1.2780
   27MOL0     H 3502   0.544   5.098   4.877  1.2207  0.7094 -1.6980
   27MOL0     H 3503   0.687   4.908   4.783  0.5242 -1.4401  1.7894
   27MOL0     H 3504   0.824   5.002   4.844 -0.1963  1.0131 -1.2899
   27MOL0     H 3505   0.621   5.113   4.645  0.0540  1.9922  1.4256
   27MOL0     H 3506   0.797   5.095   4.614 -0.6261  0.4884 -1.9549
   27MOL0     H 3507   0.666   5.305   4.810  2.1595 -0.0636  1.7324
   27MOL0     H 3508   0.834   5.270   4.805  1.0359  3.3518 -0.7211
   27MOL0     H 3509   0.813   5.457   4.701  0.3946 -1.1812  2.2010
   27MOL0     H 3510   0.665   5.413   4.618  1.0539  2.8900 -0.1576
   27MOL0     H 3511   0.794   5.260   4.460  1.4133 -3.1741  2.4168
   27MOL0     H 3512   0.940   5.296   4.543 -0.8585 -1.5754 -0.9736
   27MOL0     H 3513   0.773   5.515   4.416 -0.9738 -1.0637  1.5151
   27MOL0     H 3514   0.940   5.522   4.474 -0.6591  3.7469 -3.0309
   27MOL0     H 3515   0.929   5.497   4.232  3.4234 -1.0811 -1.0788
   27MOL0     H 3516   0.881   5.323   4.250  3.0927 -3.4167  2.3022
   27MOL0     H 3517   1.088   5.156   4.341  0.9713 -0.1357 -0.8431
   27MOL0     H 3518   1.337   5.120   4.478  0.9412  0.8075  1.8713
   27MOL0     H 3519   1.448   5.249   4.445 -1.0601  2.4481 -1.4037
   27MOL0     H 3520   1.346   5.129   4.194 -1.5272  1.9443  0.5601
   27MOL0     H 3521   1.422   5.002   4.292 -2.2972 -0.8738 -3.1438
   27MOL0     H 3522   1.531   5.232   4.133  1.5762 -0.6193 -0.3771
   27MOL0     H 3523   1.634   5.190   4.274 -0.3003  1.6518 -0.6332
   27MOL0     H 3524   1.625   4.955   4.193  0.0341 -1.6208 -1.2900
   27MOL0     H 3525   1.694   5.073   4.077  0.1345  0.7242  0.7525
   27MOL0     H 3526   1.705   4.802   4.014  1.6067  2.0514 -2.0288
   27MOL0     H 3527   1.690   4.589   3.895  2.3088  2.8115 -0.4487
   27MOL0     H 3528   1.521   4.338   3.514  3.4542  1.7338  2.2776
   27MOL0     H 3529   1.508   4.118   3.416  2.4209  4.8304 -0.4847
   27MOL0     H 3530   1.519   3.774   3.676 -0.2700 -0.6902 -1.0642
   27MOL0     H 3531   1.695   3.775   3.683 -1.2519 -0.7875  2.2271
   27MOL0     H 3532   1.689   3.640   3.448  1.8756  0.8937  1.0967
   27MOL0     H 3533   1.519   3.678   3.430  0.4869  0.7530  1.1339
   27MOL0     H 3534   1.446   3.503   3.521  1.0790  0.5733 -2.9433
   27MOL0     H 3535   1.539   3.535   3.677  1.3231 -0.9569 -0.5724
   27MOL0     H 3536   1.628   3.397   3.427  1.9357 -2.8229  0.6285
   27MOL0     H 3537   1.731   3.416   3.569  0.0391  0.1627 -0.4535
   27MOL0     H 3538   1.463   3.280   3.592 -0.4431  0.2132  3.1522
   27MOL0     H 3539   1.579   3.304   3.712  0.9269  0.4680 -0.3496
   27MOL0     H 3540   1.758   3.166   3.551  0.7057 -0.7029  0.5069
   27MOL0     H 3541   1.620   3.151   3.452  0.3037  0.7273 -0.5537
   27MOL0     H 3542   1.516   3.034   3.655 -0.6075  1.0814 -3.5954
   27MOL0     H 3543   1.647   2.948   3.575  0.4810  0.2076 -0.1852
   27MOL0     H 3544   1.694   2.914   3.806  0.5211 -0.3570  0.0933
   27MOL0     H 3545   1.691   3.091   3.840 -1.7391 -0.2771  0.1001
   27MOL0     H 3546   1.629   3.958   3.800 -0.9259 -0.6057  0.4224
   27MOL0     H 3547   1.623   4.178   3.896 -0.2381  2.2600 -0.3938
   27MOL0     H 3548   1.293   4.718   3.758  0.2310  1.1054 -0.2933
   27MOL0     H 3549   1.331   4.923   3.859  2.5067  1.3478 -0.4754
   27MOL0     H 3550   0.447   4.831   5.151 -0.9897 -0.0677 -0.0819
   27MOL0     H 3551   0.286   4.900   5.340  0.7334  1.0475 -0.4289
   27MOL0     H 3552   0.135   4.987   5.798 -0.0848  1.5498  1.3416
   27MOL0     H 3553  -0.074   5.074   5.909 -0.5126  3.7260  0.3726
   27MOL0     H 3554  -0.452   5.239   5.760 -1.0567  0.4853  0.0037
   27MOL0     H 3555  -0.377   5.216   5.613  1.7437  1.6089  0.0659
   27MOL0     H 3556  -0.295   5.426   5.812  0.3189  0.1912 -0.0803
   27MOL0     H 3557  -0.215   5.412   5.656  0.3302 -2.8493  0.4847
   27MOL0     H 3558  -0.504   5.494   5.697 -0.4859  0.5309 -1.9233
   27MOL0     H 3559  -0.427   5.431   5.548  3.3081 -2.6085  0.7045
   27MOL0     H 3560  -0.256   5.629   5.569  0.3140  2.2334  0.2015
   27MOL0     H 3561  -0.425   5.680   5.545 -0.5952  0.8331  0.2104
   27MOL0     H 3562  -0.375   5.854   5.899 -0.7908 -2.1682  1.6777
   27MOL0     H 3563  -0.157   5.267   5.531  2.3689  2.5265 -0.5415
   27MOL0     H 3564   0.054   5.244   5.448  0.7888 -0.5212 -0.2582
   28MOL0     O 3565   3.531   0.928   1.989 -0.1627 -0.1531  0.3889
   28MOL0     C 3566   3.580   0.886   1.881 -0.3018  0.8299 -0.2343
   28MOL0     O 3567   3.720   0.886   1.851  0.1248 -0.2865 -0.0779
   28MOL0     C 3568   3.806   0.955   1.932 -0.1686  0.8362  0.1402
   28MOL0     C 3569   3.778   1.082   1.989 -0.5826 -0.0313 -0.6481
   28MOL0     C 3570   3.876   1.158   2.046 -0.2848  1.0419  0.4417
   28MOL0     C 3571   4.015   1.116   2.039  0.0639  1.2019  0.1214
   28MOL0     O 3572   4.126   1.181   2.099  0.4896 -0.8737 -0.1731
   28MOL0     C 3573   4.090   1.265   2.210  0.9676 -0.2324  0.4136
   28MOL0     C 3574   4.226   1.302   2.280  0.5862  0.1711 -0.3079
   28MOL0     C 3575   4.258   1.192   2.374 -0.1952 -0.0897 -0.3639
   28MOL0     C 3576   4.381   1.219   2.469  0.1707 -1.0904 -0.7766
   28MOL0     C 3577   4.518   1.160   2.422  0.2760 -0.7300  0.7074
   28MOL0     C 3578   4.537   1.013   2.451 -0.1590 -0.7975 -0.0562
   28MOL0     C 3579   4.664   0.962   2.371  0.1239 -0.7179  0.0231
   28MOL0     C 3580   4.658   0.810   2.349 -0.4714 -0.7422 -0.6761
   28MOL0     N 3581   4.781   0.776   2.273 -0.9196  1.3623 -1.3467
   28MOL0     C 3582   4.891   0.745   2.349  0.2816 -0.1327 -0.5901
   28MOL0     C 3583   4.977   0.693   2.259  0.7224 -0.6692 -0.0829
   28MOL0     C 3584   5.117   0.642   2.301 -0.4688 -0.4126  0.0551
   28MOL0     C 3585   5.208   0.600   2.186 -0.1872  0.3408  0.4162
   28MOL0     C 3586   5.237   0.712   2.083  0.0833 -0.5270  0.5402
   28MOL0     C 3587   5.370   0.704   2.010 -0.0056 -0.6231  0.4777
   28MOL0     O 3588   5.486   0.714   2.096  0.5309  0.2712  0.4323
   28MOL0     C 3589   5.524   0.840   2.146 -0.5898  0.8107  0.2066
   28MOL0     C 3590   5.641   0.848   2.226  0.3563  0.4771 -0.7445
   28MOL0     C 3591   5.679   0.968   2.286  0.4907  0.2654  0.3402
   28MOL0     C 3592   5.617   1.090   2.247 -0.0457  0.5154  0.6810
   28MOL0     C 3593   5.678   1.221   2.288  0.8695  0.3321  0.5606
   28MOL0     O 3594   5.638   1.339   2.221 -0.3525 -0.2322  0.4439
   28MOL0     C 3595   5.715   1.451   2.237 -1.5584  0.6500 -0.6889
   28MOL0     C 3596   5.857   1.456   2.228 -0.1137  0.0406  0.4860
   28MOL0     C 3597   5.933   1.569   2.236  0.1952 -0.0023 -0.6989
   28MOL0     C 3598   5.873   1.691   2.273 -0.2441 -0.2272 -0.3257
   28MOL0     O 3599   5.950   1.801   2.302 -0.1146  0.4639 -0.5978
   28MOL0     C 3600   6.081   1.787   2.355  0.5055 -0.1317  0.0340
   28MOL0     C 3601   6.074   1.719   2.485 -0.7621 -0.3241  0.4862
   28MOL0     C 3602   6.210   1.707   2.552  1.0099 -0.2336  0.2173
   28MOL0     C 3603   6.301   1.617   2.483 -0.1571 -0.4501  0.3660
   28MOL0     C 3604   6.432   1.613   2.566  1.1297  0.0229  0.5794
   28MOL0     C 3605   6.534   1.743   2.572 -0.0015  0.4173 -0.1429
   28MOL0     C 3606   6.637   1.741   2.686  0.0642  0.4837  0.3789
   28MOL0     C 3607   6.760   1.835   2.672  0.0365 -0.6956 -0.5038
   28MOL0    Cl 3608   6.713   1.980   2.562 -0.1007 -0.2637  0.0672
   28MOL0     C 3609   5.734   1.685   2.289 -0.3516 -0.2697  0.8178
   28MOL0     C 3610   5.652   1.577   2.269  0.2745  0.2013 -0.1502
   28MOL0     O 3611   5.749   1.220   2.381 -0.6636 -0.3300 -0.4446
   28MOL0     C 3612   5.510   1.080   2.167 -0.4401 -0.2720  0.3098
   28MOL0     C 3613   5.457   0.967   2.120 -0.1102  0.4524 -0.6121
   28MOL0     N 3614   4.916   0.691   2.137  0.0386 -0.1577  0.4257
   28MOL0     N 3615   4.792   0.738   2.147 -0.1403  0.7295 -0.0960
   28MOL0     C 3616   4.042   0.996   1.980  0.2595 -0.6052 -0.2026
   28MOL0     C 3617   3.943   0.919   1.928  0.7595 -1.1319 -0.1514
   28MOL0     C 3618   3.494   0.856   1.767  0.6726  0.7653  0.4575
   28MOL0     C 3619   3.545   0.784   1.653  0.0881 -1.3958  0.1344
   28MOL0     C 3620   3.465   0.772   1.545 -0.4944 -0.9889 -0.2954
   28MOL0     C 3621   3.337   0.832   1.535 -0.8682 -0.0396 -0.8956
   28MOL0     O 3622   3.283   0.835   1.410  0.2914 -0.3071  0.0559
   28MOL0     C 3623   3.139   0.827   1.382 -0.0382 -0.3351 -0.7221
   28MOL0     C 3624   3.099   0.961   1.325 -0.2817 -0.6178  0.1717
   28MOL0     C 3625   2.966   0.965   1.255  0.6135  0.2559  0.3309
   28MOL0     C 3626   2.970   0.879   1.126 -0.7348 -0.3546  1.4438
   28MOL0     C 3627   2.834   0.890   1.066 -0.3643  0.1254  0.0094
   28MOL0     C 3628   2.721   0.883   1.021 -0.6612  0.1252  0.2120
   28MOL0     C 3629   3.278   0.878   1.654  0.3402  1.0156 -0.4439
   28MOL0     C 3630   3.366   0.878   1.771  0.9703 -0.8112  0.6533
   28MOL0     H 3631   3.674   1.111   1.992 -1.3195 -2.5476  0.0723
   28MOL0     H 3632   3.831   1.238   2.105 -0.0071  3.2252 -2.1127
   28MOL0     H 3633   4.017   1.221   2.278 -0.1913 -0.5408 -0.9970
   28MOL0     H 3634   4.048   1.360   2.175 -1.7892 -2.0022 -1.3776
   28MOL0     H 3635   4.212   1.387   2.348  1.4054 -1.0497  1.4388
   28MOL0     H 3636   4.289   1.328   2.195  0.4436  2.0033  0.0865
   28MOL0     H 3637   4.270   1.093   2.329  1.0607  0.0047 -0.2758
   28MOL0     H 3638   4.178   1.190   2.449  0.7508 -1.7699  0.6591
   28MOL0     H 3639   4.392   1.325   2.490  0.9106 -1.4464  0.7328
   28MOL0     H 3640   4.364   1.172   2.566  1.1599 -0.3100 -0.2082
   28MOL0     H 3641   4.605   1.208   2.467 -0.6987  0.4293  1.4037
   28MOL0     H 3642   4.541   1.174   2.316 -0.5497  0.6941  0.6871
   28MOL0     H 3643   4.449   0.956   2.419  0.0595 -0.5550 -1.1544
   28MOL0     H 3644   4.554   1.012   2.559 -0.1726 -1.2141 -0.0579
   28MOL0     H 3645   4.680   1.015   2.276 -2.7583 -2.3560 -1.5153
   28MOL0     H 3646   4.753   0.991   2.428  0.0761  0.2033 -0.3464
   28MOL0     H 3647   4.568   0.776   2.297 -1.7574  0.7696  0.4709
   28MOL0     H 3648   4.659   0.765   2.449 -0.0800  0.0586 -0.3140
   28MOL0     H 3649   4.909   0.775   2.452  1.3577  0.1867 -0.8568
   28MOL0     H 3650   5.093   0.558   2.368 -3.1459  0.3512  0.1671
   28MOL0     H 3651   5.161   0.718   2.366 -0.6269 -1.2579  1.1872
   28MOL0     H 3652   5.164   0.506   2.151 -2.8980  1.3534  0.8852
   28MOL0     H 3653   5.302   0.572   2.235 -0.9280 -1.2771  1.0106
   28MOL0     H 3654   5.155   0.704   2.010  1.3022 -1.3360 -0.7977
   28MOL0     H 3655   5.242   0.811   2.129  3.2313 -0.4502  0.2150
   28MOL0     H 3656   5.365   0.777   1.928 -2.9208  1.1534  2.0530
   28MOL0     H 3657   5.366   0.606   1.963 -1.4318 -0.6095  0.5106
   28MOL0     H 3658   5.707   0.763   2.243 -0.3006 -0.2244 -1.5895
   28MOL0     H 3659   5.776   0.982   2.333  1.4167 -0.9981 -1.0891
   28MOL0     H 3660   5.913   1.366   2.208 -0.4674 -0.2467  0.7753
   28MOL0     H 3661   6.040   1.552   2.240 -0.2868 -3.8478  2.9857
   28MOL0     H 3662   6.107   1.893   2.364 -2.3109  0.5065  1.9907
   28MOL0     H 3663   6.146   1.742   2.279  1.0062 -0.4146  0.6212
   28MOL0     H 3664   6.024   1.623   2.475  2.2303 -2.0573  0.7419
   28MOL0     H 3665   6.012   1.780   2.551 -1.5314  0.5443 -0.9863
   28MOL0     H 3666   6.201   1.669   2.654  1.0626 -0.6689  0.0663
   28MOL0     H 3667   6.254   1.806   2.562 -3.9673  2.0591  2.9355
   28MOL0     H 3668   6.269   1.513   2.480 -0.2863 -0.3875 -1.1750
   28MOL0     H 3669   6.319   1.642   2.378 -2.4754 -1.2552 -0.2897
   28MOL0     H 3670   6.492   1.522   2.558 -2.4169 -2.4928  0.4185
   28MOL0     H 3671   6.402   1.617   2.671 -0.8043 -0.3183  0.0707
   28MOL0     H 3672   6.479   1.836   2.591  0.6711  0.9036 -0.5389
   28MOL0     H 3673   6.585   1.748   2.476 -1.2113  1.0916 -0.7675
   28MOL0     H 3674   6.579   1.775   2.773  1.0577 -0.0019  1.2507
   28MOL0     H 3675   6.672   1.638   2.695 -0.1887  0.1312 -2.1607
   28MOL0     H 3676   6.845   1.781   2.628 -0.7216 -0.4266 -2.3852
   28MOL0     H 3677   6.782   1.881   2.768 -0.9664 -3.1305  0.9737
   28MOL0     H 3678   5.683   1.778   2.310  0.1629 -0.1426  1.5833
   28MOL0     H 3679   5.544   1.574   2.281  0.4460  2.5397  4.0778
   28MOL0     H 3680   5.467   1.172   2.129  2.3336  1.3285  0.7363
   28MOL0     H 3681   5.375   0.972   2.050 -1.6061 -1.0003  0.9497
   28MOL0     H 3682   4.142   0.955   1.977 -0.7324 -3.1300 -1.8077
   28MOL0     H 3683   3.977   0.837   1.866 -0.7743 -2.6180  0.8994
   28MOL0     H 3684   3.651   0.761   1.643  0.6997  1.8557 -2.4216
   28MOL0     H 3685   3.521   0.743   1.456 -2.2745  0.9226 -2.1394
   28MOL0     H 3686   3.082   0.810   1.474 -0.8730 -1.9949 -1.4870
   28MOL0     H 3687   3.122   0.736   1.324  1.4913  0.1841 -2.0693
   28MOL0     H 3688   3.090   1.041   1.400  0.8111 -3.0842  3.1818
   28MOL0     H 3689   3.178   0.992   1.256  0.7880  0.3984  1.7845
   28MOL0     H 3690   2.942   1.069   1.229  2.2142  0.2914 -1.1156
   28MOL0     H 3691   2.891   0.924   1.324  0.7770  1.1608  1.0723
   28MOL0     H 3692   3.050   0.916   1.061 -1.3055 -0.7379  0.4951
   28MOL0     H 3693   2.989   0.772   1.142 -3.5542 -1.0030  0.9600
   28MOL0     H 3694   2.615   0.886   1.003 -0.3995 -0.4566 -1.6318
   28MOL0     H 3695   3.173   0.893   1.678  0.3917 -0.1175  0.5926
   28MOL0     H 3696   3.307   0.893   1.860 -1.4449 -1.1830 -0.8123
   29MOL0     O 3697   5.227   9.676   4.288 -0.7929 -0.5096 -0.0383
   29MOL0     C 3698   5.250   9.614   4.183  0.7046 -0.3604 -0.2136
   29MOL0     O 3699   5.159   9.544   4.113  0.1810  0.4583  0.4718
   29MOL0     C 3700   5.034   9.541   4.164 -1.0970  0.0488 -0.2385
   29MOL0     C 3701   5.010   9.485   4.295 -0.2416 -0.1758  0.7997
   29MOL0     C 3702   4.883   9.465   4.344 -0.2772  0.1663  0.4618
   29MOL0     C 3703   4.774   9.526   4.278  1.1859 -0.6365 -0.4610
   29MOL0     O 3704   4.648   9.536   4.343  0.6227 -0.3767 -0.0809
   29MOL0     C 3705   4.528   9.602   4.294  0.6589 -0.0524  0.3012
   29MOL0     C 3706   4.415   9.587   4.396  0.8617  0.3813 -0.0854
   29MOL0     C 3707   4.304   9.678   4.354 -0.1305  0.1627  0.0189
   29MOL0     C 3708   4.156   9.645   4.402 -0.3163  0.7925 -0.2844
   29MOL0     C 3709   4.060   9.757   4.357  1.8422 -0.5024 -0.6423
   29MOL0     C 3710   4.093   9.904   4.408  0.1607 -0.7714  0.8456
   29MOL0     C 3711   3.968  10.000   4.364 -0.4388 -0.1218 -0.7799
   29MOL0     C 3712   4.000  10.143   4.377 -0.4248  0.7271  0.9245
   29MOL0     N 3713   4.105  10.195   4.287  0.2930  0.3518  0.1310
   29MOL0     C 3714   4.078  10.262   4.169  0.3198 -0.3682 -0.7248
   29MOL0     C 3715   4.196  10.273   4.096  0.3128 -0.4414  0.0605
   29MOL0     C 3716   4.222  10.341   3.961 -0.4967 -0.6205 -0.1860
   29MOL0     C 3717   4.366  10.308   3.910  0.8756  0.4916 -0.0851
   29MOL0     C 3718   4.371  10.359   3.757 -0.4051  0.0345  0.2045
   29MOL0     C 3719   4.502  10.321   3.704 -0.4141 -1.1872 -0.5625
   29MOL0     O 3720   4.515  10.375   3.565  0.4377  1.0073 -0.2366
   29MOL0     C 3721   4.637  10.356   3.505  0.5505 -0.1561  0.6599
   29MOL0     C 3722   4.644  10.378   3.365 -0.3554  0.2072  0.6248
   29MOL0     C 3723   4.759  10.357   3.291  0.4956 -0.3071 -0.7268
   29MOL0     C 3724   4.873  10.320   3.360 -0.2737 -0.2499  0.0317
   29MOL0     C 3725   4.993  10.274   3.274  0.0474 -0.2734  0.6239
   29MOL0     O 3726   4.968  10.189   3.164 -0.0131 -0.2623  0.5976
   29MOL0     C 3727   5.083  10.183   3.086  0.9273  0.0415 -0.5921
   29MOL0     C 3728   5.131  10.276   2.991  1.0890 -0.2517 -0.5757
   29MOL0     C 3729   5.247  10.248   2.923 -0.9975  0.4826  0.3451
   29MOL0     C 3730   5.321  10.129   2.944 -0.3070  1.3424  0.0664
   29MOL0     O 3731   5.440  10.107   2.871 -0.3119 -0.1985 -0.3420
   29MOL0     C 3732   5.566  10.073   2.933  1.0009 -1.6207  0.5074
   29MOL0     C 3733   5.657  10.104   2.819 -0.2238 -1.1442 -0.2357
   29MOL0     C 3734   5.798  10.067   2.845  0.0453  0.3484  0.2190
   29MOL0     C 3735   5.885  10.113   2.721 -0.0599  0.0843 -0.0327
   29MOL0     C 3736   6.033  10.110   2.755 -0.5650  0.2338  0.4324
   29MOL0     C 3737   6.128  10.148   2.639  0.0897  0.4561 -0.1965
   29MOL0     C 3738   6.276  10.121   2.688  0.5335 -0.1012 -1.0020
   29MOL0     C 3739   6.394  10.142   2.582  1.1152  0.4450 -1.2905
   29MOL0    Cl 3740   6.539  10.082   2.647  0.0044 -0.1979  0.0866
   29MOL0     C 3741   5.274  10.027   3.024  0.1894 -0.4634 -0.1275
   29MOL0     C 3742   5.159  10.059   3.092 -0.5951  0.7309 -0.3211
   29MOL0     O 3743   5.100  10.321   3.306 -0.4672 -0.5348  0.2442
   29MOL0     C 3744   4.880  10.307   3.502 -0.4787 -0.0396 -0.3850
   29MOL0     C 3745   4.761  10.322   3.572 -0.0073  0.3261  0.9999
   29MOL0     N 3746   4.292  10.227   4.186 -0.1158 -0.1336 -0.2950
   29MOL0     N 3747   4.239  10.176   4.291 -0.0121 -0.5289 -0.5778
   29MOL0     C 3748   4.795   9.596   4.154  0.0003 -0.1239  0.8647
   29MOL0     C 3749   4.923   9.593   4.092  0.6724  0.9130  0.1259
   29MOL0     C 3750   5.383   9.601   4.141 -0.8581  0.0586 -0.1894
   29MOL0     C 3751   5.480   9.687   4.183  0.3589  0.2250  0.1999
   29MOL0     C 3752   5.612   9.667   4.137  1.0367  0.6506  0.6699
   29MOL0     C 3753   5.650   9.575   4.035  0.5169  0.1583 -0.0684
   29MOL0     O 3754   5.783   9.580   3.992 -0.1506 -0.3340  0.3371
   29MOL0     C 3755   5.827   9.467   3.919 -0.9053  0.0779 -0.9475
   29MOL0     C 3756   5.977   9.472   3.903 -0.7912 -0.4652  0.2844
   29MOL0     C 3757   6.057   9.388   4.000 -0.1895 -0.0196 -0.5658
   29MOL0     C 3758   6.049   9.442   4.145  0.1046  0.9145  0.6190
   29MOL0     C 3759   6.168   9.439   4.231  0.3016  0.6275 -0.6240
   29MOL0     C 3760   6.264   9.453   4.305  0.3025 -1.1968 -0.2441
   29MOL0     C 3761   5.552   9.487   3.993  0.2731 -0.6224 -0.0137
   29MOL0     C 3762   5.420   9.504   4.038 -0.1204  0.2843  0.1613
   29MOL0     H 3763   5.096   9.446   4.350  0.6808 -0.3285 -0.6903
   29MOL0     H 3764   4.858   9.402   4.428 -1.2059 -0.3095 -0.1468
   29MOL0     H 3765   4.507   9.541   4.205 -0.9264  1.1791 -0.2185
   29MOL0     H 3766   4.538   9.706   4.260 -0.0676 -0.8463 -2.6680
   29MOL0     H 3767   4.456   9.604   4.496 -0.7074 -1.7990  1.0219
   29MOL0     H 3768   4.379   9.484   4.394  2.7538 -0.3492  0.7613
   29MOL0     H 3769   4.296   9.690   4.246  1.5048  3.6151  0.1533
   29MOL0     H 3770   4.325   9.776   4.398 -1.9265 -1.4288  5.0667
   29MOL0     H 3771   4.124   9.553   4.353  0.6741 -0.6407  1.5984
   29MOL0     H 3772   4.146   9.631   4.510 -3.2028 -2.7134 -0.8028
   29MOL0     H 3773   3.963   9.741   4.404  1.1947 -1.8294 -2.3418
   29MOL0     H 3774   4.053   9.751   4.248  0.8590 -0.6979 -0.5719
   29MOL0     H 3775   4.179   9.927   4.345 -2.5909 -1.2111 -3.4929
   29MOL0     H 3776   4.131   9.917   4.510 -1.0686  2.0814  1.0487
   29MOL0     H 3777   3.934   9.971   4.264  0.9646 -5.1315 -0.0906
   29MOL0     H 3778   3.887   9.979   4.434 -0.2767  3.1831  0.5652
   29MOL0     H 3779   4.033  10.161   4.480 -1.0820  2.1102  0.9245
   29MOL0     H 3780   3.908  10.200   4.366 -1.0388 -0.0214  2.0102
   29MOL0     H 3781   3.983  10.292   4.125 -0.3040  2.9126  2.3805
   29MOL0     H 3782   4.211  10.450   3.956  0.5182 -0.5622 -2.4292
   29MOL0     H 3783   4.145  10.297   3.898  0.6581 -5.1736  1.2213
   29MOL0     H 3784   4.373  10.199   3.914 -2.4549  0.1792 -0.2971
   29MOL0     H 3785   4.444  10.353   3.973  3.8165 -1.6789 -1.9077
   29MOL0     H 3786   4.295  10.309   3.695  1.0467 -1.3106 -0.5539
   29MOL0     H 3787   4.359  10.467   3.756  3.1713  0.5536  1.4817
   29MOL0     H 3788   4.498  10.212   3.700 -0.7580 -1.2719  1.1355
   29MOL0     H 3789   4.580  10.358   3.772 -0.6792 -0.5671 -0.5902
   29MOL0     H 3790   4.565  10.421   3.304  2.5969 -1.6997 -5.3168
   29MOL0     H 3791   4.755  10.363   3.182 -3.2814 -0.4337 -0.7240
   29MOL0     H 3792   5.087  10.375   2.981  1.3096 -0.3012 -2.3104
   29MOL0     H 3793   5.285  10.321   2.853  0.0145 -1.3089 -1.0555
   29MOL0     H 3794   5.561   9.966   2.957 -1.6076 -1.4260  1.1557
   29MOL0     H 3795   5.593  10.138   3.017 -2.2116  2.3337 -1.1954
   29MOL0     H 3796   5.653  10.209   2.788 -1.5043 -1.2901 -0.6178
   29MOL0     H 3797   5.631  10.036   2.737 -1.2135  0.9586 -1.7533
   29MOL0     H 3798   5.807   9.958   2.849  0.0267  0.2661 -1.5140
   29MOL0     H 3799   5.834  10.100   2.943 -0.1256  0.9017  0.0994
   29MOL0     H 3800   5.863  10.053   2.632  0.3923 -0.3111  0.1130
   29MOL0     H 3801   5.863  10.217   2.697 -2.0407  0.8399  4.2127
   29MOL0     H 3802   6.054  10.011   2.797  1.2471  1.1688  1.8951
   29MOL0     H 3803   6.054  10.179   2.837 -0.9119 -0.4148  1.0811
   29MOL0     H 3804   6.107  10.251   2.608  0.8403  0.6986  0.0664
   29MOL0     H 3805   6.108  10.086   2.551 -0.8770 -0.8429  0.9063
   29MOL0     H 3806   6.287  10.176   2.781  2.9436 -0.7817 -0.7980
   29MOL0     H 3807   6.297  10.016   2.711 -0.5454  0.0456  0.7936
   29MOL0     H 3808   6.398  10.249   2.561 -0.0263  0.3952 -1.8470
   29MOL0     H 3809   6.364  10.099   2.486 -2.5888 -3.2680  1.1102
   29MOL0     H 3810   5.329   9.934   3.034  1.3205  0.1079 -0.7181
   29MOL0     H 3811   5.122   9.975   3.151 -0.4449  0.9190  0.0431
   29MOL0     H 3812   4.964  10.264   3.556 -0.7876  0.3378  0.4231
   29MOL0     H 3813   4.781  10.312   3.678 -1.1105  2.1340  1.4194
   29MOL0     H 3814   4.712   9.633   4.094  0.5427 -0.8945 -0.4113
   29MOL0     H 3815   4.945   9.620   3.990  1.9334 -2.0640 -0.4927
   29MOL0     H 3816   5.466   9.754   4.267  1.1821  0.9244 -0.2003
   29MOL0     H 3817   5.686   9.735   4.177  2.8348  0.5589 -2.1958
   29MOL0     H 3818   5.777   9.467   3.822 -0.4456 -1.4186 -1.2104
   29MOL0     H 3819   5.808   9.379   3.981  1.2819  0.2948  0.1404
   29MOL0     H 3820   6.005   9.430   3.806 -0.0230  1.9466 -0.6407
   29MOL0     H 3821   6.013   9.575   3.894 -0.1937 -0.6462  0.5597
   29MOL0     H 3822   6.164   9.396   3.980 -0.2462 -0.0950 -0.9042
   29MOL0     H 3823   6.028   9.283   3.993 -2.3896  0.6107 -2.1248
   29MOL0     H 3824   6.007   9.542   4.135 -1.3142  0.4750  1.8804
   29MOL0     H 3825   5.980   9.369   4.190  1.6638 -1.8060 -1.1191
   29MOL0     H 3826   6.351   9.472   4.364 -1.1418  1.8846  1.1143
   29MOL0     H 3827   5.566   9.407   3.920 -0.6273  0.6375 -1.6335
   29MOL0     H 3828   5.343   9.442   3.996  1.3554  0.0155 -2.3300
   30MOL0     O 3829   0.249   5.943   1.123 -0.0028 -0.7421 -0.3330
   30MOL0     C 3830   0.369   5.903   1.095  0.5215  0.1044  0.4142
   30MOL0     O 3831   0.451   5.967   1.011  0.2169 -0.3416 -0.5200
   30MOL0     C 3832   0.413   6.079   0.942  0.7776  0.2863 -0.5345
   30MOL0     C 3833   0.291   6.102   0.872 -0.8752  0.6787 -0.6240
   30MOL0     C 3834   0.273   6.214   0.794  0.7745 -0.0163  0.2219
   30MOL0     C 3835   0.380   6.302   0.775  1.0309 -0.0740  0.9928
   30MOL0     O 3836   0.361   6.411   0.708 -0.6865 -0.5764 -0.4324
   30MOL0     C 3837   0.236   6.490   0.715  0.7133 -0.1579  0.1641
   30MOL0     C 3838   0.230   6.567   0.851 -0.1750 -0.4276 -0.0447
   30MOL0     C 3839   0.308   6.698   0.838 -0.1483 -0.5129 -0.5715
   30MOL0     C 3840   0.328   6.743   0.985  0.1769 -0.4534  0.1772
   30MOL0     C 3841   0.406   6.883   0.989 -0.0218  1.4605  0.4498
   30MOL0     C 3842   0.423   6.949   1.130  0.2884 -0.1351 -0.1252
   30MOL0     C 3843   0.297   7.010   1.185 -0.3682  0.6363 -0.5640
   30MOL0     C 3844   0.319   7.115   1.296  0.6103  0.2273  0.1304
   30MOL0     N 3845   0.353   7.239   1.230 -0.0034  0.2001 -0.4960
   30MOL0     C 3846   0.270   7.319   1.152  0.0823 -0.7062 -0.2782
   30MOL0     C 3847   0.352   7.418   1.101 -0.4829 -0.3977  0.4268
   30MOL0     C 3848   0.306   7.528   1.005 -0.0565 -0.7147  0.1928
   30MOL0     C 3849   0.298   7.480   0.861  0.4434  1.1121  0.1001
   30MOL0     C 3850   0.375   7.351   0.834 -1.0194  1.0882  0.8036
   30MOL0     C 3851   0.378   7.295   0.688  0.6026  1.3801  0.0810
   30MOL0     O 3852   0.328   7.161   0.678 -0.2799 -0.1614  0.2612
   30MOL0     C 3853   0.333   7.109   0.550 -0.1236 -0.5268 -0.8222
   30MOL0     C 3854   0.280   6.981   0.542 -0.7138 -0.1367  0.1014
   30MOL0     C 3855   0.281   6.914   0.421  0.0359 -0.6802  0.6092
   30MOL0     C 3856   0.327   6.969   0.306  0.2333 -0.2926 -0.1709
   30MOL0     C 3857   0.322   6.898   0.173 -0.4243 -0.1631  1.1078
   30MOL0     O 3858   0.407   6.948   0.075 -0.4635 -0.1581  0.2387
   30MOL0     C 3859   0.416   6.872  -0.041 -0.5902 -0.7311  0.9608
   30MOL0     C 3860   0.327   6.903  -0.145  0.4004 -0.7690  0.1733
   30MOL0     C 3861   0.340   6.836  -0.270 -0.3010 -0.4275 -1.1411
   30MOL0     C 3862   0.446   6.743  -0.286  0.8776 -0.0369  0.3470
   30MOL0     O 3863   0.455   6.681  -0.409  0.2935 -0.5345 -0.1729
   30MOL0     C 3864   0.474   6.538  -0.404 -0.5630 -1.0036  0.3953
   30MOL0     C 3865   0.342   6.476  -0.407 -0.5538  0.8874  0.0328
   30MOL0     C 3866   0.343   6.318  -0.391 -0.4826  0.3867 -0.3308
   30MOL0     C 3867   0.347   6.250  -0.527  0.9561 -0.2395 -0.0086
   30MOL0     C 3868   0.283   6.106  -0.519  0.1522  0.4573 -1.4935
   30MOL0     C 3869   0.362   6.000  -0.417 -0.6545  0.0963  1.2503
   30MOL0     C 3870   0.344   5.857  -0.454 -0.2745 -0.8786 -0.6147
   30MOL0     C 3871   0.428   5.821  -0.579  0.4344  0.2508 -0.1464
   30MOL0    Cl 3872   0.586   5.763  -0.546 -0.4134 -0.3633  0.0805
   30MOL0     C 3873   0.544   6.723  -0.188 -0.0838  1.0193  0.6160
   30MOL0     C 3874   0.530   6.788  -0.065 -0.4796 -0.2781  0.1146
   30MOL0     O 3875   0.249   6.794   0.163 -0.4987 -0.7432  0.7306
   30MOL0     C 3876   0.388   7.092   0.317 -0.6514  0.4106  0.0568
   30MOL0     C 3877   0.385   7.171   0.435  0.1690  0.2958  0.2943
   30MOL0     N 3878   0.479   7.389   1.139 -0.4051  0.4270  0.8844
   30MOL0     N 3879   0.476   7.274   1.204 -0.7054 -0.0860  0.5564
   30MOL0     C 3880   0.506   6.280   0.836 -0.0648 -0.3148  0.4986
   30MOL0     C 3881   0.519   6.170   0.915  0.7722 -0.2546  0.0947
   30MOL0     C 3882   0.403   5.776   1.149  0.4226 -0.0753  0.0962
   30MOL0     C 3883   0.323   5.700   1.231 -0.4139 -0.3417  0.8560
   30MOL0     C 3884   0.356   5.572   1.269  0.1782 -0.7034 -0.7619
   30MOL0     C 3885   0.477   5.517   1.217 -0.2429  0.2670 -0.3200
   30MOL0     O 3886   0.517   5.392   1.267 -0.2292  0.1266  0.2067
   30MOL0     C 3887   0.646   5.341   1.237  0.1728 -1.6041 -0.0296
   30MOL0     C 3888   0.673   5.211   1.303 -0.7244 -0.1674  0.0048
   30MOL0     C 3889   0.830   5.199   1.324  0.3521 -0.2486 -0.1433
   30MOL0     C 3890   0.874   5.061   1.368 -0.0702 -0.1706  0.1858
   30MOL0     C 3891   1.020   5.055   1.372 -0.8858 -0.0814 -0.1994
   30MOL0     C 3892   1.140   5.048   1.370  0.0599  0.0209 -0.3880
   30MOL0     C 3893   0.560   5.590   1.140 -0.8940 -0.2380 -0.5051
   30MOL0     C 3894   0.519   5.716   1.099 -0.1596  0.4497  0.8946
   30MOL0     H 3895   0.210   6.030   0.882  1.1409 -2.0292 -2.3162
   30MOL0     H 3896   0.168   6.232   0.773  0.0126 -1.5704  2.2740
   30MOL0     H 3897   0.147   6.427   0.700  1.1854 -1.2975  1.8720
   30MOL0     H 3898   0.237   6.562   0.633 -4.6635 -0.7265 -0.7838
   30MOL0     H 3899   0.277   6.513   0.933 -2.7670 -0.4812  1.4779
   30MOL0     H 3900   0.129   6.595   0.882  0.3281 -2.0058  3.3431
   30MOL0     H 3901   0.252   6.764   0.771  2.7316 -0.0844 -2.7392
   30MOL0     H 3902   0.409   6.694   0.798  1.7174  3.1100  3.0969
   30MOL0     H 3903   0.239   6.730   1.047  0.8436  0.2744  1.3233
   30MOL0     H 3904   0.401   6.676   1.033 -0.6169 -0.5233  1.3168
   30MOL0     H 3905   0.350   6.951   0.923 -1.3235  0.4649  0.5003
   30MOL0     H 3906   0.508   6.865   0.953 -0.5532 -0.7724 -0.0733
   30MOL0     H 3907   0.501   7.025   1.128 -0.9351  1.1245 -1.3031
   30MOL0     H 3908   0.458   6.869   1.197 -0.6317 -0.0557  0.4621
   30MOL0     H 3909   0.242   7.062   1.105  3.8450  1.8125 -3.0491
   30MOL0     H 3910   0.242   6.925   1.224 -0.6361  1.1383  0.1708
   30MOL0     H 3911   0.391   7.075   1.368 -1.7908 -0.9485  2.0394
   30MOL0     H 3912   0.220   7.124   1.343 -1.7264 -3.0113 -3.5095
   30MOL0     H 3913   0.162   7.313   1.140 -0.3387  1.4214  1.6620
   30MOL0     H 3914   0.367   7.616   1.024  0.2933 -0.4233 -2.0355
   30MOL0     H 3915   0.206   7.562   1.034 -0.1058 -0.3494 -0.3931
   30MOL0     H 3916   0.322   7.557   0.787 -4.0234  0.0669 -2.8013
   30MOL0     H 3917   0.192   7.453   0.863  0.8607 -0.8087  3.1175
   30MOL0     H 3918   0.477   7.375   0.863 -1.3679  0.9592  2.1870
   30MOL0     H 3919   0.340   7.272   0.901  2.5621 -0.1238  1.4253
   30MOL0     H 3920   0.482   7.294   0.654  1.0050  1.2889  1.2709
   30MOL0     H 3921   0.324   7.353   0.613  1.6247 -0.3899 -2.1492
   30MOL0     H 3922   0.236   6.919   0.620  0.6077  1.0561  1.8775
   30MOL0     H 3923   0.234   6.816   0.420 -0.4498 -0.5381 -3.3150
   30MOL0     H 3924   0.254   6.979  -0.122  2.1749  1.2614 -0.5640
   30MOL0     H 3925   0.262   6.854  -0.343 -2.5880 -2.2192  0.6877
   30MOL0     H 3926   0.534   6.507  -0.317 -1.6157 -0.7167  1.2503
   30MOL0     H 3927   0.524   6.504  -0.494 -3.2541 -0.6589 -1.3415
   30MOL0     H 3928   0.290   6.511  -0.497 -1.3320  1.8557  0.8296
   30MOL0     H 3929   0.275   6.515  -0.330 -1.9526 -2.0457  0.4627
   30MOL0     H 3930   0.247   6.294  -0.345 -0.6947  1.4500 -0.1928
   30MOL0     H 3931   0.416   6.272  -0.324 -0.3699  2.8073  1.3299
   30MOL0     H 3932   0.281   6.305  -0.595 -0.9523  1.1174  2.7469
   30MOL0     H 3933   0.444   6.234  -0.575  1.6450 -0.8256  1.5171
   30MOL0     H 3934   0.283   6.070  -0.623  0.0340  1.0277 -1.6925
   30MOL0     H 3935   0.176   6.099  -0.498  0.3094  0.9668 -0.4871
   30MOL0     H 3936   0.343   6.016  -0.310 -0.8544 -1.4670  1.4618
   30MOL0     H 3937   0.464   6.035  -0.434 -0.7836 -0.0312  0.1156
   30MOL0     H 3938   0.375   5.790  -0.373 -2.4850  0.1092  1.1618
   30MOL0     H 3939   0.235   5.845  -0.460 -0.8045  2.6167 -0.0706
   30MOL0     H 3940   0.416   5.899  -0.655 -5.9263 -0.9373 -0.9199
   30MOL0     H 3941   0.375   5.731  -0.610 -5.3525  2.1650  2.6649
   30MOL0     H 3942   0.628   6.659  -0.213 -2.4632 -1.2822 -2.3377
   30MOL0     H 3943   0.605   6.781   0.012  1.1470  0.5664 -1.3192
   30MOL0     H 3944   0.447   7.140   0.240  2.6789  0.1530  2.2202
   30MOL0     H 3945   0.444   7.263   0.434  4.8955 -2.3950 -1.6826
   30MOL0     H 3946   0.586   6.353   0.822 -1.3692  0.7453 -2.1347
   30MOL0     H 3947   0.609   6.161   0.975  2.2407  2.7048 -1.4463
   30MOL0     H 3948   0.221   5.731   1.253 -0.6050  0.3084 -0.8270
   30MOL0     H 3949   0.304   5.516   1.345  3.9715 -2.9348  0.4413
   30MOL0     H 3950   0.721   5.416   1.266 -0.8101  0.6818 -2.8590
   30MOL0     H 3951   0.663   5.351   1.129  0.0613  5.4186  0.1074
   30MOL0     H 3952   0.626   5.205   1.401  0.5208  3.9905  1.0631
   30MOL0     H 3953   0.642   5.131   1.235 -0.8790 -0.0562 -0.0563
   30MOL0     H 3954   0.864   5.284   1.384 -1.3085  1.2526 -1.2272
   30MOL0     H 3955   0.869   5.218   1.224 -2.1314  2.7771 -0.7053
   30MOL0     H 3956   0.835   5.036   1.468  2.1477  0.7535  1.3453
   30MOL0     H 3957   0.826   4.994   1.296 -3.3126  2.0335  0.0503
   30MOL0     H 3958   1.247   5.047   1.373  0.0773  1.6626  1.0168
   30MOL0     H 3959   0.659   5.568   1.103 -0.4624  1.5036 -0.5068
   30MOL0     H 3960   0.586   5.759   1.026  1.1840 -3.2760 -0.3000
   31MOL0     O 3961   7.725   5.127   0.615 -0.5299 -0.6679  0.2639
   31MOL0     C 3962   7.734   5.035   0.538  0.2795 -0.3071  0.8176
   31MOL0     O 3963   7.778   5.036   0.407  0.4256  0.0772  1.0510
   31MOL0     C 3964   7.857   5.136   0.366 -0.3232  0.2913  0.4438
   31MOL0     C 3965   7.808   5.223   0.275  0.2994  0.0347  0.8175
   31MOL0     C 3966   7.886   5.333   0.237  0.8689  0.2873  0.3156
   31MOL0     C 3967   8.020   5.344   0.279  0.1682  0.0788  0.0583
   31MOL0     O 3968   8.099   5.451   0.232 -0.9812  0.2172  0.1181
   31MOL0     C 3969   8.239   5.433   0.214 -0.5193  0.4938 -0.7587
   31MOL0     C 3970   8.295   5.555   0.132  0.9607 -0.0704 -1.0483
   31MOL0     C 3971   8.429   5.525   0.073  0.8639 -0.0557  0.6027
   31MOL0     C 3972   8.464   5.639  -0.022 -0.1931  0.2181  0.4575
   31MOL0     C 3973   8.606   5.631  -0.081  0.2148 -0.9825  0.3881
   31MOL0     C 3974   8.635   5.731  -0.196 -0.2300 -0.2829  0.7752
   31MOL0     C 3975   8.784   5.739  -0.215  0.2597 -0.1873  0.0054
   31MOL0     C 3976   8.847   5.623  -0.291  0.4356  0.3418 -0.4109
   31MOL0     N 3977   8.995   5.631  -0.295  0.6772 -0.5047  0.3086
   31MOL0     C 3978   9.077   5.690  -0.201 -0.2687  0.1205  0.4839
   31MOL0     C 3979   9.201   5.645  -0.232 -0.2553 -0.8432  0.3206
   31MOL0     C 3980   9.336   5.653  -0.174  0.0487 -0.2661  0.1020
   31MOL0     C 3981   9.355   5.751  -0.064  0.0177  0.4244 -0.0454
   31MOL0     C 3982   9.319   5.892  -0.112  0.2493 -1.4420 -0.8853
   31MOL0     C 3983   9.386   6.015  -0.055 -0.3171 -0.8186  0.0531
   31MOL0     O 3984   9.363   6.012   0.084  0.3559 -0.1995 -0.4979
   31MOL0     C 3985   9.261   6.078   0.141 -0.4284  0.3002  0.2251
   31MOL0     C 3986   9.195   6.190   0.091  0.7335  0.7490 -1.0438
   31MOL0     C 3987   9.101   6.264   0.168  0.6423 -0.0637  0.6932
   31MOL0     C 3988   9.067   6.225   0.299 -0.4774 -0.0284 -0.0544
   31MOL0     C 3989   8.965   6.289   0.384  0.0138  0.0031  0.8136
   31MOL0     O 3990   8.884   6.385   0.336 -0.0433 -0.2715  0.6593
   31MOL0     C 3991   8.805   6.452   0.427  0.2716  0.5388 -0.7390
   31MOL0     C 3992   8.676   6.499   0.395 -0.2348  0.2801  0.4586
   31MOL0     C 3993   8.602   6.565   0.492 -0.2738 -1.0849  0.2928
   31MOL0     C 3994   8.663   6.610   0.606  0.0199  0.6183 -0.5534
   31MOL0     O 3995   8.596   6.677   0.701 -0.1310  0.0656  0.1362
   31MOL0     C 3996   8.652   6.703   0.828  0.6092 -0.3494 -0.0813
   31MOL0     C 3997   8.541   6.749   0.934 -0.5001  0.8368 -0.6744
   31MOL0     C 3998   8.435   6.636   0.934 -0.2200 -0.6958 -0.6939
   31MOL0     C 3999   8.305   6.663   0.999  0.1186  0.5199  0.6589
   31MOL0     C 4000   8.197   6.563   0.953 -0.1914 -0.7088 -0.2257
   31MOL0     C 4001   8.239   6.414   0.956  0.0918 -0.8627  0.6708
   31MOL0     C 4002   8.289   6.387   1.095 -0.3121  0.0656 -0.7585
   31MOL0     C 4003   8.280   6.233   1.097  0.9691 -0.7855  0.2091
   31MOL0    Cl 4004   8.350   6.184   1.263 -0.0414  0.0393 -0.2592
   31MOL0     C 4005   8.796   6.581   0.621  0.1376  0.7689  0.2369
   31MOL0     C 4006   8.871   6.504   0.536 -0.7090 -0.1727 -0.6818
   31MOL0     O 4007   8.958   6.228   0.490  0.4834  0.1718 -0.5834
   31MOL0     C 4008   9.144   6.111   0.344 -0.2861  0.5469  0.4122
   31MOL0     C 4009   9.238   6.046   0.265 -0.1014  1.2992  0.1047
   31MOL0     N 4010   9.196   5.582  -0.353  0.5719  0.3227  0.2906
   31MOL0     N 4011   9.073   5.580  -0.393 -0.3441 -0.6870  0.1873
   31MOL0     C 4012   8.073   5.257   0.379  0.3360 -0.3834  0.1347
   31MOL0     C 4013   7.988   5.159   0.422 -0.3040  0.8865  0.0401
   31MOL0     C 4014   7.671   4.909   0.575 -0.5103 -0.5085  1.1795
   31MOL0     C 4015   7.688   4.856   0.704 -0.7008 -0.9599 -0.4532
   31MOL0     C 4016   7.636   4.734   0.736 -0.3026 -0.3940 -0.1086
   31MOL0     C 4017   7.573   4.650   0.637 -1.7817 -0.7636 -0.2434
   31MOL0     O 4018   7.530   4.523   0.656  0.1285 -0.1188 -0.2318
   31MOL0     C 4019   7.558   4.452   0.783  1.8247 -0.0587 -0.1932
   31MOL0     C 4020   7.520   4.304   0.775 -1.1108 -1.0854 -0.1525
   31MOL0     C 4021   7.537   4.237   0.913  1.2526 -0.4545 -0.4360
   31MOL0     C 4022   7.426   4.131   0.938 -1.0329  0.3098  0.1029
   31MOL0     C 4023   7.452   4.004   0.857  0.1135 -0.1038  0.1513
   31MOL0     C 4024   7.474   3.904   0.802 -1.3190  0.5160 -1.3114
   31MOL0     C 4025   7.564   4.694   0.503  0.2409  0.1714 -0.3874
   31MOL0     C 4026   7.601   4.830   0.479  0.0369 -0.7780 -0.2507
   31MOL0     H 4027   7.707   5.203   0.239  0.8103  0.1628 -0.7583
   31MOL0     H 4028   7.853   5.399   0.158 -2.4329 -1.5853 -0.0270
   31MOL0     H 4029   8.262   5.336   0.169  0.2911  0.3862 -0.1359
   31MOL0     H 4030   8.285   5.438   0.313  1.4017  0.4626 -1.5833
   31MOL0     H 4031   8.292   5.640   0.202 -0.5849  0.8738 -2.1940
   31MOL0     H 4032   8.217   5.575   0.058  0.7613  1.8316 -0.3941
   31MOL0     H 4033   8.427   5.432   0.015  2.3924 -1.2085  2.2615
   31MOL0     H 4034   8.502   5.510   0.154  1.3178 -0.9972  0.0495
   31MOL0     H 4035   8.384   5.640  -0.098 -3.4401 -3.3540  3.3837
   31MOL0     H 4036   8.451   5.730   0.037 -0.3000  0.7442 -0.3618
   31MOL0     H 4037   8.626   5.529  -0.115  1.2698  0.0751 -2.4053
   31MOL0     H 4038   8.667   5.657   0.006 -0.6286  0.5553  0.5473
   31MOL0     H 4039   8.616   5.835  -0.170 -0.0619  0.4732 -1.7895
   31MOL0     H 4040   8.586   5.701  -0.290  1.9341 -2.9625  0.3547
   31MOL0     H 4041   8.795   5.831  -0.274  0.3596 -1.8311 -2.7481
   31MOL0     H 4042   8.842   5.761  -0.125  0.3202  3.4479 -0.7740
   31MOL0     H 4043   8.813   5.631  -0.395 -0.3422 -2.3054 -0.4178
   31MOL0     H 4044   8.807   5.535  -0.240 -0.7066  1.2114  0.2622
   31MOL0     H 4045   9.071   5.747  -0.108  2.1536  2.2837 -0.5671
   31MOL0     H 4046   9.400   5.677  -0.260 -1.5693  0.6084 -0.8978
   31MOL0     H 4047   9.357   5.554  -0.134 -2.8992  0.1771  3.1513
   31MOL0     H 4048   9.462   5.747  -0.041  0.4636 -4.2124 -1.7911
   31MOL0     H 4049   9.292   5.701   0.010  2.3333 -1.7032  0.6187
   31MOL0     H 4050   9.333   5.913  -0.219 -2.7392  0.9521 -0.9499
   31MOL0     H 4051   9.214   5.911  -0.087  1.1294 -0.0626  2.2354
   31MOL0     H 4052   9.342   6.101  -0.108  0.9660 -0.8381 -1.1154
   31MOL0     H 4053   9.492   6.016  -0.083 -0.7162  0.9708 -1.7092
   31MOL0     H 4054   9.210   6.224  -0.011  0.9897  1.3259 -0.8179
   31MOL0     H 4055   9.047   6.346   0.121 -0.3582  0.6286  2.9102
   31MOL0     H 4056   8.624   6.456   0.310  2.2506 -1.2872 -0.3727
   31MOL0     H 4057   8.496   6.580   0.473 -0.5819 -0.3077  2.3753
   31MOL0     H 4058   8.735   6.774   0.821  0.0638  0.9759  4.0019
   31MOL0     H 4059   8.700   6.611   0.861  2.4136  0.6184  0.1163
   31MOL0     H 4060   8.498   6.847   0.914  2.2687  1.9675 -1.5248
   31MOL0     H 4061   8.585   6.750   1.035 -2.1643 -3.1138  0.2488
   31MOL0     H 4062   8.474   6.538   0.964 -1.9278 -0.5335  2.4910
   31MOL0     H 4063   8.400   6.617   0.832  1.2931 -2.1838 -0.9846
   31MOL0     H 4064   8.316   6.668   1.107 -2.3760 -0.0889  0.9885
   31MOL0     H 4065   8.272   6.764   0.971 -0.0726  0.0816 -0.8124
   31MOL0     H 4066   8.169   6.594   0.852  2.7273 -0.1585 -0.9534
   31MOL0     H 4067   8.111   6.576   1.019  0.6084 -1.1158  0.9416
   31MOL0     H 4068   8.322   6.402   0.886  0.1556  1.5279  0.2575
   31MOL0     H 4069   8.150   6.354   0.931 -0.1567  0.7587 -2.9548
   31MOL0     H 4070   8.395   6.409   1.110  0.1062 -0.9491 -2.0602
   31MOL0     H 4071   8.237   6.428   1.182  2.2614  0.4352  0.7153
   31MOL0     H 4072   8.338   6.189   1.016  0.7451 -2.9338  1.1511
   31MOL0     H 4073   8.177   6.199   1.089  0.0942  1.8648 -0.6868
   31MOL0     H 4074   8.849   6.604   0.713  1.7779 -0.0126 -0.4774
   31MOL0     H 4075   8.979   6.506   0.551  0.0323  1.6240 -4.7437
   31MOL0     H 4076   9.118   6.069   0.441 -0.2405 -0.1674  0.1224
   31MOL0     H 4077   9.309   5.978   0.312 -0.5874  0.7597  0.0703
   31MOL0     H 4078   8.171   5.258   0.427  0.8656  0.0838 -0.9227
   31MOL0     H 4079   8.021   5.104   0.510 -0.6143  0.7417  0.0702
   31MOL0     H 4080   7.734   4.922   0.778 -1.8888 -1.5789  0.8742
   31MOL0     H 4081   7.661   4.694   0.834 -0.9009 -1.1267 -0.2419
   31MOL0     H 4082   7.506   4.506   0.862 -0.8031  1.8968 -3.0035
   31MOL0     H 4083   7.665   4.461   0.804  1.9544 -0.2415 -0.7554
   31MOL0     H 4084   7.415   4.287   0.747 -1.7035 -0.6053  1.6494
   31MOL0     H 4085   7.578   4.252   0.698 -2.0790 -0.9974 -0.9720
   31MOL0     H 4086   7.528   4.303   1.001 -0.2791 -2.7268  1.2295
   31MOL0     H 4087   7.638   4.195   0.915  1.6903  0.5819  1.1377
   31MOL0     H 4088   7.432   4.093   1.041 -1.8933 -0.5199 -0.1316
   31MOL0     H 4089   7.328   4.180   0.937 -0.6766  1.0432 -1.4671
   31MOL0     H 4090   7.483   3.815   0.743 -3.5759 -0.7500  0.1270
   31MOL0     H 4091   7.525   4.636   0.419 -2.1533  1.1977 -0.0620
   31MOL0     H 4092   7.578   4.860   0.377  2.3245  2.4701  0.0259
   32MOL0     O 4093   5.020   4.201   8.744 -0.1174  0.1830  0.4847
   32MOL0     C 4094   5.081   4.165   8.850 -1.2988 -0.6577  0.9184
   32MOL0     O 4095   5.152   4.243   8.929  0.2041  0.1148 -0.4640
   32MOL0     C 4096   5.180   4.373   8.883 -0.3323  0.7107 -0.0609
   32MOL0     C 4097   5.145   4.468   8.967  0.1153  0.0815  0.3001
   32MOL0     C 4098   5.149   4.607   8.938  1.0809  0.4264 -0.6456
   32MOL0     C 4099   5.190   4.642   8.808 -0.2212 -0.2560 -0.0082
   32MOL0     O 4100   5.198   4.765   8.756  0.3741 -0.0132  1.2694
   32MOL0     C 4101   5.198   4.877   8.851 -0.2435  0.8357  0.3290
   32MOL0     C 4102   5.198   5.016   8.779  0.8552 -0.3967 -0.4028
   32MOL0     C 4103   5.264   5.125   8.873 -0.1050 -0.9977  0.6348
   32MOL0     C 4104   5.228   5.276   8.871 -0.5515  0.2415 -0.1762
   32MOL0     C 4105   5.284   5.345   8.748 -0.6826 -0.6308 -0.5902
   32MOL0     C 4106   5.196   5.342   8.630  0.6389  0.4863  0.0690
   32MOL0     C 4107   5.253   5.419   8.499  0.6350  0.3446 -0.4010
   32MOL0     C 4108   5.294   5.559   8.523  0.0561 -1.1942 -0.1725
   32MOL0     N 4109   5.186   5.654   8.559  0.0785  0.4988  0.0245
   32MOL0     C 4110   5.110   5.668   8.679 -1.0895 -0.6602 -0.1840
   32MOL0     C 4111   5.035   5.777   8.649  0.0627  0.9627  0.5997
   32MOL0     C 4112   4.927   5.833   8.736 -0.1433  1.5870  0.1805
   32MOL0     C 4113   4.794   5.810   8.668 -0.2824  0.5571 -0.8348
   32MOL0     C 4114   4.687   5.882   8.746 -0.3864  0.4924 -1.6552
   32MOL0     C 4115   4.554   5.878   8.674 -0.1516  1.4130  0.3914
   32MOL0     O 4116   4.507   5.740   8.659  0.2610 -0.7760 -0.0993
   32MOL0     C 4117   4.386   5.731   8.594 -0.0894 -0.2110  0.1043
   32MOL0     C 4118   4.314   5.827   8.524 -0.8930 -0.5939  0.5996
   32MOL0     C 4119   4.199   5.803   8.451  0.1813  0.0436  0.2900
   32MOL0     C 4120   4.131   5.678   8.446 -0.4132  0.9225  0.0997
   32MOL0     C 4121   4.005   5.666   8.382  1.0108  0.0515 -0.0608
   32MOL0     O 4122   3.941   5.780   8.345  1.1039  0.1339  0.1558
   32MOL0     C 4123   3.813   5.766   8.284  0.6524  0.3937 -0.4323
   32MOL0     C 4124   3.727   5.877   8.287 -0.9298 -0.3258 -0.2991
   32MOL0     C 4125   3.603   5.881   8.225  0.2539 -0.3221  0.5569
   32MOL0     C 4126   3.564   5.774   8.145  0.7007  0.6146 -0.1146
   32MOL0     O 4127   3.440   5.784   8.075  0.1044  0.0632 -0.2805
   32MOL0     C 4128   3.355   5.662   8.058  0.3833 -0.3241 -0.5456
   32MOL0     C 4129   3.255   5.702   7.954 -0.1114  0.2699 -0.4642
   32MOL0     C 4130   3.135   5.608   7.937 -0.0290 -0.4702 -0.2438
   32MOL0     C 4131   3.033   5.636   8.043 -0.0373 -0.2566 -0.4521
   32MOL0     C 4132   2.904   5.563   8.015 -0.2003  0.3407 -0.3342
   32MOL0     C 4133   2.903   5.424   8.076  0.2428 -0.6531 -0.3595
   32MOL0     C 4134   2.769   5.354   8.058  0.4979  0.0549 -0.2940
   32MOL0     C 4135   2.769   5.218   8.123  0.1592 -0.5454 -0.0186
   32MOL0    Cl 4136   2.613   5.151   8.196  0.1761 -0.5803  0.3259
   32MOL0     C 4137   3.648   5.673   8.127 -1.1550 -0.1212 -0.4227
   32MOL0     C 4138   3.771   5.666   8.190 -0.2444  0.0556 -0.2690
   32MOL0     O 4139   3.956   5.558   8.379 -0.5464  0.1671 -0.2846
   32MOL0     C 4140   4.204   5.571   8.518 -0.2109  0.7004 -0.0698
   32MOL0     C 4141   4.325   5.605   8.577 -1.2427 -0.1640 -0.2127
   32MOL0     N 4142   5.045   5.809   8.518 -0.3004  0.5995 -0.2514
   32MOL0     N 4143   5.129   5.738   8.471 -0.0380 -0.3831 -0.7292
   32MOL0     C 4144   5.234   4.544   8.720 -0.1168 -0.7508 -0.0063
   32MOL0     C 4145   5.242   4.407   8.759  0.0855 -0.5734 -0.3507
   32MOL0     C 4146   5.078   4.034   8.906 -0.3538 -0.5354  0.1601
   32MOL0     C 4147   5.025   3.937   8.824 -0.6248 -0.3577  0.6840
   32MOL0     C 4148   5.038   3.802   8.860 -0.1198  0.5474 -0.7957
   32MOL0     C 4149   5.105   3.757   8.975 -0.5640 -0.1298 -0.6663
   32MOL0     O 4150   5.103   3.623   9.016 -0.5381 -0.2333 -0.3182
   32MOL0     C 4151   5.015   3.524   8.965  0.7382  0.4142  0.6049
   32MOL0     C 4152   5.070   3.396   9.022 -1.6545  0.0307 -0.0909
   32MOL0     C 4153   5.211   3.338   8.974  0.7891  0.1731  0.5788
   32MOL0     C 4154   5.268   3.225   9.058  0.5431  0.6520  1.1266
   32MOL0     C 4155   5.366   3.166   8.964  0.1624  0.2138 -0.2060
   32MOL0     C 4156   5.450   3.130   8.885  0.2000  0.3667  0.2357
   32MOL0     C 4157   5.159   3.853   9.057 -0.0818 -1.2173 -0.1864
   32MOL0     C 4158   5.144   3.991   9.022  0.2816  1.1033  0.2109
   32MOL0     H 4159   5.112   4.440   9.067  1.4310  0.8025  0.9748
   32MOL0     H 4160   5.124   4.692   8.999 -0.9184  0.8070 -1.8754
   32MOL0     H 4161   5.299   4.866   8.891 -0.8601  2.2378  2.4390
   32MOL0     H 4162   5.123   4.868   8.930 -0.9559 -3.4622 -0.6044
   32MOL0     H 4163   5.100   5.062   8.766  0.7025  0.7219  3.4261
   32MOL0     H 4164   5.260   5.011   8.689  2.3959 -1.3419  0.6662
   32MOL0     H 4165   5.371   5.112   8.860 -0.3568 -1.1296 -1.6982
   32MOL0     H 4166   5.232   5.095   8.974 -1.5392  0.9407  0.8403
   32MOL0     H 4167   5.120   5.293   8.878 -0.3252  1.7582 -0.1604
   32MOL0     H 4168   5.278   5.320   8.957 -0.6112 -0.5570  0.2794
   32MOL0     H 4169   5.380   5.301   8.719  0.2502  1.9319 -1.6153
   32MOL0     H 4170   5.310   5.450   8.765 -2.3436 -0.2141 -0.4839
   32MOL0     H 4171   5.103   5.391   8.658  0.0313 -1.1424  0.9665
   32MOL0     H 4172   5.177   5.238   8.602  1.4110  0.3706 -0.0634
   32MOL0     H 4173   5.336   5.357   8.464  0.2077 -0.3747 -0.1514
   32MOL0     H 4174   5.190   5.418   8.410 -0.0740 -0.6201  0.0988
   32MOL0     H 4175   5.355   5.592   8.439 -0.9487  0.6832 -0.2060
   32MOL0     H 4176   5.373   5.557   8.598  0.8606 -1.5985 -1.0131
   32MOL0     H 4177   5.097   5.596   8.760 -1.9444 -0.9428 -0.5520
   32MOL0     H 4178   4.944   5.936   8.771 -1.3088  1.4706  1.1374
   32MOL0     H 4179   4.916   5.765   8.820 -1.9898  0.4564 -0.8986
   32MOL0     H 4180   4.766   5.704   8.665  0.3028  0.4210 -2.0894
   32MOL0     H 4181   4.794   5.843   8.564 -0.8271 -0.0688 -1.0374
   32MOL0     H 4182   4.670   5.845   8.848 -0.5621  2.4097 -0.9516
   32MOL0     H 4183   4.714   5.988   8.754  0.8189  0.0658  0.6796
   32MOL0     H 4184   4.568   5.933   8.581 -0.2164  3.6179  1.6088
   32MOL0     H 4185   4.467   5.925   8.721 -2.4773 -1.1882 -1.0238
   32MOL0     H 4186   4.348   5.930   8.535  0.5179 -1.1260  1.4845
   32MOL0     H 4187   4.162   5.888   8.395 -0.2284  2.0030  3.3322
   32MOL0     H 4188   3.768   5.964   8.337 -0.5710  0.6333 -2.1539
   32MOL0     H 4189   3.535   5.964   8.237  1.4040  0.6022  0.8980
   32MOL0     H 4190   3.305   5.643   8.154  3.4395  1.4466  1.5826
   32MOL0     H 4191   3.410   5.572   8.030  1.0393 -0.0224 -0.2600
   32MOL0     H 4192   3.314   5.705   7.862  0.4922 -0.8165 -0.1435
   32MOL0     H 4193   3.216   5.803   7.964  1.5313  1.0008 -1.1412
   32MOL0     H 4194   3.172   5.505   7.931  0.5668 -0.2778 -0.0076
   32MOL0     H 4195   3.100   5.626   7.835 -2.0507  0.7504  0.6013
   32MOL0     H 4196   3.068   5.600   8.140 -2.7722 -0.6331  0.4792
   32MOL0     H 4197   3.008   5.743   8.038 -2.0045 -0.7288 -1.5085
   32MOL0     H 4198   2.865   5.555   7.914 -0.2997 -3.8736 -0.1454
   32MOL0     H 4199   2.830   5.628   8.063  0.6717  0.6634  0.6244
   32MOL0     H 4200   2.912   5.439   8.184  0.7723  0.6217 -0.5616
   32MOL0     H 4201   2.981   5.364   8.028 -1.7865 -0.3713 -4.3600
   32MOL0     H 4202   2.702   5.415   8.119  1.3365 -2.2160  3.1530
   32MOL0     H 4203   2.714   5.344   7.964 -0.3325  0.2632  0.1593
   32MOL0     H 4204   2.841   5.225   8.205  0.3670  1.7371 -0.3522
   32MOL0     H 4205   2.803   5.139   8.055 -1.0444 -1.4965  0.4400
   32MOL0     H 4206   3.617   5.594   8.060  0.0067 -0.6144 -0.4041
   32MOL0     H 4207   3.840   5.585   8.170 -0.6476 -1.5631  3.8540
   32MOL0     H 4208   4.175   5.467   8.522  1.9852  0.0718  1.2391
   32MOL0     H 4209   4.375   5.528   8.635 -0.3076  1.1492  0.8194
   32MOL0     H 4210   5.252   4.575   8.617 -0.2213  2.1170  0.7395
   32MOL0     H 4211   5.287   4.333   8.694 -1.8784 -1.6282 -0.5852
   32MOL0     H 4212   4.963   3.944   8.735 -1.4814  0.1965  1.3095
   32MOL0     H 4213   4.982   3.741   8.790 -1.1729  3.2699 -2.5258
   32MOL0     H 4214   5.002   3.514   8.856  0.1676 -2.3304  0.8361
   32MOL0     H 4215   4.912   3.537   9.000  0.7149 -1.1079  1.1797
   32MOL0     H 4216   5.071   3.417   9.130 -1.5948 -0.0341 -0.0784
   32MOL0     H 4217   4.999   3.313   9.010  1.2764 -2.6808  0.1288
   32MOL0     H 4218   5.290   3.411   8.993  1.2795 -0.0473 -0.5834
   32MOL0     H 4219   5.220   3.325   8.866  1.1485  3.9123  0.0296
   32MOL0     H 4220   5.314   3.261   9.151  0.3752  1.9776  0.7196
   32MOL0     H 4221   5.203   3.141   9.084  4.5256 -2.2116  2.8759
   32MOL0     H 4222   5.513   3.094   8.806 -2.9245 -2.0013 -1.4425
   32MOL0     H 4223   5.213   3.821   9.145  1.9206  0.6420 -0.6488
   32MOL0     H 4224   5.190   4.062   9.089  2.8423  2.4869 -2.7397
   33MOL0     O 4225   0.964   7.304   7.285 -0.9274 -1.2361 -0.3156
   33MOL0     C 4226   1.053   7.384   7.327 -0.1693 -0.7758  0.6053
   33MOL0     O 4227   1.025   7.504   7.389  0.2092  0.1495 -0.7634
   33MOL0     C 4228   0.916   7.577   7.344 -0.1418 -0.4220 -0.4511
   33MOL0     C 4229   0.788   7.564   7.406 -1.0410  0.5829  0.0052
   33MOL0     C 4230   0.676   7.626   7.338 -0.2933  0.1248 -0.9527
   33MOL0     C 4231   0.695   7.699   7.222  0.7736  0.4477  0.1498
   33MOL0     O 4232   0.586   7.768   7.172 -0.7235  0.1941  0.2545
   33MOL0     C 4233   0.594   7.908   7.157 -0.1003 -0.1488  0.4984
   33MOL0     C 4234   0.479   7.956   7.058 -0.8629 -0.1371 -0.4439
   33MOL0     C 4235   0.452   8.110   7.059  0.6021  0.0676  0.7644
   33MOL0     C 4236   0.570   8.182   6.984  0.9527  0.3871 -0.1159
   33MOL0     C 4237   0.522   8.301   6.889 -1.1532 -0.3668  1.2267
   33MOL0     C 4238   0.458   8.427   6.958 -0.6697 -0.7848 -0.5147
   33MOL0     C 4239   0.402   8.528   6.848 -0.3617 -0.4608  0.2582
   33MOL0     C 4240   0.305   8.625   6.905  0.7664 -1.3658  0.2715
   33MOL0     N 4241   0.375   8.758   6.940 -0.3050 -0.0119 -0.3263
   33MOL0     C 4242   0.367   8.864   6.853  0.2023  0.9598  0.4831
   33MOL0     C 4243   0.423   8.971   6.929  0.0915  0.4992 -0.4329
   33MOL0     C 4244   0.460   9.110   6.894  0.1253  1.2520  0.0076
   33MOL0     C 4245   0.597   9.099   6.831 -0.6627 -0.3526 -0.3995
   33MOL0     C 4246   0.649   9.251   6.814 -0.7930  0.2592  0.1028
   33MOL0     C 4247   0.786   9.266   6.758  0.0396  0.4613  0.5375
   33MOL0     O 4248   0.766   9.240   6.612  0.0163  0.5422  1.0219
   33MOL0     C 4249   0.880   9.202   6.545  0.5595 -0.6449 -0.9295
   33MOL0     C 4250   1.014   9.238   6.579  0.6292  0.1292  0.0043
   33MOL0     C 4251   1.121   9.204   6.501 -2.0354 -0.1640  0.4429
   33MOL0     C 4252   1.114   9.144   6.375  0.4283 -0.2614 -0.0196
   33MOL0     C 4253   1.226   9.114   6.292 -0.1430 -0.8615  0.3861
   33MOL0     O 4254   1.198   9.145   6.161  0.0705 -0.2037  0.0015
   33MOL0     C 4255   1.303   9.170   6.063 -0.0556  0.3259 -1.1821
   33MOL0     C 4256   1.428   9.221   6.101 -0.6288 -0.0596 -0.2658
   33MOL0     C 4257   1.518   9.247   5.999  0.1268 -1.2015  0.3798
   33MOL0     C 4258   1.496   9.220   5.866  0.0619 -0.1856 -0.6415
   33MOL0     O 4259   1.608   9.246   5.790 -0.2770  0.7844  0.2795
   33MOL0     C 4260   1.614   9.217   5.654 -0.2851  0.5411 -0.1217
   33MOL0     C 4261   1.722   9.110   5.647  0.1401  0.8812  0.0905
   33MOL0     C 4262   1.855   9.153   5.720 -0.2788  0.1929 -0.1699
   33MOL0     C 4263   1.971   9.060   5.667  0.2211 -0.0032  0.5759
   33MOL0     C 4264   2.109   9.087   5.729 -0.0516 -0.3768 -0.3897
   33MOL0     C 4265   2.188   9.209   5.685  1.2589 -0.2671 -0.3389
   33MOL0     C 4266   2.323   9.172   5.641 -0.2621  0.0243 -0.6737
   33MOL0     C 4267   2.333   9.080   5.516 -0.3349  0.1242 -0.5725
   33MOL0    Cl 4268   2.514   9.049   5.490 -0.0743  0.5049  0.3313
   33MOL0     C 4269   1.357   9.184   5.831  0.0906 -0.5708 -0.1175
   33MOL0     C 4270   1.264   9.182   5.929 -0.4316  0.2161  0.5428
   33MOL0     O 4271   1.323   9.057   6.342  0.2641  0.4162 -0.2551
   33MOL0     C 4272   0.980   9.111   6.332  0.3510 -0.5078  0.5528
   33MOL0     C 4273   0.870   9.132   6.422  0.9764  1.1202  0.1240
   33MOL0     N 4274   0.459   8.917   7.055 -0.6110  1.1177  0.3904
   33MOL0     N 4275   0.424   8.791   7.058  0.4499  0.1715 -0.3353
   33MOL0     C 4276   0.832   7.714   7.168  0.4295  0.2708  0.4515
   33MOL0     C 4277   0.941   7.645   7.232  0.4186 -0.6219 -0.0001
   33MOL0     C 4278   1.193   7.345   7.306 -0.2993  0.0225  0.5379
   33MOL0     C 4279   1.304   7.436   7.328  0.7954  0.2349  1.0548
   33MOL0     C 4280   1.432   7.399   7.299  0.1386 -0.2059  0.5603
   33MOL0     C 4281   1.473   7.262   7.275  0.5599 -0.8018 -0.3439
   33MOL0     O 4282   1.608   7.241   7.280  0.0918 -1.3735  0.1474
   33MOL0     C 4283   1.681   7.296   7.394 -0.9290  1.0569  0.4607
   33MOL0     C 4284   1.795   7.204   7.428 -0.7986  0.3529 -0.8073
   33MOL0     C 4285   1.907   7.291   7.504 -0.9061  0.7148  0.1063
   33MOL0     C 4286   2.022   7.311   7.412 -0.7020 -1.1776 -0.1826
   33MOL0     C 4287   2.140   7.344   7.480 -0.1804  0.0197 -0.5788
   33MOL0     C 4288   2.235   7.350   7.555 -0.9288 -0.4332 -0.6832
   33MOL0     C 4289   1.363   7.170   7.250  0.8275 -0.3203  0.0247
   33MOL0     C 4290   1.234   7.216   7.249  0.7507  0.1537 -0.9651
   33MOL0     H 4291   0.778   7.497   7.491  2.0324 -2.4681 -1.8243
   33MOL0     H 4292   0.572   7.620   7.366  0.1091 -3.0709  0.2069
   33MOL0     H 4293   0.685   7.939   7.105 -3.0265  2.7683 -3.5310
   33MOL0     H 4294   0.591   7.953   7.257 -0.4368  1.3373 -0.1476
   33MOL0     H 4295   0.390   7.905   7.098 -2.4179  2.2430 -0.6255
   33MOL0     H 4296   0.511   7.919   6.961  0.7067  0.6456 -0.2493
   33MOL0     H 4297   0.419   8.164   7.149 -1.3296  5.3499 -2.6162
   33MOL0     H 4298   0.361   8.128   7.000  2.2619  1.0837 -1.6317
   33MOL0     H 4299   0.645   8.221   7.054  1.0315 -1.0558  0.6390
   33MOL0     H 4300   0.619   8.107   6.922  3.1152  1.5224  0.0995
   33MOL0     H 4301   0.454   8.258   6.816 -0.9779  0.3252  0.6443
   33MOL0     H 4302   0.607   8.341   6.833 -4.1645  1.0563 -2.7897
   33MOL0     H 4303   0.522   8.483   7.027  0.0337  0.5596 -2.1860
   33MOL0     H 4304   0.364   8.399   7.005 -0.5958 -1.3233 -0.6859
   33MOL0     H 4305   0.491   8.576   6.806 -1.0210 -0.7373 -1.5273
   33MOL0     H 4306   0.352   8.472   6.769 -1.4224 -0.7510  1.1148
   33MOL0     H 4307   0.247   8.583   6.988 -1.2812  2.6610  1.1217
   33MOL0     H 4308   0.241   8.640   6.817  2.9693  1.3540 -1.0048
   33MOL0     H 4309   0.321   8.872   6.755  2.4654  1.8571 -0.5988
   33MOL0     H 4310   0.458   9.182   6.977 -0.9521 -1.3409  2.4042
   33MOL0     H 4311   0.381   9.146   6.828 -0.9761 -4.2829 -2.2514
   33MOL0     H 4312   0.575   9.051   6.735 -2.0229 -2.6599  0.9770
   33MOL0     H 4313   0.673   9.044   6.888 -1.2132 -0.6018  0.1016
   33MOL0     H 4314   0.585   9.310   6.747  0.0458  1.2519  0.1536
   33MOL0     H 4315   0.643   9.292   6.916 -2.4346  0.5999 -0.0992
   33MOL0     H 4316   0.855   9.194   6.801 -1.3161  0.3522  2.6309
   33MOL0     H 4317   0.833   9.363   6.781 -0.4801  0.3848  2.0183
   33MOL0     H 4318   1.021   9.320   6.650  2.0935 -1.3464  1.6527
   33MOL0     H 4319   1.225   9.228   6.517 -1.3065 -2.9102  0.4060
   33MOL0     H 4320   1.469   9.208   6.201  4.5005 -2.8860 -2.3657
   33MOL0     H 4321   1.619   9.285   6.012  0.2724 -1.0839 -0.9004
   33MOL0     H 4322   1.646   9.294   5.583  1.5092  0.0590  0.1183
   33MOL0     H 4323   1.524   9.172   5.612  1.8157 -1.9431 -2.3677
   33MOL0     H 4324   1.740   9.082   5.543  1.9917  2.3278 -0.0336
   33MOL0     H 4325   1.684   9.021   5.698 -2.0710  1.3611 -0.6139
   33MOL0     H 4326   1.845   9.136   5.827  2.1748  0.8325  0.2109
   33MOL0     H 4327   1.870   9.259   5.697 -3.0798  0.6178 -0.4963
   33MOL0     H 4328   1.930   8.959   5.665  1.2618 -0.4143 -0.3308
   33MOL0     H 4329   1.994   9.075   5.561 -1.4826 -0.5180  0.0979
   33MOL0     H 4330   2.158   8.989   5.726 -2.3814 -1.6157 -0.6269
   33MOL0     H 4331   2.091   9.103   5.835  1.4555  1.2864 -0.3452
   33MOL0     H 4332   2.212   9.266   5.775  0.7065  0.1303 -0.4377
   33MOL0     H 4333   2.137   9.279   5.617  0.5741  0.8192  1.2304
   33MOL0     H 4334   2.381   9.263   5.623  3.4812 -0.9458  4.4464
   33MOL0     H 4335   2.370   9.115   5.721 -0.7830  3.0079  1.9823
   33MOL0     H 4336   2.299   9.118   5.419 -0.5536  0.6814 -0.2811
   33MOL0     H 4337   2.286   8.983   5.534  0.3902 -0.1127  0.0689
   33MOL0     H 4338   1.330   9.171   5.726 -0.4291 -1.3060  0.0972
   33MOL0     H 4339   1.161   9.159   5.903  0.0490 -1.0263 -0.3522
   33MOL0     H 4340   0.960   9.063   6.237 -0.1327 -0.9017  0.8458
   33MOL0     H 4341   0.776   9.095   6.383  0.3417 -0.0600  2.5640
   33MOL0     H 4342   0.855   7.768   7.077 -1.0145 -2.4233 -1.6686
   33MOL0     H 4343   1.029   7.637   7.169 -1.0827  0.2763 -2.3691
   33MOL0     H 4344   1.279   7.533   7.371  0.5642  0.4220  0.5093
   33MOL0     H 4345   1.507   7.475   7.318  0.0399  0.0244  0.0539
   33MOL0     H 4346   1.615   7.325   7.476 -0.9658  0.0536  0.7933
   33MOL0     H 4347   1.730   7.389   7.364  0.5308 -0.3304 -1.8171
   33MOL0     H 4348   1.756   7.122   7.489  0.9236 -0.8629 -1.2414
   33MOL0     H 4349   1.844   7.151   7.346  0.8814  2.5465 -1.3145
   33MOL0     H 4350   1.936   7.226   7.587  0.0318  1.7056  0.5677
   33MOL0     H 4351   1.877   7.387   7.546  1.5649  0.5326  2.5405
   33MOL0     H 4352   2.052   7.219   7.359 -0.9944 -2.2584  1.4497
   33MOL0     H 4353   1.987   7.392   7.348  1.8347  1.3492  1.4106
   33MOL0     H 4354   2.320   7.354   7.620 -0.4178 -0.2893 -1.3471
   33MOL0     H 4355   1.390   7.067   7.225 -3.9068 -1.8995  0.4087
   33MOL0     H 4356   1.153   7.144   7.244 -1.3567  2.2686  0.4268
   34MOL0     O 4357   5.501  11.417   7.913  1.0725  0.8164 -0.1801
   34MOL0     C 4358   5.556  11.389   7.812 -0.9202  0.5465  0.1918
   34MOL0     O 4359   5.523  11.299   7.715 -0.3184  0.2989  0.3604
   34MOL0     C 4360   5.400  11.254   7.715  0.7890  0.3677  0.1827
   34MOL0     C 4361   5.377  11.122   7.695  0.0254 -0.5762 -0.6462
   34MOL0     C 4362   5.242  11.070   7.687 -0.2250 -0.3358 -0.3419
   34MOL0     C 4363   5.134  11.158   7.705 -0.3156  0.0943 -0.1541
   34MOL0     O 4364   5.006  11.103   7.708 -0.0934 -0.5107  0.3867
   34MOL0     C 4365   4.908  11.150   7.602  0.5468 -0.2361  0.1195
   34MOL0     C 4366   4.801  11.034   7.579  0.2978  1.0506  0.0078
   34MOL0     C 4367   4.839  10.922   7.488 -0.1062 -0.1167 -0.6523
   34MOL0     C 4368   4.940  10.824   7.535  0.2640 -0.0519 -0.2954
   34MOL0     C 4369   4.910  10.753   7.669  0.8971  0.5268 -0.0394
   34MOL0     C 4370   4.769  10.672   7.660  0.0474  0.2106  1.0692
   34MOL0     C 4371   4.765  10.572   7.764  0.0989 -0.4962 -0.6478
   34MOL0     C 4372   4.616  10.534   7.799  0.7029 -0.2862  0.1397
   34MOL0     N 4373   4.544  10.456   7.690  0.2244 -0.8953  0.5735
   34MOL0     C 4374   4.546  10.325   7.656 -0.4453  0.2301 -0.5955
   34MOL0     C 4375   4.439  10.300   7.582 -0.9080  0.3976 -0.6286
   34MOL0     C 4376   4.402  10.174   7.518  0.0894  0.5518  0.3714
   34MOL0     C 4377   4.262  10.151   7.493 -0.0267 -0.1302  0.0251
   34MOL0     C 4378   4.207  10.234   7.379  0.2265  0.1762 -0.6292
   34MOL0     C 4379   4.093  10.318   7.421  0.9390  0.0259  0.0999
   34MOL0     O 4380   4.006  10.338   7.306 -0.2708  0.4842 -0.0051
   34MOL0     C 4381   3.884  10.263   7.314  0.6327 -0.3674 -0.1912
   34MOL0     C 4382   3.776  10.307   7.249  0.2172 -1.3568  0.5492
   34MOL0     C 4383   3.651  10.234   7.235 -0.3712 -0.0689  0.2820
   34MOL0     C 4384   3.629  10.111   7.290 -0.5605  0.1066  0.1606
   34MOL0     C 4385   3.497  10.046   7.287 -0.8484  0.5552  0.4655
   34MOL0     O 4386   3.500   9.913   7.341  0.6421 -0.2382 -0.8188
   34MOL0     C 4387   3.408   9.820   7.292  0.0493 -0.0550  1.2718
   34MOL0     C 4388   3.266   9.835   7.292  0.3677 -0.2981  0.6823
   34MOL0     C 4389   3.184   9.726   7.252 -0.4360  0.1642  0.7581
   34MOL0     C 4390   3.243   9.608   7.206  0.1689  0.3360  0.3134
   34MOL0     O 4391   3.146   9.509   7.175 -0.3507  0.5281 -0.3660
   34MOL0     C 4392   3.187   9.371   7.157 -0.5432 -0.3317 -1.1561
   34MOL0     C 4393   3.064   9.293   7.124 -0.0310  0.4962  0.7130
   34MOL0     C 4394   2.984   9.350   7.014 -0.2712  0.2153  0.1465
   34MOL0     C 4395   3.046   9.303   6.882 -0.2836 -0.7021 -0.0701
   34MOL0     C 4396   2.960   9.372   6.787 -0.7122  0.2315  0.4102
   34MOL0     C 4397   2.967   9.326   6.643 -0.0285 -0.1307 -0.2703
   34MOL0     C 4398   2.935   9.172   6.619  0.1991  0.3412  0.1859
   34MOL0     C 4399   2.950   9.142   6.474  0.6605 -0.7889  0.9425
   34MOL0    Cl 4400   2.791   9.158   6.397 -0.0874 -0.3034  0.2147
   34MOL0     C 4401   3.380   9.595   7.205 -0.1707  0.4735 -0.3529
   34MOL0     C 4402   3.461   9.700   7.245  0.2788  0.0954  0.3110
   34MOL0     O 4403   3.403  10.103   7.232  0.2852  0.0212 -0.1240
   34MOL0     C 4404   3.741  10.059   7.350 -0.6474  0.0899 -0.3879
   34MOL0     C 4405   3.869  10.131   7.364  0.1280 -0.6071  0.4649
   34MOL0     N 4406   4.365  10.414   7.571 -0.5179  0.3871  0.1045
   34MOL0     N 4407   4.432  10.511   7.637  0.2064  1.5700  0.3345
   34MOL0     C 4408   5.161  11.293   7.725  0.2814 -0.0027  0.3890
   34MOL0     C 4409   5.285  11.340   7.724 -0.4442  0.5340 -0.5791
   34MOL0     C 4410   5.690  11.456   7.810  0.8176 -0.4679  0.4997
   34MOL0     C 4411   5.737  11.546   7.910 -0.2245 -0.2587  0.6020
   34MOL0     C 4412   5.859  11.613   7.904 -0.0370 -0.4879  1.5141
   34MOL0     C 4413   5.936  11.591   7.782 -0.1690 -1.4563 -0.4152
   34MOL0     O 4414   6.061  11.640   7.754 -0.1245  0.1201 -0.3770
   34MOL0     C 4415   6.124  11.685   7.870 -1.0797  0.2679  0.7721
   34MOL0     C 4416   6.281  11.679   7.843 -0.0060 -0.1421  0.2059
   34MOL0     C 4417   6.368  11.733   7.961  0.2620  0.5484 -0.8783
   34MOL0     C 4418   6.333  11.865   8.024 -0.0827  0.6107 -0.4046
   34MOL0     C 4419   6.327  11.976   7.933 -0.2179  1.4436  0.0425
   34MOL0     C 4420   6.313  12.074   7.865  0.8292 -0.2940  0.6278
   34MOL0     C 4421   5.885  11.513   7.684  0.3412  0.3382 -0.1884
   34MOL0     C 4422   5.768  11.446   7.693 -0.2932  0.6547  0.9335
   34MOL0     H 4423   5.464  11.057   7.687  0.8609  0.5736 -1.3636
   34MOL0     H 4424   5.243  10.962   7.673 -0.1967 -0.1800 -1.7612
   34MOL0     H 4425   4.971  11.161   7.513 -0.6460  3.0570 -0.4495
   34MOL0     H 4426   4.864  11.249   7.619  2.6415  0.7974 -0.1482
   34MOL0     H 4427   4.713  11.078   7.532 -3.7197 -3.3864  2.4683
   34MOL0     H 4428   4.762  10.993   7.673  1.2811 -2.0174 -0.8086
   34MOL0     H 4429   4.868  10.966   7.392  1.1824  0.8929  0.1673
   34MOL0     H 4430   4.746  10.867   7.472 -1.8335  2.3688  0.1881
   34MOL0     H 4431   4.958  10.744   7.462  0.1006  1.8696 -2.5689
   34MOL0     H 4432   5.035  10.868   7.567 -0.9124  1.8556  0.7391
   34MOL0     H 4433   4.915  10.818   7.756  4.4002 -0.6698  0.8092
   34MOL0     H 4434   4.982  10.674   7.691 -1.1918 -1.0532  1.5774
   34MOL0     H 4435   4.749  10.638   7.558 -1.9949 -0.2788  1.5907
   34MOL0     H 4436   4.690  10.745   7.679 -0.9824 -0.8294  0.8493
   34MOL0     H 4437   4.825  10.485   7.739  1.2385 -0.3536  1.3705
   34MOL0     H 4438   4.806  10.619   7.854  0.7589  2.5833 -2.4235
   34MOL0     H 4439   4.561  10.615   7.847  0.6695 -1.1758  1.6744
   34MOL0     H 4440   4.622  10.467   7.886 -3.1685  1.5134  2.0309
   34MOL0     H 4441   4.632  10.259   7.656 -1.8727 -1.7222 -0.2528
   34MOL0     H 4442   4.431  10.094   7.587 -1.7319 -0.6579 -0.1966
   34MOL0     H 4443   4.462  10.164   7.427 -0.0639 -1.7663  0.4463
   34MOL0     H 4444   4.214  10.185   7.585  3.6082  1.8476  1.3764
   34MOL0     H 4445   4.265  10.043   7.476  1.7132 -0.1418  0.2405
   34MOL0     H 4446   4.288  10.291   7.334  2.8408 -1.7533  1.3679
   34MOL0     H 4447   4.165  10.169   7.302 -2.3950  1.0382 -0.0472
   34MOL0     H 4448   4.127  10.420   7.442 -1.6660  0.9574  0.2602
   34MOL0     H 4449   4.041  10.280   7.510  1.1348 -1.0880 -0.2519
   34MOL0     H 4450   3.783  10.403   7.199 -2.8291 -1.1175  0.4141
   34MOL0     H 4451   3.570  10.280   7.179  0.0252  0.0918 -0.1617
   34MOL0     H 4452   3.219   9.918   7.344  1.4283 -0.5443  2.0816
   34MOL0     H 4453   3.077   9.737   7.239 -0.3814  1.3557  1.2357
   34MOL0     H 4454   3.236   9.333   7.247 -1.4539 -0.9165 -0.8895
   34MOL0     H 4455   3.255   9.365   7.072  0.0267  1.0187 -0.8253
   34MOL0     H 4456   3.009   9.279   7.218  0.9904 -0.6344  1.1680
   34MOL0     H 4457   3.101   9.195   7.094  4.6327  2.1153  0.4455
   34MOL0     H 4458   2.976   9.459   7.010 -0.7273  0.3509  2.8408
   34MOL0     H 4459   2.883   9.309   7.025 -0.4588 -0.3943 -2.8364
   34MOL0     H 4460   3.149   9.337   6.871 -0.7838  1.9890  2.3648
   34MOL0     H 4461   3.033   9.195   6.871 -1.8332 -0.6182  0.7131
   34MOL0     H 4462   2.986   9.478   6.784  0.1743  0.0205  0.5452
   34MOL0     H 4463   2.855   9.370   6.819 -0.3742  1.7442  1.6985
   34MOL0     H 4464   3.071   9.340   6.609  0.9363  0.1117  2.5655
   34MOL0     H 4465   2.898   9.383   6.580  1.9827  0.9448 -1.6178
   34MOL0     H 4466   3.018   9.122   6.670 -1.2095  0.5860  2.9417
   34MOL0     H 4467   2.838   9.131   6.649 -0.3928  1.7228  0.2474
   34MOL0     H 4468   2.998   9.044   6.469 -0.9564 -1.5613 -1.7524
   34MOL0     H 4469   3.021   9.210   6.426  0.5001 -0.8135  0.6714
   34MOL0     H 4470   3.437   9.506   7.182 -0.1153  0.9415 -2.1300
   34MOL0     H 4471   3.565   9.677   7.266  0.0285 -0.6960  0.7040
   34MOL0     H 4472   3.726   9.961   7.394  1.6568 -0.0642  0.1723
   34MOL0     H 4473   3.945  10.070   7.411 -2.2682 -3.0806  1.4230
   34MOL0     H 4474   5.079  11.359   7.753  0.4926  0.0722  0.8456
   34MOL0     H 4475   5.304  11.447   7.723  3.3303 -0.0309 -0.8528
   34MOL0     H 4476   5.678  11.564   7.999 -2.4308  3.2951 -1.3444
   34MOL0     H 4477   5.889  11.687   7.978 -0.6255  2.3189 -0.8328
   34MOL0     H 4478   6.096  11.634   7.963 -0.7146  0.0988  0.7901
   34MOL0     H 4479   6.099  11.791   7.878  2.0721  1.3560 -1.7265
   34MOL0     H 4480   6.326  11.583   7.817 -0.8170 -0.6198  0.5206
   34MOL0     H 4481   6.295  11.733   7.749 -0.8590  0.0295  0.1722
   34MOL0     H 4482   6.468  11.760   7.923 -0.2010  0.6305 -2.1021
   34MOL0     H 4483   6.366  11.666   8.048 -2.1929 -0.0768 -1.3332
   34MOL0     H 4484   6.249  11.847   8.091  1.8086 -0.0198  1.9632
   34MOL0     H 4485   6.402  11.908   8.097 -0.1852 -0.3815  0.2933
   34MOL0     H 4486   6.306  12.161   7.805  0.3359 -0.0756  0.9936
   34MOL0     H 4487   5.941  11.483   7.596 -1.1947 -1.7002 -0.5544
   34MOL0     H 4488   5.739  11.405   7.596  1.7052 -2.2389  1.4310
   35MOL0     O 4489  10.394   7.112  10.992 -0.4592 -0.8761 -0.5939
   35MOL0     C 4490  10.296   7.071  10.940  0.1883 -0.0903  0.0727
   35MOL0     O 4491  10.283   6.942  10.907 -1.0059  0.0342 -0.0964
   35MOL0     C 4492  10.373   6.855  10.946 -0.9891 -0.2817  0.5039
   35MOL0     C 4493  10.419   6.850  11.076 -0.3133  0.6236 -0.1163
   35MOL0     C 4494  10.519   6.757  11.116  0.9726 -0.3037 -0.5043
   35MOL0     C 4495  10.572   6.669  11.028 -1.1490  0.7081  0.0451
   35MOL0     O 4496  10.669   6.587  11.069 -0.8882  1.0922  0.4406
   35MOL0     C 4497  10.769   6.539  10.974  0.3349  0.2158  0.2730
   35MOL0     C 4498  10.883   6.640  10.957  0.0872  0.6950  0.1476
   35MOL0     C 4499  10.973   6.642  11.077  0.5125 -0.3753 -0.3369
   35MOL0     C 4500  11.066   6.767  11.077 -0.2174  0.2873  0.0384
   35MOL0     C 4501  11.008   6.900  11.140 -0.2347  0.6313 -0.5147
   35MOL0     C 4502  10.866   6.948  11.083 -1.1693  0.0447 -0.1908
   35MOL0     C 4503  10.813   7.060  11.170  0.1102 -0.1318 -0.2516
   35MOL0     C 4504  10.715   7.142  11.083 -0.1862 -0.6562 -0.3226
   35MOL0     N 4505  10.635   7.237  11.168 -0.4193 -0.2038 -0.9958
   35MOL0     C 4506  10.519   7.213  11.235  0.4096  0.3396 -0.1214
   35MOL0     C 4507  10.475   7.331  11.276  0.3121  0.8656 -0.4150
   35MOL0     C 4508  10.347   7.355  11.352  0.1287 -0.3596  0.1468
   35MOL0     C 4509  10.229   7.371  11.248 -0.9358  0.1031 -0.0430
   35MOL0     C 4510  10.124   7.271  11.256 -0.4540 -0.1858 -0.1180
   35MOL0     C 4511  10.166   7.133  11.290  0.3292  0.1610 -0.5324
   35MOL0     O 4512  10.104   7.024  11.209 -0.3056 -0.1052 -0.0425
   35MOL0     C 4513  10.132   6.895  11.245 -0.2161  0.1441 -0.2951
   35MOL0     C 4514  10.211   6.861  11.360  0.3085 -0.2113 -0.3839
   35MOL0     C 4515  10.244   6.724  11.392 -0.5239  0.0537  0.0635
   35MOL0     C 4516  10.192   6.619  11.310 -0.7912 -0.2351 -0.0384
   35MOL0     C 4517  10.232   6.481  11.316  0.3996  0.5640  0.2912
   35MOL0     O 4518  10.236   6.410  11.199  0.4269  0.2066  0.4148
   35MOL0     C 4519  10.352   6.345  11.159  0.0448  0.3959  0.2638
   35MOL0     C 4520  10.475   6.389  11.197 -0.3428 -0.4623  0.5117
   35MOL0     C 4521  10.593   6.324  11.168 -0.3416 -0.0522 -0.0083
   35MOL0     C 4522  10.591   6.210  11.085 -0.1309 -0.0289 -0.0758
   35MOL0     O 4523  10.702   6.148  11.036 -0.3455  0.6507 -0.3071
   35MOL0     C 4524  10.771   6.066  11.144 -0.1339 -0.2876  0.1361
   35MOL0     C 4525  10.885   6.151  11.182  0.2092 -0.1002  0.8417
   35MOL0     C 4526  10.975   6.077  11.291 -0.7600  0.3495  1.4363
   35MOL0     C 4527  11.117   6.059  11.237 -0.5489 -0.0201 -0.2464
   35MOL0     C 4528  11.196   5.986  11.346 -0.4713  0.6379 -0.3156
   35MOL0     C 4529  11.297   5.890  11.274  0.4197  0.1292  0.0193
   35MOL0     C 4530  11.400   5.837  11.376  0.1361  1.1787  0.7218
   35MOL0     C 4531  11.508   5.936  11.419  0.3952 -0.2748 -0.3548
   35MOL0    Cl 4532  11.633   5.868  11.527 -0.6369 -0.3409  0.0684
   35MOL0     C 4533  10.459   6.172  11.034 -1.3289  0.2575  1.1126
   35MOL0     C 4534  10.346   6.235  11.072 -0.1116  0.0872 -0.4442
   35MOL0     O 4535  10.276   6.441  11.418  0.4398  0.7829 -0.9052
   35MOL0     C 4536  10.103   6.651  11.199 -0.0935 -0.0749 -0.5633
   35MOL0     C 4537  10.081   6.787  11.169  0.7111  0.8925 -0.0289
   35MOL0     N 4538  10.563   7.427  11.235  0.7214 -0.5480 -0.7077
   35MOL0     N 4539  10.658   7.374  11.175 -0.1935 -0.0600  0.5028
   35MOL0     C 4540  10.512   6.668  10.896 -0.0908  0.3023 -0.0670
   35MOL0     C 4541  10.421   6.756  10.852  1.2334 -0.9372 -0.2596
   35MOL0     C 4542  10.208   7.181  10.892  0.2257 -1.1969 -0.8018
   35MOL0     C 4543  10.071   7.155  10.857 -1.5950  0.8822 -0.1880
   35MOL0     C 4544   9.998   7.256  10.802  0.6548  0.5779 -0.2546
   35MOL0     C 4545  10.050   7.388  10.779 -0.3821  0.4035  0.3488
   35MOL0     O 4546   9.953   7.482  10.734 -1.0203 -0.8693 -0.0882
   35MOL0     C 4547   9.985   7.624  10.754 -0.4381  0.4851  0.2201
   35MOL0     C 4548   9.847   7.674  10.779  0.0797  0.2598 -0.5518
   35MOL0     C 4549   9.755   7.647  10.657 -0.3590  0.8580  0.5372
   35MOL0     C 4550   9.612   7.680  10.671 -0.2811  0.1578 -0.1043
   35MOL0     C 4551   9.599   7.815  10.717 -0.1364  0.4509 -0.3410
   35MOL0     C 4552   9.588   7.933  10.737 -0.3960 -0.3405  0.3113
   35MOL0     C 4553  10.181   7.418  10.822  1.0802  0.1548 -0.6358
   35MOL0     C 4554  10.261   7.317  10.874 -0.1807 -0.5389 -0.1504
   35MOL0     H 4555  10.380   6.918  11.152 -1.6795 -2.3729  2.0419
   35MOL0     H 4556  10.557   6.746  11.217 -2.8913 -1.3912  1.0485
   35MOL0     H 4557  10.720   6.508  10.881 -0.4266  2.8110 -0.2610
   35MOL0     H 4558  10.802   6.440  11.008 -0.2785 -1.8129 -4.3456
   35MOL0     H 4559  10.851   6.737  10.917 -1.5625  0.7378  1.4460
   35MOL0     H 4560  10.949   6.596  10.882 -0.2033 -4.0659  2.2767
   35MOL0     H 4561  11.034   6.551  11.078 -1.0054 -1.4288 -0.3708
   35MOL0     H 4562  10.915   6.641  11.170  0.7120 -0.5478 -0.2145
   35MOL0     H 4563  11.163   6.737  11.117 -0.7077 -0.9444  0.3485
   35MOL0     H 4564  11.103   6.790  10.977 -2.2291  1.8481 -0.4143
   35MOL0     H 4565  11.078   6.984  11.141 -2.3294  2.4965  1.3811
   35MOL0     H 4566  11.001   6.874  11.246  0.2539  0.4331 -0.5318
   35MOL0     H 4567  10.788   6.872  11.085 -0.9393 -0.1858  0.8879
   35MOL0     H 4568  10.875   6.968  10.976 -1.5243  0.3946 -0.1559
   35MOL0     H 4569  10.767   7.023  11.262 -0.8044  2.6282  0.4944
   35MOL0     H 4570  10.891   7.128  11.204  1.3240 -2.2327  1.4019
   35MOL0     H 4571  10.650   7.077  11.025  1.8134  0.4732 -4.1738
   35MOL0     H 4572  10.777   7.189  11.006  0.0575 -2.0873 -1.0366
   35MOL0     H 4573  10.473   7.116  11.246  0.9991 -0.1805 -1.9820
   35MOL0     H 4574  10.354   7.455  11.395 -0.4162 -0.1212 -0.3077
   35MOL0     H 4575  10.318   7.286  11.432 -1.6241 -0.4848 -0.5436
   35MOL0     H 4576  10.271   7.361  11.147  0.0844  0.1071  0.3665
   35MOL0     H 4577  10.185   7.470  11.257 -1.9496 -0.5452  3.6855
   35MOL0     H 4578  10.062   7.306  11.339 -0.2429 -0.9216  0.3521
   35MOL0     H 4579  10.059   7.275  11.167 -1.9352  3.5270  0.9262
   35MOL0     H 4580  10.140   7.108  11.393 -2.4019 -1.0613 -1.4244
   35MOL0     H 4581  10.272   7.114  11.273  0.0189 -0.9300 -1.3087
   35MOL0     H 4582  10.257   6.929  11.431 -0.8201  0.1687  0.0023
   35MOL0     H 4583  10.313   6.704  11.473 -0.3815  1.9259  0.4297
   35MOL0     H 4584  10.485   6.487  11.242 -0.4983  0.7809 -2.0279
   35MOL0     H 4585  10.694   6.350  11.196  0.3413 -2.9693  0.5858
   35MOL0     H 4586  10.814   5.971  11.112  1.9971  1.2739 -2.0413
   35MOL0     H 4587  10.704   6.042  11.226  0.1406 -1.6020 -0.0060
   35MOL0     H 4588  10.847   6.236  11.239  0.3465  1.5958 -1.4504
   35MOL0     H 4589  10.946   6.185  11.097  1.3072 -4.2703 -0.2379
   35MOL0     H 4590  10.928   5.983  11.319 -3.0268  1.2753  0.9043
   35MOL0     H 4591  10.989   6.132  11.385 -2.0285  0.7590  1.3999
   35MOL0     H 4592  11.095   6.000  11.148 -0.8895 -2.1091  1.1375
   35MOL0     H 4593  11.166   6.154  11.213  1.4567 -1.5254 -2.6072
   35MOL0     H 4594  11.136   5.916  11.406 -1.1064  0.8505 -0.6961
   35MOL0     H 4595  11.231   6.068  11.410 -3.7869  1.4158  0.7242
   35MOL0     H 4596  11.345   5.951  11.196 -1.2069  2.7069  0.8801
   35MOL0     H 4597  11.239   5.805  11.237  0.8008  0.6910 -2.0269
   35MOL0     H 4598  11.347   5.792  11.460 -2.6773  1.2955 -0.8698
   35MOL0     H 4599  11.455   5.750  11.338  1.3096  1.5956  1.4088
   35MOL0     H 4600  11.462   6.021  11.470  1.0546  1.2444 -2.1736
   35MOL0     H 4601  11.559   5.978  11.331  0.2911 -1.6850 -1.1116
   35MOL0     H 4602  10.455   6.113  10.943 -1.6836  3.7200 -1.3175
   35MOL0     H 4603  10.252   6.200  11.030  0.3907  0.8217 -2.2938
   35MOL0     H 4604  10.070   6.582  11.121  2.9138  2.9561 -5.0641
   35MOL0     H 4605  10.025   6.814  11.080  0.4196  1.1016  0.2173
   35MOL0     H 4606  10.560   6.609  10.819  1.0955 -0.8105  1.4671
   35MOL0     H 4607  10.394   6.757  10.747  2.1598 -3.1136 -0.5830
   35MOL0     H 4608  10.031   7.055  10.871 -0.1474  0.0457 -1.6671
   35MOL0     H 4609   9.895   7.238  10.773  1.0993 -1.2787 -0.8110
   35MOL0     H 4610  10.040   7.679  10.678  0.4448  1.8079  1.7611
   35MOL0     H 4611  10.037   7.650  10.847 -3.1167  1.9082  1.4311
   35MOL0     H 4612   9.799   7.622  10.863  3.5001 -1.6945  0.3918
   35MOL0     H 4613   9.857   7.779  10.806  2.6106 -0.3680  1.2806
   35MOL0     H 4614   9.768   7.548  10.612  0.4808  0.9830  0.4807
   35MOL0     H 4615   9.786   7.717  10.580 -0.7003  0.2921 -0.1239
   35MOL0     H 4616   9.562   7.675  10.573  2.1131  2.0516 -1.5436
   35MOL0     H 4617   9.560   7.617  10.744 -0.1518 -2.9035 -2.4416
   35MOL0     H 4618   9.605   8.038  10.754  2.0224 -0.5807 -0.3233
   35MOL0     H 4619  10.217   7.520  10.810  0.1262  0.6576  0.5572
   35MOL0     H 4620  10.363   7.336  10.903 -0.7655  1.0566  1.0158
   36MOL0     O 4621   3.251   7.611   1.459 -0.3503 -0.1284  0.1420
   36MOL0     C 4622   3.349   7.581   1.389  0.5247  0.5046  0.3715
   36MOL0     O 4623   3.476   7.590   1.419  0.4131 -0.9981  0.4188
   36MOL0     C 4624   3.523   7.687   1.494  0.5019 -0.4200 -0.8532
   36MOL0     C 4625   3.633   7.670   1.570  0.9241 -0.1376 -0.6340
   36MOL0     C 4626   3.689   7.768   1.656  0.2030 -0.3332 -0.0894
   36MOL0     C 4627   3.627   7.892   1.680  0.7434  0.1739 -0.4585
   36MOL0     O 4628   3.678   7.975   1.771 -0.8839  0.0654 -0.5221
   36MOL0     C 4629   3.570   8.013   1.867 -0.8978 -0.2373 -0.0646
   36MOL0     C 4630   3.631   8.109   1.967 -0.0394 -0.2032  0.4009
   36MOL0     C 4631   3.733   8.039   2.057  1.1342 -0.3213  0.0653
   36MOL0     C 4632   3.835   8.131   2.129  0.1179  0.4852  0.1330
   36MOL0     C 4633   3.935   8.039   2.202  0.1402 -0.9464 -0.0243
   36MOL0     C 4634   4.004   8.116   2.316  0.3112  0.0809  0.5223
   36MOL0     C 4635   4.107   8.021   2.393  0.2830  0.3782  0.1036
   36MOL0     C 4636   4.170   8.081   2.517  0.2935 -0.6820  0.1109
   36MOL0     N 4637   4.277   7.985   2.564 -0.0329  0.3106 -0.5951
   36MOL0     C 4638   4.236   7.851   2.591 -0.9508 -0.1385  0.0432
   36MOL0     C 4639   4.352   7.806   2.653 -0.6274  0.0869  0.1930
   36MOL0     C 4640   4.354   7.672   2.718 -0.3365  0.2436  0.0715
   36MOL0     C 4641   4.302   7.668   2.864 -0.2127 -0.2262 -0.0258
   36MOL0     C 4642   4.395   7.711   2.972 -0.6332  0.2591  0.0792
   36MOL0     C 4643   4.332   7.781   3.098  0.3243 -0.5443  0.3889
   36MOL0     O 4644   4.436   7.794   3.195  0.5392 -0.7348 -0.4132
   36MOL0     C 4645   4.398   7.880   3.296 -0.2444  0.1653 -0.3477
   36MOL0     C 4646   4.378   8.013   3.273 -0.0206 -0.7489  0.0982
   36MOL0     C 4647   4.362   8.098   3.386 -0.0984 -0.4388  0.2200
   36MOL0     C 4648   4.369   8.048   3.519 -0.1922 -0.8973 -0.6526
   36MOL0     C 4649   4.371   8.137   3.639  0.0738  0.6747  0.2460
   36MOL0     O 4650   4.307   8.255   3.618  0.0689  0.6286 -0.4428
   36MOL0     C 4651   4.266   8.324   3.721 -0.6148  0.4761  0.5606
   36MOL0     C 4652   4.300   8.313   3.857  0.4778  0.1321  0.6862
   36MOL0     C 4653   4.224   8.386   3.945  0.1915  0.2464  0.2109
   36MOL0     C 4654   4.111   8.464   3.919 -0.3420  0.1008 -0.3932
   36MOL0     O 4655   4.053   8.530   4.018  0.1501 -0.2941  0.3735
   36MOL0     C 4656   3.927   8.586   3.984  0.0456 -0.3368  0.0493
   36MOL0     C 4657   3.948   8.738   3.982 -0.1151 -0.8618 -0.4114
   36MOL0     C 4658   4.011   8.790   4.114  0.1088 -0.2384 -0.4413
   36MOL0     C 4659   3.914   8.787   4.229  0.2089  0.2896 -0.3800
   36MOL0     C 4660   3.992   8.811   4.362 -0.8205  0.1866  0.5155
   36MOL0     C 4661   4.042   8.955   4.377 -0.4692 -0.5355 -1.1960
   36MOL0     C 4662   4.097   9.004   4.516 -0.6289  0.1086  0.0771
   36MOL0     C 4663   4.217   8.915   4.535 -0.1402  0.3470 -0.1517
   36MOL0    Cl 4664   4.321   9.000   4.649 -0.0040  0.0401 -0.7168
   36MOL0     C 4665   4.086   8.475   3.781 -0.8586 -0.0264  0.3068
   36MOL0     C 4666   4.158   8.406   3.686  0.2041 -1.0095  0.6699
   36MOL0     O 4667   4.427   8.095   3.737 -0.1245 -0.9965  0.1707
   36MOL0     C 4668   4.363   7.908   3.531 -0.4633 -0.4454  0.0246
   36MOL0     C 4669   4.393   7.831   3.423 -0.5414 -0.0458  0.1640
   36MOL0     N 4670   4.445   7.904   2.661 -0.5680  0.0310 -0.1014
   36MOL0     N 4671   4.396   8.012   2.613 -0.8005  0.3928 -0.2396
   36MOL0     C 4672   3.510   7.915   1.597 -0.0906 -0.0271  0.6133
   36MOL0     C 4673   3.459   7.813   1.505 -0.6569  0.1611 -0.5651
   36MOL0     C 4674   3.320   7.542   1.251 -0.1853  0.7534  0.2473
   36MOL0     C 4675   3.186   7.520   1.205 -0.7841  0.2428 -0.0641
   36MOL0     C 4676   3.163   7.466   1.083  0.0319  0.2184 -1.0587
   36MOL0     C 4677   3.262   7.437   0.999  1.1554  0.3070  0.3492
   36MOL0     O 4678   3.235   7.396   0.874  0.5053 -0.1267  0.9284
   36MOL0     C 4679   3.283   7.485   0.774 -0.0081  0.3955  0.5374
   36MOL0     C 4680   3.332   7.430   0.635 -0.9399 -0.3355 -0.6022
   36MOL0     C 4681   3.459   7.487   0.564  0.2251 -0.1632 -0.5270
   36MOL0     C 4682   3.586   7.404   0.563 -0.2856  0.0103  0.4374
   36MOL0     C 4683   3.634   7.402   0.706 -0.2896  0.0862  0.1193
   36MOL0     C 4684   3.667   7.413   0.821  0.1285  0.2071  0.0359
   36MOL0     C 4685   3.395   7.451   1.035  0.5270  0.3989 -0.3155
   36MOL0     C 4686   3.424   7.503   1.164  0.5602  0.6262 -0.5994
   36MOL0     H 4687   3.669   7.567   1.569 -1.2636 -0.9896  0.7542
   36MOL0     H 4688   3.783   7.746   1.706  0.5851  0.4427 -0.4524
   36MOL0     H 4689   3.534   7.934   1.933  2.4616 -0.9443  1.0725
   36MOL0     H 4690   3.492   8.058   1.804  0.4260 -0.6594 -2.1180
   36MOL0     H 4691   3.546   8.149   2.023  0.0831 -0.4497  0.7747
   36MOL0     H 4692   3.678   8.185   1.904 -0.2205 -0.5651 -0.1730
   36MOL0     H 4693   3.782   7.958   2.003 -3.0706 -1.4816 -2.5042
   36MOL0     H 4694   3.680   7.992   2.141 -3.0545 -0.6727 -2.5059
   36MOL0     H 4695   3.880   8.201   2.059 -0.9391  1.2474  0.1888
   36MOL0     H 4696   3.774   8.195   2.193  1.2430  1.1654  0.5529
   36MOL0     H 4697   4.022   8.003   2.145  2.4260 -0.0825  2.6499
   36MOL0     H 4698   3.880   7.955   2.245 -1.5485  0.3689  0.4773
   36MOL0     H 4699   3.928   8.145   2.390 -1.0029 -1.0747 -0.3149
   36MOL0     H 4700   4.055   8.203   2.276 -1.1527  0.6846 -0.0842
   36MOL0     H 4701   4.044   7.935   2.416 -0.7296 -0.4099 -4.5714
   36MOL0     H 4702   4.183   7.983   2.323 -1.1588 -0.9497 -0.8000
   36MOL0     H 4703   4.099   8.094   2.600  0.9877  2.4962  0.3565
   36MOL0     H 4704   4.233   8.169   2.498  0.9441 -0.8049  1.5462
   36MOL0     H 4705   4.148   7.788   2.584  0.1337 -1.8078  0.7703
   36MOL0     H 4706   4.455   7.631   2.701 -0.9780 -1.7350  0.7416
   36MOL0     H 4707   4.295   7.607   2.652 -3.2822  2.8651 -0.0793
   36MOL0     H 4708   4.264   7.567   2.883 -1.3672 -0.0124 -1.0598
   36MOL0     H 4709   4.216   7.736   2.870 -2.3640 -2.8037  0.5977
   36MOL0     H 4710   4.470   7.633   2.985  0.1182  0.5514 -2.0588
   36MOL0     H 4711   4.451   7.798   2.935 -1.5876  0.9970  0.3399
   36MOL0     H 4712   4.264   7.709   3.145 -1.1765  2.2204  2.8618
   36MOL0     H 4713   4.279   7.872   3.068 -0.8099 -1.4549 -0.4358
   36MOL0     H 4714   4.395   8.052   3.174  2.8211  0.5936  0.9962
   36MOL0     H 4715   4.330   8.202   3.383  0.3716 -0.2531  1.2824
   36MOL0     H 4716   4.382   8.262   3.905  0.8920  1.6497  1.6686
   36MOL0     H 4717   4.223   8.376   4.054 -1.4557  1.5648  0.3489
   36MOL0     H 4718   3.850   8.571   4.060  1.2242  2.7217  2.0186
   36MOL0     H 4719   3.891   8.561   3.884 -0.1294  0.7724 -0.1696
   36MOL0     H 4720   3.855   8.793   3.966  0.1818  1.9133  5.0485
   36MOL0     H 4721   4.015   8.762   3.899  3.6409 -2.9874  1.7361
   36MOL0     H 4722   4.030   8.890   4.074 -4.3392  1.0184  0.0731
   36MOL0     H 4723   4.101   8.741   4.152 -1.9594 -0.9740  4.2061
   36MOL0     H 4724   3.852   8.873   4.202  1.5504  0.4963 -3.1677
   36MOL0     H 4725   3.849   8.699   4.238  1.8273 -1.0890 -1.3690
   36MOL0     H 4726   4.086   8.755   4.368  1.6100  3.8924  0.4942
   36MOL0     H 4727   3.923   8.797   4.445 -0.2493 -2.3561  0.6439
   36MOL0     H 4728   3.963   9.026   4.352  1.1207  0.6522 -3.2507
   36MOL0     H 4729   4.112   8.981   4.296 -1.2911  1.6974 -1.2641
   36MOL0     H 4730   4.114   9.111   4.501 -0.0385  0.1351  0.8914
   36MOL0     H 4731   4.017   8.994   4.590 -0.0243 -3.4753  0.3934
   36MOL0     H 4732   4.268   8.911   4.438 -0.7411  1.0621 -0.5077
   36MOL0     H 4733   4.194   8.814   4.571  0.3524  1.5201  3.9434
   36MOL0     H 4734   4.017   8.552   3.746 -3.5572 -0.8914  3.2765
   36MOL0     H 4735   4.148   8.411   3.578  0.6648 -2.4758  0.5375
   36MOL0     H 4736   4.350   7.866   3.630 -2.0434 -0.7004 -0.2649
   36MOL0     H 4737   4.415   7.726   3.441  2.7222 -0.4293 -4.3792
   36MOL0     H 4738   3.459   8.009   1.618 -0.2858  0.2248 -0.8884
   36MOL0     H 4739   3.370   7.839   1.448 -0.2830 -0.4738 -1.4697
   36MOL0     H 4740   3.103   7.535   1.272 -0.0826 -0.9974  1.1259
   36MOL0     H 4741   3.067   7.446   1.035 -0.1923  1.3524 -1.1127
   36MOL0     H 4742   3.357   7.555   0.817  0.8579  0.4356 -0.9571
   36MOL0     H 4743   3.193   7.546   0.760  0.1059  0.6211  0.7680
   36MOL0     H 4744   3.331   7.321   0.625  2.1111 -0.6550  1.1645
   36MOL0     H 4745   3.248   7.457   0.571 -1.1076 -1.1583 -0.7389
   36MOL0     H 4746   3.468   7.591   0.596 -1.1890 -1.0505  3.2593
   36MOL0     H 4747   3.441   7.483   0.456  2.5251 -1.5259 -0.9298
   36MOL0     H 4748   3.568   7.303   0.527 -3.6190  1.1162 -1.3792
   36MOL0     H 4749   3.655   7.451   0.492 -2.0583 -0.2395 -1.5326
   36MOL0     H 4750   3.728   7.425   0.908  1.0077  0.3756 -0.5774
   36MOL0     H 4751   3.479   7.437   0.967 -0.9695 -2.3963 -1.7890
   36MOL0     H 4752   3.529   7.515   1.189  1.7006 -4.5181 -1.7180
   37MOL0     O 4753   1.527   8.023   3.518  0.9164 -0.5696  0.5249
   37MOL0     C 4754   1.583   8.042   3.621 -0.0122  0.2430  0.4419
   37MOL0     O 4755   1.529   8.084   3.739 -0.4904 -0.2649  0.8010
   37MOL0     C 4756   1.389   8.083   3.749  0.6784 -0.5503  0.7034
   37MOL0     C 4757   1.320   7.965   3.774  0.2271  0.5255 -0.5671
   37MOL0     C 4758   1.177   7.968   3.796 -0.1927 -0.3468 -0.4800
   37MOL0     C 4759   1.103   8.090   3.813 -0.5309  0.4710  0.0615
   37MOL0     O 4760   0.965   8.088   3.846  0.3798  0.8051  0.4212
   37MOL0     C 4761   0.893   8.205   3.818  0.3986  0.3554  0.6751
   37MOL0     C 4762   0.750   8.163   3.827 -0.5569  0.3785 -0.7590
   37MOL0     C 4763   0.699   8.135   3.972  0.8610  0.3455 -0.7964
   37MOL0     C 4764   0.549   8.106   3.971 -0.6994 -0.1479  0.4299
   37MOL0     C 4765   0.522   7.964   3.931  0.2510  0.5215 -0.6942
   37MOL0     C 4766   0.381   7.931   3.978 -0.0321 -0.7802 -0.6059
   37MOL0     C 4767   0.337   7.782   3.967 -1.2004 -0.4187 -0.7273
   37MOL0     C 4768   0.194   7.774   4.015  0.3020  0.3793 -0.9841
   37MOL0     N 4769   0.181   7.790   4.165  0.1792 -0.2177  0.1975
   37MOL0     C 4770   0.255   7.734   4.261 -0.9561 -0.0414 -0.9249
   37MOL0     C 4771   0.212   7.787   4.377  0.0064  0.9316 -0.4127
   37MOL0     C 4772   0.264   7.730   4.508  0.5973  0.6627  0.3339
   37MOL0     C 4773   0.164   7.695   4.618  0.2285 -0.7055 -0.1816
   37MOL0     C 4774   0.082   7.575   4.585  0.5371  0.4490  0.9250
   37MOL0     C 4775   0.146   7.435   4.576 -0.7689  0.3611 -0.3231
   37MOL0     O 4776   0.196   7.385   4.702 -0.3706  0.0428  0.4976
   37MOL0     C 4777   0.173   7.247   4.697  0.3580 -0.0278 -0.8560
   37MOL0     C 4778   0.244   7.166   4.612 -0.2185 -0.2514  0.1691
   37MOL0     C 4779   0.232   7.028   4.625  0.0547  0.5026 -0.5289
   37MOL0     C 4780   0.154   6.973   4.731 -0.3178  0.2027  0.3417
   37MOL0     C 4781   0.157   6.826   4.749  0.2759 -0.2296  0.0645
   37MOL0     O 4782   0.247   6.755   4.676  0.5188  0.3315  0.8451
   37MOL0     C 4783   0.276   6.626   4.696 -0.5998 -0.8081  0.4793
   37MOL0     C 4784   0.191   6.522   4.660 -0.0803 -0.1247  0.1884
   37MOL0     C 4785   0.223   6.386   4.682  0.1531 -0.0705 -0.2895
   37MOL0     C 4786   0.358   6.358   4.727  1.0113  0.0156 -0.5305
   37MOL0     O 4787   0.406   6.226   4.749 -0.6317 -1.0045  0.7152
   37MOL0     C 4788   0.316   6.119   4.790  0.5442 -0.1976 -0.3601
   37MOL0     C 4789   0.382   5.984   4.779 -0.1311  0.1304 -0.2618
   37MOL0     C 4790   0.402   5.929   4.636  0.1811  0.7291 -0.0022
   37MOL0     C 4791   0.477   5.794   4.640 -0.8067  0.5304 -0.5608
   37MOL0     C 4792   0.526   5.766   4.496  0.3904  0.8452  0.0982
   37MOL0     C 4793   0.414   5.731   4.386 -0.3432  0.7660 -0.5904
   37MOL0     C 4794   0.437   5.584   4.341  0.9313  0.5672  0.7941
   37MOL0     C 4795   0.360   5.549   4.219  0.4096  1.6493  0.4591
   37MOL0    Cl 4796   0.371   5.670   4.086  0.1303  0.2691  0.1074
   37MOL0     C 4797   0.444   6.468   4.760 -0.3781  0.9282 -0.4956
   37MOL0     C 4798   0.397   6.597   4.748  0.3453  1.0957  0.2508
   37MOL0     O 4799   0.096   6.790   4.850  0.1693  0.4537 -0.2794
   37MOL0     C 4800   0.078   7.060   4.820 -0.1518  1.6474 -0.8972
   37MOL0     C 4801   0.097   7.200   4.805 -0.2368 -0.1308  0.9244
   37MOL0     N 4802   0.096   7.864   4.350  0.6487  1.0342  0.2915
   37MOL0     N 4803   0.083   7.865   4.220 -0.4216 -0.2288 -0.3320
   37MOL0     C 4804   1.177   8.206   3.780 -0.9668 -0.1758  0.2835
   37MOL0     C 4805   1.322   8.199   3.760  0.4332  0.5406 -0.5811
   37MOL0     C 4806   1.727   8.025   3.634  0.5134 -0.0192  0.4770
   37MOL0     C 4807   1.800   7.993   3.521 -0.2937  0.1485  0.2786
   37MOL0     C 4808   1.938   7.973   3.528 -0.3059 -0.2003 -0.9512
   37MOL0     C 4809   2.001   7.988   3.651  0.1616  0.5527 -0.6946
   37MOL0     O 4810   2.134   7.984   3.657 -0.7812 -0.4767 -1.0925
   37MOL0     C 4811   2.208   7.970   3.785 -0.5187  0.4956 -0.1946
   37MOL0     C 4812   2.356   7.982   3.754 -0.7555 -0.7056  0.1123
   37MOL0     C 4813   2.405   7.852   3.689 -0.0692 -0.0931  0.8871
   37MOL0     C 4814   2.552   7.848   3.644  0.2104  0.9111 -0.1315
   37MOL0     C 4815   2.631   7.857   3.766  0.0369 -0.3678 -0.5879
   37MOL0     C 4816   2.699   7.851   3.868 -0.1097  0.5377 -0.2170
   37MOL0     C 4817   1.926   8.010   3.765  0.1687 -0.3288 -0.1626
   37MOL0     C 4818   1.793   8.040   3.757  0.6211 -0.0561 -0.9586
   37MOL0     H 4819   1.383   7.876   3.770  2.5191  2.0168  0.0171
   37MOL0     H 4820   1.116   7.877   3.800  0.7856 -0.9763  1.2126
   37MOL0     H 4821   0.919   8.250   3.722  3.0022  0.1454  1.2202
   37MOL0     H 4822   0.906   8.273   3.902  1.7720  0.8631  0.0870
   37MOL0     H 4823   0.723   8.081   3.759  1.6203 -1.4381  0.4046
   37MOL0     H 4824   0.702   8.253   3.789  1.1625  2.6341  2.0259
   37MOL0     H 4825   0.712   8.233   4.018 -0.4830  0.5955 -0.9058
   37MOL0     H 4826   0.751   8.061   4.033  1.3370  2.8256  2.0647
   37MOL0     H 4827   0.502   8.137   4.065  0.1549  2.2532  0.1548
   37MOL0     H 4828   0.496   8.165   3.896  0.2511  0.8230  0.4983
   37MOL0     H 4829   0.597   7.901   3.980  0.4559 -0.9508 -2.7362
   37MOL0     H 4830   0.524   7.944   3.823  2.1269  0.8879 -0.7708
   37MOL0     H 4831   0.310   7.996   3.927 -1.8887 -2.4050 -0.2115
   37MOL0     H 4832   0.385   7.962   4.083 -0.9925  2.5687 -1.4268
   37MOL0     H 4833   0.343   7.752   3.862  2.1534 -3.6234  0.1693
   37MOL0     H 4834   0.402   7.725   4.034 -2.9793 -0.8521  0.6916
   37MOL0     H 4835   0.156   7.675   3.990  1.8923 -0.4398 -0.2673
   37MOL0     H 4836   0.149   7.862   3.967 -1.7674 -0.7933 -1.3458
   37MOL0     H 4837   0.340   7.669   4.247 -0.5363  0.0091  1.0368
   37MOL0     H 4838   0.325   7.812   4.546 -0.7057  1.2385  1.2416
   37MOL0     H 4839   0.337   7.651   4.489  1.9328  1.5478  1.6288
   37MOL0     H 4840   0.095   7.778   4.632 -1.1985 -1.2091 -3.2652
   37MOL0     H 4841   0.214   7.679   4.714 -1.5653  0.3766  0.9687
   37MOL0     H 4842   0.003   7.571   4.661  1.6852  2.3997  2.3208
   37MOL0     H 4843   0.042   7.590   4.484  0.5244 -0.4126  0.7977
   37MOL0     H 4844   0.219   7.430   4.496 -0.9571  4.9569 -1.0116
   37MOL0     H 4845   0.053   7.382   4.550 -1.0751  0.8127 -0.1590
   37MOL0     H 4846   0.299   7.211   4.530 -1.4093 -0.9849 -1.0757
   37MOL0     H 4847   0.289   6.967   4.556 -1.4181  0.7765 -2.0398
   37MOL0     H 4848   0.097   6.535   4.605 -0.1773 -3.1190 -0.5506
   37MOL0     H 4849   0.151   6.306   4.668  0.8008 -0.4037 -1.9256
   37MOL0     H 4850   0.224   6.128   4.731  2.2375  2.0817 -2.9350
   37MOL0     H 4851   0.286   6.127   4.895  1.8908 -0.4827  0.0676
   37MOL0     H 4852   0.319   5.904   4.818 -1.1615  2.3206  2.9096
   37MOL0     H 4853   0.471   5.998   4.840 -0.8123  2.7908  0.2473
   37MOL0     H 4854   0.463   6.008   4.591  1.3507 -1.0716 -1.7921
   37MOL0     H 4855   0.309   5.920   4.580  0.8138 -4.2390 -0.7297
   37MOL0     H 4856   0.560   5.806   4.711 -1.5669  1.6531  0.1644
   37MOL0     H 4857   0.402   5.721   4.671 -1.0045 -0.1309 -2.4812
   37MOL0     H 4858   0.586   5.679   4.521 -1.1009 -0.1258  0.4594
   37MOL0     H 4859   0.591   5.846   4.459 -0.3841  2.8565  2.7646
   37MOL0     H 4860   0.429   5.798   4.301  2.9021 -0.6627 -1.2959
   37MOL0     H 4861   0.317   5.749   4.433  0.3027  1.3480  0.5675
   37MOL0     H 4862   0.540   5.577   4.304  1.5699  1.7686  2.2507
   37MOL0     H 4863   0.414   5.516   4.423 -0.1745  0.9558  0.8242
   37MOL0     H 4864   0.254   5.540   4.247  0.5020  0.4340  0.4850
   37MOL0     H 4865   0.385   5.447   4.187  0.3220  2.0872 -1.0591
   37MOL0     H 4866   0.543   6.448   4.801 -0.7154  4.2084  2.3642
   37MOL0     H 4867   0.461   6.682   4.770  1.2372 -0.2229  3.2183
   37MOL0     H 4868   0.010   7.029   4.899  1.4585  1.7694  0.5818
   37MOL0     H 4869   0.066   7.275   4.878 -2.3558  1.6871 -1.6755
   37MOL0     H 4870   1.126   8.301   3.792  1.9755  1.3501  1.9112
   37MOL0     H 4871   1.379   8.291   3.767  2.0316 -0.5231  1.6450
   37MOL0     H 4872   1.743   7.968   3.432 -1.1653 -2.8468  1.5633
   37MOL0     H 4873   2.004   7.937   3.450 -1.8338 -3.4815 -0.8789
   37MOL0     H 4874   2.183   7.876   3.834  0.5796 -0.4335 -1.3257
   37MOL0     H 4875   2.178   8.059   3.841 -0.9959  0.2453 -0.0495
   37MOL0     H 4876   2.376   8.067   3.689 -1.4224 -0.3729  0.3307
   37MOL0     H 4877   2.398   7.999   3.853 -0.1146  0.5356 -0.3623
   37MOL0     H 4878   2.350   7.839   3.595  1.4018 -0.9401  0.1061
   37MOL0     H 4879   2.375   7.767   3.750 -1.6812 -3.8430 -4.3799
   37MOL0     H 4880   2.569   7.753   3.594 -0.2272 -0.3668  2.0407
   37MOL0     H 4881   2.586   7.933   3.584  2.0228  1.9665  2.2244
   37MOL0     H 4882   2.758   7.834   3.956  0.9794  2.7562 -0.4551
   37MOL0     H 4883   1.964   8.008   3.867  1.1281  0.2906 -0.4981
   37MOL0     H 4884   1.742   8.053   3.852  0.2786 -1.1114 -0.9844
   38MOL0     O 4885   2.654   7.687   0.925  0.9358  0.4941 -0.1844
   38MOL0     C 4886   2.628   7.565   0.918 -0.1574 -0.0666  0.2045
   38MOL0     O 4887   2.531   7.498   0.981  0.4513 -0.4272 -0.0229
   38MOL0     C 4888   2.478   7.566   1.090  0.3677 -0.1969 -0.1002
   38MOL0     C 4889   2.462   7.482   1.205  0.3999  0.9620  0.8994
   38MOL0     C 4890   2.388   7.522   1.314 -0.2401  0.5640 -0.2762
   38MOL0     C 4891   2.342   7.652   1.323 -0.2088 -0.6508 -0.6084
   38MOL0     O 4892   2.266   7.693   1.426 -0.0828  0.1688 -0.1810
   38MOL0     C 4893   2.328   7.727   1.551 -0.1149 -0.3054 -0.5583
   38MOL0     C 4894   2.431   7.634   1.611  0.3377  0.1927  0.2393
   38MOL0     C 4895   2.475   7.716   1.737 -0.5292 -0.8358  0.0935
   38MOL0     C 4896   2.569   7.640   1.826 -0.0842  1.3809 -0.6487
   38MOL0     C 4897   2.664   7.728   1.895  0.3719 -0.2534  0.4579
   38MOL0     C 4898   2.772   7.658   1.985  0.2797  0.1546 -0.1420
   38MOL0     C 4899   2.724   7.551   2.071  0.0096  0.1129 -0.1368
   38MOL0     C 4900   2.624   7.592   2.180 -0.6904  0.1780  0.1381
   38MOL0     N 4901   2.673   7.688   2.282 -0.3522  1.6855  0.2043
   38MOL0     C 4902   2.727   7.648   2.397 -0.0197  0.2307  0.4015
   38MOL0     C 4903   2.720   7.755   2.480 -0.4076 -0.3423 -0.1067
   38MOL0     C 4904   2.775   7.751   2.621  0.2922  0.2459  0.0164
   38MOL0     C 4905   2.928   7.749   2.630 -0.5792  0.2129 -0.4438
   38MOL0     C 4906   2.986   7.881   2.565 -0.4971 -0.9000 -0.8294
   38MOL0     C 4907   3.110   7.926   2.633  0.2195  1.2467  0.3905
   38MOL0     O 4908   3.095   7.950   2.777  0.4941  0.5528  0.6188
   38MOL0     C 4909   3.198   7.923   2.863 -0.2112 -0.3155  1.0445
   38MOL0     C 4910   3.157   7.893   2.994 -0.4324  0.6832 -0.1512
   38MOL0     C 4911   3.253   7.863   3.090  0.7928 -0.5535 -0.3877
   38MOL0     C 4912   3.386   7.863   3.068  0.7211  0.3099  0.8700
   38MOL0     C 4913   3.482   7.843   3.181 -0.1578 -0.3654 -0.2035
   38MOL0     O 4914   3.427   7.775   3.287 -0.7479  0.7039  0.3302
   38MOL0     C 4915   3.499   7.759   3.400  0.3936 -0.4759  0.3180
   38MOL0     C 4916   3.562   7.866   3.468  0.5190  1.0728 -0.2627
   38MOL0     C 4917   3.636   7.846   3.589  0.1487  0.1432  0.6242
   38MOL0     C 4918   3.634   7.720   3.647  0.6752  0.2064 -0.8426
   38MOL0     O 4919   3.691   7.705   3.768 -0.3439  0.5114 -0.5142
   38MOL0     C 4920   3.836   7.735   3.771 -0.2165  1.0941  0.1472
   38MOL0     C 4921   3.920   7.597   3.762 -0.4932  0.8110  0.1765
   38MOL0     C 4922   3.932   7.516   3.893  0.4019  0.4484  0.6467
   38MOL0     C 4923   3.999   7.386   3.854 -0.4958 -0.7380 -0.2879
   38MOL0     C 4924   3.988   7.278   3.976  0.7500 -0.7049 -0.3519
   38MOL0     C 4925   4.061   7.348   4.097  0.4144  0.6440  0.5695
   38MOL0     C 4926   4.081   7.253   4.211 -0.2973  1.3471 -0.4505
   38MOL0     C 4927   3.948   7.213   4.280 -0.7406  0.1589  0.5857
   38MOL0    Cl 4928   3.907   7.326   4.416 -0.0091  0.6532 -0.1984
   38MOL0     C 4929   3.574   7.619   3.583 -0.2078 -0.0744  0.5091
   38MOL0     C 4930   3.497   7.635   3.461 -0.8076 -0.4809  0.1206
   38MOL0     O 4931   3.593   7.903   3.182  0.2978 -0.0803  0.5811
   38MOL0     C 4932   3.427   7.898   2.938 -0.2741  0.3035  0.8018
   38MOL0     C 4933   3.337   7.936   2.834  0.1315 -0.5002  0.6031
   38MOL0     N 4934   2.667   7.860   2.410  0.4783  0.2343  0.7336
   38MOL0     N 4935   2.643   7.818   2.285  0.6873 -0.5256  0.4827
   38MOL0     C 4936   2.378   7.741   1.226  0.1141 -0.1099 -0.1662
   38MOL0     C 4937   2.442   7.703   1.107 -0.5664 -0.2970 -0.0373
   38MOL0     C 4938   2.711   7.483   0.825  0.3239 -0.2845 -0.5406
   38MOL0     C 4939   2.662   7.355   0.791  0.1799  0.9044  0.0307
   38MOL0     C 4940   2.735   7.276   0.702 -0.1804  0.9781  0.9222
   38MOL0     C 4941   2.856   7.314   0.649  0.0441 -0.4499  0.3210
   38MOL0     O 4942   2.928   7.219   0.578 -0.2808 -0.6492 -0.2117
   38MOL0     C 4943   3.059   7.172   0.609  0.2255 -0.1004 -0.9756
   38MOL0     C 4944   3.063   7.018   0.612 -0.3823  0.1958  0.0484
   38MOL0     C 4945   3.053   6.969   0.465  0.1571 -0.0907  0.1457
   38MOL0     C 4946   3.053   6.816   0.453 -0.3239  0.4086  0.4501
   38MOL0     C 4947   2.954   6.782   0.349 -0.2039 -0.0378 -0.4860
   38MOL0     C 4948   2.858   6.763   0.266 -0.3703 -1.7847 -0.4269
   38MOL0     C 4949   2.902   7.438   0.686  0.1166 -0.0067 -0.3583
   38MOL0     C 4950   2.828   7.525   0.756  0.6392 -0.3680 -0.8486
   38MOL0     H 4951   2.498   7.380   1.194 -0.2531  0.8228 -0.0565
   38MOL0     H 4952   2.370   7.450   1.394 -0.8796 -0.2661 -1.1409
   38MOL0     H 4953   2.248   7.754   1.621 -0.3505  2.6308 -1.8350
   38MOL0     H 4954   2.379   7.820   1.529 -0.0114 -0.2365 -0.0491
   38MOL0     H 4955   2.517   7.614   1.547  1.4989  0.6079  1.6106
   38MOL0     H 4956   2.388   7.536   1.636  0.9503 -0.4183 -1.0591
   38MOL0     H 4957   2.390   7.751   1.796  0.7848  1.3098  0.7977
   38MOL0     H 4958   2.520   7.805   1.694  0.7168 -0.8432  1.3249
   38MOL0     H 4959   2.516   7.579   1.900  0.7163  0.0337 -1.1397
   38MOL0     H 4960   2.623   7.574   1.756  1.1783  2.6291 -0.8878
   38MOL0     H 4961   2.624   7.805   1.961  0.7075 -1.5397  2.2329
   38MOL0     H 4962   2.719   7.779   1.815  1.1783 -0.7945  0.6469
   38MOL0     H 4963   2.824   7.738   2.040 -1.3390  1.7743 -0.8513
   38MOL0     H 4964   2.848   7.617   1.918  1.0435  0.5353  0.4717
   38MOL0     H 4965   2.679   7.483   1.998 -0.3827  0.1734  0.0465
   38MOL0     H 4966   2.801   7.498   2.129  1.3782 -0.2285 -2.1305
   38MOL0     H 4967   2.583   7.507   2.236 -2.4012  3.2636  4.0179
   38MOL0     H 4968   2.531   7.631   2.137 -0.3279  1.6969  0.6883
   38MOL0     H 4969   2.784   7.558   2.416 -0.5654 -0.2068 -0.0005
   38MOL0     H 4970   2.730   7.660   2.660  0.5751 -0.3596 -1.0282
   38MOL0     H 4971   2.731   7.832   2.681 -2.9230 -3.4250  3.1475
   38MOL0     H 4972   2.968   7.666   2.570 -0.9131  0.7821 -1.4899
   38MOL0     H 4973   2.961   7.747   2.734  1.2277  2.4630 -0.8827
   38MOL0     H 4974   3.018   7.874   2.461 -0.3068 -0.0203 -0.8372
   38MOL0     H 4975   2.917   7.964   2.578  0.2168 -0.5988  1.4923
   38MOL0     H 4976   3.145   8.021   2.591 -0.9766  0.8765 -1.5790
   38MOL0     H 4977   3.174   7.846   2.596 -1.8176 -0.0447 -0.5179
   38MOL0     H 4978   3.050   7.896   3.012 -0.8207  1.9860 -2.3497
   38MOL0     H 4979   3.211   7.839   3.188  1.5559 -2.1819 -0.4285
   38MOL0     H 4980   3.564   7.960   3.414 -1.1644  1.1476 -0.2302
   38MOL0     H 4981   3.682   7.931   3.638  2.0781 -0.0235 -0.7636
   38MOL0     H 4982   3.863   7.789   3.862  1.9501 -1.1106  0.9388
   38MOL0     H 4983   3.870   7.800   3.690  1.4672  1.1777  0.8585
   38MOL0     H 4984   4.023   7.626   3.738  0.2093  0.2176  2.2778
   38MOL0     H 4985   3.888   7.539   3.675  2.9930 -0.5616 -0.3754
   38MOL0     H 4986   3.832   7.492   3.931  0.5375 -1.1354  0.0551
   38MOL0     H 4987   3.989   7.576   3.965  2.0836 -0.2928 -0.0293
   38MOL0     H 4988   3.951   7.334   3.771 -1.7927  0.1293 -0.1176
   38MOL0     H 4989   4.101   7.417   3.829 -0.6073 -0.4430 -0.3856
   38MOL0     H 4990   4.045   7.188   3.952  1.5103 -0.8497  1.7634
   38MOL0     H 4991   3.885   7.250   3.998  0.0425 -0.8258 -3.4210
   38MOL0     H 4992   4.003   7.438   4.122 -1.3963  0.1916 -1.6448
   38MOL0     H 4993   4.157   7.379   4.054 -0.5412  3.1994  0.1071
   38MOL0     H 4994   4.137   7.167   4.171  0.1279  1.7954 -0.8246
   38MOL0     H 4995   4.138   7.307   4.286 -0.3620  1.2075 -0.2990
   38MOL0     H 4996   3.974   7.114   4.318  1.2386 -1.3184 -3.9480
   38MOL0     H 4997   3.869   7.201   4.206  1.3421  2.0634 -2.1562
   38MOL0     H 4998   3.561   7.525   3.635  1.3997 -1.2971 -1.1689
   38MOL0     H 4999   3.460   7.546   3.411  0.8069 -0.8998 -0.3805
   38MOL0     H 5000   3.530   7.908   2.905 -0.7366  2.8192 -0.1297
   38MOL0     H 5001   3.379   7.964   2.738  1.8269  0.3360  1.5341
   38MOL0     H 5002   2.339   7.843   1.234 -0.7234 -0.0811 -3.3445
   38MOL0     H 5003   2.458   7.772   1.025  1.6928 -0.2890  0.3217
   38MOL0     H 5004   2.569   7.306   0.819  0.3370  0.8739  0.5040
   38MOL0     H 5005   2.703   7.174   0.681 -3.9536  2.8274 -4.5562
   38MOL0     H 5006   3.093   7.202   0.709  4.1687 -1.5415 -1.6816
   38MOL0     H 5007   3.127   7.219   0.536  0.8693  1.0911  0.3382
   38MOL0     H 5008   3.163   6.986   0.642 -0.0894 -0.2640 -1.3274
   38MOL0     H 5009   2.981   6.978   0.672 -0.2824  0.7099  0.5403
   38MOL0     H 5010   3.136   7.014   0.411  0.1377 -1.9015 -1.4931
   38MOL0     H 5011   2.967   7.021   0.421  2.0288  1.3018 -2.1098
   38MOL0     H 5012   3.152   6.780   0.424 -0.8903  0.5351 -1.7678
   38MOL0     H 5013   3.016   6.756   0.537  0.7736 -1.3534 -0.2546
   38MOL0     H 5014   2.779   6.742   0.197 -1.0074  3.3968 -1.7371
   38MOL0     H 5015   3.003   7.467   0.658 -0.9974  4.0263 -0.7734
   38MOL0     H 5016   2.854   7.626   0.787 -1.4904  1.5962 -4.6765
   39MOL0     O 5017   8.191   6.893   8.069 -0.1958 -0.2134 -0.3530
   39MOL0     C 5018   8.175   6.982   8.159  0.7456 -0.7056 -0.6907
   39MOL0     O 5019   8.089   6.988   8.260  0.7256 -0.0546 -0.4432
   39MOL0     C 5020   8.018   6.869   8.275  0.7768  0.0999 -0.1259
   39MOL0     C 5021   8.068   6.748   8.314  0.7708 -0.5747 -0.1947
   39MOL0     C 5022   7.986   6.633   8.330  0.8047  0.5502 -0.2310
   39MOL0     C 5023   7.848   6.639   8.317  0.0725 -0.4520 -0.1964
   39MOL0     O 5024   7.765   6.538   8.359  0.0535  0.6699  0.3201
   39MOL0     C 5025   7.805   6.400   8.360  0.4118  0.1742 -0.6777
   39MOL0     C 5026   7.783   6.330   8.496  0.3287  0.2674  0.9102
   39MOL0     C 5027   7.795   6.175   8.486 -0.5893 -0.1734  0.3903
   39MOL0     C 5028   7.762   6.101   8.615  0.2031  0.3081 -0.2268
   39MOL0     C 5029   7.766   5.955   8.608  0.0978  0.5700  0.5344
   39MOL0     C 5030   7.698   5.887   8.726  0.7284 -0.7785 -0.7595
   39MOL0     C 5031   7.757   5.927   8.856  0.6778 -0.7851  0.6931
   39MOL0     C 5032   7.905   5.888   8.874 -0.5834  0.4745 -0.2285
   39MOL0     N 5033   7.912   5.747   8.900 -0.2657 -0.0193 -1.1149
   39MOL0     C 5034   7.889   5.684   9.016 -0.1377 -0.6943  0.0593
   39MOL0     C 5035   7.936   5.558   8.999  0.1206 -0.1231 -0.2560
   39MOL0     C 5036   7.920   5.443   9.094 -0.1592  0.0417  0.3758
   39MOL0     C 5037   7.990   5.475   9.227  0.1237  0.2811  0.0172
   39MOL0     C 5038   7.967   5.354   9.311  0.2904  0.7052 -0.8189
   39MOL0     C 5039   8.059   5.345   9.431 -0.3260  0.4292 -0.0257
   39MOL0     O 5040   8.041   5.215   9.493 -0.0599  0.1276  0.5756
   39MOL0     C 5041   8.127   5.180   9.599 -0.3204 -0.7092  0.8127
   39MOL0     C 5042   8.208   5.068   9.584  0.3296  0.1926 -0.3397
   39MOL0     C 5043   8.271   5.024   9.701 -0.2292  0.4272  0.7338
   39MOL0     C 5044   8.271   5.088   9.822  0.5131  0.2592  0.1512
   39MOL0     C 5045   8.318   5.029   9.938 -0.4105  0.5349  0.5911
   39MOL0     O 5046   8.435   4.971   9.947 -0.8223 -0.0301  0.2872
   39MOL0     C 5047   8.464   4.903  10.067  0.0578  0.0110 -0.0137
   39MOL0     C 5048   8.549   4.969  10.159 -0.4474  0.3324 -0.0222
   39MOL0     C 5049   8.580   4.896  10.274  0.4993  0.2203  0.5458
   39MOL0     C 5050   8.536   4.767  10.300  0.1877 -0.0578  0.2895
   39MOL0     O 5051   8.575   4.709  10.417  0.3183 -0.3982  1.4901
   39MOL0     C 5052   8.618   4.571  10.407 -0.5758 -0.1478 -0.1877
   39MOL0     C 5053   8.743   4.554  10.498 -0.1225 -0.0617  0.3910
   39MOL0     C 5054   8.776   4.410  10.493 -0.2051 -0.5014 -0.6607
   39MOL0     C 5055   8.906   4.394  10.561 -0.8095 -0.9716 -0.5453
   39MOL0     C 5056   8.950   4.246  10.577  0.3662 -0.7053 -0.0103
   39MOL0     C 5057   9.016   4.193  10.451 -0.3423 -0.4271  0.1003
   39MOL0     C 5058   9.064   4.049  10.461 -0.9695  0.0686  0.1577
   39MOL0     C 5059   8.965   3.940  10.433 -0.3136 -0.5149  0.0488
   39MOL0    Cl 5060   9.043   3.773  10.429  0.4915  0.4426 -0.2154
   39MOL0     C 5061   8.456   4.704  10.203 -0.3646  0.6500  0.4989
   39MOL0     C 5062   8.419   4.771  10.086 -1.2854 -0.5459  0.4529
   39MOL0     O 5063   8.236   5.036  10.030 -0.2541 -0.0192  0.4420
   39MOL0     C 5064   8.194   5.212   9.831  0.2950  0.0187 -0.5384
   39MOL0     C 5065   8.121   5.247   9.720  0.9127 -0.3410 -0.1520
   39MOL0     N 5066   7.981   5.543   8.868 -0.2480  0.2491  0.1454
   39MOL0     N 5067   7.964   5.662   8.811 -0.3006  0.3138 -0.3075
   39MOL0     C 5068   7.805   6.766   8.276  0.6117  0.6866  0.0148
   39MOL0     C 5069   7.881   6.882   8.273 -0.0992 -0.8112  0.2108
   39MOL0     C 5070   8.253   7.101   8.151  0.4855  0.9130  0.1508
   39MOL0     C 5071   8.363   7.106   8.064  0.4075  0.3907 -0.1813
   39MOL0     C 5072   8.458   7.212   8.063  0.0071 -0.9278  0.1136
   39MOL0     C 5073   8.427   7.325   8.143 -0.0546 -0.8173 -1.2134
   39MOL0     O 5074   8.513   7.428   8.120 -0.2788  0.0529  0.8905
   39MOL0     C 5075   8.515   7.525   8.226 -0.9464  0.1117 -0.5706
   39MOL0     C 5076   8.640   7.612   8.244  0.7048 -0.5926 -0.4277
   39MOL0     C 5077   8.692   7.677   8.118 -0.5890 -0.3567 -0.2203
   39MOL0     C 5078   8.614   7.787   8.045 -0.6106 -0.3827  0.0399
   39MOL0     C 5079   8.681   7.920   8.085  0.6270  0.1638  0.9231
   39MOL0     C 5080   8.754   8.008   8.134 -0.6681 -0.2463  0.1732
   39MOL0     C 5081   8.313   7.327   8.231 -0.1069 -0.1826  0.0544
   39MOL0     C 5082   8.230   7.212   8.228 -0.1271  0.0646 -0.4587
   39MOL0     H 5083   8.176   6.736   8.317  0.8820 -1.2275  5.6424
   39MOL0     H 5084   8.032   6.538   8.352  1.2254  0.6264 -0.7519
   39MOL0     H 5085   7.905   6.382   8.319 -0.0590 -1.4813 -1.2224
   39MOL0     H 5086   7.740   6.337   8.297  1.2866 -3.3298  1.6234
   39MOL0     H 5087   7.689   6.358   8.543 -0.1956 -0.0732  0.0879
   39MOL0     H 5088   7.869   6.356   8.558  2.3841 -0.5023 -1.4112
   39MOL0     H 5089   7.900   6.148   8.470  0.1243  0.6489  3.0265
   39MOL0     H 5090   7.737   6.133   8.403 -1.0143 -0.2162  0.7056
   39MOL0     H 5091   7.826   6.133   8.699 -2.9291  3.7527  1.1320
   39MOL0     H 5092   7.665   6.136   8.651 -1.9906 -1.5487 -3.8494
   39MOL0     H 5093   7.865   5.910   8.598 -0.1499  0.1580 -0.1428
   39MOL0     H 5094   7.709   5.916   8.522  1.2990  0.0943 -0.0754
   39MOL0     H 5095   7.707   5.779   8.717 -1.2914 -1.1449  0.8183
   39MOL0     H 5096   7.591   5.908   8.718  0.5734 -1.4144 -0.3708
   39MOL0     H 5097   7.748   6.035   8.875 -1.5009 -0.6548 -0.7528
   39MOL0     H 5098   7.699   5.880   8.936  0.4670 -0.0361  0.9999
   39MOL0     H 5099   7.945   5.928   8.968  0.2910 -2.7364  0.9030
   39MOL0     H 5100   7.959   5.925   8.786  1.2875 -2.0892 -0.2902
   39MOL0     H 5101   7.835   5.722   9.102 -1.1584 -0.4286 -0.6771
   39MOL0     H 5102   7.973   5.362   9.044  1.4330  1.6847 -0.7281
   39MOL0     H 5103   7.815   5.411   9.099 -0.9254  2.4635  1.1596
   39MOL0     H 5104   7.941   5.556   9.281 -0.2604 -0.6577  1.1030
   39MOL0     H 5105   8.096   5.486   9.200 -0.5480  0.6627 -2.8020
   39MOL0     H 5106   7.868   5.345   9.356  1.6665  0.8492  2.5233
   39MOL0     H 5107   7.973   5.266   9.245  0.4298  0.1287 -0.0451
   39MOL0     H 5108   8.021   5.409   9.511  0.4177 -1.6023  2.0364
   39MOL0     H 5109   8.164   5.367   9.412 -0.4971  1.1473 -0.1796
   39MOL0     H 5110   8.214   5.001   9.499  1.8151  0.3226 -0.3657
   39MOL0     H 5111   8.326   4.931   9.688 -2.6037 -1.1751  1.3426
   39MOL0     H 5112   8.592   5.066  10.135 -2.1417  0.8428 -1.2379
   39MOL0     H 5113   8.664   4.939  10.327  2.3898 -1.4936 -0.8911
   39MOL0     H 5114   8.639   4.544  10.303 -1.7332  3.9419 -1.7068
   39MOL0     H 5115   8.536   4.505  10.435 -1.2028 -0.7967 -3.1812
   39MOL0     H 5116   8.720   4.574  10.603  3.4543 -0.1328  1.3258
   39MOL0     H 5117   8.824   4.620  10.466  1.1546 -0.3486  2.8012
   39MOL0     H 5118   8.788   4.375  10.390  3.5928 -0.7161 -0.2781
   39MOL0     H 5119   8.684   4.362  10.528 -0.9342  2.1825  1.3730
   39MOL0     H 5120   8.986   4.455  10.519  0.0919 -0.5090  1.6901
   39MOL0     H 5121   8.893   4.431  10.663  3.1812 -2.3577  0.6372
   39MOL0     H 5122   8.861   4.183  10.589 -1.7301  1.6496 -1.9214
   39MOL0     H 5123   9.016   4.234  10.663 -0.2090  1.2614  0.7785
   39MOL0     H 5124   9.099   4.260  10.428 -1.4770  0.0185 -3.1258
   39MOL0     H 5125   8.942   4.215  10.373 -0.6438  1.4652  0.8366
   39MOL0     H 5126   9.146   4.047  10.388 -0.9535  3.1277 -0.0348
   39MOL0     H 5127   9.106   4.023  10.559  2.4611  0.6497 -1.0149
   39MOL0     H 5128   8.934   3.960  10.330  3.1368  0.6393 -0.8927
   39MOL0     H 5129   8.882   3.951  10.504  1.3333 -1.5915  2.2348
   39MOL0     H 5130   8.419   4.603  10.219 -0.8484  0.6236 -0.6839
   39MOL0     H 5131   8.365   4.715  10.010 -2.2349 -1.5337  1.7902
   39MOL0     H 5132   8.189   5.271   9.922 -1.9704  1.1894 -1.3397
   39MOL0     H 5133   8.063   5.338   9.734 -2.0981 -2.5379  3.5834
   39MOL0     H 5134   7.698   6.771   8.257  0.6613  0.7012 -0.2682
   39MOL0     H 5135   7.838   6.980   8.257 -1.2546 -1.0741  1.5416
   39MOL0     H 5136   8.392   7.017   8.008 -1.0606 -1.6181  2.0764
   39MOL0     H 5137   8.545   7.203   7.999  0.0981  0.1627  0.0633
   39MOL0     H 5138   8.514   7.474   8.323  0.7889 -0.5351 -0.8649
   39MOL0     H 5139   8.423   7.583   8.218 -1.1078  0.2278  1.4214
   39MOL0     H 5140   8.605   7.695   8.305  0.3446 -0.7228 -0.4564
   39MOL0     H 5141   8.727   7.561   8.289 -0.1165 -2.2779 -0.6581
   39MOL0     H 5142   8.701   7.593   8.047  2.2219 -0.9911  0.7645
   39MOL0     H 5143   8.793   7.715   8.130 -0.8133  0.8674 -1.8646
   39MOL0     H 5144   8.615   7.777   7.936 -0.5731  0.0500 -0.0041
   39MOL0     H 5145   8.509   7.778   8.074 -0.9557 -1.1714 -1.3670
   39MOL0     H 5146   8.822   8.078   8.178 -2.2171 -0.0054  2.3753
   39MOL0     H 5147   8.276   7.416   8.280 -1.7327 -0.3590 -0.7933
   39MOL0     H 5148   8.153   7.208   8.304 -0.3751  0.4053 -0.6912
   40MOL0     O 5149   6.526   7.423   4.195  0.5043  0.4353  1.0609
   40MOL0     C 5150   6.571   7.511   4.259 -0.1082 -0.1658  0.4631
   40MOL0     O 5151   6.707   7.527   4.292 -0.0525  0.4731  0.0017
   40MOL0     C 5152   6.795   7.426   4.255  0.2134 -0.1194  0.1987
   40MOL0     C 5153   6.887   7.455   4.149 -0.9297  0.0513 -0.0654
   40MOL0     C 5154   6.983   7.358   4.105  0.5567  0.1915 -0.2031
   40MOL0     C 5155   7.002   7.247   4.184 -0.1625  0.6411  0.1397
   40MOL0     O 5156   7.106   7.164   4.149  0.1905  0.2799 -0.7607
   40MOL0     C 5157   7.100   7.033   4.208  0.0494  0.2436 -0.3462
   40MOL0     C 5158   7.201   6.935   4.152  1.0163  0.2221 -0.6201
   40MOL0     C 5159   7.250   6.844   4.262 -0.1818 -0.1537  0.2528
   40MOL0     C 5160   7.355   6.743   4.207  0.4977 -0.6695  0.5588
   40MOL0     C 5161   7.408   6.647   4.314  0.0395  0.5564  0.8586
   40MOL0     C 5162   7.296   6.548   4.350 -0.1162  0.3946 -0.2314
   40MOL0     C 5163   7.350   6.432   4.446 -0.1379  0.5048  0.0227
   40MOL0     C 5164   7.257   6.311   4.454  0.1296  0.4824  0.6069
   40MOL0     N 5165   7.128   6.361   4.512 -0.3556  0.2966 -0.3903
   40MOL0     C 5166   7.023   6.408   4.436  0.2721  0.0432 -0.4198
   40MOL0     C 5167   6.929   6.434   4.537  0.3338  0.1081  0.3500
   40MOL0     C 5168   6.796   6.486   4.499 -0.5092 -0.4246 -0.2862
   40MOL0     C 5169   6.804   6.631   4.443  0.1450  0.5329 -0.1031
   40MOL0     C 5170   6.870   6.721   4.550  0.9649 -0.5694  0.6750
   40MOL0     C 5171   6.855   6.861   4.502  0.0247 -0.2787  0.2596
   40MOL0     O 5172   6.868   6.954   4.613  0.8978  0.1636 -0.0660
   40MOL0     C 5173   6.766   6.964   4.704 -0.2706 -0.0873 -0.2433
   40MOL0     C 5174   6.790   7.025   4.825 -0.3189 -0.4616 -0.1847
   40MOL0     C 5175   6.691   7.018   4.928  0.7082  1.3018  0.9562
   40MOL0     C 5176   6.568   6.962   4.905  0.5733 -0.6666 -0.1161
   40MOL0     C 5177   6.471   6.946   5.013  0.4855 -0.7110 -0.3674
   40MOL0     O 5178   6.509   7.002   5.126 -0.0826 -0.4347  0.0019
   40MOL0     C 5179   6.438   6.992   5.241  0.1561 -0.5653  0.6795
   40MOL0     C 5180   6.498   6.991   5.372 -0.2765  0.3448 -0.8011
   40MOL0     C 5181   6.415   6.979   5.491 -0.4964 -0.9915 -0.9154
   40MOL0     C 5182   6.281   6.993   5.482  0.6660 -0.2401 -0.2667
   40MOL0     O 5183   6.200   6.992   5.598 -0.0885 -0.3159  0.2281
   40MOL0     C 5184   6.248   7.063   5.715  1.0442  0.8279  0.1729
   40MOL0     C 5185   6.125   7.091   5.810 -0.7716  0.1062  0.9418
   40MOL0     C 5186   6.029   7.204   5.767  0.6800 -1.4844 -0.8089
   40MOL0     C 5187   5.894   7.193   5.851  0.4853 -0.8598  0.3725
   40MOL0     C 5188   5.789   7.301   5.833 -0.4379 -0.7309 -0.0314
   40MOL0     C 5189   5.655   7.245   5.877  0.3571 -0.4294 -0.1706
   40MOL0     C 5190   5.549   7.341   5.900  0.5735 -0.0856 -0.3383
   40MOL0     C 5191   5.418   7.281   5.951 -1.2316  0.5595 -0.0490
   40MOL0    Cl 5192   5.362   7.136   5.861 -0.0939  0.1076  0.4852
   40MOL0     C 5193   6.226   6.994   5.358  0.2298 -0.4528  0.8770
   40MOL0     C 5194   6.300   7.004   5.238 -0.5768 -0.3144  0.0002
   40MOL0     O 5195   6.367   6.877   5.001  0.5818 -0.4677  0.0240
   40MOL0     C 5196   6.545   6.897   4.781 -0.0113  0.0256  0.2576
   40MOL0     C 5197   6.643   6.896   4.688  0.0067  0.1811  1.2239
   40MOL0     N 5198   6.980   6.399   4.659 -0.4331 -0.1442  1.4132
   40MOL0     N 5199   7.101   6.352   4.640 -1.6402  0.3736 -0.4509
   40MOL0     C 5200   6.912   7.225   4.299  0.3206 -0.3780  0.3524
   40MOL0     C 5201   6.807   7.306   4.327  0.2767 -0.4102 -0.2434
   40MOL0     C 5202   6.475   7.610   4.294 -0.5696 -0.1419  0.5186
   40MOL0     C 5203   6.350   7.620   4.249  0.3101 -0.4483  0.5549
   40MOL0     C 5204   6.259   7.717   4.295  0.1913 -1.1041  0.4512
   40MOL0     C 5205   6.294   7.817   4.386 -0.5463  0.2299 -0.4467
   40MOL0     O 5206   6.212   7.912   4.435  0.2742  0.4029 -0.7744
   40MOL0     C 5207   6.180   8.012   4.341 -0.1984 -0.5868 -0.0995
   40MOL0     C 5208   6.282   8.122   4.335  0.1862 -0.1037 -0.1923
   40MOL0     C 5209   6.275   8.202   4.465 -0.6450 -0.0914 -0.6143
   40MOL0     C 5210   6.384   8.319   4.458 -0.1503  0.1318  0.2493
   40MOL0     C 5211   6.391   8.420   4.566 -1.3640 -0.6984  0.0543
   40MOL0     C 5212   6.396   8.507   4.656  0.9063 -0.1711  0.3726
   40MOL0     C 5213   6.426   7.804   4.434 -0.2718 -0.5166  0.8363
   40MOL0     C 5214   6.512   7.706   4.384  0.4400 -0.4442  0.3436
   40MOL0     H 5215   6.880   7.550   4.096  0.9232 -0.2704 -0.9763
   40MOL0     H 5216   7.037   7.380   4.013 -1.0098  2.0132 -0.7585
   40MOL0     H 5217   7.007   6.980   4.185  2.0348 -2.4830 -2.9434
   40MOL0     H 5218   7.110   7.033   4.317  1.0614 -2.0884 -0.3964
   40MOL0     H 5219   7.289   6.975   4.101 -0.2041  1.2863 -1.9684
   40MOL0     H 5220   7.150   6.881   4.072  2.8971 -0.3459 -1.4963
   40MOL0     H 5221   7.164   6.794   4.309 -0.8692  0.0529 -0.7474
   40MOL0     H 5222   7.300   6.902   4.340  0.2998  0.5694 -0.5842
   40MOL0     H 5223   7.311   6.696   4.118  1.2153  1.4522 -0.9829
   40MOL0     H 5224   7.440   6.795   4.162 -0.7144  0.6241 -0.2927
   40MOL0     H 5225   7.440   6.712   4.396  1.3238  1.2505 -0.1583
   40MOL0     H 5226   7.497   6.597   4.275 -1.9125 -1.5197 -1.2526
   40MOL0     H 5227   7.242   6.502   4.266  0.2769 -3.8016  1.5925
   40MOL0     H 5228   7.220   6.603   4.407  0.4337  0.1613  0.7251
   40MOL0     H 5229   7.445   6.391   4.412 -1.2812 -0.1684 -2.7048
   40MOL0     H 5230   7.358   6.477   4.545 -0.0526  3.8888 -1.4132
   40MOL0     H 5231   7.297   6.237   4.523  1.1223  0.4081 -0.0306
   40MOL0     H 5232   7.241   6.272   4.353  0.4353 -2.8415  1.7320
   40MOL0     H 5233   7.014   6.436   4.332  1.4674 -1.6649 -1.0347
   40MOL0     H 5234   6.723   6.483   4.580 -0.5196  0.4908 -0.2476
   40MOL0     H 5235   6.756   6.423   4.420  3.5613 -1.7170 -1.5923
   40MOL0     H 5236   6.702   6.661   4.421 -0.2563 -0.2335  0.6648
   40MOL0     H 5237   6.877   6.639   4.361 -0.0083  1.2075 -0.1750
   40MOL0     H 5238   6.811   6.703   4.641  0.2725  0.3845  0.4329
   40MOL0     H 5239   6.975   6.704   4.574  0.6650  0.0943  2.6499
   40MOL0     H 5240   6.761   6.868   4.447 -0.3246 -1.0491  0.7456
   40MOL0     H 5241   6.925   6.872   4.418  1.2432  1.1168  1.3818
   40MOL0     H 5242   6.879   7.085   4.841  0.6078 -1.6987 -0.6094
   40MOL0     H 5243   6.718   7.067   5.022  1.0568  1.3512  0.8336
   40MOL0     H 5244   6.606   6.984   5.381 -0.1855  0.5445 -1.6045
   40MOL0     H 5245   6.464   6.972   5.587  0.3625 -1.6186 -1.3905
   40MOL0     H 5246   6.281   7.159   5.672  0.3399  1.5953  1.2981
   40MOL0     H 5247   6.329   7.006   5.762 -0.8900 -1.4137  0.9686
   40MOL0     H 5248   6.157   7.105   5.914  1.2627  2.2013  0.1397
   40MOL0     H 5249   6.066   7.000   5.801 -0.6784  0.1965 -1.4066
   40MOL0     H 5250   6.000   7.204   5.662 -1.2685  3.0331 -0.4854
   40MOL0     H 5251   6.079   7.301   5.776 -0.7820 -0.7821  0.1329
   40MOL0     H 5252   5.850   7.097   5.822 -0.4230  0.0281 -1.3041
   40MOL0     H 5253   5.920   7.193   5.958  0.0518 -3.2415  0.5430
   40MOL0     H 5254   5.788   7.338   5.730 -0.5239  3.0552  1.1447
   40MOL0     H 5255   5.815   7.398   5.878  0.0915 -1.8164  2.0954
   40MOL0     H 5256   5.666   7.185   5.968  2.1084 -1.0630 -0.7710
   40MOL0     H 5257   5.629   7.165   5.807 -0.4184  0.9923 -1.5742
   40MOL0     H 5258   5.584   7.404   5.983  1.5956 -0.7257 -0.2692
   40MOL0     H 5259   5.541   7.408   5.813  1.7065 -0.0159 -0.4092
   40MOL0     H 5260   5.360   7.374   5.940  3.6753  4.1975  1.2475
   40MOL0     H 5261   5.432   7.256   6.057 -4.0017 -1.1584  0.0324
   40MOL0     H 5262   6.118   6.998   5.349 -0.0482 -0.7181  3.3608
   40MOL0     H 5263   6.241   7.035   5.152  1.7596 -4.0962 -3.3307
   40MOL0     H 5264   6.448   6.853   4.760 -0.1383  0.5481 -0.2874
   40MOL0     H 5265   6.611   6.845   4.597 -0.2161  3.0728 -0.4382
   40MOL0     H 5266   6.910   7.138   4.364  2.7689  0.1779  1.2924
   40MOL0     H 5267   6.726   7.277   4.393 -0.7414 -1.3009 -1.8204
   40MOL0     H 5268   6.321   7.536   4.188  0.4058 -0.4314  0.4868
   40MOL0     H 5269   6.155   7.725   4.267  0.4216  2.8011  0.2347
   40MOL0     H 5270   6.077   8.048   4.349  0.1190  0.4097 -0.4523
   40MOL0     H 5271   6.170   7.963   4.244  0.4319 -0.4566 -0.2282
   40MOL0     H 5272   6.385   8.089   4.322 -0.0582 -0.2996 -1.9059
   40MOL0     H 5273   6.267   8.182   4.245  4.9906 -1.2455 -2.0516
   40MOL0     H 5274   6.294   8.142   4.555  0.4107 -0.3850 -1.0121
   40MOL0     H 5275   6.175   8.245   4.467 -0.9182 -0.7494  0.4625
   40MOL0     H 5276   6.478   8.267   4.439 -0.6010 -1.3892  1.8859
   40MOL0     H 5277   6.373   8.384   4.371  2.2459  2.8842  1.8407
   40MOL0     H 5278   6.374   8.572   4.738 -4.8099  0.1609 -0.9898
   40MOL0     H 5279   6.460   7.875   4.508 -0.9982 -0.3438  1.0122
   40MOL0     H 5280   6.607   7.693   4.435  1.0021  1.2209 -0.2406
   41MOL0     O 5281   4.463   0.356   7.589  0.0891 -0.1652  0.7994
   41MOL0     C 5282   4.470   0.319   7.705  0.4949 -0.7163  0.6929
   41MOL0     O 5283   4.376   0.337   7.797  0.7432 -0.1178 -0.3005
   41MOL0     C 5284   4.261   0.404   7.758 -0.1880  0.1936 -0.5023
   41MOL0     C 5285   4.230   0.526   7.814  1.0937  0.4496 -0.1928
   41MOL0     C 5286   4.117   0.590   7.764 -0.3214 -0.4273 -0.9217
   41MOL0     C 5287   4.023   0.529   7.679 -0.5951 -0.7322 -0.1235
   41MOL0     O 5288   3.914   0.607   7.665 -0.0325  0.3290  0.9254
   41MOL0     C 5289   3.838   0.588   7.543  0.5110 -0.3292 -0.1323
   41MOL0     C 5290   3.712   0.663   7.531  0.2820 -0.5538  0.3545
   41MOL0     C 5291   3.606   0.622   7.631  0.3321 -0.0292 -0.2621
   41MOL0     C 5292   3.491   0.732   7.655  0.2100  0.3061 -0.5582
   41MOL0     C 5293   3.402   0.702   7.780 -0.8026 -0.0665  0.6682
   41MOL0     C 5294   3.294   0.592   7.771 -0.1883  0.1947  0.1134
   41MOL0     C 5295   3.165   0.612   7.854 -0.4026  0.2323 -0.0001
   41MOL0     C 5296   3.194   0.614   8.002  0.0040 -0.5791  0.2970
   41MOL0     N 5297   3.066   0.611   8.074  0.6693 -0.7319 -0.3938
   41MOL0     C 5298   2.995   0.494   8.099 -0.5284 -0.0874  0.2195
   41MOL0     C 5299   2.864   0.528   8.127 -0.2175  0.4373  0.4234
   41MOL0     C 5300   2.743   0.441   8.172 -0.8546 -0.3201 -0.3628
   41MOL0     C 5301   2.743   0.422   8.325  0.1339 -0.5219 -0.0905
   41MOL0     C 5302   2.724   0.276   8.380  0.3589 -0.5652 -0.2221
   41MOL0     C 5303   2.710   0.279   8.532 -0.0417 -0.5163 -0.5000
   41MOL0     O 5304   2.737   0.149   8.567  0.3279  0.2333  0.7432
   41MOL0     C 5305   2.697   0.118   8.693  0.7307 -0.1697 -0.4442
   41MOL0     C 5306   2.732  -0.013   8.716  0.1597 -0.4205  0.7017
   41MOL0     C 5307   2.720  -0.065   8.834 -0.0775  0.3975 -0.5076
   41MOL0     C 5308   2.674   0.008   8.945  0.1752 -0.2087  0.6033
   41MOL0     C 5309   2.643  -0.060   9.074  0.4076 -0.1986  0.0953
   41MOL0     O 5310   2.604  -0.195   9.073  0.2760  0.1237 -0.1964
   41MOL0     C 5311   2.576  -0.246   9.197  0.5093  0.2780  0.8252
   41MOL0     C 5312   2.482  -0.350   9.200 -0.7114 -0.2026 -0.2827
   41MOL0     C 5313   2.466  -0.420   9.316  1.0165  0.1384  0.0693
   41MOL0     C 5314   2.530  -0.400   9.435 -0.7556 -0.5048 -0.5549
   41MOL0     O 5315   2.508  -0.456   9.556  0.3424  0.4708 -0.0299
   41MOL0     C 5316   2.375  -0.501   9.578  0.6114 -0.0125 -0.0399
   41MOL0     C 5317   2.336  -0.518   9.722  0.8058 -0.6599 -0.1923
   41MOL0     C 5318   2.175  -0.520   9.754  0.0053 -0.7663 -0.5581
   41MOL0     C 5319   2.146  -0.555   9.899  0.1938 -0.5813  0.6333
   41MOL0     C 5320   1.995  -0.585   9.931 -1.2047 -0.5558  0.1738
   41MOL0     C 5321   1.927  -0.686   9.842 -0.2087  0.0454 -0.3084
   41MOL0     C 5322   1.970  -0.832   9.889 -0.5503 -1.0132 -1.1788
   41MOL0     C 5323   2.021  -0.916   9.771 -0.2279 -0.7957 -1.1629
   41MOL0    Cl 5324   2.018  -1.084   9.806 -0.0328  0.3557  0.0465
   41MOL0     C 5325   2.634  -0.308   9.429 -0.2782  0.3002  0.4215
   41MOL0     C 5326   2.655  -0.234   9.315 -0.4061 -0.8839  0.9071
   41MOL0     O 5327   2.644   0.010   9.174  0.4767  0.1311 -0.6651
   41MOL0     C 5328   2.655   0.152   8.928  0.9085 -0.0338 -0.8882
   41MOL0     C 5329   2.659   0.206   8.802 -0.8634 -0.9524 -0.0704
   41MOL0     N 5330   2.853   0.663   8.133  0.4869  0.1391 -0.3764
   41MOL0     N 5331   2.967   0.710   8.098  0.1736  0.1793 -0.6689
   41MOL0     C 5332   4.055   0.404   7.627 -0.0863  0.2036  0.4658
   41MOL0     C 5333   4.173   0.346   7.670 -0.0988  0.2043 -0.2689
   41MOL0     C 5334   4.604   0.259   7.758 -0.7663 -1.0869  0.8625
   41MOL0     C 5335   4.715   0.239   7.685  0.8639  1.3978  0.4154
   41MOL0     C 5336   4.840   0.185   7.737  0.4591 -0.0692 -0.6018
   41MOL0     C 5337   4.849   0.159   7.870  0.6535 -0.1991 -0.7200
   41MOL0     O 5338   4.973   0.107   7.906  0.2138  0.3392  0.0860
   41MOL0     C 5339   4.980   0.047   8.044 -0.1366 -0.6420  0.6673
   41MOL0     C 5340   4.960  -0.101   8.051 -0.6162 -1.1292  0.5238
   41MOL0     C 5341   5.084  -0.196   8.050 -0.9938  0.1254  0.0380
   41MOL0     C 5342   5.042  -0.338   8.027 -0.5134 -0.5735 -0.0200
   41MOL0     C 5343   5.003  -0.403   8.148  0.4638  0.2441 -0.5822
   41MOL0     C 5344   4.973  -0.461   8.251  0.2799  0.2579 -0.2054
   41MOL0     C 5345   4.742   0.190   7.960 -1.2106 -0.3195  0.1703
   41MOL0     C 5346   4.620   0.239   7.895 -0.4347 -0.4780 -0.4583
   41MOL0     H 5347   4.296   0.570   7.887 -3.1809  2.2471  3.0508
   41MOL0     H 5348   4.098   0.686   7.811  3.5700 -0.2734  0.6988
   41MOL0     H 5349   3.819   0.481   7.536 -0.6183 -0.3747  2.4128
   41MOL0     H 5350   3.892   0.614   7.451  1.1798 -2.3024 -0.3286
   41MOL0     H 5351   3.675   0.655   7.428 -0.3947  3.1056  0.1908
   41MOL0     H 5352   3.746   0.766   7.542  0.8037 -0.8187  1.3552
   41MOL0     H 5353   3.654   0.597   7.726  3.7586  1.3189 -1.4824
   41MOL0     H 5354   3.562   0.527   7.600 -1.3861  0.0774  1.6587
   41MOL0     H 5355   3.540   0.829   7.669 -0.8078  0.2924  6.2460
   41MOL0     H 5356   3.427   0.744   7.567  1.1875  1.3350 -1.1749
   41MOL0     H 5357   3.348   0.793   7.808  1.6715  0.7560  3.2709
   41MOL0     H 5358   3.473   0.679   7.861 -0.8062  1.1660  1.0430
   41MOL0     H 5359   3.337   0.493   7.786  2.3899  1.2210 -0.0092
   41MOL0     H 5360   3.250   0.591   7.671 -3.9300 -5.5078  1.3673
   41MOL0     H 5361   3.102   0.698   7.828 -1.4557 -0.5884 -0.2444
   41MOL0     H 5362   3.088   0.536   7.834  0.6495 -1.5223  2.0821
   41MOL0     H 5363   3.252   0.700   8.036  0.7694 -1.3703  1.0572
   41MOL0     H 5364   3.252   0.526   8.032  0.7624 -0.0024  0.5645
   41MOL0     H 5365   3.036   0.395   8.086  0.5662  0.5479 -1.6531
   41MOL0     H 5366   2.743   0.342   8.124 -2.1741 -0.4971 -0.0399
   41MOL0     H 5367   2.652   0.489   8.133 -0.9563 -1.8378 -2.1932
   41MOL0     H 5368   2.667   0.489   8.366  0.4892 -1.3674  2.1351
   41MOL0     H 5369   2.841   0.454   8.360  0.5269  0.3382 -1.9097
   41MOL0     H 5370   2.638   0.218   8.344  1.4279 -3.0728  1.0466
   41MOL0     H 5371   2.812   0.218   8.353  1.0045  0.5531 -0.5955
   41MOL0     H 5372   2.608   0.297   8.567  0.9911  1.1187  1.9676
   41MOL0     H 5373   2.769   0.362   8.573 -1.2099  1.2921 -2.2953
   41MOL0     H 5374   2.771  -0.065   8.629  1.9410  0.9081  0.6510
   41MOL0     H 5375   2.754  -0.168   8.848 -1.5283  0.0237  0.6417
   41MOL0     H 5376   2.436  -0.383   9.108  0.7248  1.0155 -1.4960
   41MOL0     H 5377   2.389  -0.496   9.313 -0.9494  1.5790  4.9282
   41MOL0     H 5378   2.360  -0.595   9.523 -2.2810  0.4545 -0.2311
   41MOL0     H 5379   2.304  -0.427   9.540  0.5931 -0.2821 -0.5330
   41MOL0     H 5380   2.384  -0.436   9.776 -2.6673 -0.5582  3.2409
   41MOL0     H 5381   2.367  -0.616   9.762 -1.3134  0.3375  4.6833
   41MOL0     H 5382   2.126  -0.596   9.692  1.3718  0.1892 -2.9820
   41MOL0     H 5383   2.131  -0.421   9.735 -1.0540 -0.3090  3.4308
   41MOL0     H 5384   2.198  -0.647   9.926 -0.1573 -1.0594 -0.2854
   41MOL0     H 5385   2.184  -0.477   9.966  2.7464  1.0325 -2.4357
   41MOL0     H 5386   1.947  -0.487   9.922  1.2513  0.8414  1.4027
   41MOL0     H 5387   1.987  -0.608  10.038  1.2778 -0.4296  0.4348
   41MOL0     H 5388   1.934  -0.672   9.734 -0.6859 -4.0803 -1.0274
   41MOL0     H 5389   1.823  -0.676   9.875 -0.1782 -1.6087  0.3700
   41MOL0     H 5390   2.044  -0.824   9.969 -2.5867  0.4942  0.6854
   41MOL0     H 5391   1.878  -0.866   9.938  0.6728 -1.0589  1.2617
   41MOL0     H 5392   2.120  -0.898   9.728  0.4526 -1.8406 -0.0857
   41MOL0     H 5393   1.949  -0.902   9.690  0.3253  1.3692 -1.3601
   41MOL0     H 5394   2.686  -0.288   9.522  1.5148 -0.2647 -0.4195
   41MOL0     H 5395   2.731  -0.156   9.312 -0.3370 -0.9359 -1.6880
   41MOL0     H 5396   2.602   0.196   9.012 -0.5890 -0.0505 -1.7906
   41MOL0     H 5397   2.657   0.314   8.791 -0.5568 -0.9660 -0.2640
   41MOL0     H 5398   3.985   0.372   7.551  0.6386  1.4511 -0.7613
   41MOL0     H 5399   4.194   0.249   7.628 -1.1908 -0.7112  1.2201
   41MOL0     H 5400   4.715   0.263   7.579 -2.1870 -3.7980 -1.1241
   41MOL0     H 5401   4.933   0.188   7.680 -0.5230 -0.4342 -2.2828
   41MOL0     H 5402   4.928   0.093   8.128  2.4587  0.8340  1.5930
   41MOL0     H 5403   5.079   0.060   8.088 -0.5041 -0.5616  1.4917
   41MOL0     H 5404   4.908  -0.137   8.140 -1.7270 -2.3887 -0.5977
   41MOL0     H 5405   4.899  -0.135   7.967 -1.4691 -0.5657  0.8928
   41MOL0     H 5406   5.136  -0.189   8.146 -0.1336  3.9657 -0.5428
   41MOL0     H 5407   5.162  -0.173   7.977 -0.2601 -4.7291 -1.0794
   41MOL0     H 5408   4.958  -0.359   7.960 -0.3069 -3.5346  0.4878
   41MOL0     H 5409   5.121  -0.402   7.987  0.3617  0.8899 -0.7117
   41MOL0     H 5410   4.946  -0.530   8.329 -3.7207  1.8387  0.0428
   41MOL0     H 5411   4.750   0.170   8.066 -2.1436 -2.5093 -0.1280
   41MOL0     H 5412   4.531   0.263   7.952 -0.8157 -0.5351 -1.0200
   42MOL0     O 5413   0.250   4.145   6.801  0.2776 -0.8044 -0.5598
   42MOL0     C 5414   0.194   4.226   6.726  0.4917 -1.2316  0.6078
   42MOL0     O 5415   0.231   4.361   6.710 -0.6287 -1.0001  1.2502
   42MOL0     C 5416   0.331   4.422   6.793  0.3137 -0.2113 -0.2144
   42MOL0     C 5417   0.415   4.521   6.726 -0.1181  0.7054 -0.9865
   42MOL0     C 5418   0.502   4.600   6.800  0.4469 -1.2837 -0.0542
   42MOL0     C 5419   0.517   4.574   6.934  0.1856 -1.0906 -0.1235
   42MOL0     O 5420   0.601   4.657   7.003 -0.7207 -0.2990  0.9128
   42MOL0     C 5421   0.685   4.599   7.103 -0.4027 -0.3830  0.2115
   42MOL0     C 5422   0.793   4.704   7.126  0.2600 -0.1713 -0.2794
   42MOL0     C 5423   0.880   4.725   7.006 -0.2077 -0.5179  0.6279
   42MOL0     C 5424   0.999   4.816   7.039  0.2340  0.2382  0.3975
   42MOL0     C 5425   1.087   4.822   6.911 -0.1031  0.0482 -0.1874
   42MOL0     C 5426   1.176   4.938   6.911  0.3250  0.6937  0.8074
   42MOL0     C 5427   1.286   4.930   6.799  0.1758 -0.0960 -0.0512
   42MOL0     C 5428   1.259   4.898   6.651 -0.5980  0.0423  0.3625
   42MOL0     N 5429   1.148   4.973   6.595  0.5486  0.0287  0.1747
   42MOL0     C 5430   1.127   5.116   6.607  0.2062  0.5213  0.5066
   42MOL0     C 5431   1.017   5.132   6.525  1.5522  0.3217 -0.3518
   42MOL0     C 5432   0.947   5.255   6.485 -0.5400  0.3999 -0.3536
   42MOL0     C 5433   0.978   5.294   6.347  1.0030 -1.0386  0.0021
   42MOL0     C 5434   0.892   5.415   6.295 -0.2534 -0.4181 -0.7412
   42MOL0     C 5435   0.897   5.553   6.378 -0.4117  0.5503  0.2322
   42MOL0     O 5436   0.849   5.547   6.514  0.0600 -0.5997  0.8701
   42MOL0     C 5437   0.891   5.646   6.597  0.1152 -0.4480 -0.7034
   42MOL0     C 5438   0.861   5.623   6.735 -0.5788  0.0611  0.9189
   42MOL0     C 5439   0.918   5.696   6.835  0.0873  0.3929 -1.6346
   42MOL0     C 5440   1.007   5.804   6.797  0.7547  0.5824  0.1526
   42MOL0     C 5441   1.068   5.883   6.901 -0.0608  0.0737  1.5034
   42MOL0     O 5442   1.152   5.980   6.859 -0.6847  0.2203  0.3831
   42MOL0     C 5443   1.208   6.054   6.955  0.1759 -0.1035  0.6573
   42MOL0     C 5444   1.153   6.171   6.990  1.2433 -0.0799 -0.6637
   42MOL0     C 5445   1.212   6.256   7.087 -0.5121 -1.2760  0.9460
   42MOL0     C 5446   1.320   6.210   7.162  1.1709 -0.0249 -0.3735
   42MOL0     O 5447   1.375   6.293   7.256  0.5170  0.0392  0.3463
   42MOL0     C 5448   1.515   6.293   7.290 -0.0890  0.6164 -0.0563
   42MOL0     C 5449   1.549   6.418   7.354  0.2514 -0.2672 -0.1676
   42MOL0     C 5450   1.698   6.439   7.391 -0.3727 -0.4806  0.3075
   42MOL0     C 5451   1.735   6.365   7.516  0.9261 -0.3951  0.4484
   42MOL0     C 5452   1.880   6.411   7.559 -0.1873 -1.0480  0.3021
   42MOL0     C 5453   1.931   6.310   7.666 -0.4125  0.3961  0.6310
   42MOL0     C 5454   2.046   6.360   7.759  0.1478 -0.1154  0.4086
   42MOL0     C 5455   2.162   6.394   7.673 -0.4511 -0.2694  0.1260
   42MOL0    Cl 5456   2.226   6.248   7.597  0.1714  0.1808 -0.5186
   42MOL0     C 5457   1.376   6.089   7.126  0.6602  0.7050  0.3441
   42MOL0     C 5458   1.312   6.009   7.026 -0.3871 -0.3843 -0.6791
   42MOL0     O 5459   1.040   5.853   7.016  0.3518  0.6706 -0.5145
   42MOL0     C 5460   1.028   5.832   6.663 -0.0133 -0.3863  1.2240
   42MOL0     C 5461   0.980   5.753   6.558  0.0075  0.5060 -0.3428
   42MOL0     N 5462   0.979   5.004   6.466  0.2267  0.9009  0.1847
   42MOL0     N 5463   1.053   4.912   6.519  0.0817  0.9099  0.3864
   42MOL0     C 5464   0.445   4.471   6.991  0.9749  0.1324 -0.4589
   42MOL0     C 5465   0.336   4.409   6.930 -0.1610  0.0826 -0.2044
   42MOL0     C 5466   0.080   4.180   6.642  0.5975 -1.0689  0.1257
   42MOL0     C 5467   0.005   4.256   6.552  0.6415  0.6430  0.3328
   42MOL0     C 5468  -0.102   4.207   6.479 -0.4019  0.2608  0.4126
   42MOL0     C 5469  -0.143   4.069   6.489  0.2008 -0.7871 -0.1314
   42MOL0     O 5470  -0.260   4.011   6.433 -0.6972  0.0356  0.1166
   42MOL0     C 5471  -0.353   4.102   6.358 -1.1984 -0.2693 -0.9249
   42MOL0     C 5472  -0.473   4.023   6.298 -0.1893  0.8098 -0.1621
   42MOL0     C 5473  -0.544   3.957   6.421  1.2519  0.2826 -0.3834
   42MOL0     C 5474  -0.621   3.830   6.381 -0.0869 -0.0555  0.0272
   42MOL0     C 5475  -0.741   3.868   6.301  0.5904 -0.1674 -0.1410
   42MOL0     C 5476  -0.832   3.876   6.216  0.1642 -0.0239  0.3921
   42MOL0     C 5477  -0.069   3.995   6.575  0.2191 -0.5753 -0.0181
   42MOL0     C 5478   0.040   4.043   6.649  0.2503 -0.6275 -0.3629
   42MOL0     H 5479   0.415   4.527   6.618 -2.0649  0.1938 -1.0551
   42MOL0     H 5480   0.570   4.673   6.758 -0.1687 -0.0488  1.0245
   42MOL0     H 5481   0.736   4.509   7.066 -2.3469 -2.8904  3.1779
   42MOL0     H 5482   0.631   4.570   7.193  1.4715 -3.7072  0.4311
   42MOL0     H 5483   0.858   4.675   7.209 -3.1746 -1.7195  2.1535
   42MOL0     H 5484   0.743   4.798   7.150 -0.2171  0.3040 -2.8038
   42MOL0     H 5485   0.832   4.769   6.918  2.5492  0.2824 -0.6133
   42MOL0     H 5486   0.919   4.629   6.972 -1.2432 -0.5528 -0.5261
   42MOL0     H 5487   0.965   4.919   7.056 -1.2323 -0.1746  0.0836
   42MOL0     H 5488   1.058   4.779   7.123  0.1304  2.1590  1.3776
   42MOL0     H 5489   1.029   4.827   6.819  0.4635  0.1326 -0.5440
   42MOL0     H 5490   1.131   4.724   6.890 -0.0101  0.2931 -1.1837
   42MOL0     H 5491   1.231   4.960   7.003  1.2627 -0.0809  0.4448
   42MOL0     H 5492   1.112   5.027   6.903 -0.7990 -0.1662  0.0473
   42MOL0     H 5493   1.328   5.031   6.801 -1.0148  0.5615 -2.7874
   42MOL0     H 5494   1.363   4.858   6.826 -1.0023 -0.7210  1.7936
   42MOL0     H 5495   1.221   4.797   6.633 -1.9383  0.7161 -0.7402
   42MOL0     H 5496   1.352   4.904   6.593 -2.0227  0.8562 -1.9936
   42MOL0     H 5497   1.189   5.187   6.660 -0.3645  1.7530 -0.4261
   42MOL0     H 5498   0.990   5.335   6.545  0.0567  0.2446 -0.5650
   42MOL0     H 5499   0.841   5.236   6.504 -0.1251 -1.2766  0.4786
   42MOL0     H 5500   0.952   5.210   6.281 -1.2030 -2.5518  2.6216
   42MOL0     H 5501   1.083   5.324   6.348  1.1077 -1.4128  1.2259
   42MOL0     H 5502   0.921   5.434   6.191 -2.3637  0.5507 -1.1948
   42MOL0     H 5503   0.788   5.382   6.295  0.0901 -1.5577 -0.1344
   42MOL0     H 5504   0.833   5.630   6.334 -2.1688  0.4877  2.5067
   42MOL0     H 5505   0.998   5.587   6.354 -0.4492  0.5894  0.1284
   42MOL0     H 5506   0.804   5.532   6.751  0.6392 -1.9022 -4.0725
   42MOL0     H 5507   0.905   5.677   6.941  0.6889  0.7679 -1.4945
   42MOL0     H 5508   1.068   6.206   6.932 -1.7859 -2.0400  2.1940
   42MOL0     H 5509   1.169   6.351   7.116 -1.5771 -1.9045  1.4984
   42MOL0     H 5510   1.567   6.285   7.194 -1.1992 -0.8409 -0.5742
   42MOL0     H 5511   1.540   6.203   7.348 -0.3341 -0.0230 -0.9201
   42MOL0     H 5512   1.482   6.435   7.439  0.6170 -1.2272  0.3208
   42MOL0     H 5513   1.521   6.490   7.277 -0.4841 -1.0097 -0.6108
   42MOL0     H 5514   1.700   6.548   7.403 -4.8042 -0.0814 -0.8847
   42MOL0     H 5515   1.768   6.406   7.314 -2.6808 -3.5610 -0.6558
   42MOL0     H 5516   1.659   6.388   7.591  0.0760 -2.0690  0.1458
   42MOL0     H 5517   1.729   6.258   7.497  0.1287 -0.2143 -0.3485
   42MOL0     H 5518   1.874   6.510   7.605  0.2496 -1.4679  1.2855
   42MOL0     H 5519   1.944   6.404   7.471 -0.2048  0.4689  0.1457
   42MOL0     H 5520   1.952   6.211   7.623 -0.9606 -1.0504  3.4659
   42MOL0     H 5521   1.844   6.296   7.731  0.8657 -0.3163  2.2582
   42MOL0     H 5522   2.008   6.446   7.816  0.1902 -0.4216  0.8967
   42MOL0     H 5523   2.077   6.286   7.832  1.1101  1.0985  1.2721
   42MOL0     H 5524   2.232   6.432   7.748 -2.3990  0.8606  1.4409
   42MOL0     H 5525   2.143   6.482   7.610  2.6587 -0.3629 -1.1133
   42MOL0     H 5526   1.462   6.056   7.184  2.6074  0.9678 -2.2204
   42MOL0     H 5527   1.363   5.917   6.997  0.8427  0.4513 -1.2796
   42MOL0     H 5528   1.084   5.920   6.632 -2.0034  0.7077  0.5297
   42MOL0     H 5529   0.982   5.787   6.455 -1.6258 -1.6884 -1.1580
   42MOL0     H 5530   0.449   4.452   7.098  0.3681 -0.0797 -0.4656
   42MOL0     H 5531   0.267   4.347   6.987 -2.1937  1.8844 -0.5728
   42MOL0     H 5532   0.023   4.363   6.539 -1.8848  1.2616  1.3443
   42MOL0     H 5533  -0.160   4.274   6.416  0.4715  1.2050  0.6008
   42MOL0     H 5534  -0.296   4.138   6.272  1.4659 -1.1104  0.3764
   42MOL0     H 5535  -0.387   4.175   6.433 -0.3373 -2.8016  2.1571
   42MOL0     H 5536  -0.528   4.097   6.238  0.9250 -1.2893 -4.1098
   42MOL0     H 5537  -0.424   3.944   6.242  0.3718  0.7350  0.4145
   42MOL0     H 5538  -0.616   4.019   6.475  1.2908 -1.8024  2.2588
   42MOL0     H 5539  -0.469   3.921   6.493  1.1057 -2.2936 -1.4302
   42MOL0     H 5540  -0.557   3.763   6.323 -1.9809 -0.6507 -1.4874
   42MOL0     H 5541  -0.644   3.781   6.477  2.3613 -0.3173  0.5473
   42MOL0     H 5542  -0.899   3.888   6.133  1.5764 -0.6541 -0.8983
   42MOL0     H 5543  -0.105   3.895   6.597  0.6758 -0.3012  2.2302
   42MOL0     H 5544   0.103   3.978   6.710  0.8490  1.3313  1.2656
   43MOL0     O 5545   7.782  10.471  11.040  0.5591 -0.2134  0.9631
   43MOL0     C 5546   7.670  10.505  10.989 -1.1326 -1.0984  0.8114
   43MOL0     O 5547   7.604  10.622  11.016  0.0536 -0.2839  0.3102
   43MOL0     C 5548   7.659  10.708  11.111  0.7766 -0.1217 -0.2117
   43MOL0     C 5549   7.587  10.712  11.231 -0.6348  0.2980 -1.0545
   43MOL0     C 5550   7.621  10.804  11.332 -0.2560 -0.0449  1.3366
   43MOL0     C 5551   7.725  10.900  11.302 -0.6084  0.1055 -0.0592
   43MOL0     O 5552   7.770  10.990  11.398  0.1219  0.2041 -0.0939
   43MOL0     C 5553   7.671  11.040  11.481 -0.1408  0.1522  0.6266
   43MOL0     C 5554   7.706  10.996  11.627  0.1101 -1.2208  0.6279
   43MOL0     C 5555   7.754  10.862  11.660 -0.3904 -0.2947 -0.8540
   43MOL0     C 5556   7.794  10.847  11.809  0.2628 -0.7159  0.1417
   43MOL0     C 5557   7.678  10.896  11.897  0.9327 -0.0962  0.0774
   43MOL0     C 5558   7.565  10.786  11.882  0.1982  0.8413  0.0131
   43MOL0     C 5559   7.438  10.833  11.945  0.5655  0.2983  0.0175
   43MOL0     C 5560   7.332  10.722  11.949  0.1900 -0.1705  0.2855
   43MOL0     N 5561   7.336  10.627  12.070  0.5759 -0.3537 -0.1984
   43MOL0     C 5562   7.273  10.654  12.190  0.9851 -0.2097  0.3884
   43MOL0     C 5563   7.254  10.538  12.254  0.6283 -0.2228 -0.7791
   43MOL0     C 5564   7.191  10.520  12.392 -0.1124  0.3574  1.9577
   43MOL0     C 5565   7.039  10.512  12.379  0.0788  0.5827  0.4498
   43MOL0     C 5566   7.002  10.484  12.534  0.4318 -0.1244  0.3748
   43MOL0     C 5567   6.864  10.545  12.568 -0.1820 -1.1677  0.1906
   43MOL0     O 5568   6.769  10.454  12.504  0.5998 -0.7605  1.5843
   43MOL0     C 5569   6.723  10.356  12.596  0.4389  0.4548  0.6636
   43MOL0     C 5570   6.626  10.390  12.680 -0.4146 -0.4454 -0.3090
   43MOL0     C 5571   6.592  10.306  12.787  0.6792 -0.5872  0.2540
   43MOL0     C 5572   6.642  10.182  12.803  1.0448 -0.2313 -0.7021
   43MOL0     C 5573   6.582  10.080  12.906 -0.2115  0.1047  0.4022
   43MOL0     O 5574   6.625   9.943  12.912 -0.2530 -0.2001  0.4846
   43MOL0     C 5575   6.586   9.872  13.020 -0.0702 -0.4103  0.5857
   43MOL0     C 5576   6.497   9.768  13.002 -0.3183  0.5035 -0.5121
   43MOL0     C 5577   6.477   9.683  13.108  0.5535 -0.0031  0.6729
   43MOL0     C 5578   6.533   9.698  13.233  0.6500  0.9330  1.1148
   43MOL0     O 5579   6.516   9.597  13.322 -0.3197 -0.3421 -1.1313
   43MOL0     C 5580   6.564   9.472  13.289 -0.3688  0.0332 -1.0213
   43MOL0     C 5581   6.631   9.395  13.401  0.1669 -0.3347  0.4944
   43MOL0     C 5582   6.747   9.459  13.476  0.2454  0.5544 -0.2139
   43MOL0     C 5583   6.823   9.356  13.562  0.7214 -0.2685 -0.1207
   43MOL0     C 5584   6.904   9.246  13.482  1.2535 -1.0566 -1.3090
   43MOL0     C 5585   7.021   9.294  13.397 -0.4923  0.5930  0.0644
   43MOL0     C 5586   7.101   9.167  13.334 -0.6636 -0.8851 -1.1528
   43MOL0     C 5587   7.190   9.215  13.227  0.2002 -0.4919  0.3901
   43MOL0    Cl 5588   7.344   9.289  13.302 -0.8068  0.4954  0.0966
   43MOL0     C 5589   6.611   9.811  13.251  0.2261 -0.0330 -0.1434
   43MOL0     C 5590   6.636   9.901  13.144 -0.2029  0.7407  0.0715
   43MOL0     O 5591   6.513  10.136  12.996  0.4377  0.4611  0.0432
   43MOL0     C 5592   6.747  10.141  12.722 -0.3882 -0.9538  0.6901
   43MOL0     C 5593   6.785  10.228  12.617  0.6367 -1.0317  0.6869
   43MOL0     N 5594   7.300  10.440  12.167 -0.1721  0.4765  0.2899
   43MOL0     N 5595   7.351  10.491  12.060 -0.9166 -0.2606 -0.3649
   43MOL0     C 5596   7.790  10.900  11.180 -0.0907  0.7655 -0.5925
   43MOL0     C 5597   7.753  10.807  11.084 -0.1395  0.0571  0.3568
   43MOL0     C 5598   7.609  10.414  10.903  0.2880  0.3181 -0.5343
   43MOL0     C 5599   7.677  10.298  10.859  0.4599 -0.1758  1.2332
   43MOL0     C 5600   7.607  10.205  10.771 -0.7035 -0.6279 -0.3392
   43MOL0     C 5601   7.482  10.232  10.713  0.1427  0.1938 -0.2765
   43MOL0     O 5602   7.410  10.157  10.624 -0.3730  0.3603  0.5667
   43MOL0     C 5603   7.457  10.019  10.624 -0.4200 -0.2087 -0.3510
   43MOL0     C 5604   7.371   9.915  10.549  0.3920 -0.5157  0.0940
   43MOL0     C 5605   7.377   9.945  10.398  0.8118 -0.2316  0.0425
   43MOL0     C 5606   7.316   9.821  10.326  0.7100 -0.4825  0.0091
   43MOL0     C 5607   7.395   9.704  10.342 -1.1590 -0.0175  0.7089
   43MOL0     C 5608   7.449   9.595  10.356 -0.9415 -0.3217  0.6908
   43MOL0     C 5609   7.423  10.345  10.762 -0.2686  0.2858 -0.0232
   43MOL0     C 5610   7.475  10.431  10.859  0.7127  0.5848  0.3719
   43MOL0     H 5611   7.503  10.644  11.244  0.5888 -0.6648  3.6421
   43MOL0     H 5612   7.572  10.810  11.429 -0.8692 -0.4281  1.0615
   43MOL0     H 5613   7.568  11.013  11.459  0.4187 -0.2157 -1.8714
   43MOL0     H 5614   7.689  11.148  11.484  0.9765 -0.0138  0.5904
   43MOL0     H 5615   7.612  11.018  11.679 -0.5378 -1.6522 -0.3490
   43MOL0     H 5616   7.781  11.065  11.667  0.1827  0.5984 -2.3326
   43MOL0     H 5617   7.850  10.837  11.613  0.0977 -1.7300  0.8272
   43MOL0     H 5618   7.672  10.793  11.638 -1.3013 -0.6230  2.9526
   43MOL0     H 5619   7.818  10.741  11.821  2.1392 -0.3636 -0.1831
   43MOL0     H 5620   7.880  10.912  11.828 -0.8127  1.1882 -1.2525
   43MOL0     H 5621   7.651  11.001  11.884  2.4337  0.4221  0.9331
   43MOL0     H 5622   7.712  10.899  12.001  1.2508  1.8794 -0.0438
   43MOL0     H 5623   7.599  10.687  11.913  0.9359  1.6542  1.9498
   43MOL0     H 5624   7.535  10.778  11.777 -1.1880  0.5921  0.4119
   43MOL0     H 5625   7.461  10.861  12.048 -0.3527 -1.9921  0.9057
   43MOL0     H 5626   7.397  10.921  11.895 -0.7609  1.0590  2.3231
   43MOL0     H 5627   7.349  10.667  11.857  2.1771  0.4284  0.2440
   43MOL0     H 5628   7.229  10.759  11.946  0.5194  0.7017 -0.7762
   43MOL0     H 5629   7.228  10.744  12.230  1.2816  0.7905 -1.4190
   43MOL0     H 5630   7.222  10.604  12.455  2.6592  0.1221  1.0317
   43MOL0     H 5631   7.221  10.435  12.454 -0.0133 -1.1359 -0.0268
   43MOL0     H 5632   7.000  10.436  12.310 -3.4553  0.5287  2.3106
   43MOL0     H 5633   7.009  10.609  12.337  3.1333  0.2938 -2.9948
   43MOL0     H 5634   7.007  10.378  12.561  0.4301  0.1284  1.4437
   43MOL0     H 5635   7.073  10.525  12.606 -0.5495  0.9250  0.7746
   43MOL0     H 5636   6.842  10.645  12.529  3.0852 -0.0339  0.8893
   43MOL0     H 5637   6.844  10.559  12.674  2.0373 -0.9837  0.6515
   43MOL0     H 5638   6.585  10.489  12.664 -0.4832 -0.5626 -0.8815
   43MOL0     H 5639   6.519  10.337  12.861  0.8998 -2.0191  1.1022
   43MOL0     H 5640   6.445   9.755  12.908 -1.0608 -0.3110 -0.0084
   43MOL0     H 5641   6.411   9.598  13.089  0.5115 -0.0173  0.8800
   43MOL0     H 5642   6.637   9.472  13.208  1.3658 -4.9174  0.1748
   43MOL0     H 5643   6.478   9.409  13.266 -0.9963 -0.2292  1.6951
   43MOL0     H 5644   6.662   9.295  13.371  1.4003  0.5061 -1.1884
   43MOL0     H 5645   6.553   9.386  13.477 -0.9431 -2.0440 -0.7835
   43MOL0     H 5646   6.710   9.542  13.537 -0.8386  0.1182 -0.2420
   43MOL0     H 5647   6.820   9.499  13.406  2.3355 -0.6341  1.1882
   43MOL0     H 5648   6.889   9.413  13.628 -0.8413  0.2385  1.0618
   43MOL0     H 5649   6.749   9.303  13.623  0.1329  1.1600  0.4274
   43MOL0     H 5650   6.836   9.170  13.444 -2.5161  0.9767  0.6787
   43MOL0     H 5651   6.944   9.192  13.569  2.5081  1.3504 -0.2936
   43MOL0     H 5652   7.085   9.354  13.463  0.7241 -0.0519 -0.4856
   43MOL0     H 5653   6.983   9.358  13.317 -5.0657  0.2953  1.7104
   43MOL0     H 5654   7.159   9.103  13.401 -0.8215 -0.3585 -0.5098
   43MOL0     H 5655   7.031   9.104  13.278 -1.9664 -0.9133  0.4516
   43MOL0     H 5656   7.147   9.293  13.164  1.3041 -0.4081 -0.2816
   43MOL0     H 5657   7.213   9.132  13.159 -1.0888 -0.2448 -0.3916
   43MOL0     H 5658   6.660   9.833  13.345  2.5720  0.6019 -1.4308
   43MOL0     H 5659   6.710   9.978  13.167  0.8842 -1.0918  3.5550
   43MOL0     H 5660   6.785  10.040  12.716 -0.6458 -0.9724 -1.0358
   43MOL0     H 5661   6.842  10.185  12.535  2.5445  1.7058  0.4405
   43MOL0     H 5662   7.873  10.968  11.162 -0.5573  1.8145  0.9305
   43MOL0     H 5663   7.806  10.810  10.989  0.1341  2.0734  0.5368
   43MOL0     H 5664   7.773  10.271  10.902  0.3674 -0.3490  1.3326
   43MOL0     H 5665   7.662  10.112  10.760 -0.6371 -0.5279 -0.8909
   43MOL0     H 5666   7.453   9.974  10.724  1.6088  1.0672  0.3717
   43MOL0     H 5667   7.558  10.001  10.587 -0.6445 -0.5408 -0.8193
   43MOL0     H 5668   7.412   9.819  10.582 -0.0888 -0.7684 -0.0427
   43MOL0     H 5669   7.266   9.912  10.579  0.2163 -2.2267 -0.6088
   43MOL0     H 5670   7.478   9.962  10.360  1.0269 -0.4632  0.5055
   43MOL0     H 5671   7.317  10.035  10.379  0.1390 -0.9294 -1.2858
   43MOL0     H 5672   7.215   9.800  10.364  1.5994 -4.3826  0.6204
   43MOL0     H 5673   7.295   9.839  10.220 -0.3266 -0.7298  0.1601
   43MOL0     H 5674   7.483   9.495  10.377 -2.0485 -0.2183  3.3226
   43MOL0     H 5675   7.330  10.375  10.714  0.3391 -2.8374 -3.5405
   43MOL0     H 5676   7.405  10.505  10.895 -2.3771 -0.7916 -2.2733
   44MOL0     O 5677   2.242  10.655   0.900 -0.5456  0.2025  0.0782
   44MOL0     C 5678   2.201  10.545   0.943  0.9830 -0.0807 -0.5823
   44MOL0     O 5679   2.081  10.487   0.918 -0.0840  0.2153 -0.0401
   44MOL0     C 5680   1.973  10.548   0.854  0.4834  1.2743 -0.6102
   44MOL0     C 5681   1.947  10.683   0.828 -0.3698 -0.5761 -1.3762
   44MOL0     C 5682   1.829  10.735   0.781 -0.2306  0.8403  0.4276
   44MOL0     C 5683   1.724  10.648   0.736  0.9939 -0.7105  0.6816
   44MOL0     O 5684   1.601  10.693   0.697  0.5716 -0.5230 -0.0202
   44MOL0     C 5685   1.504  10.598   0.657 -0.5891  0.4410 -0.3953
   44MOL0     C 5686   1.365  10.653   0.625 -1.1438  0.0000 -0.1314
   44MOL0     C 5687   1.253  10.549   0.618  0.7128  0.0046 -1.1338
   44MOL0     C 5688   1.118  10.628   0.614 -0.9581  0.1780  0.2054
   44MOL0     C 5689   1.008  10.525   0.557 -0.1168  0.1053 -0.2252
   44MOL0     C 5690   0.981  10.419   0.667 -0.0129 -0.7824 -0.2363
   44MOL0     C 5691   0.840  10.361   0.656 -0.1172 -0.8094 -0.0271
   44MOL0     C 5692   0.733  10.449   0.725  0.0285 -0.3983  0.4116
   44MOL0     N 5693   0.764  10.503   0.862 -0.5985 -0.3094 -0.4154
   44MOL0     C 5694   0.829  10.624   0.883  0.8167 -0.2873  0.0992
   44MOL0     C 5695   0.849  10.632   1.012  0.3860  0.0166  0.3105
   44MOL0     C 5696   0.900  10.750   1.089 -0.6150  0.2683  0.3581
   44MOL0     C 5697   1.017  10.706   1.185  0.6739 -0.1695  0.2741
   44MOL0     C 5698   1.149  10.686   1.113 -0.1353 -0.1620 -0.1537
   44MOL0     C 5699   1.258  10.649   1.215  0.6443 -1.0884  1.3380
   44MOL0     O 5700   1.368  10.594   1.141  0.6256  0.2810 -0.6959
   44MOL0     C 5701   1.489  10.583   1.202 -0.3738  0.8621  0.2803
   44MOL0     C 5702   1.528  10.605   1.333 -0.4191  0.4946 -0.1588
   44MOL0     C 5703   1.659  10.570   1.375  0.0637 -0.0920  1.8085
   44MOL0     C 5704   1.745  10.519   1.279 -0.2957 -0.4811 -0.8524
   44MOL0     C 5705   1.880  10.471   1.314 -0.1291 -0.5593  0.5968
   44MOL0     O 5706   1.900  10.461   1.449 -0.4356  0.3924  0.0308
   44MOL0     C 5707   2.027  10.445   1.507  0.0440 -0.4332  0.5068
   44MOL0     C 5708   2.105  10.334   1.465  0.7167 -0.6209  0.6745
   44MOL0     C 5709   2.225  10.299   1.523 -0.1369  0.3703 -0.2907
   44MOL0     C 5710   2.277  10.382   1.619 -0.0208 -0.2413 -0.0064
   44MOL0     O 5711   2.392  10.337   1.681  0.3152  0.2671 -0.1960
   44MOL0     C 5712   2.462  10.408   1.784  0.4899  0.4526 -0.4871
   44MOL0     C 5713   2.561  10.306   1.841 -0.3760 -0.2051 -0.8211
   44MOL0     C 5714   2.660  10.367   1.936  0.3947 -0.1394 -0.1019
   44MOL0     C 5715   2.750  10.275   2.016 -0.2901 -0.2346  0.0613
   44MOL0     C 5716   2.842  10.355   2.112  0.1161 -0.0199 -0.2040
   44MOL0     C 5717   2.937  10.260   2.179 -0.7553  0.0597 -0.1959
   44MOL0     C 5718   2.856  10.179   2.286 -0.1692  0.6751  0.2956
   44MOL0     C 5719   2.964  10.119   2.382  0.3378  0.1088 -1.2119
   44MOL0    Cl 5720   2.901  10.006   2.500  0.0854  0.3962  0.3776
   44MOL0     C 5721   2.210  10.500   1.659 -0.3594  0.4149 -0.2294
   44MOL0     C 5722   2.085  10.523   1.597  0.3953 -0.1882  0.4016
   44MOL0     O 5723   1.965  10.451   1.236  1.0640 -0.1598  0.8859
   44MOL0     C 5724   1.708  10.505   1.152 -0.0329 -0.1675 -0.6771
   44MOL0     C 5725   1.578  10.518   1.115 -0.4780  1.5236  0.6337
   44MOL0     N 5726   0.814  10.518   1.062 -0.5311 -0.6603  0.5668
   44MOL0     N 5727   0.771  10.431   0.977  0.8465 -0.1476 -0.1274
   44MOL0     C 5728   1.751  10.504   0.738 -0.1734  0.3140  0.4014
   44MOL0     C 5729   1.879  10.457   0.794 -0.1523 -0.3841 -0.2086
   44MOL0     C 5730   2.287  10.466   1.029  0.7660  0.3556  0.8934
   44MOL0     C 5731   2.258  10.330   1.075 -0.1539  0.9790 -0.3971
   44MOL0     C 5732   2.350  10.247   1.143  0.6004  0.8036 -0.3205
   44MOL0     C 5733   2.476  10.297   1.177 -0.1703  1.3218  0.0012
   44MOL0     O 5734   2.571  10.232   1.252  0.0815  0.1054 -0.1603
   44MOL0     C 5735   2.551  10.099   1.299 -1.0989 -0.0374  0.4457
   44MOL0     C 5736   2.684  10.049   1.362 -0.5476 -0.2575 -0.1831
   44MOL0     C 5737   2.725  10.128   1.499  0.0156  0.3172 -0.0521
   44MOL0     C 5738   2.744  10.279   1.481 -0.8014  0.6242  0.1042
   44MOL0     C 5739   2.821  10.338   1.593 -0.4261 -0.2900  0.0654
   44MOL0     C 5740   2.895  10.388   1.681  0.2077 -0.0098  0.0547
   44MOL0     C 5741   2.505  10.431   1.143 -1.0029 -0.0986  0.9368
   44MOL0     C 5742   2.417  10.509   1.067  0.9019 -0.3241 -0.1759
   44MOL0     H 5743   2.018  10.760   0.859  2.3073 -3.8981  1.7027
   44MOL0     H 5744   1.814  10.843   0.778 -3.1028  0.4935 -1.6765
   44MOL0     H 5745   1.489  10.516   0.727  2.6371 -0.3986 -0.5355
   44MOL0     H 5746   1.533  10.539   0.569 -2.9373 -0.9947 -0.2964
   44MOL0     H 5747   1.368  10.716   0.535  1.9408  0.8537  0.4452
   44MOL0     H 5748   1.349  10.730   0.701  2.7267  1.9650 -1.0078
   44MOL0     H 5749   1.251  10.479   0.702  1.9504 -1.2138 -2.0759
   44MOL0     H 5750   1.257  10.486   0.529 -3.8333 -2.5284  0.1499
   44MOL0     H 5751   1.098  10.660   0.717 -0.1755 -2.4725  1.2765
   44MOL0     H 5752   1.119  10.715   0.548 -1.7685 -0.4712 -0.6883
   44MOL0     H 5753   1.036  10.473   0.465  1.3996 -2.0269  1.3451
   44MOL0     H 5754   0.916  10.580   0.532 -1.7045 -1.7318  1.2779
   44MOL0     H 5755   1.005  10.456   0.768 -0.2457 -2.2198  0.3645
   44MOL0     H 5756   1.043  10.331   0.651 -0.1198 -0.6526 -1.4662
   44MOL0     H 5757   0.815  10.363   0.550  0.6195  3.0625 -0.2711
   44MOL0     H 5758   0.852  10.260   0.697 -2.9494 -0.9720  0.6151
   44MOL0     H 5759   0.642  10.391   0.736 -0.2900  0.0181  0.0259
   44MOL0     H 5760   0.718  10.542   0.668 -2.1349  0.0781  1.6669
   44MOL0     H 5761   0.842  10.700   0.806 -1.0745 -2.5726 -2.7032
   44MOL0     H 5762   0.822  10.784   1.158  0.1606  1.0022  0.9011
   44MOL0     H 5763   0.919  10.841   1.031 -0.6642 -1.3184 -2.3243
   44MOL0     H 5764   0.992  10.611   1.232 -1.6984 -1.0894 -2.5379
   44MOL0     H 5765   1.015  10.785   1.261  2.0884  0.7146 -0.5545
   44MOL0     H 5766   1.133  10.596   1.054 -1.4217  0.5821 -1.0139
   44MOL0     H 5767   1.182  10.767   1.046 -0.9093 -0.3828 -0.8198
   44MOL0     H 5768   1.218  10.574   1.284 -2.2936  0.2994  1.2958
   44MOL0     H 5769   1.289  10.734   1.277 -0.5726  0.4446 -0.0743
   44MOL0     H 5770   1.455  10.645   1.403 -1.1866 -2.4011  0.8071
   44MOL0     H 5771   1.679  10.572   1.482  1.1235 -0.0281  1.6195
   44MOL0     H 5772   2.075  10.283   1.374 -3.2011  1.4097  0.5982
   44MOL0     H 5773   2.283  10.211   1.496  0.7588  0.8959 -0.1173
   44MOL0     H 5774   2.403  10.446   1.867 -1.6092  3.5431 -3.1503
   44MOL0     H 5775   2.522  10.492   1.747  0.0014  2.0628  2.1516
   44MOL0     H 5776   2.602  10.250   1.756  0.9384 -3.3929  1.6877
   44MOL0     H 5777   2.501  10.230   1.894  1.0993  0.8756  2.6859
   44MOL0     H 5778   2.604  10.433   2.002  1.5997  1.1800 -0.3573
   44MOL0     H 5779   2.730  10.431   1.882  3.6442 -1.8796  1.6960
   44MOL0     H 5780   2.687  10.205   2.073  0.1132 -1.2668 -0.7171
   44MOL0     H 5781   2.813  10.212   1.952 -1.6446 -2.4049  0.7591
   44MOL0     H 5782   2.781  10.402   2.189 -0.0218 -2.3869  1.2535
   44MOL0     H 5783   2.900  10.433   2.063  0.4406 -0.8609 -1.2042
   44MOL0     H 5784   3.006  10.323   2.235 -1.4791 -0.5763  1.4879
   44MOL0     H 5785   2.997  10.207   2.104 -0.8482 -0.4986  0.1161
   44MOL0     H 5786   2.793  10.247   2.344 -0.3597  0.2200  0.6245
   44MOL0     H 5787   2.791  10.102   2.246  1.6415 -0.1510 -1.2288
   44MOL0     H 5788   3.020  10.191   2.442  0.7627 -0.5138 -0.8450
   44MOL0     H 5789   3.028  10.048   2.328 -1.6498 -4.7309  2.0687
   44MOL0     H 5790   2.254  10.570   1.729 -0.6520  0.3190  0.0535
   44MOL0     H 5791   2.028  10.610   1.626  0.5439  0.1456 -0.2786
   44MOL0     H 5792   1.769  10.470   1.068 -1.2552 -0.5444 -1.4309
   44MOL0     H 5793   1.527  10.475   1.029 -2.4548  0.8594  2.0709
   44MOL0     H 5794   1.688  10.439   0.677 -1.1854  2.0542 -0.4782
   44MOL0     H 5795   1.917  10.356   0.785  2.5307  0.7058 -2.9065
   44MOL0     H 5796   2.159  10.289   1.059  0.6435 -0.5244 -1.8121
   44MOL0     H 5797   2.312  10.151   1.175 -2.9230  0.7037 -4.0999
   44MOL0     H 5798   2.518  10.028   1.223  2.7998 -0.0249 -1.4847
   44MOL0     H 5799   2.472  10.094   1.375 -1.6257  0.6052 -0.0444
   44MOL0     H 5800   2.666   9.942   1.371  0.7188 -0.4295  0.6142
   44MOL0     H 5801   2.764  10.046   1.287 -2.4172  1.0293 -2.3483
   44MOL0     H 5802   2.824  10.091   1.530 -0.8989 -1.7346  0.6240
   44MOL0     H 5803   2.660  10.098   1.582 -0.9903  2.5563  0.0364
   44MOL0     H 5804   2.797  10.292   1.387  0.7691  0.0932  0.8809
   44MOL0     H 5805   2.649  10.332   1.465 -1.1292 -0.6040 -2.4271
   44MOL0     H 5806   2.950  10.444   1.754  1.7066 -2.6811  1.1297
   44MOL0     H 5807   2.597  10.486   1.163 -2.1425  3.0310 -1.4680
   44MOL0     H 5808   2.450  10.608   1.038  2.6145 -0.7726  0.1217
   45MOL0     O 5809  10.109   1.908   3.247  0.0495 -0.1799 -0.1424
   45MOL0     C 5810  10.072   2.012   3.192  0.7047  0.6678 -0.2260
   45MOL0     O 5811  10.040   2.017   3.060 -0.0169 -0.0240 -0.4912
   45MOL0     C 5812  10.001   1.903   2.987  0.6896 -0.1589 -0.3885
   45MOL0     C 5813  10.036   1.886   2.856  0.5257  0.0046 -0.4055
   45MOL0     C 5814   9.986   1.791   2.774 -0.0134  1.3281  0.2293
   45MOL0     C 5815   9.884   1.706   2.814  1.1493  0.3484 -0.0610
   45MOL0     O 5816   9.833   1.600   2.721  0.0530 -0.2696 -0.0024
   45MOL0     C 5817   9.697   1.547   2.736 -0.3348 -0.8558  0.5853
   45MOL0     C 5818   9.651   1.457   2.617  0.2480 -1.1304 -0.0401
   45MOL0     C 5819   9.754   1.368   2.549 -0.6871 -0.6182 -0.7502
   45MOL0     C 5820   9.698   1.282   2.426  0.4330  0.0273 -0.2646
   45MOL0     C 5821   9.591   1.185   2.473 -0.4571 -1.0072  0.4203
   45MOL0     C 5822   9.505   1.122   2.362 -0.1820  0.4488 -1.2673
   45MOL0     C 5823   9.398   1.023   2.417  0.8144 -0.7061  0.0079
   45MOL0     C 5824   9.290   1.008   2.317  1.1838  1.1220  0.0826
   45MOL0     N 5825   9.323   0.919   2.204  0.1881  0.3860 -0.2962
   45MOL0     C 5826   9.283   0.785   2.197 -0.1850 -0.1254  0.3489
   45MOL0     C 5827   9.357   0.744   2.096  0.4097 -0.0913 -0.0041
   45MOL0     C 5828   9.350   0.597   2.044 -1.1072  0.0045 -0.8864
   45MOL0     C 5829   9.243   0.584   1.923  0.1136 -0.2268 -0.5780
   45MOL0     C 5830   9.270   0.659   1.797  0.2656 -0.6096 -1.0325
   45MOL0     C 5831   9.416   0.640   1.744  0.3249 -0.0797 -0.8757
   45MOL0     O 5832   9.431   0.690   1.617  0.2932  0.2377  0.3952
   45MOL0     C 5833   9.407   0.831   1.610  0.4143  0.5046 -0.7894
   45MOL0     C 5834   9.464   0.927   1.694  0.8242 -0.4330  0.4123
   45MOL0     C 5835   9.441   1.067   1.662  0.1930 -0.0724  0.6517
   45MOL0     C 5836   9.350   1.101   1.563 -0.8058  0.2135  0.5312
   45MOL0     C 5837   9.306   1.240   1.548 -0.2024  0.6980  0.2230
   45MOL0     O 5838   9.402   1.321   1.604  0.6550 -0.0514 -0.2256
   45MOL0     C 5839   9.394   1.455   1.571 -0.1827 -0.8012 -0.3104
   45MOL0     C 5840   9.313   1.541   1.636  0.4091 -0.4687 -0.9446
   45MOL0     C 5841   9.330   1.678   1.627 -1.3325 -0.2021  0.3667
   45MOL0     C 5842   9.421   1.734   1.539 -0.0289  0.8890 -0.0436
   45MOL0     O 5843   9.422   1.872   1.537  0.0202 -0.1044 -0.3046
   45MOL0     C 5844   9.539   1.946   1.499  0.8322  0.1216 -0.2739
   45MOL0     C 5845   9.566   2.058   1.598 -0.7460  0.0066  0.5679
   45MOL0     C 5846   9.689   2.134   1.572  0.5772  0.5084  0.8377
   45MOL0     C 5847   9.730   2.198   1.700 -0.0678 -0.4768  0.6428
   45MOL0     C 5848   9.873   2.262   1.693  0.7277  0.7016  0.4025
   45MOL0     C 5849   9.875   2.369   1.578 -0.4204 -0.4252 -0.4073
   45MOL0     C 5850   9.986   2.472   1.598 -0.0484  0.4486  0.1961
   45MOL0     C 5851  10.057   2.501   1.461 -0.2409  0.2790  0.1799
   45MOL0    Cl 5852  10.219   2.553   1.499 -0.0467  0.8473  0.2098
   45MOL0     C 5853   9.503   1.643   1.463 -0.3745  0.3248 -0.3441
   45MOL0     C 5854   9.493   1.508   1.484 -0.5772  0.0532 -0.1635
   45MOL0     O 5855   9.202   1.274   1.488  0.6396  0.1765 -0.3686
   45MOL0     C 5856   9.307   0.999   1.478 -0.3284  0.6102 -0.0189
   45MOL0     C 5857   9.342   0.862   1.494 -0.4073  0.0631 -0.0228
   45MOL0     N 5858   9.431   0.844   2.042 -0.2186 -0.4159  0.3501
   45MOL0     N 5859   9.403   0.953   2.101 -0.2603 -0.0921 -0.3946
   45MOL0     C 5860   9.843   1.720   2.949 -0.3807  0.0941  1.0103
   45MOL0     C 5861   9.899   1.816   3.038 -0.3250  0.0245 -0.1558
   45MOL0     C 5862  10.063   2.136   3.268 -0.4574 -0.1355 -0.2125
   45MOL0     C 5863  10.107   2.140   3.401  0.0538 -0.5188  0.5939
   45MOL0     C 5864  10.147   2.266   3.458  0.2292  0.2289 -0.7163
   45MOL0     C 5865  10.129   2.385   3.394 -0.1745  0.3412  0.0310
   45MOL0     O 5866  10.166   2.495   3.463  0.4452  0.3379 -0.1002
   45MOL0     C 5867  10.312   2.509   3.492 -0.7045 -0.9900  0.6116
   45MOL0     C 5868  10.327   2.556   3.638  0.9890 -0.1178 -0.0890
   45MOL0     C 5869  10.470   2.531   3.706 -0.1691 -0.5428 -0.4666
   45MOL0     C 5870  10.475   2.619   3.833 -0.4991  0.0954  0.7123
   45MOL0     C 5871  10.366   2.597   3.935  0.7986 -0.4064  0.6489
   45MOL0     C 5872  10.288   2.555   4.020  0.5654 -0.6156  0.9349
   45MOL0     C 5873  10.086   2.379   3.255 -0.2957  0.3972  0.2609
   45MOL0     C 5874  10.054   2.261   3.198 -0.0872  0.1503 -0.0883
   45MOL0     H 5875  10.116   1.942   2.809  0.9124 -0.6001 -0.4655
   45MOL0     H 5876  10.016   1.776   2.670 -1.2163  0.6126 -0.0380
   45MOL0     H 5877   9.622   1.625   2.753  0.6315 -0.4456  3.7846
   45MOL0     H 5878   9.685   1.482   2.823  1.2481 -0.7679  0.9028
   45MOL0     H 5879   9.599   1.513   2.539 -0.6268 -1.7060  0.1063
   45MOL0     H 5880   9.583   1.389   2.670  0.2015  0.9731  2.8252
   45MOL0     H 5881   9.794   1.303   2.626 -1.4018  2.0039  2.0186
   45MOL0     H 5882   9.832   1.431   2.505  2.5798 -1.6823  3.0201
   45MOL0     H 5883   9.659   1.361   2.361  0.3726  0.7678  0.6521
   45MOL0     H 5884   9.781   1.233   2.375  1.9095  0.4860  1.5839
   45MOL0     H 5885   9.512   1.243   2.520 -1.4909 -1.1246 -1.0966
   45MOL0     H 5886   9.633   1.108   2.537  0.4093 -0.0644  1.0175
   45MOL0     H 5887   9.570   1.061   2.299  1.8815  1.4298 -0.2073
   45MOL0     H 5888   9.455   1.197   2.300 -0.6038  2.9957  1.8326
   45MOL0     H 5889   9.445   0.931   2.453  1.2138  0.0679  1.5386
   45MOL0     H 5890   9.348   1.067   2.504  1.4494  1.8334 -0.8263
   45MOL0     H 5891   9.254   1.099   2.269 -1.2463  0.5861  0.7390
   45MOL0     H 5892   9.195   0.984   2.365  0.5652  2.2159 -0.5621
   45MOL0     H 5893   9.212   0.742   2.267 -1.7508  1.9863  0.1786
   45MOL0     H 5894   9.319   0.528   2.123 -1.3714 -0.3579 -1.3078
   45MOL0     H 5895   9.445   0.568   1.998  0.7477  0.8403  2.0940
   45MOL0     H 5896   9.143   0.613   1.957  0.1776 -0.2050 -0.4092
   45MOL0     H 5897   9.229   0.480   1.893 -2.0546  0.2844 -1.5253
   45MOL0     H 5898   9.193   0.630   1.725 -0.1255  0.5024 -1.0815
   45MOL0     H 5899   9.262   0.769   1.799  4.2886 -0.1358 -2.4479
   45MOL0     H 5900   9.444   0.534   1.753  1.0029  0.0399 -1.4701
   45MOL0     H 5901   9.488   0.692   1.808 -3.2896  2.4130  1.4973
   45MOL0     H 5902   9.523   0.895   1.778  3.0917  0.9656 -0.5583
   45MOL0     H 5903   9.499   1.140   1.718 -0.5085  1.5558 -0.6348
   45MOL0     H 5904   9.250   1.493   1.710  2.1304 -0.5795  0.5015
   45MOL0     H 5905   9.260   1.736   1.686  0.2813  2.5676 -0.2505
   45MOL0     H 5906   9.516   1.999   1.406 -0.1971  0.4832  0.1728
   45MOL0     H 5907   9.627   1.883   1.487  0.1994 -1.5763  2.8717
   45MOL0     H 5908   9.574   2.009   1.695  1.9033 -0.5354  0.1594
   45MOL0     H 5909   9.479   2.125   1.600  0.6712  1.9552 -0.4943
   45MOL0     H 5910   9.677   2.206   1.490  0.3316 -1.7416 -1.2035
   45MOL0     H 5911   9.764   2.068   1.527  0.0614  0.2338  0.3667
   45MOL0     H 5912   9.662   2.278   1.730  1.0021  1.2256 -1.2166
   45MOL0     H 5913   9.737   2.116   1.773 -2.3780 -0.7349  0.6707
   45MOL0     H 5914   9.950   2.186   1.675  2.2732  2.5099 -1.1390
   45MOL0     H 5915   9.883   2.309   1.791  2.2978  1.8756 -0.2697
   45MOL0     H 5916   9.786   2.431   1.560 -0.3737 -0.0635  0.5304
   45MOL0     H 5917   9.902   2.308   1.492  0.0137 -2.0502  0.8182
   45MOL0     H 5918   9.946   2.565   1.638  1.0863  1.8235 -1.7087
   45MOL0     H 5919  10.059   2.440   1.673 -1.0891  1.0442  1.5035
   45MOL0     H 5920  10.006   2.589   1.420 -0.1527  0.7944  1.1450
   45MOL0     H 5921  10.071   2.424   1.385 -0.9229  1.1942 -0.8967
   45MOL0     H 5922   9.570   1.688   1.391 -1.0032  3.1886  0.7075
   45MOL0     H 5923   9.565   1.438   1.441 -0.6546 -0.3897  0.4137
   45MOL0     H 5924   9.235   1.030   1.403 -0.3791  1.2564  0.2932
   45MOL0     H 5925   9.317   0.774   1.434 -0.0489 -0.3283  0.3967
   45MOL0     H 5926   9.763   1.656   2.987 -0.1170 -2.1631 -1.8811
   45MOL0     H 5927   9.852   1.822   3.136 -1.9622 -3.8417 -0.5116
   45MOL0     H 5928  10.129   2.050   3.456 -0.1226  1.5435  4.3424
   45MOL0     H 5929  10.196   2.267   3.554  2.0860  0.4584 -1.6173
   45MOL0     H 5930  10.352   2.590   3.431 -1.6541 -0.9943 -0.0322
   45MOL0     H 5931  10.373   2.419   3.483  1.0887 -0.4108  4.7150
   45MOL0     H 5932  10.315   2.664   3.630  2.7565  0.1649  0.4523
   45MOL0     H 5933  10.249   2.509   3.699 -0.5523 -1.5521 -2.9863
   45MOL0     H 5934  10.547   2.572   3.639  1.6560 -0.9633  1.2510
   45MOL0     H 5935  10.492   2.426   3.728  1.0132 -0.4546 -1.1053
   45MOL0     H 5936  10.567   2.579   3.876 -0.4043 -3.4449 -2.3319
   45MOL0     H 5937  10.493   2.725   3.810 -1.6737 -0.4718 -3.6477
   45MOL0     H 5938  10.229   2.521   4.103  0.8765 -0.8393  1.0663
   45MOL0     H 5939  10.080   2.473   3.201 -0.0755  0.8894  1.0621
   45MOL0     H 5940  10.039   2.254   3.091  0.5538  0.1029 -0.1793
   46MOL0     O 5941   1.931   7.137   8.835 -1.0828 -0.1239 -0.2766
   46MOL0     C 5942   2.008   7.077   8.760  0.4282 -0.6766  0.0895
   46MOL0     O 5943   1.970   6.993   8.662  1.2357  0.8289  0.8316
   46MOL0     C 5944   1.828   6.996   8.632  0.1469 -0.3667  0.5455
   46MOL0     C 5945   1.767   6.880   8.584 -0.0990  0.2046 -0.0961
   46MOL0     C 5946   1.630   6.869   8.547 -0.0776  0.5610  0.2518
   46MOL0     C 5947   1.559   6.990   8.521  0.2974 -0.2654  0.0599
   46MOL0     O 5948   1.435   6.995   8.457  0.5402  0.0847 -0.7843
   46MOL0     C 5949   1.443   6.917   8.336  0.5405 -0.1182  0.7303
   46MOL0     C 5950   1.332   6.955   8.239  1.0039 -0.0802  0.8942
   46MOL0     C 5951   1.350   6.863   8.111 -0.1930 -0.3388 -1.6047
   46MOL0     C 5952   1.259   6.900   8.002  0.6398  0.2624 -0.5916
   46MOL0     C 5953   1.156   6.791   7.972  0.2423 -0.4127  0.3220
   46MOL0     C 5954   1.071   6.764   8.093  0.2502  1.2792  0.2067
   46MOL0     C 5955   0.961   6.865   8.127  0.4324 -0.1209 -0.0857
   46MOL0     C 5956   0.868   6.915   8.013 -0.3428 -0.2212  0.4978
   46MOL0     N 5957   0.786   7.021   8.075  0.0458  0.9590 -0.2331
   46MOL0     C 5958   0.661   7.014   8.127 -0.0572  0.6491 -0.3199
   46MOL0     C 5959   0.629   7.145   8.145  0.7960 -0.5492  0.7347
   46MOL0     C 5960   0.489   7.199   8.165 -1.5242 -0.5109  0.4447
   46MOL0     C 5961   0.438   7.230   8.025 -0.4079 -0.1485 -0.7340
   46MOL0     C 5962   0.293   7.265   8.028  0.4427 -0.3308  0.1317
   46MOL0     C 5963   0.210   7.173   7.937  1.0934  0.7467  0.2865
   46MOL0     O 5964   0.211   7.036   7.977  0.7658  0.1701  0.2713
   46MOL0     C 5965   0.131   6.948   7.901 -0.0554 -0.8727  0.4525
   46MOL0     C 5966   0.133   6.818   7.941 -0.9180 -0.7106 -0.7093
   46MOL0     C 5967   0.053   6.719   7.882  0.5773  0.6797  0.6006
   46MOL0     C 5968  -0.046   6.753   7.786 -0.5230 -0.1548 -0.9079
   46MOL0     C 5969  -0.115   6.643   7.716  1.4663 -0.2984 -0.5013
   46MOL0     O 5970  -0.193   6.686   7.608  0.1913  0.2611 -0.9747
   46MOL0     C 5971  -0.272   6.609   7.533  0.6207 -0.4932  0.0795
   46MOL0     C 5972  -0.268   6.622   7.395 -0.3691  0.1051  0.0501
   46MOL0     C 5973  -0.355   6.555   7.314  0.0255 -0.7046 -0.3125
   46MOL0     C 5974  -0.450   6.469   7.364  0.0635  0.6138  0.2286
   46MOL0     O 5975  -0.530   6.405   7.278  0.4964  0.0676 -0.1022
   46MOL0     C 5976  -0.675   6.413   7.301  0.8898  0.0328 -1.0010
   46MOL0     C 5977  -0.740   6.366   7.171 -1.4691 -1.1169  0.4828
   46MOL0     C 5978  -0.893   6.357   7.169 -0.3355  0.4581 -0.3826
   46MOL0     C 5979  -0.950   6.304   7.044 -1.3425  0.0656 -0.7891
   46MOL0     C 5980  -0.887   6.369   6.917 -0.0793  0.1343 -0.0919
   46MOL0     C 5981  -0.912   6.521   6.920  0.0321 -0.0014  0.0010
   46MOL0     C 5982  -0.830   6.587   6.809  0.4631  0.4358  0.6234
   46MOL0     C 5983  -0.906   6.544   6.679  0.0823  1.1518  0.0768
   46MOL0    Cl 5984  -0.819   6.606   6.531 -0.1137 -0.0160 -0.3746
   46MOL0     C 5985  -0.458   6.449   7.502  0.3848 -0.4625  0.6954
   46MOL0     C 5986  -0.372   6.524   7.586 -0.4232 -0.3283  0.6795
   46MOL0     O 5987  -0.103   6.525   7.747  0.4579 -0.2215  0.3974
   46MOL0     C 5988  -0.045   6.889   7.749 -0.1893  0.9660  0.5183
   46MOL0     C 5989   0.047   6.988   7.796 -0.8472  0.0969 -0.8241
   46MOL0     N 5990   0.736   7.227   8.107  0.6357 -1.4153  0.2040
   46MOL0     N 5991   0.822   7.147   8.061  0.7419 -0.4328 -0.3707
   46MOL0     C 5992   1.617   7.112   8.571  0.9279  0.4968  0.3232
   46MOL0     C 5993   1.747   7.111   8.622 -0.4402  0.1914 -0.7233
   46MOL0     C 5994   2.152   7.067   8.790 -0.2734  0.6651 -0.5405
   46MOL0     C 5995   2.220   7.160   8.868 -0.0029 -0.3157  0.0546
   46MOL0     C 5996   2.362   7.165   8.897 -0.5085  0.2637  0.1013
   46MOL0     C 5997   2.440   7.065   8.843 -0.3126 -0.5639 -0.1751
   46MOL0     O 5998   2.574   7.048   8.855  0.1276 -0.2697 -1.0306
   46MOL0     C 5999   2.649   7.175   8.856  0.5743  0.8350  1.4473
   46MOL0     C 6000   2.681   7.214   9.000  0.2850  0.0613 -0.4975
   46MOL0     C 6001   2.769   7.339   9.003  0.0397  0.8177 -0.5510
   46MOL0     C 6002   2.820   7.347   9.153 -0.6124 -0.1116  1.0966
   46MOL0     C 6003   2.959   7.394   9.172  0.7455  0.1675 -0.0140
   46MOL0     C 6004   3.075   7.416   9.176 -0.3219  0.1701 -0.2758
   46MOL0     C 6005   2.375   6.967   8.767  0.7833  0.6107 -0.2604
   46MOL0     C 6006   2.236   6.959   8.739 -0.3834 -0.5582 -0.3488
   46MOL0     H 6007   1.840   6.800   8.583  0.3789  0.6291  0.4513
   46MOL0     H 6008   1.598   6.773   8.508  1.8344 -0.6039  1.3534
   46MOL0     H 6009   1.443   6.809   8.355 -1.1646 -0.2314  0.2712
   46MOL0     H 6010   1.535   6.942   8.281 -1.5650  2.2281 -2.0618
   46MOL0     H 6011   1.351   7.063   8.231  3.1629 -0.1135  3.7107
   46MOL0     H 6012   1.233   6.951   8.286 -1.7514  5.0312 -3.3629
   46MOL0     H 6013   1.338   6.760   8.144  1.4055 -0.6638 -1.9391
   46MOL0     H 6014   1.450   6.885   8.072  1.4356 -2.9927  0.7170
   46MOL0     H 6015   1.203   6.991   8.026  1.7102  0.6146  0.6383
   46MOL0     H 6016   1.322   6.919   7.915  1.0176 -1.0156 -0.6270
   46MOL0     H 6017   1.206   6.695   7.953 -1.4627 -1.6129  1.5303
   46MOL0     H 6018   1.106   6.815   7.878  1.5355  0.6669 -0.1203
   46MOL0     H 6019   1.124   6.740   8.186  0.6082  1.1224 -0.0358
   46MOL0     H 6020   1.014   6.673   8.069 -0.9859  1.6651  1.5115
   46MOL0     H 6021   0.895   6.834   8.208 -0.6162  0.4902 -0.6943
   46MOL0     H 6022   1.020   6.945   8.174 -0.1447 -0.6987  1.7129
   46MOL0     H 6023   0.815   6.831   7.969  0.2352 -0.8093  0.9127
   46MOL0     H 6024   0.929   6.966   7.938 -0.6228 -1.2894 -0.4717
   46MOL0     H 6025   0.613   6.917   8.135 -0.0132  0.7630  1.7227
   46MOL0     H 6026   0.489   7.279   8.239  1.1005  2.5686 -2.5534
   46MOL0     H 6027   0.435   7.111   8.201 -0.9918 -0.2596  1.8982
   46MOL0     H 6028   0.455   7.146   7.957 -2.3918  0.4906 -2.1100
   46MOL0     H 6029   0.495   7.318   7.995  1.2243 -1.4788 -1.7588
   46MOL0     H 6030   0.251   7.272   8.128 -1.8760 -1.2232 -0.7011
   46MOL0     H 6031   0.297   7.363   7.979  3.2683  0.1275  1.0890
   46MOL0     H 6032   0.230   7.191   7.831 -2.3651  0.0368 -0.6217
   46MOL0     H 6033   0.110   7.218   7.942  0.1885 -0.1150 -4.6033
   46MOL0     H 6034   0.195   6.789   8.025 -0.0591  1.7809 -0.3704
   46MOL0     H 6035   0.061   6.614   7.909  0.1331  0.9496  1.8436
   46MOL0     H 6036  -0.198   6.686   7.343  2.5782 -3.0979 -0.2592
   46MOL0     H 6037  -0.339   6.562   7.207  2.5364  0.6890  0.0778
   46MOL0     H 6038  -0.712   6.515   7.318  2.0155  0.3365 -0.2539
   46MOL0     H 6039  -0.697   6.341   7.380  1.3343 -1.0603 -1.8507
   46MOL0     H 6040  -0.684   6.273   7.156 -1.4847 -1.3936  1.9967
   46MOL0     H 6041  -0.714   6.443   7.098  3.3092 -0.8424  2.1571
   46MOL0     H 6042  -0.943   6.452   7.191 -2.5449 -0.0026 -2.9360
   46MOL0     H 6043  -0.931   6.290   7.247 -1.3580  0.8003 -0.5669
   46MOL0     H 6044  -0.922   6.199   7.032  1.4435  0.4270  1.4971
   46MOL0     H 6045  -1.059   6.314   7.054 -1.3628  1.0680 -1.7515
   46MOL0     H 6046  -0.917   6.314   6.827  0.2090  2.5095 -1.7334
   46MOL0     H 6047  -0.779   6.350   6.918  0.5421  3.0448  2.3904
   46MOL0     H 6048  -0.889   6.567   7.017  2.4557  0.4427 -0.7259
   46MOL0     H 6049  -1.015   6.539   6.885 -0.0024 -1.4109 -0.6654
   46MOL0     H 6050  -0.847   6.695   6.820 -0.7765  0.1204  1.9765
   46MOL0     H 6051  -0.728   6.548   6.805  0.5749  0.8089 -0.3754
   46MOL0     H 6052  -1.012   6.570   6.668  0.4661  3.0157  0.4329
   46MOL0     H 6053  -0.910   6.435   6.665 -0.5001  1.2760 -0.8632
   46MOL0     H 6054  -0.533   6.383   7.543  0.7903 -0.5533  1.3120
   46MOL0     H 6055  -0.381   6.520   7.694  0.1097  4.1923  1.0757
   46MOL0     H 6056  -0.115   6.923   7.673  1.3925  1.0053 -0.9876
   46MOL0     H 6057   0.044   7.086   7.751 -1.6822  1.0647  1.2212
   46MOL0     H 6058   1.557   7.202   8.558 -3.3117 -2.0651  0.3259
   46MOL0     H 6059   1.810   7.198   8.634  0.5434 -0.8305  2.5936
   46MOL0     H 6060   2.162   7.243   8.907  1.8608  0.6736  0.8087
   46MOL0     H 6061   2.418   7.238   8.955  1.9476 -2.5552  1.5264
   46MOL0     H 6062   2.595   7.250   8.797 -0.1271  0.0107  1.0302
   46MOL0     H 6063   2.745   7.161   8.806 -0.2148 -0.1878  0.1392
   46MOL0     H 6064   2.597   7.229   9.069  0.3489  1.7917 -0.7474
   46MOL0     H 6065   2.744   7.134   9.039 -0.4933  1.2215  3.6572
   46MOL0     H 6066   2.715   7.430   8.975 -1.9115  0.0487  0.5599
   46MOL0     H 6067   2.855   7.326   8.937  1.3678  1.8619  0.8936
   46MOL0     H 6068   2.750   7.406   9.213 -0.4866  1.2382 -0.0411
   46MOL0     H 6069   2.837   7.247   9.196  3.3690 -0.5946 -1.1585
   46MOL0     H 6070   3.176   7.450   9.187  0.5648 -2.1174 -0.8020
   46MOL0     H 6071   2.435   6.884   8.729  2.2087  2.1698 -1.5811
   46MOL0     H 6072   2.203   6.877   8.677 -2.4823 -1.0534  1.3108
   47MOL0     O 6073   6.493  11.334  11.312 -0.7760 -0.3593 -0.7566
   47MOL0     C 6074   6.502  11.285  11.201 -0.6850 -0.1672  0.0066
   47MOL0     O 6075   6.400  11.217  11.137 -0.3119  0.4539  0.2145
   47MOL0     C 6076   6.288  11.184  11.199 -0.7050  0.3965 -0.5122
   47MOL0     C 6077   6.158  11.233  11.146  0.0003  0.0542 -0.3131
   47MOL0     C 6078   6.039  11.190  11.197 -0.8320  0.0299 -0.4434
   47MOL0     C 6079   6.042  11.093  11.298  0.0906 -0.4505 -0.3701
   47MOL0     O 6080   5.918  11.043  11.332  0.0738 -0.0829  0.7794
   47MOL0     C 6081   5.855  11.104  11.445 -0.6029  0.1677 -0.2177
   47MOL0     C 6082   5.712  11.039  11.462 -0.0756 -0.3386 -0.8792
   47MOL0     C 6083   5.709  10.898  11.525 -0.5403  0.3143 -0.8446
   47MOL0     C 6084   5.567  10.850  11.540  0.5272  0.3592 -0.6917
   47MOL0     C 6085   5.499  10.914  11.667 -0.1457  0.0930  0.0685
   47MOL0     C 6086   5.344  10.888  11.655 -0.1182 -0.2051 -0.6020
   47MOL0     C 6087   5.314  10.738  11.654 -0.0919  0.3725 -0.3741
   47MOL0     C 6088   5.173  10.698  11.714 -0.0838 -0.0483 -0.2287
   47MOL0     N 6089   5.165  10.562  11.768 -0.0460 -0.2460  0.3498
   47MOL0     C 6090   5.058  10.482  11.767  0.6046 -0.8273  0.1725
   47MOL0     C 6091   5.083  10.376  11.835  0.3686  0.2338 -0.2157
   47MOL0     C 6092   4.994  10.255  11.837 -0.4906  0.1785 -0.6148
   47MOL0     C 6093   4.900  10.240  11.958 -0.3704 -0.8484  0.2246
   47MOL0     C 6094   4.804  10.115  11.941 -0.5329  0.1974  0.3153
   47MOL0     C 6095   4.685  10.149  12.033  0.4316 -0.1736 -0.6026
   47MOL0     O 6096   4.641  10.031  12.093  0.4219  0.3062 -0.5519
   47MOL0     C 6097   4.526  10.038  12.161  0.4680  0.1476  0.3185
   47MOL0     C 6098   4.419  10.137  12.141 -1.2588  0.1854  0.1520
   47MOL0     C 6099   4.317  10.124  12.227  0.0241  0.1061  0.2979
   47MOL0     C 6100   4.296  10.021  12.317  0.3147 -0.2452 -0.0905
   47MOL0     C 6101   4.179  10.008  12.408 -0.1906 -1.3524  0.4951
   47MOL0     O 6102   4.133   9.886  12.436  0.3142  0.0356 -0.1520
   47MOL0     C 6103   4.010   9.871  12.500 -0.3024  0.4597  0.0582
   47MOL0     C 6104   3.982   9.943  12.618  0.9910 -0.1884  0.2070
   47MOL0     C 6105   3.852   9.933  12.676 -0.4638 -0.0700 -0.1859
   47MOL0     C 6106   3.754   9.850  12.627 -0.0406 -0.1638 -1.0252
   47MOL0     O 6107   3.639   9.836  12.704  0.0847 -0.5687  0.1991
   47MOL0     C 6108   3.514   9.797  12.635  0.3149 -0.2359  0.5191
   47MOL0     C 6109   3.397   9.774  12.738 -0.2963  0.1176 -0.1547
   47MOL0     C 6110   3.411   9.652  12.820  0.0460  0.4317 -0.3329
   47MOL0     C 6111   3.289   9.647  12.914  0.0330  0.2258 -0.6027
   47MOL0     C 6112   3.288   9.501  12.960  0.7584 -0.6312  0.0860
   47MOL0     C 6113   3.388   9.485  13.070  0.2804 -0.0434 -0.1559
   47MOL0     C 6114   3.389   9.342  13.122  1.1244  0.6343  0.1726
   47MOL0     C 6115   3.383   9.337  13.267  0.3100 -0.3449  0.1082
   47MOL0    Cl 6116   3.523   9.414  13.347  0.3975 -0.0187  0.2627
   47MOL0     C 6117   3.783   9.779  12.513  1.0172 -0.0933  0.6711
   47MOL0     C 6118   3.912   9.789  12.447 -0.1485  0.0877 -0.4747
   47MOL0     O 6119   4.127  10.117  12.454 -0.7944  0.1644  0.6761
   47MOL0     C 6120   4.397   9.933  12.330 -0.0700  0.3787 -0.6908
   47MOL0     C 6121   4.510   9.935  12.254  0.2353  0.0739 -0.7414
   47MOL0     N 6122   5.210  10.388  11.887 -0.0399  0.3012  0.5098
   47MOL0     N 6123   5.253  10.504  11.846  0.0242  0.0127 -0.3348
   47MOL0     C 6124   6.163  11.045  11.348  0.3899  0.5631 -0.4633
   47MOL0     C 6125   6.287  11.094  11.299  0.1966  0.2589 -0.4877
   47MOL0     C 6126   6.624  11.286  11.122  0.9224 -0.4065  1.1343
   47MOL0     C 6127   6.634  11.189  11.021 -0.4465  0.8703 -0.4246
   47MOL0     C 6128   6.758  11.169  10.953 -0.4143 -0.5563 -0.0347
   47MOL0     C 6129   6.862  11.266  10.968 -0.6487  0.6076 -0.5994
   47MOL0     O 6130   6.981  11.268  10.898 -0.4819  0.6447 -0.1025
   47MOL0     C 6131   6.997  11.189  10.777  0.7703  0.7365  0.2132
   47MOL0     C 6132   7.137  11.190  10.705 -0.1023  0.3164 -0.2401
   47MOL0     C 6133   7.228  11.084  10.766 -0.5437 -0.3256  0.1399
   47MOL0     C 6134   7.355  11.059  10.685  0.6488 -0.1582  0.0603
   47MOL0     C 6135   7.434  10.937  10.705  0.0579 -0.8584 -1.1079
   47MOL0     C 6136   7.460  10.830  10.763 -0.4359  0.0558 -0.0656
   47MOL0     C 6137   6.856  11.360  11.069  0.8130 -0.6805  0.4823
   47MOL0     C 6138   6.731  11.376  11.141 -0.3587 -0.6612  0.1981
   47MOL0     H 6139   6.158  11.309  11.069  1.6916  1.2997  0.8404
   47MOL0     H 6140   5.943  11.218  11.153 -0.0816 -0.8724 -2.8254
   47MOL0     H 6141   5.843  11.209  11.416  1.4500  0.4323 -0.2215
   47MOL0     H 6142   5.914  11.104  11.537 -0.6834  1.0953 -0.1619
   47MOL0     H 6143   5.661  11.031  11.365 -0.0303 -1.5548 -0.8122
   47MOL0     H 6144   5.658  11.110  11.527  0.4270 -0.2208 -0.5884
   47MOL0     H 6145   5.759  10.893  11.622 -0.2337 -0.6835 -1.0357
   47MOL0     H 6146   5.762  10.820  11.470 -0.7652 -2.5772  2.6026
   47MOL0     H 6147   5.501  10.871  11.456 -0.2602  0.2007 -0.1227
   47MOL0     H 6148   5.580  10.744  11.562  0.9201  0.5895  0.2461
   47MOL0     H 6149   5.534  11.018  11.675  0.7741 -0.3308  4.5631
   47MOL0     H 6150   5.525  10.874  11.765  0.8492  0.1356 -0.1662
   47MOL0     H 6151   5.298  10.932  11.566  2.9959  4.3937 -0.3246
   47MOL0     H 6152   5.294  10.921  11.747  2.0707 -0.6734  0.8407
   47MOL0     H 6153   5.335  10.678  11.565  1.8043 -1.1729  1.0321
   47MOL0     H 6154   5.393  10.697  11.717  0.3493  2.9788  0.9253
   47MOL0     H 6155   5.098  10.726  11.639  2.7130  2.6599 -2.3345
   47MOL0     H 6156   5.153  10.755  11.805 -1.3346  1.1861 -1.2407
   47MOL0     H 6157   4.963  10.496  11.716  1.0084 -0.7607 -0.5721
   47MOL0     H 6158   5.063  10.172  11.856  3.1131  3.0610  0.0975
   47MOL0     H 6159   4.936  10.242  11.746  1.1140 -2.7797 -1.3587
   47MOL0     H 6160   4.839  10.331  11.951 -2.7374 -2.4270 -1.0379
   47MOL0     H 6161   4.958  10.241  12.051  0.0341  1.6732  0.0407
   47MOL0     H 6162   4.771  10.091  11.840 -3.1496  0.4498  1.0348
   47MOL0     H 6163   4.859  10.030  11.984  1.0496 -0.0746 -2.0865
   47MOL0     H 6164   4.614  10.210  11.976  1.1769  2.4016  1.0690
   47MOL0     H 6165   4.729  10.211  12.111 -0.0504  1.7853 -1.8111
   47MOL0     H 6166   4.424  10.210  12.061 -0.8505  0.4586  0.4282
   47MOL0     H 6167   4.248  10.208  12.229  1.8081  1.5982  1.5591
   47MOL0     H 6168   4.058  10.003  12.666  1.0165 -0.9837  1.2011
   47MOL0     H 6169   3.826   9.991  12.764 -2.5534 -1.0846 -0.0745
   47MOL0     H 6170   3.522   9.710  12.569  0.6171  0.4125 -0.3216
   47MOL0     H 6171   3.501   9.892  12.583  0.6301 -0.6177 -0.2767
   47MOL0     H 6172   3.309   9.775  12.672  0.7847 -2.8478 -1.8425
   47MOL0     H 6173   3.384   9.861  12.803 -0.0219  0.4930 -0.5948
   47MOL0     H 6174   3.501   9.663  12.881 -0.1667  2.0282 -0.2607
   47MOL0     H 6175   3.425   9.563  12.758  3.2095 -1.4881  2.7816
   47MOL0     H 6176   3.300   9.721  12.994  3.7160 -0.0071 -0.6892
   47MOL0     H 6177   3.201   9.661  12.851 -2.0920 -1.1811  1.8745
   47MOL0     H 6178   3.311   9.433  12.877  0.4035  1.1548 -1.5441
   47MOL0     H 6179   3.190   9.477  13.001  1.5867 -0.4624  2.2818
   47MOL0     H 6180   3.364   9.558  13.149  2.9430  0.6407  0.1034
   47MOL0     H 6181   3.492   9.516  13.056  0.3852 -0.6651 -0.8199
   47MOL0     H 6182   3.305   9.281  13.087  1.9685  1.1229 -3.0357
   47MOL0     H 6183   3.473   9.287  13.078  1.5205  0.5489  1.0073
   47MOL0     H 6184   3.370   9.236  13.306 -1.7016 -0.0063  0.3961
   47MOL0     H 6185   3.295   9.389  13.305  0.2597  0.5927 -1.2227
   47MOL0     H 6186   3.705   9.714  12.473 -0.5264  0.7293  2.2487
   47MOL0     H 6187   3.921   9.736  12.353 -0.8389 -2.1296  0.6292
   47MOL0     H 6188   4.383   9.850  12.399  0.6006  2.2077  1.7899
   47MOL0     H 6189   4.578   9.854  12.277  1.0031  1.4167  2.3119
   47MOL0     H 6190   6.170  10.957  11.411  0.8292  1.3698  0.6245
   47MOL0     H 6191   6.376  11.046  11.338  0.6860 -0.7939 -2.7072
   47MOL0     H 6192   6.554  11.116  11.013 -0.1769  0.2284  1.8978
   47MOL0     H 6193   6.760  11.089  10.880 -1.6066 -0.9298  0.3249
   47MOL0     H 6194   6.922  11.235  10.712  2.0853  2.1089 -0.3913
   47MOL0     H 6195   6.964  11.093  10.817 -1.4462  2.8436  4.1480
   47MOL0     H 6196   7.119  11.172  10.598  2.4707  1.3523 -0.9054
   47MOL0     H 6197   7.177  11.291  10.699  0.7345 -0.0518 -1.0015
   47MOL0     H 6198   7.159  10.999  10.773 -1.2539  0.3573  3.3961
   47MOL0     H 6199   7.266  11.099  10.867  2.8179 -0.8424 -0.9163
   47MOL0     H 6200   7.329  11.038  10.581 -0.3358 -3.7494  0.8785
   47MOL0     H 6201   7.411  11.151  10.701 -0.6445  0.9907 -1.6112
   47MOL0     H 6202   7.477  10.729  10.793  1.6847 -0.1573 -1.7560
   47MOL0     H 6203   6.944  11.424  11.076  0.0944  0.9606 -3.2195
   47MOL0     H 6204   6.707  11.465  11.198 -0.8539 -0.3568 -0.4773
   48MOL0     O 6205   2.889   2.849  10.175  0.5355  1.4096  0.1156
   48MOL0     C 6206   2.916   2.739  10.233 -1.0264  0.3219  0.0468
   48MOL0     O 6207   2.906   2.718  10.370 -0.3988  0.0989  0.3790
   48MOL0     C 6208   2.850   2.829  10.427  0.6683  0.6353 -0.5967
   48MOL0     C 6209   2.712   2.822  10.461 -0.2664 -0.7406 -0.1184
   48MOL0     C 6210   2.661   2.911  10.552  0.2666  1.0961  0.2478
   48MOL0     C 6211   2.733   3.019  10.603  0.5488  0.1812  0.0112
   48MOL0     O 6212   2.671   3.108  10.680  0.9208 -0.4092 -0.3235
   48MOL0     C 6213   2.729   3.139  10.814 -0.1369 -0.3506 -0.5260
   48MOL0     C 6214   2.733   3.289  10.831  0.0843 -0.2104 -0.7124
   48MOL0     C 6215   2.847   3.346  10.741  0.2558  0.2851  0.4496
   48MOL0     C 6216   2.881   3.489  10.788 -0.1015  0.7164 -0.2119
   48MOL0     C 6217   2.992   3.546  10.698  0.4773 -0.0627 -0.3023
   48MOL0     C 6218   3.026   3.676  10.761  0.0326 -0.1443  0.3737
   48MOL0     C 6219   3.079   3.755  10.645 -0.4167  0.0720  0.0541
   48MOL0     C 6220   3.086   3.907  10.684 -0.7045  0.2768  0.1701
   48MOL0     N 6221   3.149   3.989  10.580  0.2834 -0.7760  0.9825
   48MOL0     C 6222   3.183   3.943  10.454  0.0656 -0.0318  0.5774
   48MOL0     C 6223   3.211   4.055  10.378 -0.0579  0.4025 -0.1505
   48MOL0     C 6224   3.232   4.083  10.234  0.4038  0.8059  0.6382
   48MOL0     C 6225   3.367   4.026  10.196 -0.2578  0.1359  0.1899
   48MOL0     C 6226   3.480   4.122  10.232  0.9133 -0.3345  0.7124
   48MOL0     C 6227   3.568   4.087  10.354 -0.0530 -0.3837  0.5676
   48MOL0     O 6228   3.483   4.079  10.473  0.2256 -0.1692 -0.7103
   48MOL0     C 6229   3.552   4.080  10.595 -0.7033  0.8318 -0.4147
   48MOL0     C 6230   3.481   4.068  10.720 -0.4084  0.4109  0.7343
   48MOL0     C 6231   3.548   4.056  10.845  0.5480  1.4690  0.3881
   48MOL0     C 6232   3.687   4.064  10.847 -0.6539 -0.1104  0.8491
   48MOL0     C 6233   3.761   4.059  10.977 -0.0388  0.5833 -0.1776
   48MOL0     O 6234   3.900   4.091  10.984 -0.1031  0.6402  0.0217
   48MOL0     C 6235   3.972   4.101  11.096  0.1461 -0.8268 -0.6557
   48MOL0     C 6236   4.111   4.094  11.078  0.1976 -0.1597  0.3757
   48MOL0     C 6237   4.197   4.134  11.175 -0.9586  0.3099 -0.5117
   48MOL0     C 6238   4.156   4.170  11.306 -0.2168  0.8157 -0.0748
   48MOL0     O 6239   4.253   4.196  11.399  0.5438  0.1010 -1.0316
   48MOL0     C 6240   4.250   4.094  11.506  0.2823 -0.3945 -0.4789
   48MOL0     C 6241   4.203   4.170  11.645  0.5064  0.9941 -0.1331
   48MOL0     C 6242   4.137   4.068  11.754  0.2673  0.4708  0.1883
   48MOL0     C 6243   4.226   4.049  11.877  1.1537 -0.7010  0.7496
   48MOL0     C 6244   4.183   3.943  11.970  0.5745 -0.5850  0.0860
   48MOL0     C 6245   4.121   3.817  11.905 -0.8864  0.8466  0.0856
   48MOL0     C 6246   4.106   3.700  12.003 -0.0787 -0.2270 -0.7909
   48MOL0     C 6247   4.062   3.583  11.921  0.7246  1.2125 -0.4121
   48MOL0    Cl 6248   4.209   3.510  11.853 -0.3822  0.5283  0.5529
   48MOL0     C 6249   4.019   4.171  11.332 -0.0587 -0.0718  0.5137
   48MOL0     C 6250   3.929   4.141  11.225 -0.3330 -0.7805  0.0076
   48MOL0     O 6251   3.697   4.031  11.078  0.0149 -0.4484  0.2358
   48MOL0     C 6252   3.754   4.082  10.727 -0.6133 -0.3154 -0.2072
   48MOL0     C 6253   3.686   4.088  10.607 -0.9620 -0.6060 -0.1078
   48MOL0     N 6254   3.203   4.164  10.465 -0.2006 -0.0389  0.1211
   48MOL0     N 6255   3.175   4.129  10.592  0.4260 -0.3856  0.5855
   48MOL0     C 6256   2.869   3.034  10.563 -0.3969  0.6908  0.3934
   48MOL0     C 6257   2.923   2.931  10.473  0.1920 -1.6050  0.1740
   48MOL0     C 6258   2.970   2.628  10.146 -0.1107 -0.1379 -0.5160
   48MOL0     C 6259   2.978   2.500  10.196  0.0044  0.3629 -0.5885
   48MOL0     C 6260   3.024   2.397  10.119  0.0575  0.7089  0.9308
   48MOL0     C 6261   3.067   2.429   9.984  0.3367 -0.9869 -0.0993
   48MOL0     O 6262   3.136   2.341   9.904  0.2086 -0.2212 -0.3178
   48MOL0     C 6263   3.092   2.204   9.898 -1.2156 -0.1800 -0.3472
   48MOL0     C 6264   2.931   2.188   9.860 -0.0079  0.7162 -0.0356
   48MOL0     C 6265   2.904   2.040   9.852  0.1429  0.0422  1.4079
   48MOL0     C 6266   2.889   1.971   9.987 -0.6446  0.0310  0.0863
   48MOL0     C 6267   2.845   1.824   9.968  0.2254 -0.8117 -0.3127
   48MOL0     C 6268   2.802   1.711   9.955 -0.5189 -0.4258  0.1553
   48MOL0     C 6269   3.048   2.556   9.930  0.1396  0.1918  0.3677
   48MOL0     C 6270   3.002   2.654  10.011 -0.4383 -0.0763 -0.5214
   48MOL0     H 6271   2.661   2.737  10.417  2.9147 -2.5980 -0.5515
   48MOL0     H 6272   2.560   2.893  10.587 -0.4246  0.2755 -2.0109
   48MOL0     H 6273   2.829   3.103  10.838 -0.3923 -0.9379 -0.3231
   48MOL0     H 6274   2.657   3.090  10.880  1.2659  0.3117  1.5709
   48MOL0     H 6275   2.746   3.318  10.936  2.2749  0.1405 -1.0145
   48MOL0     H 6276   2.636   3.332  10.806  0.8026  2.1434  0.1847
   48MOL0     H 6277   2.800   3.349  10.642 -4.3733 -3.4451  2.1670
   48MOL0     H 6278   2.931   3.276  10.739 -1.4101 -1.8115 -0.2519
   48MOL0     H 6279   2.793   3.553  10.799 -1.1856 -0.8332  0.3764
   48MOL0     H 6280   2.917   3.487  10.891 -2.9601  0.0424  0.8579
   48MOL0     H 6281   2.950   3.572  10.601 -5.3270  1.8418  2.3107
   48MOL0     H 6282   3.075   3.474  10.698  2.2245  1.8526 -0.8820
   48MOL0     H 6283   3.101   3.669  10.841  0.1302 -2.3043  0.1414
   48MOL0     H 6284   2.933   3.721  10.795  0.3413 -0.1489  1.2407
   48MOL0     H 6285   3.177   3.715  10.617 -0.3040 -0.5170  1.2463
   48MOL0     H 6286   3.019   3.755  10.554  1.6019 -2.0293 -1.4010
   48MOL0     H 6287   3.135   3.926  10.780 -0.2477 -1.5765  0.3367
   48MOL0     H 6288   2.989   3.949  10.713 -0.9108 -0.9010  1.3101
   48MOL0     H 6289   3.173   3.840  10.424 -0.9383 -1.1786  4.3065
   48MOL0     H 6290   3.226   4.188  10.203 -3.7762 -0.2688 -3.4006
   48MOL0     H 6291   3.150   4.031  10.182  1.6503 -1.7349  1.0718
   48MOL0     H 6292   3.366   4.015  10.087  1.2571  0.6953  0.1053
   48MOL0     H 6293   3.377   3.929  10.245 -2.8952 -0.5704 -0.4712
   48MOL0     H 6294   3.545   4.138  10.146 -0.1332  0.2551  0.0129
   48MOL0     H 6295   3.438   4.222  10.247  0.8144 -0.1653 -0.5974
   48MOL0     H 6296   3.650   4.159  10.351  0.2617 -0.6502 -4.0149
   48MOL0     H 6297   3.611   3.986  10.350 -0.9954 -0.8935  2.0521
   48MOL0     H 6298   3.374   4.078  10.708 -0.5012 -0.7243  0.4796
   48MOL0     H 6299   3.490   4.056  10.937 -0.9101  0.2146 -0.4869
   48MOL0     H 6300   4.145   4.075  10.977  0.0807  3.0992 -0.3943
   48MOL0     H 6301   4.304   4.134  11.161 -0.1589 -1.2673  3.9015
   48MOL0     H 6302   4.348   4.050  11.525  0.0692 -0.9216 -0.5560
   48MOL0     H 6303   4.184   4.007  11.489 -0.3192 -0.1595  0.5849
   48MOL0     H 6304   4.127   4.247  11.632  0.3752  1.6871  3.7214
   48MOL0     H 6305   4.288   4.221  11.692  0.4753 -0.3687  1.4891
   48MOL0     H 6306   4.127   3.968  11.710 -0.1213 -0.1402  1.6243
   48MOL0     H 6307   4.033   4.098  11.768 -0.2716 -0.1310 -2.0679
   48MOL0     H 6308   4.320   4.015  11.832  1.1791 -0.1697  0.3954
   48MOL0     H 6309   4.229   4.145  11.928  1.5898  0.0018 -0.5535
   48MOL0     H 6310   4.111   3.978  12.044  1.5364 -2.8372  2.2005
   48MOL0     H 6311   4.274   3.922  12.027 -0.4942 -0.5780  1.8601
   48MOL0     H 6312   4.186   3.786  11.823 -2.6292 -0.8900 -0.7427
   48MOL0     H 6313   4.021   3.839  11.865 -1.7581  0.0821  1.7438
   48MOL0     H 6314   4.201   3.676  12.051  0.0087  1.4303 -0.0435
   48MOL0     H 6315   4.021   3.719  12.070 -0.0324 -1.0461 -0.4918
   48MOL0     H 6316   3.989   3.592  11.840  1.6362 -0.3058 -1.4485
   48MOL0     H 6317   4.026   3.507  11.992  2.9852  2.1425  1.8888
   48MOL0     H 6318   3.992   4.215  11.427  0.0383  0.9715  0.0646
   48MOL0     H 6319   3.822   4.149  11.239 -0.4020  4.3862 -1.4001
   48MOL0     H 6320   3.862   4.092  10.722 -0.4544 -1.5645  0.3090
   48MOL0     H 6321   3.767   4.103  10.535  0.9585  2.2739  2.4197
   48MOL0     H 6322   2.930   3.119  10.591 -1.7171  3.3221 -3.7142
   48MOL0     H 6323   3.029   2.918  10.458  0.1312 -2.2604  0.2863
   48MOL0     H 6324   2.950   2.474  10.297 -0.6126  3.5317  0.1774
   48MOL0     H 6325   3.024   2.293  10.150  2.0373  1.3048  3.2286
   48MOL0     H 6326   3.122   2.152   9.990 -0.1792  2.9533  1.2074
   48MOL0     H 6327   3.135   2.169   9.804  3.9486  1.8364  0.9529
   48MOL0     H 6328   2.876   2.248   9.933  0.5937  3.0755 -1.3918
   48MOL0     H 6329   2.912   2.239   9.765  2.7602  0.1348 -0.9836
   48MOL0     H 6330   2.985   1.990   9.797  0.9928  3.4499 -0.7785
   48MOL0     H 6331   2.819   2.034   9.784  0.4658  0.7200  0.9299
   48MOL0     H 6332   2.987   1.968  10.036 -0.6623  3.9630  0.7220
   48MOL0     H 6333   2.813   2.023  10.046 -1.1787 -1.5462  0.8439
   48MOL0     H 6334   2.777   1.607   9.964  0.9616 -0.9024 -0.8936
   48MOL0     H 6335   3.089   2.577   9.832  1.8574 -0.5551  0.8894
   48MOL0     H 6336   3.006   2.760   9.985 -0.6244 -0.0159 -0.3052
   49MOL0     O 6337   1.793   8.364  10.733 -1.1138  0.1893 -0.9108
   49MOL0     C 6338   1.876   8.270  10.723 -0.3547  0.2143 -0.6609
   49MOL0     O 6339   1.927   8.194  10.820 -0.1571 -0.2011 -0.8048
   49MOL0     C 6340   1.941   8.260  10.940 -0.3794  0.2066 -0.6396
   49MOL0     C 6341   2.058   8.328  10.975  0.3169 -0.4517  0.0502
   49MOL0     C 6342   2.075   8.403  11.086  0.2882 -0.2071 -0.0080
   49MOL0     C 6343   1.969   8.407  11.180 -0.6043 -0.6165 -0.1832
   49MOL0     O 6344   1.980   8.455  11.310  0.2683 -0.5895 -0.5404
   49MOL0     C 6345   1.862   8.498  11.384 -0.4351 -0.2281 -0.4002
   49MOL0     C 6346   1.933   8.539  11.518  0.1275  0.0297 -0.2816
   49MOL0     C 6347   1.824   8.580  11.619  0.1154 -0.1781 -0.1420
   49MOL0     C 6348   1.761   8.712  11.575 -0.3268  0.4569 -0.2636
   49MOL0     C 6349   1.676   8.755  11.692 -0.3406  0.3770  0.0551
   49MOL0     C 6350   1.765   8.816  11.797 -0.7203  1.1965 -0.3361
   49MOL0     C 6351   1.700   8.872  11.923  0.0740 -0.4536 -0.1965
   49MOL0     C 6352   1.809   8.937  12.020 -0.3714 -0.1823 -0.2095
   49MOL0     N 6353   1.746   8.951  12.147  0.2111  0.1294 -0.2989
   49MOL0     C 6354   1.789   8.872  12.256  0.6434 -0.8882  0.3231
   49MOL0     C 6355   1.686   8.877  12.344  0.2427  0.2232 -0.3980
   49MOL0     C 6356   1.679   8.811  12.472 -0.9753 -0.2886  0.6607
   49MOL0     C 6357   1.689   8.910  12.588  0.0042 -0.7965 -0.5245
   49MOL0     C 6358   1.657   8.845  12.730 -0.6431 -1.2415 -0.1643
   49MOL0     C 6359   1.513   8.803  12.763 -0.3401  0.1038  0.2967
   49MOL0     O 6360   1.498   8.777  12.902 -0.6140  0.1293  0.1617
   49MOL0     C 6361   1.382   8.723  12.950 -0.8933 -0.1865 -0.4848
   49MOL0     C 6362   1.270   8.712  12.871 -0.3870 -0.1995 -0.0534
   49MOL0     C 6363   1.158   8.642  12.921 -0.1007 -0.9694 -0.1898
   49MOL0     C 6364   1.155   8.590  13.054  0.5680 -0.2010  0.0694
   49MOL0     C 6365   1.040   8.514  13.100  0.1328 -0.4519  1.1731
   49MOL0     O 6366   1.044   8.437  13.218  0.3996 -0.2061  0.1505
   49MOL0     C 6367   0.928   8.366  13.241  0.6078  0.8815 -0.0910
   49MOL0     C 6368   0.902   8.363  13.376  0.0034 -0.3962 -0.4191
   49MOL0     C 6369   0.799   8.291  13.427 -0.1043  0.5901 -0.3209
   49MOL0     C 6370   0.711   8.215  13.339 -0.4635 -0.4401  0.5844
   49MOL0     O 6371   0.606   8.141  13.378  0.1441  0.0124 -0.4800
   49MOL0     C 6372   0.577   8.127  13.522 -0.0803  0.2925 -0.6148
   49MOL0     C 6373   0.645   7.991  13.554 -0.3608 -0.5697 -1.0743
   49MOL0     C 6374   0.764   8.006  13.654  0.0390 -0.0093  0.4768
   49MOL0     C 6375   0.843   7.874  13.680 -0.1516  0.6106  0.0156
   49MOL0     C 6376   0.770   7.760  13.759 -0.4511  0.0871  0.1500
   49MOL0     C 6377   0.666   7.681  13.680  0.4603 -0.0156  0.7743
   49MOL0     C 6378   0.610   7.552  13.745 -0.0144  0.0067 -0.0675
   49MOL0     C 6379   0.489   7.495  13.678 -0.2508 -0.6621 -0.8292
   49MOL0    Cl 6380   0.373   7.618  13.615 -0.0764 -0.0198 -0.1123
   49MOL0     C 6381   0.755   8.204  13.205  0.2411  0.2914 -0.2242
   49MOL0     C 6382   0.866   8.270  13.154  0.2382 -0.1421 -0.5653
   49MOL0     O 6383   0.938   8.523  13.024  0.2327  0.2166 -0.4768
   49MOL0     C 6384   1.261   8.618  13.132 -0.9694 -0.4572 -0.3581
   49MOL0     C 6385   1.373   8.684  13.082  0.1101  0.1026  0.1978
   49MOL0     N 6386   1.581   8.958  12.295  0.0288  0.2091 -0.1376
   49MOL0     N 6387   1.619   9.000  12.177 -0.0189 -0.1144 -0.1228
   49MOL0     C 6388   1.847   8.346  11.145 -0.0924 -0.5488 -0.1190
   49MOL0     C 6389   1.840   8.269  11.032  0.4880  0.3268 -0.3739
   49MOL0     C 6390   1.911   8.233  10.586 -0.0922 -0.2911 -0.0448
   49MOL0     C 6391   1.973   8.108  10.556 -0.0467  0.6507  0.0557
   49MOL0     C 6392   2.009   8.076  10.415 -1.3689  0.0339  0.9538
   49MOL0     C 6393   1.981   8.179  10.316  0.0774  0.0074 -0.6596
   49MOL0     O 6394   2.018   8.149  10.188 -0.7537  0.3980 -0.1127
   49MOL0     C 6395   1.966   8.223  10.080 -0.8484 -0.3999  0.1078
   49MOL0     C 6396   1.968   8.150   9.947 -0.4364 -0.3607 -0.3745
   49MOL0     C 6397   1.903   8.000   9.946 -0.1713 -0.2962  0.1261
   49MOL0     C 6398   1.982   7.893  10.017 -0.4657  0.6888  0.3002
   49MOL0     C 6399   2.119   7.869   9.960 -0.5078  0.4373  0.6008
   49MOL0     C 6400   2.225   7.851   9.905 -0.6603 -0.0898  0.7199
   49MOL0     C 6401   1.922   8.292  10.349 -0.7633  0.3367 -1.1728
   49MOL0     C 6402   1.882   8.321  10.479  0.1746 -0.5205  0.2566
   49MOL0     H 6403   2.138   8.337  10.902  0.4797  1.2067  0.3906
   49MOL0     H 6404   2.163   8.467  11.096  0.2991  0.2591 -2.5632
   49MOL0     H 6405   1.800   8.414  11.418 -0.4238  0.3377  1.0888
   49MOL0     H 6406   1.811   8.585  11.341  1.5366  2.2902  2.0135
   49MOL0     H 6407   2.003   8.621  11.499  2.1788 -1.9012 -1.5051
   49MOL0     H 6408   1.994   8.462  11.565 -0.8170 -1.3300 -1.2248
   49MOL0     H 6409   1.871   8.584  11.718  0.9060  0.3682 -0.5316
   49MOL0     H 6410   1.746   8.503  11.627  0.2459 -0.2594  0.3887
   49MOL0     H 6411   1.835   8.786  11.542 -0.6673  1.6241  1.4571
   49MOL0     H 6412   1.690   8.706  11.491 -2.4727  3.3590  1.1598
   49MOL0     H 6413   1.607   8.677  11.725 -1.6821  0.8417 -1.5015
   49MOL0     H 6414   1.622   8.845  11.661  2.6598  3.0408  1.9310
   49MOL0     H 6415   1.825   8.899  11.757  3.0347 -0.3274  1.5910
   49MOL0     H 6416   1.846   8.751  11.831  0.2746  2.0816 -0.9539
   49MOL0     H 6417   1.631   8.946  11.882  0.3847 -0.8268 -1.4262
   49MOL0     H 6418   1.655   8.799  11.992  0.1637  0.4752  0.8842
   49MOL0     H 6419   1.826   9.030  11.965 -1.0034  0.4630  0.6494
   49MOL0     H 6420   1.899   8.876  12.024 -0.5837 -0.6946 -2.2483
   49MOL0     H 6421   1.878   8.812  12.270  1.1654  0.2700  2.2583
   49MOL0     H 6422   1.756   8.733  12.471 -1.7102 -1.0315  1.1683
   49MOL0     H 6423   1.591   8.748  12.487  1.1235 -3.0379  2.2537
   49MOL0     H 6424   1.613   8.988  12.573  2.5600  1.4996 -2.4645
   49MOL0     H 6425   1.792   8.945  12.575  0.5861 -3.2478 -3.6270
   49MOL0     H 6426   1.718   8.757  12.753  0.6153 -1.4895 -3.8051
   49MOL0     H 6427   1.684   8.922  12.803  0.4835 -0.3342 -1.4795
   49MOL0     H 6428   1.503   8.712  12.703 -0.3430  0.3388 -0.0618
   49MOL0     H 6429   1.444   8.880  12.727 -0.9089  0.8172  2.7132
   49MOL0     H 6430   1.265   8.754  12.771 -2.1138 -0.5880 -0.1652
   49MOL0     H 6431   1.065   8.641  12.865  0.6991 -0.5462 -1.5797
   49MOL0     H 6432   0.981   8.400  13.440 -1.0668 -3.0203  2.7228
   49MOL0     H 6433   0.792   8.299  13.535 -2.9577  0.6938 -0.4328
   49MOL0     H 6434   0.471   8.131  13.551  0.5849  0.6936  2.0232
   49MOL0     H 6435   0.629   8.195  13.591  0.0456 -3.2255  3.2087
   49MOL0     H 6436   0.680   7.930  13.470  2.2170 -0.5767 -0.0806
   49MOL0     H 6437   0.568   7.933  13.605  0.9419 -0.9860  0.4776
   49MOL0     H 6438   0.723   8.043  13.748  0.2613 -0.6849  0.8363
   49MOL0     H 6439   0.833   8.083  13.618  1.1413 -0.1563  2.2043
   49MOL0     H 6440   0.887   7.824  13.593 -3.6674 -2.9229  0.0038
   49MOL0     H 6441   0.927   7.907  13.741 -0.6802 -0.9740  1.6785
   49MOL0     H 6442   0.731   7.799  13.854  1.1746  2.1413  0.0401
   49MOL0     H 6443   0.846   7.689  13.793 -1.8402 -2.1907 -1.2620
   49MOL0     H 6444   0.687   7.651  13.577 -1.3648 -1.5044  0.7818
   49MOL0     H 6445   0.580   7.748  13.670  1.3638  0.8892 -5.7850
   49MOL0     H 6446   0.673   7.464  13.729 -3.4625 -2.4289 -1.3644
   49MOL0     H 6447   0.594   7.571  13.852  4.0406  0.6363  0.5904
   49MOL0     H 6448   0.424   7.441  13.747 -1.0307  1.5075  0.2290
   49MOL0     H 6449   0.518   7.425  13.599  0.7036 -0.2840 -0.8304
   49MOL0     H 6450   0.694   8.152  13.132 -1.8030  3.5498 -1.0011
   49MOL0     H 6451   0.889   8.265  13.048  1.8918 -1.7909 -0.1734
   49MOL0     H 6452   1.267   8.566  13.227  0.7394 -0.5714 -0.4937
   49MOL0     H 6453   1.450   8.705  13.155 -0.8987  1.6501  0.8612
   49MOL0     H 6454   1.763   8.335  11.212  0.2669  1.1061  0.6589
   49MOL0     H 6455   1.753   8.208  11.008  1.1082 -0.7804  0.0780
   49MOL0     H 6456   1.997   8.043  10.639 -2.2223  2.9403  2.6882
   49MOL0     H 6457   2.044   7.977  10.390 -2.4631 -0.6112  1.9152
   49MOL0     H 6458   2.024   8.315  10.071  0.9106 -1.2473  1.9153
   49MOL0     H 6459   1.861   8.243  10.099 -0.7023 -0.2167  0.7244
   49MOL0     H 6460   1.919   8.209   9.869  1.0137 -0.7131 -1.5792
   49MOL0     H 6461   2.071   8.141   9.912 -0.1182  3.2106 -0.7202
   49MOL0     H 6462   1.902   7.970   9.841 -1.3401  0.3597 -0.0671
   49MOL0     H 6463   1.799   7.995   9.980 -0.1788  4.6917  1.6369
   49MOL0     H 6464   1.984   7.919  10.124  0.7301  0.2156  0.4024
   49MOL0     H 6465   1.930   7.796  10.020  1.8835 -0.6973 -0.8435
   49MOL0     H 6466   2.302   7.837   9.832 -4.1201  0.5676 -3.4939
   49MOL0     H 6467   1.906   8.367  10.272  4.4923  3.0641 -0.0430
   49MOL0     H 6468   1.845   8.422  10.484 -0.4044 -0.7205  0.0552
   50MOL0     O 6469   7.380   1.941   2.974  0.3056 -0.5325 -0.0329
   50MOL0     C 6470   7.297   2.027   3.003  0.0624 -1.2769 -0.0006
   50MOL0     O 6471   7.272   2.075   3.131 -0.0723 -0.2620 -0.4626
   50MOL0     C 6472   7.286   1.988   3.238  0.2357  1.3930 -0.1497
   50MOL0     C 6473   7.263   1.846   3.224 -0.0898 -0.2366  0.0072
   50MOL0     C 6474   7.267   1.765   3.340 -1.0255 -0.5442 -0.4883
   50MOL0     C 6475   7.286   1.818   3.471  0.0137  0.4798 -0.5790
   50MOL0     O 6476   7.281   1.742   3.578 -0.2574 -0.0443 -0.1392
   50MOL0     C 6477   7.170   1.762   3.662  0.2088 -0.5332 -0.8337
   50MOL0     C 6478   7.163   1.630   3.757 -0.4235 -0.0013  0.4176
   50MOL0     C 6479   7.076   1.512   3.711  1.0133  0.1619  0.4968
   50MOL0     C 6480   7.104   1.396   3.797  0.7637  0.0523 -0.5206
   50MOL0     C 6481   7.003   1.279   3.778  0.1756  0.1647  0.1549
   50MOL0     C 6482   7.047   1.149   3.856 -0.2604 -1.1288 -0.8579
   50MOL0     C 6483   7.186   1.109   3.799  0.4690  0.6526  0.2354
   50MOL0     C 6484   7.221   0.961   3.832 -0.8116  0.1808  1.1168
   50MOL0     N 6485   7.262   0.926   3.964 -0.4333  0.1590 -0.1121
   50MOL0     C 6486   7.390   0.952   4.014  0.7288  0.0924 -0.0233
   50MOL0     C 6487   7.390   0.872   4.123 -0.3187  0.3681 -0.4970
   50MOL0     C 6488   7.519   0.870   4.214 -0.9832  0.8320  0.3820
   50MOL0     C 6489   7.621   0.762   4.147  0.6534 -1.1235 -0.4567
   50MOL0     C 6490   7.743   0.735   4.235 -0.3133  0.0982 -0.1618
   50MOL0     C 6491   7.701   0.605   4.317  0.5469  0.3034  0.0114
   50MOL0     O 6492   7.613   0.643   4.423  0.0068 -0.2991 -0.6116
   50MOL0     C 6493   7.530   0.545   4.476  0.8788  0.0419  0.2225
   50MOL0     C 6494   7.424   0.497   4.406  0.6391  0.0298  0.8049
   50MOL0     C 6495   7.336   0.408   4.464  0.3388 -0.6489 -0.2947
   50MOL0     C 6496   7.354   0.359   4.589  0.5000 -0.8722 -1.0984
   50MOL0     C 6497   7.261   0.254   4.645 -1.1310  0.3909 -0.3212
   50MOL0     O 6498   7.316   0.152   4.712  0.2580  0.2309  0.4061
   50MOL0     C 6499   7.244   0.048   4.755  0.1410 -0.5843  0.7501
   50MOL0     C 6500   7.147  -0.030   4.686 -0.8651  1.1487  0.3639
   50MOL0     C 6501   7.081  -0.135   4.742 -0.5206 -0.8198  0.2519
   50MOL0     C 6502   7.108  -0.169   4.877  0.1310  0.5702  0.0247
   50MOL0     O 6503   7.043  -0.270   4.944  0.5480  0.5477 -0.3169
   50MOL0     C 6504   6.925  -0.325   4.888 -0.7815  0.3706  0.2908
   50MOL0     C 6505   6.865  -0.423   4.986  0.5876 -0.0508  0.1909
   50MOL0     C 6506   6.796  -0.363   5.108  0.5755  0.2375 -1.0107
   50MOL0     C 6507   6.711  -0.461   5.200  0.5051 -0.4417  0.1424
   50MOL0     C 6508   6.629  -0.399   5.312 -0.8248  0.1378  0.1551
   50MOL0     C 6509   6.549  -0.498   5.390  0.6145 -1.1668  0.7672
   50MOL0     C 6510   6.455  -0.436   5.497 -0.5261  0.3431  1.2985
   50MOL0     C 6511   6.537  -0.383   5.617  0.2704  0.4694 -0.8646
   50MOL0    Cl 6512   6.645  -0.508   5.686  0.1361  0.1141  0.0328
   50MOL0     C 6513   7.210  -0.101   4.946 -0.5941 -0.8309 -0.3670
   50MOL0     C 6514   7.275   0.008   4.883  1.2325  0.4690  0.2339
   50MOL0     O 6515   7.142   0.269   4.629 -0.5106  0.1445  0.5535
   50MOL0     C 6516   7.459   0.410   4.665  0.6093  1.8828 -0.0404
   50MOL0     C 6517   7.547   0.509   4.612  0.5749  0.4343 -0.6610
   50MOL0     N 6518   7.263   0.798   4.135 -1.0438  0.5496  0.7907
   50MOL0     N 6519   7.191   0.832   4.029  0.5636  0.1629  0.1768
   50MOL0     C 6520   7.308   1.958   3.486  0.8709  0.3214 -1.1074
   50MOL0     C 6521   7.296   2.035   3.375 -0.2397  0.2044 -0.5615
   50MOL0     C 6522   7.227   2.088   2.894  0.0121  0.6135 -0.1850
   50MOL0     C 6523   7.285   2.098   2.770 -0.5094 -0.7035 -0.4467
   50MOL0     C 6524   7.212   2.142   2.664 -0.1896 -0.0892 -0.0565
   50MOL0     C 6525   7.077   2.175   2.672 -0.0041  0.4078 -1.2350
   50MOL0     O 6526   7.000   2.230   2.573 -0.5838  0.1549 -0.0603
   50MOL0     C 6527   7.056   2.280   2.458 -0.7398  0.9837 -0.4867
   50MOL0     C 6528   6.947   2.354   2.376  0.7555  0.1227 -0.0911
   50MOL0     C 6529   6.993   2.373   2.234 -0.0780  0.4898  0.3914
   50MOL0     C 6530   6.950   2.244   2.162  0.1932  0.0006 -0.9231
   50MOL0     C 6531   7.031   2.214   2.052 -0.2722  1.0836 -0.0714
   50MOL0     C 6532   7.102   2.177   1.956 -0.0132  0.7619 -0.0778
   50MOL0     C 6533   7.011   2.158   2.796  0.3902 -0.5876 -0.2652
   50MOL0     C 6534   7.086   2.113   2.905  0.5518 -0.5187 -0.3395
   50MOL0     H 6535   7.245   1.803   3.126 -0.9490 -3.1226  1.3090
   50MOL0     H 6536   7.246   1.658   3.334  0.6880 -0.9561  0.2659
   50MOL0     H 6537   7.078   1.784   3.608  1.4248 -1.3126 -3.3745
   50MOL0     H 6538   7.184   1.848   3.729  1.0603 -1.1409 -0.2100
   50MOL0     H 6539   7.139   1.649   3.862 -1.7905  2.1123 -0.2263
   50MOL0     H 6540   7.267   1.595   3.751 -0.3337  0.4532 -3.1724
   50MOL0     H 6541   7.088   1.481   3.607 -0.9201 -1.8141  0.7902
   50MOL0     H 6542   6.972   1.544   3.716  0.3232 -1.9223  0.5829
   50MOL0     H 6543   7.202   1.364   3.761  0.8123 -0.4867  0.0612
   50MOL0     H 6544   7.103   1.434   3.899 -0.4711 -2.8655  0.6597
   50MOL0     H 6545   6.968   1.253   3.678 -2.0674 -0.2891  0.9938
   50MOL0     H 6546   6.914   1.320   3.827  0.6178  0.0892  1.0534
   50MOL0     H 6547   6.985   1.061   3.837  0.2305 -1.1647 -2.4488
   50MOL0     H 6548   7.055   1.172   3.963  3.6092 -2.0081 -0.8352
   50MOL0     H 6549   7.197   1.116   3.691  4.4408  0.9649  0.4892
   50MOL0     H 6550   7.266   1.174   3.838  2.2455  0.7603 -3.2360
   50MOL0     H 6551   7.312   0.948   3.773  0.0169  1.6352  2.0062
   50MOL0     H 6552   7.147   0.892   3.792  0.6613 -0.8658  0.0744
   50MOL0     H 6553   7.455   1.026   3.970  1.2050  1.8900  3.4028
   50MOL0     H 6554   7.493   0.829   4.312 -0.8559 -2.1025 -0.6870
   50MOL0     H 6555   7.564   0.969   4.225  1.8974 -0.2563 -0.6771
   50MOL0     H 6556   7.651   0.824   4.062  5.1691 -0.4316  1.3478
   50MOL0     H 6557   7.574   0.667   4.119 -2.4985 -0.3052  1.5256
   50MOL0     H 6558   7.834   0.716   4.177 -1.1728 -0.5497 -1.3586
   50MOL0     H 6559   7.763   0.823   4.296  1.8150 -0.4510 -0.0089
   50MOL0     H 6560   7.790   0.554   4.355 -1.9372 -3.6911  1.0506
   50MOL0     H 6561   7.652   0.530   4.254 -2.8596  3.2753 -1.2850
   50MOL0     H 6562   7.416   0.522   4.300  0.8524  2.0156  1.2196
   50MOL0     H 6563   7.262   0.364   4.398  0.1363  1.0609 -1.2636
   50MOL0     H 6564   7.127  -0.001   4.584 -0.2850 -0.3924 -0.2293
   50MOL0     H 6565   7.003  -0.183   4.684 -3.4073  1.0771  2.2407
   50MOL0     H 6566   6.947  -0.377   4.794 -1.9596 -2.0546  1.2572
   50MOL0     H 6567   6.849  -0.247   4.881 -0.1214  0.8551 -3.0475
   50MOL0     H 6568   6.943  -0.494   5.013  1.8082  0.2401 -2.2858
   50MOL0     H 6569   6.783  -0.477   4.939  0.5218  0.4614 -0.2994
   50MOL0     H 6570   6.741  -0.276   5.070  0.8489  0.0075 -1.9566
   50MOL0     H 6571   6.876  -0.327   5.174  0.5883  0.3477 -1.0867
   50MOL0     H 6572   6.643  -0.512   5.132  3.1806  0.1178 -3.1769
   50MOL0     H 6573   6.783  -0.535   5.238  0.6923  0.8154  2.4313
   50MOL0     H 6574   6.563  -0.324   5.267  0.1421  0.1182 -1.3731
   50MOL0     H 6575   6.693  -0.337   5.376  0.6284  0.3507 -1.4415
   50MOL0     H 6576   6.618  -0.566   5.441 -0.0454 -0.0445  3.3369
   50MOL0     H 6577   6.490  -0.551   5.315  1.4874  2.1740 -2.6076
   50MOL0     H 6578   6.401  -0.347   5.466  0.7850  0.7797  0.1711
   50MOL0     H 6579   6.390  -0.519   5.528 -0.6583 -0.1990 -0.3706
   50MOL0     H 6580   6.463  -0.352   5.691 -1.0287 -0.2591 -1.8245
   50MOL0     H 6581   6.592  -0.294   5.585  3.1386  0.0998  2.5065
   50MOL0     H 6582   7.233  -0.121   5.050  0.1265 -2.1762 -0.7596
   50MOL0     H 6583   7.345   0.072   4.936  2.2454 -3.6507  4.5158
   50MOL0     H 6584   7.466   0.375   4.767 -1.0270  1.0010 -0.1920
   50MOL0     H 6585   7.638   0.536   4.664 -0.9097  0.5479  2.0017
   50MOL0     H 6586   7.303   2.003   3.585 -1.9080 -0.9765 -0.5417
   50MOL0     H 6587   7.293   2.142   3.387 -0.5301  0.4372 -2.3752
   50MOL0     H 6588   7.386   2.066   2.746 -1.2719 -1.9620 -2.1452
   50MOL0     H 6589   7.271   2.162   2.575  0.1775 -2.3958 -0.3879
   50MOL0     H 6590   7.092   2.188   2.410  0.2612  0.0230  1.9761
   50MOL0     H 6591   7.144   2.345   2.466 -1.1640  1.8142 -2.0436
   50MOL0     H 6592   6.848   2.310   2.380  0.8877 -0.1975 -0.3569
   50MOL0     H 6593   6.940   2.457   2.415  0.1311 -0.0121  0.1685
   50MOL0     H 6594   7.103   2.374   2.242  0.0419  0.4303 -1.0324
   50MOL0     H 6595   6.944   2.458   2.186 -2.5877 -0.9958  0.1423
   50MOL0     H 6596   6.954   2.163   2.235  1.7406  1.3080  0.4948
   50MOL0     H 6597   6.849   2.242   2.119 -1.3776  1.6911  2.3435
   50MOL0     H 6598   7.176   2.173   1.878  2.0230  0.4523  1.7832
   50MOL0     H 6599   6.907   2.187   2.795 -0.0382 -2.0619 -0.4309
   50MOL0     H 6600   7.035   2.108   3.001  0.3447  3.1728 -0.1014
   51MOL0     O 6601   5.340   2.224   3.544 -0.1430  0.0514  0.3179
   51MOL0     C 6602   5.224   2.193   3.546 -0.0150 -0.1108  0.6853
   51MOL0     O 6603   5.171   2.078   3.605  0.1734  0.7211 -0.0314
   51MOL0     C 6604   5.260   1.972   3.622 -0.0790 -1.7495 -1.2012
   51MOL0     C 6605   5.304   1.944   3.753 -0.4461 -0.0627 -0.5357
   51MOL0     C 6606   5.388   1.842   3.779 -0.4972  0.8857  0.2944
   51MOL0     C 6607   5.415   1.753   3.673  0.8500  0.1744  0.9569
   51MOL0     O 6608   5.497   1.642   3.693 -0.5883 -0.2126 -0.4128
   51MOL0     C 6609   5.528   1.550   3.590 -0.5427 -0.1304 -0.2974
   51MOL0     C 6610   5.646   1.464   3.637 -0.5574 -0.4421  0.5436
   51MOL0     C 6611   5.633   1.413   3.778  0.1611  0.2231 -2.1470
   51MOL0     C 6612   5.530   1.300   3.792 -0.1530 -0.3281  0.7774
   51MOL0     C 6613   5.539   1.231   3.929 -1.1744  0.1620  0.6360
   51MOL0     C 6614   5.671   1.153   3.955  0.8577  0.1234 -0.3426
   51MOL0     C 6615   5.628   1.025   4.022  0.4593  0.7278 -0.0835
   51MOL0     C 6616   5.741   0.924   3.998 -0.5893  0.1501  0.0279
   51MOL0     N 6617   5.709   0.787   4.028  0.2193 -0.1501 -1.0456
   51MOL0     C 6618   5.634   0.704   3.960  0.7816  0.6540 -0.2659
   51MOL0     C 6619   5.609   0.596   4.039 -0.8226 -0.0034  0.3887
   51MOL0     C 6620   5.502   0.505   4.009  1.0446  0.6118  0.7482
   51MOL0     C 6621   5.508   0.389   4.111  0.2116 -0.3451 -0.3140
   51MOL0     C 6622   5.374   0.319   4.110 -0.3979 -0.1781 -0.4036
   51MOL0     C 6623   5.344   0.265   3.961  0.5167  0.2622 -0.4045
   51MOL0     O 6624   5.462   0.182   3.921  0.9505  0.3528 -0.3498
   51MOL0     C 6625   5.526   0.217   3.807  1.0893  0.3013 -0.1321
   51MOL0     C 6626   5.665   0.232   3.815 -0.1078 -1.3219 -0.6324
   51MOL0     C 6627   5.739   0.264   3.693  0.3920 -0.3083  0.2782
   51MOL0     C 6628   5.653   0.266   3.580  0.3480  0.4013  1.0684
   51MOL0     C 6629   5.713   0.307   3.453  0.5203  0.7888 -0.1533
   51MOL0     O 6630   5.836   0.256   3.423  0.1754  0.1224 -0.3186
   51MOL0     C 6631   5.906   0.294   3.313  0.5442  0.9971 -0.6540
   51MOL0     C 6632   5.845   0.326   3.183 -0.7659  1.8482 -1.4710
   51MOL0     C 6633   5.927   0.372   3.075 -0.0728 -0.7188 -1.9238
   51MOL0     C 6634   6.068   0.383   3.102  0.3160 -0.6000  0.6526
   51MOL0     O 6635   6.165   0.410   3.015  0.2060  0.5696 -0.2002
   51MOL0     C 6636   6.127   0.415   2.878  0.4175  0.3957 -0.2504
   51MOL0     C 6637   6.258   0.428   2.794  0.4468  0.8966  0.1350
   51MOL0     C 6638   6.355   0.313   2.819 -0.2029 -0.1580 -0.2628
   51MOL0     C 6639   6.462   0.296   2.717 -0.1519 -0.1556  0.3020
   51MOL0     C 6640   6.548   0.419   2.729  0.1338 -0.6161  0.8627
   51MOL0     C 6641   6.689   0.394   2.679  0.5618  0.7736 -0.5205
   51MOL0     C 6642   6.766   0.528   2.672 -0.5804 -0.4691 -0.4345
   51MOL0     C 6643   6.915   0.510   2.626  0.1863 -0.1661 -0.7442
   51MOL0    Cl 6644   6.998   0.368   2.697  0.5465 -0.1518  0.1046
   51MOL0     C 6645   6.125   0.355   3.220 -0.0686 -1.1935 -1.1606
   51MOL0     C 6646   6.041   0.324   3.329 -0.3793 -0.5433 -0.3225
   51MOL0     O 6647   5.649   0.382   3.386 -1.4223 -0.0252 -0.6937
   51MOL0     C 6648   5.515   0.253   3.580 -0.3127  0.6861 -0.5165
   51MOL0     C 6649   5.446   0.227   3.699  0.3634 -0.7822 -0.3230
   51MOL0     N 6650   5.679   0.618   4.153  0.6451 -0.4746  0.1659
   51MOL0     N 6651   5.747   0.723   4.148  0.1321 -0.0282 -0.8552
   51MOL0     C 6652   5.350   1.767   3.541 -0.1646 -0.4278 -0.9233
   51MOL0     C 6653   5.272   1.879   3.522 -0.3066 -0.5594  0.4155
   51MOL0     C 6654   5.148   2.243   3.430  0.4689  1.0655  0.1631
   51MOL0     C 6655   5.046   2.160   3.372  0.6249  0.2756  0.6081
   51MOL0     C 6656   4.975   2.205   3.256  0.3463  0.1045  0.1066
   51MOL0     C 6657   5.012   2.329   3.194 -0.0177 -0.0760 -1.0635
   51MOL0     O 6658   4.944   2.382   3.092  0.1344 -0.2433  0.0877
   51MOL0     C 6659   4.841   2.476   3.130 -0.7801 -0.1315  0.0766
   51MOL0     C 6660   4.712   2.455   3.042 -0.3668  0.7232 -0.5033
   51MOL0     C 6661   4.657   2.314   3.060  0.2492  0.9589 -0.3813
   51MOL0     C 6662   4.548   2.279   2.960  0.9989 -0.2040  0.5870
   51MOL0     C 6663   4.517   2.131   2.941 -0.5111 -0.3695 -0.0568
   51MOL0     C 6664   4.515   2.012   2.932  0.8579 -0.0331 -0.3435
   51MOL0     C 6665   5.118   2.403   3.250  0.7147  0.2246  0.1524
   51MOL0     C 6666   5.188   2.362   3.363 -0.8371  0.3553 -0.3929
   51MOL0     H 6667   5.264   2.013   3.827  0.9267  0.5294 -0.3243
   51MOL0     H 6668   5.415   1.837   3.884  0.5544 -2.5286 -0.0053
   51MOL0     H 6669   5.553   1.586   3.490  2.6444  1.2495  0.8631
   51MOL0     H 6670   5.434   1.493   3.590 -1.8765  1.9292  0.9837
   51MOL0     H 6671   5.733   1.527   3.617 -0.9810 -0.3473 -1.1252
   51MOL0     H 6672   5.654   1.375   3.574  0.3108 -0.7387  1.0569
   51MOL0     H 6673   5.609   1.487   3.855  3.1607 -2.1721  1.4462
   51MOL0     H 6674   5.732   1.373   3.800 -0.3547  0.7114  1.7587
   51MOL0     H 6675   5.428   1.339   3.783 -0.3322 -1.2134 -2.6273
   51MOL0     H 6676   5.536   1.238   3.701 -0.6515  1.0501 -0.2362
   51MOL0     H 6677   5.445   1.176   3.925 -1.9085  1.3898  0.4254
   51MOL0     H 6678   5.517   1.303   4.009 -3.2457  0.5944 -0.2518
   51MOL0     H 6679   5.738   1.214   4.016  4.6589 -3.2402 -0.7172
   51MOL0     H 6680   5.725   1.141   3.861  2.0004 -0.3515  0.3533
   51MOL0     H 6681   5.593   1.039   4.125  0.6613  2.0839 -0.1844
   51MOL0     H 6682   5.536   0.986   3.979  0.2119  1.4737 -0.2338
   51MOL0     H 6683   5.817   0.952   4.072 -1.7751  0.1591  1.2780
   51MOL0     H 6684   5.772   0.915   3.893 -0.0632 -2.4662  0.3384
   51MOL0     H 6685   5.582   0.718   3.866  2.4966  0.2065 -1.3203
   51MOL0     H 6686   5.504   0.473   3.904 -1.9839  2.5224 -0.0037
   51MOL0     H 6687   5.406   0.556   4.021  0.6440  0.6447 -1.9696
   51MOL0     H 6688   5.524   0.427   4.212 -1.3847 -1.1454  0.2696
   51MOL0     H 6689   5.596   0.332   4.078  0.4589  2.2850 -5.1308
   51MOL0     H 6690   5.370   0.239   4.185 -3.0870  1.7737  1.7376
   51MOL0     H 6691   5.301   0.395   4.139  1.9309  0.9993  2.9273
   51MOL0     H 6692   5.320   0.351   3.898 -0.2857 -0.1280 -0.6405
   51MOL0     H 6693   5.259   0.197   3.950 -0.1525  0.7700  1.3843
   51MOL0     H 6694   5.715   0.216   3.910  2.1269  3.2710 -0.7651
   51MOL0     H 6695   5.847   0.273   3.688  0.2763  2.6502  1.0878
   51MOL0     H 6696   5.737   0.321   3.170 -1.3085  0.7555  2.2584
   51MOL0     H 6697   5.893   0.413   2.981  3.1123  4.0897 -1.3061
   51MOL0     H 6698   6.059   0.497   2.851 -1.6277 -0.5223  1.8510
   51MOL0     H 6699   6.091   0.318   2.845  2.6682 -1.3643  2.0571
   51MOL0     H 6700   6.306   0.525   2.812 -0.4175  1.2885  0.3808
   51MOL0     H 6701   6.238   0.437   2.687  2.4020 -0.4999 -0.3958
   51MOL0     H 6702   6.293   0.224   2.806 -1.9014  0.8470  0.6235
   51MOL0     H 6703   6.396   0.324   2.919  3.3701  1.0603 -1.6997
   51MOL0     H 6704   6.533   0.219   2.750 -0.2966  0.8757  3.3634
   51MOL0     H 6705   6.419   0.265   2.621  1.7271 -2.3383  0.0614
   51MOL0     H 6706   6.548   0.464   2.829 -0.7646 -0.0940  0.6448
   51MOL0     H 6707   6.503   0.501   2.672  0.8403  0.7123  2.1284
   51MOL0     H 6708   6.687   0.337   2.585 -5.1799  2.2576 -1.6943
   51MOL0     H 6709   6.731   0.337   2.763  1.2895  3.1759  0.8379
   51MOL0     H 6710   6.728   0.599   2.598 -0.4404 -0.7955 -0.8218
   51MOL0     H 6711   6.749   0.570   2.772  0.9933 -0.3869 -0.1754
   51MOL0     H 6712   6.973   0.600   2.647  1.5961 -0.8305 -1.6392
   51MOL0     H 6713   6.906   0.493   2.519 -5.4071 -1.4608 -0.3336
   51MOL0     H 6714   6.228   0.374   3.250 -0.4420 -1.0481  0.0912
   51MOL0     H 6715   6.073   0.303   3.431  4.5945 -0.1640 -1.5528
   51MOL0     H 6716   5.456   0.269   3.490 -1.2310  1.9553  0.2659
   51MOL0     H 6717   5.338   0.223   3.690  0.2260  1.1318  0.0637
   51MOL0     H 6718   5.374   1.702   3.458 -2.2137 -3.4244  0.6219
   51MOL0     H 6719   5.234   1.908   3.424  1.0527 -1.6121 -0.4732
   51MOL0     H 6720   5.009   2.069   3.419  0.9495  0.0707  0.4740
   51MOL0     H 6721   4.904   2.143   3.204 -1.2886  2.3190 -0.4543
   51MOL0     H 6722   4.884   2.573   3.107 -0.8645 -0.2164 -0.4461
   51MOL0     H 6723   4.821   2.479   3.237 -2.9937  1.3803 -0.3243
   51MOL0     H 6724   4.628   2.520   3.065 -0.0536  1.5056 -1.5061
   51MOL0     H 6725   4.740   2.476   2.938 -0.5865  2.1508 -0.2880
   51MOL0     H 6726   4.623   2.311   3.164 -1.0788  1.8510 -0.7612
   51MOL0     H 6727   4.738   2.241   3.050 -1.5496 -1.2774  0.4717
   51MOL0     H 6728   4.453   2.329   2.982  0.9178  2.4206 -4.3197
   51MOL0     H 6729   4.563   2.321   2.860  0.2111 -0.7888  0.2131
   51MOL0     H 6730   4.524   1.906   2.929  3.2808  0.1402 -1.8533
   51MOL0     H 6731   5.138   2.499   3.204 -0.8053  0.0923 -0.8283
   51MOL0     H 6732   5.275   2.423   3.386  0.8003 -0.2691 -4.2372
   52MOL0     O 6733   5.552   3.747  10.912  0.2185  0.2562 -0.1388
   52MOL0     C 6734   5.651   3.752  10.984 -1.0075 -0.5371 -0.1205
   52MOL0     O 6735   5.731   3.864  11.004 -0.2861  0.1458  0.1854
   52MOL0     C 6736   5.710   3.953  10.900  1.0970 -0.0879 -0.4489
   52MOL0     C 6737   5.781   3.937  10.784 -0.2140 -0.0180 -0.0145
   52MOL0     C 6738   5.770   4.023  10.674  0.3847  0.4643  0.0498
   52MOL0     C 6739   5.678   4.136  10.674  0.0974  0.0057 -0.2763
   52MOL0     O 6740   5.654   4.221  10.574 -0.2984 -0.6339  0.0761
   52MOL0     C 6741   5.762   4.241  10.475  0.2016 -0.4228  0.9230
   52MOL0     C 6742   5.723   4.343  10.369 -0.7984  0.4436 -0.4488
   52MOL0     C 6743   5.595   4.308  10.318  0.3037 -0.2887  0.7816
   52MOL0     C 6744   5.578   4.374  10.180 -0.3722  0.7626  0.0682
   52MOL0     C 6745   5.449   4.328  10.097  0.0157 -1.3509 -0.9863
   52MOL0     C 6746   5.427   4.410   9.961  0.1628 -0.2587 -0.1628
   52MOL0     C 6747   5.513   4.369   9.848  0.0805  0.2107  0.2999
   52MOL0     C 6748   5.482   4.425   9.713 -0.1189  0.1475  1.0595
   52MOL0     N 6749   5.502   4.575   9.708  0.2567  0.9642 -0.0015
   52MOL0     C 6750   5.394   4.654   9.737 -0.2773  0.6312 -0.4247
   52MOL0     C 6751   5.424   4.774   9.680 -0.0410  0.8993 -0.2191
   52MOL0     C 6752   5.338   4.895   9.662  1.5957 -1.1350 -0.5062
   52MOL0     C 6753   5.300   4.953   9.799 -0.4422  0.0078  0.1560
   52MOL0     C 6754   5.226   5.085   9.780 -0.3808 -0.1258 -0.1530
   52MOL0     C 6755   5.162   5.158   9.897 -0.1024 -0.6785  0.0626
   52MOL0     O 6756   5.249   5.181  10.007 -0.1451  0.1062  0.2923
   52MOL0     C 6757   5.197   5.227  10.120 -1.1186 -0.1571  1.2740
   52MOL0     C 6758   5.274   5.279  10.226 -0.6675 -0.0227  0.4121
   52MOL0     C 6759   5.217   5.339  10.334 -0.2106 -0.8654 -0.2786
   52MOL0     C 6760   5.078   5.342  10.352 -0.6982  1.4173 -0.0664
   52MOL0     C 6761   5.022   5.398  10.479 -0.2439 -0.3008  0.3795
   52MOL0     O 6762   5.110   5.391  10.583 -0.6378 -0.3826  1.1313
   52MOL0     C 6763   5.081   5.464  10.690  0.7593 -0.2394 -0.4625
   52MOL0     C 6764   5.007   5.414  10.797 -0.0542 -0.8655 -0.4016
   52MOL0     C 6765   4.988   5.486  10.921 -0.2952 -0.1018  0.0055
   52MOL0     C 6766   5.057   5.604  10.932  0.3016  0.7982 -0.3106
   52MOL0     O 6767   5.053   5.682  11.044 -0.2696  0.0687 -0.6227
   52MOL0     C 6768   4.998   5.625  11.170  0.9192  0.0338  0.5310
   52MOL0     C 6769   5.020   5.715  11.287 -0.3925 -0.8994 -0.0135
   52MOL0     C 6770   4.944   5.846  11.276  0.3204  0.6710  0.2145
   52MOL0     C 6771   4.966   5.925  11.402 -1.5514  0.8591 -0.3372
   52MOL0     C 6772   4.905   6.065  11.383  0.2311 -0.2098 -0.3229
   52MOL0     C 6773   4.911   6.158  11.514 -0.1244 -0.6815 -0.0102
   52MOL0     C 6774   4.853   6.305  11.491 -0.4350  0.1666 -0.3605
   52MOL0     C 6775   4.912   6.400  11.594  0.0017 -0.6840  0.4708
   52MOL0    Cl 6776   5.090   6.408  11.622 -0.4860 -0.5267  0.0453
   52MOL0     C 6777   5.137   5.654  10.832  0.0529  1.3290  0.3707
   52MOL0     C 6778   5.147   5.582  10.711  0.5784 -0.0103 -1.2908
   52MOL0     O 6779   4.915   5.457  10.475  0.3098  0.7114 -1.0887
   52MOL0     C 6780   4.997   5.312  10.246 -0.5478  0.9432  0.3283
   52MOL0     C 6781   5.061   5.260  10.132  0.1178  0.7116  0.1189
   52MOL0     N 6782   5.556   4.774   9.645  0.3556  0.8245 -0.1686
   52MOL0     N 6783   5.590   4.644   9.645 -1.0246 -0.9968 -0.0205
   52MOL0     C 6784   5.604   4.149  10.789  0.1221  0.1693 -0.1008
   52MOL0     C 6785   5.615   4.054  10.905  0.3048 -0.5301 -0.4161
   52MOL0     C 6786   5.700   3.632  11.060  0.6969 -0.3984  0.0267
   52MOL0     C 6787   5.822   3.623  11.127  0.7806 -0.6930 -0.0320
   52MOL0     C 6788   5.874   3.511  11.184 -0.9201  0.6864 -0.0453
   52MOL0     C 6789   5.803   3.394  11.171 -0.1154  0.0224 -1.3207
   52MOL0     O 6790   5.856   3.287  11.231 -0.8043 -0.3670 -0.1533
   52MOL0     C 6791   5.806   3.267  11.357  0.0998  0.0928 -1.1310
   52MOL0     C 6792   5.759   3.122  11.383 -0.3608 -0.3446  0.0574
   52MOL0     C 6793   5.694   3.118  11.532  0.3089 -0.9309  0.6946
   52MOL0     C 6794   5.662   2.974  11.560 -0.7741  1.2301  0.6418
   52MOL0     C 6795   5.787   2.890  11.549  0.1955  0.9388  0.4175
   52MOL0     C 6796   5.883   2.815  11.529 -0.1504 -0.9545  0.7424
   52MOL0     C 6797   5.677   3.394  11.105  0.0441  1.0630  0.1154
   52MOL0     C 6798   5.630   3.508  11.050  0.0623 -0.3685 -0.1441
   52MOL0     H 6799   5.843   3.852  10.761  0.4163  1.4491 -4.9192
   52MOL0     H 6800   5.829   4.008  10.585  1.0498  3.4763 -0.1170
   52MOL0     H 6801   5.775   4.145  10.424 -0.7776  1.1454 -2.5050
   52MOL0     H 6802   5.856   4.277  10.519 -0.5125  0.8287  1.4901
   52MOL0     H 6803   5.797   4.355  10.290  0.9245 -0.9979  0.8714
   52MOL0     H 6804   5.716   4.440  10.420  1.4585 -0.3137  1.4918
   52MOL0     H 6805   5.507   4.341  10.373 -1.8280 -2.1778 -1.2449
   52MOL0     H 6806   5.586   4.200  10.304 -1.0847  0.1211 -2.6037
   52MOL0     H 6807   5.581   4.482  10.191 -0.9335  1.2667 -3.5501
   52MOL0     H 6808   5.661   4.347  10.114  2.1022 -1.0405  3.5621
   52MOL0     H 6809   5.364   4.342  10.164  4.1075 -0.8831  4.8410
   52MOL0     H 6810   5.442   4.221  10.075 -3.5426 -0.6748 -4.0783
   52MOL0     H 6811   5.431   4.516   9.987  0.1860  0.0863 -1.5096
   52MOL0     H 6812   5.327   4.400   9.917  1.8190 -0.5473 -4.3525
   52MOL0     H 6813   5.617   4.390   9.877  0.2835  1.9757 -1.4848
   52MOL0     H 6814   5.512   4.261   9.836 -0.4761  0.1809  0.5730
   52MOL0     H 6815   5.380   4.401   9.683  0.1670 -1.1507  1.0792
   52MOL0     H 6816   5.547   4.390   9.632 -0.1402 -0.0637  1.1353
   52MOL0     H 6817   5.298   4.623   9.777  0.1138 -0.5190 -0.3650
   52MOL0     H 6818   5.246   4.867   9.610  0.1300  3.4972 -0.8963
   52MOL0     H 6819   5.373   4.982   9.606  0.6382  0.2038  0.8596
   52MOL0     H 6820   5.390   4.968   9.859 -0.8168  2.7588  0.1451
   52MOL0     H 6821   5.237   4.895   9.867  2.1119 -0.7448  2.0255
   52MOL0     H 6822   5.298   5.152   9.733  0.4767 -0.3457  0.7980
   52MOL0     H 6823   5.140   5.079   9.713 -1.2527  0.2839  0.8982
   52MOL0     H 6824   5.077   5.100   9.935 -0.1251  0.8987  2.7049
   52MOL0     H 6825   5.124   5.257   9.867 -2.6011 -1.0700  1.5767
   52MOL0     H 6826   5.381   5.272  10.210 -0.3664 -0.4010  2.3474
   52MOL0     H 6827   5.285   5.352  10.417  0.0394 -2.3333 -0.2328
   52MOL0     H 6828   4.957   5.319  10.787 -3.3997  0.7871 -1.0100
   52MOL0     H 6829   4.930   5.442  11.001  0.2830  1.6750  1.4765
   52MOL0     H 6830   5.048   5.528  11.168 -0.4654 -0.6947  0.3325
   52MOL0     H 6831   4.891   5.608  11.160  1.1060  0.1825 -2.7303
   52MOL0     H 6832   5.127   5.736  11.279 -0.1492 -0.2738  3.3334
   52MOL0     H 6833   4.993   5.666  11.381 -1.7860  2.0686  1.2405
   52MOL0     H 6834   4.837   5.823  11.274 -0.0770  2.2549  1.3282
   52MOL0     H 6835   4.974   5.901  11.187  1.4913  0.1456  0.2645
   52MOL0     H 6836   4.923   5.869  11.486 -5.5590 -0.3522 -2.9521
   52MOL0     H 6837   5.073   5.931  11.425 -1.5276 -0.2544 -0.1064
   52MOL0     H 6838   4.799   6.047  11.364  0.1614  1.6673 -2.1175
   52MOL0     H 6839   4.964   6.101  11.298 -0.2428 -2.0703 -1.4870
   52MOL0     H 6840   5.012   6.166  11.557  0.2793  0.7043 -1.1351
   52MOL0     H 6841   4.847   6.108  11.588  0.8584 -1.8405  0.1014
   52MOL0     H 6842   4.876   6.338  11.390  1.6884 -3.7513 -1.3873
   52MOL0     H 6843   4.745   6.306  11.507 -0.2216  2.1776  1.3040
   52MOL0     H 6844   4.866   6.359  11.684  3.3314 -1.5064  1.9451
   52MOL0     H 6845   4.872   6.500  11.579  0.5887 -0.3914  0.8368
   52MOL0     H 6846   5.185   5.750  10.852  0.1424  0.9197  2.3145
   52MOL0     H 6847   5.208   5.629  10.635  0.3890  1.0741 -0.7906
   52MOL0     H 6848   4.889   5.317  10.256 -0.3949  0.8327  2.5842
   52MOL0     H 6849   4.987   5.239  10.055  0.8862  0.7700 -0.6512
   52MOL0     H 6850   5.533   4.231  10.779 -1.0853 -0.7344  0.8271
   52MOL0     H 6851   5.551   4.052  10.992  0.6765  1.1635 -0.0677
   52MOL0     H 6852   5.880   3.714  11.136  0.1208 -0.4730  2.4860
   52MOL0     H 6853   5.953   3.526  11.256 -1.0017  1.1073 -0.0348
   52MOL0     H 6854   5.727   3.339  11.379  0.1826  0.5298 -2.2029
   52MOL0     H 6855   5.888   3.290  11.426  1.0507  1.2159 -2.5696
   52MOL0     H 6856   5.691   3.084  11.307  0.1775  0.1919 -0.6983
   52MOL0     H 6857   5.845   3.055  11.378  0.0633  0.1829  0.2404
   52MOL0     H 6858   5.605   3.181  11.529  1.7831  1.3008  1.1871
   52MOL0     H 6859   5.766   3.158  11.605  1.8553 -0.7282 -0.8669
   52MOL0     H 6860   5.629   2.973  11.664  1.6054  3.1858  1.5235
   52MOL0     H 6861   5.587   2.934  11.491  1.0689 -2.8523  0.7664
   52MOL0     H 6862   5.979   2.769  11.515  2.4174  3.6622  1.0539
   52MOL0     H 6863   5.627   3.300  11.083  1.1619  0.9788 -2.4694
   52MOL0     H 6864   5.537   3.499  10.994 -0.3324  1.1428  0.2355
   53MOL0     O 6865  11.289   3.909   5.811 -0.5884  0.1001  0.3779
   53MOL0     C 6866  11.196   3.935   5.893  0.0128  0.3866 -0.4060
   53MOL0     O 6867  11.209   4.001   6.013  0.4034 -0.0691 -0.1906
   53MOL0     C 6868  11.337   4.039   6.062 -0.7515  0.5617  0.1813
   53MOL0     C 6869  11.425   4.132   6.004 -0.4667 -0.6017 -0.2594
   53MOL0     C 6870  11.557   4.150   6.049  0.6242 -0.3444 -0.2687
   53MOL0     C 6871  11.598   4.081   6.155 -0.9725  0.8934  0.1933
   53MOL0     O 6872  11.728   4.116   6.192 -0.2066 -0.6310  0.4321
   53MOL0     C 6873  11.754   4.109   6.332  0.1828  0.2483 -0.5585
   53MOL0     C 6874  11.858   4.212   6.378 -0.9670  0.5727 -0.6938
   53MOL0     C 6875  11.988   4.196   6.299 -0.8161  0.3207  0.6184
   53MOL0     C 6876  12.038   4.055   6.281 -0.3823 -0.1251  0.8840
   53MOL0     C 6877  12.185   4.045   6.240 -0.3079 -0.2488 -0.0622
   53MOL0     C 6878  12.286   4.131   6.327  0.5744 -0.1186  0.7381
   53MOL0     C 6879  12.305   4.081   6.469  0.6912  0.5654  0.0707
   53MOL0     C 6880  12.340   3.927   6.481 -0.3678 -0.1595 -0.1027
   53MOL0     N 6881  12.460   3.885   6.402  0.2186 -0.3037  0.0608
   53MOL0     C 6882  12.473   3.771   6.317  0.4613  0.7415 -0.1430
   53MOL0     C 6883  12.605   3.759   6.295 -1.1741 -0.1697 -0.0669
   53MOL0     C 6884  12.663   3.663   6.188 -0.2234 -0.5371 -0.5432
   53MOL0     C 6885  12.791   3.717   6.124  0.7453  0.2803  0.6279
   53MOL0     C 6886  12.757   3.841   6.021  0.1348  0.2233 -0.1849
   53MOL0     C 6887  12.832   3.974   6.057  0.4224  0.7165  0.1861
   53MOL0     O 6888  12.973   3.956   6.038  0.1578  0.1877 -0.2657
   53MOL0     C 6889  13.050   4.048   6.103  0.1489  0.4816  0.1043
   53MOL0     C 6890  13.153   3.994   6.179 -0.4506  0.5677  0.5140
   53MOL0     C 6891  13.224   4.079   6.270 -0.8665  0.0031 -0.1477
   53MOL0     C 6892  13.193   4.218   6.283 -0.3832  0.5691  1.4273
   53MOL0     C 6893  13.270   4.312   6.370  0.0998 -0.1740 -0.3635
   53MOL0     O 6894  13.372   4.248   6.440 -0.9130  0.0527 -1.0972
   53MOL0     C 6895  13.459   4.312   6.524 -0.3634 -0.9263  0.0557
   53MOL0     C 6896  13.492   4.450   6.531 -0.4978  1.1984 -0.2604
   53MOL0     C 6897  13.594   4.490   6.617 -0.0461 -0.0813 -0.4613
   53MOL0     C 6898  13.670   4.408   6.700  0.6371 -0.1053  0.3438
   53MOL0     O 6899  13.761   4.452   6.796 -0.0218 -0.8479  0.2252
   53MOL0     C 6900  13.713   4.529   6.904 -0.0204 -0.6304 -0.2947
   53MOL0     C 6901  13.833   4.569   6.996 -0.4938 -0.2071 -0.2171
   53MOL0     C 6902  13.874   4.451   7.094  0.7308  0.2262  0.2255
   53MOL0     C 6903  13.981   4.366   7.031 -0.9916 -0.2660 -0.6466
   53MOL0     C 6904  14.023   4.244   7.117  0.1583 -0.6101 -0.4927
   53MOL0     C 6905  14.074   4.275   7.255 -0.0355 -0.4430 -0.7077
   53MOL0     C 6906  14.118   4.144   7.325 -0.2056  0.5380 -0.2434
   53MOL0     C 6907  14.203   4.162   7.454  0.5136  1.1356 -0.2591
   53MOL0    Cl 6908  14.100   4.205   7.594  0.1150  0.0279 -0.2159
   53MOL0     C 6909  13.624   4.281   6.711 -0.3576  0.5111  0.4409
   53MOL0     C 6910  13.524   4.233   6.625  0.6917  0.2660  0.7739
   53MOL0     O 6911  13.246   4.432   6.363 -0.5826  0.0129 -0.5726
   53MOL0     C 6912  13.090   4.270   6.200 -0.1475  0.0843 -0.0194
   53MOL0     C 6913  13.016   4.184   6.123 -0.5770  0.3535 -0.4707
   53MOL0     N 6914  12.670   3.850   6.370 -0.8767 -0.3665  0.0883
   53MOL0     N 6915  12.582   3.918   6.434 -0.1210  0.3993 -0.3643
   53MOL0     C 6916  11.520   3.980   6.215  1.1195 -0.2073 -0.0053
   53MOL0     C 6917  11.394   3.956   6.163  0.5074 -0.4111 -0.3391
   53MOL0     C 6918  11.067   3.886   5.844 -0.2954  0.5252  0.7452
   53MOL0     C 6919  11.044   3.761   5.785  0.5302 -0.7137 -0.3871
   53MOL0     C 6920  10.914   3.696   5.765  0.0602 -0.5617 -0.3242
   53MOL0     C 6921  10.798   3.782   5.784  0.4354 -0.0996 -1.1139
   53MOL0     O 6922  10.673   3.736   5.777  0.4709  0.4034  0.7662
   53MOL0     C 6923  10.639   3.605   5.718 -0.3321  0.3150  0.1138
   53MOL0     C 6924  10.485   3.583   5.712  0.9924  0.1653 -0.9048
   53MOL0     C 6925  10.414   3.584   5.843  0.0228  0.4125  0.1270
   53MOL0     C 6926  10.275   3.521   5.837  0.0286  0.4762 -0.2285
   53MOL0     C 6927  10.168   3.580   5.774  0.5748 -0.2212  0.3126
   53MOL0     C 6928  10.084   3.633   5.713 -0.0878 -0.3446 -0.8360
   53MOL0     C 6929  10.821   3.912   5.833 -0.1947 -0.4740  0.3821
   53MOL0     C 6930  10.948   3.961   5.870  0.5792  0.1744 -0.7733
   53MOL0     H 6931  11.383   4.196   5.927 -0.8606 -3.2995 -2.4558
   53MOL0     H 6932  11.623   4.227   6.010  0.2865 -0.4189 -1.0061
   53MOL0     H 6933  11.790   4.007   6.343  1.1290  0.7431  1.4378
   53MOL0     H 6934  11.668   4.130   6.397  1.1616 -0.4805  1.0332
   53MOL0     H 6935  11.875   4.196   6.485 -0.4340  0.6441 -0.7661
   53MOL0     H 6936  11.825   4.315   6.361  0.5808  0.9842 -1.4144
   53MOL0     H 6937  12.058   4.256   6.357 -1.0102 -0.1904  1.3868
   53MOL0     H 6938  11.973   4.245   6.202  4.1786  2.7741  0.7355
   53MOL0     H 6939  12.022   4.007   6.379 -3.2765  0.5459  0.8358
   53MOL0     H 6940  11.971   4.022   6.201 -0.9595 -0.3086  1.4268
   53MOL0     H 6941  12.196   4.098   6.145  1.5161  4.2374  2.3230
   53MOL0     H 6942  12.224   3.943   6.239  2.0701  0.4453  3.3897
   53MOL0     H 6943  12.259   4.237   6.320 -0.4042 -0.3044  1.5087
   53MOL0     H 6944  12.387   4.137   6.286  0.9217 -1.1409  1.4228
   53MOL0     H 6945  12.382   4.145   6.513  2.1104  0.1457 -1.7026
   53MOL0     H 6946  12.215   4.098   6.528  1.1962 -0.3887  1.1634
   53MOL0     H 6947  12.253   3.869   6.449 -0.7727  0.0408  0.6090
   53MOL0     H 6948  12.349   3.901   6.587  2.5213 -0.0712 -0.2312
   53MOL0     H 6949  12.395   3.715   6.267 -1.5655  4.4812 -1.5793
   53MOL0     H 6950  12.585   3.637   6.115 -0.7959 -0.7060  0.1174
   53MOL0     H 6951  12.694   3.571   6.239  1.1591 -0.6827 -1.5849
   53MOL0     H 6952  12.821   3.632   6.063 -1.0635 -2.5991  3.4659
   53MOL0     H 6953  12.867   3.736   6.201  2.2039 -1.4700 -0.3043
   53MOL0     H 6954  12.790   3.806   5.923  1.0741 -2.4816  1.0064
   53MOL0     H 6955  12.650   3.865   6.018  0.3433  1.7750  2.0138
   53MOL0     H 6956  12.808   3.994   6.161  0.1881  1.1246  0.0533
   53MOL0     H 6957  12.798   4.065   6.006  0.0103  2.1861  2.9265
   53MOL0     H 6958  13.169   3.886   6.181  1.4631  0.8155  0.0842
   53MOL0     H 6959  13.313   4.061   6.330  0.4604  0.0785 -2.0100
   53MOL0     H 6960  13.465   4.526   6.458 -0.7762 -1.6661 -3.3872
   53MOL0     H 6961  13.630   4.593   6.613  1.4651 -0.5945 -0.4890
   53MOL0     H 6962  13.644   4.466   6.960 -0.8298  0.5519  0.0634
   53MOL0     H 6963  13.660   4.622   6.884  1.4340  0.2487 -0.2212
   53MOL0     H 6964  13.814   4.660   7.052  0.1413 -1.0100  1.3512
   53MOL0     H 6965  13.915   4.597   6.929 -2.3430  3.8750 -1.0827
   53MOL0     H 6966  13.784   4.389   7.111  0.0296  0.9037 -0.9083
   53MOL0     H 6967  13.914   4.491   7.188 -1.4827 -2.5094  2.5615
   53MOL0     H 6968  13.964   4.327   6.930  0.9970  1.3179 -1.6836
   53MOL0     H 6969  14.075   4.423   7.030 -2.2535  1.9487  0.4478
   53MOL0     H 6970  14.103   4.197   7.060  0.3457  0.7673 -1.4155
   53MOL0     H 6971  13.941   4.173   7.128  1.0051 -1.4892  0.2248
   53MOL0     H 6972  13.990   4.317   7.310  1.0384 -1.6467  2.0044
   53MOL0     H 6973  14.153   4.351   7.252 -0.7008  0.4557  1.9452
   53MOL0     H 6974  14.029   4.083   7.340  0.2959 -0.4224 -1.0660
   53MOL0     H 6975  14.176   4.092   7.248 -0.0807 -1.7342  1.2851
   53MOL0     H 6976  14.294   4.221   7.441  2.8970 -2.5548 -2.3129
   53MOL0     H 6977  14.235   4.060   7.476 -1.5909  0.1867 -1.2524
   53MOL0     H 6978  13.659   4.210   6.785  1.5929 -0.9204 -1.6821
   53MOL0     H 6979  13.501   4.127   6.619  1.1967  0.1421  1.0127
   53MOL0     H 6980  13.072   4.376   6.218  0.2164 -0.2725  3.0899
   53MOL0     H 6981  12.929   4.226   6.073 -0.6400  0.3671 -0.3522
   53MOL0     H 6982  11.556   3.933   6.306 -0.0235  0.3316  0.7466
   53MOL0     H 6983  11.335   3.886   6.221  1.5294  0.0539  1.3373
   53MOL0     H 6984  11.123   3.696   5.750  0.3027 -0.2538 -1.8131
   53MOL0     H 6985  10.906   3.592   5.734  3.7093 -0.2545 -2.9826
   53MOL0     H 6986  10.690   3.521   5.765  0.7234 -1.6880 -4.1262
   53MOL0     H 6987  10.688   3.603   5.620 -2.3984  0.1140 -0.9608
   53MOL0     H 6988  10.442   3.664   5.653  1.4921 -0.4483 -2.1555
   53MOL0     H 6989  10.474   3.490   5.656 -2.5010  0.4200 -0.8011
   53MOL0     H 6990  10.404   3.685   5.884  4.5238  0.8394  0.6484
   53MOL0     H 6991  10.482   3.527   5.906  2.8981  0.0460 -3.0077
   53MOL0     H 6992  10.282   3.424   5.786  0.3051 -0.1587  0.9568
   53MOL0     H 6993  10.253   3.496   5.942 -0.7547  0.8518 -0.2989
   53MOL0     H 6994  10.017   3.671   5.639 -2.2422 -1.5906  0.3694
   53MOL0     H 6995  10.740   3.984   5.838 -1.4792 -1.8165 -0.3678
   53MOL0     H 6996  10.943   4.057   5.921 -0.4289 -0.4829  0.4309
   54MOL0     O 6997   8.378  10.264   7.006  0.2800  0.4169  0.2927
   54MOL0     C 6998   8.275  10.308   6.954  0.6838  0.2987  0.2022
   54MOL0     O 6999   8.265  10.437   6.904  0.3100 -0.1566  0.4794
   54MOL0     C 7000   8.376  10.499   6.849 -0.9318  1.5025 -1.4270
   54MOL0     C 7001   8.509  10.450   6.830  0.6398  0.3092  0.2947
   54MOL0     C 7002   8.600  10.535   6.767  0.7670 -0.6037 -0.3142
   54MOL0     C 7003   8.559  10.644   6.693  0.0502 -0.4682 -0.7870
   54MOL0     O 7004   8.663  10.691   6.609  0.0548  0.2512  0.5375
   54MOL0     C 7005   8.634  10.793   6.511  0.2917  0.0540  0.0960
   54MOL0     C 7006   8.754  10.865   6.470 -0.1475 -0.5354 -0.0764
   54MOL0     C 7007   8.744  10.962   6.350  0.7458 -0.0518 -0.1332
   54MOL0     C 7008   8.700  10.904   6.218  0.2373 -0.5804 -0.2827
   54MOL0     C 7009   8.733  11.000   6.103  0.5723 -0.9859 -0.6944
   54MOL0     C 7010   8.649  10.953   5.978 -0.0105 -0.3389 -1.0973
   54MOL0     C 7011   8.655  11.048   5.866 -0.3535 -0.6388  0.0728
   54MOL0     C 7012   8.541  11.025   5.756 -0.6773  0.6930 -0.0233
   54MOL0     N 7013   8.583  10.896   5.691  0.6414 -0.0432  0.6549
   54MOL0     C 7014   8.554  10.771   5.742  0.0327  0.1704  0.5470
   54MOL0     C 7015   8.593  10.693   5.633  0.5760  0.5562  0.8466
   54MOL0     C 7016   8.584  10.543   5.615  0.1863  0.4567 -0.2528
   54MOL0     C 7017   8.476  10.515   5.522  0.5685  0.3319  0.1868
   54MOL0     C 7018   8.434  10.372   5.526 -0.3141  0.8475  0.9748
   54MOL0     C 7019   8.342  10.334   5.397 -0.8770 -0.2951 -0.5353
   54MOL0     O 7020   8.327  10.191   5.391  0.0261 -0.5887  0.7370
   54MOL0     C 7021   8.226  10.146   5.316 -0.7920  1.1559  0.5809
   54MOL0     C 7022   8.167  10.223   5.208  0.1801  0.3451  1.0616
   54MOL0     C 7023   8.054  10.170   5.136 -1.1824  1.2487 -0.0767
   54MOL0     C 7024   8.007  10.037   5.155 -0.1323  0.4446  0.8814
   54MOL0     C 7025   7.901   9.980   5.073  0.2960 -0.3538 -0.8234
   54MOL0     O 7026   7.904   9.851   5.055 -0.2837  0.2792  0.2021
   54MOL0     C 7027   7.812   9.795   4.966  0.0968 -0.6445  0.0717
   54MOL0     C 7028   7.693   9.744   5.011 -0.0291 -0.5232 -0.6438
   54MOL0     C 7029   7.596   9.680   4.937  0.0306  0.0202 -1.0400
   54MOL0     C 7030   7.623   9.675   4.802  0.4841 -0.0480  1.0133
   54MOL0     O 7031   7.534   9.603   4.729  0.5023  0.0803 -0.3746
   54MOL0     C 7032   7.522   9.633   4.585 -1.1081 -0.8735 -1.3188
   54MOL0     C 7033   7.485   9.774   4.546  0.4225  0.8372  0.8575
   54MOL0     C 7034   7.342   9.808   4.601  1.5470  0.2857 -0.1484
   54MOL0     C 7035   7.278   9.938   4.526 -1.0601  1.0808 -0.5284
   54MOL0     C 7036   7.150   9.976   4.609 -1.1606 -0.1380 -0.1951
   54MOL0     C 7037   7.052   9.861   4.623 -0.8053  0.4552  1.0045
   54MOL0     C 7038   6.912   9.898   4.689  0.3017 -0.3046  0.3456
   54MOL0     C 7039   6.833   9.780   4.749 -0.3939 -0.2489 -0.0195
   54MOL0    Cl 7040   6.761   9.707   4.606  0.0790  0.6630  0.1250
   54MOL0     C 7041   7.735   9.742   4.749 -0.2297 -0.2463  0.1118
   54MOL0     C 7042   7.833   9.800   4.831  0.0222  0.0423 -0.5676
   54MOL0     O 7043   7.810  10.053   5.033  0.6301  0.1997  0.4888
   54MOL0     C 7044   8.085   9.956   5.235 -0.2326 -0.3322 -1.3038
   54MOL0     C 7045   8.187  10.009   5.319 -0.9123  0.3288  0.0843
   54MOL0     N 7046   8.636  10.771   5.528  0.7897 -0.0615 -0.4416
   54MOL0     N 7047   8.628  10.889   5.564 -0.3042 -0.1676 -0.6354
   54MOL0     C 7048   8.425  10.695   6.706  0.2350  0.7338 -0.1024
   54MOL0     C 7049   8.339  10.621   6.783  0.2655 -0.8835  0.3417
   54MOL0     C 7050   8.160  10.215   6.934 -0.4883  0.1193  0.0128
   54MOL0     C 7051   8.181  10.082   6.920  0.2173 -1.3249 -0.2482
   54MOL0     C 7052   8.077   9.993   6.890 -0.0270 -0.0911 -0.3419
   54MOL0     C 7053   7.949  10.045   6.899 -0.5500  0.1123  0.7690
   54MOL0     O 7054   7.839   9.962   6.897  0.1462 -0.3291  0.1129
   54MOL0     C 7055   7.850   9.821   6.892  1.1993 -0.9381 -0.9374
   54MOL0     C 7056   7.718   9.740   6.900 -0.3810 -0.3712  1.2910
   54MOL0     C 7057   7.675   9.737   7.043 -0.1436 -0.1248 -0.0235
   54MOL0     C 7058   7.520   9.704   7.053 -0.8650  0.0422  0.5279
   54MOL0     C 7059   7.484   9.573   6.997  0.5795  0.1956 -1.0039
   54MOL0     C 7060   7.479   9.472   6.926  0.2403  0.5315  0.1883
   54MOL0     C 7061   7.932  10.189   6.923  0.0987 -0.5424  0.8592
   54MOL0     C 7062   8.039  10.270   6.933  0.5149 -0.3881 -0.2039
   54MOL0     H 7063   8.546  10.353   6.861  0.6235 -0.2354 -1.2999
   54MOL0     H 7064   8.703  10.500   6.760  0.2532 -2.6858  1.4536
   54MOL0     H 7065   8.562  10.864   6.553  0.6010  1.3702 -1.5061
   54MOL0     H 7066   8.585  10.732   6.435  0.2016 -0.2887  0.4251
   54MOL0     H 7067   8.818  10.780   6.444  0.3391  0.0373 -0.7721
   54MOL0     H 7068   8.789  10.923   6.556  0.9146 -1.2301 -0.0247
   54MOL0     H 7069   8.839  11.016   6.348 -1.2126  4.1037  2.8408
   54MOL0     H 7070   8.679  11.047   6.374  1.8738  0.1433  2.6503
   54MOL0     H 7071   8.748  10.805   6.213 -0.3904 -1.1643  3.1147
   54MOL0     H 7072   8.591  10.897   6.223  0.1533  1.3099  2.4166
   54MOL0     H 7073   8.841  10.999   6.083  0.9486 -0.9839  1.1759
   54MOL0     H 7074   8.705  11.101   6.134 -0.2581 -1.7517  1.1874
   54MOL0     H 7075   8.543  10.938   5.998  0.3243 -0.8164  0.4941
   54MOL0     H 7076   8.679  10.852   5.948  1.4639 -0.4204  0.4605
   54MOL0     H 7077   8.649  11.153   5.897 -1.6402 -0.7091  0.1086
   54MOL0     H 7078   8.755  11.034   5.824 -0.0832 -0.0861  0.5137
   54MOL0     H 7079   8.544  11.105   5.681 -0.6154  1.4816  0.7879
   54MOL0     H 7080   8.443  11.017   5.802  0.1978 -0.0404  1.8253
   54MOL0     H 7081   8.499  10.744   5.831 -2.8988  0.3201 -1.0674
   54MOL0     H 7082   8.563  10.497   5.712  2.0409 -0.0851 -0.0693
   54MOL0     H 7083   8.679  10.508   5.575 -0.0866 -1.1864  0.4667
   54MOL0     H 7084   8.499  10.546   5.419 -4.2525 -0.6236 -1.4456
   54MOL0     H 7085   8.393  10.577   5.555 -1.5213 -2.8452  1.3449
   54MOL0     H 7086   8.533  10.328   5.507  0.3649  2.8794 -0.5603
   54MOL0     H 7087   8.390  10.335   5.619 -1.0439 -0.6180  0.0848
   54MOL0     H 7088   8.375  10.370   5.299  2.9236  1.1660  1.0781
   54MOL0     H 7089   8.247  10.385   5.416 -1.2788 -1.3134  0.2781
   54MOL0     H 7090   8.195  10.324   5.180  0.2036 -0.3021 -1.4454
   54MOL0     H 7091   7.995  10.230   5.067 -0.3805  0.4901 -1.4818
   54MOL0     H 7092   7.685   9.755   5.119  2.2889 -2.8062 -0.1500
   54MOL0     H 7093   7.502   9.651   4.981 -1.2997  1.9360 -2.4570
   54MOL0     H 7094   7.455   9.560   4.540 -4.1965 -0.1936  1.7194
   54MOL0     H 7095   7.623   9.605   4.552  0.5832  0.6259  2.0601
   54MOL0     H 7096   7.494   9.777   4.437  0.4595  2.3815  0.8848
   54MOL0     H 7097   7.556   9.850   4.580 -1.4217  1.0211  4.7434
   54MOL0     H 7098   7.335   9.818   4.710  0.6438 -0.9727 -0.0617
   54MOL0     H 7099   7.276   9.722   4.585  0.2133  0.7055  2.4271
   54MOL0     H 7100   7.348  10.020   4.539 -2.4729  2.0832  1.2787
   54MOL0     H 7101   7.261   9.914   4.420 -2.5215 -0.6866  0.0477
   54MOL0     H 7102   7.102  10.062   4.560  1.3472  0.6415 -1.4499
   54MOL0     H 7103   7.181  10.011   4.708 -1.8390  0.3921 -0.1583
   54MOL0     H 7104   7.098   9.785   4.686  2.7676 -0.4759 -2.3787
   54MOL0     H 7105   7.033   9.817   4.525 -0.2084 -1.2915  1.6438
   54MOL0     H 7106   6.951   9.964   4.766 -0.7398  2.8369 -1.6432
   54MOL0     H 7107   6.850   9.956   4.620 -1.0281 -1.0367  0.8815
   54MOL0     H 7108   6.766   9.827   4.822  2.2252  3.0290  0.4955
   54MOL0     H 7109   6.897   9.707   4.798 -2.0169 -0.9557  1.1396
   54MOL0     H 7110   7.742   9.767   4.643 -1.7286  3.8045  0.8012
   54MOL0     H 7111   7.921   9.848   4.789 -1.0171  1.7967 -0.8477
   54MOL0     H 7112   8.040   9.858   5.244 -3.0665  1.0764  2.5432
   54MOL0     H 7113   8.242   9.955   5.396  0.4929  2.1971  0.4515
   54MOL0     H 7114   8.383  10.782   6.657 -3.1066 -0.5317  0.2428
   54MOL0     H 7115   8.247  10.680   6.784  0.5237 -0.3737 -1.6810
   54MOL0     H 7116   8.285  10.057   6.938  1.6486  2.3720 -2.3220
   54MOL0     H 7117   8.107   9.890   6.875  1.4711  0.6287 -2.7849
   54MOL0     H 7118   7.916   9.781   6.969  0.7310  0.0021 -0.0189
   54MOL0     H 7119   7.892   9.785   6.798  1.0756 -0.3091 -1.2396
   54MOL0     H 7120   7.636   9.784   6.843  0.7549  1.1901  0.7998
   54MOL0     H 7121   7.733   9.641   6.857 -2.2120  0.0675 -0.5267
   54MOL0     H 7122   7.708   9.829   7.091  2.1818  0.6468 -2.8079
   54MOL0     H 7123   7.736   9.660   7.092 -1.3225 -1.9568 -1.3457
   54MOL0     H 7124   7.498   9.699   7.160  0.0435 -0.3397  0.7048
   54MOL0     H 7125   7.454   9.784   7.019 -1.7960 -1.4253 -1.2293
   54MOL0     H 7126   7.487   9.390   6.858  0.0104  2.6488 -2.5785
   54MOL0     H 7127   7.833  10.231   6.924 -0.4063 -1.6885  1.0003
   54MOL0     H 7128   8.019  10.377   6.928  1.1062 -0.2754 -0.2606
   55MOL0     O 7129   1.486   9.154   3.653 -0.1660 -0.1933  0.4345
   55MOL0     C 7130   1.575   9.133   3.573 -1.0065  0.4422  0.1479
   55MOL0     O 7131   1.673   9.036   3.583  0.5756  0.1614  0.2634
   55MOL0     C 7132   1.658   8.964   3.699 -0.3093 -0.2375 -0.7652
   55MOL0     C 7133   1.572   8.857   3.702 -0.2129 -0.5302  0.7918
   55MOL0     C 7134   1.552   8.785   3.826 -0.7193  0.1517 -0.9480
   55MOL0     C 7135   1.615   8.824   3.954  0.8464  1.0455  0.5802
   55MOL0     O 7136   1.609   8.749   4.071 -0.4684 -0.3261  0.1492
   55MOL0     C 7137   1.501   8.661   4.096  0.5024 -0.1892  1.0126
   55MOL0     C 7138   1.555   8.533   4.170  0.6575 -0.7496 -0.2962
   55MOL0     C 7139   1.447   8.495   4.269  1.5654 -0.1315  0.0261
   55MOL0     C 7140   1.338   8.408   4.199  0.2919  0.1282 -0.5964
   55MOL0     C 7141   1.241   8.352   4.297  0.3445 -0.2229 -0.3043
   55MOL0     C 7142   1.159   8.246   4.216 -0.1932 -0.2214 -0.2061
   55MOL0     C 7143   1.045   8.184   4.307 -0.2313 -0.1039 -0.1783
   55MOL0     C 7144   0.977   8.057   4.239  0.0967 -0.3276 -0.5420
   55MOL0     N 7145   1.060   7.938   4.237 -0.0723 -0.5806  0.2175
   55MOL0     C 7146   1.127   7.894   4.131  0.2734 -0.1280  1.2430
   55MOL0     C 7147   1.208   7.799   4.171 -0.1806  0.2675  0.4010
   55MOL0     C 7148   1.316   7.736   4.103  0.1927  0.5043  0.1373
   55MOL0     C 7149   1.442   7.821   4.099 -0.1296 -0.9265  0.2402
   55MOL0     C 7150   1.514   7.803   4.237  0.5630  0.5392 -0.4223
   55MOL0     C 7151   1.649   7.866   4.227  0.1825  0.0191 -0.0623
   55MOL0     O 7152   1.647   8.007   4.190  0.3278 -0.3682  0.5718
   55MOL0     C 7153   1.768   8.063   4.146 -0.5560 -0.7744 -1.0475
   55MOL0     C 7154   1.898   8.008   4.141 -0.1302  0.0767  0.4196
   55MOL0     C 7155   2.001   8.083   4.093 -0.4573 -0.8828 -0.2808
   55MOL0     C 7156   1.982   8.219   4.050 -0.7827 -0.7626  0.0172
   55MOL0     C 7157   2.088   8.297   3.991 -0.0645 -0.1715  1.1688
   55MOL0     O 7158   2.205   8.262   4.032  0.2313  0.1033 -0.4867
   55MOL0     C 7159   2.308   8.354   4.024 -0.1160  0.4506 -0.5007
   55MOL0     C 7160   2.390   8.365   3.914 -0.0147  0.3972 -0.7702
   55MOL0     C 7161   2.482   8.469   3.907 -0.0390 -0.1613  0.2983
   55MOL0     C 7162   2.494   8.565   4.006  1.4362  0.0161  0.1353
   55MOL0     O 7163   2.595   8.645   3.986  0.0444 -0.7687  0.7457
   55MOL0     C 7164   2.675   8.668   4.103  0.3497 -0.3995 -0.0868
   55MOL0     C 7165   2.638   8.804   4.167 -0.4916  0.3110 -0.3313
   55MOL0     C 7166   2.713   8.829   4.294  0.6400  0.0832  0.4732
   55MOL0     C 7167   2.679   8.976   4.327 -0.5262  0.2183  1.3033
   55MOL0     C 7168   2.701   9.006   4.471 -0.3819 -0.4543  1.2476
   55MOL0     C 7169   2.833   8.968   4.529 -0.3127 -0.3425  0.6025
   55MOL0     C 7170   2.886   9.071   4.630 -0.5590 -0.5028 -0.1182
   55MOL0     C 7171   3.021   9.038   4.693 -0.5039  0.5794  1.5069
   55MOL0    Cl 7172   3.148   9.025   4.569 -0.2363 -0.4041 -0.2831
   55MOL0     C 7173   2.420   8.542   4.119 -0.0065 -0.3088  0.5436
   55MOL0     C 7174   2.332   8.443   4.135  1.0076  0.3863  0.5934
   55MOL0     O 7175   2.056   8.395   3.919  0.4959  0.1344  0.6276
   55MOL0     C 7176   1.861   8.273   4.065  0.2893  0.1740 -0.9756
   55MOL0     C 7177   1.751   8.202   4.116  0.5366  0.4782 -0.1615
   55MOL0     N 7178   1.207   7.800   4.313  0.2530  0.7564  0.8706
   55MOL0     N 7179   1.105   7.871   4.345  0.0057 -0.0283 -0.4320
   55MOL0     C 7180   1.706   8.930   3.931 -0.2349 -0.8509 -0.7188
   55MOL0     C 7181   1.730   9.004   3.812  0.3491  0.5270  0.2266
   55MOL0     C 7182   1.576   9.194   3.432  0.3698 -1.0478 -0.1059
   55MOL0     C 7183   1.454   9.226   3.361 -0.1498 -0.0781 -0.8266
   55MOL0     C 7184   1.454   9.290   3.246  1.0305  0.1747  0.4172
   55MOL0     C 7185   1.573   9.321   3.183  0.2975 -0.2922  0.8222
   55MOL0     O 7186   1.581   9.393   3.064  0.2906 -0.7474  0.3075
   55MOL0     C 7187   1.460   9.459   3.016  0.3973  0.5630  1.0586
   55MOL0     C 7188   1.481   9.536   2.886  0.2282 -0.6238 -0.7601
   55MOL0     C 7189   1.343   9.594   2.849 -0.3723  0.6629 -0.5671
   55MOL0     C 7190   1.250   9.490   2.789  0.7455 -0.7737  0.0475
   55MOL0     C 7191   1.160   9.453   2.899 -0.0910 -0.0249 -0.0414
   55MOL0     C 7192   1.095   9.446   2.997  0.4557 -0.3913  0.0390
   55MOL0     C 7193   1.696   9.297   3.250 -0.0228  0.8247  0.4458
   55MOL0     C 7194   1.702   9.235   3.378  0.3757  0.7150  0.1892
   55MOL0     H 7195   1.517   8.828   3.613 -2.0878 -3.4178  2.7090
   55MOL0     H 7196   1.480   8.706   3.815 -1.7201  0.6609  1.3894
   55MOL0     H 7197   1.453   8.617   4.008 -2.0751 -0.8931  2.6659
   55MOL0     H 7198   1.419   8.712   4.146 -1.8951 -3.2786  0.5611
   55MOL0     H 7199   1.643   8.576   4.218 -0.9275  2.2256  0.1484
   55MOL0     H 7200   1.579   8.454   4.099 -2.7328 -3.7918  1.5614
   55MOL0     H 7201   1.395   8.579   4.316  1.2824  0.4336 -1.2372
   55MOL0     H 7202   1.476   8.437   4.357 -2.5683 -2.2089  0.2366
   55MOL0     H 7203   1.284   8.465   4.122  2.0929  0.8674 -1.3685
   55MOL0     H 7204   1.385   8.322   4.150  0.8219  0.8214 -1.3428
   55MOL0     H 7205   1.175   8.436   4.322 -0.8535 -1.8139  2.1467
   55MOL0     H 7206   1.281   8.303   4.386 -0.0185 -1.3343 -0.7425
   55MOL0     H 7207   1.215   8.165   4.168  2.6854  1.0008  0.8824
   55MOL0     H 7208   1.114   8.298   4.132 -1.1314 -0.5264  0.0972
   55MOL0     H 7209   1.096   8.159   4.400 -0.2029 -2.0423 -0.6592
   55MOL0     H 7210   0.968   8.260   4.323 -1.2227 -1.1897  0.3630
   55MOL0     H 7211   0.956   8.079   4.134 -0.9039 -1.3519 -0.5740
   55MOL0     H 7212   0.880   8.031   4.283  1.7291 -0.7390  3.1450
   55MOL0     H 7213   1.103   7.935   4.033  1.0482  2.7962  2.1496
   55MOL0     H 7214   1.272   7.696   4.011 -1.3432 -1.8210  1.7614
   55MOL0     H 7215   1.334   7.643   4.158  0.1250 -0.0564 -0.7566
   55MOL0     H 7216   1.437   7.928   4.082  3.2713 -0.9896 -1.9934
   55MOL0     H 7217   1.506   7.791   4.017  0.7069  1.2059  0.0582
   55MOL0     H 7218   1.440   7.826   4.315 -2.4308 -2.6915 -2.0594
   55MOL0     H 7219   1.532   7.695   4.241 -0.3129  0.3875 -0.4720
   55MOL0     H 7220   1.712   7.818   4.151  0.5915 -0.6076  0.6578
   55MOL0     H 7221   1.699   7.838   4.320 -2.5481 -2.7620  0.6886
   55MOL0     H 7222   1.925   7.911   4.180 -3.3927 -1.5224 -0.8768
   55MOL0     H 7223   2.104   8.049   4.082 -0.2589 -0.7329  0.9688
   55MOL0     H 7224   2.394   8.292   3.833  5.2730 -0.2353 -0.3015
   55MOL0     H 7225   2.538   8.470   3.814 -1.8482  1.9563 -0.8650
   55MOL0     H 7226   2.780   8.682   4.075  0.9346 -1.3275  1.4566
   55MOL0     H 7227   2.656   8.607   4.192 -0.1780  1.5554  1.1979
   55MOL0     H 7228   2.529   8.813   4.170 -0.5610  2.3287 -3.4751
   55MOL0     H 7229   2.657   8.871   4.082 -3.5375  0.5459 -0.9373
   55MOL0     H 7230   2.821   8.817   4.279  1.3184  1.5091  3.4322
   55MOL0     H 7231   2.680   8.754   4.366 -0.4484 -0.6777 -0.7784
   55MOL0     H 7232   2.742   9.046   4.270 -0.3218 -0.6844  0.4028
   55MOL0     H 7233   2.574   9.000   4.308 -0.8490 -2.0031  0.0008
   55MOL0     H 7234   2.623   8.946   4.519 -0.9242  2.2135  3.9518
   55MOL0     H 7235   2.693   9.113   4.490  1.6189 -0.6817  4.0236
   55MOL0     H 7236   2.912   8.954   4.454 -0.9515  0.4189 -0.2369
   55MOL0     H 7237   2.827   8.867   4.571 -3.6076 -0.6600 -0.3197
   55MOL0     H 7238   2.878   9.173   4.591 -2.9530 -0.3099  0.7055
   55MOL0     H 7239   2.821   9.066   4.718  2.8223  1.2819  2.7194
   55MOL0     H 7240   3.030   8.934   4.725  1.0472  0.3117  0.3248
   55MOL0     H 7241   3.055   9.114   4.765 -0.2170  2.9827 -1.0049
   55MOL0     H 7242   2.425   8.614   4.200  2.4675  0.6104 -0.3291
   55MOL0     H 7243   2.264   8.441   4.220 -1.0977 -0.3989 -1.0166
   55MOL0     H 7244   1.840   8.371   4.023 -2.1755 -0.2411 -0.8452
   55MOL0     H 7245   1.652   8.244   4.130  0.0513 -0.6457 -0.1273
   55MOL0     H 7246   1.763   8.973   4.013  1.9031 -0.1670 -2.4659
   55MOL0     H 7247   1.789   9.095   3.802 -0.4622  1.0692  0.2847
   55MOL0     H 7248   1.358   9.201   3.404  0.4168  0.4950  0.8696
   55MOL0     H 7249   1.357   9.310   3.201  0.4049  1.5023  2.2543
   55MOL0     H 7250   1.426   9.535   3.087 -0.7599  0.5167  0.5767
   55MOL0     H 7251   1.390   9.377   3.000  1.5731 -0.2887  0.0786
   55MOL0     H 7252   1.552   9.616   2.906 -2.3214  1.8600 -1.0172
   55MOL0     H 7253   1.517   9.471   2.806 -3.5907 -1.1564 -2.2888
   55MOL0     H 7254   1.367   9.681   2.786  0.8323  0.8545  0.1227
   55MOL0     H 7255   1.294   9.647   2.931 -0.0269  0.5759 -0.3040
   55MOL0     H 7256   1.199   9.534   2.703 -2.9956 -1.9657  1.4256
   55MOL0     H 7257   1.301   9.398   2.759  0.9299 -0.9883  0.9643
   55MOL0     H 7258   1.054   9.424   3.094  1.9890  0.0098  0.8141
   55MOL0     H 7259   1.793   9.320   3.208  0.6093  0.3954  1.6231
   55MOL0     H 7260   1.799   9.227   3.425  1.6624  1.9231 -2.0922
   56MOL0     O 7261   0.601   6.703   8.069 -0.1850  1.4516  0.2690
   56MOL0     C 7262   0.495   6.641   8.061 -0.4004 -0.6137  0.0883
   56MOL0     O 7263   0.407   6.625   8.161 -0.0930  0.2125 -0.7561
   56MOL0     C 7264   0.428   6.699   8.273 -0.9504 -0.7274 -0.5192
   56MOL0     C 7265   0.522   6.660   8.362  0.4543 -0.1188  0.3613
   56MOL0     C 7266   0.571   6.742   8.463  0.7832  0.2594 -1.6178
   56MOL0     C 7267   0.516   6.871   8.477 -0.4196  0.0611 -0.5674
   56MOL0     O 7268   0.560   6.971   8.568  0.2799  1.3175 -0.1953
   56MOL0     C 7269   0.609   6.927   8.696  0.5641  0.8581  1.1012
   56MOL0     C 7270   0.601   7.043   8.798  0.1247  0.4377  0.6094
   56MOL0     C 7271   0.618   7.012   8.941 -0.3036  0.3425 -1.1974
   56MOL0     C 7272   0.742   6.934   8.978 -0.2757  0.6187 -0.0423
   56MOL0     C 7273   0.766   6.924   9.125  0.8758 -0.2235  0.2307
   56MOL0     C 7274   0.682   6.812   9.194 -0.7714 -0.7381  0.4907
   56MOL0     C 7275   0.695   6.828   9.345 -0.4539  0.1436  0.7450
   56MOL0     C 7276   0.829   6.804   9.410 -0.2159 -0.2901  0.4157
   56MOL0     N 7277   0.830   6.821   9.553 -0.2717 -0.2556  0.0569
   56MOL0     C 7278   0.842   6.951   9.614 -0.2481 -1.3957 -0.1639
   56MOL0     C 7279   0.880   6.914   9.745  0.5349  1.3744  0.5692
   56MOL0     C 7280   0.942   6.994   9.849 -0.3730 -1.0433  0.0062
   56MOL0     C 7281   0.849   7.086   9.926 -0.9918  1.1894 -0.8156
   56MOL0     C 7282   0.729   7.013   9.982 -0.5075  0.2446  0.1592
   56MOL0     C 7283   0.671   7.101  10.094 -0.3434 -1.0237  0.9476
   56MOL0     O 7284   0.556   7.040  10.151 -0.1362  0.5521 -0.6962
   56MOL0     C 7285   0.510   7.108  10.260 -0.4767  0.6333 -0.4216
   56MOL0     C 7286   0.434   7.218  10.244 -0.3046  0.3304  0.2897
   56MOL0     C 7287   0.380   7.287  10.353  0.3635 -0.4263  0.9910
   56MOL0     C 7288   0.400   7.246  10.486  0.1457 -0.0411 -0.6891
   56MOL0     C 7289   0.354   7.323  10.600 -0.3311  0.1338  1.2829
   56MOL0     O 7290   0.391   7.281  10.715 -0.8910 -0.2112 -0.1305
   56MOL0     C 7291   0.348   7.364  10.819  0.3855  0.2012  0.3842
   56MOL0     C 7292   0.221   7.345  10.880  0.2902  0.4621 -0.7109
   56MOL0     C 7293   0.193   7.408  11.001 -0.9467  0.3025 -0.5086
   56MOL0     C 7294   0.279   7.510  11.055  0.4721  0.3443 -1.5703
   56MOL0     O 7295   0.235   7.568  11.169 -0.6922 -0.6701 -0.2329
   56MOL0     C 7296   0.309   7.675  11.223 -0.1438 -0.0414 -0.3686
   56MOL0     C 7297   0.248   7.731  11.350  0.7668  0.1260 -0.6821
   56MOL0     C 7298   0.113   7.803  11.336  0.3370  0.6639  0.4077
   56MOL0     C 7299   0.051   7.815  11.472 -0.6860  0.7785  0.1862
   56MOL0     C 7300  -0.094   7.862  11.465  1.1937 -0.2076  0.1955
   56MOL0     C 7301  -0.152   7.918  11.601 -1.0377  0.8455 -0.1833
   56MOL0     C 7302  -0.301   7.945  11.601 -1.2403  0.3048  0.8417
   56MOL0     C 7303  -0.384   7.821  11.583  1.0781  0.0097 -0.3103
   56MOL0    Cl 7304  -0.359   7.704  11.716 -0.2840  0.3411  0.0848
   56MOL0     C 7305   0.406   7.533  10.992  0.9246 -0.2272  0.7322
   56MOL0     C 7306   0.439   7.456  10.869  0.5346 -0.1083  0.4912
   56MOL0     O 7307   0.298   7.432  10.571  0.0462  0.4877  0.5437
   56MOL0     C 7308   0.482   7.131  10.498  0.0503  0.7070 -0.4083
   56MOL0     C 7309   0.545   7.069  10.393  0.2226  0.0347 -0.2558
   56MOL0     N 7310   0.854   6.769   9.751  0.0602  0.3600  0.2993
   56MOL0     N 7311   0.835   6.714   9.633  0.1956 -1.0835 -0.9028
   56MOL0     C 7312   0.426   6.903   8.380  0.3431 -0.2649  0.0749
   56MOL0     C 7313   0.382   6.824   8.283  1.3907 -0.0171  0.5915
   56MOL0     C 7314   0.466   6.578   7.930 -0.7839 -0.0355  0.1934
   56MOL0     C 7315   0.558   6.590   7.827 -0.7574  0.5592  0.6844
   56MOL0     C 7316   0.540   6.530   7.702 -0.0726 -0.5334  0.9299
   56MOL0     C 7317   0.431   6.452   7.678 -1.1711  0.6771 -0.2788
   56MOL0     O 7318   0.420   6.403   7.546 -0.8134  0.0811 -0.0326
   56MOL0     C 7319   0.302   6.321   7.517  0.4133  0.2615  0.2112
   56MOL0     C 7320   0.304   6.265   7.382 -0.6149 -0.7882  0.5325
   56MOL0     C 7321   0.314   6.377   7.273 -0.4810  0.2795 -0.9565
   56MOL0     C 7322   0.185   6.454   7.257  0.1191 -0.7745 -0.3518
   56MOL0     C 7323   0.075   6.367   7.230  0.6141 -0.1348  0.0535
   56MOL0     C 7324  -0.017   6.294   7.209  1.1006  0.7304 -0.8228
   56MOL0     C 7325   0.338   6.436   7.779 -0.8004 -0.3496 -0.4284
   56MOL0     C 7326   0.351   6.501   7.906 -0.3800  0.1672  0.6360
   56MOL0     H 7327   0.560   6.560   8.341  0.9283  0.9818 -5.6768
   56MOL0     H 7328   0.651   6.723   8.534 -1.2114  2.7787  1.6546
   56MOL0     H 7329   0.707   6.881   8.680 -1.2014 -2.6127 -0.9744
   56MOL0     H 7330   0.537   6.856   8.739  0.9553  1.4344  2.7882
   56MOL0     H 7331   0.508   7.093   8.769  1.5213  1.0835 -3.3734
   56MOL0     H 7332   0.685   7.110   8.775 -0.9391  1.0536 -1.7688
   56MOL0     H 7333   0.535   6.950   8.976 -0.7284  2.4926  2.0383
   56MOL0     H 7334   0.617   7.100   9.006  1.9343 -0.7125  0.4376
   56MOL0     H 7335   0.746   6.832   8.940  0.8804  1.3686 -2.1430
   56MOL0     H 7336   0.828   6.987   8.936  0.2506 -0.2475 -0.0811
   56MOL0     H 7337   0.751   7.020   9.176  1.4229 -0.1931  0.3458
   56MOL0     H 7338   0.869   6.889   9.141  0.4905 -0.9281  1.2576
   56MOL0     H 7339   0.721   6.714   9.163 -1.2070 -1.0443  0.9024
   56MOL0     H 7340   0.576   6.814   9.169 -1.3548 -1.1525  2.7245
   56MOL0     H 7341   0.662   6.929   9.372  2.1102  0.7061  2.1710
   56MOL0     H 7342   0.624   6.766   9.400 -1.3233  2.2460  2.1228
   56MOL0     H 7343   0.905   6.861   9.355  0.5053 -0.7269  0.9441
   56MOL0     H 7344   0.855   6.699   9.398 -1.0130 -0.3036 -1.5175
   56MOL0     H 7345   0.847   7.047   9.563 -4.0383  1.7480  4.5254
   56MOL0     H 7346   1.003   7.069   9.797 -1.4711  0.7742  1.2260
   56MOL0     H 7347   1.008   6.936   9.914 -0.1439 -0.6138  0.1610
   56MOL0     H 7348   0.813   7.175   9.875 -1.0846  2.6983  1.6968
   56MOL0     H 7349   0.917   7.115  10.007  1.0857 -1.2532 -1.5497
   56MOL0     H 7350   0.643   6.993   9.918  0.2970 -0.7378 -0.6581
   56MOL0     H 7351   0.764   6.915  10.015 -0.9299  1.0465  3.3779
   56MOL0     H 7352   0.652   7.200  10.053  1.4947 -2.2051 -3.2787
   56MOL0     H 7353   0.746   7.116  10.173  0.7219  3.0250 -0.6061
   56MOL0     H 7354   0.412   7.252  10.143 -3.8508  0.1153  0.8677
   56MOL0     H 7355   0.322   7.377  10.340  1.7082  1.4025  5.7764
   56MOL0     H 7356   0.149   7.281  10.830  2.2232 -2.8874  0.4942
   56MOL0     H 7357   0.104   7.391  11.061  1.1885 -3.1966  2.0566
   56MOL0     H 7358   0.323   7.753  11.147 -2.0412  1.4720  0.7509
   56MOL0     H 7359   0.409   7.645  11.256 -0.1582 -0.6662 -0.8640
   56MOL0     H 7360   0.314   7.807  11.392  1.1733  1.2665 -3.1857
   56MOL0     H 7361   0.235   7.655  11.427  2.3029  1.6705  1.1752
   56MOL0     H 7362   0.047   7.766  11.257 -0.2044  3.2622 -0.4874
   56MOL0     H 7363   0.138   7.907  11.312  0.4288  1.4326  3.3651
   56MOL0     H 7364   0.065   7.718  11.521  1.6933  0.5026 -0.9200
   56MOL0     H 7365   0.112   7.889  11.524  0.6980  0.1274 -0.4830
   56MOL0     H 7366  -0.151   7.773  11.438  0.7524 -0.2342  1.1600
   56MOL0     H 7367  -0.110   7.939  11.388  0.1653 -0.3299  0.2760
   56MOL0     H 7368  -0.107   8.013  11.630 -0.1403  0.2748  0.3347
   56MOL0     H 7369  -0.119   7.853  11.683  0.5936  3.0302  0.9837
   56MOL0     H 7370  -0.332   7.985  11.699  1.8520 -0.3556  2.2255
   56MOL0     H 7371  -0.324   8.016  11.522 -1.4826 -0.3944  0.2790
   56MOL0     H 7372  -0.375   7.774  11.485  3.2749 -1.8153  0.7061
   56MOL0     H 7373  -0.492   7.836  11.589  0.5711 -3.2698  0.6563
   56MOL0     H 7374   0.475   7.610  11.025 -1.0445  2.3324 -0.7436
   56MOL0     H 7375   0.537   7.473  10.826 -0.5192 -0.1743 -2.1764
   56MOL0     H 7376   0.516   7.091  10.593  2.7077  1.9023 -0.7772
   56MOL0     H 7377   0.609   6.982  10.408 -0.9496 -0.8001  0.0302
   56MOL0     H 7378   0.396   7.007   8.374  2.1175  0.4161  1.9950
   56MOL0     H 7379   0.303   6.861   8.219 -1.3384 -0.3426  3.5057
   56MOL0     H 7380   0.651   6.645   7.834 -0.1256 -0.4992  0.8485
   56MOL0     H 7381   0.610   6.560   7.624 -2.5716  4.2774  0.1667
   56MOL0     H 7382   0.209   6.377   7.528 -0.0093 -0.4800  0.4993
   56MOL0     H 7383   0.289   6.235   7.584 -0.4221  1.3827  1.5384
   56MOL0     H 7384   0.387   6.194   7.378  0.3803 -0.3153  5.6850
   56MOL0     H 7385   0.215   6.202   7.381 -3.1599  2.5261 -0.3492
   56MOL0     H 7386   0.353   6.332   7.181  3.2641  0.4020  0.3723
   56MOL0     H 7387   0.391   6.454   7.292  0.6036 -1.2161  1.0961
   56MOL0     H 7388   0.155   6.505   7.349 -1.1704 -0.7957 -0.7404
   56MOL0     H 7389   0.194   6.524   7.174 -2.2368 -3.0182 -2.7164
   56MOL0     H 7390  -0.097   6.227   7.187  0.2112 -0.3902  4.5240
   56MOL0     H 7391   0.254   6.374   7.753 -0.5851 -0.1976 -1.5144
   56MOL0     H 7392   0.276   6.464   7.975  1.7998 -0.7401  2.6603
   57MOL0     O 7393   2.234   4.929   1.721  0.2179 -0.3538  0.2281
   57MOL0     C 7394   2.305   4.980   1.808 -0.6924 -0.3231  0.0015
   57MOL0     O 7395   2.404   4.912   1.880  0.2639  0.2772 -0.8996
   57MOL0     C 7396   2.438   4.779   1.825 -0.3006  1.0377 -0.9390
   57MOL0     C 7397   2.490   4.764   1.692  0.4007  0.0860  1.0869
   57MOL0     C 7398   2.513   4.636   1.645  0.3686 -0.2467 -0.2502
   57MOL0     C 7399   2.483   4.524   1.717 -0.2174 -0.1776 -0.1213
   57MOL0     O 7400   2.494   4.394   1.658  0.3565 -0.7245  0.2575
   57MOL0     C 7401   2.521   4.285   1.737 -0.0742 -0.4438  0.9271
   57MOL0     C 7402   2.609   4.187   1.655  0.0872 -0.4016 -0.1476
   57MOL0     C 7403   2.617   4.046   1.726 -0.1779  0.3465 -0.2365
   57MOL0     C 7404   2.733   4.045   1.829  0.3836  0.7537 -0.6642
   57MOL0     C 7405   2.752   3.902   1.887 -0.7396 -1.2732 -0.0475
   57MOL0     C 7406   2.872   3.883   1.971  0.2929 -0.4006  0.4548
   57MOL0     C 7407   2.877   3.733   2.036  0.3650 -1.1929  0.3689
   57MOL0     C 7408   2.963   3.624   1.968 -0.3521  0.0701 -0.1616
   57MOL0     N 7409   2.957   3.496   2.048 -0.9266  0.5379  0.4283
   57MOL0     C 7410   3.065   3.412   2.060  1.4677  0.4681  0.2744
   57MOL0     C 7411   3.018   3.301   2.121 -0.9973 -0.9686  0.2905
   57MOL0     C 7412   3.107   3.192   2.168 -0.4509 -0.0724 -0.7170
   57MOL0     C 7413   3.162   3.135   2.040 -0.0626  0.0764  0.8513
   57MOL0     C 7414   3.244   3.016   2.087  0.6574  0.8136  0.1418
   57MOL0     C 7415   3.282   2.926   1.963  0.5934 -0.4176 -0.2126
   57MOL0     O 7416   3.342   2.808   2.020  0.2060  0.0592 -0.1114
   57MOL0     C 7417   3.399   2.715   1.931 -0.7257 -0.7383 -0.5497
   57MOL0     C 7418   3.340   2.589   1.915  0.8065  0.4360 -0.5442
   57MOL0     C 7419   3.405   2.497   1.835  0.4193  0.2927  0.0830
   57MOL0     C 7420   3.525   2.533   1.771 -0.0749  0.5922  0.1173
   57MOL0     C 7421   3.582   2.440   1.671  0.0759 -0.1966 -0.2437
   57MOL0     O 7422   3.505   2.349   1.610 -0.6122 -0.6450  0.0216
   57MOL0     C 7423   3.573   2.272   1.520 -0.2532  1.4501 -0.3974
   57MOL0     C 7424   3.517   2.246   1.401  0.1286  0.8680 -0.7048
   57MOL0     C 7425   3.569   2.158   1.304  0.3491 -0.0148 -0.5089
   57MOL0     C 7426   3.683   2.088   1.334 -0.4197  0.1697 -0.3125
   57MOL0     O 7427   3.733   2.002   1.229  0.6990  0.4024  0.2321
   57MOL0     C 7428   3.867   1.960   1.244 -0.7439 -1.1072 -0.5872
   57MOL0     C 7429   3.932   1.898   1.126  0.5193 -0.4987  0.4627
   57MOL0     C 7430   3.871   1.765   1.063  0.2108 -0.0306 -0.3262
   57MOL0     C 7431   3.958   1.725   0.938 -0.2552  0.1120 -1.0646
   57MOL0     C 7432   3.877   1.664   0.823 -0.2039 -0.9439 -0.0036
   57MOL0     C 7433   3.816   1.536   0.889  1.1418  1.3372  0.0219
   57MOL0     C 7434   3.713   1.457   0.789 -0.5481  0.1478 -0.3946
   57MOL0     C 7435   3.795   1.384   0.677  1.6208 -0.2790 -0.0453
   57MOL0    Cl 7436   3.905   1.261   0.732 -0.0212 -0.1493  0.3107
   57MOL0     C 7437   3.742   2.098   1.465  0.2674  0.3777  0.0032
   57MOL0     C 7438   3.679   2.183   1.552  0.5480  0.8320  0.6001
   57MOL0     O 7439   3.699   2.461   1.651 -0.4214 -0.5173  0.7891
   57MOL0     C 7440   3.586   2.651   1.795 -0.3148  0.1477  0.8430
   57MOL0     C 7441   3.521   2.750   1.873  1.0449 -0.3325  0.8944
   57MOL0     N 7442   2.892   3.323   2.158 -0.3195  0.2850  0.9085
   57MOL0     N 7443   2.851   3.436   2.107  0.6906  0.1104  0.6421
   57MOL0     C 7444   2.447   4.537   1.852 -0.3141  0.1410  0.3488
   57MOL0     C 7445   2.423   4.669   1.904  0.2883 -0.1071 -0.5236
   57MOL0     C 7446   2.274   5.123   1.833  0.7777  0.4851 -0.8825
   57MOL0     C 7447   2.368   5.212   1.893  0.5468 -0.0444  0.0661
   57MOL0     C 7448   2.334   5.343   1.913 -0.8102 -0.1066 -0.1164
   57MOL0     C 7449   2.214   5.397   1.873  0.6213  0.0719  1.4368
   57MOL0     O 7450   2.177   5.533   1.876 -1.2948  0.8872 -0.3666
   57MOL0     C 7451   2.261   5.620   1.955  0.5821  0.0378 -0.6360
   57MOL0     C 7452   2.180   5.736   2.002  0.4238 -1.0717 -0.1197
   57MOL0     C 7453   2.114   5.827   1.898 -0.4786  0.2858 -0.2687
   57MOL0     C 7454   2.221   5.843   1.769 -0.1291 -0.5667 -0.0550
   57MOL0     C 7455   2.340   5.905   1.812 -0.0680 -0.0714 -1.1968
   57MOL0     C 7456   2.439   5.970   1.846  0.2553  0.6968 -0.0255
   57MOL0     C 7457   2.116   5.316   1.819 -0.0895 -0.1579 -0.5799
   57MOL0     C 7458   2.145   5.176   1.798  0.0362 -0.9080  0.0042
   57MOL0     H 7459   2.500   4.853   1.630 -2.4808 -1.1471 -1.4327
   57MOL0     H 7460   2.522   4.618   1.538  2.1527  0.6693 -0.2950
   57MOL0     H 7461   2.424   4.240   1.761 -2.3260  2.8404 -1.1715
   57MOL0     H 7462   2.560   4.322   1.833 -1.9263 -0.4821  1.7450
   57MOL0     H 7463   2.711   4.225   1.643  0.3288 -1.0558 -0.2454
   57MOL0     H 7464   2.580   4.176   1.550 -1.8123  2.2623  0.0128
   57MOL0     H 7465   2.633   3.963   1.656 -0.5267 -0.5655  0.7382
   57MOL0     H 7466   2.525   4.024   1.780  0.0919 -2.2894 -0.6995
   57MOL0     H 7467   2.830   4.081   1.794  1.4638  0.0881  1.4828
   57MOL0     H 7468   2.710   4.120   1.905  0.8215  3.5405 -3.0893
   57MOL0     H 7469   2.769   3.832   1.804  1.7921 -2.0221  1.0055
   57MOL0     H 7470   2.666   3.874   1.947 -0.2953 -3.5086 -0.3492
   57MOL0     H 7471   2.866   3.962   2.047 -0.2896 -1.9443  2.0854
   57MOL0     H 7472   2.965   3.898   1.916 -1.6482 -2.3314 -3.8016
   57MOL0     H 7473   2.902   3.758   2.139 -1.9025 -1.5811  1.0664
   57MOL0     H 7474   2.772   3.702   2.036  0.2778 -0.9118  1.4016
   57MOL0     H 7475   3.069   3.652   1.964 -0.4953  0.6884  0.1382
   57MOL0     H 7476   2.918   3.594   1.873 -2.3069 -2.4886  1.4505
   57MOL0     H 7477   3.165   3.445   2.035  2.7090 -1.0640  2.8055
   57MOL0     H 7478   3.041   3.129   2.229 -2.6786  3.6095  1.0546
   57MOL0     H 7479   3.188   3.228   2.231 -1.0607  1.3865 -0.7181
   57MOL0     H 7480   3.223   3.205   1.983 -0.0096 -2.0853 -2.0233
   57MOL0     H 7481   3.076   3.108   1.978 -1.7872  1.5041  2.5101
   57MOL0     H 7482   3.339   3.039   2.135  0.9417 -0.1484  0.0733
   57MOL0     H 7483   3.180   2.961   2.156  0.6415  2.4328  1.4709
   57MOL0     H 7484   3.340   2.978   1.887  1.9922 -0.3562  0.8426
   57MOL0     H 7485   3.190   2.893   1.914 -1.0113 -1.2135  3.0128
   57MOL0     H 7486   3.248   2.563   1.965  3.1841 -4.2143  2.1318
   57MOL0     H 7487   3.354   2.402   1.835 -2.8900  1.8867  2.2925
   57MOL0     H 7488   3.426   2.305   1.394  0.0528  0.6004 -2.8588
   57MOL0     H 7489   3.509   2.151   1.214 -3.3189  0.8387  1.6254
   57MOL0     H 7490   3.874   1.886   1.324 -1.4405  0.4199  0.9533
   57MOL0     H 7491   3.923   2.046   1.282 -0.6678 -0.8006 -1.3705
   57MOL0     H 7492   4.017   1.862   1.184  0.0755 -4.0501 -0.8160
   57MOL0     H 7493   3.961   1.967   1.046 -0.8291 -1.2159 -0.6839
   57MOL0     H 7494   3.769   1.785   1.030  0.8736  5.5820 -0.0135
   57MOL0     H 7495   3.864   1.680   1.131  0.3696 -0.1546 -0.4608
   57MOL0     H 7496   4.010   1.814   0.902 -1.0607  0.9954 -0.1095
   57MOL0     H 7497   4.035   1.652   0.964 -1.2860 -0.1430  1.6846
   57MOL0     H 7498   3.939   1.640   0.736 -0.6341 -2.2572  0.0208
   57MOL0     H 7499   3.797   1.727   0.784 -0.4783 -1.4062 -0.1912
   57MOL0     H 7500   3.746   1.568   0.967 -0.3308 -0.1441 -0.6366
   57MOL0     H 7501   3.886   1.473   0.945  0.3294  2.8209  2.8727
   57MOL0     H 7502   3.665   1.377   0.846  1.9625 -0.7025  0.6171
   57MOL0     H 7503   3.627   1.519   0.761 -0.9083  1.9631  3.9370
   57MOL0     H 7504   3.836   1.463   0.613 -2.9525  2.4420 -0.0688
   57MOL0     H 7505   3.721   1.331   0.616 -0.3009  0.0217  1.8968
   57MOL0     H 7506   3.832   2.047   1.497  0.1285 -0.6461 -1.1648
   57MOL0     H 7507   3.724   2.205   1.648 -0.7849  0.1621  1.4159
   57MOL0     H 7508   3.685   2.661   1.752 -0.3698  1.3144  0.9615
   57MOL0     H 7509   3.578   2.840   1.894  0.4633  0.8349 -2.1140
   57MOL0     H 7510   2.423   4.454   1.917  0.6500 -0.1497  0.3527
   57MOL0     H 7511   2.400   4.692   2.007  1.2912 -0.3362 -0.2266
   57MOL0     H 7512   2.467   5.177   1.921  0.0415  0.3619  2.5976
   57MOL0     H 7513   2.413   5.411   1.942 -1.0118 -0.3454  1.0560
   57MOL0     H 7514   2.344   5.657   1.894 -1.0976  1.9147 -1.9000
   57MOL0     H 7515   2.295   5.559   2.039 -3.7506 -1.0779  0.5788
   57MOL0     H 7516   2.091   5.701   2.055 -0.5330  0.6585 -0.5204
   57MOL0     H 7517   2.234   5.799   2.074 -1.2184  0.1103  0.1134
   57MOL0     H 7518   2.085   5.927   1.931  0.1295  1.0007 -1.8146
   57MOL0     H 7519   2.026   5.775   1.862  1.8787 -2.2829 -2.8463
   57MOL0     H 7520   2.235   5.743   1.727 -0.6363 -1.4628  1.7853
   57MOL0     H 7521   2.171   5.901   1.692  0.6320  0.1389 -0.0308
   57MOL0     H 7522   2.529   6.011   1.886  0.9854 -2.7556  2.3590
   57MOL0     H 7523   2.021   5.361   1.791  2.4858  4.7532 -2.7240
   57MOL0     H 7524   2.075   5.108   1.750 -1.2285  1.3279 -1.5037
   58MOL0     O 7525   8.440   4.380   1.502 -1.1103 -0.0049  0.1195
   58MOL0     C 7526   8.358   4.295   1.454 -0.5958 -0.6475 -0.6857
   58MOL0     O 7527   8.384   4.179   1.393 -0.2851 -0.1588 -0.2347
   58MOL0     C 7528   8.503   4.122   1.438 -0.2694  0.1786  0.1900
   58MOL0     C 7529   8.500   4.006   1.519 -0.1496  0.2902 -0.4079
   58MOL0     C 7530   8.611   3.974   1.601  1.4657  0.2193  0.0851
   58MOL0     C 7531   8.733   4.035   1.571 -0.1494 -0.3554 -0.2447
   58MOL0     O 7532   8.849   3.997   1.633  0.0048 -0.2935  0.2965
   58MOL0     C 7533   8.930   3.909   1.550 -0.5958  0.1857 -0.4397
   58MOL0     C 7534   9.015   3.821   1.641  1.2768  0.5437  0.3569
   58MOL0     C 7535   8.926   3.727   1.738 -0.5006 -0.0226 -0.2276
   58MOL0     C 7536   8.808   3.647   1.678  0.1636  0.4733  0.0305
   58MOL0     C 7537   8.872   3.553   1.574  0.4132  0.0440 -0.5310
   58MOL0     C 7538   8.763   3.472   1.493 -0.2264  0.6936 -0.5634
   58MOL0     C 7539   8.682   3.542   1.386 -0.4959  0.8173  0.2665
   58MOL0     C 7540   8.543   3.597   1.425 -0.8710  0.2902 -0.4234
   58MOL0     N 7541   8.477   3.650   1.305  0.7892  0.2071  0.6065
   58MOL0     C 7542   8.475   3.790   1.272 -0.2366  0.1323 -0.0374
   58MOL0     C 7543   8.382   3.806   1.171  0.0355  0.8321  0.0199
   58MOL0     C 7544   8.337   3.939   1.103 -0.0587  0.9420 -0.0131
   58MOL0     C 7545   8.223   3.919   0.997 -0.2885 -0.3310 -1.1920
   58MOL0     C 7546   8.156   4.046   0.938  1.0373  0.0061 -0.4428
   58MOL0     C 7547   8.079   4.119   1.054  0.8892 -0.0642 -0.5657
   58MOL0     O 7548   7.965   4.181   1.014  0.3104  0.2963 -0.0190
   58MOL0     C 7549   7.975   4.276   0.916  0.9112 -0.0410 -0.6025
   58MOL0     C 7550   8.026   4.405   0.945  0.1441  0.8067 -0.6546
   58MOL0     C 7551   8.029   4.499   0.847  0.1582  0.1603  0.0582
   58MOL0     C 7552   7.998   4.471   0.712  0.0218  0.1081  0.2993
   58MOL0     C 7553   8.007   4.563   0.605 -0.1007  0.0746 -0.4278
   58MOL0     O 7554   8.013   4.511   0.476  0.1390 -0.1904  0.0327
   58MOL0     C 7555   8.014   4.606   0.369 -0.2649  0.3171  1.2926
   58MOL0     C 7556   8.112   4.569   0.272 -0.7555  0.0860 -0.2438
   58MOL0     C 7557   8.132   4.660   0.166  0.2313 -0.3510  0.3036
   58MOL0     C 7558   8.057   4.778   0.148 -0.6878 -0.3559  0.2861
   58MOL0     O 7559   8.085   4.859   0.048 -0.7749  0.0784 -0.9746
   58MOL0     C 7560   8.115   5.000   0.083 -0.3506  0.5244  0.2766
   58MOL0     C 7561   8.052   5.096  -0.018 -0.6443  0.2458  0.4647
   58MOL0     C 7562   8.088   5.052  -0.162  0.1873  0.5790  0.6969
   58MOL0     C 7563   8.079   5.155  -0.276 -0.7303 -0.2257  0.1434
   58MOL0     C 7564   8.059   5.081  -0.413  0.1480  1.1433 -0.3069
   58MOL0     C 7565   8.033   5.196  -0.510  0.5078  0.6003 -0.7724
   58MOL0     C 7566   7.983   5.137  -0.642 -0.3657 -0.2024 -0.1383
   58MOL0     C 7567   7.948   5.243  -0.753 -0.6873 -0.6294 -0.8845
   58MOL0    Cl 7568   7.815   5.335  -0.691  0.0643 -0.2112 -0.2444
   58MOL0     C 7569   7.956   4.807   0.233  0.0970  0.4817  0.3617
   58MOL0     C 7570   7.939   4.721   0.344 -0.2728 -0.4161 -0.4893
   58MOL0     O 7571   8.020   4.679   0.639 -0.5809 -0.1440 -0.4177
   58MOL0     C 7572   7.952   4.341   0.683  0.1992 -0.0364  0.1502
   58MOL0     C 7573   7.935   4.246   0.786 -0.5357  0.2174  0.2656
   58MOL0     N 7574   8.330   3.675   1.158  0.4327  0.0418  0.5819
   58MOL0     N 7575   8.389   3.589   1.230  0.4935 -0.2067 -0.6211
   58MOL0     C 7576   8.743   4.141   1.481  1.4996 -0.8485  0.8798
   58MOL0     C 7577   8.626   4.185   1.418 -0.3145 -0.0799 -0.4468
   58MOL0     C 7578   8.216   4.341   1.451  0.0300  0.5055 -0.3911
   58MOL0     C 7579   8.120   4.276   1.377  0.4474  0.6428  0.0771
   58MOL0     C 7580   7.983   4.324   1.361 -0.3130 -0.5830  0.0585
   58MOL0     C 7581   7.944   4.428   1.442  0.7158  0.0501 -0.2263
   58MOL0     O 7582   7.820   4.478   1.437  0.8456 -1.0846  0.1200
   58MOL0     C 7583   7.703   4.395   1.398  0.3750 -0.5307  0.2424
   58MOL0     C 7584   7.568   4.474   1.440 -0.5280 -0.2154  0.5881
   58MOL0     C 7585   7.548   4.458   1.593  0.2478 -0.2952  0.3063
   58MOL0     C 7586   7.410   4.458   1.627  0.4634  0.1253  0.0676
   58MOL0     C 7587   7.341   4.595   1.604  0.2330  1.1529  0.7915
   58MOL0     C 7588   7.293   4.702   1.590 -0.6310 -0.5010  0.7094
   58MOL0     C 7589   8.043   4.503   1.507  0.0768 -0.3894  0.6548
   58MOL0     C 7590   8.171   4.460   1.515 -0.1691 -0.4398  1.1075
   58MOL0     H 7591   8.408   3.957   1.547 -0.3619  0.6438 -0.4723
   58MOL0     H 7592   8.618   3.900   1.680 -1.4978  1.1736  1.3976
   58MOL0     H 7593   8.995   3.970   1.486 -0.2396 -0.0836 -0.3402
   58MOL0     H 7594   8.871   3.842   1.488  2.0495 -0.0427 -2.9569
   58MOL0     H 7595   9.070   3.882   1.713 -0.5610 -0.7463  3.0314
   58MOL0     H 7596   9.081   3.760   1.579  0.0698 -0.8610  0.3806
   58MOL0     H 7597   8.887   3.788   1.820 -2.4682 -1.9149  0.3391
   58MOL0     H 7598   9.004   3.661   1.779  1.6447  1.8056 -1.1349
   58MOL0     H 7599   8.759   3.584   1.753  1.0307 -0.3237 -0.0479
   58MOL0     H 7600   8.730   3.713   1.639  2.4622  2.1505 -2.0485
   58MOL0     H 7601   8.937   3.476   1.615  2.5961  0.5364 -2.8353
   58MOL0     H 7602   8.937   3.600   1.499  2.9030 -2.4719 -0.0696
   58MOL0     H 7603   8.705   3.409   1.561  3.2678 -1.4703  0.6538
   58MOL0     H 7604   8.824   3.401   1.436 -0.3493  2.9424 -3.7962
   58MOL0     H 7605   8.748   3.613   1.335  1.3194  0.3646  1.8245
   58MOL0     H 7606   8.667   3.470   1.305 -0.2121  2.6763 -1.5203
   58MOL0     H 7607   8.540   3.655   1.518 -0.8887 -5.2559  3.5168
   58MOL0     H 7608   8.484   3.509   1.451 -1.3815 -0.1058 -2.7490
   58MOL0     H 7609   8.531   3.875   1.309 -1.1471  1.1817 -0.9907
   58MOL0     H 7610   8.417   3.998   1.057 -1.7516  4.2593  0.9788
   58MOL0     H 7611   8.291   3.986   1.190  2.1389 -1.4849  2.6483
   58MOL0     H 7612   8.137   3.873   1.047 -2.3157  2.1598 -2.1419
   58MOL0     H 7613   8.256   3.861   0.910  1.3715 -0.7844 -0.2929
   58MOL0     H 7614   8.226   4.112   0.886  0.2864  2.2178  1.2215
   58MOL0     H 7615   8.089   3.999   0.865  0.6391 -1.4140  0.7720
   58MOL0     H 7616   8.141   4.189   1.111 -0.3600  2.1983 -1.8249
   58MOL0     H 7617   8.047   4.046   1.129  2.3798 -1.4511 -1.1970
   58MOL0     H 7618   8.061   4.427   1.046  0.1267 -0.4959 -0.3452
   58MOL0     H 7619   8.074   4.592   0.879  2.3870  1.3610 -5.3421
   58MOL0     H 7620   8.173   4.483   0.297  0.2088  0.9169  0.3507
   58MOL0     H 7621   8.223   4.659   0.107  1.0424  0.4363  1.4755
   58MOL0     H 7622   8.224   5.006   0.081 -0.2613 -0.3012 -2.6432
   58MOL0     H 7623   8.088   5.021   0.187 -0.6183  0.2016  0.2740
   58MOL0     H 7624   8.072   5.203  -0.006 -0.1892  0.1377  0.6922
   58MOL0     H 7625   7.944   5.087  -0.003 -0.2882 -0.9333  2.8141
   58MOL0     H 7626   8.016   4.973  -0.187 -0.1851  1.2852 -0.5754
   58MOL0     H 7627   8.188   5.009  -0.163  1.5172  3.3726 -1.5418
   58MOL0     H 7628   8.002   5.231  -0.259 -0.6929 -0.2715  0.5168
   58MOL0     H 7629   8.179   5.198  -0.279 -0.4909 -0.3537  3.1490
   58MOL0     H 7630   7.975   5.014  -0.395 -0.6006  2.3436  0.8312
   58MOL0     H 7631   8.146   5.027  -0.452 -0.6019  0.9466 -1.7656
   58MOL0     H 7632   8.119   5.254  -0.544 -0.3262  0.4348 -3.3183
   58MOL0     H 7633   7.959   5.262  -0.466 -3.9982 -3.1256 -1.9791
   58MOL0     H 7634   8.070   5.077  -0.671  2.7349  3.6587  0.4132
   58MOL0     H 7635   7.898   5.070  -0.624 -0.9877  0.8687  1.0603
   58MOL0     H 7636   7.927   5.185  -0.844  2.3777  0.7120 -2.5673
   58MOL0     H 7637   8.036   5.299  -0.783  1.0641 -3.3751 -1.2143
   58MOL0     H 7638   7.901   4.898   0.211 -1.2451 -0.7297 -1.6243
   58MOL0     H 7639   7.859   4.750   0.411 -0.3923  1.1465 -1.2733
   58MOL0     H 7640   7.917   4.316   0.584 -1.1995  1.4506  0.2295
   58MOL0     H 7641   7.896   4.146   0.771 -1.9883  0.7039  0.6119
   58MOL0     H 7642   8.839   4.188   1.462 -0.1396  2.4411 -0.0486
   58MOL0     H 7643   8.636   4.270   1.351  1.6592 -0.5531 -0.8085
   58MOL0     H 7644   8.145   4.190   1.316 -3.5228  0.6645 -1.9239
   58MOL0     H 7645   7.919   4.272   1.291  0.5356 -1.1299 -0.3288
   58MOL0     H 7646   7.703   4.303   1.456 -1.8413  1.0146  2.8962
   58MOL0     H 7647   7.701   4.375   1.290  2.4759  0.6501 -0.0712
   58MOL0     H 7648   7.583   4.575   1.402 -3.3360  0.3625  0.8113
   58MOL0     H 7649   7.489   4.427   1.381  0.1182 -1.3238  0.5628
   58MOL0     H 7650   7.592   4.549   1.635 -0.0611  0.2967 -0.6282
   58MOL0     H 7651   7.599   4.375   1.644 -0.6042 -0.4387  0.9393
   58MOL0     H 7652   7.368   4.378   1.566  1.6451 -0.7907  0.4161
   58MOL0     H 7653   7.393   4.430   1.732  1.5483 -1.5936 -0.1791
   58MOL0     H 7654   7.263   4.805   1.582  1.5337  0.3967  2.8319
   58MOL0     H 7655   8.007   4.590   1.560 -2.2669 -0.6207 -0.4257
   58MOL0     H 7656   8.240   4.510   1.582  0.2487 -0.6269  0.8283
   59MOL0     O 7657   6.121   8.614   3.049 -0.5408 -0.5837 -0.4734
   59MOL0     C 7658   6.031   8.669   3.107  0.0688 -0.4768  0.0616
   59MOL0     O 7659   6.001   8.807   3.124  0.5764 -0.5227  0.0114
   59MOL0     C 7660   6.070   8.898   3.046  0.0547  0.0262  0.3187
   59MOL0     C 7661   6.116   8.873   2.914  0.1752  0.5383 -0.9565
   59MOL0     C 7662   6.163   8.967   2.830 -0.2827 -1.0140  0.3950
   59MOL0     C 7663   6.157   9.103   2.868  0.3039 -0.0582 -0.0682
   59MOL0     O 7664   6.187   9.197   2.769 -0.0992  0.4884 -0.8228
   59MOL0     C 7665   6.264   9.310   2.822  0.5250 -0.2193 -0.0198
   59MOL0     C 7666   6.327   9.389   2.715  0.1440  0.1729 -0.2020
   59MOL0     C 7667   6.487   9.411   2.724 -0.1338  0.6099  0.7905
   59MOL0     C 7668   6.529   9.527   2.623 -0.3384 -0.1132 -0.4012
   59MOL0     C 7669   6.515   9.487   2.470 -0.6045  1.1253 -0.5498
   59MOL0     C 7670   6.416   9.563   2.405 -0.4241  0.8259  1.0552
   59MOL0     C 7671   6.418   9.538   2.248  0.9712 -0.1564 -0.2216
   59MOL0     C 7672   6.309   9.610   2.177  0.0583 -0.4119 -0.8192
   59MOL0     N 7673   6.304   9.748   2.215 -0.2267 -0.4135 -0.2714
   59MOL0     C 7674   6.346   9.850   2.133  0.8073  0.6747  0.0571
   59MOL0     C 7675   6.319   9.958   2.202  0.3191 -1.1254 -0.7158
   59MOL0     C 7676   6.390  10.093   2.207  0.6280  0.0747 -0.0246
   59MOL0     C 7677   6.435  10.151   2.070  0.7047  0.7734  0.0941
   59MOL0     C 7678   6.330  10.239   2.013  0.3943  0.0304  0.0033
   59MOL0     C 7679   6.376  10.306   1.885  0.0738  1.0742  0.3561
   59MOL0     O 7680   6.447  10.425   1.907  0.0964  0.6779 -0.2069
   59MOL0     C 7681   6.546  10.474   1.830  0.6350  0.2777 -1.3100
   59MOL0     C 7682   6.588  10.610   1.849  0.6061 -0.0259  0.2557
   59MOL0     C 7683   6.691  10.655   1.770  0.4535 -0.6230  0.4324
   59MOL0     C 7684   6.758  10.577   1.681  0.4249  0.2266  0.4006
   59MOL0     C 7685   6.886  10.614   1.613 -0.3511  0.4146 -0.3909
   59MOL0     O 7686   6.979  10.521   1.568  0.0021 -0.4057  0.4517
   59MOL0     C 7687   7.098  10.545   1.505 -0.6571 -0.1739  0.3617
   59MOL0     C 7688   7.169  10.428   1.471  0.8251  0.1638  0.3708
   59MOL0     C 7689   7.296  10.432   1.417 -0.1442  1.2325  0.1640
   59MOL0     C 7690   7.351  10.560   1.387  0.1891  0.6942 -0.0545
   59MOL0     O 7691   7.478  10.564   1.338 -0.2965 -0.6125  0.3010
   59MOL0     C 7692   7.486  10.521   1.200  0.2516  0.9810 -0.0084
   59MOL0     C 7693   7.624  10.534   1.138  0.1380 -1.0480  0.3828
   59MOL0     C 7694   7.630  10.492   0.993  0.2160  1.0051 -0.4075
   59MOL0     C 7695   7.551  10.367   0.937 -0.2968 -0.0535 -0.3315
   59MOL0     C 7696   7.628  10.243   0.975  0.6051 -0.0398  0.1542
   59MOL0     C 7697   7.564  10.115   0.924 -0.0140  0.5752  0.0696
   59MOL0     C 7698   7.626   9.994   1.007 -0.5332  0.1409  0.4037
   59MOL0     C 7699   7.592   9.862   0.944 -0.0707  0.1687 -0.3436
   59MOL0    Cl 7700   7.421   9.819   0.949  0.0308 -0.6685 -0.4238
   59MOL0     C 7701   7.281  10.677   1.412  0.0627 -0.2034 -0.2867
   59MOL0     C 7702   7.153  10.667   1.476  0.6242  0.5650  1.0156
   59MOL0     O 7703   6.912  10.734   1.624  0.0931 -0.4566  0.0546
   59MOL0     C 7704   6.722  10.443   1.662  0.6108 -0.1722  0.3250
   59MOL0     C 7705   6.617  10.393   1.739 -0.4546  1.1415  0.1204
   59MOL0     N 7706   6.241   9.926   2.314 -0.2254  0.4628  0.1546
   59MOL0     N 7707   6.229   9.800   2.315  0.3319  0.1238 -0.1817
   59MOL0     C 7708   6.122   9.136   3.001  0.0934 -0.0529 -0.2075
   59MOL0     C 7709   6.086   9.035   3.087  0.7944  0.1963 -0.7512
   59MOL0     C 7710   5.934   8.587   3.182 -0.0780  0.2114 -0.3552
   59MOL0     C 7711   5.922   8.460   3.143 -0.1599 -0.8908 -0.3446
   59MOL0     C 7712   5.836   8.370   3.202  0.0064  0.5372 -1.4906
   59MOL0     C 7713   5.764   8.403   3.323  0.2468  0.6893  0.0805
   59MOL0     O 7714   5.683   8.312   3.386 -0.8143 -0.4277  0.3912
   59MOL0     C 7715   5.590   8.235   3.313 -0.6833 -0.1066 -0.3573
   59MOL0     C 7716   5.477   8.199   3.409 -0.3177 -0.6932  0.1101
   59MOL0     C 7717   5.405   8.331   3.443 -1.0853 -0.2325  0.3525
   59MOL0     C 7718   5.290   8.285   3.537  0.5272  0.0698  0.0441
   59MOL0     C 7719   5.176   8.380   3.565  0.1235  0.2978 -0.4073
   59MOL0     C 7720   5.079   8.441   3.611 -0.6151 -0.4464 -0.1446
   59MOL0     C 7721   5.782   8.541   3.372  0.5250 -0.6007 -0.4751
   59MOL0     C 7722   5.859   8.628   3.295 -0.8195 -0.4247 -0.2108
   59MOL0     H 7723   6.129   8.769   2.885  1.7935  0.6032 -0.5367
   59MOL0     H 7724   6.208   8.954   2.732 -0.7922 -0.9047  0.1457
   59MOL0     H 7725   6.335   9.281   2.900 -1.0495  1.1907  2.0719
   59MOL0     H 7726   6.197   9.376   2.878 -0.7414 -1.2315 -0.2872
   59MOL0     H 7727   6.278   9.486   2.727  0.6951  0.2760  1.5763
   59MOL0     H 7728   6.292   9.355   2.617 -3.7372 -1.1580  1.4707
   59MOL0     H 7729   6.548   9.326   2.695  0.3636  1.8654 -2.2212
   59MOL0     H 7730   6.498   9.443   2.828  0.3880 -0.1812  0.9800
   59MOL0     H 7731   6.483   9.625   2.638  1.5554  1.0246 -1.5157
   59MOL0     H 7732   6.636   9.550   2.636 -0.3765 -0.1416 -0.0252
   59MOL0     H 7733   6.495   9.380   2.463  2.3154  0.5664 -1.9976
   59MOL0     H 7734   6.616   9.500   2.429  0.2949 -2.3234  0.2730
   59MOL0     H 7735   6.430   9.670   2.424  0.4450  0.3334  3.5663
   59MOL0     H 7736   6.323   9.523   2.448 -0.8641  0.2969 -0.3399
   59MOL0     H 7737   6.509   9.578   2.201  0.3539  0.3872 -0.9814
   59MOL0     H 7738   6.408   9.431   2.231 -1.1237 -0.6378  3.1562
   59MOL0     H 7739   6.210   9.573   2.205  0.3122  0.5518  1.5075
   59MOL0     H 7740   6.315   9.592   2.069  1.4436  1.3551 -1.0846
   59MOL0     H 7741   6.401   9.840   2.039 -0.7917 -1.0812 -0.7387
   59MOL0     H 7742   6.478  10.080   2.270  1.1917 -0.7250 -0.9479
   59MOL0     H 7743   6.331  10.177   2.245  1.9086  0.9166  0.1539
   59MOL0     H 7744   6.439  10.066   2.000 -0.8097  0.8449 -0.1107
   59MOL0     H 7745   6.532  10.198   2.087  0.6503  0.3903  1.5938
   59MOL0     H 7746   6.235  10.185   2.005  0.0123  0.4456  1.4253
   59MOL0     H 7747   6.311  10.318   2.085  2.2836 -0.4345  1.0859
   59MOL0     H 7748   6.286  10.325   1.826 -0.7024  0.1669  1.2066
   59MOL0     H 7749   6.431  10.235   1.822 -0.3637 -0.7945  1.9881
   59MOL0     H 7750   6.552  10.682   1.921 -0.1621 -1.5831  1.4838
   59MOL0     H 7751   6.720  10.760   1.768 -3.5441  0.6483 -2.7039
   59MOL0     H 7752   7.120  10.335   1.499 -3.2049  2.2478  0.9871
   59MOL0     H 7753   7.355  10.341   1.409 -1.0847  0.3841  2.1182
   59MOL0     H 7754   7.419  10.592   1.150  1.8266  3.1270  0.8330
   59MOL0     H 7755   7.451  10.420   1.175 -0.2777  1.3554 -0.8345
   59MOL0     H 7756   7.704  10.477   1.188  0.4296 -0.1257  1.0105
   59MOL0     H 7757   7.644  10.642   1.141 -1.3657 -0.7461  0.3374
   59MOL0     H 7758   7.735  10.491   0.962 -0.2193  0.8489 -1.9389
   59MOL0     H 7759   7.578  10.570   0.938 -0.9151  0.4258 -0.1856
   59MOL0     H 7760   7.451  10.366   0.981 -0.4635 -0.8948 -0.7220
   59MOL0     H 7761   7.559  10.375   0.829  1.0852  0.7827 -0.1885
   59MOL0     H 7762   7.626  10.227   1.083 -4.1935 -2.3923 -0.0532
   59MOL0     H 7763   7.731  10.253   0.940  0.4886  2.2024  0.2576
   59MOL0     H 7764   7.598  10.106   0.821  4.4988  2.0964  1.2048
   59MOL0     H 7765   7.458  10.127   0.950  0.3477 -2.1955  3.5733
   59MOL0     H 7766   7.734  10.013   1.009 -0.2431 -0.9360 -1.5613
   59MOL0     H 7767   7.580   9.990   1.106 -1.4395 -2.4476 -0.0435
   59MOL0     H 7768   7.653   9.789   0.997  0.0298  0.4727 -0.0335
   59MOL0     H 7769   7.619   9.868   0.838 -0.2132 -2.4023 -0.5860
   59MOL0     H 7770   7.326  10.775   1.398 -0.2535 -0.1180 -0.7308
   59MOL0     H 7771   7.085  10.748   1.500  0.4883 -0.1859  3.4929
   59MOL0     H 7772   6.779  10.373   1.601  0.9971  1.5737 -1.4448
   59MOL0     H 7773   6.596  10.286   1.732  1.8577  0.3712  3.0503
   59MOL0     H 7774   6.123   9.241   3.027  0.0778 -0.3510  1.0761
   59MOL0     H 7775   6.048   9.071   3.182 -3.0892  2.5783 -2.9381
   59MOL0     H 7776   5.989   8.422   3.067 -0.1439 -2.4334  0.4018
   59MOL0     H 7777   5.823   8.268   3.168  0.1504  0.5257 -1.5087
   59MOL0     H 7778   5.637   8.140   3.287 -1.0630 -1.0021  1.9789
   59MOL0     H 7779   5.559   8.297   3.228  0.0631  1.7426  0.6498
   59MOL0     H 7780   5.410   8.139   3.346 -0.0869  1.1170 -2.0029
   59MOL0     H 7781   5.512   8.145   3.497  0.4761 -3.7966 -1.9288
   59MOL0     H 7782   5.349   8.384   3.365 -0.0583  2.0585  1.0695
   59MOL0     H 7783   5.471   8.406   3.487 -0.0503  0.0973 -1.6175
   59MOL0     H 7784   5.242   8.198   3.492 -1.2598  0.4612  1.1041
   59MOL0     H 7785   5.347   8.252   3.624  2.1816  2.8908  0.1691
   59MOL0     H 7786   4.996   8.491   3.656  0.2126 -0.4174  1.4122
   59MOL0     H 7787   5.730   8.580   3.458  0.8387  1.2946 -1.0996
   59MOL0     H 7788   5.865   8.734   3.317 -1.6310  0.3281 -3.1541
   60MOL0     O 7789   1.983   1.775   9.503  0.4973 -0.2793  0.4076
   60MOL0     C 7790   2.009   1.686   9.423 -0.1781  0.1281  0.5175
   60MOL0     O 7791   1.998   1.692   9.291  0.8440  0.7004 -0.1258
   60MOL0     C 7792   1.958   1.799   9.224  0.2417  0.6192 -0.0946
   60MOL0     C 7793   2.040   1.883   9.146  0.0056 -1.0252 -0.6241
   60MOL0     C 7794   1.988   1.995   9.083 -0.5268 -0.4279  0.1418
   60MOL0     C 7795   1.857   2.038   9.105 -0.4688 -0.0955  0.8288
   60MOL0     O 7796   1.828   2.165   9.054 -0.5476 -0.2286  0.6249
   60MOL0     C 7797   1.718   2.178   8.970  0.1273  0.3652 -0.1930
   60MOL0     C 7798   1.706   2.334   8.952  0.7601  0.2335  0.4473
   60MOL0     C 7799   1.581   2.375   8.873  0.2722 -1.2661  0.8701
   60MOL0     C 7800   1.528   2.506   8.915 -0.1834 -1.3176  0.5469
   60MOL0     C 7801   1.455   2.590   8.804 -0.2615  0.5023 -0.8901
   60MOL0     C 7802   1.373   2.504   8.719 -0.6633  0.0112 -0.4510
   60MOL0     C 7803   1.274   2.586   8.647  0.0529 -0.4685  0.6900
   60MOL0     C 7804   1.184   2.520   8.536  0.2693  0.6928 -0.1291
   60MOL0     N 7805   1.135   2.388   8.567  0.4186  0.5752  0.2710
   60MOL0     C 7806   1.185   2.270   8.508 -1.1140  0.0319 -0.1148
   60MOL0     C 7807   1.102   2.177   8.551 -0.2292 -0.8760  0.0074
   60MOL0     C 7808   1.105   2.028   8.546 -0.8403 -0.2114 -0.3428
   60MOL0     C 7809   1.180   1.964   8.666 -0.2902 -0.4402  0.6565
   60MOL0     C 7810   1.182   1.819   8.647 -0.7879 -0.6868 -0.1246
   60MOL0     C 7811   1.281   1.746   8.748 -0.5871 -0.5906 -0.0732
   60MOL0     O 7812   1.211   1.759   8.877 -0.0927 -0.8458  0.2726
   60MOL0     C 7813   1.282   1.717   8.986 -0.6011  0.2047  0.8227
   60MOL0     C 7814   1.413   1.770   9.021 -0.2409  0.6344  0.3645
   60MOL0     C 7815   1.481   1.708   9.125 -1.2360 -0.4113  0.1474
   60MOL0     C 7816   1.422   1.601   9.193 -0.9069  0.1661  1.2914
   60MOL0     C 7817   1.508   1.514   9.281 -0.0622 -0.1437 -0.5148
   60MOL0     O 7818   1.445   1.430   9.381 -0.8315  0.8635  0.7879
   60MOL0     C 7819   1.518   1.334   9.442 -0.4851  0.0837  0.0992
   60MOL0     C 7820   1.582   1.242   9.359 -0.2975  0.2169 -0.3588
   60MOL0     C 7821   1.656   1.137   9.414 -0.4138  0.9750 -0.5328
   60MOL0     C 7822   1.681   1.130   9.544 -0.4928 -0.2068  0.7649
   60MOL0     O 7823   1.756   1.039   9.604 -0.4060  0.1877 -0.5539
   60MOL0     C 7824   1.828   0.935   9.537 -0.4263  0.4555 -0.6312
   60MOL0     C 7825   1.930   0.857   9.628 -0.1958  0.0510  0.6796
   60MOL0     C 7826   2.011   0.746   9.567 -0.0015 -0.7609  0.6529
   60MOL0     C 7827   2.102   0.816   9.455 -0.0407 -0.2702  0.8418
   60MOL0     C 7828   2.196   0.706   9.405 -0.0782 -0.1609 -0.2267
   60MOL0     C 7829   2.321   0.678   9.484  0.4422 -0.0423  0.7530
   60MOL0     C 7830   2.428   0.619   9.390  0.1887 -1.1600 -0.3116
   60MOL0     C 7831   2.529   0.533   9.468 -0.3304  1.4252 -0.2559
   60MOL0    Cl 7832   2.448   0.400   9.550  0.0377 -0.7205 -0.3721
   60MOL0     C 7833   1.638   1.230   9.629  0.9021 -0.9401 -0.5480
   60MOL0     C 7834   1.546   1.327   9.581 -0.6789  0.3816  0.1040
   60MOL0     O 7835   1.625   1.506   9.247 -0.2270 -0.3859  0.2646
   60MOL0     C 7836   1.294   1.552   9.153  0.0998  0.0112 -0.6284
   60MOL0     C 7837   1.221   1.608   9.054  0.5196 -0.5656 -0.1495
   60MOL0     N 7838   1.000   2.229   8.625  0.3492 -0.7751  0.4778
   60MOL0     N 7839   1.020   2.353   8.622 -0.7903 -0.1876 -0.0540
   60MOL0     C 7840   1.775   1.964   9.173  0.0820  0.9539 -1.6224
   60MOL0     C 7841   1.822   1.841   9.233  0.0185  1.0944  0.7312
   60MOL0     C 7842   2.043   1.556   9.492 -0.0921 -0.6032  0.1414
   60MOL0     C 7843   1.965   1.443   9.476  0.0507  1.1449 -0.0637
   60MOL0     C 7844   1.998   1.321   9.533 -0.2145  0.6077  0.3680
   60MOL0     C 7845   2.094   1.312   9.624  0.1465  0.4100  0.0740
   60MOL0     O 7846   2.115   1.190   9.676  0.7573 -0.5565 -0.7124
   60MOL0     C 7847   2.222   1.159   9.764 -0.3410 -0.2229 -1.2157
   60MOL0     C 7848   2.363   1.151   9.706 -0.8686 -0.3838  1.3638
   60MOL0     C 7849   2.388   1.007   9.661 -0.6631  0.1392  0.1200
   60MOL0     C 7850   2.535   0.976   9.649 -1.2320 -0.7868  0.5983
   60MOL0     C 7851   2.582   0.959   9.514  0.4660  0.3504 -0.5483
   60MOL0     C 7852   2.623   0.943   9.395  0.6821  0.7495 -1.1151
   60MOL0     C 7853   2.166   1.430   9.656  0.3849  0.3801 -0.5746
   60MOL0     C 7854   2.144   1.553   9.592  0.8977  0.8193 -0.3771
   60MOL0     H 7855   2.144   1.854   9.131  0.0729 -0.5597 -1.0656
   60MOL0     H 7856   2.057   2.056   9.026 -3.3755  1.4476 -1.5769
   60MOL0     H 7857   1.628   2.137   9.016  1.6729 -2.3768  0.6185
   60MOL0     H 7858   1.727   2.124   8.875 -1.8080  0.9043 -0.7362
   60MOL0     H 7859   1.799   2.368   8.907 -0.2408  0.1037 -1.8661
   60MOL0     H 7860   1.694   2.391   9.044 -0.5090  3.4954 -1.5541
   60MOL0     H 7861   1.504   2.300   8.858  1.8292 -2.4588 -1.7714
   60MOL0     H 7862   1.617   2.403   8.774 -1.6520 -2.8326 -0.3320
   60MOL0     H 7863   1.460   2.485   8.998  0.7570 -2.6050  1.0197
   60MOL0     H 7864   1.606   2.566   8.962 -1.3195 -2.2374  3.8627
   60MOL0     H 7865   1.530   2.631   8.735 -0.9898  3.5544  0.0027
   60MOL0     H 7866   1.403   2.671   8.854 -1.6465 -2.1271  2.3394
   60MOL0     H 7867   1.315   2.430   8.776  0.8210 -1.9099 -1.3148
   60MOL0     H 7868   1.434   2.441   8.654 -1.0365 -1.0798  0.2183
   60MOL0     H 7869   1.211   2.631   8.725  0.4709  1.6857 -0.1496
   60MOL0     H 7870   1.321   2.676   8.606  2.2008 -0.1335  3.5510
   60MOL0     H 7871   1.226   2.521   8.436 -0.5175  0.0688 -0.4821
   60MOL0     H 7872   1.100   2.588   8.521 -1.0477 -0.5274  1.3146
   60MOL0     H 7873   1.274   2.248   8.450 -1.3946 -3.2458  0.4979
   60MOL0     H 7874   1.142   1.993   8.449 -0.8340 -0.7899 -0.1331
   60MOL0     H 7875   1.002   1.990   8.545 -0.1368 -2.3624  1.5122
   60MOL0     H 7876   1.122   1.990   8.755  0.1493  0.5340  0.6668
   60MOL0     H 7877   1.281   2.004   8.677 -1.2672  1.8725  1.8502
   60MOL0     H 7878   1.086   1.772   8.672  0.5871 -4.0903 -0.6414
   60MOL0     H 7879   1.209   1.791   8.545 -0.1771  0.1786 -0.2045
   60MOL0     H 7880   1.374   1.803   8.740 -0.7315 -0.4138 -0.5096
   60MOL0     H 7881   1.313   1.645   8.722  1.4789 -0.4572  1.5922
   60MOL0     H 7882   1.459   1.852   8.967  0.5545  0.1493  0.2824
   60MOL0     H 7883   1.582   1.738   9.151 -1.5096  0.0185  0.7446
   60MOL0     H 7884   1.560   1.234   9.252 -0.3391 -1.2979 -0.2572
   60MOL0     H 7885   1.702   1.072   9.341  0.0017 -0.6460  1.1067
   60MOL0     H 7886   1.887   0.985   9.460 -1.9832  3.6589  0.0878
   60MOL0     H 7887   1.764   0.859   9.491  1.1933 -0.4532 -1.4339
   60MOL0     H 7888   1.881   0.808   9.713 -1.2163  0.6961  0.4889
   60MOL0     H 7889   1.996   0.933   9.669 -1.7243  1.1680  1.1853
   60MOL0     H 7890   1.948   0.666   9.527 -0.4832 -1.6272  2.9904
   60MOL0     H 7891   2.078   0.702   9.641  3.3156 -1.2847 -2.3386
   60MOL0     H 7892   2.034   0.853   9.377  1.3658 -0.6602 -0.6222
   60MOL0     H 7893   2.151   0.905   9.495 -2.6430  1.1109  1.1589
   60MOL0     H 7894   2.227   0.749   9.310 -0.5141  5.6599  1.8354
   60MOL0     H 7895   2.139   0.614   9.389 -1.6126  0.8769 -0.9940
   60MOL0     H 7896   2.288   0.624   9.573  1.6450 -0.4488  0.9692
   60MOL0     H 7897   2.373   0.769   9.515 -0.2388  1.5515 -2.3962
   60MOL0     H 7898   2.388   0.558   9.309 -1.2483 -1.5371  0.6548
   60MOL0     H 7899   2.494   0.697   9.351  0.2544  0.0302  2.0029
   60MOL0     H 7900   2.582   0.599   9.538  0.1827 -1.3086  2.0988
   60MOL0     H 7901   2.611   0.491   9.409  0.9330  1.8297  1.1425
   60MOL0     H 7902   1.674   1.223   9.731  0.9427 -0.3946 -0.5191
   60MOL0     H 7903   1.503   1.411   9.635  0.0432  0.6469  0.2792
   60MOL0     H 7904   1.267   1.456   9.196  0.4909 -0.8280 -2.1787
   60MOL0     H 7905   1.128   1.557   9.030 -1.1871  0.6091  3.3804
   60MOL0     H 7906   1.670   1.989   9.189 -0.3701 -1.0968 -1.1931
   60MOL0     H 7907   1.758   1.785   9.300  1.7749  1.7158  3.0720
   60MOL0     H 7908   1.887   1.451   9.400 -0.0221  0.4648 -0.0692
   60MOL0     H 7909   1.948   1.226   9.516 -1.0957  0.7962  1.7530
   60MOL0     H 7910   2.197   1.067   9.819  0.8298  0.1031 -0.0973
   60MOL0     H 7911   2.242   1.239   9.835 -1.3344  1.3704 -2.6585
   60MOL0     H 7912   2.376   1.210   9.615 -2.4408 -0.7136  0.8891
   60MOL0     H 7913   2.437   1.187   9.777  1.2194  0.2924 -1.0314
   60MOL0     H 7914   2.332   0.989   9.569 -1.4607  3.9887 -0.3241
   60MOL0     H 7915   2.358   0.927   9.729 -0.1734 -0.0567  0.1111
   60MOL0     H 7916   2.594   1.063   9.677  1.7139 -1.9294 -1.5330
   60MOL0     H 7917   2.566   0.896   9.716 -0.8536 -2.0190 -0.9895
   60MOL0     H 7918   2.642   0.917   9.293 -2.6956 -2.8053 -1.0815
   60MOL0     H 7919   2.236   1.418   9.738 -2.2713  0.6745  1.8940
   60MOL0     H 7920   2.198   1.642   9.621  0.1694  1.0315  0.3813
   61MOL0     O 7921   9.175   2.198   5.321 -0.1042  0.0098  0.0107
   61MOL0     C 7922   9.084   2.226   5.408  1.6467 -0.5721 -1.1815
   61MOL0     O 7923   9.091   2.325   5.505  0.9154 -0.1047  0.1450
   61MOL0     C 7924   9.201   2.405   5.507  1.3055 -1.2084 -0.3809
   61MOL0     C 7925   9.336   2.367   5.500 -0.6754  0.1548 -1.0139
   61MOL0     C 7926   9.429   2.466   5.471  0.2308 -0.1892 -0.4259
   61MOL0     C 7927   9.395   2.605   5.479  0.0589 -1.0599  0.1825
   61MOL0     O 7928   9.479   2.711   5.480 -0.2423 -1.2949 -0.4603
   61MOL0     C 7929   9.608   2.695   5.423 -0.0064 -0.4104  0.1954
   61MOL0     C 7930   9.676   2.827   5.404 -0.0222  0.0867  0.9929
   61MOL0     C 7931   9.830   2.821   5.379  0.6055  0.0570  0.3635
   61MOL0     C 7932   9.851   2.744   5.246  0.0938  0.3874  0.1829
   61MOL0     C 7933   9.993   2.778   5.183 -0.3452  0.0576 -0.9271
   61MOL0     C 7934  10.039   2.681   5.076  0.1791  0.0052 -0.6604
   61MOL0     C 7935  10.105   2.548   5.120 -0.3959  0.7250  0.5303
   61MOL0     C 7936  10.012   2.432   5.161 -0.4332  0.9017  0.6396
   61MOL0     N 7937  10.082   2.310   5.162  0.1702 -0.0421 -0.1556
   61MOL0     C 7938  10.072   2.211   5.072 -0.5596 -0.1630  0.0310
   61MOL0     C 7939  10.176   2.126   5.090  0.9996  0.0962  0.2470
   61MOL0     C 7940  10.185   1.997   5.004 -1.2650 -0.2883  0.2686
   61MOL0     C 7941  10.281   1.899   5.082  0.3809 -1.1272  0.8035
   61MOL0     C 7942  10.438   1.937   5.064 -0.4081 -0.7530 -0.1480
   61MOL0     C 7943  10.483   1.940   4.923 -0.7780  0.5793 -0.4800
   61MOL0     O 7944  10.614   1.888   4.912 -0.0663  0.1668  0.5748
   61MOL0     C 7945  10.708   1.982   4.954 -0.2967  0.3943  0.3617
   61MOL0     C 7946  10.835   1.926   4.957  0.6410 -0.1120  0.6491
   61MOL0     C 7947  10.950   1.998   4.999  1.1147  0.6243  0.3929
   61MOL0     C 7948  10.942   2.139   5.026  1.3530 -0.6371  0.5004
   61MOL0     C 7949  11.066   2.220   5.065 -0.2205  0.1338 -0.6792
   61MOL0     O 7950  11.178   2.154   5.094 -0.0933 -0.5835  1.2986
   61MOL0     C 7951  11.293   2.212   5.136  0.5260  0.6906  0.2578
   61MOL0     C 7952  11.397   2.187   5.056  0.2366  0.2876 -0.3019
   61MOL0     C 7953  11.515   2.257   5.072  0.3063  0.2435 -0.0906
   61MOL0     C 7954  11.536   2.336   5.181 -0.9507 -0.1022  0.4733
   61MOL0     O 7955  11.666   2.379   5.198  0.2557 -0.2568 -0.4116
   61MOL0     C 7956  11.689   2.500   5.272  0.0994 -0.5259 -0.4269
   61MOL0     C 7957  11.794   2.490   5.384 -0.7451  0.3517 -0.0311
   61MOL0     C 7958  11.766   2.387   5.490  0.1604 -0.6949 -0.3573
   61MOL0     C 7959  11.875   2.375   5.597 -1.4454  0.4640  0.1685
   61MOL0     C 7960  11.903   2.492   5.686  0.6113  1.2964  0.6176
   61MOL0     C 7961  12.018   2.461   5.774 -0.0781  0.2740 -0.1025
   61MOL0     C 7962  12.158   2.454   5.702  0.0881 -0.0150 -0.3272
   61MOL0     C 7963  12.277   2.509   5.792  0.6190  0.0103  0.1051
   61MOL0    Cl 7964  12.313   2.399   5.924 -0.3110  0.1282  0.0195
   61MOL0     C 7965  11.427   2.363   5.264  0.0022 -0.8688 -0.6255
   61MOL0     C 7966  11.303   2.298   5.243 -0.8795  0.5316 -0.0266
   61MOL0     O 7967  11.053   2.337   5.077  0.2481 -0.4557 -0.4915
   61MOL0     C 7968  10.817   2.194   5.015  1.3974 -1.7391  0.0252
   61MOL0     C 7969  10.697   2.118   4.980  0.8606 -0.3313  0.0490
   61MOL0     N 7970  10.251   2.170   5.203 -0.3030  0.3936  0.3482
   61MOL0     N 7971  10.194   2.284   5.235  1.2895 -0.9137 -0.4105
   61MOL0     C 7972   9.267   2.645   5.490  0.2501 -0.1059 -0.3937
   61MOL0     C 7973   9.170   2.544   5.493 -0.3452  0.7072 -1.0459
   61MOL0     C 7974   8.973   2.130   5.421  1.0161  0.0286 -0.0757
   61MOL0     C 7975   8.975   2.009   5.353  0.8060  0.3223  0.0902
   61MOL0     C 7976   8.880   1.910   5.370 -1.3093  0.3564 -0.0858
   61MOL0     C 7977   8.776   1.924   5.462  0.3299  0.4082  0.0991
   61MOL0     O 7978   8.675   1.831   5.465 -0.0102  0.0141  0.3708
   61MOL0     C 7979   8.561   1.864   5.548 -0.9005 -1.4306 -0.4792
   61MOL0     C 7980   8.438   1.801   5.493  0.0682  0.0869 -0.1774
   61MOL0     C 7981   8.345   1.755   5.614 -0.1042  0.8531 -0.3865
   61MOL0     C 7982   8.408   1.638   5.688 -0.5587  0.0007  0.2433
   61MOL0     C 7983   8.308   1.553   5.747 -0.0154 -0.7667  0.4034
   61MOL0     C 7984   8.226   1.472   5.780  0.9019 -0.6375  0.0298
   61MOL0     C 7985   8.780   2.040   5.542 -0.2228  0.6524 -0.9935
   61MOL0     C 7986   8.876   2.146   5.523  0.7132  0.6915 -0.0777
   61MOL0     H 7987   9.361   2.268   5.539 -0.0742  1.6898  2.8999
   61MOL0     H 7988   9.534   2.440   5.465  1.0169  2.6959 -0.4133
   61MOL0     H 7989   9.594   2.653   5.323 -2.4960  2.5155 -0.8511
   61MOL0     H 7990   9.674   2.635   5.485  0.8551  0.3490  0.0318
   61MOL0     H 7991   9.658   2.896   5.488  2.9831  3.5546 -0.9221
   61MOL0     H 7992   9.638   2.889   5.322 -1.1133  0.6766  1.9128
   61MOL0     H 7993   9.878   2.764   5.460 -4.3379 -1.2303  2.7480
   61MOL0     H 7994   9.878   2.919   5.371  0.8336 -0.2124 -2.7160
   61MOL0     H 7995   9.838   2.636   5.255  0.8116 -0.0071 -2.5606
   61MOL0     H 7996   9.774   2.767   5.172  1.0005  1.1615 -0.5473
   61MOL0     H 7997  10.068   2.788   5.262 -1.2279  0.9286 -0.1758
   61MOL0     H 7998   9.986   2.877   5.136 -1.4448 -0.1238 -1.1848
   61MOL0     H 7999  10.107   2.732   5.008  0.4796  0.0342 -0.3415
   61MOL0     H 8000   9.948   2.654   5.022 -0.1008 -2.6913  0.9462
   61MOL0     H 8001  10.183   2.520   5.049 -0.6675  1.7793 -0.2143
   61MOL0     H 8002  10.156   2.575   5.212  1.1474  0.3203 -0.1816
   61MOL0     H 8003   9.927   2.422   5.092 -0.7666  1.8867  0.8954
   61MOL0     H 8004   9.973   2.457   5.260  0.1090  0.9408  0.8452
   61MOL0     H 8005  10.008   2.198   4.986  0.1299  1.2184 -0.7267
   61MOL0     H 8006  10.217   2.015   4.901  3.5734  1.0602  1.7455
   61MOL0     H 8007  10.088   1.946   5.006 -1.7695  0.6341 -0.0608
   61MOL0     H 8008  10.271   1.801   5.034 -1.1957 -1.8615  2.5292
   61MOL0     H 8009  10.260   1.895   5.189 -3.2422  2.7178  0.4865
   61MOL0     H 8010  10.469   2.021   5.127  3.3793 -2.3849  0.4427
   61MOL0     H 8011  10.483   1.848   5.109 -0.3908 -0.1201  1.1267
   61MOL0     H 8012  10.476   2.037   4.872 -1.5541  0.7821 -0.0086
   61MOL0     H 8013  10.406   1.877   4.875 -0.6313  0.0431 -0.0256
   61MOL0     H 8014  10.848   1.826   4.918 -1.8295  0.5783 -2.3137
   61MOL0     H 8015  11.044   1.945   5.014  0.7280 -0.2380 -0.1849
   61MOL0     H 8016  11.378   2.120   4.973 -2.5734 -2.0299  1.9815
   61MOL0     H 8017  11.581   2.265   4.987 -1.2610  0.8628 -1.3109
   61MOL0     H 8018  11.595   2.549   5.298  0.1995 -0.5089 -0.0784
   61MOL0     H 8019  11.738   2.566   5.200 -2.1769  0.6711 -0.9310
   61MOL0     H 8020  11.798   2.591   5.428 -3.6320  0.1365  0.9488
   61MOL0     H 8021  11.892   2.461   5.346 -0.2786  0.6575  0.9048
   61MOL0     H 8022  11.764   2.289   5.441  3.5699 -0.6693 -0.7624
   61MOL0     H 8023  11.667   2.403   5.533 -0.2064 -1.7222 -0.7684
   61MOL0     H 8024  11.855   2.289   5.662  0.1638 -1.5826 -1.8435
   61MOL0     H 8025  11.969   2.348   5.546 -2.1861 -2.0048 -0.0317
   61MOL0     H 8026  11.816   2.513   5.749 -2.0017 -1.4895 -1.7283
   61MOL0     H 8027  11.911   2.580   5.620 -1.9914  0.6247 -0.7238
   61MOL0     H 8028  12.001   2.359   5.809 -1.8135  0.2005 -1.0417
   61MOL0     H 8029  12.024   2.539   5.850  0.0660  1.7857 -1.6049
   61MOL0     H 8030  12.167   2.351   5.665  1.7492  0.5604 -1.6008
   61MOL0     H 8031  12.155   2.513   5.610 -0.2424  1.9326  0.8708
   61MOL0     H 8032  12.247   2.601   5.844  0.8106 -1.2099  2.5316
   61MOL0     H 8033  12.365   2.531   5.732  1.6392 -1.8738  0.8300
   61MOL0     H 8034  11.436   2.430   5.349 -0.5233  1.2267 -2.1527
   61MOL0     H 8035  11.223   2.293   5.317  1.2894 -2.6502  2.3193
   61MOL0     H 8036  10.811   2.300   5.041 -1.0437 -1.4789 -1.3698
   61MOL0     H 8037  10.601   2.168   4.973  0.2330 -1.1583  2.1113
   61MOL0     H 8038   9.239   2.750   5.484  0.1539  0.0421  1.8176
   61MOL0     H 8039   9.068   2.569   5.519 -0.8690 -2.5166  0.5365
   61MOL0     H 8040   9.062   1.985   5.292  1.5498  2.2139  0.3497
   61MOL0     H 8041   8.888   1.817   5.315 -2.3319  1.0241 -1.4440
   61MOL0     H 8042   8.540   1.971   5.543  1.0657 -0.9794 -0.0186
   61MOL0     H 8043   8.571   1.841   5.654  3.7811 -0.5630 -0.5022
   61MOL0     H 8044   8.379   1.877   5.441  1.7990  2.3638  0.9916
   61MOL0     H 8045   8.465   1.716   5.429  3.1671 -1.3553  2.6928
   61MOL0     H 8046   8.253   1.722   5.563  0.6072  0.7614 -1.6484
   61MOL0     H 8047   8.322   1.839   5.680  1.3392 -0.0957  1.4069
   61MOL0     H 8048   8.467   1.585   5.612 -2.0432 -1.3349 -0.0532
   61MOL0     H 8049   8.492   1.663   5.752 -0.0559  0.7082 -0.6641
   61MOL0     H 8050   8.156   1.396   5.809  2.6225 -1.8498  1.1921
   61MOL0     H 8051   8.701   2.051   5.616 -0.2610 -1.1355 -0.7139
   61MOL0     H 8052   8.864   2.241   5.573 -0.9455  0.6434 -0.3112
   62MOL0     O 8053   8.680   5.208   6.314 -1.0180 -0.0827 -0.1322
   62MOL0     C 8054   8.730   5.100   6.316 -0.3639 -0.4442 -0.9019
   62MOL0     O 8055   8.830   5.054   6.223  0.9314  0.4076  0.4301
   62MOL0     C 8056   8.879   5.139   6.118 -0.9620 -0.1793 -0.7811
   62MOL0     C 8057   8.879   5.281   6.122  0.6904  0.3530 -0.3940
   62MOL0     C 8058   8.941   5.357   6.020 -0.4811 -0.6317  0.7004
   62MOL0     C 8059   9.001   5.290   5.915  0.5305 -0.4370  0.4871
   62MOL0     O 8060   9.042   5.361   5.804  0.5049 -0.4153  0.1732
   62MOL0     C 8061   9.152   5.315   5.730 -0.1003  0.0471 -0.0617
   62MOL0     C 8062   9.279   5.337   5.813 -0.2070  0.1176 -0.4778
   62MOL0     C 8063   9.416   5.288   5.746  0.2162  0.1716 -0.2397
   62MOL0     C 8064   9.513   5.269   5.854 -0.4414  0.4550  0.1995
   62MOL0     C 8065   9.646   5.202   5.804  0.0537  0.5298  0.3166
   62MOL0     C 8066   9.762   5.285   5.769  0.1591  0.2539 -0.6799
   62MOL0     C 8067   9.901   5.214   5.793  0.2642  1.4378 -0.7877
   62MOL0     C 8068   9.920   5.104   5.687 -0.6158 -0.0868 -0.1439
   62MOL0     N 8069  10.052   5.035   5.690 -0.6434 -0.3880  0.1410
   62MOL0     C 8070  10.117   5.010   5.812 -0.0195 -0.8911  0.2141
   62MOL0     C 8071  10.236   4.957   5.781  0.6449 -0.3174 -0.5592
   62MOL0     C 8072  10.337   4.899   5.873 -0.1175  0.1136  0.2819
   62MOL0     C 8073  10.284   4.759   5.916 -0.4263 -0.0037 -0.3398
   62MOL0     C 8074  10.288   4.653   5.795 -0.2565 -0.6869 -0.0820
   62MOL0     C 8075  10.150   4.590   5.782 -1.2377  0.3555  0.0109
   62MOL0     O 8076  10.135   4.475   5.700 -0.6303  0.4871  0.1372
   62MOL0     C 8077  10.181   4.489   5.572 -0.4884 -0.1674  0.0363
   62MOL0     C 8078  10.199   4.614   5.508  0.8725  0.1663 -0.2224
   62MOL0     C 8079  10.247   4.620   5.378 -0.6677 -0.4613  0.2833
   62MOL0     C 8080  10.283   4.510   5.295  0.2175  0.4162 -0.5353
   62MOL0     C 8081  10.335   4.515   5.159 -0.3690 -0.8476  0.6248
   62MOL0     O 8082  10.318   4.632   5.091  0.3821  0.7467  0.3222
   62MOL0     C 8083  10.320   4.651   4.956  0.5255  1.0362 -0.6383
   62MOL0     C 8084  10.310   4.541   4.868 -0.4388 -0.0645 -0.2166
   62MOL0     C 8085  10.289   4.569   4.733 -0.5377 -0.2725 -0.1854
   62MOL0     C 8086  10.268   4.698   4.690  0.1278 -0.2920 -0.1150
   62MOL0     O 8087  10.271   4.736   4.560  1.3402 -0.9405 -0.2601
   62MOL0     C 8088  10.241   4.652   4.445  0.4911 -0.3203 -0.1901
   62MOL0     C 8089  10.091   4.612   4.434  0.2752  0.3527  0.4374
   62MOL0     C 8090  10.008   4.744   4.427 -0.2597  0.3739  0.8301
   62MOL0     C 8091   9.865   4.711   4.416 -0.6167 -0.4325 -0.2899
   62MOL0     C 8092   9.776   4.829   4.448  0.3727 -0.4262  0.5107
   62MOL0     C 8093   9.645   4.776   4.504 -0.6307  0.0592  0.6160
   62MOL0     C 8094   9.531   4.877   4.518 -0.5655 -0.3746  0.7307
   62MOL0     C 8095   9.438   4.884   4.393 -0.3457 -0.1242 -0.5156
   62MOL0    Cl 8096   9.275   4.954   4.433 -0.0495  0.0432 -0.5560
   62MOL0     C 8097  10.286   4.807   4.778  0.3858 -0.2694 -0.2606
   62MOL0     C 8098  10.317   4.785   4.907  0.0516 -0.3077 -0.1062
   62MOL0     O 8099  10.384   4.414   5.109 -0.1010 -0.1701  1.2615
   62MOL0     C 8100  10.254   4.392   5.361 -0.8676  0.8842  0.0331
   62MOL0     C 8101  10.216   4.381   5.500  0.0732 -0.2541  0.4086
   62MOL0     N 8102  10.227   4.938   5.644  0.5656 -0.8672  0.6796
   62MOL0     N 8103  10.122   4.991   5.592  1.0040  0.5988 -0.5781
   62MOL0     C 8104   9.005   5.149   5.909 -0.0909 -0.2733 -0.0005
   62MOL0     C 8105   8.944   5.073   6.012 -0.2423 -1.1378 -0.6639
   62MOL0     C 8106   8.692   5.008   6.422 -0.7045  0.8171 -0.2074
   62MOL0     C 8107   8.597   5.040   6.521 -0.4165  0.3876  0.8923
   62MOL0     C 8108   8.561   4.945   6.615 -0.0126 -0.0157  1.2255
   62MOL0     C 8109   8.618   4.816   6.621 -0.2270  0.3936 -0.2989
   62MOL0     O 8110   8.587   4.703   6.692  0.5446  0.1258  0.0438
   62MOL0     C 8111   8.521   4.734   6.821  0.3057  0.2474 -0.4922
   62MOL0     C 8112   8.615   4.757   6.950  0.8942 -0.0942 -0.1236
   62MOL0     C 8113   8.698   4.636   7.003  0.3871  0.4616  0.0647
   62MOL0     C 8114   8.832   4.625   6.935  0.4259 -0.4074 -0.4848
   62MOL0     C 8115   8.876   4.492   6.926  0.2253 -0.2742  0.9448
   62MOL0     C 8116   8.905   4.375   6.915  0.2341 -0.1865  0.6231
   62MOL0     C 8117   8.719   4.787   6.537  0.4937  0.0418  0.4464
   62MOL0     C 8118   8.744   4.879   6.428 -0.5795 -0.4912  0.6604
   62MOL0     H 8119   8.841   5.337   6.208  4.4066  1.4192  0.7555
   62MOL0     H 8120   8.935   5.465   6.007 -4.0607 -0.6336  1.4146
   62MOL0     H 8121   9.148   5.381   5.644 -0.1229  0.9729  0.6411
   62MOL0     H 8122   9.136   5.211   5.699 -1.0991  0.4277 -0.8995
   62MOL0     H 8123   9.266   5.278   5.904  4.5991  1.5058  1.4442
   62MOL0     H 8124   9.297   5.442   5.839 -0.5998 -0.2798  1.5511
   62MOL0     H 8125   9.461   5.354   5.671  4.7222  0.6934  2.5325
   62MOL0     H 8126   9.394   5.197   5.690  1.1394  2.1569 -4.2182
   62MOL0     H 8127   9.533   5.368   5.896 -2.1371  1.9231 -2.2107
   62MOL0     H 8128   9.475   5.191   5.922 -2.6294  0.0812 -1.3547
   62MOL0     H 8129   9.625   5.116   5.740  2.3567  1.2407 -1.5209
   62MOL0     H 8130   9.681   5.161   5.899  1.7881 -1.0962 -0.9580
   62MOL0     H 8131   9.761   5.369   5.838  1.5650 -2.1467  2.5108
   62MOL0     H 8132   9.761   5.323   5.666  0.4779 -0.4922 -0.9693
   62MOL0     H 8133   9.987   5.281   5.783 -0.0792  2.3465  1.6231
   62MOL0     H 8134   9.914   5.167   5.891 -1.4110 -2.1096 -2.0808
   62MOL0     H 8135   9.898   5.158   5.595 -0.2235  2.3387  1.1036
   62MOL0     H 8136   9.839   5.032   5.702  1.4409 -2.3521  0.8587
   62MOL0     H 8137  10.074   5.021   5.911 -3.5861 -0.9509 -1.1641
   62MOL0     H 8138  10.332   4.956   5.966 -0.5390 -2.3719  1.8870
   62MOL0     H 8139  10.437   4.898   5.829  0.6390  0.1699  1.9125
   62MOL0     H 8140  10.182   4.759   5.956  0.2326 -2.8153  1.6091
   62MOL0     H 8141  10.357   4.726   5.990 -1.0695 -1.0650 -0.1481
   62MOL0     H 8142  10.331   4.699   5.706  1.3717  0.3123  1.1766
   62MOL0     H 8143  10.359   4.573   5.816 -0.1891 -0.5700  0.1377
   62MOL0     H 8144  10.090   4.675   5.746 -1.3032 -0.4375 -1.8687
   62MOL0     H 8145  10.110   4.562   5.880 -1.0996 -2.7393 -0.7082
   62MOL0     H 8146  10.172   4.708   5.555  1.0597  0.5646 -0.8945
   62MOL0     H 8147  10.264   4.721   5.342 -1.1169  0.4515  2.4624
   62MOL0     H 8148  10.307   4.435   4.892  1.1144 -0.0111  0.3318
   62MOL0     H 8149  10.267   4.483   4.670 -2.6025  0.0877 -0.0357
   62MOL0     H 8150  10.309   4.566   4.444  1.8104  0.6819  0.9197
   62MOL0     H 8151  10.266   4.705   4.352 -2.8000  0.9188 -0.4958
   62MOL0     H 8152  10.061   4.551   4.520 -0.6739 -2.6165 -1.8109
   62MOL0     H 8153  10.078   4.552   4.343  0.8327  1.4457 -0.3839
   62MOL0     H 8154  10.050   4.803   4.345 -2.6899  0.5278 -0.4036
   62MOL0     H 8155  10.028   4.805   4.516 -0.9399  1.1431  0.4603
   62MOL0     H 8156   9.845   4.674   4.315  3.1528 -1.1738 -0.9512
   62MOL0     H 8157   9.832   4.638   4.490 -2.0321  3.6122  3.5376
   62MOL0     H 8158   9.752   4.882   4.355  2.6830  1.3528  0.8086
   62MOL0     H 8159   9.823   4.895   4.522 -0.8895 -3.0042  3.8286
   62MOL0     H 8160   9.661   4.737   4.605 -3.0818 -0.9803  0.6637
   62MOL0     H 8161   9.614   4.684   4.452 -0.4628 -0.5227  1.5164
   62MOL0     H 8162   9.475   4.841   4.605  0.1575  0.0058  1.3518
   62MOL0     H 8163   9.561   4.976   4.552 -1.8612  0.4815 -0.4677
   62MOL0     H 8164   9.416   4.780   4.366  0.7849 -0.1158 -1.5085
   62MOL0     H 8165   9.490   4.922   4.305  0.2744 -0.7323 -0.4180
   62MOL0     H 8166  10.283   4.911   4.746  0.9216 -0.1021  0.2139
   62MOL0     H 8167  10.323   4.876   4.965 -0.2714 -1.0134  1.0556
   62MOL0     H 8168  10.275   4.301   5.304 -0.9494  2.9576 -3.6394
   62MOL0     H 8169  10.202   4.286   5.549  0.6975  0.6554  2.4510
   62MOL0     H 8170   9.041   5.091   5.824 -1.9876 -2.7081  0.7564
   62MOL0     H 8171   8.946   4.965   6.025 -2.8254 -1.0318  1.4864
   62MOL0     H 8172   8.566   5.142   6.503 -2.5652 -0.5957 -1.8479
   62MOL0     H 8173   8.499   4.977   6.698  2.6869 -0.2029  3.4652
   62MOL0     H 8174   8.463   4.643   6.841  0.9261  0.0273  0.3497
   62MOL0     H 8175   8.449   4.816   6.813 -0.2647  0.0568  1.8670
   62MOL0     H 8176   8.665   4.853   6.932  1.0472 -0.5779 -2.6450
   62MOL0     H 8177   8.546   4.783   7.031  3.1874  0.5577  1.7411
   62MOL0     H 8178   8.637   4.547   6.987 -0.6427  1.0182  0.7404
   62MOL0     H 8179   8.722   4.643   7.110  0.7705 -0.7464  0.0760
   62MOL0     H 8180   8.816   4.669   6.836 -0.3783 -1.1733 -0.7109
   62MOL0     H 8181   8.899   4.696   6.984 -0.7296  0.3482  0.0532
   62MOL0     H 8182   8.940   4.274   6.906  1.6957  0.5002 -2.9852
   62MOL0     H 8183   8.761   4.686   6.535  0.0782 -0.1160 -0.3676
   62MOL0     H 8184   8.825   4.846   6.364 -0.4768 -1.8414  1.4571
   63MOL0     O 8185   6.009   5.640   6.550  0.3917 -0.6397 -0.8310
   63MOL0     C 8186   6.102   5.706   6.513 -1.2996  1.4704  0.9707
   63MOL0     O 8187   6.129   5.729   6.391  0.0091 -0.2686 -0.1468
   63MOL0     C 8188   6.064   5.658   6.286 -0.0396  0.2353  0.2438
   63MOL0     C 8189   6.140   5.602   6.187  0.1121 -0.7789  0.3535
   63MOL0     C 8190   6.085   5.557   6.070 -0.2856  0.3989 -0.9549
   63MOL0     C 8191   5.943   5.552   6.047  0.4695 -0.8307 -1.2690
   63MOL0     O 8192   5.876   5.503   5.940 -0.8090 -0.3909 -0.3242
   63MOL0     C 8193   5.947   5.473   5.818  0.0387 -0.0122 -0.0795
   63MOL0     C 8194   5.953   5.592   5.722  0.0493  1.1363 -0.6470
   63MOL0     C 8195   6.003   5.575   5.585 -0.3018 -0.8483 -0.5048
   63MOL0     C 8196   6.136   5.517   5.568 -0.3826  0.3807 -0.6888
   63MOL0     C 8197   6.186   5.532   5.428  0.4305 -0.0220 -0.4292
   63MOL0     C 8198   6.165   5.415   5.326  0.1756 -0.5331  0.8574
   63MOL0     C 8199   6.015   5.398   5.289 -0.3269 -0.5993  0.1054
   63MOL0     C 8200   5.991   5.324   5.157 -1.0712  0.0205 -0.9955
   63MOL0     N 8201   5.897   5.399   5.080 -0.5577 -0.1930 -0.1160
   63MOL0     C 8202   5.929   5.456   4.959 -1.3779  0.3843  0.0683
   63MOL0     C 8203   5.812   5.496   4.908  0.1520 -0.5921  0.1033
   63MOL0     C 8204   5.779   5.564   4.777  0.3766 -0.5410  0.9893
   63MOL0     C 8205   5.631   5.528   4.739 -0.0487 -0.4678 -0.6283
   63MOL0     C 8206   5.595   5.578   4.602  0.0614 -0.0246 -0.6954
   63MOL0     C 8207   5.444   5.564   4.566  0.5689  0.6881  0.1550
   63MOL0     O 8208   5.441   5.583   4.420 -0.1267 -0.2970 -0.1684
   63MOL0     C 8209   5.327   5.618   4.360  0.0444  0.0608  0.0269
   63MOL0     C 8210   5.318   5.583   4.230  0.0388 -0.2457 -0.0482
   63MOL0     C 8211   5.202   5.597   4.152  0.2552  0.0818 -0.0619
   63MOL0     C 8212   5.084   5.641   4.218  0.4460  0.2389  0.0320
   63MOL0     C 8213   4.952   5.655   4.147 -0.1044 -0.2259  0.4449
   63MOL0     O 8214   4.841   5.695   4.226  0.4425 -0.1902 -0.0983
   63MOL0     C 8215   4.716   5.710   4.167  0.1305 -0.0637  0.7121
   63MOL0     C 8216   4.669   5.835   4.154  0.0899  1.3918 -0.6852
   63MOL0     C 8217   4.554   5.863   4.082  0.4777  0.8773 -0.3359
   63MOL0     C 8218   4.485   5.765   4.016 -0.2689 -0.4180 -1.0381
   63MOL0     O 8219   4.380   5.818   3.937  0.0514  0.2961 -0.3892
   63MOL0     C 8220   4.303   5.720   3.863 -0.4132 -0.4363  0.3787
   63MOL0     C 8221   4.206   5.642   3.954  0.0500 -0.5450 -0.5371
   63MOL0     C 8222   4.111   5.539   3.870  0.4210 -0.5566 -0.1158
   63MOL0     C 8223   3.986   5.499   3.953  0.5537 -0.3524 -0.8922
   63MOL0     C 8224   3.916   5.385   3.903  0.4834 -0.4372  0.1202
   63MOL0     C 8225   3.786   5.361   3.992 -0.1686 -0.1057  0.0772
   63MOL0     C 8226   3.678   5.277   3.907 -0.0738 -0.2844 -0.2971
   63MOL0     C 8227   3.570   5.211   3.985  0.4567  0.6733  0.1956
   63MOL0    Cl 8228   3.421   5.215   3.895  0.4214 -0.5172  0.0103
   63MOL0     C 8229   4.532   5.630   4.023 -0.6067  1.0317 -0.9383
   63MOL0     C 8230   4.647   5.610   4.099 -1.4042 -0.1371 -0.2169
   63MOL0     O 8231   4.947   5.622   4.029  0.3012 -0.4899 -0.3560
   63MOL0     C 8232   5.085   5.669   4.348 -0.5155  0.0953 -0.3464
   63MOL0     C 8233   5.207   5.659   4.426 -1.3600  0.1096  0.1924
   63MOL0     N 8234   5.713   5.465   5.003  0.7924 -0.3791  0.0709
   63MOL0     N 8235   5.768   5.420   5.108  0.3072 -0.5128 -0.1919
   63MOL0     C 8236   5.864   5.609   6.150 -0.3801  0.7330  0.8579
   63MOL0     C 8237   5.924   5.660   6.266 -0.3605 -0.5435 -0.0274
   63MOL0     C 8238   6.197   5.735   6.625 -0.5393 -0.4311 -0.6349
   63MOL0     C 8239   6.189   5.696   6.763 -0.0908  0.8967 -0.4376
   63MOL0     C 8240   6.291   5.727   6.855 -0.5778 -0.5416  0.1827
   63MOL0     C 8241   6.416   5.769   6.805 -0.0123 -0.9115  0.2712
   63MOL0     O 8242   6.528   5.771   6.886  0.3860 -0.2705 -0.2443
   63MOL0     C 8243   6.650   5.820   6.824 -0.3340  0.0829 -0.4388
   63MOL0     C 8244   6.766   5.808   6.922 -0.6920  0.3187 -0.2473
   63MOL0     C 8245   6.775   5.912   7.027 -0.5380  0.1185 -1.1392
   63MOL0     C 8246   6.911   5.929   7.092  0.7171 -1.0658 -0.4104
   63MOL0     C 8247   6.929   6.046   7.176 -0.2954  0.6297 -0.6885
   63MOL0     C 8248   6.943   6.140   7.251  0.4083 -0.5006  0.4373
   63MOL0     C 8249   6.426   5.804   6.670  0.6640  0.3822  0.4423
   63MOL0     C 8250   6.317   5.792   6.590  0.6448  0.6104  1.0049
   63MOL0     H 8251   6.248   5.604   6.200  0.1003  3.4084  0.9497
   63MOL0     H 8252   6.155   5.508   6.003  0.3869  0.1352 -0.0804
   63MOL0     H 8253   5.909   5.384   5.767  1.0929 -1.7390  1.9648
   63MOL0     H 8254   6.047   5.438   5.844 -0.5372 -1.5888  0.1341
   63MOL0     H 8255   6.026   5.659   5.768  3.0190 -2.2457 -0.0536
   63MOL0     H 8256   5.855   5.642   5.718 -0.5834  0.1115  0.9345
   63MOL0     H 8257   6.004   5.669   5.529  2.8869  0.0648  0.8721
   63MOL0     H 8258   5.928   5.519   5.527 -0.6139  1.0999 -2.0925
   63MOL0     H 8259   6.211   5.566   5.631  0.5865  1.8495 -2.8279
   63MOL0     H 8260   6.136   5.410   5.588 -2.9420  0.3176 -0.7057
   63MOL0     H 8261   6.295   5.528   5.429  0.4820 -1.7676 -2.8852
   63MOL0     H 8262   6.159   5.629   5.386 -2.5460  0.1293  1.5307
   63MOL0     H 8263   6.208   5.325   5.371 -0.5172 -2.4285 -2.0121
   63MOL0     H 8264   6.216   5.449   5.236 -0.2493  0.1077  0.8471
   63MOL0     H 8265   5.961   5.352   5.372  0.0846  0.7929  1.2074
   63MOL0     H 8266   5.978   5.501   5.285  2.8459  0.6901  0.5186
   63MOL0     H 8267   5.970   5.217   5.170 -1.8285  0.0771 -1.6683
   63MOL0     H 8268   6.087   5.332   5.105  0.1487 -0.1847  1.1041
   63MOL0     H 8269   6.031   5.474   4.926 -0.2967 -0.2011  2.7804
   63MOL0     H 8270   5.848   5.553   4.693  0.9385  1.5982  1.1194
   63MOL0     H 8271   5.771   5.670   4.804  2.8710 -0.1232  0.3872
   63MOL0     H 8272   5.562   5.561   4.816 -0.1407 -2.5368  0.2506
   63MOL0     H 8273   5.620   5.419   4.733 -0.5303 -0.5390  1.1382
   63MOL0     H 8274   5.619   5.684   4.605  0.3539 -0.1006 -0.1594
   63MOL0     H 8275   5.662   5.526   4.532  1.6746 -0.1592  0.8683
   63MOL0     H 8276   5.397   5.647   4.620 -0.3325  1.1693 -1.3214
   63MOL0     H 8277   5.403   5.472   4.609 -3.2616  2.7062  1.3599
   63MOL0     H 8278   5.401   5.540   4.175  0.1074  0.9270 -0.8950
   63MOL0     H 8279   5.200   5.576   4.045  1.3621  1.8835 -0.4872
   63MOL0     H 8280   4.723   5.915   4.203 -1.0819  2.7978 -1.6174
   63MOL0     H 8281   4.521   5.965   4.064 -2.7269 -0.1467 -0.9062
   63MOL0     H 8282   4.377   5.652   3.819 -0.9422 -1.4160  0.9669
   63MOL0     H 8283   4.263   5.765   3.772  4.8536 -0.4143 -2.3055
   63MOL0     H 8284   4.145   5.715   4.008  0.8786 -1.2055  1.3836
   63MOL0     H 8285   4.264   5.584   4.025 -0.7002  0.1361  0.6659
   63MOL0     H 8286   4.161   5.443   3.852 -1.9099 -1.6094 -1.3885
   63MOL0     H 8287   4.086   5.587   3.776 -2.1403  1.8183  1.6320
   63MOL0     H 8288   4.029   5.471   4.050  1.3553  2.8403 -0.2274
   63MOL0     H 8289   3.913   5.578   3.973  1.4608 -0.1316  2.0527
   63MOL0     H 8290   3.977   5.295   3.901 -1.4841 -1.8609  0.6912
   63MOL0     H 8291   3.882   5.415   3.803  0.0959  0.6738  0.5604
   63MOL0     H 8292   3.740   5.459   4.007 -1.4109 -0.3017 -2.1401
   63MOL0     H 8293   3.812   5.316   4.089 -1.8543  3.3273  2.3413
   63MOL0     H 8294   3.632   5.352   3.842  1.3812  1.8054  0.9587
   63MOL0     H 8295   3.729   5.198   3.852  0.0358  0.0520 -0.6847
   63MOL0     H 8296   3.551   5.269   4.077  0.5171  0.6137  0.2454
   63MOL0     H 8297   3.589   5.109   4.018 -2.7025  0.5457  2.0062
   63MOL0     H 8298   4.497   5.548   3.961 -0.5266 -0.5894  1.0404
   63MOL0     H 8299   4.694   5.513   4.097 -1.4040 -0.1715  0.9020
   63MOL0     H 8300   4.996   5.692   4.405 -0.2094  0.4089  0.0123
   63MOL0     H 8301   5.210   5.672   4.534 -1.4995  2.6574 -0.0534
   63MOL0     H 8302   5.757   5.620   6.139 -0.6867 -1.3258  1.3476
   63MOL0     H 8303   5.860   5.702   6.343 -0.2050  0.9049 -0.6645
   63MOL0     H 8304   6.098   5.666   6.815  1.3658 -1.1750  1.1397
   63MOL0     H 8305   6.270   5.699   6.958 -1.5424  4.2824  1.5515
   63MOL0     H 8306   6.635   5.925   6.801 -0.4242  0.0423 -0.5624
   63MOL0     H 8307   6.675   5.763   6.734 -3.7199  0.2253 -1.6003
   63MOL0     H 8308   6.771   5.706   6.961 -1.4621  0.9615  1.6146
   63MOL0     H 8309   6.858   5.817   6.863 -0.5075 -1.3669 -0.2750
   63MOL0     H 8310   6.698   5.885   7.100  2.2313 -1.7271  1.3266
   63MOL0     H 8311   6.759   6.008   6.977  2.2609  0.2223 -1.9620
   63MOL0     H 8312   6.952   5.843   7.147  0.8378 -0.1423  1.0107
   63MOL0     H 8313   6.984   5.966   7.019  1.4845  1.2785  1.4028
   63MOL0     H 8314   6.957   6.217   7.324  0.4926  1.0084 -1.0941
   63MOL0     H 8315   6.516   5.846   6.629 -0.5678  3.8602  0.9516
   63MOL0     H 8316   6.321   5.831   6.489  0.6300  1.0853  1.1863
   64MOL0     O 8317   8.434   8.230   5.508 -0.3604  1.0046  0.2819
   64MOL0     C 8318   8.394   8.119   5.465 -0.0348 -0.7771  0.0836
   64MOL0     O 8319   8.340   8.019   5.544  0.2029 -0.3808 -0.8844
   64MOL0     C 8320   8.351   8.019   5.682 -0.4463  0.1873  0.4796
   64MOL0     C 8321   8.458   8.070   5.750  0.0424 -0.2893  0.2944
   64MOL0     C 8322   8.479   8.059   5.891  0.8584  0.1197  0.1997
   64MOL0     C 8323   8.384   7.990   5.962  0.1826  0.0358 -0.6346
   64MOL0     O 8324   8.386   7.965   6.102 -0.0618 -0.3473 -0.3872
   64MOL0     C 8325   8.501   8.025   6.172  0.7144 -0.8235  0.4696
   64MOL0     C 8326   8.490   8.027   6.326 -0.2414  0.3542 -1.4967
   64MOL0     C 8327   8.379   8.124   6.376  0.2264 -0.0774  0.8234
   64MOL0     C 8328   8.426   8.264   6.385  0.2822  1.2451  0.5418
   64MOL0     C 8329   8.316   8.361   6.385  0.6877  0.5240  1.1680
   64MOL0     C 8330   8.368   8.501   6.423 -0.4510 -0.5493 -0.4616
   64MOL0     C 8331   8.469   8.565   6.329 -0.1983  0.6069  0.1556
   64MOL0     C 8332   8.617   8.540   6.362 -0.2619 -0.2329  0.1577
   64MOL0     N 8333   8.717   8.604   6.268 -0.5058  0.0084 -0.0538
   64MOL0     C 8334   8.832   8.674   6.309  0.4505  0.0992  0.6048
   64MOL0     C 8335   8.860   8.762   6.210 -0.1137 -0.2468  0.0008
   64MOL0     C 8336   8.977   8.859   6.194  1.1176 -0.3017  1.3939
   64MOL0     C 8337   9.110   8.799   6.211 -1.0914 -0.4347  0.0835
   64MOL0     C 8338   9.216   8.814   6.100 -0.6938  0.4570 -0.7036
   64MOL0     C 8339   9.256   8.965   6.072  0.3746  0.9943 -0.2311
   64MOL0     O 8340   9.382   8.963   6.002 -0.2529 -0.4791  0.1815
   64MOL0     C 8341   9.449   9.088   5.979 -0.0948  0.5965 -0.0520
   64MOL0     C 8342   9.584   9.079   5.930 -0.2432  1.4466  0.1245
   64MOL0     C 8343   9.658   9.201   5.895  0.3905  1.2509 -0.0454
   64MOL0     C 8344   9.599   9.325   5.909 -0.5552 -0.1023 -0.2397
   64MOL0     C 8345   9.664   9.457   5.876 -0.5380  0.2462 -0.3552
   64MOL0     O 8346   9.780   9.453   5.802 -0.6961 -0.0874  0.5018
   64MOL0     C 8347   9.858   9.572   5.780  0.3178 -0.5198 -0.9062
   64MOL0     C 8348   9.971   9.610   5.857  0.6260  0.6957 -0.1952
   64MOL0     C 8349  10.054   9.715   5.828  0.0547 -0.7840 -0.3556
   64MOL0     C 8350  10.015   9.806   5.727  0.4211  0.3484 -0.0500
   64MOL0     O 8351  10.106   9.904   5.698  0.6329  0.5414 -0.0350
   64MOL0     C 8352  10.087  10.010   5.614  0.2902  0.2661  0.2580
   64MOL0     C 8353  10.199  10.111   5.641 -0.8875  0.0562 -0.2560
   64MOL0     C 8354  10.331  10.058   5.584 -0.4038  0.0216 -0.0342
   64MOL0     C 8355  10.355  10.065   5.433  0.1043 -1.1466 -0.1337
   64MOL0     C 8356  10.497  10.010   5.387 -0.4665  0.1891 -0.3286
   64MOL0     C 8357  10.497   9.858   5.401 -0.4036  0.1714  0.1840
   64MOL0     C 8358  10.642   9.823   5.362 -0.0406  0.6811  0.0586
   64MOL0     C 8359  10.649   9.680   5.300  0.5443  0.3557  0.6128
   64MOL0    Cl 8360  10.814   9.640   5.266  0.0139  0.4624 -0.1886
   64MOL0     C 8361   9.896   9.784   5.656  0.0816 -0.4900  0.5883
   64MOL0     C 8362   9.815   9.669   5.687 -0.1361 -0.8493 -0.6819
   64MOL0     O 8363   9.614   9.562   5.917 -0.4238  0.6274 -0.4486
   64MOL0     C 8364   9.471   9.330   5.970  0.8561 -0.0779 -0.6394
   64MOL0     C 8365   9.394   9.213   5.998 -1.1072  0.6848 -0.5426
   64MOL0     N 8366   8.784   8.725   6.105 -0.0075 -0.0993 -0.3018
   64MOL0     N 8367   8.696   8.640   6.141 -0.1497 -0.7878  0.7906
   64MOL0     C 8368   8.265   7.939   5.907  0.3700  0.8277 -0.7935
   64MOL0     C 8369   8.251   7.947   5.764 -0.3939 -0.6560 -0.6423
   64MOL0     C 8370   8.372   8.104   5.320 -0.1845  0.7576 -0.3860
   64MOL0     C 8371   8.337   7.984   5.259 -0.1862 -0.7148  0.5952
   64MOL0     C 8372   8.333   7.982   5.120 -0.2499 -0.2878  0.0614
   64MOL0     C 8373   8.369   8.087   5.043  0.7822  0.4178 -0.5029
   64MOL0     O 8374   8.385   8.093   4.906  0.1634 -0.3620 -0.3419
   64MOL0     C 8375   8.332   7.984   4.826  0.0408  0.0606 -0.1831
   64MOL0     C 8376   8.329   8.010   4.674 -0.1287 -0.5964  0.3543
   64MOL0     C 8377   8.321   7.880   4.592 -0.1754  0.0115 -0.6476
   64MOL0     C 8378   8.298   7.909   4.449 -1.3163  0.4073  0.1667
   64MOL0     C 8379   8.287   7.786   4.371 -1.2032 -0.5731 -0.7262
   64MOL0     C 8380   8.286   7.678   4.314 -0.5463  0.4231 -0.3331
   64MOL0     C 8381   8.387   8.213   5.106 -0.5325 -0.8774  0.3076
   64MOL0     C 8382   8.394   8.216   5.243  0.4047  0.3530 -0.0900
   64MOL0     H 8383   8.531   8.113   5.682 -1.8509 -1.7943 -2.9145
   64MOL0     H 8384   8.570   8.106   5.927  1.5237 -0.7267 -0.3661
   64MOL0     H 8385   8.513   8.126   6.132  1.5167 -1.3935 -0.8099
   64MOL0     H 8386   8.587   7.962   6.149  1.3448  0.2938 -0.3748
   64MOL0     H 8387   8.581   8.061   6.377 -0.3191 -0.5563 -0.7307
   64MOL0     H 8388   8.467   7.928   6.365 -3.5043  1.5718  0.0930
   64MOL0     H 8389   8.347   8.083   6.472  0.6755  0.8333  1.3692
   64MOL0     H 8390   8.294   8.110   6.307 -0.2767 -0.5404  1.5185
   64MOL0     H 8391   8.481   8.277   6.479  1.6054  3.0471 -0.4250
   64MOL0     H 8392   8.492   8.290   6.303  1.3589 -1.7065  0.3224
   64MOL0     H 8393   8.232   8.351   6.454 -1.2280  0.6243 -1.0303
   64MOL0     H 8394   8.260   8.358   6.292 -1.4187 -1.1176  2.4069
   64MOL0     H 8395   8.411   8.495   6.524 -0.1335 -2.6051 -0.6791
   64MOL0     H 8396   8.272   8.554   6.430 -0.7527 -0.8513 -2.0238
   64MOL0     H 8397   8.454   8.517   6.232  0.1805 -1.3699  1.0208
   64MOL0     H 8398   8.460   8.674   6.323 -0.1795  0.6318  0.5711
   64MOL0     H 8399   8.651   8.437   6.370  3.5043  0.8636 -0.0080
   64MOL0     H 8400   8.635   8.574   6.465  1.3194 -0.3797 -0.0553
   64MOL0     H 8401   8.878   8.659   6.406 -2.2092  0.5975  2.0213
   64MOL0     H 8402   8.969   8.949   6.256 -2.3136 -0.5430  1.4792
   64MOL0     H 8403   8.977   8.906   6.095 -1.0586  1.8710  2.3322
   64MOL0     H 8404   9.098   8.691   6.222 -0.2177 -0.3868  2.1586
   64MOL0     H 8405   9.150   8.838   6.305 -2.5634 -1.5677  1.2290
   64MOL0     H 8406   9.310   8.769   6.135 -0.1987  1.3798 -0.7999
   64MOL0     H 8407   9.186   8.755   6.013 -3.1552  1.1563 -0.3929
   64MOL0     H 8408   9.257   9.002   6.175 -3.1949  0.3241  0.1645
   64MOL0     H 8409   9.177   9.015   6.015 -1.3708  0.6608  1.7480
   64MOL0     H 8410   9.620   8.978   5.911 -0.1050  1.4702  0.2579
   64MOL0     H 8411   9.758   9.192   5.853 -0.7515 -6.8437 -2.7824
   64MOL0     H 8412  10.000   9.538   5.933  0.7014  0.7035 -0.2172
   64MOL0     H 8413  10.145   9.736   5.884 -0.2737 -2.3602  0.8416
   64MOL0     H 8414   9.995  10.067   5.630  0.1360 -0.0827  0.6593
   64MOL0     H 8415  10.102   9.986   5.508  2.6801  0.6490  0.4530
   64MOL0     H 8416  10.205  10.126   5.749 -1.2003 -2.3092  0.1352
   64MOL0     H 8417  10.177  10.206   5.590  2.1436  1.5541  0.9147
   64MOL0     H 8418  10.342   9.957   5.625  0.1195 -0.3262 -0.9839
   64MOL0     H 8419  10.411  10.117   5.629 -1.3462  2.9363 -1.9167
   64MOL0     H 8420  10.268  10.006   5.403  0.8954 -2.5056  0.1688
   64MOL0     H 8421  10.349  10.169   5.398 -0.7727 -0.5368  1.7054
   64MOL0     H 8422  10.576  10.058   5.445  0.5877 -1.2827 -0.4711
   64MOL0     H 8423  10.516  10.037   5.283  4.1883  2.2246  0.7822
   64MOL0     H 8424  10.426   9.817   5.328 -1.2416  1.0829  0.4649
   64MOL0     H 8425  10.473   9.819   5.500  0.0015  1.9043  0.9941
   64MOL0     H 8426  10.675   9.885   5.278  2.5306 -0.9034 -0.2179
   64MOL0     H 8427  10.700   9.832   5.454 -2.5083  3.7283  1.5011
   64MOL0     H 8428  10.584   9.669   5.213  0.0526 -2.3749  1.2210
   64MOL0     H 8429  10.610   9.615   5.379  0.5447  0.6821  0.8821
   64MOL0     H 8430   9.873   9.861   5.583  0.6184 -0.9642 -0.0920
   64MOL0     H 8431   9.725   9.643   5.632 -0.2368  0.5643 -1.2142
   64MOL0     H 8432   9.422   9.421   6.000  2.2268  0.3948  0.2444
   64MOL0     H 8433   9.298   9.221   6.049 -0.3050  0.9709  0.9732
   64MOL0     H 8434   8.186   7.899   5.970  1.4407 -1.9840 -1.0539
   64MOL0     H 8435   8.160   7.920   5.710  0.5665  1.2372 -3.4891
   64MOL0     H 8436   8.298   7.897   5.312 -1.0470 -1.7603 -1.6526
   64MOL0     H 8437   8.315   7.891   5.062  1.2899 -0.1202 -0.7202
   64MOL0     H 8438   8.230   7.968   4.860  0.3003  1.9728  1.6732
   64MOL0     H 8439   8.403   7.901   4.837 -0.9782 -0.7328  0.5334
   64MOL0     H 8440   8.237   8.068   4.660  0.2736  0.3438  1.4936
   64MOL0     H 8441   8.414   8.069   4.638 -1.6283  1.4982  0.0625
   64MOL0     H 8442   8.240   7.814   4.626 -0.8681  1.8752  1.5966
   64MOL0     H 8443   8.407   7.823   4.629 -0.1976  1.8123  2.5435
   64MOL0     H 8444   8.207   7.969   4.441 -2.4756 -0.5413  4.0901
   64MOL0     H 8445   8.369   7.980   4.406 -1.5267  1.0334  0.8339
   64MOL0     H 8446   8.288   7.589   4.253 -3.2408 -0.5475  0.8143
   64MOL0     H 8447   8.402   8.302   5.047 -1.4277 -0.7175  0.3149
   64MOL0     H 8448   8.426   8.314   5.278  0.8325  1.1409 -2.5056
   65MOL0     O 8449   9.549   6.064   9.543  0.2447 -0.9872  0.3339
   65MOL0     C 8450   9.624   6.148   9.495  0.2051  0.2385 -0.8492
   65MOL0     O 8451   9.725   6.203   9.565 -0.7860 -0.8991  0.0340
   65MOL0     C 8452   9.757   6.149   9.682  0.5502  0.2770 -0.0372
   65MOL0     C 8453   9.877   6.074   9.700 -0.2047 -0.5517  0.3972
   65MOL0     C 8454   9.904   6.024   9.831  0.7529 -0.6452  0.3886
   65MOL0     C 8455   9.820   6.049   9.937  0.9987 -0.5509  0.6920
   65MOL0     O 8456   9.841   6.015  10.069  0.1283  0.7861 -0.3659
   65MOL0     C 8457   9.880   5.878  10.095 -0.7998  0.3987 -0.0387
   65MOL0     C 8458   9.919   5.861  10.236 -0.5906  0.4187  0.2128
   65MOL0     C 8459   9.805   5.900  10.335  0.6226  0.1149  1.0839
   65MOL0     C 8460   9.686   5.799  10.329  1.3068 -0.0845 -0.2588
   65MOL0     C 8461   9.540   5.855  10.368 -0.4530 -1.2033 -0.8486
   65MOL0     C 8462   9.486   5.908  10.246  0.3327 -0.5197  0.1433
   65MOL0     C 8463   9.341   5.969  10.261 -0.6865  1.4421 -0.4162
   65MOL0     C 8464   9.337   6.110  10.295 -0.3920 -0.4047 -0.2757
   65MOL0     N 8465   9.199   6.159  10.298 -0.8030 -0.0513  0.1156
   65MOL0     C 8466   9.121   6.167  10.412  0.7544 -0.4470  0.2827
   65MOL0     C 8467   9.002   6.213  10.360 -0.3903  0.2617  0.4421
   65MOL0     C 8468   8.875   6.226  10.433 -0.2558  1.0451  0.0572
   65MOL0     C 8469   8.764   6.126  10.394 -0.5630 -1.1283  0.5523
   65MOL0     C 8470   8.694   6.155  10.272 -0.0452 -0.0432 -0.1646
   65MOL0     C 8471   8.587   6.042  10.252 -0.5469 -0.6375  0.3643
   65MOL0     O 8472   8.501   6.073  10.142 -0.2974  0.7730 -0.4774
   65MOL0     C 8473   8.545   6.059  10.012  0.4986  0.1131  0.9440
   65MOL0     C 8474   8.440   6.059   9.916 -0.7045  1.1762  0.0635
   65MOL0     C 8475   8.473   6.076   9.779  0.5260  0.1946  0.3052
   65MOL0     C 8476   8.597   6.058   9.731 -0.4448 -0.2406  0.9661
   65MOL0     C 8477   8.619   6.050   9.584 -1.0575  0.4130  0.2235
   65MOL0     O 8478   8.508   6.040   9.502 -0.0744 -0.0252  0.0024
   65MOL0     C 8479   8.538   6.064   9.368 -0.5551  0.7687  0.9629
   65MOL0     C 8480   8.603   5.972   9.288  1.0834  0.5216  0.4297
   65MOL0     C 8481   8.623   6.000   9.148  0.7603 -0.2160 -0.0760
   65MOL0     C 8482   8.579   6.119   9.097 -0.4856 -0.4908  0.6925
   65MOL0     O 8483   8.606   6.156   8.966 -0.3692  0.0496 -0.0924
   65MOL0     C 8484   8.732   6.122   8.903 -0.1742 -0.4746 -0.0331
   65MOL0     C 8485   8.758   6.206   8.775 -0.7105 -0.7690 -0.1139
   65MOL0     C 8486   8.630   6.206   8.684 -1.6647 -0.5038  0.2383
   65MOL0     C 8487   8.614   6.081   8.606 -0.1366  0.0022  0.0025
   65MOL0     C 8488   8.556   6.098   8.462 -0.0584 -0.0227  0.1863
   65MOL0     C 8489   8.411   6.122   8.484  0.5705  0.1227 -0.1512
   65MOL0     C 8490   8.332   6.149   8.359 -0.3476  0.1942  0.3176
   65MOL0     C 8491   8.344   6.291   8.310  0.3798  0.1784  0.5435
   65MOL0    Cl 8492   8.263   6.406   8.420  0.2695  0.1443  0.0414
   65MOL0     C 8493   8.510   6.206   9.180  0.9542 -0.8418  1.2345
   65MOL0     C 8494   8.492   6.184   9.318 -0.1800 -0.6817 -0.1445
   65MOL0     O 8495   8.737   6.027   9.555  0.4033 -0.1286 -0.0607
   65MOL0     C 8496   8.706   6.051   9.824  0.2213  0.4287  0.0848
   65MOL0     C 8497   8.677   6.047   9.960  0.0728  0.3612 -0.3149
   65MOL0     N 8498   9.016   6.243  10.227  0.3064 -0.5441  0.0378
   65MOL0     N 8499   9.134   6.211  10.193  0.5484 -0.5721  0.0930
   65MOL0     C 8500   9.698   6.125   9.914 -0.8958  0.0406 -0.5942
   65MOL0     C 8501   9.673   6.183   9.787  0.5510  0.4008  1.1333
   65MOL0     C 8502   9.580   6.197   9.364 -0.7196 -0.7905  0.2854
   65MOL0     C 8503   9.480   6.147   9.295 -0.1482  0.0979 -0.4355
   65MOL0     C 8504   9.419   6.216   9.187 -0.2021 -0.1874  0.2238
   65MOL0     C 8505   9.483   6.333   9.149 -0.0795  1.1921 -0.9453
   65MOL0     O 8506   9.421   6.413   9.055  0.8021  0.4719 -0.4986
   65MOL0     C 8507   9.284   6.390   9.018  0.0297  0.1414 -0.1051
   65MOL0     C 8508   9.272   6.301   8.893  0.6741 -1.3146 -1.1302
   65MOL0     C 8509   9.195   6.367   8.785  0.7828  0.1207 -0.4677
   65MOL0     C 8510   9.054   6.405   8.815 -0.0246 -0.7662 -0.1538
   65MOL0     C 8511   8.991   6.451   8.690  0.6940  0.5492 -0.8903
   65MOL0     C 8512   8.948   6.492   8.589 -0.2816 -0.1437  0.2734
   65MOL0     C 8513   9.600   6.378   9.215  0.0221 -0.6016  0.3280
   65MOL0     C 8514   9.643   6.308   9.315  0.9206 -0.2422 -0.3690
   65MOL0     H 8515   9.946   6.041   9.623  2.5102  0.8558  2.0682
   65MOL0     H 8516   9.993   5.964   9.842  0.9718 -1.1513 -3.0266
   65MOL0     H 8517   9.975   5.860  10.042 -2.0602  0.6394 -2.5426
   65MOL0     H 8518   9.807   5.803  10.064  0.9726 -2.0132  1.2579
   65MOL0     H 8519  10.010   5.917  10.255  0.2396 -0.4159 -1.1326
   65MOL0     H 8520   9.955   5.759  10.252  3.1114  1.6564  0.6042
   65MOL0     H 8521   9.767   6.001  10.321  1.2909  0.7062  3.2861
   65MOL0     H 8522   9.847   5.905  10.435  0.4415  4.3293  1.1214
   65MOL0     H 8523   9.684   5.763  10.226 -0.2170  0.9845 -0.6392
   65MOL0     H 8524   9.702   5.712  10.392  0.2367  0.4080  0.7394
   65MOL0     H 8525   9.546   5.931  10.447 -4.8838 -1.2869 -0.1761
   65MOL0     H 8526   9.475   5.772  10.395 -1.0745 -1.6153 -3.3210
   65MOL0     H 8527   9.487   5.825  10.175  1.8391 -1.7284  1.4908
   65MOL0     H 8528   9.553   5.984  10.202  1.3543  0.3275  2.9613
   65MOL0     H 8529   9.289   5.949  10.166  1.1669 -2.2516 -0.8052
   65MOL0     H 8530   9.290   5.905  10.333 -1.7455  1.2305 -1.3145
   65MOL0     H 8531   9.384   6.175  10.221  1.4992 -1.7759 -0.3463
   65MOL0     H 8532   9.395   6.116  10.388  2.7896 -1.3920 -2.0600
   65MOL0     H 8533   9.126   6.129  10.514 -3.7144 -1.0862  0.4795
   65MOL0     H 8534   8.837   6.325  10.405  0.1275  1.0799 -0.3342
   65MOL0     H 8535   8.917   6.224  10.534  3.5019  0.9608 -1.3537
   65MOL0     H 8536   8.688   6.130  10.473 -2.0849  1.5972 -0.9001
   65MOL0     H 8537   8.808   6.029  10.367 -1.7200 -0.8616 -2.7313
   65MOL0     H 8538   8.639   6.250  10.281  2.7586  1.6020  0.8869
   65MOL0     H 8539   8.766   6.159  10.190 -0.0771  2.3908 -0.1440
   65MOL0     H 8540   8.520   6.023  10.337 -3.6129  0.1425 -1.7211
   65MOL0     H 8541   8.635   5.947  10.229 -0.1852 -0.3592 -0.0337
   65MOL0     H 8542   8.338   6.080   9.949 -1.8901 -2.6997 -0.6976
   65MOL0     H 8543   8.387   6.093   9.714 -0.2742  1.4976  1.6340
   65MOL0     H 8544   8.622   5.877   9.339 -0.5846  0.2786  0.6488
   65MOL0     H 8545   8.647   5.921   9.077 -0.5707 -0.9979  0.3132
   65MOL0     H 8546   8.722   6.020   8.865 -2.7103  0.2776 -1.6496
   65MOL0     H 8547   8.816   6.128   8.974 -1.5736  0.3360  1.6229
   65MOL0     H 8548   8.841   6.162   8.719  0.7942  0.4850  1.0592
   65MOL0     H 8549   8.799   6.305   8.797  1.2369 -1.1743 -1.6420
   65MOL0     H 8550   8.649   6.284   8.611  0.3387 -0.7583  0.4032
   65MOL0     H 8551   8.542   6.229   8.744 -0.4037 -0.6348  2.2496
   65MOL0     H 8552   8.710   6.031   8.591  0.7267  1.7763 -0.6259
   65MOL0     H 8553   8.556   6.012   8.669  1.2763 -2.3050 -1.1101
   65MOL0     H 8554   8.581   6.004   8.412  3.8041 -0.2439  2.1311
   65MOL0     H 8555   8.602   6.168   8.392 -3.1513  0.2923 -1.6871
   65MOL0     H 8556   8.393   6.202   8.557  1.2024 -0.8393  1.1088
   65MOL0     H 8557   8.367   6.034   8.530  1.8424  0.6793  2.3007
   65MOL0     H 8558   8.358   6.087   8.273 -2.8778  0.0840 -0.4497
   65MOL0     H 8559   8.227   6.125   8.375  0.2896 -3.5427 -0.1506
   65MOL0     H 8560   8.312   6.285   8.206  0.7843  0.2568  0.4117
   65MOL0     H 8561   8.451   6.316   8.315  1.2068 -2.9547  0.2941
   65MOL0     H 8562   8.465   6.292   9.132 -0.6838 -0.7436  2.8372
   65MOL0     H 8563   8.441   6.260   9.376  1.1400 -0.4166  0.6979
   65MOL0     H 8564   8.813   6.046   9.808  0.5171 -1.3929  2.0788
   65MOL0     H 8565   8.761   6.034  10.026  0.9984 -1.8750 -1.8214
   65MOL0     H 8566   9.626   6.159   9.988  0.7956 -0.4017  1.3262
   65MOL0     H 8567   9.595   6.253   9.761  0.5428  0.1843  0.5728
   65MOL0     H 8568   9.414   6.077   9.347 -1.3567  1.9086  0.5703
   65MOL0     H 8569   9.331   6.164   9.151 -1.5100  2.0225  0.0522
   65MOL0     H 8570   9.232   6.485   9.001  1.4626  1.2111  1.2406
   65MOL0     H 8571   9.225   6.351   9.101 -2.5341 -0.7926 -2.1882
   65MOL0     H 8572   9.373   6.279   8.856  1.7888  0.7663  0.4433
   65MOL0     H 8573   9.221   6.209   8.925  2.7062 -1.3391  2.5815
   65MOL0     H 8574   9.185   6.286   8.713 -0.4699 -1.3216  1.2485
   65MOL0     H 8575   9.251   6.447   8.735  2.4301 -0.9468 -0.4122
   65MOL0     H 8576   9.008   6.312   8.849  1.6377 -2.5752 -2.4574
   65MOL0     H 8577   9.051   6.495   8.877 -2.4439  1.2287 -2.8462
   65MOL0     H 8578   8.889   6.528   8.508 -2.5963 -2.1701  0.9344
   65MOL0     H 8579   9.645   6.469   9.176 -1.4306 -0.8721 -2.2482
   65MOL0     H 8580   9.721   6.356   9.374  0.5083 -0.1665  0.1254
   66MOL0     O 8581   6.287   1.834   1.911  0.0145  0.1474 -0.4231
   66MOL0     C 8582   6.218   1.927   1.951 -0.6775 -0.3294 -0.3277
   66MOL0     O 8583   6.085   1.935   1.924  0.5277 -0.3230 -0.0551
   66MOL0     C 8584   6.022   1.826   1.871  0.3892 -0.9761 -0.1112
   66MOL0     C 8585   5.897   1.782   1.930 -0.0738 -0.2449 -0.0812
   66MOL0     C 8586   5.829   1.677   1.871 -0.0899 -0.2988 -0.6331
   66MOL0     C 8587   5.869   1.610   1.754 -0.3708 -0.4860  0.8383
   66MOL0     O 8588   5.809   1.494   1.708 -0.5717 -0.5492 -1.0562
   66MOL0     C 8589   5.767   1.401   1.810 -0.7965  0.0356 -0.1093
   66MOL0     C 8590   5.727   1.267   1.735  0.9972  1.1659 -0.2481
   66MOL0     C 8591   5.691   1.152   1.835 -0.6569 -0.1224 -0.1833
   66MOL0     C 8592   5.716   1.014   1.767  0.5206  0.3159 -0.2303
   66MOL0     C 8593   5.664   0.906   1.855 -0.5648  0.3329 -0.9256
   66MOL0     C 8594   5.706   0.771   1.801 -0.4873  0.0286 -0.4003
   66MOL0     C 8595   5.611   0.723   1.695 -0.3540 -0.0707 -0.3386
   66MOL0     C 8596   5.658   0.585   1.653 -0.7575 -0.4319 -0.6508
   66MOL0     N 8597   5.579   0.488   1.714 -1.0495 -0.5720 -0.6113
   66MOL0     C 8598   5.632   0.378   1.791  1.0173 -0.1433 -0.1511
   66MOL0     C 8599   5.517   0.303   1.801  0.6507  0.2655  0.0590
   66MOL0     C 8600   5.496   0.181   1.883 -0.6271  0.9236  0.0805
   66MOL0     C 8601   5.565   0.063   1.809  1.0639  0.2487  0.5233
   66MOL0     C 8602   5.482   0.041   1.688 -0.3610  0.2448  0.3750
   66MOL0     C 8603   5.496  -0.099   1.620  0.5583 -0.9092  0.2954
   66MOL0     O 8604   5.434  -0.198   1.691  0.2719  0.2357  0.7052
   66MOL0     C 8605   5.362  -0.294   1.617 -0.2049  0.6861 -0.2145
   66MOL0     C 8606   5.228  -0.284   1.599 -0.3474  0.2620 -0.5868
   66MOL0     C 8607   5.149  -0.390   1.545  0.3560  0.6267  0.3315
   66MOL0     C 8608   5.201  -0.509   1.492 -0.2332  0.0321 -0.1362
   66MOL0     C 8609   5.128  -0.620   1.420 -0.3714  0.3354 -0.1606
   66MOL0     O 8610   5.011  -0.584   1.345  0.5945  0.4382  0.7854
   66MOL0     C 8611   4.941  -0.687   1.285  0.0762 -0.9211 -0.4455
   66MOL0     C 8612   4.994  -0.738   1.166  0.1556  0.3000 -0.3608
   66MOL0     C 8613   4.946  -0.853   1.121 -0.0986  0.4282 -0.0688
   66MOL0     C 8614   4.848  -0.935   1.186  0.2766  0.6532 -0.2465
   66MOL0     O 8615   4.818  -1.055   1.128  0.2901  0.2096 -0.2796
   66MOL0     C 8616   4.796  -1.162   1.215 -0.5753  0.3907  0.3691
   66MOL0     C 8617   4.741  -1.281   1.140 -0.1627 -0.3919 -0.4254
   66MOL0     C 8618   4.695  -1.400   1.218 -0.3136  0.0727 -0.9955
   66MOL0     C 8619   4.555  -1.381   1.287 -0.0650 -0.1227 -0.0172
   66MOL0     C 8620   4.513  -1.511   1.353 -0.0669 -0.5317 -1.4373
   66MOL0     C 8621   4.443  -1.608   1.258 -0.2903  1.0779  0.2984
   66MOL0     C 8622   4.481  -1.752   1.320 -1.2178 -0.2500 -0.6449
   66MOL0     C 8623   4.443  -1.852   1.211  0.5091 -0.6534  1.1484
   66MOL0    Cl 8624   4.440  -2.008   1.289 -0.0394  0.2573  0.1689
   66MOL0     C 8625   4.789  -0.873   1.302 -0.4948 -0.0260  0.0046
   66MOL0     C 8626   4.838  -0.748   1.352  0.4233 -0.0367 -0.9073
   66MOL0     O 8627   5.169  -0.729   1.435 -0.5104  0.4147 -0.1510
   66MOL0     C 8628   5.349  -0.508   1.514  0.9283 -0.0588  0.6077
   66MOL0     C 8629   5.423  -0.412   1.586 -0.0909 -1.0484  0.1659
   66MOL0     N 8630   5.409   0.362   1.737  0.7316 -0.7653 -0.2643
   66MOL0     N 8631   5.448   0.468   1.685  0.1058 -0.6476 -0.2347
   66MOL0     C 8632   5.993   1.652   1.703  0.2760  0.4630 -0.9324
   66MOL0     C 8633   6.065   1.763   1.754 -0.4503 -0.6305  0.5948
   66MOL0     C 8634   6.292   2.036   2.027 -0.2852 -0.0374 -0.1433
   66MOL0     C 8635   6.425   2.011   2.071  0.3235 -0.6360 -0.3474
   66MOL0     C 8636   6.479   2.103   2.148 -0.0620 -0.5714  0.8172
   66MOL0     C 8637   6.432   2.229   2.180  1.5859 -0.3116 -0.7112
   66MOL0     O 8638   6.520   2.296   2.257  0.0740 -1.1463  0.2562
   66MOL0     C 8639   6.483   2.421   2.314 -1.3611 -0.1200 -0.5300
   66MOL0     C 8640   6.414   2.404   2.452  0.2292  0.4051  0.4807
   66MOL0     C 8641   6.476   2.301   2.552  0.2704 -0.2896 -0.1301
   66MOL0     C 8642   6.620   2.346   2.584  0.3484  0.0495 -0.3097
   66MOL0     C 8643   6.610   2.465   2.673  0.2293  0.6615  0.1113
   66MOL0     C 8644   6.592   2.571   2.731 -0.1607 -0.2280  1.1529
   66MOL0     C 8645   6.301   2.260   2.133 -0.2563  0.5823  0.2499
   66MOL0     C 8646   6.232   2.164   2.056 -0.5302 -0.0160  0.5322
   66MOL0     H 8647   5.860   1.831   2.020 -1.3587 -0.4060 -0.4952
   66MOL0     H 8648   5.740   1.637   1.919  1.2121 -1.6333  0.8101
   66MOL0     H 8649   5.679   1.435   1.865 -2.0804 -3.7826  0.4590
   66MOL0     H 8650   5.848   1.380   1.881 -1.9943  2.5330  2.1858
   66MOL0     H 8651   5.806   1.243   1.663  0.8437 -3.4558  0.8407
   66MOL0     H 8652   5.628   1.290   1.693 -0.3266  1.4435  2.7445
   66MOL0     H 8653   5.584   1.161   1.856 -0.8850  0.3239 -1.4452
   66MOL0     H 8654   5.747   1.158   1.929 -2.7218 -0.8592  1.1774
   66MOL0     H 8655   5.688   1.006   1.662  1.8607  1.2704 -0.6903
   66MOL0     H 8656   5.826   1.007   1.764  0.4466 -0.6601 -1.6755
   66MOL0     H 8657   5.557   0.924   1.871 -0.0936  2.3564  0.1833
   66MOL0     H 8658   5.709   0.906   1.955 -1.2212 -1.3009 -0.5907
   66MOL0     H 8659   5.701   0.696   1.880 -1.0857 -0.1529 -0.6034
   66MOL0     H 8660   5.805   0.783   1.757  0.0817  1.2804  1.1352
   66MOL0     H 8661   5.505   0.721   1.718  0.0697 -0.9643  1.7215
   66MOL0     H 8662   5.623   0.792   1.610 -1.2217  0.3856 -0.1032
   66MOL0     H 8663   5.767   0.580   1.660 -0.6708  0.0952 -1.4511
   66MOL0     H 8664   5.632   0.583   1.546 -0.3860  1.0071 -0.7857
   66MOL0     H 8665   5.730   0.347   1.825  1.4223  1.4399  0.2181
   66MOL0     H 8666   5.392   0.153   1.904  0.6554 -1.9830  3.5099
   66MOL0     H 8667   5.541   0.191   1.982 -0.3797 -0.9367  0.1992
   66MOL0     H 8668   5.565  -0.033   1.862  0.0946 -0.3896 -0.5875
   66MOL0     H 8669   5.672   0.081   1.794  1.3563  2.1361  3.9235
   66MOL0     H 8670   5.377   0.070   1.696 -0.3031  0.1627  1.7426
   66MOL0     H 8671   5.520   0.108   1.610 -0.9828 -0.7318 -0.7972
   66MOL0     H 8672   5.604  -0.112   1.604  1.0006  3.2727 -1.6092
   66MOL0     H 8673   5.448  -0.094   1.522  4.1223  0.5483 -1.5704
   66MOL0     H 8674   5.195  -0.188   1.636  5.6374  2.6876 -0.4572
   66MOL0     H 8675   5.042  -0.374   1.537  0.4876  1.0414 -0.6788
   66MOL0     H 8676   5.060  -0.675   1.108 -2.4511  2.6611 -0.9505
   66MOL0     H 8677   4.985  -0.892   1.027 -0.5630 -0.8824  0.2608
   66MOL0     H 8678   4.722  -1.125   1.286  0.7205 -0.4219  2.2301
   66MOL0     H 8679   4.892  -1.188   1.262 -1.3611 -3.1667  0.2644
   66MOL0     H 8680   4.824  -1.310   1.075  3.3034  2.5041  2.2458
   66MOL0     H 8681   4.654  -1.245   1.085  1.5422  3.2169 -1.0710
   66MOL0     H 8682   4.772  -1.433   1.288  0.8896  0.9948 -1.8500
   66MOL0     H 8683   4.690  -1.490   1.157  1.8179 -0.8958  0.1654
   66MOL0     H 8684   4.546  -1.299   1.359 -0.0861  0.6364 -0.8553
   66MOL0     H 8685   4.494  -1.350   1.202  2.9331  2.3737 -1.4545
   66MOL0     H 8686   4.437  -1.500   1.432 -2.0158 -2.4317 -2.9279
   66MOL0     H 8687   4.601  -1.559   1.395 -1.4790 -3.3803 -1.5199
   66MOL0     H 8688   4.478  -1.594   1.155  0.2093  0.7930  0.4263
   66MOL0     H 8689   4.334  -1.610   1.265 -0.2285  0.9861  1.5454
   66MOL0     H 8690   4.587  -1.772   1.336 -1.2117  0.6660  0.5436
   66MOL0     H 8691   4.437  -1.764   1.419 -1.8288 -1.0052 -0.9945
   66MOL0     H 8692   4.517  -1.840   1.132  0.8047  0.5214  1.5804
   66MOL0     H 8693   4.347  -1.821   1.166  0.9299  0.4570  0.9841
   66MOL0     H 8694   4.705  -0.917   1.355 -2.2141  1.0047 -1.7427
   66MOL0     H 8695   4.793  -0.697   1.438  1.1236 -1.5302  0.3983
   66MOL0     H 8696   5.401  -0.596   1.477 -2.3098 -1.3516 -1.2751
   66MOL0     H 8697   5.529  -0.419   1.608 -0.0849 -1.8683 -0.0746
   66MOL0     H 8698   6.043   1.592   1.627 -2.4831 -3.7715  0.2775
   66MOL0     H 8699   6.154   1.800   1.704  0.7547 -0.8915  2.4702
   66MOL0     H 8700   6.473   1.914   2.061 -0.5345 -1.1142 -0.0111
   66MOL0     H 8701   6.576   2.081   2.193 -0.0033 -0.4519  0.7499
   66MOL0     H 8702   6.424   2.487   2.250 -1.9242 -1.7424 -1.7431
   66MOL0     H 8703   6.574   2.477   2.339 -3.5941  2.6993  2.2623
   66MOL0     H 8704   6.409   2.498   2.508  2.7158  0.9732 -0.1222
   66MOL0     H 8705   6.313   2.379   2.418  0.3762 -1.5013  1.2988
   66MOL0     H 8706   6.468   2.200   2.510  1.2561 -0.3979 -0.0931
   66MOL0     H 8707   6.426   2.298   2.649  0.1213 -2.9928 -0.2303
   66MOL0     H 8708   6.680   2.270   2.635 -1.6090  0.6206  3.1690
   66MOL0     H 8709   6.667   2.381   2.492  0.4392 -1.1009 -0.7044
   66MOL0     H 8710   6.583   2.659   2.791  1.1590 -1.2561  2.9226
   66MOL0     H 8711   6.241   2.348   2.152 -2.1849 -0.4695 -0.6773
   66MOL0     H 8712   6.142   2.189   2.001 -0.3446  2.5552  1.2607
   67MOL0     O 8713   4.624   8.034  10.300  0.1079  0.2209 -0.6639
   67MOL0     C 8714   4.703   7.965  10.369 -0.2075  0.2742 -0.7461
   67MOL0     O 8715   4.735   7.999  10.493  0.7467  0.4441  0.5363
   67MOL0     C 8716   4.688   8.113  10.552  0.1205 -0.8003  0.3532
   67MOL0     C 8717   4.775   8.169  10.641 -0.1232  0.2314  1.5035
   67MOL0     C 8718   4.731   8.279  10.717  0.8065  0.9006 -0.7507
   67MOL0     C 8719   4.593   8.319  10.713  0.9319  0.3371  0.1481
   67MOL0     O 8720   4.555   8.424  10.784  0.6921  0.5581 -0.2257
   67MOL0     C 8721   4.631   8.554  10.767  0.9093  0.2070  0.7508
   67MOL0     C 8722   4.631   8.613  10.905  0.5413  0.5616  0.3321
   67MOL0     C 8723   4.751   8.696  10.926 -0.0994  0.0435 -0.2206
   67MOL0     C 8724   4.735   8.811  11.025 -0.1434  0.7388 -0.0360
   67MOL0     C 8725   4.861   8.902  11.035  0.8215  0.1739 -0.2777
   67MOL0     C 8726   4.930   8.936  10.902  0.7962 -0.6787  0.2540
   67MOL0     C 8727   5.014   9.060  10.905 -0.4941 -0.0200 -0.3602
   67MOL0     C 8728   5.142   9.045  10.986 -0.3918 -0.2338 -0.1686
   67MOL0     N 8729   5.243   9.154  10.979  0.4495  0.2676  0.2315
   67MOL0     C 8730   5.356   9.159  11.049  0.4315  0.4082 -0.6704
   67MOL0     C 8731   5.392   9.292  11.048  0.5850 -0.0967  0.2644
   67MOL0     C 8732   5.526   9.335  11.111 -0.8374 -0.6520  0.1381
   67MOL0     C 8733   5.520   9.373  11.262  0.1370 -0.4310  0.5415
   67MOL0     C 8734   5.382   9.431  11.302  0.4892 -0.1649 -0.2400
   67MOL0     C 8735   5.345   9.560  11.229 -0.4599 -0.1632 -0.3450
   67MOL0     O 8736   5.424   9.660  11.294  0.2712 -0.0047 -0.6670
   67MOL0     C 8737   5.483   9.759  11.213 -0.0524  1.4281  0.8236
   67MOL0     C 8738   5.430   9.794  11.091 -0.6289  0.1545 -0.0195
   67MOL0     C 8739   5.476   9.893  11.015  0.1924  0.2459  1.2501
   67MOL0     C 8740   5.592   9.952  11.055  0.0836  0.2476  0.3473
   67MOL0     C 8741   5.656  10.059  10.967 -0.2858  0.1444  0.4688
   67MOL0     O 8742   5.752  10.143  11.022 -0.0794  0.0068  0.1084
   67MOL0     C 8743   5.807  10.226  10.932 -0.1705 -0.4989 -0.6345
   67MOL0     C 8744   5.731  10.333  10.883 -0.0911  0.2596 -0.5713
   67MOL0     C 8745   5.783  10.426  10.783  0.1048  0.3392 -0.2128
   67MOL0     C 8746   5.910  10.401  10.729 -0.3537 -0.1957  0.5718
   67MOL0     O 8747   5.968  10.470  10.629  0.5321  0.6542  0.0524
   67MOL0     C 8748   5.893  10.557  10.546 -1.0924 -0.7210 -0.2019
   67MOL0     C 8749   5.807  10.492  10.436  0.3271  0.0822 -1.0354
   67MOL0     C 8750   5.788  10.597  10.330  0.5636 -0.2606 -0.6700
   67MOL0     C 8751   5.694  10.709  10.379  0.5958  0.3726  0.5171
   67MOL0     C 8752   5.556  10.650  10.425 -0.1494 -0.3595 -0.2988
   67MOL0     C 8753   5.458  10.770  10.456  0.1749  0.4773 -0.1293
   67MOL0     C 8754   5.338  10.710  10.529  0.4571 -0.2607 -0.4445
   67MOL0     C 8755   5.256  10.821  10.603 -0.1873  0.4349  1.0523
   67MOL0    Cl 8756   5.338  10.856  10.752  0.0073  0.3917  0.4482
   67MOL0     C 8757   5.991  10.305  10.786 -1.1346  0.2164  0.5729
   67MOL0     C 8758   5.944  10.217  10.884 -0.3701 -0.4646  0.1709
   67MOL0     O 8759   5.607  10.077  10.852 -0.0354 -0.0892 -0.9769
   67MOL0     C 8760   5.653   9.917  11.173 -0.4229  0.6282  1.1017
   67MOL0     C 8761   5.604   9.817  11.251  0.5546  0.1124 -0.3454
   67MOL0     N 8762   5.302   9.357  10.964 -0.1998 -0.5502  0.4494
   67MOL0     N 8763   5.221   9.277  10.919 -0.2901 -0.8453  1.1139
   67MOL0     C 8764   4.505   8.256  10.622  0.2137 -0.9339  0.0606
   67MOL0     C 8765   4.557   8.156  10.541  0.9004  0.5047 -0.2270
   67MOL0     C 8766   4.783   7.853  10.306  0.1134 -0.8412  0.4717
   67MOL0     C 8767   4.763   7.827  10.168 -0.4351 -0.3982  0.3966
   67MOL0     C 8768   4.825   7.721  10.104  0.4058  0.4520  0.4459
   67MOL0     C 8769   4.901   7.635  10.180  0.4864  0.2701  0.6489
   67MOL0     O 8770   4.975   7.537  10.111  0.3705  0.1556 -1.3991
   67MOL0     C 8771   5.070   7.459  10.173  0.2649 -0.5631 -0.2363
   67MOL0     C 8772   5.207   7.531  10.177  0.2290 -1.3345  0.8127
   67MOL0     C 8773   5.310   7.455  10.259  0.2081  0.1729 -0.9238
   67MOL0     C 8774   5.280   7.491  10.413 -0.5449  0.2444 -0.0137
   67MOL0     C 8775   5.336   7.620  10.443  0.1373 -0.5580  0.6244
   67MOL0     C 8776   5.378   7.727  10.481  0.4560 -0.4426 -0.7492
   67MOL0     C 8777   4.926   7.674  10.314  0.4464  1.3884  0.2185
   67MOL0     C 8778   4.864   7.775  10.385 -0.5142  0.2236 -0.2577
   67MOL0     H 8779   4.876   8.128  10.638 -0.3364 -0.2721 -0.8576
   67MOL0     H 8780   4.794   8.323  10.794 -1.4215  0.8649  1.2300
   67MOL0     H 8781   4.573   8.623  10.704  1.1468  0.2369  0.5617
   67MOL0     H 8782   4.727   8.529  10.721 -1.7644 -2.3884 -4.3180
   67MOL0     H 8783   4.638   8.522  10.966  0.4167 -0.8670 -1.6783
   67MOL0     H 8784   4.538   8.665  10.929  1.4231  1.6605  1.4975
   67MOL0     H 8785   4.770   8.752  10.834  2.5184  2.7589  1.7435
   67MOL0     H 8786   4.842   8.643  10.956  1.1096  3.2595  2.4093
   67MOL0     H 8787   4.653   8.874  10.988 -2.5954 -1.8825  0.5550
   67MOL0     H 8788   4.727   8.771  11.127 -0.2059 -0.0505 -0.3409
   67MOL0     H 8789   4.931   8.842  11.094 -0.1022 -3.0075 -2.1707
   67MOL0     H 8790   4.841   8.996  11.087  0.2325  0.6272 -1.2929
   67MOL0     H 8791   4.856   8.955  10.824  0.8925  0.4502  0.4267
   67MOL0     H 8792   4.998   8.854  10.878 -1.8766 -2.6032 -1.3126
   67MOL0     H 8793   5.052   9.068  10.803  0.3601 -1.6616 -0.2058
   67MOL0     H 8794   4.968   9.152  10.944  0.3154 -0.3182  1.3976
   67MOL0     H 8795   5.195   8.955  10.954  3.8089  0.6627  3.3449
   67MOL0     H 8796   5.114   9.025  11.090  0.7312  0.6026  0.3200
   67MOL0     H 8797   5.397   9.073  11.100  0.5675 -2.0708 -4.6006
   67MOL0     H 8798   5.566   9.419  11.053  0.7065 -0.9770  0.6972
   67MOL0     H 8799   5.593   9.249  11.101 -0.8048 -0.9192  2.3526
   67MOL0     H 8800   5.614   9.425  11.283 -1.3823  1.3600  3.6266
   67MOL0     H 8801   5.528   9.270  11.298  1.1034  0.2356  2.4327
   67MOL0     H 8802   5.295   9.371  11.277 -0.9219  1.6549  0.0560
   67MOL0     H 8803   5.387   9.451  11.410  2.4297 -4.5675  0.6944
   67MOL0     H 8804   5.237   9.576  11.245 -0.3028  0.2231  0.4002
   67MOL0     H 8805   5.364   9.559  11.121  1.4210 -3.2153 -0.0864
   67MOL0     H 8806   5.340   9.758  11.042 -2.0328  1.8490  1.1958
   67MOL0     H 8807   5.419   9.930  10.930 -0.4028 -1.8350  0.6770
   67MOL0     H 8808   5.630  10.339  10.923 -0.4434 -1.1917 -1.1666
   67MOL0     H 8809   5.725  10.511  10.750 -0.8913  1.1519  3.1783
   67MOL0     H 8810   5.976  10.611  10.500 -1.0749  0.3670  1.0193
   67MOL0     H 8811   5.832  10.626  10.606  0.1870  0.8768 -0.6555
   67MOL0     H 8812   5.713  10.455  10.478  1.1132  1.0108  1.7682
   67MOL0     H 8813   5.856  10.401  10.399  0.6696 -0.1680 -0.0132
   67MOL0     H 8814   5.734  10.552  10.246 -0.8595  1.7500 -0.9013
   67MOL0     H 8815   5.875  10.648  10.289 -1.5453  4.3767 -0.0616
   67MOL0     H 8816   5.746  10.759  10.461  0.3472  0.5271  0.5825
   67MOL0     H 8817   5.671  10.778  10.297  0.3398 -0.1206  0.1709
   67MOL0     H 8818   5.567  10.595  10.519 -2.2184 -0.6743 -0.1902
   67MOL0     H 8819   5.515  10.586  10.347 -1.2418 -0.2264  0.1508
   67MOL0     H 8820   5.429  10.845  10.382  0.9529  1.0783  0.1681
   67MOL0     H 8821   5.508  10.826  10.535 -3.5107  1.3579  1.7864
   67MOL0     H 8822   5.274  10.665  10.452  0.4838 -0.7006 -0.2110
   67MOL0     H 8823   5.361  10.629  10.599 -0.3228  0.6181  0.8623
   67MOL0     H 8824   5.160  10.774  10.626 -2.2601  4.1440  0.6747
   67MOL0     H 8825   5.237  10.916  10.553 -0.0556 -0.3177 -0.4948
   67MOL0     H 8826   6.088  10.283  10.741 -1.2645 -2.9539  1.5553
   67MOL0     H 8827   6.016  10.137  10.899 -0.3835 -1.0164 -2.2413
   67MOL0     H 8828   5.748   9.955  11.210  1.3058 -4.6569  2.9560
   67MOL0     H 8829   5.661   9.796  11.342 -0.5507  2.4008  0.9847
   67MOL0     H 8830   4.400   8.280  10.618  0.3358  0.8265  3.5297
   67MOL0     H 8831   4.483   8.102  10.484  0.3140  0.6495  0.3883
   67MOL0     H 8832   4.694   7.889  10.113  0.9332 -0.7567 -1.8130
   67MOL0     H 8833   4.819   7.705   9.996  3.3350  0.1143  0.2531
   67MOL0     H 8834   5.088   7.370  10.113  1.7353 -0.7449  0.4316
   67MOL0     H 8835   5.038   7.432  10.274  2.2409  0.4829  0.7203
   67MOL0     H 8836   5.247   7.543  10.076 -0.0441  0.7652  0.9018
   67MOL0     H 8837   5.203   7.637  10.204  1.6047 -1.0507  0.0296
   67MOL0     H 8838   5.413   7.483  10.237  0.9295 -1.3322  0.4053
   67MOL0     H 8839   5.307   7.346  10.254 -0.7432  0.1920 -0.9379
   67MOL0     H 8840   5.172   7.493  10.429 -0.8268  1.5156 -1.7146
   67MOL0     H 8841   5.318   7.423  10.489 -1.3104  1.1700  1.2209
   67MOL0     H 8842   5.399   7.818  10.534  1.1324 -2.2447  2.3339
   67MOL0     H 8843   5.012   7.627  10.360  2.4920  2.4856 -2.2495
   67MOL0     H 8844   4.894   7.807  10.484  0.4803  0.8598 -0.7398
   68MOL0     O 8845   4.602  10.277   9.023  0.3825  0.4181  0.5069
   68MOL0     C 8846   4.599  10.367   9.104  0.1590 -0.7671  0.0104
   68MOL0     O 8847   4.690  10.460   9.137  0.5461 -1.2253 -0.5563
   68MOL0     C 8848   4.784  10.478   9.038 -0.4201  0.1407 -0.8023
   68MOL0     C 8849   4.777  10.579   8.942  0.2216  0.8474 -1.0716
   68MOL0     C 8850   4.876  10.590   8.850  0.2377 -0.3412 -0.6917
   68MOL0     C 8851   4.997  10.523   8.856 -0.1345  0.1942 -0.2410
   68MOL0     O 8852   5.077  10.546   8.750  0.3850 -0.4775  0.0196
   68MOL0     C 8853   5.199  10.610   8.783 -0.1074 -0.6568  0.7597
   68MOL0     C 8854   5.285  10.632   8.653 -0.7006 -0.3151 -0.1027
   68MOL0     C 8855   5.213  10.745   8.559  0.2206 -0.2025 -0.1866
   68MOL0     C 8856   5.208  10.885   8.625 -0.1840  0.4131  0.1435
   68MOL0     C 8857   5.346  10.944   8.639  0.7599  1.2672  0.7429
   68MOL0     C 8858   5.329  11.090   8.687 -0.5139  0.2909 -0.5414
   68MOL0     C 8859   5.464  11.141   8.744  0.2375  0.3707 -0.1032
   68MOL0     C 8860   5.423  11.272   8.822 -0.7898  0.3100 -0.2082
   68MOL0     N 8861   5.539  11.360   8.855 -0.0115 -0.3077  0.9652
   68MOL0     C 8862   5.642  11.390   8.767 -0.3459 -0.4927  0.6028
   68MOL0     C 8863   5.734  11.470   8.825  1.4361  0.1157 -0.6829
   68MOL0     C 8864   5.852  11.545   8.770 -0.7405 -0.9299  0.6267
   68MOL0     C 8865   5.910  11.668   8.844 -0.1534  1.0025  0.6823
   68MOL0     C 8866   5.983  11.650   8.987 -0.8728  0.2599  0.4795
   68MOL0     C 8867   5.968  11.762   9.079  0.7797 -1.1100 -0.1765
   68MOL0     O 8868   6.007  11.884   9.007 -0.1365 -0.0126 -0.0345
   68MOL0     C 8869   5.984  12.013   9.069  0.8822  0.1937 -1.1671
   68MOL0     C 8870   6.035  12.128   9.018  0.2795  0.3659 -0.4817
   68MOL0     C 8871   6.018  12.243   9.079 -0.0063  0.2080 -0.2584
   68MOL0     C 8872   5.931  12.256   9.190  0.2548  0.7185  0.2319
   68MOL0     C 8873   5.895  12.387   9.240 -0.3989  0.6872  0.1400
   68MOL0     O 8874   5.887  12.380   9.379  0.1044 -0.6026  0.9226
   68MOL0     C 8875   5.867  12.499   9.447 -0.1614 -0.1436 -0.3317
   68MOL0     C 8876   5.970  12.589   9.469 -0.5203 -0.1248 -0.3458
   68MOL0     C 8877   5.967  12.700   9.556  1.4698 -0.5781 -0.4929
   68MOL0     C 8878   5.836  12.733   9.613  0.1416  0.1123 -0.5683
   68MOL0     O 8879   5.809  12.848   9.685  0.2170 -0.4371 -0.4526
   68MOL0     C 8880   5.768  12.816   9.834 -0.9156 -0.2660 -0.0695
   68MOL0     C 8881   5.634  12.873   9.876  0.0977  0.3870  0.8265
   68MOL0     C 8882   5.619  12.882  10.025  0.7669 -0.2472 -1.1435
   68MOL0     C 8883   5.499  12.978  10.060 -0.0672  0.8068  0.0809
   68MOL0     C 8884   5.456  12.974  10.222 -0.2188 -0.1569 -1.0564
   68MOL0     C 8885   5.315  13.020  10.262 -0.0464  0.1077  0.4243
   68MOL0     C 8886   5.303  13.168  10.284 -0.5414 -0.0219  0.9700
   68MOL0     C 8887   5.165  13.232  10.265 -0.1165 -0.0355 -0.1209
   68MOL0    Cl 8888   5.092  13.260  10.424 -0.1660 -0.0473 -0.1684
   68MOL0     C 8889   5.726  12.642   9.576  1.0301 -0.5607  0.5188
   68MOL0     C 8890   5.748  12.528   9.504  0.0459  0.4781 -0.6596
   68MOL0     O 8891   5.887  12.481   9.167  0.2700 -0.1944 -0.2254
   68MOL0     C 8892   5.879  12.143   9.245  1.1759  0.4618 -0.6118
   68MOL0     C 8893   5.912  12.018   9.192 -0.2335  0.3820 -0.4404
   68MOL0     N 8894   5.671  11.499   8.948 -0.1236 -0.3038  0.5080
   68MOL0     N 8895   5.558  11.432   8.971  0.2255 -0.1719 -0.1643
   68MOL0     C 8896   5.008  10.426   8.962 -0.1015  1.2460  0.3802
   68MOL0     C 8897   4.900  10.399   9.053 -0.0851 -0.1905  0.2844
   68MOL0     C 8898   4.482  10.384   9.195 -0.2148 -0.0697 -0.2876
   68MOL0     C 8899   4.347  10.362   9.141  0.0455 -0.0248 -0.9351
   68MOL0     C 8900   4.235  10.371   9.225 -0.7524  0.0224  0.1439
   68MOL0     C 8901   4.257  10.395   9.363  0.7030 -0.2949 -0.3994
   68MOL0     O 8902   4.154  10.386   9.450 -0.3616 -0.1162 -0.4428
   68MOL0     C 8903   4.062  10.496   9.444  1.1291 -0.0911 -0.3079
   68MOL0     C 8904   3.940  10.436   9.372  0.1335  1.0345 -0.1711
   68MOL0     C 8905   3.882  10.556   9.289  0.1711 -0.4873  1.6825
   68MOL0     C 8906   3.734  10.589   9.325 -0.9421  0.0254  1.2384
   68MOL0     C 8907   3.645  10.496   9.263  0.6298  0.0812 -0.0521
   68MOL0     C 8908   3.567  10.423   9.202  0.3625 -0.6413  0.2625
   68MOL0     C 8909   4.386  10.415   9.414  1.0752 -0.5397  0.4538
   68MOL0     C 8910   4.500  10.415   9.328  1.2079 -0.0447 -0.3302
   68MOL0     H 8911   4.694  10.649   8.938 -1.2912 -0.9279 -2.2722
   68MOL0     H 8912   4.875  10.673   8.781 -1.6741 -0.5759 -1.0122
   68MOL0     H 8913   5.259  10.545   8.848 -2.1673 -0.3960  3.0214
   68MOL0     H 8914   5.186  10.699   8.844  0.8474 -1.0551  1.5821
   68MOL0     H 8915   5.297  10.542   8.593  2.5784  0.5985 -1.0211
   68MOL0     H 8916   5.388  10.654   8.684 -1.1232 -0.7172  1.6934
   68MOL0     H 8917   5.111  10.713   8.533 -0.8397  2.0728  0.8408
   68MOL0     H 8918   5.264  10.758   8.464 -1.2960  2.7439 -0.7217
   68MOL0     H 8919   5.147  10.950   8.562 -1.2279 -0.5869  0.0717
   68MOL0     H 8920   5.167  10.876   8.726  1.1838  3.8666  1.1465
   68MOL0     H 8921   5.404  10.925   8.548  0.5007 -4.8099  1.4310
   68MOL0     H 8922   5.398  10.895   8.722  0.9578 -2.2252 -1.2089
   68MOL0     H 8923   5.253  11.083   8.766 -0.3358  2.3094 -0.1306
   68MOL0     H 8924   5.292  11.162   8.614 -0.8645  1.6091  0.8760
   68MOL0     H 8925   5.501  11.068   8.816  3.1751  1.0086 -0.8323
   68MOL0     H 8926   5.539  11.154   8.665  1.1169 -0.6133  0.5504
   68MOL0     H 8927   5.375  11.243   8.916 -1.2815  0.1570 -0.5014
   68MOL0     H 8928   5.343  11.326   8.772 -0.3072  3.1074  1.7902
   68MOL0     H 8929   5.657  11.358   8.665  3.3843  2.2138  0.1151
   68MOL0     H 8930   5.843  11.571   8.664  0.4209 -0.3164  0.6669
   68MOL0     H 8931   5.939  11.480   8.776 -0.0625  0.0606  2.0771
   68MOL0     H 8932   5.829  11.740   8.858 -0.0135  1.2442  0.2723
   68MOL0     H 8933   5.976  11.706   8.765 -1.9278  0.9691 -0.8956
   68MOL0     H 8934   5.942  11.558   9.029  3.4378 -3.0038 -1.6357
   68MOL0     H 8935   6.090  11.630   8.978 -1.1823 -1.6883  0.6169
   68MOL0     H 8936   6.040  11.750   9.160  2.2328  0.9720 -1.0771
   68MOL0     H 8937   5.863  11.770   9.107  0.8390  0.4875 -0.3256
   68MOL0     H 8938   6.083  12.118   8.921 -0.6904  2.0917 -1.1928
   68MOL0     H 8939   6.063  12.334   9.040  1.7066 -0.4229  0.1482
   68MOL0     H 8940   6.056  12.579   9.402  0.3237  0.0426  0.6907
   68MOL0     H 8941   6.049  12.769   9.575  1.4374 -0.7004  0.1108
   68MOL0     H 8942   5.837  12.876   9.893  1.7879 -0.8543 -2.3908
   68MOL0     H 8943   5.778  12.712   9.866  2.1641  0.1907  0.7481
   68MOL0     H 8944   5.550  12.821   9.830  0.6693  0.7295 -0.6709
   68MOL0     H 8945   5.628  12.968   9.822  1.1269 -0.4526 -0.8304
   68MOL0     H 8946   5.709  12.929  10.065 -0.3899  1.1820 -0.0898
   68MOL0     H 8947   5.601  12.786  10.073 -0.3345 -0.2757 -1.5698
   68MOL0     H 8948   5.529  13.082  10.043 -1.1540  0.9375 -1.1306
   68MOL0     H 8949   5.412  12.954  10.000 -0.1962  2.6419 -0.5503
   68MOL0     H 8950   5.535  13.032  10.272  1.3910 -1.7261 -1.6694
   68MOL0     H 8951   5.465  12.868  10.248 -2.1781  0.1894  1.3434
   68MOL0     H 8952   5.284  12.976  10.357 -2.9761  0.5312 -0.2423
   68MOL0     H 8953   5.240  12.989  10.189 -2.4259  2.1465  1.8482
   68MOL0     H 8954   5.345  13.193  10.382 -0.7923 -0.8766  1.3010
   68MOL0     H 8955   5.355  13.207  10.196 -0.6706 -1.6199  0.1425
   68MOL0     H 8956   5.104  13.166  10.203  2.6983 -1.3491 -1.7001
   68MOL0     H 8957   5.161  13.330  10.216  1.9546 -0.3192 -0.9670
   68MOL0     H 8958   5.622  12.662   9.603  0.6208  0.3536 -1.5393
   68MOL0     H 8959   5.665  12.460   9.491  0.0255  0.6686 -1.5969
   68MOL0     H 8960   5.825  12.142   9.339 -0.5337  0.9324 -1.5505
   68MOL0     H 8961   5.890  11.926   9.245  1.2381 -0.6927 -1.6120
   68MOL0     H 8962   5.095  10.361   8.969  0.1361  1.2337 -1.8854
   68MOL0     H 8963   4.904  10.345   9.148 -2.5990  0.8026  1.0676
   68MOL0     H 8964   4.335  10.327   9.039 -4.5612 -0.7599 -0.3461
   68MOL0     H 8965   4.138  10.363   9.179  0.1692  1.9557 -2.3890
   68MOL0     H 8966   4.096  10.592   9.404 -0.9938  1.2221  0.8597
   68MOL0     H 8967   4.031  10.525   9.545 -0.9892  3.4993 -1.7850
   68MOL0     H 8968   3.959  10.354   9.303 -0.4734  0.6706  0.0859
   68MOL0     H 8969   3.868  10.398   9.446  1.7346  1.3282  1.6144
   68MOL0     H 8970   3.885  10.538   9.181  1.9305  1.4932  1.3544
   68MOL0     H 8971   3.932  10.652   9.303 -1.3688  1.0066 -1.7730
   68MOL0     H 8972   3.712  10.586   9.432 -0.2411  2.1463  1.4893
   68MOL0     H 8973   3.718  10.696   9.307  3.1013  0.6887  0.7067
   68MOL0     H 8974   3.502  10.352   9.155 -2.2900  0.1003  2.5561
   68MOL0     H 8975   4.398  10.430   9.521  1.4004 -0.8027  0.4538
   68MOL0     H 8976   4.600  10.427   9.369  1.1229 -1.9723  0.5962
   69MOL0     O 8977   8.091   2.677  11.410  0.2283  0.0538  0.3023
   69MOL0     C 8978   8.144   2.660  11.520 -0.1154  0.4927  0.6430
   69MOL0     O 8979   8.234   2.567  11.551 -0.3876  0.2083 -0.2962
   69MOL0     C 8980   8.286   2.496  11.453  0.6207  0.1342  1.1015
   69MOL0     C 8981   8.426   2.487  11.439  0.6145 -0.1753 -0.2040
   69MOL0     C 8982   8.482   2.389  11.357  0.2957  1.0211  1.0398
   69MOL0     C 8983   8.401   2.294  11.287  0.0935  0.3996  0.7751
   69MOL0     O 8984   8.467   2.198  11.206  0.0760  0.0695 -0.4505
   69MOL0     C 8985   8.600   2.228  11.159 -0.7817  0.3276  0.0694
   69MOL0     C 8986   8.623   2.176  11.020  0.0408 -0.0098 -0.3291
   69MOL0     C 8987   8.755   2.243  10.965  0.2178 -0.0382 -0.0766
   69MOL0     C 8988   8.816   2.159  10.848  0.6395  0.3958  0.0876
   69MOL0     C 8989   8.847   2.013  10.889  0.1092 -0.0834 -0.1962
   69MOL0     C 8990   8.942   1.955  10.795 -0.0406  0.7868  0.0226
   69MOL0     C 8991   8.949   1.803  10.816 -0.2109 -0.7201 -0.3820
   69MOL0     C 8992   9.006   1.769  10.951 -0.2612  0.9362  0.3926
   69MOL0     N 8993   9.040   1.630  10.951  0.3182  0.6588 -0.5792
   69MOL0     C 8994   8.956   1.515  10.931 -0.9728  0.0659 -0.2474
   69MOL0     C 8995   9.043   1.410  10.943  0.8278  0.0616  0.1636
   69MOL0     C 8996   9.011   1.266  10.929  0.7767  0.7551 -0.1342
   69MOL0     C 8997   9.024   1.184  11.054  0.1428  0.7770  0.7114
   69MOL0     C 8998   9.096   1.043  11.024  0.0593  0.1474 -0.4324
   69MOL0     C 8999   9.250   1.039  10.986  0.1867 -0.2959  0.0563
   69MOL0     O 9000   9.281   0.913  10.925  0.0433  0.4575  1.1830
   69MOL0     C 9001   9.408   0.881  10.870  0.5551  0.0368 -0.0632
   69MOL0     C 9002   9.501   0.978  10.845 -0.0563  0.4923 -0.0444
   69MOL0     C 9003   9.613   0.940  10.778 -0.5055 -0.9629  0.3443
   69MOL0     C 9004   9.650   0.808  10.744  1.2519  0.4682  0.2997
   69MOL0     C 9005   9.779   0.776  10.677  0.0385  0.1877  0.7963
   69MOL0     O 9006   9.839   0.887  10.628 -0.2242 -0.2183  0.2433
   69MOL0     C 9007   9.943   0.865  10.536 -0.6679  0.3161 -0.0510
   69MOL0     C 9008  10.021   0.977  10.531  0.2134  0.0926  0.4306
   69MOL0     C 9009  10.120   0.990  10.436  0.5062 -1.6589  0.6159
   69MOL0     C 9010  10.141   0.894  10.334 -0.2356 -0.4731 -0.3490
   69MOL0     O 9011  10.225   0.918  10.232  0.1585  0.3005 -0.1687
   69MOL0     C 9012  10.163   0.914  10.102 -0.9486  0.4779 -0.4395
   69MOL0     C 9013  10.234   1.008  10.005  0.5770  0.0846  0.8937
   69MOL0     C 9014  10.144   1.014   9.872 -0.3146  0.1705  0.6652
   69MOL0     C 9015  10.226   1.105   9.778  0.2077 -0.6091 -0.3624
   69MOL0     C 9016  10.332   1.036   9.702  0.3164  0.2862  0.4226
   69MOL0     C 9017  10.356   1.114   9.571  0.5586 -0.2753 -0.2252
   69MOL0     C 9018  10.495   1.072   9.517  0.0814 -0.5336 -0.5435
   69MOL0     C 9019  10.513   1.125   9.382  1.1223 -0.0770 -0.8251
   69MOL0    Cl 9020  10.421   1.018   9.283 -0.3176  0.1597 -0.7449
   69MOL0     C 9021  10.057   0.781  10.342 -0.4799  0.5515 -0.4019
   69MOL0     C 9022   9.963   0.766  10.439 -0.0408  0.4852  0.5282
   69MOL0     O 9023   9.818   0.656  10.666 -0.0647  0.0495 -0.3090
   69MOL0     C 9024   9.556   0.710  10.772  0.6480 -0.0574  0.1237
   69MOL0     C 9025   9.436   0.750  10.821  0.4366 -0.0540  0.0893
   69MOL0     N 9026   9.172   1.453  10.963 -0.2004  0.4973 -1.4009
   69MOL0     N 9027   9.166   1.582  10.963 -1.0770 -0.2691  0.1836
   69MOL0     C 9028   8.265   2.302  11.306 -0.2334  0.1564 -0.2139
   69MOL0     C 9029   8.212   2.398  11.393  0.5887  0.5985 -0.3699
   69MOL0     C 9030   8.124   2.753  11.633 -0.1128  0.4241  0.4522
   69MOL0     C 9031   8.001   2.825  11.637  0.1513 -0.5559  0.4715
   69MOL0     C 9032   7.968   2.926  11.732  1.6174  1.3153 -0.9077
   69MOL0     C 9033   8.067   2.956  11.820 -0.9641 -0.1002 -0.8895
   69MOL0     O 9034   8.043   3.057  11.906 -0.0836  0.0341  0.3220
   69MOL0     C 9035   8.162   3.104  11.980 -0.8369  0.1721  0.4383
   69MOL0     C 9036   8.125   3.246  12.033 -0.5954 -0.0921 -0.1741
   69MOL0     C 9037   8.116   3.340  11.907 -1.3135 -0.4884 -0.1333
   69MOL0     C 9038   8.095   3.486  11.951  0.4532  0.7481 -0.7919
   69MOL0     C 9039   8.216   3.543  12.005 -0.2199 -0.1883 -1.5729
   69MOL0     C 9040   8.324   3.565  12.056  0.3917  0.2753  0.9572
   69MOL0     C 9041   8.193   2.878  11.819  0.3756 -0.0404 -0.0461
   69MOL0     C 9042   8.212   2.769  11.740 -1.3579  1.3070 -0.6683
   69MOL0     H 9043   8.481   2.560  11.497 -3.1193  2.3843  0.5198
   69MOL0     H 9044   8.590   2.391  11.348  0.2624  0.2967  0.4046
   69MOL0     H 9045   8.669   2.179  11.228  2.6935  3.4918 -0.8740
   69MOL0     H 9046   8.623   2.335  11.164 -1.5092  0.4590  1.0661
   69MOL0     H 9047   8.535   2.199  10.959 -2.1518  2.1366  3.2976
   69MOL0     H 9048   8.642   2.068  11.027 -3.1087 -1.0976 -4.3965
   69MOL0     H 9049   8.835   2.229  11.038 -1.4637 -0.1032  1.8207
   69MOL0     H 9050   8.754   2.352  10.962 -0.5418  0.0783  2.4362
   69MOL0     H 9051   8.740   2.154  10.770  0.6198  0.4714  0.1018
   69MOL0     H 9052   8.905   2.215  10.815  0.6359 -0.5297 -1.6064
   69MOL0     H 9053   8.756   1.953  10.887 -1.3340  2.0010 -0.8814
   69MOL0     H 9054   8.890   2.016  10.989  1.2582  0.6528 -0.6946
   69MOL0     H 9055   9.046   1.988  10.786  1.0441 -2.6450 -1.5875
   69MOL0     H 9056   8.893   1.967  10.699  0.9743 -3.6520 -1.2786
   69MOL0     H 9057   8.849   1.760  10.817  0.2929 -1.9795  1.1818
   69MOL0     H 9058   9.001   1.761  10.730  0.0062 -2.9162  0.7320
   69MOL0     H 9059   8.921   1.788  11.017 -0.1161  2.0675  0.2774
   69MOL0     H 9060   9.086   1.835  10.985 -0.0901  0.1190  1.6239
   69MOL0     H 9061   8.850   1.515  10.911 -0.6613 -0.7825 -2.1231
   69MOL0     H 9062   9.063   1.214  10.848 -0.6074  1.2967 -1.4404
   69MOL0     H 9063   8.904   1.265  10.904  0.1549 -0.3125  2.3087
   69MOL0     H 9064   8.926   1.172  11.101 -0.2682  1.8001  0.1579
   69MOL0     H 9065   9.089   1.235  11.126 -0.3392  2.0101  0.2993
   69MOL0     H 9066   9.088   0.993  11.121  1.5353  0.6614 -0.0195
   69MOL0     H 9067   9.039   0.983  10.952 -1.8218  0.2786  0.8852
   69MOL0     H 9068   9.319   1.050  11.070  0.9710 -3.3319 -0.0857
   69MOL0     H 9069   9.273   1.120  10.916  2.1503 -1.5835 -0.8794
   69MOL0     H 9070   9.492   1.086  10.858 -1.4865  0.4926 -0.8775
   69MOL0     H 9071   9.684   1.020  10.757 -0.7725 -1.2713 -2.0605
   69MOL0     H 9072  10.013   1.049  10.612  0.3585 -1.3274  1.7776
   69MOL0     H 9073  10.181   1.080  10.440 -1.2821  0.0467 -4.1676
   69MOL0     H 9074  10.057   0.938  10.104 -0.9929  0.2864 -0.4949
   69MOL0     H 9075  10.177   0.810  10.070  1.2843  0.2373  1.0463
   69MOL0     H 9076  10.334   0.969   9.985  0.6835  0.8702 -0.1903
   69MOL0     H 9077  10.249   1.105  10.053  2.6202  0.6178 -0.6553
   69MOL0     H 9078  10.042   1.046   9.894  0.2019  0.3969  2.9464
   69MOL0     H 9079  10.136   0.910   9.838 -0.2734 -0.6396  2.9441
   69MOL0     H 9080  10.151   1.148   9.711  2.0215 -0.2061 -2.2331
   69MOL0     H 9081  10.280   1.188   9.825 -0.3814  1.3151 -2.8436
   69MOL0     H 9082  10.297   0.935   9.676 -3.1929  1.8084 -1.3862
   69MOL0     H 9083  10.419   1.033   9.769 -0.0582  2.3520  1.0598
   69MOL0     H 9084  10.348   1.222   9.585  3.4278  0.0712 -0.8221
   69MOL0     H 9085  10.280   1.088   9.497  0.5456  1.0322 -0.6912
   69MOL0     H 9086  10.567   1.120   9.584 -2.1038  3.3043 -0.6542
   69MOL0     H 9087  10.511   0.965   9.528  3.2166 -0.0650  0.4185
   69MOL0     H 9088  10.619   1.122   9.353  0.4584 -0.9656 -3.3821
   69MOL0     H 9089  10.489   1.231   9.381  0.9590 -0.0083  1.8532
   69MOL0     H 9090  10.085   0.698  10.278 -2.1768  1.0194 -1.8348
   69MOL0     H 9091   9.899   0.678  10.432 -2.1248  1.7475  2.4129
   69MOL0     H 9092   9.574   0.604  10.760 -1.1442 -0.4709  0.8728
   69MOL0     H 9093   9.363   0.675  10.849  2.3783 -2.0293  0.0950
   69MOL0     H 9094   8.200   2.222  11.273  1.0797 -1.8111  1.6953
   69MOL0     H 9095   8.109   2.387  11.428  1.2668  1.0370  1.9679
   69MOL0     H 9096   7.930   2.819  11.554 -1.9782  0.4659  2.1223
   69MOL0     H 9097   7.880   2.989  11.728  2.2216  2.1765 -0.9299
   69MOL0     H 9098   8.247   3.123  11.914 -0.9595  3.1361  0.9744
   69MOL0     H 9099   8.184   3.036  12.063 -1.4574  0.9312  1.2479
   69MOL0     H 9100   8.026   3.252  12.078 -1.2253  4.2419 -1.6909
   69MOL0     H 9101   8.210   3.293  12.084 -0.8962  0.9021 -0.5541
   69MOL0     H 9102   8.035   3.312  11.839 -1.7051 -0.9168  0.4944
   69MOL0     H 9103   8.210   3.339  11.852 -0.0815  2.5945  1.6031
   69MOL0     H 9104   8.076   3.548  11.863  1.0010  1.3784 -0.4743
   69MOL0     H 9105   8.012   3.496  12.022  0.7259 -1.3431 -0.0936
   69MOL0     H 9106   8.422   3.578  12.099  0.6271  2.0641 -0.0009
   69MOL0     H 9107   8.274   2.892  11.890  0.7412  1.7308 -0.7473
   69MOL0     H 9108   8.302   2.712  11.755 -0.8110  2.6556  1.6853
   70MOL0     O 9109   6.995   2.911   6.031 -0.7712 -0.7950 -0.5289
   70MOL0     C 9110   6.923   2.994   6.086  1.0341 -0.2567 -0.1535
   70MOL0     O 9111   6.889   3.116   6.036 -0.0824  0.0909  0.5152
   70MOL0     C 9112   6.912   3.159   5.904 -0.6751  0.9625  0.1079
   70MOL0     C 9113   6.930   3.291   5.887 -0.9051 -0.1518  0.1426
   70MOL0     C 9114   6.917   3.342   5.751 -0.0720  0.5472 -0.6783
   70MOL0     C 9115   6.890   3.254   5.643  0.2645 -0.2353  0.4327
   70MOL0     O 9116   6.870   3.284   5.514 -0.0291  0.0421  0.2231
   70MOL0     C 9117   6.914   3.408   5.461  0.5301  0.5848 -0.0973
   70MOL0     C 9118   6.866   3.426   5.322 -0.6213  0.9575 -1.1484
   70MOL0     C 9119   6.921   3.314   5.220 -0.2106 -0.1845 -0.5739
   70MOL0     C 9120   6.839   3.335   5.087  0.2609  1.1803 -0.2424
   70MOL0     C 9121   6.909   3.255   4.979  0.3361 -1.2720  0.1694
   70MOL0     C 9122   6.814   3.237   4.862  0.2664  0.4198 -0.4197
   70MOL0     C 9123   6.869   3.151   4.742 -0.0882 -0.4235 -0.1119
   70MOL0     C 9124   6.793   3.170   4.617 -0.6930  0.3986  0.5805
   70MOL0     N 9125   6.845   3.293   4.559 -0.2213 -0.2916 -0.3232
   70MOL0     C 9126   6.787   3.414   4.583  0.4289  0.2224  0.0328
   70MOL0     C 9127   6.866   3.503   4.514 -0.0347 -0.1308  0.3970
   70MOL0     C 9128   6.874   3.651   4.561  0.2316 -0.4080 -0.0450
   70MOL0     C 9129   7.013   3.707   4.574  0.3370  0.1494  0.1650
   70MOL0     C 9130   7.083   3.665   4.698  1.3804  0.5890 -0.1119
   70MOL0     C 9131   7.217   3.735   4.714  0.4052 -0.0678 -0.7530
   70MOL0     O 9132   7.277   3.686   4.839 -0.0395  0.0949  0.2151
   70MOL0     C 9133   7.214   3.720   4.958 -0.3619  0.1569 -0.3105
   70MOL0     C 9134   7.183   3.617   5.046 -0.2778  0.2649 -0.4503
   70MOL0     C 9135   7.131   3.663   5.168  0.8251  0.8457  0.1379
   70MOL0     C 9136   7.110   3.793   5.210  1.1963 -0.5620  1.0020
   70MOL0     C 9137   7.044   3.820   5.344  0.3062 -1.0195 -0.1469
   70MOL0     O 9138   7.009   3.949   5.379 -0.6569 -0.6732  0.2612
   70MOL0     C 9139   6.923   3.978   5.480  0.9099  0.3223  0.0136
   70MOL0     C 9140   6.794   3.904   5.515  0.0588 -0.2408 -0.1840
   70MOL0     C 9141   6.722   3.930   5.628  0.0655 -0.6752 -0.6365
   70MOL0     C 9142   6.753   4.039   5.714  0.0961 -0.9480 -0.0108
   70MOL0     O 9143   6.685   4.077   5.822 -0.2918 -1.4160 -0.1140
   70MOL0     C 9144   6.548   4.056   5.834  0.4282  0.8132  0.0235
   70MOL0     C 9145   6.466   4.162   5.755  0.0598  0.5503  0.2903
   70MOL0     C 9146   6.317   4.159   5.767  0.6410 -0.0546 -0.2441
   70MOL0     C 9147   6.271   4.016   5.719 -0.4769 -0.8747 -0.5102
   70MOL0     C 9148   6.126   4.001   5.688 -0.6482  0.1880 -0.9645
   70MOL0     C 9149   6.081   3.857   5.678  0.1343  0.2797 -0.1274
   70MOL0     C 9150   6.010   3.798   5.802  0.1197 -0.1967  0.2897
   70MOL0     C 9151   5.971   3.656   5.785  0.1482  0.6101 -0.0925
   70MOL0    Cl 9152   5.844   3.593   5.888  0.2326  0.1641  0.1040
   70MOL0     C 9153   6.869   4.110   5.679 -0.4436 -0.7857 -0.5688
   70MOL0     C 9154   6.954   4.084   5.567 -1.3377  0.7737 -0.3175
   70MOL0     O 9155   7.035   3.721   5.428 -0.1317 -0.1621  0.0238
   70MOL0     C 9156   7.139   3.898   5.114  0.7328 -0.0033  0.7512
   70MOL0     C 9157   7.194   3.857   4.994  0.2998 -0.4448 -0.0272
   70MOL0     N 9158   6.962   3.431   4.441  0.9444 -0.2419 -0.2546
   70MOL0     N 9159   6.948   3.310   4.471  0.7402 -0.3213 -0.0384
   70MOL0     C 9160   6.872   3.119   5.670 -0.3189  0.1714  0.0635
   70MOL0     C 9161   6.888   3.072   5.802  0.5245  0.7077  0.3621
   70MOL0     C 9162   6.866   2.952   6.216 -0.4157  0.6686 -0.9178
   70MOL0     C 9163   6.777   3.030   6.290 -0.3360  1.0119 -0.1565
   70MOL0     C 9164   6.737   3.002   6.424 -0.0072  0.7943 -0.4820
   70MOL0     C 9165   6.792   2.890   6.489 -0.2933  0.0790 -0.1070
   70MOL0     O 9166   6.752   2.865   6.620  0.0754 -0.3295 -0.0850
   70MOL0     C 9167   6.806   2.751   6.695 -0.1098 -1.0071  0.6341
   70MOL0     C 9168   6.741   2.724   6.830  0.4135 -0.0459  0.1215
   70MOL0     C 9169   6.590   2.686   6.833 -0.7358 -0.3140 -0.3585
   70MOL0     C 9170   6.552   2.548   6.769 -0.5202  0.1053  0.5655
   70MOL0     C 9171   6.615   2.432   6.824 -0.4961  1.1630  0.4976
   70MOL0     C 9172   6.662   2.324   6.863 -0.3354 -0.1809 -0.1754
   70MOL0     C 9173   6.869   2.802   6.408  0.0897 -0.3412 -0.8917
   70MOL0     C 9174   6.909   2.840   6.281  0.0762  0.6320  0.0834
   70MOL0     H 9175   6.939   3.370   5.961 -0.6010  1.3244 -1.3888
   70MOL0     H 9176   6.923   3.449   5.732 -3.6644  0.6671 -1.8129
   70MOL0     H 9177   7.023   3.402   5.457  0.4817 -1.2853  0.2441
   70MOL0     H 9178   6.877   3.492   5.519 -2.4241 -0.8554  0.3037
   70MOL0     H 9179   6.904   3.523   5.288  1.0745  0.5321 -0.5913
   70MOL0     H 9180   6.757   3.433   5.320 -0.6503  0.6665 -0.7733
   70MOL0     H 9181   6.884   3.219   5.262 -1.3302  0.6935  0.4993
   70MOL0     H 9182   7.030   3.309   5.214 -0.2395  0.0740 -1.4234
   70MOL0     H 9183   6.734   3.307   5.098  0.7345 -1.9737 -2.2038
   70MOL0     H 9184   6.844   3.441   5.059  1.2336  0.7328 -1.9395
   70MOL0     H 9185   6.914   3.156   5.025  0.2696 -1.7971 -0.9276
   70MOL0     H 9186   7.001   3.307   4.953 -0.5221 -0.9415 -2.5471
   70MOL0     H 9187   6.806   3.343   4.835 -0.0331  1.0003  1.7493
   70MOL0     H 9188   6.720   3.190   4.892  1.0702 -0.0865  1.4846
   70MOL0     H 9189   6.971   3.184   4.723 -0.2813 -0.4126 -1.2294
   70MOL0     H 9190   6.861   3.047   4.772 -2.4080 -1.6235 -4.1458
   70MOL0     H 9191   6.688   3.181   4.646 -0.4365  1.0664  1.2937
   70MOL0     H 9192   6.799   3.086   4.548 -3.0087  2.1271 -1.9076
   70MOL0     H 9193   6.713   3.449   4.656 -0.8692  0.4633 -1.3498
   70MOL0     H 9194   6.838   3.640   4.664  0.6070  0.2235  0.1546
   70MOL0     H 9195   6.818   3.726   4.505  1.9336  2.2128  1.5440
   70MOL0     H 9196   7.003   3.814   4.591 -0.1564 -0.1864  2.3125
   70MOL0     H 9197   7.056   3.680   4.478 -2.9680  3.1165 -2.4226
   70MOL0     H 9198   7.020   3.684   4.785 -0.8060 -1.9323 -1.0051
   70MOL0     H 9199   7.100   3.558   4.683  1.2518  0.6426 -0.6706
   70MOL0     H 9200   7.208   3.843   4.725  0.9827 -0.1812  1.0424
   70MOL0     H 9201   7.279   3.701   4.630  0.0177 -1.5957 -0.4477
   70MOL0     H 9202   7.195   3.511   5.024 -0.2532  0.1830 -0.0482
   70MOL0     H 9203   7.108   3.585   5.240  0.3154 -1.7802 -2.6909
   70MOL0     H 9204   6.774   3.822   5.446 -0.2913  1.8189 -2.6554
   70MOL0     H 9205   6.641   3.862   5.652  1.8289 -1.9080  2.4415
   70MOL0     H 9206   6.532   4.056   5.942  1.0511  0.0454  0.1253
   70MOL0     H 9207   6.516   3.955   5.806 -1.9245  2.6340 -5.1844
   70MOL0     H 9208   6.480   4.169   5.647 -3.1851  2.6012 -0.1427
   70MOL0     H 9209   6.499   4.261   5.787 -0.6448  1.1047 -0.6298
   70MOL0     H 9210   6.278   4.237   5.701  1.7498  0.4539 -0.3227
   70MOL0     H 9211   6.287   4.185   5.868 -0.8785  2.4852 -1.2559
   70MOL0     H 9212   6.330   3.982   5.633 -0.6741  0.1208 -1.0470
   70MOL0     H 9213   6.292   3.962   5.813 -1.1518  2.9042  2.0328
   70MOL0     H 9214   6.122   4.062   5.597  3.8207 -0.9904 -2.1862
   70MOL0     H 9215   6.062   4.051   5.760  0.1876 -0.3477  0.1743
   70MOL0     H 9216   6.177   3.806   5.666  0.7163  1.3370 -0.0618
   70MOL0     H 9217   6.025   3.856   5.584  1.9104  2.4153 -1.2935
   70MOL0     H 9218   6.073   3.806   5.891 -0.6825  1.7012  0.7430
   70MOL0     H 9219   5.914   3.850   5.820  0.7569  0.1792  3.1042
   70MOL0     H 9220   6.059   3.593   5.800 -1.3960 -1.3062  1.5264
   70MOL0     H 9221   5.944   3.641   5.680 -1.4303  0.2221  0.3502
   70MOL0     H 9222   6.897   4.196   5.740  2.1679 -1.1398 -1.1536
   70MOL0     H 9223   7.041   4.144   5.541 -0.6133 -0.7466 -1.5259
   70MOL0     H 9224   7.116   4.003   5.127 -0.3260 -0.5725  4.7339
   70MOL0     H 9225   7.220   3.932   4.921  1.0186 -0.9179 -0.2638
   70MOL0     H 9226   6.856   3.054   5.584  4.8427 -1.1490 -0.2839
   70MOL0     H 9227   6.879   2.965   5.814 -2.1994  0.9117  0.7948
   70MOL0     H 9228   6.737   3.120   6.244 -1.5197  0.3544 -0.4620
   70MOL0     H 9229   6.665   3.069   6.469 -1.5287 -0.6891 -0.6270
   70MOL0     H 9230   6.910   2.759   6.727 -0.2826 -2.3879  1.6256
   70MOL0     H 9231   6.788   2.662   6.634 -4.0903  0.0000  0.0331
   70MOL0     H 9232   6.801   2.647   6.880  2.4857  1.9943  0.9678
   70MOL0     H 9233   6.752   2.813   6.894 -2.1356 -0.1913  0.8759
   70MOL0     H 9234   6.531   2.755   6.772  0.3020  2.0800  1.1935
   70MOL0     H 9235   6.554   2.693   6.936  3.1901 -0.1850  1.1777
   70MOL0     H 9236   6.446   2.544   6.795 -0.7206  3.5327  0.7713
   70MOL0     H 9237   6.559   2.560   6.660 -1.5660  1.4193  0.6087
   70MOL0     H 9238   6.696   2.230   6.900 -2.5220 -1.7900 -2.0096
   70MOL0     H 9239   6.923   2.719   6.451 -0.7293  0.1729  1.2379
   70MOL0     H 9240   6.967   2.763   6.231  0.4662  0.4396  0.8172
   71MOL0     O 9241   9.404  10.400   2.868 -0.4805  0.1902  0.5962
   71MOL0     C 9242   9.355  10.372   2.973 -0.1315 -0.6249 -0.1221
   71MOL0     O 9243   9.408  10.289   3.067 -0.0458  1.0965  0.0050
   71MOL0     C 9244   9.511  10.208   3.035 -0.2535 -0.2908 -0.2340
   71MOL0     C 9245   9.497  10.068   3.026  0.1225  0.1438 -0.9105
   71MOL0     C 9246   9.596   9.978   3.030 -0.4021 -0.5322 -0.1487
   71MOL0     C 9247   9.726  10.027   3.025  0.6083  0.1960  0.2980
   71MOL0     O 9248   9.834   9.952   3.027  0.0988 -0.1398 -0.5173
   71MOL0     C 9249   9.843   9.869   3.144  0.3504 -0.1211  0.1638
   71MOL0     C 9250   9.980   9.799   3.133  0.1250 -0.4172  0.5758
   71MOL0     C 9251  10.019   9.773   3.277  0.8469  0.7285  0.7014
   71MOL0     C 9252  10.163   9.727   3.280  0.1625  0.0914  0.7044
   71MOL0     C 9253  10.221   9.699   3.419  0.6710  0.4399  0.6303
   71MOL0     C 9254  10.163   9.578   3.486 -0.0249  0.2371  0.2792
   71MOL0     C 9255  10.249   9.536   3.611 -0.5030  0.1910  0.0752
   71MOL0     C 9256  10.234   9.388   3.639 -0.3105 -0.0233 -0.0763
   71MOL0     N 9257  10.292   9.354   3.766  0.2976  0.3908 -0.5150
   71MOL0     C 9258  10.394   9.260   3.778 -0.0395 -0.3384 -0.7705
   71MOL0     C 9259  10.423   9.284   3.911 -1.1287 -0.3987  0.6302
   71MOL0     C 9260  10.557   9.229   3.971 -0.8966 -1.3117 -0.3834
   71MOL0     C 9261  10.678   9.315   3.952  0.2959  0.5087  0.6550
   71MOL0     C 9262  10.654   9.462   3.915  1.1761 -0.2836 -1.4429
   71MOL0     C 9263  10.785   9.527   3.908 -0.2820 -0.9160  0.3383
   71MOL0     O 9264  10.777   9.647   3.831  0.2224  0.3803 -0.4728
   71MOL0     C 9265  10.848   9.760   3.855  0.3434 -0.4153  1.4269
   71MOL0     C 9266  10.843   9.858   3.756 -0.9256 -0.5905  1.2372
   71MOL0     C 9267  10.907   9.980   3.764 -0.4058 -0.2211  0.4903
   71MOL0     C 9268  10.981  10.015   3.881 -0.2708 -0.4365 -0.2780
   71MOL0     C 9269  11.048  10.148   3.890  0.3840 -0.4496 -0.8166
   71MOL0     O 9270  11.121  10.176   4.000 -0.1624 -0.0387 -0.6529
   71MOL0     C 9271  11.203  10.280   4.006  0.5736 -0.0358  0.0757
   71MOL0     C 9272  11.136  10.407   4.016 -0.7718 -1.0982 -0.1584
   71MOL0     C 9273  11.215  10.533   4.012  0.9874 -0.8326  1.1412
   71MOL0     C 9274  11.354  10.527   4.019 -0.7090  0.6279  0.0954
   71MOL0     O 9275  11.437  10.639   4.037  0.1164 -0.4294  0.2428
   71MOL0     C 9276  11.379  10.771   4.057 -0.1059  0.8686 -0.6947
   71MOL0     C 9277  11.496  10.867   4.075  0.2108  0.1874 -0.4273
   71MOL0     C 9278  11.516  10.901   4.219 -0.5318  0.3115  0.4646
   71MOL0     C 9279  11.639  11.004   4.228  1.2274  0.2315  0.3968
   71MOL0     C 9280  11.666  11.041   4.381 -0.2352  0.6405  1.2124
   71MOL0     C 9281  11.555  11.141   4.419 -0.0492  0.2478 -0.1450
   71MOL0     C 9282  11.562  11.175   4.561 -0.2066 -0.1616  0.0274
   71MOL0     C 9283  11.694  11.267   4.587  0.2008  0.9464  0.9758
   71MOL0    Cl 9284  11.715  11.293   4.750  0.1309  0.0525 -0.3393
   71MOL0     C 9285  11.417  10.404   4.004  0.8136  0.1656  0.2639
   71MOL0     C 9286  11.346  10.280   3.993  0.2931 -0.1117 -0.6002
   71MOL0     O 9287  11.031  10.225   3.798  0.4657 -0.9269 -0.2625
   71MOL0     C 9288  10.982   9.927   3.986  0.9496 -0.9315  0.5512
   71MOL0     C 9289  10.912   9.803   3.969  1.0561 -0.4255  0.5466
   71MOL0     N 9290  10.336   9.377   3.969 -0.1219 -0.2833  0.1316
   71MOL0     N 9291  10.255   9.408   3.881 -1.0101 -0.4948 -0.2474
   71MOL0     C 9292   9.747  10.168   3.023 -0.9018 -0.1558 -0.7954
   71MOL0     C 9293   9.636  10.252   3.033 -0.2046  0.0607 -0.3710
   71MOL0     C 9294   9.241  10.472   3.012 -0.8438  0.1414  0.7742
   71MOL0     C 9295   9.226  10.601   2.964  0.5834 -0.1546  1.1356
   71MOL0     C 9296   9.135  10.687   3.027 -0.4560  0.5269 -0.3858
   71MOL0     C 9297   9.047  10.637   3.122 -0.3086  0.7544  0.4668
   71MOL0     O 9298   8.968  10.737   3.181 -1.1428  0.5444  0.0888
   71MOL0     C 9299   8.868  10.694   3.278 -0.1122 -0.4346  0.3453
   71MOL0     C 9300   8.773  10.811   3.309 -0.1972 -0.4546  0.7802
   71MOL0     C 9301   8.675  10.773   3.415  0.2295  0.6415  0.6096
   71MOL0     C 9302   8.566  10.882   3.433 -0.9620 -1.1849  0.1229
   71MOL0     C 9303   8.498  10.880   3.559 -1.0036  1.2009 -0.0966
   71MOL0     C 9304   8.446  10.863   3.673  0.6937 -0.2382 -0.1783
   71MOL0     C 9305   9.058  10.501   3.159 -0.0565  0.5630 -0.3257
   71MOL0     C 9306   9.164  10.424   3.113 -0.3531 -0.3239  0.3696
   71MOL0     H 9307   9.400  10.033   3.059 -0.3047  2.5873  0.6772
   71MOL0     H 9308   9.570   9.875   3.051 -1.1907 -0.9039 -2.7011
   71MOL0     H 9309   9.764   9.795   3.158  0.8083 -0.1354  3.5333
   71MOL0     H 9310   9.836   9.931   3.234  2.7722  0.6274 -0.0794
   71MOL0     H 9311  10.057   9.856   3.080  0.1917 -0.4700  0.6154
   71MOL0     H 9312   9.968   9.698   3.092  2.0992 -1.5958  2.6609
   71MOL0     H 9313   9.959   9.687   3.307 -0.1049  0.5881 -1.4269
   71MOL0     H 9314   9.995   9.858   3.341  1.7711 -0.4209  2.7046
   71MOL0     H 9315  10.162   9.639   3.214 -3.6134  1.5504 -1.4531
   71MOL0     H 9316  10.219   9.812   3.239 -1.7983 -0.8638 -4.8113
   71MOL0     H 9317  10.223   9.790   3.480  0.9254  2.5090 -2.2612
   71MOL0     H 9318  10.328   9.680   3.405  0.3565 -1.0451  0.0869
   71MOL0     H 9319  10.160   9.500   3.409 -0.4831  0.8179 -0.3070
   71MOL0     H 9320  10.057   9.586   3.513  0.1514 -0.6853  1.2954
   71MOL0     H 9321  10.357   9.552   3.607 -0.1831 -1.2909  1.6407
   71MOL0     H 9322  10.207   9.594   3.693 -0.1762  0.8630 -0.2231
   71MOL0     H 9323  10.273   9.324   3.558 -2.2410 -0.8327 -0.4050
   71MOL0     H 9324  10.127   9.374   3.650 -0.3498  1.6636  2.2546
   71MOL0     H 9325  10.447   9.208   3.699  1.0590  0.1755 -0.3919
   71MOL0     H 9326  10.583   9.131   3.928  0.9913 -0.1808 -1.9938
   71MOL0     H 9327  10.536   9.196   4.073  4.8153 -0.0579  1.5902
   71MOL0     H 9328  10.738   9.278   3.868  0.9342 -1.0782  1.7657
   71MOL0     H 9329  10.742   9.312   4.041  0.5774 -1.0308  0.4359
   71MOL0     H 9330  10.588   9.469   3.828 -1.6412  2.5015  0.6661
   71MOL0     H 9331  10.591   9.496   3.998  0.5298  0.6221 -2.2811
   71MOL0     H 9332  10.858   9.461   3.860  1.8046 -0.2812  2.4580
   71MOL0     H 9333  10.822   9.550   4.008  3.8376  1.3450 -1.4682
   71MOL0     H 9334  10.774   9.842   3.674 -3.1893 -1.1331  3.1240
   71MOL0     H 9335  10.887  10.051   3.685 -3.9497 -1.3751  0.1354
   71MOL0     H 9336  11.029  10.407   4.036 -0.6148 -2.4307  0.7891
   71MOL0     H 9337  11.174  10.633   4.019 -0.7253 -1.5181  1.4964
   71MOL0     H 9338  11.311  10.771   4.143  1.3180 -0.5456  0.4896
   71MOL0     H 9339  11.335  10.816   3.968  1.0314  2.5219 -0.4473
   71MOL0     H 9340  11.469  10.961   4.026 -0.7380 -1.2739 -2.9063
   71MOL0     H 9341  11.583  10.823   4.025  0.1905  0.3942 -0.6457
   71MOL0     H 9342  11.544  10.817   4.284  4.1464  3.7725  3.6575
   71MOL0     H 9343  11.430  10.956   4.257 -0.5091  1.1893 -0.7102
   71MOL0     H 9344  11.723  10.949   4.185 -0.4696 -2.6177  0.4388
   71MOL0     H 9345  11.610  11.096   4.176  1.4541  0.1190  0.0726
   71MOL0     H 9346  11.763  11.090   4.396 -0.4436  0.9396  1.5888
   71MOL0     H 9347  11.666  10.950   4.442 -0.3831 -0.1288  0.0858
   71MOL0     H 9348  11.454  11.118   4.384 -0.9341  2.7845  0.5716
   71MOL0     H 9349  11.580  11.232   4.365  3.9547 -0.1533  0.7189
   71MOL0     H 9350  11.472  11.232   4.583  1.2288  2.3766 -0.2950
   71MOL0     H 9351  11.570  11.087   4.626 -0.4785 -1.9887 -2.2641
   71MOL0     H 9352  11.649  11.358   4.544 -1.6917 -0.9925 -1.4703
   71MOL0     H 9353  11.780  11.240   4.526 -0.8896 -1.9038  0.5446
   71MOL0     H 9354  11.525  10.403   3.998  0.9466 -0.2645  2.1404
   71MOL0     H 9355  11.410  10.198   3.961 -0.1607  0.4175 -3.1326
   71MOL0     H 9356  11.039   9.939   4.077  0.7789  2.5090  0.3263
   71MOL0     H 9357  10.926   9.737   4.054 -1.5832  1.5579  2.7091
   71MOL0     H 9358   9.850  10.198   3.012 -0.6352 -1.6858 -3.0615
   71MOL0     H 9359   9.637  10.360   3.037  0.9751  0.0965 -1.2359
   71MOL0     H 9360   9.287  10.631   2.879  0.6258 -1.5773  0.6291
   71MOL0     H 9361   9.132  10.792   2.999  0.9304  1.2606  1.9609
   71MOL0     H 9362   8.911  10.660   3.373  0.0465 -2.4139 -0.3838
   71MOL0     H 9363   8.811  10.611   3.234  1.4097  0.2641 -3.2658
   71MOL0     H 9364   8.826  10.905   3.326 -0.9263 -0.2206  1.9031
   71MOL0     H 9365   8.714  10.827   3.218 -0.0045 -0.9087  0.5742
   71MOL0     H 9366   8.743  10.767   3.501  4.5272 -0.8618 -2.5242
   71MOL0     H 9367   8.631  10.675   3.398  0.0022  1.0182 -1.2171
   71MOL0     H 9368   8.606  10.984   3.431 -3.4096 -0.0995  1.7045
   71MOL0     H 9369   8.487  10.864   3.360  0.1476 -0.9801 -1.1539
   71MOL0     H 9370   8.386  10.865   3.762  4.1773  3.4949  2.4905
   71MOL0     H 9371   8.991  10.464   3.236 -1.1393 -0.3835 -1.6721
   71MOL0     H 9372   9.174  10.321   3.145 -1.6316 -1.4256 -2.3811
   72MOL0     O 9373   3.674   9.056   8.259  0.1462 -0.0158 -0.2752
   72MOL0     C 9374   3.659   8.932   8.242  0.6518 -0.3569  0.1778
   72MOL0     O 9375   3.757   8.829   8.273 -0.4576 -0.4892  0.0371
   72MOL0     C 9376   3.885   8.872   8.310  0.8790  0.0305  0.2982
   72MOL0     C 9377   3.902   8.936   8.430 -0.9460  0.2535  0.0799
   72MOL0     C 9378   4.019   8.947   8.502 -0.3044  0.1876 -0.2631
   72MOL0     C 9379   4.135   8.902   8.443  0.0463  0.7580 -0.2151
   72MOL0     O 9380   4.261   8.894   8.506  0.2940  0.1517  0.1071
   72MOL0     C 9381   4.288   8.980   8.620  0.1647 -0.9159  0.2613
   72MOL0     C 9382   4.434   8.960   8.651 -0.3394  0.0121 -0.5800
   72MOL0     C 9383   4.472   8.824   8.727  0.2642 -0.4820 -0.3767
   72MOL0     C 9384   4.506   8.704   8.639  0.4784 -0.1098  0.0066
   72MOL0     C 9385   4.593   8.610   8.714  0.0749 -0.8892 -0.4040
   72MOL0     C 9386   4.532   8.551   8.836  0.5907  0.2369  0.2841
   72MOL0     C 9387   4.635   8.451   8.895  0.6897 -0.3914  0.1126
   72MOL0     C 9388   4.605   8.429   9.041 -0.6977  0.6379 -0.3409
   72MOL0     N 9389   4.724   8.406   9.112 -0.3993  0.1081 -0.1902
   72MOL0     C 9390   4.722   8.383   9.249 -0.7320 -0.8251  1.0442
   72MOL0     C 9391   4.843   8.333   9.272 -0.5351  0.2276 -0.1977
   72MOL0     C 9392   4.874   8.278   9.410  0.9706 -0.0240 -0.5215
   72MOL0     C 9393   4.875   8.384   9.524 -0.3193 -0.1820  0.3076
   72MOL0     C 9394   4.975   8.505   9.510  0.0832 -0.0285  0.6712
   72MOL0     C 9395   5.119   8.449   9.479  0.0469 -0.2997 -0.0978
   72MOL0     O 9396   5.161   8.332   9.549  0.7125 -0.8968  0.1847
   72MOL0     C 9397   5.240   8.361   9.652 -0.9455 -0.1986  0.8548
   72MOL0     C 9398   5.186   8.366   9.772 -0.3275 -0.2323  0.2211
   72MOL0     C 9399   5.266   8.393   9.886  0.3008 -0.4299  0.4359
   72MOL0     C 9400   5.407   8.412   9.871 -0.0268 -0.0300 -0.1716
   72MOL0     C 9401   5.479   8.450   9.992  0.1649  0.1401 -0.0527
   72MOL0     O 9402   5.412   8.529  10.091  0.3688 -0.4033 -0.1595
   72MOL0     C 9403   5.446   8.556  10.221 -0.2648 -0.1613 -0.4652
   72MOL0     C 9404   5.584   8.556  10.264  0.6741 -0.1915  1.2843
   72MOL0     C 9405   5.612   8.576  10.401 -0.3158  0.5874  0.3325
   72MOL0     C 9406   5.503   8.588  10.490 -0.1456 -0.2348 -0.6461
   72MOL0     O 9407   5.528   8.605  10.627  0.7756  0.7173  0.5691
   72MOL0     C 9408   5.605   8.724  10.664  0.2933  0.0450  0.5023
   72MOL0     C 9409   5.560   8.777  10.798 -0.5003 -0.3593 -0.0416
   72MOL0     C 9410   5.600   8.691  10.921  0.7078 -0.6278  0.2493
   72MOL0     C 9411   5.541   8.747  11.041  0.6895  0.5585 -0.3880
   72MOL0     C 9412   5.628   8.874  11.088  0.9368  0.3679  0.7348
   72MOL0     C 9413   5.639   8.892  11.241  0.5943 -0.3081  0.0186
   72MOL0     C 9414   5.734   8.990  11.275 -0.7363  0.1708 -1.1478
   72MOL0     C 9415   5.804   8.974  11.409 -0.5763  0.4052 -0.0350
   72MOL0    Cl 9416   5.692   8.927  11.542  0.1385  0.5005 -0.4086
   72MOL0     C 9417   5.371   8.565  10.450  0.6271 -0.0048  0.5140
   72MOL0     C 9418   5.338   8.565  10.315 -0.6047  0.5827 -0.2936
   72MOL0     O 9419   5.595   8.410   9.996 -0.0506  0.3451 -0.0143
   72MOL0     C 9420   5.457   8.410   9.742  0.3456  1.0678  0.0967
   72MOL0     C 9421   5.377   8.383   9.629 -0.5812  0.4989 -0.2166
   72MOL0     N 9422   4.912   8.321   9.148 -0.1448 -1.4561 -0.1546
   72MOL0     N 9423   4.836   8.363   9.058 -0.4703 -1.4606 -0.1104
   72MOL0     C 9424   4.129   8.853   8.311 -0.4306  1.2237  0.2674
   72MOL0     C 9425   4.004   8.823   8.255 -0.3245 -0.0399 -0.2359
   72MOL0     C 9426   3.540   8.895   8.171  0.3311 -0.4592 -0.1078
   72MOL0     C 9427   3.522   8.757   8.139 -0.5725 -0.3071 -0.1563
   72MOL0     C 9428   3.418   8.712   8.048  0.5071 -0.2247  0.2894
   72MOL0     C 9429   3.326   8.801   8.001 -0.4720  0.2474 -0.1297
   72MOL0     O 9430   3.223   8.772   7.910  0.2171 -0.2687  0.0954
   72MOL0     C 9431   3.232   8.673   7.809 -0.4464 -0.3441  0.3731
   72MOL0     C 9432   3.154   8.713   7.683 -0.2810  0.2653 -0.6722
   72MOL0     C 9433   3.009   8.738   7.707 -0.8106  0.2646  0.5639
   72MOL0     C 9434   2.922   8.612   7.689 -0.1849  0.2394  0.1710
   72MOL0     C 9435   2.869   8.626   7.555  0.8060 -0.6285 -0.0757
   72MOL0     C 9436   2.838   8.626   7.437  0.1407 -0.4724 -0.1821
   72MOL0     C 9437   3.335   8.936   8.045  0.0407 -0.5705 -0.0177
   72MOL0     C 9438   3.439   8.986   8.125  0.8223  0.4128 -0.2213
   72MOL0     H 9439   3.816   8.975   8.482  0.5466 -1.3841  4.1608
   72MOL0     H 9440   4.009   8.972   8.607  1.6988 -0.0184  0.0205
   72MOL0     H 9441   4.230   8.938   8.703 -0.7846 -0.2801 -0.0558
   72MOL0     H 9442   4.279   9.089   8.615  3.6252 -0.3900  2.1962
   72MOL0     H 9443   4.467   9.043   8.713 -1.3967  0.3482 -0.4456
   72MOL0     H 9444   4.485   8.954   8.554 -1.5897  0.0811 -1.2556
   72MOL0     H 9445   4.391   8.794   8.794  0.4574 -0.2924 -0.0546
   72MOL0     H 9446   4.563   8.841   8.786  1.0513 -4.1334 -0.3539
   72MOL0     H 9447   4.415   8.666   8.591 -0.7587  0.4824  1.7782
   72MOL0     H 9448   4.568   8.747   8.560  1.2369 -1.6451 -0.2648
   72MOL0     H 9449   4.679   8.666   8.751 -1.7264  2.0534 -0.3347
   72MOL0     H 9450   4.627   8.533   8.644 -1.5355 -2.2298  0.2270
   72MOL0     H 9451   4.455   8.487   8.793 -0.5129  0.6787  1.5105
   72MOL0     H 9452   4.484   8.623   8.904 -2.8214 -1.6036  0.0604
   72MOL0     H 9453   4.623   8.351   8.854 -1.5599 -0.1947  0.1499
   72MOL0     H 9454   4.738   8.488   8.887  1.1738 -1.4870  1.0374
   72MOL0     H 9455   4.524   8.357   9.053 -0.8224  0.5993 -1.3349
   72MOL0     H 9456   4.557   8.520   9.078 -1.7524  0.3527 -0.9743
   72MOL0     H 9457   4.638   8.401   9.316 -3.0785  2.1247 -2.3023
   72MOL0     H 9458   4.970   8.226   9.398  1.0271  0.2530 -1.3096
   72MOL0     H 9459   4.791   8.216   9.445  0.5266  2.1507  2.6633
   72MOL0     H 9460   4.897   8.344   9.624  1.4943  1.0403  0.4463
   72MOL0     H 9461   4.773   8.420   9.534 -0.1971  0.6925 -1.2386
   72MOL0     H 9462   4.940   8.557   9.420  1.0501 -0.4554  0.0274
   72MOL0     H 9463   4.984   8.568   9.599  2.1791  1.4095 -0.4663
   72MOL0     H 9464   5.196   8.527   9.487  0.5806 -0.3577 -3.4579
   72MOL0     H 9465   5.112   8.412   9.377  1.8776 -1.9964  0.3171
   72MOL0     H 9466   5.078   8.360   9.773 -0.3097 -1.7005 -1.7515
   72MOL0     H 9467   5.214   8.384   9.980 -0.3761  0.1693  0.1262
   72MOL0     H 9468   5.668   8.562  10.195  0.9039  1.0228  1.6539
   72MOL0     H 9469   5.715   8.564  10.432  0.2629 -2.0590 -2.1907
   72MOL0     H 9470   5.585   8.800  10.588 -0.0438 -0.4364  0.1012
   72MOL0     H 9471   5.712   8.706  10.674  0.7174  1.0061 -1.8081
   72MOL0     H 9472   5.451   8.786  10.797 -0.3620  1.6501 -0.4010
   72MOL0     H 9473   5.607   8.875  10.809  0.5876 -0.8597 -0.0145
   72MOL0     H 9474   5.709   8.686  10.929  0.9727 -0.3183 -2.3731
   72MOL0     H 9475   5.557   8.591  10.907 -0.5806 -0.5566  2.9555
   72MOL0     H 9476   5.433   8.767  11.046  1.0417  2.4294  2.3101
   72MOL0     H 9477   5.562   8.675  11.120  0.5682  0.5119 -0.3979
   72MOL0     H 9478   5.584   8.960  11.038  0.8521 -1.7934 -3.4203
   72MOL0     H 9479   5.726   8.860  11.041  0.8334 -2.0901  1.0842
   72MOL0     H 9480   5.672   8.791  11.266  0.3436 -0.7062 -1.2083
   72MOL0     H 9481   5.546   8.933  11.282 -0.0005  3.9452 -4.5456
   72MOL0     H 9482   5.800   9.004  11.189  1.9188 -4.1739 -0.0910
   72MOL0     H 9483   5.688   9.089  11.290 -1.9922 -0.3731 -1.2797
   72MOL0     H 9484   5.851   9.068  11.441  0.8705 -0.2679 -0.0888
   72MOL0     H 9485   5.883   8.899  11.401 -0.9458  0.2219 -5.6111
   72MOL0     H 9486   5.287   8.563  10.518 -0.2048  1.4214 -0.3980
   72MOL0     H 9487   5.243   8.553  10.265 -0.6939  2.8405 -0.7813
   72MOL0     H 9488   5.563   8.431   9.725  0.9648  1.2442  3.5003
   72MOL0     H 9489   5.419   8.389   9.529 -2.6274  1.4454 -1.0867
   72MOL0     H 9490   4.222   8.816   8.270 -2.5122 -2.6253 -1.4977
   72MOL0     H 9491   4.018   8.778   8.157  1.2252  1.6735 -0.8610
   72MOL0     H 9492   3.594   8.681   8.168 -0.3957  0.6459  2.0718
   72MOL0     H 9493   3.413   8.606   8.025  0.8468  0.0871 -1.3840
   72MOL0     H 9494   3.195   8.576   7.845 -1.5566 -0.7073 -1.6127
   72MOL0     H 9495   3.334   8.663   7.771 -1.1313  0.7161 -1.9042
   72MOL0     H 9496   3.197   8.805   7.641 -0.9942  0.3861 -1.1600
   72MOL0     H 9497   3.169   8.637   7.605  0.2403 -0.2112 -0.1110
   72MOL0     H 9498   2.982   8.816   7.635  3.7299 -0.3145 -2.0803
   72MOL0     H 9499   3.003   8.774   7.811 -1.5489 -1.2686  1.0801
   72MOL0     H 9500   2.977   8.520   7.710  0.0899 -0.3556 -2.7198
   72MOL0     H 9501   2.834   8.611   7.754  0.2686  2.3470  0.8775
   72MOL0     H 9502   2.810   8.610   7.335 -0.6739 -1.2125  0.1468
   72MOL0     H 9503   3.251   9.000   8.020  0.2429  0.1043  0.9854
   72MOL0     H 9504   3.433   9.093   8.144  2.1571  0.3822  0.4673
   73MOL0     O 9505   3.825   1.674   3.422 -0.0646  0.6589 -0.8104
   73MOL0     C 9506   3.733   1.682   3.510 -0.2741  0.0494  0.2495
   73MOL0     O 9507   3.674   1.788   3.575  0.3994 -0.7366  0.5151
   73MOL0     C 9508   3.734   1.912   3.573  0.5645 -0.6820  0.4644
   73MOL0     C 9509   3.689   1.989   3.682  0.4306  0.2268  0.3769
   73MOL0     C 9510   3.736   2.118   3.704  0.8893  0.0179  0.1381
   73MOL0     C 9511   3.821   2.177   3.608  0.0422 -0.3173  0.4683
   73MOL0     O 9512   3.849   2.306   3.640  0.0130 -1.3855  0.4426
   73MOL0     C 9513   3.916   2.390   3.540 -0.4508 -0.5752  0.3371
   73MOL0     C 9514   3.870   2.525   3.577  0.9584 -0.0885  0.2656
   73MOL0     C 9515   3.927   2.628   3.477  0.0685 -1.0152 -0.4101
   73MOL0     C 9516   3.865   2.762   3.515 -1.1615  0.2975 -0.1914
   73MOL0     C 9517   3.898   2.871   3.411  0.6047  0.1449  0.8486
   73MOL0     C 9518   3.796   2.979   3.416  0.1887 -0.7061 -0.2542
   73MOL0     C 9519   3.838   3.082   3.304  0.2424  0.2433 -0.0230
   73MOL0     C 9520   3.738   3.195   3.275  0.1116 -0.2350  0.2654
   73MOL0     N 9521   3.793   3.299   3.186 -1.5263  0.0643  0.1177
   73MOL0     C 9522   3.867   3.407   3.231  0.0442  0.3232  0.9002
   73MOL0     C 9523   3.874   3.479   3.120 -0.6007 -0.6540  0.2908
   73MOL0     C 9524   3.929   3.619   3.106  0.8187 -0.8039  1.2945
   73MOL0     C 9525   3.991   3.655   2.975 -0.3742  0.6935 -0.4799
   73MOL0     C 9526   4.051   3.791   2.966  0.6229 -0.3580  0.0949
   73MOL0     C 9527   3.940   3.887   2.923 -0.2558  0.0012 -0.0386
   73MOL0     O 9528   3.960   4.002   3.001  0.2890 -0.2236  0.2108
   73MOL0     C 9529   3.940   4.127   2.950  0.8739 -0.0621  0.7423
   73MOL0     C 9530   3.856   4.158   2.845 -0.6909  0.4107 -0.5977
   73MOL0     C 9531   3.837   4.295   2.813 -0.1890  0.1267  0.0902
   73MOL0     C 9532   3.905   4.394   2.889  0.3541  0.3269 -0.0070
   73MOL0     C 9533   3.878   4.541   2.856 -0.8951 -0.1829 -0.2053
   73MOL0     O 9534   3.926   4.636   2.942 -0.2241 -0.1085  0.7602
   73MOL0     C 9535   3.906   4.769   2.913  0.3545  0.5453 -0.8331
   73MOL0     C 9536   3.945   4.833   2.793  0.1165 -0.3942  0.7885
   73MOL0     C 9537   3.915   4.969   2.765  0.3310  0.3753  0.2032
   73MOL0     C 9538   3.838   5.030   2.864 -0.3714 -0.8628 -1.0784
   73MOL0     O 9539   3.804   5.165   2.840 -0.1794 -0.5789 -0.2737
   73MOL0     C 9540   3.660   5.184   2.836 -0.2810  0.7808 -0.1347
   73MOL0     C 9541   3.619   5.333   2.865  0.4155  0.0807  1.3365
   73MOL0     C 9542   3.651   5.394   2.996  0.2485 -0.1817  0.3279
   73MOL0     C 9543   3.607   5.541   3.010 -0.4100  0.0882 -0.3481
   73MOL0     C 9544   3.468   5.580   2.946  0.4093  0.6215  0.2208
   73MOL0     C 9545   3.429   5.718   2.993 -0.3923  0.2723  1.1466
   73MOL0     C 9546   3.283   5.741   2.956 -0.3393 -0.7792  0.0682
   73MOL0     C 9547   3.275   5.769   2.804 -0.6477  0.2489  0.0507
   73MOL0    Cl 9548   3.123   5.787   2.738 -0.2505 -0.0801 -0.5163
   73MOL0     C 9549   3.816   4.981   2.988 -0.0796 -0.4994  0.2716
   73MOL0     C 9550   3.853   4.847   3.015 -0.5918 -0.7080  0.1912
   73MOL0     O 9551   3.814   4.565   2.754  0.8396  0.3257  0.2187
   73MOL0     C 9552   3.983   4.364   2.999  0.0532 -0.0209  0.1508
   73MOL0     C 9553   4.001   4.228   3.023  0.0985 -0.5598  0.3715
   73MOL0     N 9554   3.815   3.421   3.009  0.0390 -0.2988  0.3391
   73MOL0     N 9555   3.764   3.317   3.054  0.3269 -0.2372 -0.4665
   73MOL0     C 9556   3.877   2.107   3.495 -0.0800  0.0093 -0.6851
   73MOL0     C 9557   3.831   1.974   3.476  0.1416  0.2343 -0.3473
   73MOL0     C 9558   3.660   1.554   3.534  0.2583 -0.1871 -0.1667
   73MOL0     C 9559   3.578   1.528   3.649  0.4053  1.0687 -0.1676
   73MOL0     C 9560   3.499   1.406   3.663 -0.1362  0.7697 -0.1680
   73MOL0     C 9561   3.528   1.297   3.575 -1.0344  0.4568  1.1219
   73MOL0     O 9562   3.461   1.182   3.568  0.0421  0.7783  0.1489
   73MOL0     C 9563   3.490   1.078   3.675 -0.6144 -0.0444 -0.1955
   73MOL0     C 9564   3.381   0.980   3.705  0.8217  0.6628  1.3806
   73MOL0     C 9565   3.276   1.049   3.786  0.5572 -0.3696  0.4170
   73MOL0     C 9566   3.209   0.965   3.890 -0.1115  0.0155  0.5779
   73MOL0     C 9567   3.114   1.049   3.965 -0.6012 -0.2767  0.5332
   73MOL0     C 9568   3.044   1.103   4.048 -0.2460 -0.0247  1.3016
   73MOL0     C 9569   3.608   1.326   3.464 -0.0513  0.3919  0.1518
   73MOL0     C 9570   3.665   1.452   3.440 -0.4488 -0.7140  0.0322
   73MOL0     H 9571   3.615   1.938   3.743  2.9945 -2.6194  1.3438
   73MOL0     H 9572   3.694   2.178   3.784 -0.6223  0.7062 -1.1050
   73MOL0     H 9573   3.892   2.366   3.436 -1.1170  3.0016 -0.4495
   73MOL0     H 9574   4.025   2.389   3.547 -0.5145  0.6107  2.3163
   73MOL0     H 9575   3.901   2.555   3.678 -0.0830  0.6211  0.3868
   73MOL0     H 9576   3.761   2.535   3.579  1.0775  2.3081  3.8258
   73MOL0     H 9577   3.890   2.598   3.379  0.4594 -0.8385 -0.6130
   73MOL0     H 9578   4.036   2.633   3.479  0.1962 -2.9465 -0.4305
   73MOL0     H 9579   3.757   2.748   3.518 -1.3571  1.6746 -0.3366
   73MOL0     H 9580   3.904   2.804   3.608  3.1548 -0.8314 -1.2763
   73MOL0     H 9581   3.901   2.830   3.309 -4.4857  1.1855  0.0165
   73MOL0     H 9582   3.998   2.909   3.434  1.3059 -0.8213 -0.4617
   73MOL0     H 9583   3.803   3.029   3.514 -2.1359 -1.8015  0.5275
   73MOL0     H 9584   3.695   2.941   3.400 -0.8566  2.4083 -2.0168
   73MOL0     H 9585   3.937   3.120   3.331 -0.0039 -0.2641  1.7182
   73MOL0     H 9586   3.857   3.030   3.210 -0.1894  1.4898 -0.8325
   73MOL0     H 9587   3.699   3.245   3.364 -1.9324  1.1922 -1.3619
   73MOL0     H 9588   3.649   3.160   3.222 -0.5139 -0.4561  1.4134
   73MOL0     H 9589   3.912   3.443   3.324  1.1402  0.2180  0.4302
   73MOL0     H 9590   4.006   3.633   3.182  1.3352  1.4515  0.4450
   73MOL0     H 9591   3.853   3.696   3.121  2.0409  0.6288  0.4254
   73MOL0     H 9592   3.922   3.637   2.893 -1.3183 -0.3285  0.5047
   73MOL0     H 9593   4.078   3.588   2.977  0.7384  2.0234 -1.7319
   73MOL0     H 9594   4.109   3.816   3.055  2.7172  1.2314 -1.5904
   73MOL0     H 9595   4.130   3.787   2.890  0.1069  0.0533 -0.4713
   73MOL0     H 9596   3.842   3.846   2.949 -1.1985 -0.5101 -3.8070
   73MOL0     H 9597   3.938   3.899   2.814 -1.4704 -1.0378 -0.1652
   73MOL0     H 9598   3.803   4.089   2.780  0.4149 -0.8071 -0.2376
   73MOL0     H 9599   3.774   4.323   2.729 -0.3710  1.6422  0.6996
   73MOL0     H 9600   4.014   4.779   2.729 -0.3042  1.5012 -1.4239
   73MOL0     H 9601   3.947   5.010   2.670  1.5689 -0.5720  0.1701
   73MOL0     H 9602   3.617   5.112   2.906  3.2096 -0.5752  0.8129
   73MOL0     H 9603   3.637   5.151   2.734  0.4666 -1.2781  0.3308
   73MOL0     H 9604   3.511   5.338   2.848  0.9107  0.9283 -2.5338
   73MOL0     H 9605   3.659   5.389   2.780 -4.3832 -2.3462 -3.0883
   73MOL0     H 9606   3.758   5.384   3.014 -0.1955 -1.3745  2.6570
   73MOL0     H 9607   3.599   5.334   3.071 -0.3135  0.9032  0.8374
   73MOL0     H 9608   3.602   5.568   3.116  1.1155  0.6461 -0.4007
   73MOL0     H 9609   3.685   5.603   2.964  1.2123 -1.3199  0.3944
   73MOL0     H 9610   3.391   5.508   2.977 -1.9449  1.1476 -3.6583
   73MOL0     H 9611   3.463   5.569   2.837  1.9165 -0.1534  0.2067
   73MOL0     H 9612   3.489   5.800   2.953 -2.3890  1.1108 -0.2512
   73MOL0     H 9613   3.430   5.719   3.103 -0.8119  2.3066  1.1667
   73MOL0     H 9614   3.212   5.659   2.972 -1.5637  0.3118  0.4321
   73MOL0     H 9615   3.249   5.824   3.018  2.4697  0.1381  0.5218
   73MOL0     H 9616   3.318   5.684   2.750 -1.4989 -0.7871  0.9339
   73MOL0     H 9617   3.343   5.848   2.772 -1.4023  1.4551  1.3092
   73MOL0     H 9618   3.779   5.032   3.076  2.5244  0.0640  1.1083
   73MOL0     H 9619   3.839   4.810   3.116 -0.5278 -1.8999 -0.2141
   73MOL0     H 9620   4.038   4.440   3.053  0.2221 -1.0778  1.4965
   73MOL0     H 9621   4.058   4.207   3.113  1.2483  3.8628  0.9329
   73MOL0     H 9622   3.952   2.146   3.428  1.8432 -0.9582  0.7733
   73MOL0     H 9623   3.856   1.921   3.385  1.9045 -1.8189  1.2187
   73MOL0     H 9624   3.569   1.609   3.721 -0.4737  1.4816 -0.7221
   73MOL0     H 9625   3.418   1.392   3.733 -0.1974  4.2950  0.6259
   73MOL0     H 9626   3.500   1.131   3.771 -3.2288  1.8968 -0.8746
   73MOL0     H 9627   3.586   1.032   3.653  1.2303  3.5919 -0.6041
   73MOL0     H 9628   3.349   0.931   3.613 -1.9051 -0.0145  2.5824
   73MOL0     H 9629   3.421   0.898   3.766  0.5110  0.9625  1.9960
   73MOL0     H 9630   3.198   1.081   3.716  2.4692 -1.2410 -2.2862
   73MOL0     H 9631   3.309   1.141   3.835  2.8927 -2.3003  2.6889
   73MOL0     H 9632   3.165   0.873   3.849 -1.4578  0.8085  0.1768
   73MOL0     H 9633   3.292   0.940   3.957  1.5115  0.2415 -1.2452
   73MOL0     H 9634   2.987   1.141   4.129 -3.4895 -0.0122 -0.8233
   73MOL0     H 9635   3.616   1.244   3.394  2.1208 -0.0744  0.8731
   73MOL0     H 9636   3.728   1.480   3.357  0.1373  3.5725  1.6814
   74MOL0     O 9637  11.199   6.515   4.579 -0.1717 -0.8232  0.1401
   74MOL0     C 9638  11.217   6.428   4.498  0.2020  0.1863  0.3547
   74MOL0     O 9639  11.147   6.305   4.494 -0.5957 -0.0038 -0.4031
   74MOL0     C 9640  11.056   6.284   4.594 -0.2617  0.4786 -0.5442
   74MOL0     C 9641  10.916   6.279   4.577  0.3216 -0.2812 -0.2280
   74MOL0     C 9642  10.833   6.257   4.685  0.1857 -0.4813 -0.9677
   74MOL0     C 9643  10.895   6.232   4.804 -0.1370  0.7728 -0.1861
   74MOL0     O 9644  10.820   6.223   4.917  0.0736 -0.3469  0.3702
   74MOL0     C 9645  10.826   6.089   4.973 -0.5441 -0.5819  0.5854
   74MOL0     C 9646  10.775   5.983   4.879 -0.8591 -0.2475  0.7879
   74MOL0     C 9647  10.765   5.841   4.938 -0.4979 -0.1383  0.5850
   74MOL0     C 9648  10.722   5.733   4.828 -0.7864 -0.0705 -1.0530
   74MOL0     C 9649  10.770   5.592   4.867 -0.6096  0.7098  0.3649
   74MOL0     C 9650  10.917   5.564   4.882  0.2253 -0.1482  0.2823
   74MOL0     C 9651  10.958   5.442   4.969  0.7810 -0.8042 -1.1404
   74MOL0     C 9652  10.876   5.427   5.095  0.7807  0.9307 -0.5093
   74MOL0     N 9653  10.945   5.336   5.189  1.1219  0.6555 -0.4684
   74MOL0     C 9654  10.923   5.202   5.186 -0.0479 -0.1660 -1.3653
   74MOL0     C 9655  10.976   5.144   5.301  0.3241  0.2823 -0.7889
   74MOL0     C 9656  10.977   5.001   5.366 -0.1905 -0.3524  0.3619
   74MOL0     C 9657  11.094   4.919   5.322  0.9994 -0.0348  0.3679
   74MOL0     C 9658  11.070   4.770   5.356  0.9903 -0.1327  0.3710
   74MOL0     C 9659  11.059   4.747   5.503 -1.2870 -0.1345 -0.2516
   74MOL0     O 9660  11.066   4.610   5.522  0.5355  0.4995  0.5178
   74MOL0     C 9661  11.089   4.562   5.645  0.4912 -0.2684 -0.1191
   74MOL0     C 9662  11.005   4.470   5.696 -0.0084 -0.1679 -0.0611
   74MOL0     C 9663  11.032   4.408   5.819  0.1097 -0.0810  1.2697
   74MOL0     C 9664  11.146   4.453   5.892 -0.1300  0.5114  1.2816
   74MOL0     C 9665  11.168   4.415   6.032 -0.3232  0.3486  0.2371
   74MOL0     O 9666  11.291   4.438   6.102  0.2817 -0.1594  1.0303
   74MOL0     C 9667  11.294   4.498   6.218 -0.2326  0.4395 -0.2907
   74MOL0     C 9668  11.419   4.494   6.284  0.3472  0.2874 -0.1471
   74MOL0     C 9669  11.441   4.556   6.407 -0.0038 -0.0596  0.3067
   74MOL0     C 9670  11.335   4.635   6.469 -0.1841  0.2867  0.0260
   74MOL0     O 9671  11.363   4.703   6.590  0.1084 -0.1096 -0.6435
   74MOL0     C 9672  11.344   4.620   6.701 -0.4190 -0.4315 -1.8898
   74MOL0     C 9673  11.364   4.701   6.829 -0.4086  0.3952 -0.0812
   74MOL0     C 9674  11.508   4.748   6.845  0.5789  0.5582 -0.0816
   74MOL0     C 9675  11.530   4.798   6.985  0.3082 -1.7863 -0.0083
   74MOL0     C 9676  11.677   4.849   6.995  0.4184 -0.3608  0.4526
   74MOL0     C 9677  11.698   4.934   7.120 -0.0846  0.6690  0.5041
   74MOL0     C 9678  11.842   4.969   7.143 -0.2647  0.3059  0.3118
   74MOL0     C 9679  11.864   5.030   7.285  0.1650 -0.1769 -1.0092
   74MOL0    Cl 9680  12.031   5.095   7.304  0.1081  0.2867  0.0575
   74MOL0     C 9681  11.212   4.621   6.410  0.3143 -0.7110  0.5347
   74MOL0     C 9682  11.186   4.559   6.285  0.2090 -0.4989 -0.5719
   74MOL0     O 9683  11.077   4.349   6.080  0.2053  1.2329 -0.4860
   74MOL0     C 9684  11.223   4.557   5.845  0.4090  0.1015 -0.2770
   74MOL0     C 9685  11.198   4.610   5.715  0.5578 -0.3680 -0.2523
   74MOL0     N 9686  11.033   5.249   5.372  0.2121  0.2867  0.1762
   74MOL0     N 9687  11.012   5.364   5.305  0.7005  0.4721  0.8727
   74MOL0     C 9688  11.026   6.228   4.834  0.1503  0.2083  0.5992
   74MOL0     C 9689  11.115   6.246   4.723  0.2866 -0.6371 -0.2566
   74MOL0     C 9690  11.318   6.456   4.396  0.7104  0.3554  0.6977
   74MOL0     C 9691  11.386   6.580   4.386 -1.0879 -0.8841  0.4388
   74MOL0     C 9692  11.476   6.610   4.279 -0.0990 -0.1226 -0.2828
   74MOL0     C 9693  11.508   6.523   4.176  0.2841  0.5273 -0.1447
   74MOL0     O 9694  11.579   6.576   4.081 -0.2050  0.7853 -0.3636
   74MOL0     C 9695  11.567   6.500   3.959 -0.3766  1.7275  0.0357
   74MOL0     C 9696  11.641   6.563   3.841 -0.6255 -0.0086  0.2948
   74MOL0     C 9697  11.791   6.549   3.861 -0.1160  0.5640  0.2118
   74MOL0     C 9698  11.849   6.674   3.932 -0.4713  0.3920 -0.1012
   74MOL0     C 9699  11.991   6.657   3.957 -0.2598  0.0154  0.4085
   74MOL0     C 9700  12.108   6.637   3.979  0.2697 -0.5825 -0.0063
   74MOL0     C 9701  11.423   6.404   4.178  0.3071 -0.1109 -0.2655
   74MOL0     C 9702  11.336   6.370   4.288  0.2350 -0.8062  0.2428
   74MOL0     H 9703  10.873   6.294   4.478 -1.1579  1.5364  0.6283
   74MOL0     H 9704  10.728   6.283   4.688  1.0270  3.5448  1.9836
   74MOL0     H 9705  10.761   6.085   5.061  0.4763 -2.1233  1.2984
   74MOL0     H 9706  10.928   6.073   5.009  0.2061 -2.2029 -1.9576
   74MOL0     H 9707  10.846   5.971   4.797 -1.6606  0.7887 -0.0859
   74MOL0     H 9708  10.679   6.012   4.835 -1.6913 -1.7836  1.4976
   74MOL0     H 9709  10.693   5.847   5.020 -0.6759 -1.1568  0.5257
   74MOL0     H 9710  10.862   5.816   4.983 -0.5708 -1.6730 -0.0265
   74MOL0     H 9711  10.613   5.723   4.831 -0.6511 -1.7577  0.0155
   74MOL0     H 9712  10.742   5.744   4.721 -3.1085 -1.4039 -1.6799
   74MOL0     H 9713  10.740   5.526   4.786 -1.1493  0.7813  0.4984
   74MOL0     H 9714  10.727   5.574   4.966 -0.7243 -2.8677 -0.2271
   74MOL0     H 9715  10.966   5.654   4.921 -1.1453  1.4761 -1.5819
   74MOL0     H 9716  10.950   5.557   4.778  0.1666 -1.2189  0.3188
   74MOL0     H 9717  10.948   5.353   4.906  0.4658 -1.1496 -0.6129
   74MOL0     H 9718  11.064   5.451   4.994  0.4218  2.1453 -0.2250
   74MOL0     H 9719  10.776   5.393   5.066  0.2608  0.0791  1.9874
   74MOL0     H 9720  10.861   5.522   5.147 -3.7611 -1.0929  2.5739
   74MOL0     H 9721  10.860   5.154   5.112  0.6986  0.5904 -2.5214
   74MOL0     H 9722  10.884   4.954   5.333 -3.0126  2.6258  3.3390
   74MOL0     H 9723  10.983   5.006   5.475 -0.3585  2.9844  0.3123
   74MOL0     H 9724  11.178   4.948   5.387  0.3825 -2.4252  2.4047
   74MOL0     H 9725  11.115   4.933   5.216  0.4603  1.0505  0.3885
   74MOL0     H 9726  10.981   4.742   5.299 -1.2170  3.1649  1.9102
   74MOL0     H 9727  11.151   4.704   5.325 -0.1354 -1.7595  0.7614
   74MOL0     H 9728  10.959   4.781   5.528 -1.0542 -1.1593  2.4285
   74MOL0     H 9729  11.131   4.806   5.561 -1.7762  1.1436 -0.9163
   74MOL0     H 9730  10.926   4.427   5.635 -2.5127  3.4139  0.3625
   74MOL0     H 9731  10.965   4.332   5.856 -0.9682 -1.0047 -2.1832
   74MOL0     H 9732  11.504   4.442   6.240 -0.4949  0.4693 -2.1222
   74MOL0     H 9733  11.534   4.536   6.459  0.2433 -0.6848 -0.3543
   74MOL0     H 9734  11.417   4.539   6.710 -0.4310 -0.1807  1.3584
   74MOL0     H 9735  11.245   4.574   6.688 -0.6786 -0.1632 -0.9358
   74MOL0     H 9736  11.335   4.643   6.917  1.3385 -2.6028 -1.3121
   74MOL0     H 9737  11.296   4.787   6.832 -0.3677  0.4248  0.0178
   74MOL0     H 9738  11.520   4.822   6.766  1.3974  0.6926  0.1545
   74MOL0     H 9739  11.563   4.654   6.831 -0.7724  0.0907 -3.0784
   74MOL0     H 9740  11.452   4.872   7.005  1.7631 -0.4478  0.9906
   74MOL0     H 9741  11.525   4.718   7.060  5.2170 -2.1316  0.2859
   74MOL0     H 9742  11.696   4.902   6.901  0.5641  1.0381  1.2494
   74MOL0     H 9743  11.744   4.763   7.009  0.0610 -0.7914 -0.3992
   74MOL0     H 9744  11.648   4.884   7.204  1.5771  2.3845  2.6314
   74MOL0     H 9745  11.638   5.024   7.102 -0.1690  1.0705  2.5315
   74MOL0     H 9746  11.900   4.876   7.147 -1.2761 -0.4600 -1.7502
   74MOL0     H 9747  11.871   5.037   7.063 -0.1413  1.1747  1.0755
   74MOL0     H 9748  11.839   4.953   7.359  1.2713  1.7149  1.4771
   74MOL0     H 9749  11.805   5.121   7.302 -0.1553 -0.4132 -0.8432
   74MOL0     H 9750  11.128   4.667   6.461 -0.6431 -3.6520  1.8808
   74MOL0     H 9751  11.084   4.555   6.247 -0.1324 -0.7671  0.3571
   74MOL0     H 9752  11.317   4.581   5.895  1.0078 -1.4728 -0.5639
   74MOL0     H 9753  11.253   4.695   5.677 -0.1676 -1.0038 -2.9442
   74MOL0     H 9754  11.061   6.206   4.934 -0.4794 -1.6146  0.4704
   74MOL0     H 9755  11.222   6.233   4.735  0.3136 -2.5428 -2.0357
   74MOL0     H 9756  11.385   6.648   4.470  3.5455 -0.0602  0.0923
   74MOL0     H 9757  11.519   6.709   4.285  1.2790 -0.6304 -1.2799
   74MOL0     H 9758  11.463   6.486   3.929  0.5735 -1.4732 -2.3040
   74MOL0     H 9759  11.604   6.399   3.979 -1.2297  0.3883 -4.1861
   74MOL0     H 9760  11.610   6.509   3.751  1.5530 -2.2340  0.7476
   74MOL0     H 9761  11.616   6.669   3.826  0.4190  0.1138 -0.7544
   74MOL0     H 9762  11.840   6.544   3.763  0.7548  2.7318  0.4936
   74MOL0     H 9763  11.810   6.455   3.914  1.0351 -0.0348 -1.1859
   74MOL0     H 9764  11.820   6.773   3.895  0.5846  0.5261 -0.6165
   74MOL0     H 9765  11.801   6.681   4.030  0.3514  0.3974  0.3063
   74MOL0     H 9766  12.204   6.608   4.018 -0.4834 -2.3578  0.6134
   74MOL0     H 9767  11.444   6.335   4.097  0.0118  1.4188 -1.7221
   74MOL0     H 9768  11.275   6.280   4.277  0.8450 -0.9448 -2.6592
   75MOL0     O 9769   7.886   3.676   5.265  0.6549  0.3329  0.2250
   75MOL0     C 9770   8.006   3.706   5.277 -0.0915 -0.0449 -0.5071
   75MOL0     O 9771   8.070   3.800   5.207  0.2207  0.3271  0.8528
   75MOL0     C 9772   8.160   3.759   5.107  1.1751 -0.3169 -0.5615
   75MOL0     C 9773   8.229   3.631   5.114  0.5691 -1.3023  1.3599
   75MOL0     C 9774   8.293   3.577   5.006  0.3019 -0.5017  0.6339
   75MOL0     C 9775   8.313   3.649   4.890  0.3566  0.5851  0.0318
   75MOL0     O 9776   8.389   3.597   4.796 -0.0714 -1.0271  0.6691
   75MOL0     C 9777   8.397   3.674   4.671 -0.8757 -0.0078 -0.0148
   75MOL0     C 9778   8.466   3.604   4.570  0.0632  0.9691 -0.1519
   75MOL0     C 9779   8.443   3.655   4.433  0.3316 -0.2695 -0.4456
   75MOL0     C 9780   8.529   3.577   4.334 -0.3480  0.0293 -0.2114
   75MOL0     C 9781   8.544   3.647   4.199 -0.7229  0.7274  0.5843
   75MOL0     C 9782   8.598   3.552   4.089  0.6409  1.0844 -0.2283
   75MOL0     C 9783   8.750   3.536   4.103 -0.8531 -0.4771  0.0091
   75MOL0     C 9784   8.809   3.463   3.979 -0.0891  0.9552  0.0718
   75MOL0     N 9785   8.825   3.561   3.869  0.0288  0.1495  0.8712
   75MOL0     C 9786   8.941   3.622   3.845  0.2543 -0.5206 -0.7933
   75MOL0     C 9787   8.909   3.696   3.742 -0.0179 -0.3120 -0.1492
   75MOL0     C 9788   9.009   3.791   3.682  0.3246  1.0653 -0.5602
   75MOL0     C 9789   9.030   3.915   3.769 -0.5073 -0.2462  0.9202
   75MOL0     C 9790   9.108   4.033   3.696  0.4801 -0.7099  0.1062
   75MOL0     C 9791   9.020   4.171   3.712 -0.5133 -0.7563 -0.0381
   75MOL0     O 9792   8.875   4.163   3.688 -0.1939 -0.1984  0.0892
   75MOL0     C 9793   8.840   4.134   3.554  0.1496  0.4581  0.0195
   75MOL0     C 9794   8.867   4.212   3.448 -0.5264 -0.4113  0.1369
   75MOL0     C 9795   8.815   4.187   3.325  0.7497 -0.4568  0.6526
   75MOL0     C 9796   8.718   4.084   3.312  0.4862  0.3982 -0.0648
   75MOL0     C 9797   8.648   4.047   3.191 -0.4297  0.9746 -0.8730
   75MOL0     O 9798   8.564   3.936   3.178 -0.4928  0.5671 -0.8200
   75MOL0     C 9799   8.502   3.937   3.057 -0.7681  0.5504  0.2957
   75MOL0     C 9800   8.436   4.048   3.001 -0.7891  0.5257  1.0935
   75MOL0     C 9801   8.350   4.031   2.893 -0.2549  0.2925 -0.1626
   75MOL0     C 9802   8.329   3.910   2.831  0.3595  0.1426 -1.2318
   75MOL0     O 9803   8.229   3.902   2.737  0.1346  0.4147 -0.0581
   75MOL0     C 9804   8.236   3.792   2.643 -0.1659  0.1238 -0.2405
   75MOL0     C 9805   8.122   3.793   2.547  0.8534 -0.9863  0.4309
   75MOL0     C 9806   8.113   3.897   2.439  0.2561 -0.3739 -0.4052
   75MOL0     C 9807   7.991   3.884   2.337  0.0602  0.4639 -0.2568
   75MOL0     C 9808   7.980   4.001   2.241  0.9277 -0.8563 -0.5206
   75MOL0     C 9809   7.877   4.008   2.133  0.4157 -0.2775  0.4872
   75MOL0     C 9810   7.870   4.137   2.049 -0.1837  0.1990 -0.4197
   75MOL0     C 9811   7.814   4.101   1.912 -0.4093  0.6950  0.1402
   75MOL0    Cl 9812   7.645   4.047   1.932  0.0726  0.9936  0.1329
   75MOL0     C 9813   8.409   3.802   2.875  0.8943  0.4749 -0.2964
   75MOL0     C 9814   8.494   3.814   2.985 -0.1563  0.0044 -0.3651
   75MOL0     O 9815   8.688   4.113   3.102 -0.0073  0.4215  0.4411
   75MOL0     C 9816   8.691   3.997   3.420 -1.0750 -0.6879 -0.5994
   75MOL0     C 9817   8.753   4.021   3.542  0.4348 -0.3673 -0.0861
   75MOL0     N 9818   8.776   3.685   3.704  0.1401 -0.1612 -0.6495
   75MOL0     N 9819   8.726   3.601   3.785  0.0716 -0.2271  1.3993
   75MOL0     C 9820   8.246   3.768   4.883  0.0947  0.0897 -0.2631
   75MOL0     C 9821   8.171   3.827   4.981  0.3909  0.4185  0.0658
   75MOL0     C 9822   8.083   3.653   5.399 -0.7042 -0.7338  0.0776
   75MOL0     C 9823   8.219   3.670   5.427  0.3371 -0.1964 -0.2899
   75MOL0     C 9824   8.277   3.617   5.547  0.0545 -0.0811  0.4800
   75MOL0     C 9825   8.210   3.546   5.636 -0.6362  0.2238  0.3352
   75MOL0     O 9826   8.267   3.518   5.757 -0.5452  0.0306  0.6413
   75MOL0     C 9827   8.220   3.423   5.855  0.4288 -0.2939  0.2238
   75MOL0     C 9828   8.207   3.272   5.802  0.8037 -1.0866  0.0356
   75MOL0     C 9829   8.341   3.193   5.783 -0.2542  0.6336  0.1982
   75MOL0     C 9830   8.324   3.045   5.748 -0.6075  0.5104 -0.0309
   75MOL0     C 9831   8.449   2.975   5.746 -0.1051  0.5575 -0.1179
   75MOL0     C 9832   8.550   2.906   5.737 -0.5558  0.1197 -0.4912
   75MOL0     C 9833   8.074   3.528   5.614  0.1378 -0.3467 -0.4485
   75MOL0     C 9834   8.014   3.587   5.501  0.6512  0.4976  0.5387
   75MOL0     H 9835   8.222   3.551   5.187  0.6322 -0.2444  2.5553
   75MOL0     H 9836   8.345   3.482   5.004  2.9792  0.6874  3.8941
   75MOL0     H 9837   8.444   3.772   4.687 -1.6446  0.2934  0.4580
   75MOL0     H 9838   8.296   3.700   4.639 -1.3469 -0.3229  1.1875
   75MOL0     H 9839   8.458   3.495   4.562  2.9855  0.7679 -1.6529
   75MOL0     H 9840   8.569   3.625   4.602 -0.7782  2.5107  1.7592
   75MOL0     H 9841   8.480   3.758   4.425  0.5692 -0.2444  0.8040
   75MOL0     H 9842   8.337   3.644   4.410  0.2143 -1.9583  0.6766
   75MOL0     H 9843   8.633   3.563   4.364  0.8485  3.8878 -1.9305
   75MOL0     H 9844   8.472   3.484   4.326 -1.9162  0.6235  2.7416
   75MOL0     H 9845   8.595   3.743   4.192 -1.5184  1.0997 -0.5443
   75MOL0     H 9846   8.443   3.671   4.164 -0.6475 -0.2860 -0.4137
   75MOL0     H 9847   8.569   3.584   3.989 -3.2256 -2.1656 -0.4157
   75MOL0     H 9848   8.565   3.448   4.095  0.2854  1.1235 -1.3608
   75MOL0     H 9849   8.805   3.629   4.119 -0.9901 -0.3732 -0.1171
   75MOL0     H 9850   8.779   3.484   4.195 -1.7095 -2.2178 -0.6489
   75MOL0     H 9851   8.733   3.394   3.941  0.7300 -1.0457  1.8886
   75MOL0     H 9852   8.898   3.405   4.005 -1.9774 -1.9669  0.4937
   75MOL0     H 9853   9.033   3.616   3.902  0.3802 -4.2919 -1.1339
   75MOL0     H 9854   8.975   3.817   3.581  2.0383  0.0190 -1.4561
   75MOL0     H 9855   9.115   3.765   3.685  0.9666  3.3518 -1.2189
   75MOL0     H 9856   9.090   3.902   3.859 -2.3471  3.1931  2.8262
   75MOL0     H 9857   8.931   3.944   3.805 -0.3782 -0.1143  1.1697
   75MOL0     H 9858   9.204   4.055   3.744 -0.4509  4.5498  0.0962
   75MOL0     H 9859   9.124   4.001   3.593 -1.9554  0.6322 -0.7610
   75MOL0     H 9860   9.055   4.245   3.639 -1.7090 -0.5996 -0.4775
   75MOL0     H 9861   9.051   4.210   3.809  1.5123 -1.1438 -0.4729
   75MOL0     H 9862   8.944   4.288   3.456  1.1015 -2.1758  2.8064
   75MOL0     H 9863   8.830   4.241   3.232  1.0177 -0.0732  0.9155
   75MOL0     H 9864   8.429   4.147   3.046 -1.8385  0.5265  0.9642
   75MOL0     H 9865   8.294   4.118   2.861  2.2680  2.2498  0.3812
   75MOL0     H 9866   8.225   3.698   2.698  1.4696  0.5616  0.9271
   75MOL0     H 9867   8.324   3.809   2.580 -1.6711  1.1805 -2.1764
   75MOL0     H 9868   8.025   3.793   2.599  0.3628  3.6447 -0.0409
   75MOL0     H 9869   8.148   3.703   2.491  2.0516  1.6208 -3.5673
   75MOL0     H 9870   8.205   3.882   2.382  2.6762 -3.0983  3.7211
   75MOL0     H 9871   8.108   3.990   2.496 -1.1348 -0.7378  0.1052
   75MOL0     H 9872   8.001   3.791   2.280  0.4944  0.5506 -0.3204
   75MOL0     H 9873   7.900   3.868   2.397  0.9466 -3.0630  0.4065
   75MOL0     H 9874   8.077   4.032   2.200 -0.5057 -0.4728 -3.8857
   75MOL0     H 9875   7.950   4.085   2.305  0.5402 -0.7671 -0.8199
   75MOL0     H 9876   7.778   3.992   2.177  0.7122  0.0099  1.2717
   75MOL0     H 9877   7.893   3.922   2.067  0.4007 -3.1721  3.9277
   75MOL0     H 9878   7.807   4.208   2.103  0.1404  2.8925 -3.2975
   75MOL0     H 9879   7.966   4.189   2.036  0.2970  0.0154  1.8549
   75MOL0     H 9880   7.869   4.019   1.865 -1.3455  1.2058 -2.0023
   75MOL0     H 9881   7.828   4.184   1.842  1.6834  0.4932  0.2675
   75MOL0     H 9882   8.398   3.705   2.827 -3.5276 -0.1606  1.4692
   75MOL0     H 9883   8.542   3.724   3.021  2.8834  0.0839 -3.7099
   75MOL0     H 9884   8.622   3.914   3.409 -0.8152 -0.8751 -0.8170
   75MOL0     H 9885   8.730   3.956   3.625  4.2059 -1.4998  0.2801
   75MOL0     H 9886   8.258   3.820   4.789  1.3039  0.4237  0.0592
   75MOL0     H 9887   8.101   3.909   4.968 -2.8960 -2.1905  0.0679
   75MOL0     H 9888   8.298   3.712   5.366  1.5442 -3.3497 -1.1082
   75MOL0     H 9889   8.383   3.636   5.558  0.3807 -2.3774  1.9815
   75MOL0     H 9890   8.115   3.452   5.861  0.0798 -1.2192 -1.1682
   75MOL0     H 9891   8.273   3.424   5.951 -0.0157 -0.9894  0.4875
   75MOL0     H 9892   8.149   3.217   5.876 -1.6671 -0.3752 -1.2725
   75MOL0     H 9893   8.146   3.257   5.713  0.4799 -0.0295  0.0615
   75MOL0     H 9894   8.374   3.187   5.887 -3.6008  0.1375  1.3617
   75MOL0     H 9895   8.416   3.233   5.715  0.1426 -1.3361 -0.5675
   75MOL0     H 9896   8.252   3.004   5.819  2.5481  1.9680  4.4142
   75MOL0     H 9897   8.294   3.030   5.643  1.8343 -2.9362 -0.3888
   75MOL0     H 9898   8.645   2.862   5.712 -0.4135  0.6044 -0.8285
   75MOL0     H 9899   8.017   3.474   5.689 -0.8693 -0.6691 -1.4239
   75MOL0     H 9900   7.909   3.568   5.482  0.4499  0.4519  1.6589
   76MOL0     O 9901   1.945   0.055   1.537 -0.0464  0.3244 -0.0747
   76MOL0     C 9902   1.978  -0.054   1.501 -0.6780 -0.2789 -1.2834
   76MOL0     O 9903   1.909  -0.133   1.421 -0.3068  0.1876  0.0596
   76MOL0     C 9904   1.795  -0.083   1.367 -0.6285  0.5648  0.3947
   76MOL0     C 9905   1.698  -0.020   1.438 -0.4634 -0.3615  0.0761
   76MOL0     C 9906   1.592   0.047   1.373  0.5046  0.1591  0.0211
   76MOL0     C 9907   1.582   0.031   1.229  0.0015  0.0232  0.2077
   76MOL0     O 9908   1.475   0.093   1.177  0.2405 -0.1542 -0.5240
   76MOL0     C 9909   1.498   0.165   1.059  0.6333 -0.4578 -0.1444
   76MOL0     C 9910   1.380   0.276   1.033 -0.1085  0.2368 -0.6038
   76MOL0     C 9911   1.337   0.343   1.165  0.3809  0.0423 -1.2797
   76MOL0     C 9912   1.438   0.419   1.240  0.3988  0.1197 -0.8741
   76MOL0     C 9913   1.377   0.452   1.372 -0.3822  1.1031  0.9216
   76MOL0     C 9914   1.480   0.542   1.455  0.2791 -0.2308  0.2567
   76MOL0     C 9915   1.598   0.463   1.528  0.5617 -1.2079  0.8600
   76MOL0     C 9916   1.560   0.464   1.680  0.6689 -0.7062  0.6620
   76MOL0     N 9917   1.556   0.593   1.745 -0.1676  1.4527 -0.4762
   76MOL0     C 9918   1.440   0.641   1.799  0.5658 -0.1055  0.6401
   76MOL0     C 9919   1.481   0.756   1.858  0.9639 -0.3546 -0.0239
   76MOL0     C 9920   1.381   0.839   1.937 -0.0981 -0.0304 -0.1740
   76MOL0     C 9921   1.374   0.784   2.082  0.3889 -0.0645  0.1018
   76MOL0     C 9922   1.512   0.755   2.137  0.0721 -0.7170 -0.3255
   76MOL0     C 9923   1.534   0.751   2.289 -0.3172  0.1613 -0.9810
   76MOL0     O 9924   1.454   0.635   2.337 -0.4463  0.0128  0.7611
   76MOL0     C 9925   1.479   0.578   2.460 -0.5441 -0.0515  0.1315
   76MOL0     C 9926   1.603   0.579   2.529 -0.1321 -0.4528  0.0822
   76MOL0     C 9927   1.626   0.520   2.651  0.4759 -0.1448 -0.2533
   76MOL0     C 9928   1.523   0.449   2.714 -0.9776  1.1659 -0.6318
   76MOL0     C 9929   1.544   0.403   2.860 -0.0618  0.0464 -1.2492
   76MOL0     O 9930   1.655   0.436   2.927 -0.5956  0.4728 -0.7210
   76MOL0     C 9931   1.664   0.399   3.056  0.3190  0.6506 -0.9521
   76MOL0     C 9932   1.724   0.277   3.099 -0.1853 -0.4339 -0.1831
   76MOL0     C 9933   1.746   0.234   3.238 -0.0185 -0.6491 -0.3658
   76MOL0     C 9934   1.693   0.323   3.337  0.7594  0.4886 -0.2431
   76MOL0     O 9935   1.718   0.311   3.468  0.6963  0.4039  0.0817
   76MOL0     C 9936   1.831   0.233   3.515  0.0181 -0.5477  0.1337
   76MOL0     C 9937   1.791   0.085   3.550 -0.8828  0.2179 -0.0728
   76MOL0     C 9938   1.689   0.096   3.667 -0.2408  0.1441 -0.0404
   76MOL0     C 9939   1.744   0.184   3.784  0.2018 -0.6011 -0.6446
   76MOL0     C 9940   1.694   0.130   3.914 -0.3048 -0.0595 -0.2881
   76MOL0     C 9941   1.549   0.102   3.931  0.2031  0.0385  1.0716
   76MOL0     C 9942   1.510   0.005   4.045 -0.2396 -0.1044 -0.6087
   76MOL0     C 9943   1.354  -0.005   4.042 -0.4595  0.4965  0.1342
   76MOL0    Cl 9944   1.294  -0.093   3.887  0.0529 -0.1798 -0.2592
   76MOL0     C 9945   1.618   0.434   3.299  0.2994  0.5140 -0.6237
   76MOL0     C 9946   1.607   0.473   3.160  0.4153 -0.1832  0.0999
   76MOL0     O 9947   1.451   0.347   2.908  0.7112 -0.6125 -0.1457
   76MOL0     C 9948   1.407   0.431   2.639 -0.5199 -0.5957  0.7096
   76MOL0     C 9949   1.383   0.485   2.510 -0.5819 -0.6719 -0.0556
   76MOL0     N 9950   1.615   0.763   1.842 -0.6465  0.0548 -0.0453
   76MOL0     N 9951   1.664   0.674   1.772 -0.2422  0.7879 -0.7839
   76MOL0     C 9952   1.681  -0.044   1.163 -0.3096  0.4051  0.0878
   76MOL0     C 9953   1.783  -0.104   1.232 -0.3451 -0.0700  0.5302
   76MOL0     C 9954   2.109  -0.099   1.558  0.3982  0.3776 -0.0360
   76MOL0     C 9955   2.171  -0.213   1.511 -0.0992  0.4948 -0.3094
   76MOL0     C 9956   2.303  -0.250   1.551  1.1426  0.7699  0.4805
   76MOL0     C 9957   2.371  -0.169   1.639 -0.8284 -0.0899 -0.1619
   76MOL0     O 9958   2.485  -0.210   1.704  0.0146 -0.2312 -0.4989
   76MOL0     C 9959   2.601  -0.122   1.680  0.4468 -0.4160  0.1189
   76MOL0     C 9960   2.739  -0.193   1.686  0.3896  0.1114 -0.4349
   76MOL0     C 9961   2.843  -0.118   1.597 -0.1280 -0.0932 -0.1980
   76MOL0     C 9962   2.886   0.013   1.670 -0.2375 -1.1563  0.1949
   76MOL0     C 9963   3.022   0.047   1.617  0.3396 -0.4402  0.3859
   76MOL0     C 9964   3.125   0.076   1.572 -0.3585 -1.3012 -0.6450
   76MOL0     C 9965   2.310  -0.067   1.690  0.0634  0.5188 -0.4990
   76MOL0     C 9966   2.188  -0.019   1.647 -0.5434  1.1260  0.0620
   76MOL0     H 9967   1.709  -0.002   1.544 -1.7301  0.9689  0.0011
   76MOL0     H 9968   1.512   0.103   1.418 -2.0603 -2.6335 -0.7279
   76MOL0     H 9969   1.504   0.101   0.971 -1.9864  0.6407 -1.2463
   76MOL0     H 9970   1.595   0.213   1.075  1.6225 -1.3285 -2.9246
   76MOL0     H 9971   1.296   0.232   0.980 -3.8936  1.4877  3.7322
   76MOL0     H 9972   1.428   0.349   0.967 -1.1592  0.6113 -0.9677
   76MOL0     H 9973   1.297   0.263   1.228 -0.3721  0.1535 -1.6118
   76MOL0     H 9974   1.257   0.411   1.136  2.1817  1.8475 -2.2932
   76MOL0     H 9975   1.536   0.372   1.237 -0.1382 -1.0135 -1.5326
   76MOL0     H 9976   1.446   0.507   1.176 -1.2684  0.9052 -0.0853
   76MOL0     H 9977   1.360   0.367   1.439  1.4381 -1.1597 -1.2726
   76MOL0     H 9978   1.279   0.494   1.350  0.4633  1.3980 -2.9226
   76MOL0     H 9979   1.429   0.612   1.522  1.1504  1.3183 -0.6363
   76MOL0     H 9980   1.538   0.610   1.393  2.0736 -2.0164 -0.1200
   76MOL0     H 9981   1.600   0.356   1.504  1.0192 -1.1848  0.7838
   76MOL0     H 9982   1.695   0.512   1.519 -0.5663  0.7415 -2.0330
   76MOL0     H 9983   1.647   0.413   1.723  1.0306 -0.6215  0.0308
   76MOL0     H 9984   1.466   0.415   1.707 -2.0785  3.3077 -0.7720
   76MOL0     H 9985   1.339   0.603   1.814  0.4937  0.2951  1.2254
   76MOL0     H 9986   1.279   0.825   1.899  0.2239 -0.0507 -1.0719
   76MOL0     H 9987   1.402   0.945   1.946  0.6024 -0.3173  1.9529
   76MOL0     H 9988   1.319   0.690   2.084  1.7831 -0.8979  0.2430
   76MOL0     H 9989   1.325   0.862   2.142  0.8532  0.0712  0.3072
   76MOL0     H 9990   1.546   0.660   2.096  0.7575 -1.0213  0.8879
   76MOL0     H 9991   1.579   0.835   2.103 -1.5828 -0.5481 -3.5053
   76MOL0     H 9992   1.487   0.833   2.345  0.2920 -0.5486  0.6263
   76MOL0     H 9993   1.639   0.758   2.318  0.3840 -2.5939 -2.5164
   76MOL0     H 9994   1.677   0.636   2.474 -1.0725 -0.4940 -1.2612
   76MOL0     H 9995   1.724   0.530   2.696  0.5315  1.0042 -0.5924
   76MOL0     H 9996   1.761   0.221   3.014  0.1370  1.7103 -1.5449
   76MOL0     H 9997   1.798   0.144   3.271  0.8885 -0.6673 -1.7601
   76MOL0     H 9998   1.881   0.279   3.601  0.9058 -0.4609 -0.4109
   76MOL0     H 9999   1.914   0.233   3.443 -0.5465 -1.5308 -0.5415
   76MOL0     H10000   1.878   0.029   3.586 -0.1023  0.8049 -0.9957
   76MOL0     H10001   1.747   0.031   3.466 -4.2199  0.4983  1.3673
   76MOL0     H10002   1.660  -0.007   3.687  0.7860 -0.5552 -1.9160
   76MOL0     H10003   1.599   0.147   3.631  0.4076  0.5366 -1.1504
   76MOL0     H10004   1.853   0.188   3.785  0.2236  2.2779 -2.2629
   76MOL0     H10005   1.709   0.286   3.766 -0.0224 -0.6636 -0.5725
   76MOL0     H10006   1.725   0.197   3.995  1.9467 -3.6170  2.0496
   76MOL0     H10007   1.741   0.032   3.925  1.5689  0.6253 -1.6849
   76MOL0     H10008   1.505   0.066   3.837  0.2194  1.2499  0.5828
   76MOL0     H10009   1.509   0.202   3.951  3.3465  1.5243  0.4529
   76MOL0     H10010   1.549  -0.096   4.028 -0.0827 -0.5181  1.9415
   76MOL0     H10011   1.550   0.041   4.140  0.9269 -0.9211 -0.7689
   76MOL0     H10012   1.321   0.099   4.038  0.0710  0.7278  1.2849
   76MOL0     H10013   1.309  -0.050   4.131 -1.4833 -0.1402 -0.6829
   76MOL0     H10014   1.574   0.492   3.380  0.4316  0.3130 -0.4059
   76MOL0     H10015   1.538   0.554   3.144  0.6723  0.8208  3.3580
   76MOL0     H10016   1.328   0.379   2.692 -1.9530  2.9506  2.3953
   76MOL0     H10017   1.297   0.460   2.449 -1.3857 -2.4154  1.6745
   76MOL0     H10018   1.664  -0.066   1.058 -0.9173 -1.2677  0.5207
   76MOL0     H10019   1.859  -0.174   1.200  1.2270  2.3967 -1.5823
   76MOL0     H10020   2.127  -0.270   1.430  0.0960 -0.3348  0.1573
   76MOL0     H10021   2.348  -0.344   1.520  0.0606  0.9121 -1.6561
   76MOL0     H10022   2.591  -0.046   1.757 -1.8762  1.4310 -1.8561
   76MOL0     H10023   2.598  -0.064   1.587 -2.0521  0.3339  0.6041
   76MOL0     H10024   2.769  -0.196   1.791 -2.2237 -0.2723  0.3824
   76MOL0     H10025   2.729  -0.297   1.654  0.1939 -0.3887  1.1706
   76MOL0     H10026   2.803  -0.091   1.499  0.9418 -1.2974 -1.0001
   76MOL0     H10027   2.932  -0.180   1.580 -1.1019 -2.0440  1.3520
   76MOL0     H10028   2.813   0.091   1.645 -0.1171 -1.5094 -1.3248
   76MOL0     H10029   2.900   0.003   1.778 -2.5169 -0.3767  0.6150
   76MOL0     H10030   3.220   0.105   1.531  0.7467 -0.8420  2.0306
   76MOL0     H10031   2.360  -0.015   1.771  0.0324  2.8838 -1.9122
   76MOL0     H10032   2.149   0.080   1.668 -0.5179  0.9113  1.2191
   77MOL0     O10033   5.294   8.034  10.706  0.0052  0.2560 -0.1274
   77MOL0     C10034   5.286   8.158  10.701  0.8063 -0.7647  0.5519
   77MOL0     O10035   5.236   8.231  10.598 -0.0688  0.4960 -0.3366
   77MOL0     C10036   5.249   8.170  10.475 -0.7369  0.1062 -0.2936
   77MOL0     C10037   5.336   8.209  10.380 -0.2850 -0.3957 -0.1759
   77MOL0     C10038   5.346   8.148  10.251 -0.2282 -0.5647  1.1367
   77MOL0     C10039   5.246   8.054  10.209  0.1183 -1.1808 -1.7943
   77MOL0     O10040   5.253   8.013  10.081 -0.0119 -0.2807  0.3165
   77MOL0     C10041   5.163   7.910  10.030  0.4384 -0.7004  1.1218
   77MOL0     C10042   5.129   7.943   9.881 -0.0399  0.6567  0.8616
   77MOL0     C10043   5.008   7.863   9.837  0.5104  0.1862 -0.2844
   77MOL0     C10044   4.988   7.901   9.693  0.6120 -0.5753  0.3290
   77MOL0     C10045   4.873   7.828   9.631 -0.8525 -0.1284  0.0854
   77MOL0     C10046   4.838   7.877   9.485 -0.8933 -0.7563 -0.5485
   77MOL0     C10047   4.734   7.794   9.416 -0.0002  0.4391  0.1914
   77MOL0     C10048   4.727   7.832   9.265 -0.5049 -0.2620 -1.1565
   77MOL0     N10049   4.628   7.924   9.221 -0.0254 -0.2349  0.6449
   77MOL0     C10050   4.547   7.902   9.113  0.8347  0.5305 -0.6529
   77MOL0     C10051   4.474   8.013   9.108 -0.4831  0.2056  0.6509
   77MOL0     C10052   4.390   8.059   8.992  0.6683 -0.1006 -0.0207
   77MOL0     C10053   4.247   8.078   9.031 -0.2316  0.3792  0.8074
   77MOL0     C10054   4.179   7.951   9.057  0.4119 -0.3244 -0.0708
   77MOL0     C10055   4.083   7.971   9.166  0.1551 -0.5586 -0.2796
   77MOL0     O10056   3.983   8.065   9.127 -0.6364 -0.1476  0.1313
   77MOL0     C10057   3.866   8.014   9.068 -0.2012  0.2013 -0.1063
   77MOL0     C10058   3.794   7.897   9.110 -0.2558 -0.6986 -0.1222
   77MOL0     C10059   3.676   7.864   9.043  0.2939  0.0123 -0.2870
   77MOL0     C10060   3.629   7.944   8.936 -0.6111  0.7321 -0.6897
   77MOL0     C10061   3.516   7.885   8.863  0.6371 -0.0385  0.2079
   77MOL0     O10062   3.416   7.812   8.925 -0.5654 -0.0176  0.3017
   77MOL0     C10063   3.335   7.725   8.857  0.1875  0.7097  0.5004
   77MOL0     C10064   3.278   7.748   8.734 -0.1658  0.3760  0.6786
   77MOL0     C10065   3.187   7.661   8.670 -0.0266 -0.4335 -0.3387
   77MOL0     C10066   3.132   7.555   8.732  0.4797 -0.0550 -0.9902
   77MOL0     O10067   3.037   7.472   8.678  0.9683  0.3049  0.0966
   77MOL0     C10068   2.963   7.522   8.570  0.0711  1.2667 -0.3703
   77MOL0     C10069   2.829   7.439   8.562  1.4953  0.1562 -0.7594
   77MOL0     C10070   2.757   7.428   8.418  0.0650  0.3121 -0.4546
   77MOL0     C10071   2.666   7.305   8.410 -0.2543 -0.3307  0.1868
   77MOL0     C10072   2.562   7.320   8.294 -0.5233  1.2432  0.5746
   77MOL0     C10073   2.482   7.188   8.271 -0.9623  0.5580 -0.4576
   77MOL0     C10074   2.403   7.191   8.150  0.2113  0.1509 -0.1676
   77MOL0     C10075   2.318   7.067   8.136  0.6487  0.1390  0.0880
   77MOL0    Cl10076   2.432   6.922   8.109  0.0947 -0.3021 -0.3525
   77MOL0     C10077   3.194   7.516   8.855  0.3952  0.1168 -0.5844
   77MOL0     C10078   3.284   7.603   8.924 -0.3040  0.0476  0.3873
   77MOL0     O10079   3.517   7.903   8.739  0.3841 -0.1262  0.4163
   77MOL0     C10080   3.700   8.052   8.897  0.1972 -0.4725  1.3807
   77MOL0     C10081   3.812   8.082   8.963 -0.2916 -0.7982 -0.4797
   77MOL0     N10082   4.526   8.104   9.200  0.1385 -0.3614 -0.4534
   77MOL0     N10083   4.621   8.050   9.263 -0.3859 -0.9017 -0.8683
   77MOL0     C10084   5.149   8.020  10.308  0.6020  0.3370 -0.1100
   77MOL0     C10085   5.147   8.085  10.433 -0.9377  1.2192 -0.1534
   77MOL0     C10086   5.344   8.231  10.823 -0.1115 -0.9350  0.0320
   77MOL0     C10087   5.437   8.171  10.918  0.1203  0.0482  0.3376
   77MOL0     C10088   5.470   8.237  11.037 -0.3861  0.2236 -0.9258
   77MOL0     C10089   5.419   8.362  11.069 -0.6319  0.0713  0.1782
   77MOL0     O10090   5.459   8.444  11.178 -0.2615 -0.3387  0.5989
   77MOL0     C10091   5.557   8.394  11.283  0.5525 -0.2140  0.8577
   77MOL0     C10092   5.528   8.476  11.412 -0.1413  0.1922  0.2254
   77MOL0     C10093   5.653   8.474  11.499  0.2110 -0.3811 -0.7385
   77MOL0     C10094   5.629   8.524  11.650 -0.5371  0.8860  0.6095
   77MOL0     C10095   5.532   8.433  11.724  0.2976 -0.5435 -0.2372
   77MOL0     C10096   5.448   8.360  11.773  0.4434  0.3460 -0.2373
   77MOL0     C10097   5.335   8.419  10.974  0.5994 -0.7164 -0.6511
   77MOL0     C10098   5.292   8.358  10.855  0.2763  1.0207 -0.4366
   77MOL0     H10099   5.401   8.294  10.399 -1.8330  0.4352  1.7349
   77MOL0     H10100   5.419   8.201  10.190 -0.0435  1.6776  3.1260
   77MOL0     H10101   5.066   7.920  10.081 -0.4679 -1.4597 -0.3732
   77MOL0     H10102   5.202   7.808  10.022 -2.2853 -1.6779 -2.2961
   77MOL0     H10103   5.215   7.911   9.821 -0.8814  1.8171 -1.0452
   77MOL0     H10104   5.111   8.050   9.868 -0.8934  0.3307 -0.9176
   77MOL0     H10105   4.918   7.888   9.893 -0.4049 -0.6496 -1.3408
   77MOL0     H10106   5.024   7.755   9.848  2.6872  0.4190 -0.5630
   77MOL0     H10107   4.965   8.007   9.695 -3.1585 -1.1286 -2.7415
   77MOL0     H10108   5.084   7.882   9.643  2.3439  1.5425  2.6208
   77MOL0     H10109   4.785   7.844   9.695  0.4790 -0.8101  2.1843
   77MOL0     H10110   4.895   7.721   9.632  1.4474  0.2860  1.7489
   77MOL0     H10111   4.933   7.881   9.431 -1.0549 -2.8006 -1.0619
   77MOL0     H10112   4.800   7.979   9.501  1.2492 -0.1114  0.8497
   77MOL0     H10113   4.768   7.690   9.421  2.8297  1.0775 -2.6404
   77MOL0     H10114   4.633   7.809   9.456  0.0938  1.7829 -0.0333
   77MOL0     H10115   4.708   7.736   9.215  1.6265 -1.6842  0.5277
   77MOL0     H10116   4.822   7.872   9.230  0.4986  0.9267  2.4441
   77MOL0     H10117   4.536   7.818   9.045 -1.6937  0.1727  0.1177
   77MOL0     H10118   4.396   7.980   8.917 -2.4970 -1.4418  0.9984
   77MOL0     H10119   4.422   8.158   8.956 -1.3523  1.9703  3.3116
   77MOL0     H10120   4.195   8.133   8.952 -0.5367  0.4455  1.0538
   77MOL0     H10121   4.249   8.142   9.119 -1.8676 -0.5086  1.5454
   77MOL0     H10122   4.139   7.923   8.959 -1.0062  3.9762 -0.9562
   77MOL0     H10123   4.253   7.877   9.088 -0.8916 -0.8029  2.0771
   77MOL0     H10124   4.140   8.008   9.251  1.2217  4.3011 -2.7466
   77MOL0     H10125   4.044   7.872   9.192 -2.4935  0.4938  0.0909
   77MOL0     H10126   3.810   7.822   9.188 -0.4500 -2.3333 -1.5876
   77MOL0     H10127   3.623   7.774   9.071  1.4778  0.0278  2.4310
   77MOL0     H10128   3.305   7.836   8.677  1.2180  1.4064  2.7882
   77MOL0     H10129   3.156   7.701   8.574  4.5172 -0.1824 -1.9512
   77MOL0     H10130   3.031   7.512   8.485  2.3349 -1.1478  1.5911
   77MOL0     H10131   2.930   7.626   8.572  0.5478  1.4198 -0.3188
   77MOL0     H10132   2.762   7.498   8.626  1.0753 -0.9222 -0.1678
   77MOL0     H10133   2.838   7.332   8.585 -1.7978 -0.1231 -0.3350
   77MOL0     H10134   2.837   7.424   8.343 -2.0717  2.6458 -3.0785
   77MOL0     H10135   2.690   7.514   8.406  0.7242  0.8897 -0.0979
   77MOL0     H10136   2.717   7.209   8.402  0.9977  0.1784  1.5487
   77MOL0     H10137   2.605   7.294   8.499 -0.2809 -1.8004  0.0107
   77MOL0     H10138   2.611   7.339   8.198 -1.9996 -2.4653 -1.1212
   77MOL0     H10139   2.492   7.401   8.315 -0.8737  1.4999 -1.4482
   77MOL0     H10140   2.416   7.184   8.358  2.3265  3.7307  2.4847
   77MOL0     H10141   2.538   7.094   8.266  0.8817  1.6828 -1.7288
   77MOL0     H10142   2.336   7.276   8.138  1.3909  0.7246 -3.8483
   77MOL0     H10143   2.478   7.183   8.072 -0.7735 -1.8038 -0.9772
   77MOL0     H10144   2.252   7.068   8.049 -1.4705  0.8210  1.6310
   77MOL0     H10145   2.241   7.067   8.213  0.7598  4.1077  0.3890
   77MOL0     H10146   3.140   7.442   8.913  2.2885  2.0760  4.3257
   77MOL0     H10147   3.325   7.583   9.022 -0.3075  1.8896  0.8090
   77MOL0     H10148   3.693   8.114   8.808 -1.2264 -1.0124  1.0881
   77MOL0     H10149   3.877   8.161   8.925  0.2183 -0.1027  1.6951
   77MOL0     H10150   5.078   7.941  10.286  1.0440  0.1178 -0.7793
   77MOL0     H10151   5.083   8.052  10.514  0.5782  3.4050  2.1060
   77MOL0     H10152   5.462   8.068  10.894  1.9957  1.0160 -2.3325
   77MOL0     H10153   5.527   8.176  11.107 -1.5440  0.2503  0.0628
   77MOL0     H10154   5.656   8.424  11.247  0.9798 -1.0450  1.3246
   77MOL0     H10155   5.559   8.286  11.295  1.2445 -0.2562  0.4131
   77MOL0     H10156   5.499   8.581  11.399 -0.2656  0.5655  2.9258
   77MOL0     H10157   5.437   8.433  11.454 -1.2110  1.0135 -1.1658
   77MOL0     H10158   5.730   8.526  11.442 -0.3197 -2.8097 -3.9635
   77MOL0     H10159   5.683   8.370  11.514  2.3339  0.3973  0.8465
   77MOL0     H10160   5.724   8.502  11.701  1.3557  0.5555 -2.7323
   77MOL0     H10161   5.593   8.626  11.640  1.5092  1.4833 -2.0926
   77MOL0     H10162   5.379   8.293  11.819  0.9623 -1.4423 -1.9076
   77MOL0     H10163   5.305   8.518  11.006  2.3409 -0.6086  0.7870
   77MOL0     H10164   5.209   8.393  10.795 -2.4455 -3.6922  0.0813
   78MOL0     O10165   7.880   7.619  10.676  0.2342  0.2640  0.0620
   78MOL0     C10166   7.960   7.542  10.730  0.1436 -0.0291  0.2921
   78MOL0     O10167   8.027   7.443  10.669  1.0603 -0.2653 -0.0257
   78MOL0     C10168   7.994   7.404  10.543 -0.2413  0.1961  0.2110
   78MOL0     C10169   8.093   7.342  10.471  0.5276  0.1421 -0.2847
   78MOL0     C10170   8.070   7.290  10.340 -0.1786  0.2698 -0.1612
   78MOL0     C10171   7.947   7.317  10.276 -0.6062  0.1559 -0.0723
   78MOL0     O10172   7.931   7.278  10.143 -0.3395  0.2638 -0.6395
   78MOL0     C10173   7.861   7.366  10.048  0.2571 -0.6382  0.1807
   78MOL0     C10174   7.816   7.282   9.927 -0.0748 -0.3371  0.0581
   78MOL0     C10175   7.728   7.363   9.843 -0.5012  0.1891 -0.3759
   78MOL0     C10176   7.637   7.272   9.758  0.0877 -0.5298  0.8957
   78MOL0     C10177   7.550   7.358   9.678  0.1502 -1.2362 -0.6243
   78MOL0     C10178   7.493   7.287   9.558 -0.1910  0.1841 -0.3967
   78MOL0     C10179   7.387   7.172   9.585 -1.0459 -0.4457  0.1623
   78MOL0     C10180   7.273   7.229   9.661  1.2322 -0.2312  0.0066
   78MOL0     N10181   7.213   7.352   9.603  0.0405  0.2980  0.4824
   78MOL0     C10182   7.164   7.371   9.486  0.1724 -0.4046  0.1075
   78MOL0     C10183   7.128   7.504   9.471 -0.2020  0.2313  0.2562
   78MOL0     C10184   7.073   7.572   9.354  0.0427 -0.1680 -0.0614
   78MOL0     C10185   7.076   7.496   9.227 -0.3148 -1.0878 -0.0326
   78MOL0     C10186   7.002   7.563   9.110  0.8119 -0.2163  0.2555
   78MOL0     C10187   7.041   7.504   8.979 -0.0637 -1.1079 -0.8062
   78MOL0     O10188   6.982   7.374   8.970  0.2068 -0.7992 -0.4553
   78MOL0     C10189   6.954   7.338   8.839 -0.0932  0.4101  0.1195
   78MOL0     C10190   7.002   7.209   8.810  1.2509  0.0451  0.1159
   78MOL0     C10191   6.967   7.148   8.692 -0.4557  0.2411  1.0594
   78MOL0     C10192   6.889   7.219   8.598  0.2607  0.1730  0.2603
   78MOL0     C10193   6.867   7.153   8.463 -0.1696 -0.1397 -0.2751
   78MOL0     O10194   6.777   7.233   8.386  0.9111 -0.4819 -0.6141
   78MOL0     C10195   6.719   7.174   8.276 -0.2978 -0.0562 -0.7794
   78MOL0     C10196   6.598   7.103   8.296  0.2658 -0.3033 -0.2900
   78MOL0     C10197   6.540   7.050   8.177 -1.4291  0.7517 -0.4243
   78MOL0     C10198   6.590   7.064   8.045 -0.3357 -0.0798 -0.4191
   78MOL0     O10199   6.512   7.020   7.934  0.3742  0.0215 -0.0517
   78MOL0     C10200   6.570   6.996   7.814  0.0097  0.5557  0.4488
   78MOL0     C10201   6.541   7.110   7.717 -0.1798 -0.1458 -0.1314
   78MOL0     C10202   6.583   7.071   7.580 -0.0574  0.7261  0.0540
   78MOL0     C10203   6.561   7.179   7.481  0.0392  1.0742 -0.6333
   78MOL0     C10204   6.574   7.139   7.339  0.2481 -0.9623  0.5885
   78MOL0     C10205   6.463   7.047   7.277 -0.7184  0.7094  0.0740
   78MOL0     C10206   6.474   7.052   7.121 -0.0006  0.1571  0.0047
   78MOL0     C10207   6.388   7.157   7.045 -0.7536  1.1605 -1.1371
   78MOL0    Cl10208   6.220   7.099   7.065  0.0216  0.2771  0.4193
   78MOL0     C10209   6.705   7.141   8.039  0.0837 -0.9528 -0.5438
   78MOL0     C10210   6.774   7.196   8.153 -0.5005  0.9579 -0.2970
   78MOL0     O10211   6.905   7.037   8.444 -0.3937 -0.2220 -0.1032
   78MOL0     C10212   6.853   7.354   8.622  0.3559  1.3145 -0.1094
   78MOL0     C10213   6.882   7.410   8.750  0.0111 -0.1409 -0.4626
   78MOL0     N10214   7.156   7.561   9.593 -0.4721  1.3220 -0.5274
   78MOL0     N10215   7.214   7.467   9.671  0.3316  0.5776  0.5917
   78MOL0     C10216   7.848   7.372  10.355 -0.1308 -0.1895  0.3773
   78MOL0     C10217   7.866   7.403  10.490 -0.5059 -0.9871 -0.0781
   78MOL0     C10218   7.985   7.556  10.869  0.3181 -0.2839 -0.1002
   78MOL0     C10219   8.076   7.465  10.937  0.6718  0.5175  0.6191
   78MOL0     C10220   8.097   7.473  11.077  0.3818  0.7181  0.7110
   78MOL0     C10221   8.046   7.574  11.153  0.8629  0.8152  0.6972
   78MOL0     O10222   8.099   7.583  11.280 -1.1133  0.2490 -0.3227
   78MOL0     C10223   8.043   7.668  11.378  0.3525  0.4937  1.8354
   78MOL0     C10224   8.118   7.801  11.350 -0.5583 -0.2754 -0.4402
   78MOL0     C10225   8.132   7.902  11.467 -0.1937  0.9658  0.3566
   78MOL0     C10226   8.178   8.036  11.408  0.4018  0.0236  1.1331
   78MOL0     C10227   8.217   8.135  11.516  0.0047  0.1454  0.4629
   78MOL0     C10228   8.242   8.219  11.601 -0.3256  0.0195 -0.2203
   78MOL0     C10229   7.951   7.667  11.088  0.4885  0.5316 -0.8107
   78MOL0     C10230   7.915   7.649  10.950  0.6028  0.0826  0.2601
   78MOL0     H10231   8.187   7.328  10.524 -0.5619 -1.1694  1.4334
   78MOL0     H10232   8.142   7.235  10.281 -1.9606 -1.5184 -0.7533
   78MOL0     H10233   7.928   7.449  10.026 -0.7322  0.8671  2.4900
   78MOL0     H10234   7.762   7.394  10.085 -0.5688 -3.6681  0.5505
   78MOL0     H10235   7.766   7.188   9.949  0.3235  0.1578  3.7097
   78MOL0     H10236   7.907   7.257   9.871  0.8201 -1.7933  2.0288
   78MOL0     H10237   7.792   7.413   9.770 -0.4914 -2.6666 -2.5055
   78MOL0     H10238   7.665   7.437   9.892  0.5359  0.0621  1.2163
   78MOL0     H10239   7.704   7.216   9.691 -1.1509 -2.5383  1.2491
   78MOL0     H10240   7.586   7.192   9.812 -0.1818 -1.4605 -0.6642
   78MOL0     H10241   7.609   7.441   9.638  2.8723 -2.3850  0.7760
   78MOL0     H10242   7.467   7.392   9.742  1.7455  0.1995  0.7653
   78MOL0     H10243   7.575   7.242   9.501  2.1745  0.9465  2.2253
   78MOL0     H10244   7.453   7.368   9.496  1.3991 -0.5272 -2.4815
   78MOL0     H10245   7.364   7.115   9.495  0.9213 -1.1385  0.0486
   78MOL0     H10246   7.437   7.091   9.641 -0.3428  1.3834  2.3429
   78MOL0     H10247   7.298   7.249   9.765 -3.0806 -0.4578  1.2539
   78MOL0     H10248   7.190   7.158   9.669 -1.1645  2.4796  0.9450
   78MOL0     H10249   7.153   7.298   9.406  0.3311 -1.2066  0.8073
   78MOL0     H10250   7.116   7.672   9.354  0.4630 -0.3208 -1.6999
   78MOL0     H10251   6.966   7.581   9.372  0.0455  0.7489 -0.4419
   78MOL0     H10252   7.037   7.394   9.237  0.2158 -1.1184  2.3604
   78MOL0     H10253   7.183   7.487   9.210 -0.4110  0.6169 -1.7394
   78MOL0     H10254   6.894   7.563   9.131  1.0678  0.4052  1.6832
   78MOL0     H10255   7.028   7.669   9.107 -3.1541  0.9167  0.0785
   78MOL0     H10256   7.148   7.509   8.958  0.1898  1.2493  0.6070
   78MOL0     H10257   7.005   7.569   8.899  0.0987  0.3977  0.3008
   78MOL0     H10258   7.059   7.164   8.891  0.7731  1.0870  1.0635
   78MOL0     H10259   7.021   7.059   8.660 -2.1473  0.3037 -2.5939
   78MOL0     H10260   6.564   7.082   8.397  3.1931 -1.6143  0.5381
   78MOL0     H10261   6.453   6.989   8.196 -1.9809  2.4988  3.5562
   78MOL0     H10262   6.514   6.911   7.775  0.3214  0.2938  0.5622
   78MOL0     H10263   6.675   6.968   7.830 -0.6258 -2.8836 -0.5714
   78MOL0     H10264   6.597   7.199   7.748  1.7061 -1.3287  0.0442
   78MOL0     H10265   6.433   7.123   7.723  0.0351  2.6908 -0.7907
   78MOL0     H10266   6.524   6.985   7.548  1.5550 -0.0963 -0.8643
   78MOL0     H10267   6.689   7.045   7.577 -0.1167 -0.0527  2.4332
   78MOL0     H10268   6.454   7.204   7.481 -0.6824 -1.6076  0.4826
   78MOL0     H10269   6.626   7.262   7.509 -0.8273  0.6536  3.1895
   78MOL0     H10270   6.671   7.090   7.327  0.0159 -1.3881  0.4181
   78MOL0     H10271   6.579   7.228   7.276  0.2648 -2.4539 -1.6258
   78MOL0     H10272   6.368   7.082   7.316 -0.9329  0.9764 -0.6728
   78MOL0     H10273   6.490   6.949   7.317  2.0208  1.0975 -0.5931
   78MOL0     H10274   6.575   7.070   7.083 -0.1822  1.9310  0.2455
   78MOL0     H10275   6.457   6.950   7.087  0.7440 -0.0012  0.0908
   78MOL0     H10276   6.419   7.156   6.940 -1.8968  0.4640 -1.4934
   78MOL0     H10277   6.404   7.257   7.085  2.8277 -0.0231  0.8599
   78MOL0     H10278   6.752   7.162   7.943  0.4553 -2.7473 -0.7877
   78MOL0     H10279   6.873   7.241   8.144 -0.8424  1.7304 -0.2961
   78MOL0     H10280   6.785   7.404   8.554  1.1098  3.2872  0.5092
   78MOL0     H10281   6.850   7.511   8.774 -0.0023 -0.1296 -0.5272
   78MOL0     H10282   7.746   7.400  10.330 -1.4754 -2.6784  2.4987
   78MOL0     H10283   7.780   7.454  10.532  0.4470 -0.1937  0.9618
   78MOL0     H10284   8.124   7.390  10.876  0.8957  2.4524 -1.7408
   78MOL0     H10285   8.166   7.406  11.126  0.6049  0.7030  0.3775
   78MOL0     H10286   8.057   7.619  11.475 -1.6646  1.2946  2.5827
   78MOL0     H10287   7.936   7.681  11.359  0.5914 -0.3347 -0.4084
   78MOL0     H10288   8.218   7.771  11.317 -0.1762  1.4426 -0.9386
   78MOL0     H10289   8.066   7.857  11.272  1.2122 -1.2296 -2.4059
   78MOL0     H10290   8.211   7.872  11.536  0.5925  0.8030 -0.5902
   78MOL0     H10291   8.040   7.886  11.524  0.2465 -2.2371  0.3545
   78MOL0     H10292   8.270   8.017  11.352  2.3048 -1.4117  4.3877
   78MOL0     H10293   8.092   8.074  11.353 -0.3491 -0.1815  2.1360
   78MOL0     H10294   8.278   8.291  11.672  2.7468 -0.6777 -0.9111
   78MOL0     H10295   7.916   7.750  11.148  0.6954 -0.2024  0.3642
   78MOL0     H10296   7.843   7.716  10.904  0.0930 -2.3388 -2.8673
   79MOL0     O10297   7.135   0.740   1.396 -0.1890 -0.0131 -0.0111
   79MOL0     C10298   7.040   0.769   1.317 -0.3940 -0.7809  0.3539
   79MOL0     O10299   6.939   0.693   1.282  0.3073 -0.3321  0.5985
   79MOL0     C10300   6.943   0.566   1.318  0.1999  0.2463 -0.0289
   79MOL0     C10301   6.989   0.485   1.223 -0.0765  0.0798  0.0364
   79MOL0     C10302   6.997   0.348   1.252  0.0044 -0.3029  0.6077
   79MOL0     C10303   6.950   0.299   1.371 -0.5229  0.0480 -0.5255
   79MOL0     O10304   6.955   0.158   1.378 -0.8419  0.3973 -0.3351
   79MOL0     C10305   6.900   0.086   1.491  0.8762  0.6834  0.1613
   79MOL0     C10306   6.985   0.058   1.607 -1.0178  0.4458 -0.9826
   79MOL0     C10307   6.923  -0.004   1.736  0.4948  0.9045  0.3042
   79MOL0     C10308   7.010  -0.012   1.861  0.0933 -0.5327 -0.2947
   79MOL0     C10309   6.939  -0.074   1.991 -0.4045 -0.3488  0.5836
   79MOL0     C10310   6.862  -0.197   1.950 -0.4682  1.2392 -0.2401
   79MOL0     C10311   6.794  -0.251   2.072 -0.6770  0.9380  0.2444
   79MOL0     C10312   6.736  -0.394   2.043 -0.0398  0.0609  0.1226
   79MOL0     N10313   6.613  -0.396   1.962 -0.5409  0.8838  0.1271
   79MOL0     C10314   6.498  -0.326   2.006  0.1244 -0.5156  0.4974
   79MOL0     C10315   6.431  -0.289   1.897  0.1122  0.1244  0.4208
   79MOL0     C10316   6.327  -0.180   1.901 -0.1634 -0.1477  0.7189
   79MOL0     C10317   6.390  -0.033   1.888  0.7076 -0.2882  0.4759
   79MOL0     C10318   6.398   0.004   1.739 -0.2848  0.1708  0.2846
   79MOL0     C10319   6.449   0.150   1.700  0.5755  1.4987 -0.2609
   79MOL0     O10320   6.576   0.171   1.764  0.6487 -0.2558 -0.2417
   79MOL0     C10321   6.623   0.297   1.793  0.2532  0.5750 -1.0835
   79MOL0     C10322   6.600   0.397   1.705  0.1180 -0.7427 -0.4432
   79MOL0     C10323   6.666   0.520   1.713  0.8646  0.0164  0.3556
   79MOL0     C10324   6.764   0.534   1.817 -0.1843 -0.4319  0.5461
   79MOL0     C10325   6.833   0.671   1.833  0.8288 -0.8493  0.4906
   79MOL0     O10326   6.895   0.691   1.951  0.3959 -0.7384 -0.5010
   79MOL0     C10327   6.946   0.808   1.996 -0.6052  0.2990  0.9238
   79MOL0     C10328   7.025   0.793   2.113  0.0705 -0.4880  0.0369
   79MOL0     C10329   7.093   0.899   2.167  1.0179 -0.0929 -0.2079
   79MOL0     C10330   7.071   1.028   2.123  0.9841 -0.6651  0.5853
   79MOL0     O10331   7.119   1.142   2.193  0.3752  0.0888 -0.5505
   79MOL0     C10332   7.065   1.264   2.154 -0.6624  0.1085 -0.1281
   79MOL0     C10333   7.106   1.368   2.261  0.1691  0.4456 -0.0476
   79MOL0     C10334   7.041   1.337   2.401 -0.1471 -0.8256  0.1440
   79MOL0     C10335   6.907   1.405   2.402 -0.6878 -0.4947  0.2933
   79MOL0     C10336   6.843   1.419   2.537 -0.2307  0.0337 -0.1169
   79MOL0     C10337   6.818   1.289   2.622 -1.3076 -0.2914 -0.3855
   79MOL0     C10338   6.677   1.286   2.687  0.3473  1.1526  0.5224
   79MOL0     C10339   6.683   1.311   2.837 -0.9754  0.4936 -0.0735
   79MOL0    Cl10340   6.772   1.468   2.870 -0.0419  0.2111  0.0619
   79MOL0     C10341   7.004   1.039   1.999 -0.4596  0.2476 -0.4363
   79MOL0     C10342   6.931   0.937   1.943 -0.3711  0.2747  0.0955
   79MOL0     O10343   6.830   0.740   1.740  0.2355 -0.4441  0.1261
   79MOL0     C10344   6.797   0.433   1.901 -0.1065  0.1961 -0.6302
   79MOL0     C10345   6.733   0.312   1.892 -0.1487  0.9772 -0.2694
   79MOL0     N10346   6.496  -0.341   1.785 -0.5456  0.1683 -0.6250
   79MOL0     N10347   6.604  -0.401   1.823  0.1247 -0.1865 -0.6731
   79MOL0     C10348   6.905   0.383   1.470  0.1734 -0.0850 -0.2184
   79MOL0     C10349   6.905   0.525   1.440  0.0571  0.4735  0.5054
   79MOL0     C10350   7.028   0.911   1.266  0.3268 -0.4600  0.3349
   79MOL0     C10351   6.947   0.943   1.154  0.5493  1.5471 -0.6281
   79MOL0     C10352   6.932   1.069   1.110 -0.6356  0.3183  0.2321
   79MOL0     C10353   7.013   1.172   1.175  1.3458 -0.4023  0.5607
   79MOL0     O10354   7.011   1.300   1.131  0.7215 -0.3643  0.0259
   79MOL0     C10355   6.877   1.345   1.076  0.7704 -0.0920 -0.0661
   79MOL0     C10356   6.862   1.502   1.074  0.5750 -0.1602 -1.0681
   79MOL0     C10357   6.884   1.565   0.935 -1.0718  0.0535  0.1758
   79MOL0     C10358   6.848   1.715   0.941  0.0795 -0.3151  0.5419
   79MOL0     C10359   6.947   1.786   1.021 -0.5892  0.1416 -0.6190
   79MOL0     C10360   7.040   1.850   1.072  0.0819  0.7456  0.3468
   79MOL0     C10361   7.104   1.128   1.276 -0.3687 -0.1824 -0.0407
   79MOL0     C10362   7.104   1.002   1.323  0.0365  0.0184 -0.2013
   79MOL0     H10363   7.015   0.516   1.122  0.9418 -2.1914 -0.4631
   79MOL0     H10364   7.013   0.282   1.167  0.3187 -3.0000  2.6422
   79MOL0     H10365   6.867  -0.011   1.453 -2.0649  0.3818  3.0567
   79MOL0     H10366   6.813   0.146   1.521  0.8395  2.0076 -2.3262
   79MOL0     H10367   7.037   0.145   1.648  1.9677 -1.3339 -0.7180
   79MOL0     H10368   7.070   0.003   1.566  0.4468  0.7315  1.4437
   79MOL0     H10369   6.898  -0.109   1.719  1.3463  1.0797 -2.5324
   79MOL0     H10370   6.836   0.059   1.757  1.2634  1.7313  1.1141
   79MOL0     H10371   7.101  -0.066   1.834 -0.1523  0.3389 -3.2391
   79MOL0     H10372   7.038   0.091   1.885  1.3598 -0.4045 -2.1512
   79MOL0     H10373   6.875  -0.002   2.042  2.1004  0.9255  2.1570
   79MOL0     H10374   7.031  -0.085   2.051 -0.0445 -1.6462 -0.1669
   79MOL0     H10375   6.931  -0.265   1.899  0.1930  2.3208 -0.8251
   79MOL0     H10376   6.787  -0.173   1.874 -0.2628 -0.1599 -0.9108
   79MOL0     H10377   6.873  -0.270   2.145 -1.1042  0.6905  0.6511
   79MOL0     H10378   6.720  -0.191   2.126  0.5277 -0.5706  3.9235
   79MOL0     H10379   6.724  -0.446   2.138 -2.2114  1.5817  0.7598
   79MOL0     H10380   6.823  -0.442   1.995 -1.1137 -0.3091 -1.5267
   79MOL0     H10381   6.473  -0.303   2.109  0.9916 -0.2241  0.6453
   79MOL0     H10382   6.272  -0.177   1.995 -4.3054  3.8031 -1.4408
   79MOL0     H10383   6.255  -0.193   1.819 -0.3714  2.7487  0.3512
   79MOL0     H10384   6.493  -0.038   1.926  1.6410  2.7746 -1.3298
   79MOL0     H10385   6.327   0.046   1.928  1.7645  2.0377 -2.1384
   79MOL0     H10386   6.455  -0.082   1.702 -2.0468 -1.5808  1.4845
   79MOL0     H10387   6.298  -0.002   1.694  0.4016 -2.1434 -1.1284
   79MOL0     H10388   6.376   0.224   1.737 -3.0461 -2.7687  2.1309
   79MOL0     H10389   6.447   0.159   1.591 -1.5264  1.7533 -0.2504
   79MOL0     H10390   6.530   0.377   1.625 -0.2137 -0.8794 -0.1191
   79MOL0     H10391   6.657   0.594   1.634  4.1603 -0.5707 -0.7044
   79MOL0     H10392   7.035   0.696   2.161  1.4948 -0.5218 -0.2803
   79MOL0     H10393   7.155   0.897   2.256 -0.3828 -1.0373  0.7739
   79MOL0     H10394   6.957   1.268   2.166 -0.8988 -1.8567 -1.2707
   79MOL0     H10395   7.098   1.290   2.053 -1.8627 -5.2826 -2.2079
   79MOL0     H10396   7.097   1.467   2.216 -0.6834 -0.0309 -0.9761
   79MOL0     H10397   7.212   1.361   2.285  0.0943 -0.8622  0.0182
   79MOL0     H10398   7.097   1.384   2.483 -0.8854  2.3039 -0.9897
   79MOL0     H10399   7.039   1.229   2.417  2.8768 -0.9163  0.6333
   79MOL0     H10400   6.907   1.510   2.371 -1.0332  0.7749  4.1108
   79MOL0     H10401   6.844   1.353   2.329  0.0304  0.8383 -1.3501
   79MOL0     H10402   6.743   1.458   2.515  0.2977  0.0400 -2.9283
   79MOL0     H10403   6.906   1.479   2.603 -1.2472  1.9514 -0.7967
   79MOL0     H10404   6.894   1.267   2.697  0.0440 -0.9046 -1.8549
   79MOL0     H10405   6.830   1.204   2.553  2.5019 -1.1238  1.0838
   79MOL0     H10406   6.606   1.351   2.635  0.8965  2.2276  1.0928
   79MOL0     H10407   6.632   1.187   2.672 -1.9086  1.8163  2.2170
   79MOL0     H10408   6.732   1.230   2.892  2.9954  2.0559 -0.9402
   79MOL0     H10409   6.585   1.331   2.883 -0.2031  0.7896  1.5058
   79MOL0     H10410   6.990   1.138   1.955  3.2967  0.3086 -1.8799
   79MOL0     H10411   6.868   0.953   1.857 -0.5449 -0.3068  0.1105
   79MOL0     H10412   6.882   0.440   1.968 -1.6197  1.9586  1.2533
   79MOL0     H10413   6.761   0.230   1.956  0.2190  2.7971  2.0394
   79MOL0     H10414   6.889   0.354   1.573 -1.3501  0.0271 -0.3939
   79MOL0     H10415   6.862   0.588   1.517 -2.8966 -1.3393  0.5040
   79MOL0     H10416   6.885   0.867   1.108 -1.7581  2.4898  0.7443
   79MOL0     H10417   6.867   1.104   1.030 -0.9669  3.8770  1.8461
   79MOL0     H10418   6.796   1.296   1.130 -2.5763  2.3779 -2.3824
   79MOL0     H10419   6.855   1.310   0.975  1.5489  0.6965 -0.5257
   79MOL0     H10420   6.766   1.533   1.116  1.9623 -0.5163  2.7146
   79MOL0     H10421   6.937   1.531   1.149  0.0219  2.7346 -1.4994
   79MOL0     H10422   6.815   1.521   0.863 -1.8440  0.3262  0.7358
   79MOL0     H10423   6.985   1.551   0.896 -1.7946  2.3676 -2.9006
   79MOL0     H10424   6.850   1.769   0.846 -0.6010  0.8239  1.1589
   79MOL0     H10425   6.748   1.735   0.981 -0.1485  1.5527 -0.8073
   79MOL0     H10426   7.124   1.902   1.113 -0.7900  0.9628  1.8994
   79MOL0     H10427   7.159   1.208   1.325 -0.2016 -1.6425  2.3075
   79MOL0     H10428   7.152   0.981   1.418  0.5079  1.9953  0.0345
   80MOL0     O10429   6.220   0.118   8.235  0.4347 -0.1516 -0.0903
   80MOL0     C10430   6.250   0.063   8.337  0.2767  0.3324 -0.4168
   80MOL0     O10431   6.229   0.100   8.467 -0.4134 -0.5735  1.1109
   80MOL0     C10432   6.172   0.221   8.491  0.8427 -0.1338 -0.4701
   80MOL0     C10433   6.059   0.275   8.418 -0.7348 -0.0374  0.2802
   80MOL0     C10434   6.010   0.397   8.443 -0.4609 -0.0438  0.7292
   80MOL0     C10435   6.070   0.474   8.545 -0.5728  0.3508 -0.3813
   80MOL0     O10436   6.024   0.592   8.589  0.7338  0.5956 -0.4763
   80MOL0     C10437   5.904   0.654   8.524 -0.1661  0.3384  1.4258
   80MOL0     C10438   5.777   0.596   8.585 -0.3581  0.0822 -0.0698
   80MOL0     C10439   5.751   0.665   8.722 -0.6772  0.2028 -0.9466
   80MOL0     C10440   5.620   0.634   8.782  0.3326 -0.2075 -0.4279
   80MOL0     C10441   5.592   0.691   8.924 -1.0909  0.4282  0.3957
   80MOL0     C10442   5.587   0.838   8.932  0.3479 -0.2283  0.2151
   80MOL0     C10443   5.531   0.875   9.074 -0.5116 -0.0623  0.2641
   80MOL0     C10444   5.498   1.022   9.071  0.3743  0.3009 -1.0276
   80MOL0     N10445   5.465   1.079   9.201 -0.0871  0.2931 -0.5468
   80MOL0     C10446   5.520   1.189   9.267 -0.3300  0.0402 -0.3921
   80MOL0     C10447   5.423   1.228   9.355 -0.9796  0.4124  0.0754
   80MOL0     C10448   5.422   1.357   9.425 -0.5914  0.7934  0.9879
   80MOL0     C10449   5.358   1.365   9.566  0.2147  0.2937  0.4096
   80MOL0     C10450   5.308   1.506   9.592 -0.5648  0.2675 -0.3516
   80MOL0     C10451   5.156   1.525   9.568 -0.4517 -0.3994 -0.0798
   80MOL0     O10452   5.081   1.536   9.687  0.4916  0.0029  0.5372
   80MOL0     C10453   5.071   1.665   9.719 -0.1656  0.5075  0.1090
   80MOL0     C10454   4.977   1.691   9.814 -0.9828  0.3627  0.5120
   80MOL0     C10455   4.967   1.811   9.881  0.1826 -0.1985 -1.4232
   80MOL0     C10456   5.059   1.922   9.855 -0.1455  1.4633 -0.4296
   80MOL0     C10457   5.060   2.042   9.933  0.5620  0.2014  0.3720
   80MOL0     O10458   5.162   2.135   9.917 -0.4525 -0.5580 -0.0629
   80MOL0     C10459   5.181   2.240  10.008 -0.8567 -0.4527 -0.1525
   80MOL0     C10460   5.148   2.241  10.147 -0.9126 -0.3144  0.2879
   80MOL0     C10461   5.184   2.346  10.230  0.3078  0.0626  0.2303
   80MOL0     C10462   5.258   2.455  10.189 -0.1332 -0.1106 -0.1410
   80MOL0     O10463   5.299   2.560  10.268  0.4137 -0.4176  0.7839
   80MOL0     C10464   5.195   2.644  10.322 -0.6914  0.0007 -0.5083
   80MOL0     C10465   5.113   2.713  10.209 -0.0349 -0.4407  0.2591
   80MOL0     C10466   5.138   2.861  10.178  0.2267  0.6177  0.4725
   80MOL0     C10467   5.036   2.923  10.088  0.0928  1.5673 -0.1180
   80MOL0     C10468   5.058   3.073  10.077 -0.6341 -1.0539 -0.9583
   80MOL0     C10469   4.962   3.140   9.979 -0.2905 -0.4627 -0.0155
   80MOL0     C10470   4.985   3.286   9.981  0.6320  0.0602  1.7061
   80MOL0     C10471   4.888   3.358   9.890 -0.1753  0.4089  0.7682
   80MOL0    Cl10472   4.928   3.526   9.919  0.1200  0.2568  0.0781
   80MOL0     C10473   5.272   2.465  10.052  0.4285  0.1493  1.4881
   80MOL0     C10474   5.241   2.363   9.961  0.7796  1.0904 -0.2301
   80MOL0     O10475   4.969   2.052  10.013  0.0970  0.0048 -0.7014
   80MOL0     C10476   5.158   1.898   9.750 -0.9756  0.3830 -0.1231
   80MOL0     C10477   5.166   1.774   9.686 -0.2392  0.3318  0.3578
   80MOL0     N10478   5.319   1.132   9.344  0.9459 -0.9713 -0.4333
   80MOL0     N10479   5.348   1.047   9.258  0.2588  0.8080 -0.2817
   80MOL0     C10480   6.177   0.429   8.624 -0.5794  0.0762 -1.1464
   80MOL0     C10481   6.224   0.300   8.595 -0.5310 -0.7748 -0.3067
   80MOL0     C10482   6.329  -0.063   8.331 -0.5073 -0.5433 -0.9584
   80MOL0     C10483   6.397  -0.116   8.444  0.6636  0.3752 -1.1478
   80MOL0     C10484   6.473  -0.227   8.448  0.3503  0.3346 -0.0784
   80MOL0     C10485   6.490  -0.300   8.333  0.2015 -0.3316  1.0194
   80MOL0     O10486   6.554  -0.421   8.318  0.4029 -0.6788  0.8158
   80MOL0     C10487   6.615  -0.478   8.429 -0.1743  0.9558  0.2376
   80MOL0     C10488   6.674  -0.617   8.380  0.6746  0.0823 -0.4450
   80MOL0     C10489   6.818  -0.604   8.336  0.2127 -0.5538 -0.0104
   80MOL0     C10490   6.874  -0.729   8.267 -0.2335  0.3600 -0.2440
   80MOL0     C10491   7.004  -0.711   8.201  0.0110 -1.0548  0.2303
   80MOL0     C10492   7.106  -0.678   8.134  0.0233 -0.0384 -0.6181
   80MOL0     C10493   6.443  -0.242   8.216  0.0766 -0.5629  0.1974
   80MOL0     C10494   6.378  -0.119   8.211 -0.5502 -0.8154 -0.5657
   80MOL0     H10495   6.007   0.210   8.349 -2.3896  1.6058 -0.1016
   80MOL0     H10496   5.922   0.438   8.394  0.2149  2.1193  1.2372
   80MOL0     H10497   5.907   0.648   8.415  0.0312  0.9844  1.3913
   80MOL0     H10498   5.901   0.761   8.549 -3.2803  1.4046 -2.6193
   80MOL0     H10499   5.779   0.488   8.601  0.6401  0.3663  2.0184
   80MOL0     H10500   5.695   0.616   8.514 -0.8785 -0.0163  0.4932
   80MOL0     H10501   5.748   0.772   8.701  0.7078  0.4687  0.0919
   80MOL0     H10502   5.841   0.650   8.781 -0.8253  1.3947 -0.4007
   80MOL0     H10503   5.542   0.675   8.716  0.8234  3.6514  1.1588
   80MOL0     H10504   5.608   0.525   8.786 -0.7411 -0.0579  1.7134
   80MOL0     H10505   5.666   0.654   8.995 -1.0874 -2.9126 -1.1983
   80MOL0     H10506   5.493   0.663   8.962 -1.5780  4.2818  2.5106
   80MOL0     H10507   5.507   0.860   8.861  0.3130 -1.2088 -0.0726
   80MOL0     H10508   5.682   0.890   8.921  0.0045  1.3314  3.5815
   80MOL0     H10509   5.437   0.823   9.099 -0.1366  0.5945  3.5037
   80MOL0     H10510   5.592   0.847   9.160 -2.1260 -0.3683  1.3571
   80MOL0     H10511   5.410   1.053   9.014  0.9085  4.8929  0.2135
   80MOL0     H10512   5.588   1.072   9.035  0.1019  0.6627 -1.2114
   80MOL0     H10513   5.604   1.253   9.239 -3.3420  4.1633 -0.8547
   80MOL0     H10514   5.355   1.413   9.360  0.6429  1.0364 -0.1035
   80MOL0     H10515   5.524   1.396   9.428 -0.0893 -0.4633  1.1471
   80MOL0     H10516   5.435   1.333   9.638  1.9337 -1.5418 -2.0730
   80MOL0     H10517   5.273   1.296   9.572  1.7595 -1.6898  0.7750
   80MOL0     H10518   5.320   1.531   9.698  0.4007  0.1081 -0.4142
   80MOL0     H10519   5.370   1.577   9.536 -1.8501  2.1776  0.5468
   80MOL0     H10520   5.125   1.430   9.523  1.7900 -0.8724 -0.7403
   80MOL0     H10521   5.123   1.599   9.495 -0.9144 -0.8977 -0.3821
   80MOL0     H10522   4.912   1.613   9.851 -1.9646 -0.4945 -2.7262
   80MOL0     H10523   4.897   1.808   9.964  2.0685  0.6387  0.2782
   80MOL0     H10524   5.096   2.158  10.194  0.3384  0.4459  3.2823
   80MOL0     H10525   5.152   2.347  10.333 -1.6194  0.9519 -0.3264
   80MOL0     H10526   5.245   2.719  10.383  0.7433 -0.4863 -1.0412
   80MOL0     H10527   5.147   2.575  10.391 -0.7859  0.6613  0.0944
   80MOL0     H10528   5.013   2.710  10.254 -0.6238 -0.8302 -1.0177
   80MOL0     H10529   5.097   2.656  10.117  0.2955  1.5316 -1.0785
   80MOL0     H10530   5.244   2.867  10.152  0.0663  0.3874 -0.2526
   80MOL0     H10531   5.118   2.915  10.271  0.8259 -2.0735  2.2853
   80MOL0     H10532   5.032   2.871   9.992  2.6966  3.2010 -1.2253
   80MOL0     H10533   4.943   2.903  10.141 -0.4246  2.7555 -0.5705
   80MOL0     H10534   5.159   3.096  10.042 -0.9439  0.4368 -0.9255
   80MOL0     H10535   5.047   3.123  10.173  1.6386  2.7893 -2.4678
   80MOL0     H10536   4.857   3.113   9.996  0.1265 -3.2349 -1.3128
   80MOL0     H10537   4.988   3.101   9.880  1.7231 -0.9198  0.6648
   80MOL0     H10538   4.965   3.320  10.083 -1.4012 -2.1836  2.1422
   80MOL0     H10539   5.091   3.301   9.960  0.0986  0.7059 -0.8976
   80MOL0     H10540   4.783   3.341   9.913 -2.2828  4.5565 -4.0575
   80MOL0     H10541   4.894   3.317   9.789  3.4438 -2.2667  1.8391
   80MOL0     H10542   5.333   2.541  10.005 -0.0615 -1.1607 -1.5171
   80MOL0     H10543   5.263   2.363   9.854  2.7331  2.2271  0.1261
   80MOL0     H10544   5.245   1.960   9.731 -3.0195  3.7020  0.4298
   80MOL0     H10545   5.233   1.750   9.605 -1.5582  1.0962 -0.9992
   80MOL0     H10546   6.204   0.495   8.706  1.7848  1.3024 -2.7710
   80MOL0     H10547   6.306   0.254   8.650  1.5407  1.7028 -1.1177
   80MOL0     H10548   6.375  -0.085   8.546  2.0555 -1.2197 -0.3273
   80MOL0     H10549   6.507  -0.258   8.546  3.3380  0.9409 -0.8138
   80MOL0     H10550   6.540  -0.484   8.509 -0.1458  0.8432  0.2576
   80MOL0     H10551   6.688  -0.415   8.482  0.0416 -1.2851  2.8677
   80MOL0     H10552   6.662  -0.692   8.459  0.4541  0.8599  0.2777
   80MOL0     H10553   6.619  -0.651   8.292  1.5022  0.5800 -1.1775
   80MOL0     H10554   6.874  -0.579   8.427  1.0146  0.7501 -0.8245
   80MOL0     H10555   6.836  -0.513   8.277  1.4403 -1.9118 -1.8224
   80MOL0     H10556   6.884  -0.799   8.350 -1.0219  1.8553  1.1531
   80MOL0     H10557   6.799  -0.756   8.191  0.7215  1.2099 -1.5385
   80MOL0     H10558   7.181  -0.632   8.073  0.0363  2.8427  1.3431
   80MOL0     H10559   6.461  -0.293   8.122  1.7800 -2.6363  1.5533
   80MOL0     H10560   6.353  -0.076   8.115  1.3877 -0.8530 -1.1249
   81MOL0     O10561   7.732   4.854   9.140 -0.1696 -0.6202 -0.1359
   81MOL0     C10562   7.752   4.958   9.070 -0.1576 -0.1153 -0.1481
   81MOL0     O10563   7.657   5.040   9.020  0.0717 -0.4598 -0.0332
   81MOL0     C10564   7.535   5.024   9.077  0.8832 -1.0192  0.0540
   81MOL0     C10565   7.458   4.908   9.053  0.1620 -1.0964  0.2302
   81MOL0     C10566   7.349   4.881   9.133 -0.4227  0.5487 -0.0725
   81MOL0     C10567   7.319   4.973   9.234  0.2565  0.4492 -0.8056
   81MOL0     O10568   7.218   4.957   9.326 -1.1102  0.4459 -0.2480
   81MOL0     C10569   7.163   4.828   9.365  0.6525  0.8190 -0.5081
   81MOL0     C10570   7.253   4.753   9.472 -0.2356  0.2058  0.5423
   81MOL0     C10571   7.380   4.684   9.406  0.2364 -0.7542 -0.0644
   81MOL0     C10572   7.345   4.556   9.318  0.4934  0.4337  0.0740
   81MOL0     C10573   7.472   4.490   9.260  0.8477 -0.6883  0.0782
   81MOL0     C10574   7.524   4.571   9.147 -0.7201  1.5719 -0.1435
   81MOL0     C10575   7.649   4.505   9.102  0.6483  0.7450 -0.7215
   81MOL0     C10576   7.703   4.555   8.969 -0.1798 -0.3861  0.5975
   81MOL0     N10577   7.827   4.484   8.939 -0.6550 -0.3753 -0.0608
   81MOL0     C10578   7.836   4.372   8.861 -0.5367 -0.0742  0.4233
   81MOL0     C10579   7.970   4.333   8.868 -0.1726  0.4362 -0.8387
   81MOL0     C10580   8.025   4.221   8.783 -0.2458 -0.4572 -0.0255
   81MOL0     C10581   8.022   4.257   8.632  0.2176  0.3446 -0.1194
   81MOL0     C10582   8.138   4.357   8.602  0.2032  0.5509  0.4071
   81MOL0     C10583   8.271   4.290   8.624 -0.3157 -0.2340 -0.0472
   81MOL0     O10584   8.277   4.169   8.548 -0.3031 -0.2857  0.0550
   81MOL0     C10585   8.392   4.092   8.540  0.1554  0.4879 -0.1216
   81MOL0     C10586   8.486   4.092   8.641 -0.5526  0.4618  0.6751
   81MOL0     C10587   8.598   4.006   8.634  0.0741  0.1276  0.1078
   81MOL0     C10588   8.621   3.924   8.522  0.2654  0.2163  0.4780
   81MOL0     C10589   8.738   3.837   8.504  0.3298 -0.2044  1.0876
   81MOL0     O10590   8.747   3.752   8.401 -0.0299 -0.9398  0.6396
   81MOL0     C10591   8.842   3.647   8.405 -0.5113 -0.7782 -0.7689
   81MOL0     C10592   8.888   3.589   8.529 -0.6117  0.0979 -0.3008
   81MOL0     C10593   8.972   3.476   8.531 -0.8738 -0.5518  0.5202
   81MOL0     C10594   9.026   3.433   8.412 -0.4554  0.6720  1.2315
   81MOL0     O10595   9.103   3.320   8.399  0.2674  0.3217 -0.1384
   81MOL0     C10596   9.055   3.187   8.440 -1.1477  0.1264 -0.0925
   81MOL0     C10597   8.933   3.130   8.357  0.0667 -0.2411 -0.6928
   81MOL0     C10598   8.791   3.160   8.432  0.5411 -0.2090  0.1817
   81MOL0     C10599   8.674   3.124   8.341 -0.1033  0.3618  0.1208
   81MOL0     C10600   8.539   3.127   8.394  0.5829  0.1403  0.9768
   81MOL0     C10601   8.436   3.176   8.279  0.0978 -0.3257 -0.0284
   81MOL0     C10602   8.293   3.196   8.324 -0.5284  0.8225 -0.0265
   81MOL0     C10603   8.203   3.063   8.326  0.1863 -0.2140  0.9509
   81MOL0    Cl10604   8.185   3.023   8.149  0.3953  0.2811  0.3174
   81MOL0     C10605   9.004   3.497   8.291  0.3424 -0.7442 -0.6518
   81MOL0     C10606   8.911   3.597   8.288 -0.2916  0.1278 -0.2934
   81MOL0     O10607   8.831   3.864   8.578 -0.0968  0.8536 -0.5208
   81MOL0     C10608   8.518   3.919   8.420  0.5907  0.5667 -0.4077
   81MOL0     C10609   8.401   3.992   8.440  0.1764  0.0088 -0.0911
   81MOL0     N10610   8.038   4.408   8.953  0.1933  0.1711  0.4819
   81MOL0     N10611   7.957   4.496   8.993 -0.1657 -0.0360  0.0560
   81MOL0     C10612   7.393   5.092   9.258  1.2407  0.2292  0.4091
   81MOL0     C10613   7.501   5.117   9.169 -0.1905  0.1841 -0.7263
   81MOL0     C10614   7.886   4.992   9.011 -0.1779 -0.6312  1.1160
   81MOL0     C10615   7.986   4.891   9.026 -0.1415  0.0747  0.2565
   81MOL0     C10616   8.109   4.910   8.956  0.0222 -0.1173 -0.6179
   81MOL0     C10617   8.130   5.023   8.883  0.5850 -0.1140 -0.3500
   81MOL0     O10618   8.248   5.042   8.817 -0.0860  0.4852  0.0102
   81MOL0     C10619   8.327   5.164   8.839  1.0463 -0.3395  0.1534
   81MOL0     C10620   8.321   5.228   8.974 -0.7772  0.6623 -0.5096
   81MOL0     C10621   8.396   5.133   9.079  0.3546 -0.3197  0.6217
   81MOL0     C10622   8.343   5.161   9.219  1.2027  0.5356 -0.0777
   81MOL0     C10623   8.429   5.097   9.324  1.5620  0.5954 -0.5970
   81MOL0     C10624   8.494   5.053   9.420 -0.0668  0.0990 -0.4950
   81MOL0     C10625   8.033   5.120   8.875 -0.6248  0.5889  0.6029
   81MOL0     C10626   7.910   5.113   8.931 -0.2648 -0.1757 -0.4522
   81MOL0     H10627   7.502   4.847   8.974 -0.3309 -0.5085 -0.5099
   81MOL0     H10628   7.283   4.796   9.121  2.2062 -1.5479 -0.4781
   81MOL0     H10629   7.130   4.780   9.273 -0.0916 -2.2311  1.2009
   81MOL0     H10630   7.065   4.845   9.409  0.4863  2.0861 -1.3173
   81MOL0     H10631   7.184   4.688   9.527  0.0590 -2.3785 -1.9363
   81MOL0     H10632   7.299   4.834   9.530 -3.3084  2.3184  0.2911
   81MOL0     H10633   7.445   4.662   9.492 -0.4927  3.9776  2.0429
   81MOL0     H10634   7.440   4.753   9.346  1.0232 -2.4231 -1.2468
   81MOL0     H10635   7.282   4.488   9.377 -2.3621  0.9545 -2.1152
   81MOL0     H10636   7.281   4.596   9.239  0.6797  0.9980  0.2059
   81MOL0     H10637   7.449   4.394   9.213  4.5627 -0.5739 -2.3266
   81MOL0     H10638   7.546   4.473   9.338  0.3106  3.3492  1.7476
   81MOL0     H10639   7.550   4.670   9.185  0.0074  1.2460  0.2151
   81MOL0     H10640   7.454   4.575   9.063 -0.8767 -3.6064 -0.5950
   81MOL0     H10641   7.728   4.517   9.176  0.8711 -1.4837 -0.5456
   81MOL0     H10642   7.626   4.399   9.091  2.7039 -0.2128  2.6652
   81MOL0     H10643   7.722   4.662   8.975 -1.4866 -0.1263  0.5851
   81MOL0     H10644   7.629   4.528   8.893 -2.9260 -1.3472  3.3900
   81MOL0     H10645   7.764   4.302   8.820  0.6935 -0.6432 -0.8370
   81MOL0     H10646   7.961   4.133   8.796 -1.6599 -0.1349 -3.6265
   81MOL0     H10647   8.122   4.186   8.818 -0.4263  0.2247  1.1992
   81MOL0     H10648   7.929   4.301   8.593  0.6927  0.0131 -1.6844
   81MOL0     H10649   8.038   4.163   8.579  2.6007  1.3675 -1.3875
   81MOL0     H10650   8.139   4.398   8.500 -1.3386 -0.2610  0.0327
   81MOL0     H10651   8.134   4.446   8.665 -1.7569  0.8017 -0.0018
   81MOL0     H10652   8.276   4.258   8.729  2.8987 -3.7243 -1.0535
   81MOL0     H10653   8.352   4.359   8.598 -2.0648  1.2387 -1.9964
   81MOL0     H10654   8.473   4.160   8.724 -1.5258 -2.1178  2.7781
   81MOL0     H10655   8.663   4.001   8.720  1.9774 -0.1065 -1.2672
   81MOL0     H10656   8.845   3.627   8.621  1.3417  1.2069  0.2049
   81MOL0     H10657   8.988   3.420   8.623 -0.7789 -1.6924 -0.1773
   81MOL0     H10658   9.028   3.189   8.546  1.7534  1.5678  0.7228
   81MOL0     H10659   9.138   3.116   8.433 -0.5337  0.9330 -1.4986
   81MOL0     H10660   8.936   3.022   8.345  0.1715 -0.2676 -0.4200
   81MOL0     H10661   8.935   3.176   8.257 -2.8667  0.1470 -0.6590
   81MOL0     H10662   8.791   3.268   8.453  0.8960 -0.5760  2.3278
   81MOL0     H10663   8.783   3.104   8.525  1.6990 -0.5970  0.0679
   81MOL0     H10664   8.691   3.204   8.269  1.8942  0.7786  0.9857
   81MOL0     H10665   8.685   3.035   8.277 -0.8537  2.5383 -3.2881
   81MOL0     H10666   8.540   3.197   8.478  0.0178  1.2038  0.1264
   81MOL0     H10667   8.514   3.027   8.432 -0.0584 -0.9430 -1.9978
   81MOL0     H10668   8.442   3.103   8.197  0.2519 -0.9604  0.5474
   81MOL0     H10669   8.471   3.271   8.238  2.1111 -0.9873  0.0634
   81MOL0     H10670   8.284   3.234   8.426 -1.5732  0.4331  0.0335
   81MOL0     H10671   8.252   3.276   8.262 -2.2088 -0.3429 -0.4692
   81MOL0     H10672   8.102   3.078   8.365 -1.1753 -1.5532 -1.8139
   81MOL0     H10673   8.257   2.991   8.389 -0.6016  0.1024  2.0076
   81MOL0     H10674   9.057   3.472   8.200 -1.3046 -1.9720 -1.3149
   81MOL0     H10675   8.890   3.639   8.191 -2.3257 -0.2591 -0.0751
   81MOL0     H10676   8.521   3.861   8.328  0.5564  0.9823 -0.6732
   81MOL0     H10677   8.327   3.982   8.362  0.3291  3.2060 -0.7674
   81MOL0     H10678   7.374   5.162   9.339  0.1384  1.5564 -0.9309
   81MOL0     H10679   7.560   5.207   9.179 -2.5871  2.1016 -2.5809
   81MOL0     H10680   7.968   4.804   9.087 -0.3771  0.5603  0.8850
   81MOL0     H10681   8.185   4.833   8.967  0.2991 -0.1398 -2.4018
   81MOL0     H10682   8.289   5.245   8.776 -0.9725 -0.6930  0.8433
   81MOL0     H10683   8.431   5.144   8.811  0.8305  1.1318 -1.9606
   81MOL0     H10684   8.368   5.326   8.986 -2.0386  0.9859  3.2075
   81MOL0     H10685   8.220   5.243   9.014 -0.0741  0.4235  1.4679
   81MOL0     H10686   8.505   5.132   9.073  0.3029 -1.4042 -1.1343
   81MOL0     H10687   8.363   5.030   9.064 -0.2336 -0.4232  2.4351
   81MOL0     H10688   8.348   5.269   9.235 -1.3148  0.9956 -1.7963
   81MOL0     H10689   8.241   5.126   9.239  0.6967  1.2711 -1.2726
   81MOL0     H10690   8.538   4.993   9.497 -1.0455 -2.0879 -1.5612
   81MOL0     H10691   8.054   5.209   8.816  0.6554 -0.0347  0.0792
   81MOL0     H10692   7.842   5.197   8.921 -2.0004 -1.5641 -0.6393
   82MOL0     O10693   8.510   2.426   6.729 -0.2834  0.9398  0.2652
   82MOL0     C10694   8.423   2.361   6.782  0.0870  0.5799  0.2777
   82MOL0     O10695   8.305   2.335   6.721 -0.0403  0.6839 -0.3038
   82MOL0     C10696   8.272   2.382   6.588  0.4757 -0.4294 -0.3169
   82MOL0     C10697   8.361   2.389   6.482  0.2084  0.0824  0.3155
   82MOL0     C10698   8.323   2.456   6.362  0.1473  0.5044 -0.0222
   82MOL0     C10699   8.199   2.514   6.345  0.7336 -0.0850 -0.7197
   82MOL0     O10700   8.169   2.589   6.229 -0.4522  0.4395  0.0643
   82MOL0     C10701   8.278   2.664   6.172 -0.9494 -0.1496  0.7201
   82MOL0     C10702   8.221   2.793   6.118  0.2756  0.5824 -1.5879
   82MOL0     C10703   8.108   2.856   6.204  0.3984  0.0980 -0.8741
   82MOL0     C10704   8.034   2.980   6.152  0.9519 -1.3462  0.5520
   82MOL0     C10705   7.897   2.958   6.079 -0.3896 -0.5455  0.2295
   82MOL0     C10706   7.921   2.943   5.932 -0.1413 -1.0269  0.6678
   82MOL0     C10707   7.813   2.893   5.856 -0.1846  0.2870  0.5721
   82MOL0     C10708   7.857   2.852   5.715 -1.0776 -0.1660  0.9173
   82MOL0     N10709   7.872   2.969   5.626  0.0553 -0.7955  0.0861
   82MOL0     C10710   7.785   3.065   5.607 -0.2156 -0.2803 -0.3791
   82MOL0     C10711   7.846   3.148   5.521 -0.5204 -0.6048  0.9425
   82MOL0     C10712   7.790   3.278   5.474 -0.4342  0.4446  0.2916
   82MOL0     C10713   7.782   3.319   5.327 -0.3183  0.6167  0.1635
   82MOL0     C10714   7.715   3.207   5.248  0.3657  0.1031 -0.5209
   82MOL0     C10715   7.810   3.108   5.192 -0.1642  0.1360  0.0934
   82MOL0     O10716   7.732   3.000   5.137  0.3979 -0.2965  0.4906
   82MOL0     C10717   7.693   2.895   5.211 -0.5655 -0.2815 -0.1096
   82MOL0     C10718   7.551   2.878   5.239  0.6269 -0.7169  0.7394
   82MOL0     C10719   7.502   2.778   5.310 -0.9247  0.3554  0.8472
   82MOL0     C10720   7.588   2.685   5.366  0.0875 -0.3989 -0.3134
   82MOL0     C10721   7.535   2.569   5.446 -0.1336  0.0628 -0.5734
   82MOL0     O10722   7.404   2.545   5.422 -0.0667  0.0636  0.2320
   82MOL0     C10723   7.325   2.450   5.478 -0.0921  0.1029  1.2857
   82MOL0     C10724   7.348   2.382   5.602  0.0456 -0.4786  0.5811
   82MOL0     C10725   7.264   2.288   5.643  0.5855  0.8501  0.4707
   82MOL0     C10726   7.150   2.250   5.564 -0.9121  0.5770 -0.6121
   82MOL0     O10727   7.066   2.150   5.604 -0.2949 -0.3202  0.4261
   82MOL0     C10728   7.086   2.031   5.520 -0.1846 -1.3087 -0.4253
   82MOL0     C10729   7.167   1.923   5.599  0.1454 -0.2964  0.8506
   82MOL0     C10730   7.083   1.902   5.732 -0.6554  0.7231 -0.7484
   82MOL0     C10731   7.150   1.821   5.834  0.9311 -0.3733  0.3365
   82MOL0     C10732   7.046   1.771   5.937  1.0700 -0.3061  0.1653
   82MOL0     C10733   6.960   1.660   5.875  0.0513 -0.1807  0.3203
   82MOL0     C10734   6.836   1.639   5.956 -0.1343  0.2006  0.8277
   82MOL0     C10735   6.750   1.522   5.898 -0.2850  0.4419  0.7818
   82MOL0    Cl10736   6.650   1.467   6.031 -0.2962  0.3124 -0.1496
   82MOL0     C10737   7.119   2.322   5.442  0.1932  0.5287 -0.6726
   82MOL0     C10738   7.208   2.415   5.401  0.0442  0.1186 -0.4046
   82MOL0     O10739   7.605   2.485   5.516  0.2328 -0.5024 -0.0230
   82MOL0     C10740   7.725   2.689   5.346 -0.8122  0.3482  0.6251
   82MOL0     C10741   7.775   2.795   5.262 -1.0579 -0.0945 -0.4248
   82MOL0     N10742   7.974   3.109   5.502  0.2898  0.9989 -0.0220
   82MOL0     N10743   7.986   2.994   5.563  1.1302  0.3377 -0.0805
   82MOL0     C10744   8.101   2.498   6.449  0.9374 -0.4521 -0.6353
   82MOL0     C10745   8.146   2.438   6.569 -1.4102 -0.1169  1.0007
   82MOL0     C10746   8.439   2.304   6.913  0.2138 -0.2918 -0.6889
   82MOL0     C10747   8.569   2.264   6.952  0.6462  0.4718  0.8637
   82MOL0     C10748   8.595   2.196   7.072 -0.7370 -0.1695  0.0434
   82MOL0     C10749   8.498   2.201   7.169 -0.5889 -0.1623  0.0144
   82MOL0     O10750   8.527   2.140   7.292 -0.2347 -0.3564  0.3516
   82MOL0     C10751   8.475   2.189   7.413 -0.6214 -1.0198  0.1173
   82MOL0     C10752   8.497   2.346   7.419 -0.1642  0.7863  0.3307
   82MOL0     C10753   8.654   2.371   7.407  0.1645 -0.5277 -0.5329
   82MOL0     C10754   8.685   2.520   7.369 -0.1329  0.1272  0.0737
   82MOL0     C10755   8.689   2.600   7.490 -0.4802 -0.8479 -0.6649
   82MOL0     C10756   8.683   2.679   7.583  0.8013 -0.4178  0.0117
   82MOL0     C10757   8.367   2.240   7.130 -0.3757 -1.0082  0.0926
   82MOL0     C10758   8.335   2.284   7.006  0.3849  0.1868  0.6661
   82MOL0     H10759   8.457   2.341   6.469 -0.0554 -0.1755 -0.8836
   82MOL0     H10760   8.398   2.471   6.286 -0.9340 -0.1390 -1.2610
   82MOL0     H10761   8.333   2.609   6.096 -0.6040 -0.5513  1.2575
   82MOL0     H10762   8.345   2.697   6.252 -0.4266  1.3820 -0.2983
   82MOL0     H10763   8.190   2.772   6.015 -1.1206  0.4299 -1.1503
   82MOL0     H10764   8.299   2.868   6.104 -0.0582  1.0669 -0.9187
   82MOL0     H10765   8.141   2.890   6.302 -1.3695  2.5204 -1.0323
   82MOL0     H10766   8.034   2.780   6.232 -0.1377  1.7355  2.6601
   82MOL0     H10767   8.013   3.038   6.242  1.4941 -1.6663  0.8925
   82MOL0     H10768   8.092   3.042   6.082  1.0858 -2.3920 -0.2826
   82MOL0     H10769   7.826   3.040   6.092  1.1800  0.6220  1.7500
   82MOL0     H10770   7.842   2.874   6.123 -0.7122 -1.9226 -2.5516
   82MOL0     H10771   8.007   2.877   5.914 -1.2206 -1.6930 -2.8716
   82MOL0     H10772   7.943   3.040   5.886  0.8780 -0.5522  2.0743
   82MOL0     H10773   7.761   2.815   5.912 -5.9429  2.4863 -0.9698
   82MOL0     H10774   7.737   2.972   5.856 -2.4881 -1.8050  0.0575
   82MOL0     H10775   7.781   2.786   5.673 -0.1948 -0.9090  0.4414
   82MOL0     H10776   7.946   2.787   5.717 -1.6235 -0.9203  1.9691
   82MOL0     H10777   7.695   3.090   5.662  0.4079 -0.9324  0.9767
   82MOL0     H10778   7.852   3.355   5.521  0.1281  1.4291 -1.9332
   82MOL0     H10779   7.686   3.291   5.508 -1.0371  0.7569 -1.5559
   82MOL0     H10780   7.873   3.351   5.277 -0.8965  0.8781 -0.7386
   82MOL0     H10781   7.709   3.401   5.325 -0.9132  0.0927 -1.8262
   82MOL0     H10782   7.640   3.156   5.310 -0.3427 -0.9519 -2.1808
   82MOL0     H10783   7.667   3.245   5.157 -0.9950 -1.7556 -0.6463
   82MOL0     H10784   7.882   3.073   5.266 -2.3812 -3.2591  0.8856
   82MOL0     H10785   7.861   3.150   5.105  0.0149 -1.1002 -0.4302
   82MOL0     H10786   7.477   2.952   5.210  1.8286  1.0902  2.1145
   82MOL0     H10787   7.395   2.777   5.322 -1.0215  2.1181  0.4733
   82MOL0     H10788   7.429   2.407   5.670 -0.6488  1.2805  0.8118
   82MOL0     H10789   7.284   2.236   5.737 -1.8885 -1.5770 -0.2302
   82MOL0     H10790   7.133   2.053   5.424  0.5896 -2.4669 -0.3382
   82MOL0     H10791   6.987   1.993   5.491 -0.5035 -0.1367 -0.9159
   82MOL0     H10792   7.269   1.957   5.616  0.3217 -0.3206 -0.1225
   82MOL0     H10793   7.174   1.831   5.539  3.4967  1.1068 -1.2148
   82MOL0     H10794   6.988   1.859   5.700 -2.5610  2.4909  2.1216
   82MOL0     H10795   7.060   2.001   5.772  3.0760  1.0247  1.1368
   82MOL0     H10796   7.215   1.749   5.784  1.1238  1.7352 -2.6768
   82MOL0     H10797   7.218   1.886   5.891  2.9246 -1.6093 -0.5243
   82MOL0     H10798   6.991   1.860   5.969  0.6851  0.2359 -1.8314
   82MOL0     H10799   7.091   1.728   6.027  0.1746  0.1006  0.8140
   82MOL0     H10800   7.014   1.565   5.876  0.5544  0.0307 -1.9042
   82MOL0     H10801   6.932   1.675   5.771 -1.4779 -0.6746  0.6405
   82MOL0     H10802   6.867   1.617   6.058  1.2231 -2.9884 -0.1414
   82MOL0     H10803   6.784   1.734   5.966  0.6498  0.5042  2.2969
   82MOL0     H10804   6.817   1.446   5.855 -0.9299 -0.5044  1.4000
   82MOL0     H10805   6.691   1.564   5.817 -0.9807  0.2948  1.1955
   82MOL0     H10806   7.024   2.304   5.393  0.5493  0.3252 -1.3135
   82MOL0     H10807   7.194   2.455   5.301  1.0472  0.3934 -0.4519
   82MOL0     H10808   7.785   2.609   5.387 -2.0157 -1.1678 -0.4357
   82MOL0     H10809   7.882   2.811   5.247 -1.0519  3.1083  1.9626
   82MOL0     H10810   8.002   2.542   6.451  2.5397  3.6707  0.0478
   82MOL0     H10811   8.076   2.432   6.652 -2.2297  3.6760  0.7700
   82MOL0     H10812   8.661   2.280   6.897  0.1156 -1.9061 -0.8301
   82MOL0     H10813   8.698   2.163   7.086 -0.8590 -0.3722  0.4618
   82MOL0     H10814   8.523   2.136   7.496  2.1303  1.5364  0.3291
   82MOL0     H10815   8.368   2.166   7.424 -1.1107  0.1298 -1.7521
   82MOL0     H10816   8.441   2.395   7.339 -0.4099 -2.4108 -1.6147
   82MOL0     H10817   8.461   2.379   7.517  0.7590  0.5226  0.7735
   82MOL0     H10818   8.698   2.313   7.325  1.7034 -3.0612  1.8922
   82MOL0     H10819   8.707   2.344   7.499  2.2765  1.5651 -1.0430
   82MOL0     H10820   8.787   2.511   7.331 -0.3546 -3.0712 -0.0379
   82MOL0     H10821   8.616   2.557   7.293  0.2761  0.8331  0.0409
   82MOL0     H10822   8.673   2.742   7.669  0.2337  0.4675 -0.6809
   82MOL0     H10823   8.288   2.240   7.205  1.2295  0.2261  1.8714
   82MOL0     H10824   8.237   2.322   6.979 -1.1496 -3.0129  1.2586
   83MOL0     O10825  11.304  11.063   3.706  0.1000 -0.2935 -0.0608
   83MOL0     C10826  11.418  11.018   3.726 -0.7886 -0.2999 -0.0314
   83MOL0     O10827  11.457  10.886   3.689  0.0614 -0.0423 -1.3330
   83MOL0     C10828  11.352  10.793   3.651  0.1755 -0.1884 -0.6553
   83MOL0     C10829  11.331  10.673   3.716 -0.3639 -0.0088  0.0615
   83MOL0     C10830  11.224  10.583   3.680 -1.3243 -0.2305  0.8922
   83MOL0     C10831  11.137  10.617   3.575  0.2281 -0.6445  0.8291
   83MOL0     O10832  11.024  10.561   3.522  0.0323 -0.1623 -0.6625
   83MOL0     C10833  11.007  10.424   3.558  0.0904  0.3649 -1.6269
   83MOL0     C10834  10.933  10.351   3.464  0.0114  0.0625  0.3842
   83MOL0     C10835  10.801  10.419   3.442  0.3381 -0.5434  0.1506
   83MOL0     C10836  10.737  10.335   3.329 -0.5109 -0.3241  0.1952
   83MOL0     C10837  10.643  10.242   3.391  0.2180  1.6056 -0.3804
   83MOL0     C10838  10.566  10.153   3.286 -0.3508 -0.4060 -0.1258
   83MOL0     C10839  10.484  10.042   3.344  0.4860 -0.1710 -0.6718
   83MOL0     C10840  10.549   9.931   3.435  0.7329 -0.3123  0.8815
   83MOL0     N10841  10.652   9.874   3.354 -0.0530 -0.2910  0.7046
   83MOL0     C10842  10.627   9.770   3.270 -0.4167  0.4922 -0.1782
   83MOL0     C10843  10.729   9.779   3.176  0.4721 -0.7920 -0.3529
   83MOL0     C10844  10.752   9.702   3.044 -1.5860 -0.5516 -0.3891
   83MOL0     C10845  10.667   9.769   2.932  0.1001  0.1439  0.0027
   83MOL0     C10846  10.730   9.799   2.797  0.9473  0.7203  0.5443
   83MOL0     C10847  10.830   9.913   2.817 -0.0400  0.6786 -0.2539
   83MOL0     O10848  10.870   9.965   2.684  0.2380 -0.4728  0.3027
   83MOL0     C10849  10.892   9.882   2.575 -1.2279 -0.3713  0.1228
   83MOL0     C10850  10.850   9.927   2.459  0.7868 -1.4577  0.0736
   83MOL0     C10851  10.894   9.863   2.343 -0.2990 -0.4145 -0.1448
   83MOL0     C10852  10.979   9.749   2.349 -0.3456 -0.9340  0.2783
   83MOL0     C10853  11.036   9.688   2.226 -0.3823 -0.5800  0.1288
   83MOL0     O10854  11.088   9.562   2.249 -0.6983 -0.3113  0.2893
   83MOL0     C10855  11.143   9.492   2.147  0.9699  0.2837  0.0777
   83MOL0     C10856  11.199   9.540   2.029 -0.4639 -1.1088  0.3327
   83MOL0     C10857  11.247   9.459   1.923 -0.3003 -0.3666  0.1550
   83MOL0     C10858  11.244   9.320   1.946  0.1841 -1.2343 -0.7428
   83MOL0     O10859  11.282   9.222   1.860  0.0164 -0.0005 -0.1039
   83MOL0     C10860  11.367   9.258   1.751 -0.4299 -0.0751  0.7343
   83MOL0     C10861  11.403   9.134   1.676 -0.3114  0.6619  0.0087
   83MOL0     C10862  11.500   9.162   1.557 -0.0230 -0.6401 -0.1760
   83MOL0     C10863  11.535   9.050   1.459 -0.1382  0.0935 -0.1480
   83MOL0     C10864  11.621   9.105   1.348  0.4840  1.0821  0.1535
   83MOL0     C10865  11.678   8.997   1.261  0.0957 -0.3635  0.7780
   83MOL0     C10866  11.803   9.028   1.175  0.2497  0.2220 -0.0079
   83MOL0     C10867  11.807   9.167   1.114 -0.1993 -0.2674 -0.0494
   83MOL0    Cl10868  11.670   9.193   0.999  0.1853 -0.3055 -0.0280
   83MOL0     C10869  11.182   9.272   2.062  0.2908 -0.0589 -0.1393
   83MOL0     C10870  11.131   9.352   2.159 -0.1620 -0.6835 -0.3621
   83MOL0     O10871  11.029   9.747   2.120 -0.2735 -0.4088 -0.2733
   83MOL0     C10872  11.006   9.688   2.478 -0.0042 -0.0546  1.2404
   83MOL0     C10873  10.971   9.767   2.590 -0.1106 -0.4342 -0.3227
   83MOL0     N10874  10.815   9.872   3.223 -0.1503 -1.0751  0.6466
   83MOL0     N10875  10.774   9.928   3.324  0.4377 -0.5332  0.1150
   83MOL0     C10876  11.156  10.745   3.515 -0.1509 -0.4555 -0.2087
   83MOL0     C10877  11.259  10.830   3.556  0.3202  0.4621 -0.9275
   83MOL0     C10878  11.532  11.106   3.774  0.0947  0.6348  0.0177
   83MOL0     C10879  11.648  11.050   3.838 -0.6949  0.8875 -0.1401
   83MOL0     C10880  11.752  11.144   3.891  0.7087 -0.4286  0.6554
   83MOL0     C10881  11.714  11.283   3.903  0.1160 -0.5422 -0.1732
   83MOL0     O10882  11.781  11.389   3.969 -0.2163  1.1146 -0.5038
   83MOL0     C10883  11.889  11.354   4.053 -0.0195  0.8221 -0.3146
   83MOL0     C10884  11.935  11.470   4.148  0.0906  0.0246 -0.5214
   83MOL0     C10885  11.829  11.516   4.262  0.0257 -0.2809  0.8175
   83MOL0     C10886  11.915  11.551   4.383  0.4873 -0.0685  0.3844
   83MOL0     C10887  11.823  11.589   4.489 -0.5035 -0.2486  0.0992
   83MOL0     C10888  11.733  11.615   4.566  0.1475  0.3235  0.0386
   83MOL0     C10889  11.599  11.332   3.842 -0.0972  0.5406 -0.5098
   83MOL0     C10890  11.517  11.246   3.775  0.7427  0.1780  0.3481
   83MOL0     H10891  11.386  10.643   3.805 -0.9223  1.9543  1.1243
   83MOL0     H10892  11.203  10.494   3.738 -1.7576  0.4675  1.8459
   83MOL0     H10893  10.942  10.420   3.646  0.5562 -2.2348 -1.3084
   83MOL0     H10894  11.098  10.367   3.580 -2.9208 -4.3707  0.2938
   83MOL0     H10895  10.942  10.245   3.487  1.4087  0.2263  0.6576
   83MOL0     H10896  10.987  10.343   3.369  0.0315 -0.0708  0.4069
   83MOL0     H10897  10.816  10.525   3.421  0.5651 -0.0513  2.5597
   83MOL0     H10898  10.745  10.417   3.535 -0.3977 -0.6160 -0.2892
   83MOL0     H10899  10.673  10.403   3.272  0.3713  0.9396  0.6651
   83MOL0     H10900  10.803  10.277   3.264 -1.4230 -0.5303 -0.5749
   83MOL0     H10901  10.570  10.286   3.459 -0.8851 -1.2790  0.4570
   83MOL0     H10902  10.698  10.170   3.452  2.4414  1.5565 -2.3003
   83MOL0     H10903  10.636  10.107   3.216  1.0501 -0.4945  1.2570
   83MOL0     H10904  10.502  10.212   3.221 -0.2127 -3.3014 -3.1211
   83MOL0     H10905  10.410  10.096   3.403  0.6544 -1.7746  1.1427
   83MOL0     H10906  10.429   9.998   3.260 -1.4668 -1.5732  1.2069
   83MOL0     H10907  10.481   9.854   3.471 -2.3981  1.0668 -1.5531
   83MOL0     H10908  10.580   9.969   3.532 -2.4735 -0.2306  1.9809
   83MOL0     H10909  10.537   9.714   3.249 -0.9910  0.0027  3.0990
   83MOL0     H10910  10.738   9.595   3.059  1.3627 -0.9477  0.0666
   83MOL0     H10911  10.859   9.703   3.020 -1.9006  1.0856 -2.0102
   83MOL0     H10912  10.602   9.851   2.963 -2.6065 -1.5351 -0.8950
   83MOL0     H10913  10.593   9.690   2.913  0.8819 -0.2253 -1.7656
   83MOL0     H10914  10.771   9.712   2.744 -0.4219  1.4803 -1.9130
   83MOL0     H10915  10.647   9.822   2.730  2.3499 -2.8391 -2.8165
   83MOL0     H10916  10.919   9.870   2.864  0.1593  0.4160 -0.8627
   83MOL0     H10917  10.775   9.995   2.864  0.2530  0.5225  0.3710
   83MOL0     H10918  10.794  10.019   2.462 -1.0316 -2.5026 -0.4785
   83MOL0     H10919  10.884   9.899   2.241 -0.2658 -0.4938 -0.1764
   83MOL0     H10920  11.208   9.646   2.006  1.4027 -1.0955  0.9732
   83MOL0     H10921  11.290   9.506   1.835 -1.2601  2.9497  1.3120
   83MOL0     H10922  11.463   9.300   1.784 -2.4969  4.5017  1.6561
   83MOL0     H10923  11.317   9.324   1.681 -0.3069 -2.3826 -1.6748
   83MOL0     H10924  11.310   9.093   1.637 -0.2645  0.4600  0.1117
   83MOL0     H10925  11.457   9.063   1.739 -0.7343 -0.4267 -0.8320
   83MOL0     H10926  11.595   9.181   1.608 -0.6370  1.4990  0.2639
   83MOL0     H10927  11.476   9.246   1.492  0.6556 -1.4679 -1.5642
   83MOL0     H10928  11.589   8.973   1.515  0.4181  1.1244  0.7704
   83MOL0     H10929  11.442   9.009   1.417 -0.3761 -0.4073  0.8425
   83MOL0     H10930  11.702   9.171   1.382 -1.2932  3.9861 -0.8297
   83MOL0     H10931  11.559   9.176   1.292 -0.5700  1.6730  1.9583
   83MOL0     H10932  11.607   8.941   1.199 -0.7068 -0.7842  2.0405
   83MOL0     H10933  11.722   8.917   1.320 -0.0453 -0.7237  0.4052
   83MOL0     H10934  11.889   9.019   1.241  1.4416  0.5482 -1.4477
   83MOL0     H10935  11.815   8.954   1.095 -0.1954  1.8430 -1.6708
   83MOL0     H10936  11.903   9.195   1.070 -0.7336  1.5088 -0.1627
   83MOL0     H10937  11.800   9.240   1.195  4.4275  3.0531 -2.1669
   83MOL0     H10938  11.187   9.163   2.063 -1.5374 -0.1795  1.2166
   83MOL0     H10939  11.091   9.306   2.249  0.1902  3.7143  2.3496
   83MOL0     H10940  11.073   9.604   2.478  3.3997  2.1794 -3.5438
   83MOL0     H10941  11.001   9.739   2.691 -2.7010 -2.0171  0.1084
   83MOL0     H10942  11.091  10.767   3.432  0.3016 -0.4599 -0.5636
   83MOL0     H10943  11.268  10.925   3.505  0.4936 -0.5723 -2.9346
   83MOL0     H10944  11.664  10.943   3.842  0.5105  0.9965 -1.4772
   83MOL0     H10945  11.839  11.112   3.949 -1.9558 -1.3676  4.5223
   83MOL0     H10946  11.977  11.321   3.996 -0.2326 -0.9510  0.3408
   83MOL0     H10947  11.871  11.270   4.121  2.9260 -1.1032 -1.7033
   83MOL0     H10948  12.027  11.428   4.190  0.4558  0.2585 -1.0614
   83MOL0     H10949  11.963  11.552   4.080 -2.0966 -0.1791 -1.7458
   83MOL0     H10950  11.748  11.445   4.279 -0.3370 -0.3263 -0.8778
   83MOL0     H10951  11.775  11.602   4.221 -1.1242 -1.1145  0.5335
   83MOL0     H10952  11.971  11.465   4.421  0.1030  0.1096  1.3838
   83MOL0     H10953  11.994  11.624   4.365 -1.6421  2.2211 -0.2370
   83MOL0     H10954  11.659  11.621   4.643 -0.3458  0.2044 -0.4160
   83MOL0     H10955  11.586  11.439   3.833  2.3326  0.7668 -2.1054
   83MOL0     H10956  11.433  11.298   3.728 -0.8294 -1.5680  1.0711
   84MOL0     O10957   6.905   4.117   2.306 -0.1225 -0.1033 -0.0197
   84MOL0     C10958   6.949   4.119   2.422  0.2646 -0.2074 -0.5131
   84MOL0     O10959   6.948   4.014   2.511 -0.0607 -0.9441  0.2907
   84MOL0     C10960   6.913   3.889   2.460 -0.1086 -0.7817  0.4839
   84MOL0     C10961   7.003   3.812   2.375  1.3465  0.3810 -0.5898
   84MOL0     C10962   6.960   3.684   2.339  0.0995 -0.1071 -1.0070
   84MOL0     C10963   6.827   3.642   2.373  0.7948 -0.1414 -0.4469
   84MOL0     O10964   6.779   3.516   2.335 -0.5313  0.1234  0.0876
   84MOL0     C10965   6.840   3.411   2.415 -0.3064 -0.0547 -0.1442
   84MOL0     C10966   6.781   3.262   2.384  0.2823 -0.1234 -0.5733
   84MOL0     C10967   6.638   3.262   2.429  0.8732 -0.3986 -0.3418
   84MOL0     C10968   6.575   3.134   2.372  0.4380 -0.1803 -0.4496
   84MOL0     C10969   6.438   3.124   2.431 -0.2915  0.8959 -0.6947
   84MOL0     C10970   6.445   3.022   2.549  0.2495  0.1231  0.0837
   84MOL0     C10971   6.311   2.991   2.614  0.3207 -0.3539 -0.5824
   84MOL0     C10972   6.308   2.873   2.705  0.3490  0.0407  0.5714
   84MOL0     N10973   6.373   2.905   2.834 -0.1775  0.8864  0.1499
   84MOL0     C10974   6.293   2.912   2.946  0.2884  0.8085  0.2877
   84MOL0     C10975   6.362   2.973   3.043  0.4912  0.2559  0.1593
   84MOL0     C10976   6.294   3.002   3.171  0.4753  0.1236 -0.6552
   84MOL0     C10977   6.386   2.947   3.282  0.2616  1.2082 -0.6015
   84MOL0     C10978   6.347   2.974   3.421  0.6546  0.1619 -0.6633
   84MOL0     C10979   6.431   2.927   3.534 -1.0223  0.7876  0.1514
   84MOL0     O10980   6.358   2.953   3.656 -0.4297  0.7562  0.1035
   84MOL0     C10981   6.370   2.875   3.773  0.8606 -1.2775  0.5200
   84MOL0     C10982   6.465   2.774   3.792  0.5617  0.2309 -0.0676
   84MOL0     C10983   6.473   2.706   3.910 -1.1051  0.0580  0.0966
   84MOL0     C10984   6.380   2.725   4.010 -0.4147 -0.8012 -0.0548
   84MOL0     C10985   6.381   2.641   4.139 -0.1068 -0.2693  0.4154
   84MOL0     O10986   6.280   2.658   4.226 -0.7672 -0.4846  0.3933
   84MOL0     C10987   6.281   2.613   4.360  0.4440 -0.5834  0.8561
   84MOL0     C10988   6.325   2.489   4.393 -1.4701  1.1451 -0.4595
   84MOL0     C10989   6.322   2.445   4.529 -0.2394  0.7441  0.2456
   84MOL0     C10990   6.238   2.511   4.626  0.3401  0.9140  0.7870
   84MOL0     O10991   6.213   2.451   4.745 -0.2618  0.3786  0.0936
   84MOL0     C10992   6.070   2.454   4.779  0.1204  0.5838 -0.0949
   84MOL0     C10993   6.063   2.441   4.931  0.1842 -0.1393 -0.6278
   84MOL0     C10994   6.117   2.569   4.996  0.5855 -0.5705 -0.2254
   84MOL0     C10995   6.119   2.563   5.155  0.8104  0.2236  0.0350
   84MOL0     C10996   6.188   2.683   5.205  0.5159 -0.6007 -0.6542
   84MOL0     C10997   6.235   2.653   5.349  0.3521 -0.5145  0.7688
   84MOL0     C10998   6.337   2.537   5.366 -0.2046 -0.2252 -0.8318
   84MOL0     C10999   6.395   2.524   5.506 -0.2654  0.0032 -0.4522
   84MOL0    Cl11000   6.504   2.671   5.532  0.3822  0.4166 -0.0503
   84MOL0     C11001   6.207   2.641   4.599  0.6387  0.4811  0.6084
   84MOL0     C11002   6.229   2.692   4.464 -0.0723  0.2338 -1.0539
   84MOL0     O11003   6.483   2.575   4.163 -0.4175  0.3184  0.7953
   84MOL0     C11004   6.269   2.805   3.984  0.4543  0.1935  0.1039
   84MOL0     C11005   6.266   2.885   3.869  0.3107 -0.3194 -0.5777
   84MOL0     N11006   6.484   2.986   2.995 -0.0161 -0.3537  0.8362
   84MOL0     N11007   6.494   2.963   2.871 -0.6934  0.1548  0.1506
   84MOL0     C11008   6.740   3.723   2.444  1.1548  1.4180  0.5390
   84MOL0     C11009   6.782   3.850   2.493  0.6566  0.8418  0.0675
   84MOL0     C11010   6.977   4.250   2.475  0.5566  0.2243 -0.6090
   84MOL0     C11011   6.923   4.374   2.429  0.7126  0.0313 -0.5044
   84MOL0     C11012   6.960   4.499   2.471 -0.5436 -0.1147 -1.2183
   84MOL0     C11013   7.060   4.505   2.572  0.2001 -0.0613  1.1205
   84MOL0     O11014   7.099   4.633   2.615 -0.6761  0.3744 -0.3701
   84MOL0     C11015   7.210   4.643   2.702 -0.3915  0.4945  0.5816
   84MOL0     C11016   7.254   4.791   2.722 -0.3339 -0.1782  0.2229
   84MOL0     C11017   7.155   4.879   2.782  0.0621 -1.1137 -0.4689
   84MOL0     C11018   7.144   4.886   2.940 -0.1178  0.0756 -0.4862
   84MOL0     C11019   7.088   4.765   3.000 -0.4142  0.7436 -0.5340
   84MOL0     C11020   7.050   4.662   3.051 -0.0606 -0.1642  0.3128
   84MOL0     C11021   7.103   4.380   2.629  0.1744 -0.9532 -0.0588
   84MOL0     C11022   7.062   4.261   2.581 -0.4447  0.2685  0.6799
   84MOL0     H11023   7.102   3.848   2.350  1.8363 -0.7422 -0.2801
   84MOL0     H11024   7.021   3.617   2.278 -0.8850 -0.2862 -1.8194
   84MOL0     H11025   6.815   3.432   2.520 -2.1554  1.1887 -0.7818
   84MOL0     H11026   6.947   3.413   2.396 -0.1704 -1.3660  0.3842
   84MOL0     H11027   6.837   3.188   2.441  1.2375  0.8329 -0.2395
   84MOL0     H11028   6.786   3.247   2.276 -0.2712 -3.1846 -0.2488
   84MOL0     H11029   6.582   3.345   2.386  2.1952  1.5648  1.5723
   84MOL0     H11030   6.624   3.266   2.537 -2.2686 -1.9745 -0.5422
   84MOL0     H11031   6.568   3.147   2.263  0.9974 -1.7174 -0.6929
   84MOL0     H11032   6.645   3.056   2.401 -1.7629 -1.6196  1.3325
   84MOL0     H11033   6.371   3.083   2.355 -0.3222 -2.4052  0.9392
   84MOL0     H11034   6.395   3.217   2.469 -1.1137 -0.1214  0.9394
   84MOL0     H11035   6.514   3.072   2.618  3.0916 -3.7532  0.3436
   84MOL0     H11036   6.482   2.926   2.513  1.8325  0.2233  1.3178
   84MOL0     H11037   6.280   3.080   2.670 -3.1436  0.2786 -3.2124
   84MOL0     H11038   6.230   2.981   2.542 -0.8515 -0.1154  0.6529
   84MOL0     H11039   6.365   2.794   2.655 -0.9613  0.1608 -1.2052
   84MOL0     H11040   6.204   2.842   2.723  0.4833 -2.6363 -2.2969
   84MOL0     H11041   6.191   2.876   2.960  0.7198 -0.4111  0.4003
   84MOL0     H11042   6.191   2.967   3.177 -0.1699  1.6804 -1.7891
   84MOL0     H11043   6.283   3.111   3.177 -1.6727 -0.1220  1.0075
   84MOL0     H11044   6.492   2.966   3.266  0.5303  1.3760  1.2206
   84MOL0     H11045   6.361   2.841   3.267 -0.4587  1.6304 -2.7332
   84MOL0     H11046   6.333   3.080   3.441 -3.3197  0.0493 -1.8610
   84MOL0     H11047   6.253   2.922   3.444  0.8855 -2.3540 -4.5613
   84MOL0     H11048   6.528   2.975   3.523  0.8819 -2.6865  0.1527
   84MOL0     H11049   6.436   2.818   3.523 -0.4336  0.8262  0.0333
   84MOL0     H11050   6.555   2.759   3.733  3.5234  1.2883  3.7715
   84MOL0     H11051   6.562   2.644   3.919 -1.1568 -0.1452 -0.7401
   84MOL0     H11052   6.377   2.420   4.327  0.3675  2.1291 -0.1206
   84MOL0     H11053   6.370   2.353   4.561  1.7192  1.5219 -0.2880
   84MOL0     H11054   6.027   2.360   4.744  4.0818 -1.8778  0.9743
   84MOL0     H11055   6.015   2.548   4.766  1.5637  1.5428  0.5155
   84MOL0     H11056   6.138   2.367   4.959  1.4046  1.7563  1.4110
   84MOL0     H11057   5.961   2.412   4.956  0.6224  0.2167  1.7631
   84MOL0     H11058   6.065   2.657   4.956  1.1101 -0.9712 -1.9029
   84MOL0     H11059   6.217   2.595   4.960  0.3762 -0.5902 -0.8408
   84MOL0     H11060   6.020   2.564   5.202  1.5878 -1.8210  1.9091
   84MOL0     H11061   6.172   2.473   5.188  0.4495  0.3006  0.8475
   84MOL0     H11062   6.114   2.762   5.191  3.4427  2.0290 -2.8347
   84MOL0     H11063   6.275   2.711   5.145 -0.0262  1.7250 -0.4283
   84MOL0     H11064   6.151   2.630   5.415 -0.0144  2.5273  1.5104
   84MOL0     H11065   6.287   2.746   5.375 -1.8785  0.8511  0.6350
   84MOL0     H11066   6.284   2.445   5.341 -3.3818  0.5857  2.1059
   84MOL0     H11067   6.428   2.547   5.305  2.7462 -1.1866  2.9635
   84MOL0     H11068   6.439   2.425   5.516  0.0082  0.2277  0.7008
   84MOL0     H11069   6.309   2.527   5.573 -0.5623 -1.7766 -0.7111
   84MOL0     H11070   6.166   2.705   4.676 -1.0402  0.7776 -0.4851
   84MOL0     H11071   6.192   2.793   4.454  2.4693  1.6092  1.9185
   84MOL0     H11072   6.195   2.818   4.062  0.3450 -3.4654  0.7790
   84MOL0     H11073   6.186   2.957   3.864 -0.6767 -0.9872  2.7845
   84MOL0     H11074   6.640   3.687   2.466  0.0808  1.2949 -3.6660
   84MOL0     H11075   6.705   3.903   2.548 -2.0524 -0.6696 -2.0254
   84MOL0     H11076   6.856   4.378   2.343  2.3985  5.1971 -1.9555
   84MOL0     H11077   6.936   4.590   2.418 -0.6068  2.2672  2.5029
   84MOL0     H11078   7.285   4.579   2.654  1.5064  1.9272  1.5002
   84MOL0     H11079   7.178   4.609   2.801  0.6824  0.1812  0.8380
   84MOL0     H11080   7.345   4.800   2.782  0.2208  3.4129 -0.8943
   84MOL0     H11081   7.271   4.833   2.622  0.2160  2.7898  1.4414
   84MOL0     H11082   7.062   4.839   2.741  0.1465 -3.7304  1.6010
   84MOL0     H11083   7.166   4.982   2.748  0.0178 -0.1964  2.0232
   84MOL0     H11084   7.243   4.909   2.982 -0.1144 -2.5735  1.1579
   84MOL0     H11085   7.071   4.965   2.962 -1.3842 -2.2403  5.0898
   84MOL0     H11086   7.017   4.568   3.090  0.8967 -0.7237 -0.1857
   84MOL0     H11087   7.189   4.374   2.695  0.9021 -1.3734 -1.0123
   84MOL0     H11088   7.123   4.182   2.623  0.7986 -0.1834 -1.7795
   85MOL0     O11089   4.482   1.692   0.008 -0.0453 -0.3875  1.3019
   85MOL0     C11090   4.440   1.678  -0.109  0.6595 -0.6358  0.4678
   85MOL0     O11091   4.502   1.598  -0.201 -0.3482 -0.2287 -0.5434
   85MOL0     C11092   4.601   1.514  -0.170  0.4393 -0.0826 -0.6081
   85MOL0     C11093   4.714   1.545  -0.104 -0.8048 -1.2844  0.5964
   85MOL0     C11094   4.815   1.452  -0.087  0.1045  0.1705  0.6136
   85MOL0     C11095   4.800   1.316  -0.147  0.4271  0.9993 -0.0458
   85MOL0     O11096   4.885   1.207  -0.129 -0.0545 -0.0760  0.2652
   85MOL0     C11097   4.896   1.172   0.013 -0.3518 -0.4251  0.0386
   85MOL0     C11098   4.927   1.029   0.029  0.0376  0.3550 -0.1198
   85MOL0     C11099   5.053   0.987  -0.057 -0.1982 -0.1616 -0.6406
   85MOL0     C11100   5.064   0.838  -0.065  0.1921  0.0505 -0.0008
   85MOL0     C11101   5.209   0.799  -0.083 -0.4026 -0.7184  0.1260
   85MOL0     C11102   5.217   0.638  -0.085  0.2184 -0.7937 -0.2331
   85MOL0     C11103   5.320   0.601  -0.181 -0.9237  0.1052  0.9998
   85MOL0     C11104   5.467   0.620  -0.133 -0.0235 -0.4563 -0.4341
   85MOL0     N11105   5.556   0.538  -0.211  0.2204  0.5410  0.2855
   85MOL0     C11106   5.683   0.566  -0.229 -0.8217  0.5064 -0.5753
   85MOL0     C11107   5.753   0.455  -0.275  0.4721  0.5716 -0.0774
   85MOL0     C11108   5.898   0.448  -0.317  1.0847  0.4131 -0.8439
   85MOL0     C11109   5.932   0.545  -0.435 -1.1200 -0.2889 -1.0107
   85MOL0     C11110   6.032   0.658  -0.394  1.0205 -0.3372  0.7956
   85MOL0     C11111   6.062   0.741  -0.515  0.9990  0.3526 -0.3329
   85MOL0     O11112   5.941   0.808  -0.569 -0.9719  0.2448 -0.0294
   85MOL0     C11113   5.902   0.934  -0.525 -0.0012 -0.0209 -0.6964
   85MOL0     C11114   5.942   1.049  -0.598 -0.9030 -0.6161 -0.1568
   85MOL0     C11115   5.901   1.173  -0.548  0.6115 -0.3656 -0.0741
   85MOL0     C11116   5.824   1.187  -0.425  0.2184  0.3818  0.9198
   85MOL0     C11117   5.774   1.317  -0.382 -0.2559  0.9972  0.4011
   85MOL0     O11118   5.699   1.317  -0.259 -0.5657  0.2699 -0.0071
   85MOL0     C11119   5.647   1.436  -0.227 -0.7553 -0.4097 -0.6721
   85MOL0     C11120   5.701   1.488  -0.112  0.2755 -0.0660 -0.2324
   85MOL0     C11121   5.674   1.618  -0.071  0.3796 -0.4802  0.9624
   85MOL0     C11122   5.579   1.690  -0.138  0.7080  0.8247 -0.8469
   85MOL0     O11123   5.547   1.826  -0.113 -0.5479 -0.4105 -0.6853
   85MOL0     C11124   5.443   1.880  -0.184  0.4705  0.6118  0.4337
   85MOL0     C11125   5.386   1.991  -0.104 -0.4189 -0.5190 -0.0857
   85MOL0     C11126   5.457   2.117  -0.138  0.7034  0.2920  0.3674
   85MOL0     C11127   5.415   2.194  -0.267 -0.6519 -0.3080  0.4396
   85MOL0     C11128   5.460   2.339  -0.267  0.4777 -0.4055 -0.6825
   85MOL0     C11129   5.350   2.448  -0.288 -0.2622  0.5698  1.1381
   85MOL0     C11130   5.416   2.581  -0.251 -0.7763  0.4055 -0.6507
   85MOL0     C11131   5.322   2.693  -0.287 -0.8247  0.2214  0.8516
   85MOL0    Cl11132   5.376   2.858  -0.238 -0.0163 -0.1869  0.2179
   85MOL0     C11133   5.517   1.625  -0.252 -0.8905 -1.0941  1.0183
   85MOL0     C11134   5.562   1.501  -0.300  0.5157  0.0586  0.4401
   85MOL0     O11135   5.805   1.419  -0.450  0.0817  1.2255  0.3828
   85MOL0     C11136   5.787   1.069  -0.362  0.0427  0.2930 -1.2866
   85MOL0     C11137   5.818   0.945  -0.414 -0.3334 -0.3519 -0.4360
   85MOL0     N11138   5.661   0.356  -0.269  0.0890  0.3800  0.4627
   85MOL0     N11139   5.540   0.404  -0.242 -0.1774  0.5011 -0.3135
   85MOL0     C11140   4.677   1.284  -0.205 -0.2057 -0.4825  0.0342
   85MOL0     C11141   4.584   1.379  -0.215  0.2286 -0.5036 -1.0677
   85MOL0     C11142   4.325   1.760  -0.156 -0.0269  0.4401 -1.2388
   85MOL0     C11143   4.259   1.845  -0.066  0.4127  0.1149  0.3908
   85MOL0     C11144   4.161   1.944  -0.113  0.2258  0.2114 -0.1191
   85MOL0     C11145   4.116   1.948  -0.243  0.2336  0.6172 -0.2144
   85MOL0     O11146   4.004   2.032  -0.263 -0.3593  0.3874 -0.3849
   85MOL0     C11147   3.946   2.020  -0.393  0.4427  0.8589  0.3647
   85MOL0     C11148   4.023   2.105  -0.496  0.1225  0.1516 -0.3785
   85MOL0     C11149   4.047   2.251  -0.453  0.6329 -1.4846  1.0346
   85MOL0     C11150   4.188   2.264  -0.390 -0.3737 -0.6126  0.0760
   85MOL0     C11151   4.233   2.409  -0.386 -0.1774  0.8370  0.1112
   85MOL0     C11152   4.289   2.512  -0.397  0.0037 -0.7999  1.0248
   85MOL0     C11153   4.187   1.867  -0.331 -0.4773 -0.4123 -0.1175
   85MOL0     C11154   4.276   1.768  -0.292 -0.5815  0.2156 -0.2279
   85MOL0     H11155   4.727   1.650  -0.079  0.3615 -1.0121 -0.9844
   85MOL0     H11156   4.912   1.464  -0.039 -0.5909 -1.3720  2.5445
   85MOL0     H11157   4.803   1.194   0.066  0.6814  0.8187  1.4449
   85MOL0     H11158   4.974   1.225   0.070  0.2079  1.4111 -2.2936
   85MOL0     H11159   4.836   0.973   0.004 -0.8704  2.0548 -0.7498
   85MOL0     H11160   4.953   1.002   0.132  0.3640  0.9345 -0.0463
   85MOL0     H11161   5.140   1.023  -0.000 -0.0338 -1.3794 -0.0926
   85MOL0     H11162   5.062   1.040  -0.152  3.8015  1.2263  0.2897
   85MOL0     H11163   5.034   0.775   0.020 -0.7858  1.3620  0.6555
   85MOL0     H11164   5.019   0.797  -0.156  2.5211 -1.4530 -0.5705
   85MOL0     H11165   5.279   0.843  -0.010  0.3220  0.9935 -1.5201
   85MOL0     H11166   5.246   0.844  -0.175 -0.8164  0.5103  0.5417
   85MOL0     H11167   5.118   0.601  -0.114 -0.2666  0.6378 -0.4915
   85MOL0     H11168   5.242   0.596   0.013  0.3336 -1.4170 -0.5270
   85MOL0     H11169   5.298   0.499  -0.215 -6.3261  0.9274  1.0692
   85MOL0     H11170   5.300   0.661  -0.270 -3.6945 -0.3152  1.2590
   85MOL0     H11171   5.470   0.584  -0.030 -0.5569  0.6868  0.0008
   85MOL0     H11172   5.494   0.726  -0.132  0.5096 -0.5267 -2.2723
   85MOL0     H11173   5.728   0.664  -0.239  0.0788  0.2130  0.4855
   85MOL0     H11174   5.920   0.350  -0.359 -1.9945 -0.6649 -0.2075
   85MOL0     H11175   5.955   0.458  -0.224 -0.6460 -1.6726  0.5539
   85MOL0     H11176   5.839   0.591  -0.471 -1.5740  0.1334  0.5744
   85MOL0     H11177   5.968   0.490  -0.522 -0.6317  0.2404 -1.1518
   85MOL0     H11178   5.984   0.725  -0.322  0.0288 -0.4102  0.2133
   85MOL0     H11179   6.117   0.621  -0.336  0.1936 -2.7757  0.5800
   85MOL0     H11180   6.095   0.668  -0.589  1.0921  0.5949 -0.5314
   85MOL0     H11181   6.129   0.825  -0.495 -0.0993  1.0376  0.6470
   85MOL0     H11182   6.003   1.047  -0.687 -1.8876  3.1763 -1.1053
   85MOL0     H11183   5.916   1.269  -0.597 -1.8541 -1.5542 -3.6306
   85MOL0     H11184   5.782   1.429  -0.070  0.6512  1.3094  1.1021
   85MOL0     H11185   5.721   1.666   0.015 -1.6904  2.4435  0.5987
   85MOL0     H11186   5.363   1.805  -0.196  2.2276 -1.4076  0.8104
   85MOL0     H11187   5.482   1.918  -0.279  0.8989  1.2329  0.8488
   85MOL0     H11188   5.385   1.971   0.003 -2.0779  0.3387  0.1026
   85MOL0     H11189   5.282   2.000  -0.138  0.3690  1.4497 -2.2824
   85MOL0     H11190   5.564   2.100  -0.148  0.1369 -3.4083 -1.0430
   85MOL0     H11191   5.452   2.189  -0.056 -0.7449  1.7483 -0.9216
   85MOL0     H11192   5.477   2.154  -0.348  1.6292  0.2732  1.7901
   85MOL0     H11193   5.310   2.179  -0.292 -0.7428  2.2493 -1.0982
   85MOL0     H11194   5.540   2.353  -0.340  1.3293  1.0641  0.4723
   85MOL0     H11195   5.512   2.367  -0.175  0.8330  0.8185 -1.2372
   85MOL0     H11196   5.261   2.431  -0.228 -0.9679  0.9388  0.2310
   85MOL0     H11197   5.313   2.453  -0.391 -3.3835  3.8443  2.2263
   85MOL0     H11198   5.453   2.572  -0.149 -2.0793  0.6918 -0.1231
   85MOL0     H11199   5.500   2.586  -0.321  0.2120  0.8490  0.5362
   85MOL0     H11200   5.219   2.675  -0.254 -0.1090  0.2941  3.3368
   85MOL0     H11201   5.304   2.688  -0.395 -3.6573 -1.0268  1.2793
   85MOL0     H11202   5.430   1.659  -0.308 -0.9874 -4.2135 -0.9860
   85MOL0     H11203   5.520   1.442  -0.381  1.7360 -0.2695  0.0341
   85MOL0     H11204   5.730   1.073  -0.270  1.7104  0.4991 -0.2227
   85MOL0     H11205   5.795   0.856  -0.356 -1.1489  1.1387  1.5994
   85MOL0     H11206   4.654   1.182  -0.235  1.2122 -0.5227 -0.9888
   85MOL0     H11207   4.490   1.356  -0.264 -1.1221  2.3215 -0.0396
   85MOL0     H11208   4.281   1.840   0.040 -1.5006  0.0633  0.8308
   85MOL0     H11209   4.096   1.992  -0.041 -0.5126 -0.0237 -0.6214
   85MOL0     H11210   3.841   2.048  -0.398  0.2524  0.2253  0.6377
   85MOL0     H11211   3.944   1.913  -0.417  0.3971  1.0319 -0.4243
   85MOL0     H11212   4.125   2.065  -0.501  0.3829  0.2881  2.2472
   85MOL0     H11213   3.963   2.093  -0.586  1.0603 -0.6699 -0.9270
   85MOL0     H11214   3.963   2.289  -0.394 -0.9641 -0.6343 -1.6554
   85MOL0     H11215   4.051   2.308  -0.546  1.6469 -2.8247  0.2158
   85MOL0     H11216   4.183   2.231  -0.286  1.2463  0.3891  0.5023
   85MOL0     H11217   4.262   2.208  -0.448 -0.9342 -0.4963 -0.7765
   85MOL0     H11218   4.333   2.609  -0.407  0.5343 -1.0058  1.3491
   85MOL0     H11219   4.161   1.884  -0.435 -2.6689  2.8703  0.7766
   85MOL0     H11220   4.326   1.705  -0.364  1.1999  0.3546  0.8170
   86MOL0     O11221  11.326   2.108   3.967 -0.2088  0.1812 -0.2913
   86MOL0     C11222  11.289   2.058   4.075  0.1592 -0.0795  0.1259
   86MOL0     O11223  11.335   2.091   4.198  0.5368 -0.5865  0.1533
   86MOL0     C11224  11.391   2.214   4.191  1.0260 -0.3938 -0.5285
   86MOL0     C11225  11.313   2.332   4.228  0.7966 -0.3420  0.0326
   86MOL0     C11226  11.379   2.456   4.244  0.5807  1.1441  1.1407
   86MOL0     C11227  11.515   2.464   4.226 -0.5619 -0.8283 -0.1356
   86MOL0     O11228  11.567   2.591   4.234 -0.0811 -0.3735 -0.3302
   86MOL0     C11229  11.702   2.631   4.208 -0.4718  0.3941  0.5466
   86MOL0     C11230  11.729   2.777   4.249  0.4978 -0.3414  0.1067
   86MOL0     C11231  11.755   2.804   4.403  0.1111  0.6461  0.4337
   86MOL0     C11232  11.803   2.948   4.437  0.1436  0.3743  0.1127
   86MOL0     C11233  11.790   2.970   4.589  0.1080 -0.5459 -0.3677
   86MOL0     C11234  11.819   3.108   4.637  0.5237 -0.9638 -0.3220
   86MOL0     C11235  11.835   3.115   4.793  0.1696  0.2508 -0.3340
   86MOL0     C11236  11.824   3.260   4.856  0.2384  1.0518 -0.0735
   86MOL0     N11237  11.839   3.258   4.999 -0.9662 -0.0788  0.3619
   86MOL0     C11238  11.740   3.241   5.092 -0.6938  0.5213  1.0803
   86MOL0     C11239  11.804   3.260   5.216 -0.1180  0.0285  0.6631
   86MOL0     C11240  11.739   3.247   5.343 -0.0848 -0.3455 -0.2088
   86MOL0     C11241  11.718   3.376   5.409  0.5706  0.9687  1.0716
   86MOL0     C11242  11.649   3.344   5.548 -0.7429 -0.6705  0.0212
   86MOL0     C11243  11.502   3.283   5.543 -0.3002  0.3718 -0.0294
   86MOL0     O11244  11.408   3.388   5.544 -0.0791  0.3310  0.0956
   86MOL0     C11245  11.274   3.342   5.546 -0.9386 -0.1775 -0.4629
   86MOL0     C11246  11.222   3.212   5.556  0.4033  0.7819  0.4090
   86MOL0     C11247  11.083   3.174   5.561 -0.4790  0.0326 -0.1581
   86MOL0     C11248  10.995   3.272   5.555 -0.2674  0.1494  0.1212
   86MOL0     C11249  10.852   3.225   5.537 -0.9527 -0.1869 -0.2156
   86MOL0     O11250  10.782   3.320   5.474  0.4020  0.5135  0.1567
   86MOL0     C11251  10.647   3.311   5.449  0.4592 -0.5468  0.5706
   86MOL0     C11252  10.601   3.428   5.384  0.9435 -0.2890 -0.4213
   86MOL0     C11253  10.468   3.442   5.351 -0.5730 -0.5954 -0.4692
   86MOL0     C11254  10.367   3.349   5.384 -0.5979  0.0116  0.3876
   86MOL0     O11255  10.234   3.367   5.367  0.0235  0.2699  0.2958
   86MOL0     C11256  10.179   3.468   5.288  0.9825  0.0376  0.3401
   86MOL0     C11257  10.042   3.403   5.257  0.8872  0.0792  0.4094
   86MOL0     C11258   9.944   3.399   5.382 -0.2335 -0.4786  1.3011
   86MOL0     C11259   9.830   3.300   5.354  0.1938  0.5375  0.0061
   86MOL0     C11260   9.746   3.286   5.481  0.5754 -0.1648 -0.3288
   86MOL0     C11261   9.603   3.215   5.452 -0.1876  0.5878 -0.0103
   86MOL0     C11262   9.517   3.196   5.582 -0.2878  0.2614  0.3928
   86MOL0     C11263   9.368   3.165   5.552 -0.1160  0.0058 -0.6145
   86MOL0    Cl11264   9.339   3.020   5.456  0.1791 -0.4087  0.0263
   86MOL0     C11265  10.413   3.233   5.459 -0.0341  0.3425 -0.5343
   86MOL0     C11266  10.543   3.218   5.493  0.8735  0.3564  1.0743
   86MOL0     O11267  10.817   3.122   5.581 -0.3813 -0.1240 -0.2725
   86MOL0     C11268  11.033   3.408   5.544 -0.3089 -0.3972  0.9944
   86MOL0     C11269  11.170   3.433   5.536 -1.4329  0.4697 -0.7726
   86MOL0     N11270  11.937   3.281   5.187 -0.2070 -0.2918  0.7851
   86MOL0     N11271  11.958   3.280   5.055  0.6705 -1.2146  0.6639
   86MOL0     C11272  11.589   2.355   4.186  0.4792 -0.4827  0.1795
   86MOL0     C11273  11.526   2.235   4.183  0.4897 -0.4432  0.2554
   86MOL0     C11274  11.172   1.967   4.070 -0.0193 -0.4211 -0.3311
   86MOL0     C11275  11.059   1.980   3.975 -1.3388 -0.3779  0.5345
   86MOL0     C11276  10.961   1.887   3.979  0.0204 -0.0560  0.5665
   86MOL0     C11277  10.962   1.777   4.062  0.0070  0.1061  0.1757
   86MOL0     O11278  10.858   1.693   4.041 -0.2715  1.3094 -0.1379
   86MOL0     C11279  10.817   1.588   4.130  0.4097 -0.3147  0.1655
   86MOL0     C11280  10.724   1.488   4.067  0.8256  0.3156  0.0409
   86MOL0     C11281  10.668   1.384   4.164  0.0732 -0.3822  0.1623
   86MOL0     C11282  10.569   1.274   4.112  0.2832  0.0323  0.4467
   86MOL0     C11283  10.437   1.332   4.070 -0.3408  0.9261  1.0658
   86MOL0     C11284  10.328   1.381   4.036  0.1270  0.2983  0.6815
   86MOL0     C11285  11.054   1.764   4.164  0.2443 -1.4863 -0.3443
   86MOL0     C11286  11.163   1.853   4.165  0.4284 -0.1060  0.0086
   86MOL0     H11287  11.205   2.329   4.233  0.8132 -0.8081  0.0918
   86MOL0     H11288  11.321   2.543   4.274 -2.0906 -0.1738  0.1402
   86MOL0     H11289  11.717   2.631   4.100  2.9518  0.3318  0.9234
   86MOL0     H11290  11.768   2.556   4.252 -0.0384 -0.8677 -2.0822
   86MOL0     H11291  11.650   2.840   4.207  0.1158 -0.7673  0.1785
   86MOL0     H11292  11.822   2.790   4.192  0.0549 -0.3807 -0.6386
   86MOL0     H11293  11.817   2.724   4.445 -1.4075 -0.3107  0.8974
   86MOL0     H11294  11.655   2.788   4.442 -0.2781  0.8290 -0.4627
   86MOL0     H11295  11.908   2.954   4.407  0.0187 -1.4715 -0.8183
   86MOL0     H11296  11.742   3.016   4.377  0.5141  0.9047  0.3317
   86MOL0     H11297  11.869   2.908   4.633  1.1492 -0.2180 -1.7110
   86MOL0     H11298  11.688   2.940   4.615 -0.9665  1.3927 -2.1120
   86MOL0     H11299  11.740   3.179   4.612  1.5087  0.2306 -0.1470
   86MOL0     H11300  11.911   3.136   4.585  0.4392  1.3921  0.6954
   86MOL0     H11301  11.754   3.052   4.831  0.8496 -0.0795  0.6094
   86MOL0     H11302  11.930   3.065   4.813  0.3598  0.1657 -1.4006
   86MOL0     H11303  11.719   3.279   4.831  0.2082 -0.0592 -0.8893
   86MOL0     H11304  11.897   3.323   4.806  2.7467 -0.1059  1.8859
   86MOL0     H11305  11.636   3.231   5.063  0.1271 -4.2227 -1.2447
   86MOL0     H11306  11.797   3.182   5.409  0.0189  0.1144  0.1605
   86MOL0     H11307  11.653   3.182   5.332 -0.4047 -0.4032  2.0782
   86MOL0     H11308  11.669   3.445   5.339  0.8586 -1.5052 -1.7674
   86MOL0     H11309  11.812   3.423   5.439  1.3217 -0.3903  0.9373
   86MOL0     H11310  11.720   3.282   5.603 -0.4611 -1.8305 -1.5626
   86MOL0     H11311  11.635   3.434   5.607  1.0997 -0.9902  1.0078
   86MOL0     H11312  11.498   3.220   5.632 -1.3367  1.1359  0.4825
   86MOL0     H11313  11.486   3.224   5.452 -0.5597  0.5172 -0.0753
   86MOL0     H11314  11.289   3.131   5.584  0.7817  0.4074 -1.4735
   86MOL0     H11315  11.054   3.069   5.566  0.7341 -0.2356  2.9520
   86MOL0     H11316  10.661   3.516   5.367 -2.3982  1.7772 -2.8045
   86MOL0     H11317  10.439   3.533   5.298 -1.4590 -0.3957  0.3480
   86MOL0     H11318  10.235   3.481   5.196 -0.6423  0.0288 -0.6933
   86MOL0     H11319  10.172   3.569   5.330 -0.3424  1.3082 -2.6320
   86MOL0     H11320  10.057   3.309   5.204 -0.2657 -0.1464  0.4765
   86MOL0     H11321   9.993   3.466   5.182  1.4479  0.1667  0.1099
   86MOL0     H11322   9.905   3.495   5.417 -0.9406 -0.6449  0.9979
   86MOL0     H11323   9.991   3.352   5.469 -1.5574  1.0678  2.9435
   86MOL0     H11324   9.774   3.351   5.276 -1.1820 -1.6473 -0.5268
   86MOL0     H11325   9.866   3.205   5.313  2.5845  2.0018 -1.5271
   86MOL0     H11326   9.728   3.387   5.517 -1.3148 -0.6985  0.3292
   86MOL0     H11327   9.798   3.229   5.559  0.2251  0.2685  0.2316
   86MOL0     H11328   9.618   3.114   5.413 -0.9172 -1.0068  3.4209
   86MOL0     H11329   9.554   3.282   5.381  0.8489  0.8049 -0.5295
   86MOL0     H11330   9.555   3.109   5.636 -2.9875 -1.9681 -1.0773
   86MOL0     H11331   9.530   3.288   5.639 -0.0689  1.4597 -1.5030
   86MOL0     H11332   9.335   3.242   5.482 -2.7625  0.2942  0.8383
   86MOL0     H11333   9.314   3.161   5.647 -2.9084  1.7430 -1.9788
   86MOL0     H11334  10.340   3.159   5.491 -0.1739 -0.0790 -1.7812
   86MOL0     H11335  10.565   3.131   5.554 -0.9490 -0.0145  1.2371
   86MOL0     H11336  10.980   3.503   5.542  3.0003  1.6125 -2.3631
   86MOL0     H11337  11.201   3.537   5.540  0.5812 -0.0737 -0.8218
   86MOL0     H11338  11.689   2.370   4.147 -0.6950  4.6493 -1.6836
   86MOL0     H11339  11.586   2.153   4.144  0.9317 -0.9428  1.9208
   86MOL0     H11340  11.063   2.060   3.902  0.7447 -2.8171 -2.2548
   86MOL0     H11341  10.883   1.885   3.903  1.5000 -0.9098 -1.0197
   86MOL0     H11342  10.761   1.630   4.214 -0.3042 -0.5464 -0.1875
   86MOL0     H11343  10.908   1.544   4.172  2.1027  3.2236  0.6561
   86MOL0     H11344  10.633   1.534   4.028 -0.4253 -3.8051 -2.6297
   86MOL0     H11345  10.775   1.437   3.985 -0.0065  2.0622 -1.6534
   86MOL0     H11346  10.620   1.437   4.247  0.1507  2.7582 -1.6122
   86MOL0     H11347  10.758   1.333   4.198  0.4244 -0.1867 -0.4604
   86MOL0     H11348  10.627   1.233   4.028 -0.4122  0.0367 -0.0430
   86MOL0     H11349  10.556   1.195   4.187  0.8263 -1.0798 -0.5800
   86MOL0     H11350  10.231   1.422   4.015  1.5437  5.4456  2.6099
   86MOL0     H11351  11.047   1.679   4.230 -3.0306  2.1138  4.6569
   86MOL0     H11352  11.235   1.834   4.244 -1.3148 -3.2327  1.0033
   87MOL0     O11353   5.834   2.973   6.164  0.5513 -0.7945 -0.3327
   87MOL0     C11354   5.761   2.880   6.140 -0.1207  0.9194 -1.0150
   87MOL0     O11355   5.651   2.875   6.056  0.0608 -0.3439  0.0267
   87MOL0     C11356   5.605   2.990   5.992 -0.3342 -0.5117 -0.2332
   87MOL0     C11357   5.564   3.101   6.063  0.3553  0.2656  0.7187
   87MOL0     C11358   5.502   3.208   6.002 -0.8257 -1.0136  0.2806
   87MOL0     C11359   5.485   3.215   5.869 -0.0568 -0.4475  0.0031
   87MOL0     O11360   5.410   3.315   5.813 -0.1632  0.6069 -0.9911
   87MOL0     C11361   5.459   3.405   5.713 -0.1244  0.2167  0.4427
   87MOL0     C11362   5.362   3.521   5.717 -0.1413 -0.6669 -0.0178
   87MOL0     C11363   5.361   3.619   5.838  0.4575 -0.0604 -1.0188
   87MOL0     C11364   5.481   3.711   5.840  0.3272  0.3535 -0.1000
   87MOL0     C11365   5.452   3.819   5.962  0.4418 -0.3060  0.4331
   87MOL0     C11366   5.556   3.935   5.949  0.8241  0.2024 -0.2859
   87MOL0     C11367   5.520   4.045   6.051 -0.6605 -0.0505  0.1809
   87MOL0     C11368   5.401   4.127   5.995  0.6744 -0.1793  0.8062
   87MOL0     N11369   5.348   4.223   6.091 -0.1866  0.1557 -0.3612
   87MOL0     C11370   5.267   4.201   6.201 -0.1870 -0.2278  0.4058
   87MOL0     C11371   5.267   4.321   6.268  0.1990 -0.4556 -0.1840
   87MOL0     C11372   5.194   4.347   6.396 -0.3962  0.4088  0.7166
   87MOL0     C11373   5.054   4.420   6.378 -0.2081 -0.2840 -0.2751
   87MOL0     C11374   4.999   4.407   6.529 -0.3390 -0.1042  0.5657
   87MOL0     C11375   4.876   4.490   6.545  0.8417 -0.5041 -0.4783
   87MOL0     O11376   4.809   4.474   6.678 -0.6679 -0.5881 -0.5277
   87MOL0     C11377   4.700   4.552   6.716  0.3626  1.2774 -0.3219
   87MOL0     C11378   4.655   4.672   6.656  0.2713 -0.3822 -0.7688
   87MOL0     C11379   4.565   4.748   6.720 -0.4779 -0.9791  0.6524
   87MOL0     C11380   4.476   4.706   6.821 -0.7966  0.1809  0.7752
   87MOL0     C11381   4.358   4.789   6.860  0.2796  0.3768  0.0819
   87MOL0     O11382   4.356   4.913   6.804  0.5240 -0.1861 -0.7324
   87MOL0     C11383   4.286   5.012   6.872 -0.3247 -0.3171  0.7064
   87MOL0     C11384   4.176   5.072   6.812 -0.2593 -0.5713  0.5132
   87MOL0     C11385   4.095   5.162   6.886  0.3538  0.5417 -0.0155
   87MOL0     C11386   4.131   5.191   7.013  0.5042 -0.4130  0.0633
   87MOL0     O11387   4.065   5.281   7.093 -1.1585  0.6387  0.2245
   87MOL0     C11388   4.079   5.413   7.037  0.4877  0.3795 -0.7697
   87MOL0     C11389   3.993   5.515   7.106  1.0080 -0.4009  0.3631
   87MOL0     C11390   3.991   5.514   7.258 -1.1703  0.6330  0.7537
   87MOL0     C11391   4.113   5.532   7.348 -0.0161  0.8834  0.2404
   87MOL0     C11392   4.072   5.514   7.496  0.1531 -0.2477 -0.8132
   87MOL0     C11393   4.137   5.604   7.596  0.6489  0.9779 -0.1087
   87MOL0     C11394   4.086   5.755   7.586  0.3258 -0.0470  0.6497
   87MOL0     C11395   4.138   5.844   7.698  0.3137  0.8566 -0.5631
   87MOL0    Cl11396   4.315   5.834   7.738  0.5256 -0.1541  0.1975
   87MOL0     C11397   4.246   5.137   7.073  0.7633  0.0049  0.6892
   87MOL0     C11398   4.326   5.048   7.005 -0.2715  0.0430 -0.9633
   87MOL0     O11399   4.277   4.742   6.938 -0.3309 -0.3364  0.3390
   87MOL0     C11400   4.512   4.577   6.875 -0.0971 -0.6432 -0.5565
   87MOL0     C11401   4.627   4.502   6.826  0.0811 -0.1317 -0.7072
   87MOL0     N11402   5.332   4.415   6.192 -0.9925 -0.0515 -0.0671
   87MOL0     N11403   5.383   4.355   6.090 -0.2397  0.6566  0.0623
   87MOL0     C11404   5.546   3.120   5.784  0.2594 -0.3928  0.6813
   87MOL0     C11405   5.595   3.005   5.850  0.0081  0.4217 -0.3714
   87MOL0     C11406   5.786   2.745   6.206  0.1436  0.3652  0.4521
   87MOL0     C11407   5.756   2.641   6.127 -0.0429  0.8529  0.1129
   87MOL0     C11408   5.778   2.509   6.169 -0.1901 -0.8187  0.7159
   87MOL0     C11409   5.821   2.488   6.298  0.1285 -0.2571  0.1229
   87MOL0     O11410   5.816   2.370   6.362  0.3547  0.3420  0.0343
   87MOL0     C11411   5.932   2.325   6.418 -0.2804 -0.1107 -0.4177
   87MOL0     C11412   6.026   2.277   6.309 -1.0116  0.1574  0.9522
   87MOL0     C11413   6.157   2.203   6.356 -0.8898 -0.7650  0.5973
   87MOL0     C11414   6.158   2.058   6.355 -0.3086  0.0325  0.2809
   87MOL0     C11415   6.054   1.990   6.445 -0.0044 -0.3967  0.5525
   87MOL0     C11416   6.008   1.938   6.545  0.4992 -1.0648  0.3186
   87MOL0     C11417   5.852   2.596   6.381 -0.3620 -0.4346  0.3982
   87MOL0     C11418   5.825   2.722   6.335  0.3630 -0.6255  0.0363
   87MOL0     H11419   5.571   3.094   6.171  1.5284 -2.1992  0.5483
   87MOL0     H11420   5.465   3.292   6.059 -0.3219 -0.1548 -0.6294
   87MOL0     H11421   5.436   3.365   5.614 -2.0386  0.3673  0.7963
   87MOL0     H11422   5.560   3.441   5.732 -0.9223  1.4870  2.6928
   87MOL0     H11423   5.268   3.465   5.718 -0.8636  0.4632 -1.4970
   87MOL0     H11424   5.372   3.593   5.635 -0.6319 -2.1833 -1.4426
   87MOL0     H11425   5.354   3.578   5.939  0.1682  6.6951  2.2395
   87MOL0     H11426   5.266   3.670   5.823 -0.4001 -0.4347  2.4542
   87MOL0     H11427   5.580   3.666   5.851 -0.6357 -2.4840 -1.8743
   87MOL0     H11428   5.477   3.754   5.739  0.3665  0.8751  0.1181
   87MOL0     H11429   5.452   3.778   6.063  0.1102 -0.3767  0.4068
   87MOL0     H11430   5.354   3.864   5.943  0.6176  0.1248  0.5416
   87MOL0     H11431   5.552   3.979   5.849 -2.9982  0.5426 -0.1453
   87MOL0     H11432   5.655   3.890   5.944  0.0883 -1.5392  0.0735
   87MOL0     H11433   5.490   3.994   6.143 -0.3486 -3.9440 -1.6607
   87MOL0     H11434   5.603   4.114   6.067 -0.3648  0.1414 -1.8783
   87MOL0     H11435   5.327   4.050   5.972  1.5866 -1.4345  1.9272
   87MOL0     H11436   5.441   4.186   5.912  2.0719 -1.4361  0.5384
   87MOL0     H11437   5.203   4.115   6.217  0.2102 -1.6911 -4.2510
   87MOL0     H11438   5.257   4.403   6.465 -1.3672  0.9742  1.1651
   87MOL0     H11439   5.179   4.250   6.446 -1.8338 -0.0696 -0.5721
   87MOL0     H11440   4.992   4.374   6.301 -2.1085 -0.2632  1.1718
   87MOL0     H11441   5.076   4.525   6.357  0.0437 -0.0809  0.8987
   87MOL0     H11442   4.974   4.302   6.548 -0.9266 -0.0270  0.2471
   87MOL0     H11443   5.079   4.441   6.595  1.6501  0.1531 -1.8111
   87MOL0     H11444   4.800   4.462   6.472 -1.3655 -2.4959  2.3489
   87MOL0     H11445   4.895   4.596   6.528  0.8225 -0.6422 -1.4133
   87MOL0     H11446   4.700   4.708   6.563  2.4488 -1.8645 -0.3696
   87MOL0     H11447   4.547   4.843   6.671  1.3033 -0.8644  0.1485
   87MOL0     H11448   4.165   5.054   6.705  1.6871  0.6648  0.0484
   87MOL0     H11449   4.020   5.224   6.838 -2.5153 -1.7664  1.2004
   87MOL0     H11450   4.053   5.402   6.931 -1.2441 -2.7158 -0.1567
   87MOL0     H11451   4.184   5.440   7.040  0.4940  0.2748  0.1015
   87MOL0     H11452   3.893   5.513   7.062  1.3368 -1.2121 -0.3743
   87MOL0     H11453   4.027   5.612   7.068  0.5024 -0.2577  0.2602
   87MOL0     H11454   3.956   5.416   7.291  1.4178 -0.2486  1.1220
   87MOL0     H11455   3.917   5.589   7.288 -1.4144 -0.6520  3.6695
   87MOL0     H11456   4.188   5.461   7.312 -2.0495 -0.6327 -1.2202
   87MOL0     H11457   4.142   5.634   7.321 -0.6889  1.0352  0.0819
   87MOL0     H11458   4.083   5.408   7.519 -3.1429 -0.7637 -1.2246
   87MOL0     H11459   3.965   5.536   7.503  0.4788  0.9436  1.3262
   87MOL0     H11460   4.247   5.603   7.602  0.5880 -0.3242  1.3830
   87MOL0     H11461   4.112   5.564   7.694  3.8629 -2.5122 -0.4588
   87MOL0     H11462   4.111   5.804   7.491 -0.4586  0.2897  0.6064
   87MOL0     H11463   3.979   5.774   7.576  0.7467  1.3659 -2.0902
   87MOL0     H11464   4.092   5.801   7.787  1.8104 -3.4367 -1.6185
   87MOL0     H11465   4.100   5.945   7.680  0.0291  0.7944 -0.3185
   87MOL0     H11466   4.286   5.179   7.165  1.3663  2.3720 -0.5680
   87MOL0     H11467   4.410   5.014   7.064 -1.1196  2.3256  1.7436
   87MOL0     H11468   4.438   4.535   6.943 -0.2869  0.1315 -0.2730
   87MOL0     H11469   4.670   4.418   6.880  1.5950  0.4446 -0.9905
   87MOL0     H11470   5.545   3.136   5.677  0.3674  0.9062  0.8527
   87MOL0     H11471   5.641   2.925   5.793  1.5464 -0.0506  1.4076
   87MOL0     H11472   5.723   2.659   6.025  1.8266 -0.1654 -0.7063
   87MOL0     H11473   5.759   2.419   6.110 -0.2311 -0.1430 -0.3252
   87MOL0     H11474   5.902   2.238   6.477 -0.5199  0.0476 -0.3014
   87MOL0     H11475   5.990   2.392   6.482 -0.4332 -0.0315 -0.3592
   87MOL0     H11476   5.973   2.215   6.236  0.0193  0.3331  0.0262
   87MOL0     H11477   6.062   2.369   6.261 -0.9528  0.3044  1.2724
   87MOL0     H11478   6.191   2.228   6.457 -0.9194 -0.2890  0.4939
   87MOL0     H11479   6.235   2.227   6.283 -2.1036  1.9581  0.0924
   87MOL0     H11480   6.155   2.007   6.258 -3.0477 -0.1096  0.3648
   87MOL0     H11481   6.255   2.041   6.402  0.7334 -0.8794 -2.0478
   87MOL0     H11482   5.968   1.876   6.623  2.3510 -2.3755  0.2814
   87MOL0     H11483   5.885   2.585   6.484  2.0507  2.9798  0.1576
   87MOL0     H11484   5.829   2.800   6.410 -1.5603 -0.2490 -0.1813
   88MOL0     O11485   5.628   6.382   0.093  0.3154  0.5798 -0.1133
   88MOL0     C11486   5.521   6.342   0.152 -0.7183  0.3254  1.1468
   88MOL0     O11487   5.430   6.238   0.112  0.3689  0.0524  0.4473
   88MOL0     C11488   5.422   6.204  -0.026 -0.1367 -0.2519 -0.8652
   88MOL0     C11489   5.337   6.101  -0.053  0.1640  0.1003  0.1128
   88MOL0     C11490   5.318   6.057  -0.183  0.1991 -0.2574  0.3448
   88MOL0     C11491   5.372   6.124  -0.296  0.0131 -0.0562  0.3091
   88MOL0     O11492   5.329   6.071  -0.421 -1.0382  0.0239  0.4836
   88MOL0     C11493   5.434   6.045  -0.515 -0.1269 -0.3229 -0.4713
   88MOL0     C11494   5.540   5.942  -0.469  0.3341 -0.1966  0.8267
   88MOL0     C11495   5.471   5.808  -0.456  1.0555  0.0928 -0.6569
   88MOL0     C11496   5.463   5.727  -0.323 -0.0054 -0.3494 -0.0934
   88MOL0     C11497   5.408   5.581  -0.329 -0.6856  2.0041 -0.0422
   88MOL0     C11498   5.374   5.513  -0.199  0.4204 -0.0508 -0.0868
   88MOL0     C11499   5.303   5.375  -0.220 -0.6680 -1.0632 -0.7782
   88MOL0     C11500   5.209   5.357  -0.099 -0.4645  0.5627  0.5626
   88MOL0     N11501   5.288   5.319   0.018  1.0713 -0.7495 -0.7595
   88MOL0     C11502   5.267   5.201   0.088  0.3994 -0.4833 -0.9395
   88MOL0     C11503   5.336   5.222   0.207 -0.1905 -0.6261  0.8123
   88MOL0     C11504   5.363   5.141   0.328 -0.3865 -0.2249  1.3281
   88MOL0     C11505   5.462   5.028   0.308  0.0824  0.1684  0.0038
   88MOL0     C11506   5.544   5.002   0.437  0.0877 -0.3685  0.4488
   88MOL0     C11507   5.638   5.130   0.476 -0.2311  0.6636 -0.0539
   88MOL0     O11508   5.559   5.208   0.567  1.2857 -0.3302 -0.1614
   88MOL0     C11509   5.609   5.333   0.589  0.6529  0.3656  0.2732
   88MOL0     C11510   5.556   5.440   0.518 -0.8580 -0.7009  0.0013
   88MOL0     C11511   5.615   5.563   0.537  0.0992 -0.0773  0.4430
   88MOL0     C11512   5.712   5.588   0.637 -0.2405 -0.2080 -0.4536
   88MOL0     C11513   5.779   5.728   0.645 -0.2568  0.0523  0.4166
   88MOL0     O11514   5.770   5.807   0.537  0.3955 -0.2569  0.2239
   88MOL0     C11515   5.827   5.932   0.534  0.2776 -0.1248 -0.0958
   88MOL0     C11516   5.934   5.982   0.604 -0.0994 -0.3331  0.1645
   88MOL0     C11517   5.981   6.116   0.574  0.5566 -0.8715 -0.6433
   88MOL0     C11518   5.911   6.205   0.496  0.3315  0.5647 -0.4422
   88MOL0     O11519   5.958   6.329   0.471  0.5950 -0.6283 -0.1104
   88MOL0     C11520   5.870   6.421   0.540 -0.5051 -0.1780 -0.7698
   88MOL0     C11521   5.952   6.539   0.594 -0.2496  0.2523  0.8201
   88MOL0     C11522   5.983   6.643   0.494 -0.5063 -0.4023  0.2056
   88MOL0     C11523   5.873   6.745   0.474 -0.2397  0.5873 -0.2907
   88MOL0     C11524   5.927   6.882   0.416  0.4358  0.5271  0.6040
   88MOL0     C11525   5.803   6.978   0.399  0.3319  0.1522 -0.6596
   88MOL0     C11526   5.711   6.938   0.276  0.0203 -0.7556 -0.7643
   88MOL0     C11527   5.603   7.052   0.246 -0.1396 -0.2202 -0.2838
   88MOL0    Cl11528   5.473   7.034   0.370 -0.1204  0.2744  0.3240
   88MOL0     C11529   5.799   6.156   0.425 -0.9177  0.4407  0.7305
   88MOL0     C11530   5.758   6.024   0.440  0.1927  0.6093 -0.6664
   88MOL0     O11531   5.826   5.763   0.751  0.8137 -0.4250 -0.8188
   88MOL0     C11532   5.764   5.476   0.715 -0.7018 -0.7025  1.3160
   88MOL0     C11533   5.706   5.354   0.692 -0.2959  0.1525  0.0992
   88MOL0     N11534   5.403   5.345   0.210 -0.5956  0.2613  0.4756
   88MOL0     N11535   5.379   5.394   0.088 -0.4469  0.2376 -0.3129
   88MOL0     C11536   5.460   6.227  -0.281 -0.2121 -0.2252 -0.5760
   88MOL0     C11537   5.474   6.276  -0.143 -0.2727  1.3206 -0.4245
   88MOL0     C11538   5.490   6.421   0.274  0.5393  0.4261 -0.2205
   88MOL0     C11539   5.373   6.392   0.343 -0.3441  0.1611  0.1367
   88MOL0     C11540   5.334   6.474   0.447 -0.2258  0.6238  0.8867
   88MOL0     C11541   5.427   6.553   0.509 -0.4299  0.7416  0.4821
   88MOL0     O11542   5.388   6.617   0.622  0.6248 -0.4440 -0.6959
   88MOL0     C11543   5.468   6.713   0.697  0.2026 -0.9044 -0.5573
   88MOL0     C11544   5.398   6.760   0.827  0.2964  0.2651 -0.5534
   88MOL0     C11545   5.356   6.635   0.913  0.1246  0.1294  0.7885
   88MOL0     C11546   5.351   6.673   1.059  0.3382 -0.0915 -0.1251
   88MOL0     C11547   5.244   6.770   1.091  0.9270  0.9904  0.1819
   88MOL0     C11548   5.157   6.848   1.114 -0.1151  0.1587  0.3261
   88MOL0     C11549   5.548   6.567   0.442  0.2199  0.1071 -0.9805
   88MOL0     C11550   5.581   6.505   0.330  0.2748 -0.0357 -0.3533
   88MOL0     H11551   5.289   6.047   0.028  0.5146 -1.3585 -0.6230
   88MOL0     H11552   5.244   5.978  -0.196 -0.4683  0.2288  1.0847
   88MOL0     H11553   5.483   6.140  -0.541 -2.8571  1.8140  1.5547
   88MOL0     H11554   5.387   5.999  -0.603  0.5728 -2.4054  0.2130
   88MOL0     H11555   5.598   5.970  -0.380  0.1974 -0.6702  1.0651
   88MOL0     H11556   5.607   5.935  -0.555  3.6442 -1.0839  3.2276
   88MOL0     H11557   5.529   5.748  -0.528  1.8605  0.9848 -0.7688
   88MOL0     H11558   5.364   5.810  -0.479  0.6948  3.0720  0.8004
   88MOL0     H11559   5.568   5.715  -0.295 -0.4705 -0.8092  1.5696
   88MOL0     H11560   5.411   5.785  -0.247  0.6478 -0.7887  0.7171
   88MOL0     H11561   5.483   5.514  -0.373 -1.1280  0.0863  1.9975
   88MOL0     H11562   5.321   5.567  -0.393 -0.2654 -2.3171  0.0564
   88MOL0     H11563   5.318   5.580  -0.132  0.8071  0.2443 -0.0539
   88MOL0     H11564   5.459   5.490  -0.134 -4.0617 -4.6087  5.2324
   88MOL0     H11565   5.232   5.375  -0.304 -2.5941  0.7203  0.7334
   88MOL0     H11566   5.376   5.294  -0.226 -1.2457 -2.0071  2.6953
   88MOL0     H11567   5.123   5.293  -0.116 -0.2007  0.2980  0.2083
   88MOL0     H11568   5.151   5.447  -0.076 -2.8463 -0.9095  0.5449
   88MOL0     H11569   5.220   5.110   0.052 -1.7633  1.0022 -2.1568
   88MOL0     H11570   5.269   5.090   0.354 -1.5483  0.2480 -1.5864
   88MOL0     H11571   5.404   5.205   0.406 -0.1436 -0.4748  1.4098
   88MOL0     H11572   5.526   5.071   0.230  2.1507  1.6884  2.4161
   88MOL0     H11573   5.404   4.939   0.282 -1.0941  0.8312  0.3268
   88MOL0     H11574   5.472   4.989   0.519 -0.2545  0.5360  0.3050
   88MOL0     H11575   5.602   4.910   0.426 -0.0921 -0.4170 -0.1055
   88MOL0     H11576   5.666   5.191   0.390 -0.2769 -1.0861 -1.3739
   88MOL0     H11577   5.735   5.100   0.518 -0.3063  1.1508  0.4839
   88MOL0     H11578   5.478   5.424   0.444 -1.3204 -1.2276  0.5939
   88MOL0     H11579   5.576   5.651   0.486 -2.6094 -1.0309  0.7057
   88MOL0     H11580   5.979   5.910   0.670 -0.2660  1.0759  1.8861
   88MOL0     H11581   6.072   6.150   0.623  0.8473  2.1217 -2.9933
   88MOL0     H11582   5.828   6.393   0.637  2.9912  2.8071  1.8783
   88MOL0     H11583   5.802   6.448   0.458 -2.2804 -1.6785  0.1562
   88MOL0     H11584   6.041   6.504   0.646  0.6020  3.1327  1.4854
   88MOL0     H11585   5.893   6.577   0.677 -2.3884 -0.5424 -0.2498
   88MOL0     H11586   5.995   6.597   0.396 -2.1929  2.3084 -1.3952
   88MOL0     H11587   6.074   6.694   0.527 -1.4785  0.7824  1.1494
   88MOL0     H11588   5.796   6.707   0.406  0.1674  1.2552 -1.1510
   88MOL0     H11589   5.813   6.768   0.563  0.5429 -0.5186  0.5364
   88MOL0     H11590   5.979   6.853   0.324 -3.0373 -0.7537 -1.1116
   88MOL0     H11591   5.991   6.936   0.487 -1.9656  3.3350  0.8270
   88MOL0     H11592   5.841   7.070   0.355  1.2112 -1.2214 -2.9771
   88MOL0     H11593   5.749   6.991   0.493  0.7352  2.5327 -0.7037
   88MOL0     H11594   5.779   6.930   0.191  2.2471  5.3115 -0.0045
   88MOL0     H11595   5.650   6.851   0.303 -2.5531  2.0980  3.9140
   88MOL0     H11596   5.552   7.032   0.151 -1.2755  0.8097  0.0814
   88MOL0     H11597   5.642   7.153   0.237  2.3232 -0.8799  1.8131
   88MOL0     H11598   5.733   6.217   0.364 -0.6480  1.7709  1.7191
   88MOL0     H11599   5.662   5.997   0.397 -1.4102  2.4029  1.5410
   88MOL0     H11600   5.856   5.485   0.771 -0.7221 -4.0458  2.0805
   88MOL0     H11601   5.760   5.279   0.748 -2.2622 -0.3647  1.4011
   88MOL0     H11602   5.500   6.287  -0.362  0.8051 -0.3966 -0.2156
   88MOL0     H11603   5.529   6.368  -0.125  1.7059  0.5251 -2.0276
   88MOL0     H11604   5.306   6.315   0.306  2.1413 -0.7927 -2.8571
   88MOL0     H11605   5.238   6.446   0.490  0.3350  1.8319  3.0959
   88MOL0     H11606   5.491   6.803   0.639  0.5110 -1.2572 -0.9844
   88MOL0     H11607   5.564   6.671   0.726  1.1562  0.3657 -1.7100
   88MOL0     H11608   5.455   6.827   0.893  0.7645 -2.2649  1.8240
   88MOL0     H11609   5.308   6.815   0.798 -2.0277 -2.0412  1.7518
   88MOL0     H11610   5.432   6.557   0.902  1.4169  1.3361  0.8979
   88MOL0     H11611   5.259   6.599   0.877 -0.8364  0.3615  3.0093
   88MOL0     H11612   5.335   6.581   1.116 -0.7601  1.7101  2.6888
   88MOL0     H11613   5.442   6.729   1.085  1.1031 -2.2585  2.4013
   88MOL0     H11614   5.080   6.916   1.145  0.6330  0.7153  1.0302
   88MOL0     H11615   5.624   6.623   0.495 -0.8077  1.5548 -0.9691
   88MOL0     H11616   5.673   6.540   0.284  1.3768 -2.9181 -0.5568
   89MOL0     O11617   0.005   6.121   4.479 -0.2573 -0.4331  1.1166
   89MOL0     C11618   0.018   6.010   4.424 -1.0137  0.7760 -0.3140
   89MOL0     O11619   0.028   5.887   4.495 -0.0673 -0.9339  0.2056
   89MOL0     C11620  -0.040   5.874   4.611 -0.0500  0.2549  0.0571
   89MOL0     C11621  -0.154   5.948   4.641 -0.0648 -0.4526  0.6814
   89MOL0     C11622  -0.205   5.935   4.770  0.1929 -0.1256 -0.1840
   89MOL0     C11623  -0.143   5.853   4.868 -0.5945 -0.5025  0.1199
   89MOL0     O11624  -0.192   5.851   5.001 -0.1914 -0.1682  1.2091
   89MOL0     C11625  -0.164   5.745   5.088  0.2190  0.3163 -0.1974
   89MOL0     C11626  -0.258   5.748   5.211  0.4499  0.3788  0.0635
   89MOL0     C11627  -0.248   5.878   5.291  0.0780 -0.4068  0.9308
   89MOL0     C11628  -0.381   5.923   5.362 -1.3846 -0.7451 -0.3843
   89MOL0     C11629  -0.436   6.071   5.338 -0.0206  0.9399  0.1937
   89MOL0     C11630  -0.585   6.096   5.364  0.8451 -0.0347 -0.0517
   89MOL0     C11631  -0.625   6.241   5.317 -0.1181 -0.0288  0.6289
   89MOL0     C11632  -0.773   6.274   5.321  0.9543 -0.1832 -1.2337
   89MOL0     N11633  -0.818   6.398   5.246  0.5290 -0.2455 -0.5293
   89MOL0     C11634  -0.745   6.470   5.156  0.0928 -0.3364  0.9734
   89MOL0     C11635  -0.825   6.572   5.118  0.8390 -0.5002 -0.7888
   89MOL0     C11636  -0.793   6.693   5.032 -0.5553 -0.0360  0.2111
   89MOL0     C11637  -0.900   6.730   4.931  0.7025  0.7721 -0.4046
   89MOL0     C11638  -0.957   6.603   4.860 -0.2785  0.7938 -0.5827
   89MOL0     C11639  -1.096   6.621   4.817  0.4611 -0.1073 -0.4990
   89MOL0     O11640  -1.130   6.532   4.706 -0.4564 -0.5797 -0.2853
   89MOL0     C11641  -1.240   6.568   4.632 -0.5359 -0.7753  0.1698
   89MOL0     C11642  -1.345   6.646   4.679  0.2644 -0.1569 -0.4726
   89MOL0     C11643  -1.427   6.714   4.597  0.8525  0.2335 -0.1093
   89MOL0     C11644  -1.420   6.705   4.457 -1.3009  0.1609 -0.4471
   89MOL0     C11645  -1.509   6.785   4.367 -0.0506  1.6917  0.2788
   89MOL0     O11646  -1.635   6.786   4.407  0.4738  0.1984  0.9243
   89MOL0     C11647  -1.736   6.853   4.333  0.1114 -0.5795  0.0965
   89MOL0     C11648  -1.872   6.837   4.379 -0.3479  0.4281 -0.2363
   89MOL0     C11649  -1.982   6.893   4.327  0.2650 -0.2376  1.0708
   89MOL0     C11650  -1.969   6.989   4.225  0.3422 -0.7621  0.4434
   89MOL0     O11651  -2.069   7.060   4.166  0.6558 -0.6031 -0.3951
   89MOL0     C11652  -2.196   6.998   4.137 -1.2546  0.9727 -1.8104
   89MOL0     C11653  -2.170   6.897   4.033  0.1173 -0.3553 -0.3562
   89MOL0     C11654  -2.299   6.872   3.963  0.1464  0.1574  1.0326
   89MOL0     C11655  -2.292   6.781   3.839 -0.7516 -0.8825 -0.2341
   89MOL0     C11656  -2.414   6.776   3.762  0.9058  0.0794  0.4545
   89MOL0     C11657  -2.413   6.677   3.644  1.0313 -0.4975 -0.2362
   89MOL0     C11658  -2.513   6.557   3.675 -0.4833  0.2216 -0.0761
   89MOL0     C11659  -2.667   6.591   3.672 -0.2648 -0.3728  0.2255
   89MOL0    Cl11660  -2.712   6.650   3.504 -0.3859 -0.0224 -0.0317
   89MOL0     C11661  -1.841   7.006   4.175 -0.5052  0.7071  0.7577
   89MOL0     C11662  -1.725   6.953   4.234  0.1463 -0.6446 -1.0232
   89MOL0     O11663  -1.460   6.824   4.259 -0.5671 -0.3978 -0.6718
   89MOL0     C11664  -1.323   6.620   4.399  0.3381  0.5360  0.1098
   89MOL0     C11665  -1.236   6.558   4.489 -0.1786 -0.0261 -0.1675
   89MOL0     N11666  -0.951   6.554   5.182 -0.1146  0.3664 -0.6233
   89MOL0     N11667  -0.945   6.445   5.249 -0.0864  0.0139 -0.3909
   89MOL0     C11668  -0.026   5.789   4.838 -0.4134  0.0417  0.5679
   89MOL0     C11669   0.023   5.791   4.704  0.4568  0.5955 -0.6291
   89MOL0     C11670   0.091   6.010   4.290  0.0093  1.3692  0.7146
   89MOL0     C11671   0.159   6.121   4.244 -0.4079 -0.2293 -0.1353
   89MOL0     C11672   0.210   6.123   4.124 -0.0704 -0.0801  1.3177
   89MOL0     C11673   0.184   6.024   4.033 -1.0756 -0.0993  0.9488
   89MOL0     O11674   0.226   6.048   3.906 -0.1549  0.6652 -0.6960
   89MOL0     C11675   0.334   5.973   3.870 -0.5479  0.3916 -0.1336
   89MOL0     C11676   0.391   6.025   3.739 -0.0242  0.3397 -0.1650
   89MOL0     C11677   0.487   6.150   3.748  0.1697 -0.4240  0.3618
   89MOL0     C11678   0.523   6.222   3.614 -0.7608  0.1312 -0.0283
   89MOL0     C11679   0.406   6.294   3.565 -0.2813  0.4217 -0.4067
   89MOL0     C11680   0.294   6.333   3.535 -0.6932  0.0134  0.3987
   89MOL0     C11681   0.119   5.903   4.074 -0.7578 -0.5715 -1.2142
   89MOL0     C11682   0.074   5.897   4.204 -0.5343 -0.4543 -0.9816
   89MOL0     H11683  -0.212   6.011   4.573 -2.1641 -2.0645  0.8682
   89MOL0     H11684  -0.285   5.989   4.819  1.4763  0.5645  1.2574
   89MOL0     H11685  -0.060   5.768   5.109 -0.3258  1.3324  1.5962
   89MOL0     H11686  -0.171   5.648   5.039 -1.5583 -0.4725  1.4336
   89MOL0     H11687  -0.233   5.661   5.272  0.8568  0.0666 -0.5324
   89MOL0     H11688  -0.361   5.732   5.177  0.2917  3.6057 -1.3187
   89MOL0     H11689  -0.234   5.947   5.207 -1.3074 -1.3470 -0.1366
   89MOL0     H11690  -0.157   5.883   5.351  0.2738  1.4964  0.5565
   89MOL0     H11691  -0.463   5.853   5.343 -2.6024 -0.2930  2.7093
   89MOL0     H11692  -0.369   5.899   5.468 -1.6705 -2.2912 -0.6758
   89MOL0     H11693  -0.421   6.080   5.229 -2.0067  0.0322 -0.1975
   89MOL0     H11694  -0.371   6.141   5.391  3.3583 -0.9169 -1.1627
   89MOL0     H11695  -0.619   6.082   5.468  0.0771 -2.7371 -0.5903
   89MOL0     H11696  -0.635   6.022   5.302 -1.2128  1.7398 -0.6382
   89MOL0     H11697  -0.574   6.314   5.380 -1.4743  2.0549 -0.5673
   89MOL0     H11698  -0.592   6.236   5.213 -1.5994 -0.0591  0.1298
   89MOL0     H11699  -0.794   6.296   5.426  1.5593 -2.8046 -0.4729
   89MOL0     H11700  -0.836   6.192   5.287  1.1773  0.1684 -2.5576
   89MOL0     H11701  -0.641   6.458   5.126 -0.0221 -0.4330  0.6037
   89MOL0     H11702  -0.706   6.652   4.980 -1.0633  0.6904 -1.2451
   89MOL0     H11703  -0.773   6.783   5.093 -3.3670  1.1921 -0.5513
   89MOL0     H11704  -0.876   6.797   4.847  1.2329  2.1337  0.7865
   89MOL0     H11705  -0.977   6.791   4.980 -0.9689 -0.9487 -0.7496
   89MOL0     H11706  -0.879   6.598   4.783  1.7553  1.1816  1.3420
   89MOL0     H11707  -0.948   6.508   4.913  2.3670 -0.3096 -2.7811
   89MOL0     H11708  -1.122   6.722   4.785 -0.8286 -0.1996  0.1495
   89MOL0     H11709  -1.165   6.600   4.900 -0.2189  2.5821 -0.2913
   89MOL0     H11710  -1.351   6.655   4.787  1.1620 -0.2813 -0.4029
   89MOL0     H11711  -1.512   6.769   4.635  2.5490  2.3049  0.9411
   89MOL0     H11712  -1.894   6.759   4.452 -1.9094 -0.7386 -1.8889
   89MOL0     H11713  -2.077   6.872   4.376 -1.3627 -0.4369 -1.9313
   89MOL0     H11714  -2.264   7.078   4.105 -3.0346  1.3942  2.2948
   89MOL0     H11715  -2.239   6.950   4.226 -1.7682 -1.1548 -3.1346
   89MOL0     H11716  -2.129   6.802   4.069 -1.6524 -1.0168 -0.0105
   89MOL0     H11717  -2.106   6.940   3.955 -0.5806 -0.1975 -0.8536
   89MOL0     H11718  -2.345   6.968   3.936 -0.7217 -1.4720 -4.5409
   89MOL0     H11719  -2.366   6.821   4.032 -1.7702 -1.0202 -1.5417
   89MOL0     H11720  -2.221   6.832   3.773 -1.6932  0.0032 -0.5802
   89MOL0     H11721  -2.246   6.682   3.852  3.0469  0.7816  0.2605
   89MOL0     H11722  -2.450   6.872   3.723 -1.8122 -1.3942 -0.9629
   89MOL0     H11723  -2.496   6.751   3.831  0.1121 -1.9426 -1.1109
   89MOL0     H11724  -2.317   6.631   3.619  1.4998  0.1102  0.3891
   89MOL0     H11725  -2.448   6.721   3.550  5.7920 -0.2580 -2.2305
   89MOL0     H11726  -2.494   6.467   3.614  1.5004  0.1437  0.5895
   89MOL0     H11727  -2.493   6.535   3.780  1.7466  0.5186 -0.3705
   89MOL0     H11728  -2.709   6.669   3.737 -1.6646 -0.8967 -0.0216
   89MOL0     H11729  -2.718   6.499   3.701 -2.1906  0.9186  1.1828
   89MOL0     H11730  -1.834   7.074   4.091 -0.1711  0.6037  0.6991
   89MOL0     H11731  -1.632   6.996   4.199 -0.9634 -0.0249 -3.4387
   89MOL0     H11732  -1.321   6.601   4.292 -2.0800  1.9184 -0.2569
   89MOL0     H11733  -1.151   6.508   4.445  0.2864  2.1338 -1.9422
   89MOL0     H11734   0.037   5.740   4.912  2.8827 -0.3862 -2.2781
   89MOL0     H11735   0.120   5.747   4.685  0.9050  1.5793 -0.6382
   89MOL0     H11736   0.165   6.206   4.310  1.3757  0.0917 -0.6480
   89MOL0     H11737   0.259   6.217   4.098  1.0274 -1.2365 -1.1188
   89MOL0     H11738   0.302   5.869   3.858 -2.7053  1.0613 -0.6153
   89MOL0     H11739   0.417   5.969   3.942 -0.4913  1.3349 -0.1315
   89MOL0     H11740   0.452   5.942   3.701  4.2013  3.5664 -1.1826
   89MOL0     H11741   0.300   6.049   3.684 -0.8293 -2.5883 -0.2772
   89MOL0     H11742   0.577   6.121   3.802 -0.0862 -0.8102  0.5894
   89MOL0     H11743   0.448   6.230   3.811  3.6344  1.8215 -0.0709
   89MOL0     H11744   0.605   6.291   3.634  0.1145 -0.3962 -1.6483
   89MOL0     H11745   0.553   6.142   3.546 -1.6307 -0.9081  0.7728
   89MOL0     H11746   0.197   6.366   3.506 -0.2754  0.0890 -0.9820
   89MOL0     H11747   0.112   5.815   4.012  1.3822 -1.2183 -0.6015
   89MOL0     H11748   0.035   5.805   4.247  1.4071  0.0211  2.1739
   90MOL0     O11749   2.608  11.318   3.391  0.3934  0.5420  0.2102
   90MOL0     C11750   2.724  11.287   3.401 -0.2396  0.1509  0.0846
   90MOL0     O11751   2.814  11.343   3.488  0.5003 -1.0702  0.8524
   90MOL0     C11752   2.768  11.440   3.576 -0.2455  0.4569  0.5553
   90MOL0     C11753   2.676  11.407   3.682 -0.2954  0.2204  0.6415
   90MOL0     C11754   2.628  11.506   3.778 -0.3865  0.3211 -0.5531
   90MOL0     C11755   2.684  11.636   3.768 -0.4723  0.3662 -0.5369
   90MOL0     O11756   2.662  11.736   3.862 -0.1652  0.1320 -0.5353
   90MOL0     C11757   2.696  11.704   3.996 -0.2690  0.4752 -0.4728
   90MOL0     C11758   2.650  11.822   4.092  1.0205 -0.0674 -1.0851
   90MOL0     C11759   2.644  11.773   4.245  0.1009  0.0812 -0.8712
   90MOL0     C11760   2.782  11.759   4.299  0.8400 -0.2021  0.3626
   90MOL0     C11761   2.799  11.749   4.443 -0.2135 -0.9325 -1.1486
   90MOL0     C11762   2.717  11.632   4.500  0.0128 -0.3447 -0.1098
   90MOL0     C11763   2.735  11.615   4.648 -0.3433  0.4116 -0.4884
   90MOL0     C11764   2.619  11.535   4.718 -0.4165 -0.4593 -0.8003
   90MOL0     N11765   2.493  11.609   4.721  0.3177 -0.4765  0.6913
   90MOL0     C11766   2.427  11.668   4.828  0.3976  0.1606  0.9874
   90MOL0     C11767   2.316  11.732   4.778  0.0347 -0.3419 -1.4323
   90MOL0     C11768   2.206  11.777   4.877 -0.6750 -0.3200  1.0030
   90MOL0     C11769   2.116  11.673   4.925  0.3524  0.5894  0.2276
   90MOL0     C11770   1.997  11.733   4.988  0.0145  0.5071 -0.2256
   90MOL0     C11771   1.906  11.642   5.070  0.2360 -0.4457  0.4965
   90MOL0     O11772   1.781  11.707   5.090 -0.1199  0.4584  0.0730
   90MOL0     C11773   1.706  11.690   5.200 -0.0351 -1.3271 -0.0604
   90MOL0     C11774   1.677  11.566   5.237 -0.3190 -1.0650 -0.4422
   90MOL0     C11775   1.616  11.539   5.360 -0.8333 -0.0006  1.0716
   90MOL0     C11776   1.574  11.639   5.442  0.6275 -0.6829 -0.3043
   90MOL0     C11777   1.504  11.606   5.569  0.5209 -0.8844 -0.5128
   90MOL0     O11778   1.449  11.480   5.573  0.3887 -0.1522 -0.5552
   90MOL0     C11779   1.370  11.431   5.669 -0.0526  0.0141  0.2471
   90MOL0     C11780   1.252  11.375   5.626  0.1574 -0.4067  0.3565
   90MOL0     C11781   1.161  11.304   5.705  0.2397 -0.2806  0.3477
   90MOL0     C11782   1.188  11.302   5.838  0.2153  0.5619  0.4732
   90MOL0     O11783   1.092  11.245   5.922  0.2677 -0.0656 -0.6176
   90MOL0     C11784   1.134  11.228   6.060  0.0433 -0.7937 -1.0256
   90MOL0     C11785   1.106  11.349   6.135 -0.3394  0.6106 -0.6254
   90MOL0     C11786   0.952  11.378   6.143 -0.0540  0.7459 -0.3209
   90MOL0     C11787   0.913  11.476   6.252  0.9972  0.6039  0.0791
   90MOL0     C11788   0.764  11.493   6.266 -0.9195  0.0018  0.0120
   90MOL0     C11789   0.729  11.609   6.359  0.0999 -0.3060 -0.1152
   90MOL0     C11790   0.593  11.675   6.340 -0.0395  0.1783  1.1524
   90MOL0     C11791   0.471  11.583   6.375 -0.1555  0.1182  0.1067
   90MOL0    Cl11792   0.489  11.525   6.546  0.0817  0.5327 -0.1776
   90MOL0     C11793   1.318  11.358   5.886  0.9562 -0.7878  0.6991
   90MOL0     C11794   1.407  11.420   5.801  0.0725 -0.3632 -0.9142
   90MOL0     O11795   1.521  11.678   5.669  0.3156  0.1600  0.3840
   90MOL0     C11796   1.600  11.781   5.395  0.6257  0.4997  0.2257
   90MOL0     C11797   1.663  11.794   5.271 -0.0247  0.1577  0.6973
   90MOL0     N11798   2.310  11.707   4.650 -0.0417  0.4325  0.4192
   90MOL0     N11799   2.424  11.648   4.608  0.3409 -0.7131 -0.0504
   90MOL0     C11800   2.754  11.670   3.651  0.1166 -0.6565 -0.4674
   90MOL0     C11801   2.796  11.574   3.554  0.7162 -0.4474  0.1652
   90MOL0     C11802   2.781  11.184   3.318  0.3405 -0.6436 -0.3466
   90MOL0     C11803   2.920  11.155   3.329 -0.0770  0.4666 -0.4806
   90MOL0     C11804   2.982  11.048   3.260 -0.3986 -0.3131 -0.6637
   90MOL0     C11805   2.906  10.959   3.188  0.2502 -0.4381 -0.0120
   90MOL0     O11806   2.958  10.851   3.122  0.6280 -0.1494 -0.3060
   90MOL0     C11807   3.100  10.811   3.131 -0.1511  0.0630 -0.7052
   90MOL0     C11808   3.102  10.659   3.082 -0.0448  0.5409 -0.7826
   90MOL0     C11809   3.238  10.593   3.109  0.5439 -0.7471  0.3555
   90MOL0     C11810   3.222  10.444   3.137  0.1180  0.7476  0.0131
   90MOL0     C11811   3.155  10.372   3.031 -0.1767 -0.1739 -0.1544
   90MOL0     C11812   3.076  10.334   2.945  0.3650 -0.6013 -0.0793
   90MOL0     C11813   2.773  11.000   3.166 -0.3199 -0.5684  1.1964
   90MOL0     C11814   2.708  11.107   3.229 -0.2736  0.6615  0.2868
   90MOL0     H11815   2.619  11.315   3.677  1.5465 -0.9385 -0.5347
   90MOL0     H11816   2.554  11.469   3.847  0.6942  0.0305  0.4818
   90MOL0     H11817   2.805  11.695   3.997 -0.2166  1.0807  0.2146
   90MOL0     H11818   2.656  11.611   4.036  2.4674  0.1288  1.7645
   90MOL0     H11819   2.549  11.856   4.067  0.2435 -2.6154 -1.7212
   90MOL0     H11820   2.715  11.910   4.097  2.4433 -1.1517  0.9349
   90MOL0     H11821   2.580  11.685   4.257 -2.7101  2.1781  0.5896
   90MOL0     H11822   2.587  11.842   4.308 -0.6417 -1.8382  0.6931
   90MOL0     H11823   2.835  11.672   4.257 -2.0765 -1.3592 -1.1788
   90MOL0     H11824   2.838  11.849   4.272  0.3705 -0.2992 -1.0194
   90MOL0     H11825   2.753  11.839   4.484 -3.1524 -1.5476 -2.7892
   90MOL0     H11826   2.902  11.748   4.478 -0.7351 -1.0435  0.4640
   90MOL0     H11827   2.747  11.533   4.464 -3.2018 -2.3940  2.2564
   90MOL0     H11828   2.611  11.652   4.481 -0.2139  2.9416  3.4761
   90MOL0     H11829   2.830  11.571   4.679  0.5886  1.4467 -1.7562
   90MOL0     H11830   2.726  11.709   4.703 -0.5864 -1.0353  2.1438
   90MOL0     H11831   2.650  11.518   4.822 -2.1365 -2.8027 -0.5630
   90MOL0     H11832   2.595  11.436   4.677 -1.5598 -1.0764  1.2025
   90MOL0     H11833   2.445  11.649   4.933 -0.0812  0.4673  1.1272
   90MOL0     H11834   2.146  11.843   4.814 -0.5474 -2.0419 -0.9985
   90MOL0     H11835   2.244  11.851   4.948  1.5320  1.6366 -1.9607
   90MOL0     H11836   2.169  11.619   5.004 -1.3251 -0.8133  0.4714
   90MOL0     H11837   2.086  11.603   4.846 -2.6352  0.0709  1.6627
   90MOL0     H11838   2.031  11.820   5.043  0.4242  0.5127 -0.4833
   90MOL0     H11839   1.940  11.781   4.907  3.4127  1.8573 -2.0323
   90MOL0     H11840   1.952  11.625   5.168  2.1649 -2.6945 -0.6997
   90MOL0     H11841   1.897  11.554   5.005 -4.5072 -0.1622  0.4400
   90MOL0     H11842   1.703  11.487   5.167 -2.2681 -1.7431 -0.4593
   90MOL0     H11843   1.598  11.434   5.375  4.2722 -0.8716  3.4201
   90MOL0     H11844   1.229  11.382   5.520  0.2194 -1.5327  0.2531
   90MOL0     H11845   1.073  11.259   5.661  0.7789 -0.8219 -0.1955
   90MOL0     H11846   1.241  11.207   6.072  0.1187  0.2372  0.2495
   90MOL0     H11847   1.072  11.145   6.094 -0.4530 -0.9709 -2.2797
   90MOL0     H11848   1.157  11.435   6.089  0.0252  1.0317  0.5415
   90MOL0     H11849   1.137  11.316   6.235 -0.1107 -3.7255 -1.9141
   90MOL0     H11850   0.899  11.290   6.181 -1.5246  1.9266  0.5357
   90MOL0     H11851   0.905  11.404   6.048 -0.4330  1.5132  0.0546
   90MOL0     H11852   0.953  11.445   6.349 -2.0367 -1.6632  0.7439
   90MOL0     H11853   0.956  11.574   6.230 -1.9333  2.8870  3.5471
   90MOL0     H11854   0.720  11.401   6.305 -0.9869 -1.3386 -3.0293
   90MOL0     H11855   0.718  11.517   6.170  0.4942 -0.5178 -0.8152
   90MOL0     H11856   0.818  11.672   6.359 -1.2483  1.7267 -1.2050
   90MOL0     H11857   0.714  11.560   6.456 -4.2941  2.9529  1.1774
   90MOL0     H11858   0.594  11.759   6.409  0.5542  0.2719  1.0342
   90MOL0     H11859   0.576  11.712   6.238  1.7356  0.7031  1.0104
   90MOL0     H11860   0.465  11.498   6.307 -1.0886 -1.3755  1.9455
   90MOL0     H11861   0.377  11.640   6.370 -0.4323 -0.4392 -1.8005
   90MOL0     H11862   1.352  11.347   5.989  1.2596 -2.2792  0.4564
   90MOL0     H11863   1.504  11.459   5.828  0.6503  0.3697 -3.7363
   90MOL0     H11864   1.563  11.868   5.449 -4.1215  0.1733 -1.9983
   90MOL0     H11865   1.670  11.892   5.225  1.5988 -0.7763 -1.1464
   90MOL0     H11866   2.793  11.769   3.626  1.8062 -1.5748 -1.6563
   90MOL0     H11867   2.860  11.594   3.468  2.2427 -3.5412  0.4624
   90MOL0     H11868   2.987  11.217   3.388  0.0986 -1.1747  1.1090
   90MOL0     H11869   3.088  11.048   3.283 -0.2275 -1.5277 -1.3522
   90MOL0     H11870   3.142  10.813   3.232 -1.8066  1.2984  0.0158
   90MOL0     H11871   3.161  10.878   3.070  1.1194  1.6137  2.0855
   90MOL0     H11872   3.025  10.617   3.147  1.0154  0.7458  0.6600
   90MOL0     H11873   3.085  10.651   2.974  0.1810 -0.0823 -0.7732
   90MOL0     H11874   3.276  10.633   3.204 -1.5646 -0.0966  0.9879
   90MOL0     H11875   3.303  10.618   3.025 -0.3365  2.2558  0.4604
   90MOL0     H11876   3.317  10.400   3.168 -1.4025 -3.5609 -0.6392
   90MOL0     H11877   3.155  10.434   3.223 -2.0288  2.7713 -1.3144
   90MOL0     H11878   3.020  10.308   2.858 -2.0541  3.0074  0.1670
   90MOL0     H11879   2.718  10.962   3.081 -1.5358  5.0795 -0.9572
   90MOL0     H11880   2.601  11.120   3.211 -0.5010 -1.5587 -0.2057
   91MOL0     O11881   8.424   8.768   3.205  0.5785 -0.1174  0.1286
   91MOL0     C11882   8.473   8.879   3.231  0.6380  0.1664  0.1914
   91MOL0     O11883   8.404   8.985   3.286 -0.0733 -0.0064  0.2638
   91MOL0     C11884   8.279   8.976   3.340 -1.1546  0.1683 -0.3251
   91MOL0     C11885   8.194   9.082   3.335 -0.2014  0.3550 -0.4918
   91MOL0     C11886   8.068   9.081   3.396 -0.6667 -0.4449  0.1703
   91MOL0     C11887   8.026   8.972   3.475 -0.7722  1.2063 -0.2945
   91MOL0     O11888   7.900   8.972   3.524 -0.4355 -0.6434 -0.7245
   91MOL0     C11889   7.866   8.880   3.624 -0.1833  0.5405 -0.0781
   91MOL0     C11890   7.808   8.753   3.554  0.1720 -0.0255 -0.1317
   91MOL0     C11891   7.679   8.788   3.477 -0.1489 -0.0549  0.2457
   91MOL0     C11892   7.601   8.665   3.420 -1.3649  0.0114  0.4209
   91MOL0     C11893   7.451   8.680   3.410  0.3468 -0.8038  0.7007
   91MOL0     C11894   7.372   8.703   3.549  0.1458 -0.3353  0.2837
   91MOL0     C11895   7.215   8.698   3.557 -0.4349 -0.0362 -0.6808
   91MOL0     C11896   7.143   8.816   3.482  0.5916 -0.0707  0.5762
   91MOL0     N11897   7.001   8.816   3.503 -0.2136 -0.5520  0.9401
   91MOL0     C11898   6.938   8.860   3.617  0.3268  0.8475 -1.1345
   91MOL0     C11899   6.805   8.843   3.595 -0.4686  0.0055  0.2512
   91MOL0     C11900   6.688   8.878   3.687  0.3534 -1.7028 -0.4091
   91MOL0     C11901   6.728   8.936   3.823  0.0079  0.4658 -0.4149
   91MOL0     C11902   6.612   8.983   3.909  0.6722 -1.1298 -0.2778
   91MOL0     C11903   6.662   9.007   4.043  0.4379  0.2450 -0.3660
   91MOL0     O11904   6.746   9.121   4.058 -0.6529  0.1898 -0.0255
   91MOL0     C11905   6.885   9.088   4.067 -0.4626 -0.0369  0.0206
   91MOL0     C11906   6.925   9.031   4.189 -0.4535 -0.4971 -0.2281
   91MOL0     C11907   7.058   8.990   4.200 -0.3989  0.0623 -0.6133
   91MOL0     C11908   7.152   9.026   4.097 -0.0939 -0.5216 -0.1061
   91MOL0     C11909   7.298   8.997   4.125  0.3155  0.2519  0.9726
   91MOL0     O11910   7.393   9.010   4.027  0.4691 -1.0018 -0.3614
   91MOL0     C11911   7.527   9.009   4.054  0.2088  0.2384  0.5947
   91MOL0     C11912   7.595   9.127   4.047  0.1626  0.1608 -0.9500
   91MOL0     C11913   7.720   9.141   4.097 -0.5018 -0.1865  0.0615
   91MOL0     C11914   7.789   9.036   4.151 -0.0584  0.4983 -0.2294
   91MOL0     O11915   7.917   9.041   4.192 -0.4578 -0.4590  0.1926
   91MOL0     C11916   7.937   9.160   4.271  0.6787 -0.2612 -0.8566
   91MOL0     C11917   8.061   9.147   4.375 -0.0334  0.8313  0.5150
   91MOL0     C11918   8.060   9.003   4.436  0.1400 -0.7291 -0.1876
   91MOL0     C11919   7.940   8.981   4.526  0.4233 -0.2303  0.0883
   91MOL0     C11920   7.915   8.834   4.570  0.3834  0.3120  0.3276
   91MOL0     C11921   7.974   8.820   4.712 -0.2349  0.1835  0.1035
   91MOL0     C11922   7.956   8.683   4.770  0.8565 -0.2016  0.2210
   91MOL0     C11923   8.056   8.679   4.893 -0.1127 -0.2828  1.1100
   91MOL0    Cl11924   8.235   8.681   4.852 -0.5342  0.3265 -0.0979
   91MOL0     C11925   7.722   8.919   4.158 -0.9875 -0.3757  0.6755
   91MOL0     C11926   7.589   8.898   4.108 -0.0164 -1.4159  0.0232
   91MOL0     O11927   7.319   8.949   4.236  0.0346  0.0327 -0.1576
   91MOL0     C11928   7.110   9.099   3.991 -0.8759 -0.1728  0.1906
   91MOL0     C11929   6.977   9.125   3.974 -0.3906  0.0399  0.2938
   91MOL0     N11930   6.792   8.764   3.478  0.8729 -0.5838 -0.8342
   91MOL0     N11931   6.906   8.757   3.423  0.4098 -0.4729  0.7601
   91MOL0     C11932   8.121   8.864   3.492  0.3412 -0.3868 -0.1547
   91MOL0     C11933   8.242   8.865   3.421 -0.1434  0.0345  1.0951
   91MOL0     C11934   8.613   8.894   3.186  0.8336  0.3780 -0.4672
   91MOL0     C11935   8.686   8.999   3.246  0.0396 -0.2465  0.9067
   91MOL0     C11936   8.827   9.001   3.211 -0.0599  0.5781 -1.1171
   91MOL0     C11937   8.887   8.910   3.122  0.3518 -0.2818 -0.6496
   91MOL0     O11938   9.024   8.931   3.114 -0.3246  0.0442 -0.2795
   91MOL0     C11939   9.103   8.854   3.020  0.5054 -0.7241 -0.1391
   91MOL0     C11940   9.068   8.907   2.877  0.2263 -0.3150 -0.0967
   91MOL0     C11941   9.162   8.832   2.776  0.6367 -0.3265  0.1765
   91MOL0     C11942   9.137   8.868   2.625  0.3594 -0.1511  0.9151
   91MOL0     C11943   9.252   8.821   2.547 -0.0092 -0.7235  0.9671
   91MOL0     C11944   9.330   8.763   2.463  0.1095 -0.1696 -0.2957
   91MOL0     C11945   8.812   8.809   3.068 -0.3260  0.2441 -0.1628
   91MOL0     C11946   8.678   8.798   3.094 -0.1071 -0.2029  0.3250
   91MOL0     H11947   8.229   9.176   3.294 -1.1126  1.6681  1.5835
   91MOL0     H11948   7.999   9.163   3.413 -1.1372 -0.9685  0.8520
   91MOL0     H11949   7.793   8.931   3.688 -0.5550 -0.4150  0.2847
   91MOL0     H11950   7.956   8.847   3.677 -1.4298 -3.4574 -0.1197
   91MOL0     H11951   7.789   8.677   3.631  3.1001 -0.6930  0.0520
   91MOL0     H11952   7.889   8.704   3.498  0.5390  1.6582 -1.1421
   91MOL0     H11953   7.707   8.844   3.387 -2.4295  0.2498 -0.3405
   91MOL0     H11954   7.608   8.854   3.527 -0.5289  0.9923 -1.5520
   91MOL0     H11955   7.635   8.648   3.317  0.9413 -0.8053  1.2694
   91MOL0     H11956   7.630   8.578   3.479  1.6558 -1.6780 -3.1188
   91MOL0     H11957   7.416   8.588   3.364 -4.2653  0.0861  1.9098
   91MOL0     H11958   7.430   8.766   3.345  3.0356 -2.2242 -2.2966
   91MOL0     H11959   7.406   8.799   3.590  0.9187  0.2325 -1.5726
   91MOL0     H11960   7.413   8.625   3.614  2.0198  3.2454  3.8567
   91MOL0     H11961   7.178   8.601   3.521 -2.0718 -0.5677  2.1495
   91MOL0     H11962   7.194   8.701   3.664  0.2075  2.2096 -0.5760
   91MOL0     H11963   7.171   8.810   3.376  3.3826  1.1064  1.1566
   91MOL0     H11964   7.177   8.915   3.515 -1.8618  1.1527 -0.2594
   91MOL0     H11965   6.982   8.903   3.707 -0.1529  2.6091 -1.6936
   91MOL0     H11966   6.624   8.790   3.697 -3.1381  0.5960 -0.5870
   91MOL0     H11967   6.619   8.954   3.649 -0.7475 -2.2653  0.4415
   91MOL0     H11968   6.800   9.018   3.822  0.4397  0.1201  0.6490
   91MOL0     H11969   6.774   8.850   3.873 -2.6295 -1.2033 -0.6476
   91MOL0     H11970   6.574   9.077   3.869 -3.9986 -1.1758  3.2046
   91MOL0     H11971   6.523   8.919   3.906 -0.8323  0.9155 -1.1933
   91MOL0     H11972   6.701   8.909   4.074 -2.7149 -0.9681  0.0582
   91MOL0     H11973   6.570   9.025   4.098 -0.8610 -2.8188 -1.3118
   91MOL0     H11974   6.859   9.021   4.275 -2.0128  1.7213 -1.0716
   91MOL0     H11975   7.084   8.950   4.297 -1.1469 -0.8522 -0.7749
   91MOL0     H11976   7.558   9.219   4.002  1.8652  2.4140  1.8573
   91MOL0     H11977   7.756   9.243   4.083 -1.2517 -0.1766 -1.9952
   91MOL0     H11978   7.840   9.175   4.318  0.2590 -1.3787 -1.3465
   91MOL0     H11979   7.959   9.246   4.206 -3.9235  2.1002  0.2733
   91MOL0     H11980   8.059   9.221   4.456  1.4310  0.3102  1.0592
   91MOL0     H11981   8.156   9.157   4.321  0.6251 -0.6541  1.3234
   91MOL0     H11982   8.149   8.973   4.492  0.6473  0.1718 -0.4928
   91MOL0     H11983   8.049   8.931   4.354  1.2878  1.8879 -2.8430
   91MOL0     H11984   7.960   9.040   4.615 -1.2433 -0.5655  0.7171
   91MOL0     H11985   7.849   9.018   4.477 -0.2309  0.3224  1.6708
   91MOL0     H11986   7.964   8.767   4.500  0.1359  0.8873 -0.4096
   91MOL0     H11987   7.809   8.805   4.579  0.7317 -1.3855 -0.5927
   91MOL0     H11988   7.935   8.891   4.785  2.6372  0.4623  1.4847
   91MOL0     H11989   8.080   8.843   4.697  0.1362 -0.4425  1.5751
   91MOL0     H11990   7.856   8.667   4.813  1.6282 -0.8245  1.8755
   91MOL0     H11991   7.980   8.602   4.700  1.9568  0.4608 -0.1963
   91MOL0     H11992   8.041   8.588   4.952 -0.2523  0.7319  2.7129
   91MOL0     H11993   8.035   8.772   4.947 -1.4423  0.3783 -0.4701
   91MOL0     H11994   7.785   8.832   4.177 -1.2954 -0.8690 -0.4962
   91MOL0     H11995   7.527   8.810   4.127 -1.1400 -0.3849  1.4143
   91MOL0     H11996   7.178   9.120   3.909 -0.5715 -1.3230  0.1309
   91MOL0     H11997   6.941   9.171   3.882  1.0527 -1.5104 -1.0997
   91MOL0     H11998   8.095   8.767   3.535  0.4235  0.2112  1.2982
   91MOL0     H11999   8.317   8.788   3.438  1.2590  1.3555  1.1477
   91MOL0     H12000   8.648   9.070   3.319 -0.3992 -1.1625  1.5925
   91MOL0     H12001   8.880   9.089   3.245  0.1798 -0.2609  0.7659
   91MOL0     H12002   9.079   8.747   3.030 -1.8894 -0.2022  0.3690
   91MOL0     H12003   9.209   8.865   3.041  1.0071 -0.7191 -2.4010
   91MOL0     H12004   8.963   8.888   2.849  0.3344 -1.4184  0.1737
   91MOL0     H12005   9.091   9.013   2.870 -0.6791 -0.2062 -2.6118
   91MOL0     H12006   9.146   8.724   2.783  1.1352 -0.5231 -1.4328
   91MOL0     H12007   9.263   8.858   2.809  1.1146 -3.0600  1.1847
   91MOL0     H12008   9.051   8.816   2.581  1.6929 -1.2713 -0.4698
   91MOL0     H12009   9.118   8.975   2.620 -0.8279 -0.4157 -1.4013
   91MOL0     H12010   9.379   8.702   2.390 -1.7955 -1.2508 -0.7630
   91MOL0     H12011   8.860   8.740   3.000  0.7555 -1.5628  2.2871
   91MOL0     H12012   8.619   8.722   3.044  0.5945 -0.7376  0.2980
   92MOL0     O12013  10.346  11.331   6.418 -0.1365 -0.5761  0.0830
   92MOL0     C12014  10.313  11.437   6.473 -0.6009 -0.3546 -0.5640
   92MOL0     O12015  10.386  11.516   6.557 -0.5539 -0.0826  1.2859
   92MOL0     C12016  10.516  11.476   6.590  0.6543  1.2823 -0.0436
   92MOL0     C12017  10.599  11.565   6.658  0.6540  0.6743  0.2176
   92MOL0     C12018  10.730  11.536   6.701 -0.2926  0.1253 -0.3803
   92MOL0     C12019  10.776  11.408   6.699 -0.2103  0.2620 -0.3342
   92MOL0     O12020  10.899  11.395   6.746 -0.3346 -0.1303  1.1398
   92MOL0     C12021  10.996  11.328   6.660 -0.7136 -0.6142  1.0119
   92MOL0     C12022  11.089  11.446   6.618 -0.4167 -0.0370  0.8862
   92MOL0     C12023  11.195  11.461   6.723  1.1863 -0.5969 -0.5395
   92MOL0     C12024  11.288  11.575   6.709 -0.2163  0.1117 -0.4729
   92MOL0     C12025  11.383  11.564   6.590  0.1813  0.3296  0.1290
   92MOL0     C12026  11.498  11.672   6.613  0.2038  0.9735 -0.6227
   92MOL0     C12027  11.459  11.809   6.630  0.3883 -0.6616  0.1087
   92MOL0     C12028  11.584  11.898   6.630  0.7100 -1.1083  0.4637
   92MOL0     N12029  11.665  11.883   6.760 -0.2685 -0.9399  0.5317
   92MOL0     C12030  11.654  11.966   6.864 -0.6684 -0.3310  0.0415
   92MOL0     C12031  11.746  11.921   6.951  0.1494  0.7700  0.7439
   92MOL0     C12032  11.789  11.978   7.077 -0.3950 -0.0739 -0.5210
   92MOL0     C12033  11.935  12.024   7.059 -0.1020  0.1400  0.0959
   92MOL0     C12034  11.991  12.088   7.193 -0.4364  0.1178  0.3165
   92MOL0     C12035  12.144  12.063   7.197 -0.3897  0.6592  0.5684
   92MOL0     O12036  12.224  12.153   7.117  0.6418  0.1821 -0.6456
   92MOL0     C12037  12.237  12.285   7.158 -0.0261 -0.5388  0.1312
   92MOL0     C12038  12.188  12.339   7.275  0.1007 -0.6293 -0.3810
   92MOL0     C12039  12.190  12.476   7.303 -0.2779 -0.6492  0.3404
   92MOL0     C12040  12.252  12.561   7.211  0.3058  0.3973 -0.1816
   92MOL0     C12041  12.280  12.705   7.249  1.9390  0.7573  0.0426
   92MOL0     O12042  12.189  12.768   7.325  0.0373 -0.0403  0.7188
   92MOL0     C12043  12.205  12.899   7.365 -0.5900 -0.9902  0.0010
   92MOL0     C12044  12.324  12.950   7.413  0.1029 -0.1136  0.3435
   92MOL0     C12045  12.330  13.089   7.447 -0.2933  0.5713 -0.4421
   92MOL0     C12046  12.218  13.178   7.446  0.2482  0.6013  0.2656
   92MOL0     O12047  12.229  13.308   7.474  0.4430  0.1499  0.6895
   92MOL0     C12048  12.194  13.357   7.605  0.8236  0.2108  0.4442
   92MOL0     C12049  12.044  13.393   7.605  0.3714 -1.0353  0.0404
   92MOL0     C12050  11.991  13.451   7.743 -0.6875  0.0485 -0.0460
   92MOL0     C12051  12.064  13.392   7.867  0.7297 -1.2465 -0.1221
   92MOL0     C12052  11.987  13.425   7.998  1.4246 -0.2865  0.4825
   92MOL0     C12053  11.873  13.327   8.022  1.6025 -0.5066 -0.0139
   92MOL0     C12054  11.854  13.302   8.175  0.5339 -1.1986  0.5916
   92MOL0     C12055  11.824  13.433   8.260  0.2457  0.3259 -0.2422
   92MOL0    Cl12056  11.672  13.505   8.211 -0.2753 -0.4274  0.3633
   92MOL0     C12057  12.093  13.119   7.419 -0.0828 -0.5940  0.8709
   92MOL0     C12058  12.088  12.986   7.379  0.2025  0.1587 -0.4774
   92MOL0     O12059  12.379  12.757   7.195 -0.2651  0.2496 -0.5215
   92MOL0     C12060  12.312  12.505   7.098  0.7318 -0.2877  1.0402
   92MOL0     C12061  12.302  12.371   7.064  0.3008 -0.0806  0.3056
   92MOL0     N12062  11.805  11.811   6.900  0.2723  0.1545 -0.1943
   92MOL0     N12063  11.742  11.781   6.787  0.2590 -0.5868  0.1009
   92MOL0     C12064  10.683  11.308   6.648  0.4202  0.0650 -0.1957
   92MOL0     C12065  10.562  11.339   6.593  1.1623 -0.0821  0.2268
   92MOL0     C12066  10.170  11.486   6.441  1.2110  0.0401  0.4343
   92MOL0     C12067  10.140  11.625   6.433 -0.0117 -0.3689 -0.9603
   92MOL0     C12068  10.007  11.671   6.413  0.1554  0.6833 -0.2793
   92MOL0     C12069   9.904  11.577   6.384 -0.4025  0.1462  0.6317
   92MOL0     O12070   9.772  11.615   6.344  0.4448  0.5296  0.6403
   92MOL0     C12071   9.748  11.753   6.321  0.1903  0.2940  0.0618
   92MOL0     C12072   9.612  11.754   6.265  0.5588  0.2394  0.1722
   92MOL0     C12073   9.570  11.889   6.226 -0.5053  0.2956 -0.7549
   92MOL0     C12074   9.431  11.881   6.162  0.3829 -1.0605  0.2994
   92MOL0     C12075   9.336  11.829   6.263 -0.3665  0.6211  0.3534
   92MOL0     C12076   9.255  11.801   6.353  0.3381  0.0860 -1.0382
   92MOL0     C12077   9.929  11.436   6.378 -0.2791  0.5541 -0.2464
   92MOL0     C12078  10.068  11.396   6.411  0.8246 -0.5503 -0.0671
   92MOL0     H12079  10.556  11.664   6.669 -3.3541 -0.3674 -3.2844
   92MOL0     H12080  10.787  11.619   6.740 -1.6909  0.2574  1.4984
   92MOL0     H12081  10.958  11.281   6.569  4.4982  1.9826 -3.0805
   92MOL0     H12082  11.052  11.252   6.716  2.7845 -0.0601 -1.4139
   92MOL0     H12083  11.030  11.538   6.624 -0.4147  0.1136 -1.0132
   92MOL0     H12084  11.140  11.430   6.523 -3.6901  0.8083 -1.1788
   92MOL0     H12085  11.256  11.370   6.724  1.1695 -0.6088 -0.1881
   92MOL0     H12086  11.143  11.467   6.819  2.2092  1.5936 -0.0494
   92MOL0     H12087  11.229  11.664   6.683 -1.9965 -0.7358  0.4986
   92MOL0     H12088  11.332  11.593   6.807 -1.2575 -0.4007  0.1035
   92MOL0     H12089  11.330  11.590   6.498 -0.0820  1.9143  0.6939
   92MOL0     H12090  11.424  11.462   6.588  2.6452  1.0877  3.1792
   92MOL0     H12091  11.565  11.671   6.526 -1.6568 -2.9439 -2.2608
   92MOL0     H12092  11.558  11.645   6.700  1.9018 -1.8797 -2.4950
   92MOL0     H12093  11.401  11.841   6.543  0.9194  1.9559  0.6261
   92MOL0     H12094  11.406  11.813   6.725  4.3567  0.5418  2.5036
   92MOL0     H12095  11.553  12.003   6.629  0.0308 -1.2856  1.2609
   92MOL0     H12096  11.640  11.869   6.542 -1.8807  0.8407 -2.0156
   92MOL0     H12097  11.578  12.042   6.872 -1.9544 -1.7490  2.5020
   92MOL0     H12098  11.779  11.909   7.161  1.5675  0.4748  0.2114
   92MOL0     H12099  11.721  12.059   7.106 -2.3048 -1.7929  0.0928
   92MOL0     H12100  11.935  12.100   6.981  0.7720 -0.7847 -0.8338
   92MOL0     H12101  12.000  11.939   7.034  2.5686  1.1866  2.8019
   92MOL0     H12102  11.969  12.194   7.208  2.0040  0.3057  3.4450
   92MOL0     H12103  11.960  12.040   7.286  2.1450 -1.0736  0.6414
   92MOL0     H12104  12.165  11.957   7.176  2.1688  1.2677 -0.2131
   92MOL0     H12105  12.171  12.076   7.303 -0.1641  0.7751  0.4962
   92MOL0     H12106  12.143  12.279   7.354  1.7850  0.1383  1.2419
   92MOL0     H12107  12.129  12.517   7.383  0.5561  0.3816  0.4758
   92MOL0     H12108  12.411  12.886   7.413 -0.2212 -0.9184  4.9958
   92MOL0     H12109  12.427  13.124   7.483 -0.4273  0.4992  0.0019
   92MOL0     H12110  12.255  13.447   7.621  0.1317  0.7194  0.2751
   92MOL0     H12111  12.201  13.270   7.671 -1.4869  0.2806  0.8422
   92MOL0     H12112  11.973  13.313   7.580 -1.7076  0.7227 -0.0308
   92MOL0     H12113  12.025  13.471   7.530 -2.8508 -1.0812  0.6808
   92MOL0     H12114  11.885  13.427   7.743 -1.3350  2.6488 -0.1772
   92MOL0     H12115  12.002  13.559   7.757  2.6608  0.0714 -1.7065
   92MOL0     H12116  12.062  13.284   7.856  0.0064 -1.1427 -1.1555
   92MOL0     H12117  12.169  13.425   7.869  1.0169 -1.2679 -4.3476
   92MOL0     H12118  11.943  13.525   7.987  0.0102 -0.9417  0.0782
   92MOL0     H12119  12.063  13.425   8.077  2.8374  0.3647 -0.8251
   92MOL0     H12120  11.885  13.229   7.973  1.9853  0.8821 -2.9473
   92MOL0     H12121  11.782  13.376   7.987  1.5857  1.2102  2.2115
   92MOL0     H12122  11.768  13.236   8.189  0.1110 -1.1457 -1.4733
   92MOL0     H12123  11.942  13.260   8.224  0.1724 -0.9817  1.4521
   92MOL0     H12124  11.907  13.504   8.246 -0.1363  1.0047  0.8222
   92MOL0     H12125  11.812  13.401   8.363  4.4579 -4.1783 -0.8145
   92MOL0     H12126  12.004  13.181   7.414 -1.1088 -1.7498  3.2098
   92MOL0     H12127  11.990  12.946   7.355 -1.4303  1.0617  3.6713
   92MOL0     H12128  12.352  12.579   7.030 -2.9771  1.1193  0.1299
   92MOL0     H12129  12.351  12.319   6.983  0.6294  0.1378  0.3629
   92MOL0     H12130  10.707  11.202   6.642 -3.2081 -0.9494  0.5220
   92MOL0     H12131  10.492  11.260   6.566  0.9029 -0.9582  3.0859
   92MOL0     H12132  10.214  11.701   6.457 -1.2224 -0.1489  2.8141
   92MOL0     H12133   9.998  11.779   6.405  1.2458  0.6246 -4.4408
   92MOL0     H12134   9.823  11.794   6.254  0.7004 -0.8912 -0.1107
   92MOL0     H12135   9.749  11.811   6.414 -0.4081  0.4028  0.0089
   92MOL0     H12136   9.623  11.687   6.178  3.6147 -1.7690  1.9108
   92MOL0     H12137   9.547  11.712   6.341  0.2431  0.6050  0.1048
   92MOL0     H12138   9.646  11.938   6.165 -1.5004  1.7312 -0.8947
   92MOL0     H12139   9.564  11.949   6.318 -1.8058  0.5312 -0.9694
   92MOL0     H12140   9.396  11.982   6.138 -3.1887 -2.6351 -1.9878
   92MOL0     H12141   9.431  11.824   6.069  3.3295 -0.8666  0.0725
   92MOL0     H12142   9.209  11.781   6.447  3.2708  1.0063  0.7089
   92MOL0     H12143   9.860  11.358   6.346  1.6206 -1.9572  1.3606
   92MOL0     H12144  10.081  11.290   6.391 -0.1512 -0.6489 -0.2047
   93MOL0     O12145   7.754   5.695  11.098  0.0194 -0.2990  0.0735
   93MOL0     C12146   7.843   5.640  11.160  0.1572 -0.9036  0.6583
   93MOL0     O12147   7.827   5.601  11.293  0.5806  0.3977 -1.1344
   93MOL0     C12148   7.718   5.660  11.354  0.2790 -1.1537 -0.3232
   93MOL0     C12149   7.715   5.802  11.398 -0.1440  0.2312 -0.5005
   93MOL0     C12150   7.606   5.847  11.477  0.4088  0.3337 -0.5464
   93MOL0     C12151   7.495   5.768  11.509 -0.1579  0.9427  0.1295
   93MOL0     O12152   7.391   5.825  11.580  0.2981 -0.1568 -0.3114
   93MOL0     C12153   7.417   5.846  11.712  0.5768 -0.8603  1.2251
   93MOL0     C12154   7.383   5.730  11.802  0.1538 -0.5959 -0.0595
   93MOL0     C12155   7.509   5.683  11.859  0.2984 -0.1352  0.8576
   93MOL0     C12156   7.477   5.568  11.965 -0.5803  0.5840  1.1542
   93MOL0     C12157   7.616   5.496  11.997 -0.1162 -0.0604  0.6172
   93MOL0     C12158   7.715   5.580  12.083 -0.1245  0.2702  0.7043
   93MOL0     C12159   7.819   5.496  12.161 -0.5330 -0.3492 -0.6944
   93MOL0     C12160   7.750   5.429  12.280  0.1420  0.6421 -0.7778
   93MOL0     N12161   7.848   5.340  12.355  0.6063  0.2210  0.9136
   93MOL0     C12162   7.917   5.230  12.301  0.0848 -0.7882  0.9409
   93MOL0     C12163   8.008   5.202  12.391 -0.1430 -0.3575 -0.6146
   93MOL0     C12164   8.130   5.109  12.400  0.3182  0.0369  0.1515
   93MOL0     C12165   8.225   5.081  12.284  0.2235 -0.3225  0.3937
   93MOL0     C12166   8.194   4.950  12.224  0.3293 -0.3077  0.2950
   93MOL0     C12167   8.288   4.889  12.123  0.3510  0.0409  0.4193
   93MOL0     O12168   8.260   4.975  12.005  0.3275 -0.7213 -0.4707
   93MOL0     C12169   8.361   4.970  11.918  0.0544  0.4594  0.7501
   93MOL0     C12170   8.337   4.883  11.818 -0.4715 -0.3692  0.8132
   93MOL0     C12171   8.431   4.890  11.712 -0.3027 -0.3915 -0.3840
   93MOL0     C12172   8.547   4.990  11.715 -0.0231 -0.1566  0.7231
   93MOL0     C12173   8.642   4.987  11.603 -0.6856 -0.6614  0.6356
   93MOL0     O12174   8.599   4.912  11.493 -0.5064  0.4803 -0.0815
   93MOL0     C12175   8.699   4.871  11.411  0.6223  0.4464  0.1702
   93MOL0     C12176   8.758   4.740  11.427  0.8586  0.2268 -0.8628
   93MOL0     C12177   8.873   4.697  11.355 -0.3632 -0.0143 -0.2600
   93MOL0     C12178   8.908   4.775  11.237 -0.7079 -0.5628 -0.2816
   93MOL0     O12179   9.009   4.736  11.148 -0.3141  0.0544  0.3534
   93MOL0     C12180   9.026   4.603  11.115 -0.0442  0.8253 -1.2041
   93MOL0     C12181   8.910   4.532  11.050  0.8019 -0.3431 -0.0977
   93MOL0     C12182   8.897   4.381  11.077 -0.6549 -0.1805 -0.0570
   93MOL0     C12183   9.008   4.298  11.004  0.6380  0.0233 -0.1385
   93MOL0     C12184   8.997   4.146  11.038 -0.0761  0.1888 -0.1226
   93MOL0     C12185   8.909   4.073  10.932  0.0005 -0.0283 -1.1914
   93MOL0     C12186   8.854   3.937  10.984 -1.0394 -0.0515  0.9974
   93MOL0     C12187   8.783   3.847  10.888 -0.2016  0.2275 -0.6634
   93MOL0    Cl12188   8.885   3.820  10.744  0.0432  0.2492 -0.3227
   93MOL0     C12189   8.847   4.901  11.226 -0.3134  1.0989 -0.1754
   93MOL0     C12190   8.747   4.949  11.303 -0.0302  0.0018 -0.3277
   93MOL0     O12191   8.759   5.041  11.621 -0.1888  0.4281 -0.4739
   93MOL0     C12192   8.561   5.072  11.829  0.4877  0.1226 -0.4118
   93MOL0     C12193   8.460   5.060  11.930  0.5851 -0.4474 -0.6755
   93MOL0     N12194   7.991   5.287  12.500 -0.2529 -0.0415  0.0973
   93MOL0     N12195   7.893   5.366  12.479  0.9566 -0.8340 -0.5540
   93MOL0     C12196   7.501   5.629  11.464 -0.0479  0.4955 -0.1852
   93MOL0     C12197   7.608   5.583  11.396  0.6125  0.1358  1.4043
   93MOL0     C12198   7.964   5.610  11.090  0.7384 -0.9707  0.6208
   93MOL0     C12199   7.975   5.617  10.950  1.5296  0.5066 -0.2154
   93MOL0     C12200   8.098   5.587  10.884 -0.0525  1.1924 -0.6246
   93MOL0     C12201   8.207   5.561  10.955  0.5722 -0.9505  0.2362
   93MOL0     O12202   8.331   5.552  10.911 -1.1357  1.0985  0.4191
   93MOL0     C12203   8.348   5.440  10.818  0.3567 -0.2648  0.1168
   93MOL0     C12204   8.480   5.370  10.850  0.2614  0.6540 -0.9978
   93MOL0     C12205   8.490   5.325  11.005 -0.3745 -0.5196 -0.8355
   93MOL0     C12206   8.570   5.197  11.036  0.1646  0.3153  0.3193
   93MOL0     C12207   8.715   5.218  11.034  0.0835 -0.6023 -0.8967
   93MOL0     C12208   8.831   5.253  11.024 -0.4903 -0.5859 -0.2647
   93MOL0     C12209   8.201   5.549  11.096  0.1121 -0.9408  0.1815
   93MOL0     C12210   8.073   5.561  11.166  0.1137 -1.2806 -0.3980
   93MOL0     H12211   7.792   5.867  11.358 -0.5516  1.5447  0.7634
   93MOL0     H12212   7.603   5.953  11.498 -0.5429 -0.1894  2.5459
   93MOL0     H12213   7.336   5.915  11.737  0.8817 -0.9112  2.4056
   93MOL0     H12214   7.510   5.904  11.721 -0.6206  2.1837 -2.9740
   93MOL0     H12215   7.334   5.650  11.747  0.7699 -1.0150 -0.0134
   93MOL0     H12216   7.316   5.761  11.883  1.2477  0.4834  0.4712
   93MOL0     H12217   7.571   5.764  11.897  1.5204 -0.0666 -1.1398
   93MOL0     H12218   7.568   5.644  11.776  0.4149 -0.5062  1.1140
   93MOL0     H12219   7.425   5.602  12.056 -2.2574 -0.4716  0.6333
   93MOL0     H12220   7.415   5.496  11.911 -1.2630  0.8997  1.4971
   93MOL0     H12221   7.672   5.469  11.907 -1.3957  0.3717 -0.3364
   93MOL0     H12222   7.595   5.405  12.054  0.1303 -0.3461  0.2537
   93MOL0     H12223   7.651   5.652  12.135 -2.2485  0.2265 -1.6678
   93MOL0     H12224   7.779   5.639  12.017 -3.7113  1.5846 -1.9021
   93MOL0     H12225   7.863   5.420  12.096 -2.3142 -0.1448 -2.2159
   93MOL0     H12226   7.896   5.558  12.208 -0.7740 -1.1507  0.8145
   93MOL0     H12227   7.664   5.370  12.246 -0.1466 -1.1255  2.5800
   93MOL0     H12228   7.716   5.509  12.347 -1.0840 -1.9631  1.9446
   93MOL0     H12229   7.905   5.168  12.212 -0.9791  0.7976 -0.0696
   93MOL0     H12230   8.091   5.015  12.440  0.4430  0.9431  2.5240
   93MOL0     H12231   8.188   5.145  12.485  1.2990  0.0513 -0.5064
   93MOL0     H12232   8.328   5.067  12.316 -0.6779 -2.1280  2.7462
   93MOL0     H12233   8.212   5.170  12.220 -1.1795 -0.7126  0.0986
   93MOL0     H12234   8.192   4.880  12.309  3.6916  1.2244  1.8162
   93MOL0     H12235   8.099   4.948  12.170  2.0712  1.2462 -3.1004
   93MOL0     H12236   8.260   4.785  12.104  0.3193  0.5260 -2.7484
   93MOL0     H12237   8.393   4.893  12.153  0.4247  0.1329  0.1503
   93MOL0     H12238   8.246   4.823  11.821 -0.0079 -1.3612 -2.0525
   93MOL0     H12239   8.411   4.830  11.623 -1.9690 -0.4853  0.0295
   93MOL0     H12240   8.738   4.674  11.511 -1.9018  0.7733 -0.9982
   93MOL0     H12241   8.925   4.605  11.378 -0.7071 -0.4483 -1.1913
   93MOL0     H12242   9.048   4.549  11.208 -2.3916 -0.8068 -1.4881
   93MOL0     H12243   9.104   4.588  11.040 -1.0909 -0.1793 -2.1525
   93MOL0     H12244   8.902   4.543  10.941 -0.3850  1.5374  0.1220
   93MOL0     H12245   8.821   4.590  11.077  0.5568  0.4084 -2.2912
   93MOL0     H12246   8.799   4.345  11.044 -1.1276 -1.2667  2.3470
   93MOL0     H12247   8.897   4.375  11.186  1.0023  0.0155 -0.0252
   93MOL0     H12248   9.012   4.304  10.895  3.6719  1.9205 -0.0447
   93MOL0     H12249   9.109   4.325  11.037 -0.1069  1.3175  1.1663
   93MOL0     H12250   8.957   4.131  11.139  3.9772  0.5502  1.7480
   93MOL0     H12251   9.100   4.110  11.035 -1.1224 -3.0996 -0.0856
   93MOL0     H12252   8.976   4.063  10.846 -0.1197  0.0112 -1.2902
   93MOL0     H12253   8.825   4.137  10.903 -1.3611 -0.3995  1.5905
   93MOL0     H12254   8.938   3.879  11.025 -0.0109 -0.6226 -1.7184
   93MOL0     H12255   8.794   3.966  11.071 -1.4378  1.5216  0.2183
   93MOL0     H12256   8.685   3.884  10.854 -0.1162  2.0372  0.9455
   93MOL0     H12257   8.777   3.749  10.935 -2.9584  1.3792  1.6558
   93MOL0     H12258   8.875   4.966  11.143 -3.8997  2.1470 -0.7389
   93MOL0     H12259   8.716   5.048  11.274  0.5319 -0.3459 -2.2347
   93MOL0     H12260   8.648   5.135  11.843  2.0759 -1.4116 -2.6920
   93MOL0     H12261   8.458   5.116  12.023 -0.9459  2.1967 -2.1885
   93MOL0     H12262   7.422   5.564  11.500 -0.7761 -0.9991 -3.9792
   93MOL0     H12263   7.600   5.479  11.365 -3.6017  0.8438 -0.6337
   93MOL0     H12264   7.884   5.617  10.892 -0.7903  1.3597  3.1153
   93MOL0     H12265   8.123   5.596  10.779  2.0569  2.1049 -0.1112
   93MOL0     H12266   8.354   5.471  10.713  2.8975  0.8378  0.5071
   93MOL0     H12267   8.265   5.374  10.844  0.2816  0.7392  2.7072
   93MOL0     H12268   8.488   5.279  10.790  4.1061  0.1388  0.0391
   93MOL0     H12269   8.571   5.426  10.829 -0.5403  1.7912 -1.5296
   93MOL0     H12270   8.390   5.306  11.045 -0.2023  0.7736  0.2843
   93MOL0     H12271   8.528   5.407  11.066 -2.2709 -0.7903  0.7992
   93MOL0     H12272   8.531   5.151  11.128 -2.7593 -0.2342 -1.0894
   93MOL0     H12273   8.549   5.114  10.967  2.7291 -2.4475  2.5537
   93MOL0     H12274   8.928   5.297  11.037 -0.0755 -1.4322 -0.4027
   93MOL0     H12275   8.300   5.527  11.136 -0.8075 -0.7356  2.8043
   93MOL0     H12276   8.056   5.547  11.272  0.6955  2.3907  0.2976
   94MOL0     O12277   7.918   1.039  11.002  0.1334 -0.2184 -0.6234
   94MOL0     C12278   7.874   0.945  11.072 -1.1330 -0.2644  0.3039
   94MOL0     O12279   7.751   0.927  11.125 -0.7529  0.8717 -0.3490
   94MOL0     C12280   7.654   1.024  11.091 -0.1656 -0.1020  0.0245
   94MOL0     C12281   7.616   1.112  11.187 -0.6081 -0.3699  0.0515
   94MOL0     C12282   7.524   1.203  11.170  0.3261 -0.4327  0.1067
   94MOL0     C12283   7.484   1.234  11.030 -0.1675 -0.1281 -0.6147
   94MOL0     O12284   7.413   1.342  10.997 -1.0316 -0.6391 -0.1579
   94MOL0     C12285   7.397   1.453  11.089  0.3543 -0.8841  0.1542
   94MOL0     C12286   7.327   1.568  10.998  0.1910 -0.0103 -0.3263
   94MOL0     C12287   7.185   1.525  10.933  0.5316  0.1651 -0.7694
   94MOL0     C12288   7.081   1.446  11.017  0.6207  0.0933  0.1779
   94MOL0     C12289   7.049   1.528  11.144 -1.0071  0.0897  0.5107
   94MOL0     C12290   6.954   1.453  11.236  0.4249  0.0731  0.3063
   94MOL0     C12291   6.830   1.378  11.169 -0.0199 -0.1242  0.1085
   94MOL0     C12292   6.747   1.293  11.272 -1.0450  0.7142 -0.7887
   94MOL0     N12293   6.809   1.174  11.337  0.0608  0.3584 -1.1142
   94MOL0     C12294   6.911   1.188  11.420 -0.3864 -0.5995 -0.2267
   94MOL0     C12295   6.979   1.068  11.410  0.4014 -0.5998 -0.6350
   94MOL0     C12296   7.085   1.036  11.510  0.2251  1.0431  0.6499
   94MOL0     C12297   7.227   1.034  11.453 -0.2940 -0.5509  0.0825
   94MOL0     C12298   7.251   0.933  11.336 -0.7945  0.4038 -0.0879
   94MOL0     C12299   7.378   0.849  11.339 -0.1495 -0.7259  0.1842
   94MOL0     O12300   7.361   0.751  11.448 -0.3591 -0.0507 -0.4777
   94MOL0     C12301   7.467   0.693  11.508 -0.2772  0.3122  0.1504
   94MOL0     C12302   7.570   0.636  11.436  0.4503 -0.0004 -0.2565
   94MOL0     C12303   7.677   0.574  11.497  0.6875 -0.0860 -0.4652
   94MOL0     C12304   7.678   0.556  11.639  0.3800 -0.3870  0.0705
   94MOL0     C12305   7.782   0.475  11.705 -0.4020 -0.3881  0.6581
   94MOL0     O12306   7.907   0.464  11.637  0.9624 -0.2042  0.5219
   94MOL0     C12307   8.009   0.379  11.679 -0.1829  0.4027 -0.5617
   94MOL0     C12308   8.135   0.404  11.632 -0.2344 -1.0573 -0.0502
   94MOL0     C12309   8.246   0.323  11.669  0.1135  0.2034 -0.7124
   94MOL0     C12310   8.228   0.214  11.754 -0.5283 -0.0500 -0.1844
   94MOL0     O12311   8.330   0.126  11.791  1.0810  0.0920 -0.2858
   94MOL0     C12312   8.432   0.107  11.689  0.1808 -0.0764  0.4338
   94MOL0     C12313   8.499  -0.024  11.729  1.1675  0.5673  0.4682
   94MOL0     C12314   8.607  -0.084  11.627 -0.3241  0.2386  0.5974
   94MOL0     C12315   8.738  -0.112  11.700 -0.4683 -0.2904 -0.4196
   94MOL0     C12316   8.845  -0.199  11.627  0.4549 -0.1537  0.8637
   94MOL0     C12317   8.965  -0.222  11.715 -0.3650 -0.1964  0.9824
   94MOL0     C12318   9.073  -0.299  11.633  0.0272 -0.5191  0.8218
   94MOL0     C12319   9.142  -0.213  11.520 -0.2722 -0.2873  1.3116
   94MOL0    Cl12320   9.251  -0.095  11.582 -0.2092 -0.6492  0.6430
   94MOL0     C12321   8.099   0.198  11.805 -0.1825  0.6705  0.0079
   94MOL0     C12322   7.994   0.273  11.777 -0.0890 -0.6536 -0.5589
   94MOL0     O12323   7.759   0.438  11.818 -0.1066 -0.1412  0.1751
   94MOL0     C12324   7.571   0.613  11.712  0.1193 -0.6469 -1.0565
   94MOL0     C12325   7.468   0.681  11.645 -0.1572 -0.2440 -0.4181
   94MOL0     N12326   6.900   0.984  11.339  0.2026  0.3388 -0.0395
   94MOL0     N12327   6.805   1.046  11.285 -0.1615 -0.4929 -0.3292
   94MOL0     C12328   7.527   1.144  10.928 -0.7289 -0.9294 -0.1868
   94MOL0     C12329   7.604   1.034  10.967 -0.3023 -0.6127  0.5340
   94MOL0     C12330   7.968   0.839  11.106  0.2307  1.1358  0.8477
   94MOL0     C12331   8.109   0.856  11.101  0.8174  0.5823 -0.2403
   94MOL0     C12332   8.198   0.755  11.127  0.0694  0.4209  0.3063
   94MOL0     C12333   8.151   0.625  11.158 -0.2898  0.2166 -0.6217
   94MOL0     O12334   8.234   0.521  11.207 -0.4321 -0.4290 -0.0941
   94MOL0     C12335   8.376   0.534  11.189  0.3197  0.1839 -0.3684
   94MOL0     C12336   8.442   0.411  11.250 -0.5321  0.8271  0.6999
   94MOL0     C12337   8.417   0.286  11.164  0.1773 -1.1227  0.0250
   94MOL0     C12338   8.470   0.164  11.238  0.6345 -0.0891 -0.1758
   94MOL0     C12339   8.416   0.034  11.193 -0.8170  0.1613 -0.5382
   94MOL0     C12340   8.383  -0.065  11.129  1.1620  0.4823 -0.6734
   94MOL0     C12341   8.015   0.608  11.152  0.4131 -0.0205  0.2622
   94MOL0     C12342   7.921   0.706  11.116  0.1830 -0.6695 -0.3522
   94MOL0     H12343   7.655   1.085  11.284 -0.5987 -0.1520  0.1074
   94MOL0     H12344   7.497   1.261  11.257  1.4998 -2.5210  1.9461
   94MOL0     H12345   7.484   1.493  11.142  0.2953 -2.3314  1.4104
   94MOL0     H12346   7.340   1.421  11.177  1.6203 -0.2310  1.2580
   94MOL0     H12347   7.402   1.603  10.927  1.6343 -3.2762 -0.5913
   94MOL0     H12348   7.315   1.650  11.070 -1.9285  0.3619 -1.0309
   94MOL0     H12349   7.212   1.466  10.845 -0.7763 -1.0193 -0.4131
   94MOL0     H12350   7.131   1.615  10.902 -0.4362 -1.0299 -2.7641
   94MOL0     H12351   6.992   1.434  10.955  0.9837  1.7364 -0.7189
   94MOL0     H12352   7.120   1.346  11.041  0.7535 -1.2374 -4.5402
   94MOL0     H12353   7.006   1.628  11.134 -1.1007 -0.0344 -0.3320
   94MOL0     H12354   7.142   1.534  11.201 -0.6263 -0.9131  0.0124
   94MOL0     H12355   6.922   1.524  11.313  0.6986 -3.5604  4.0979
   94MOL0     H12356   7.013   1.386  11.299 -1.5890 -1.6609  0.4312
   94MOL0     H12357   6.764   1.449  11.118 -0.1872  0.4070  1.0509
   94MOL0     H12358   6.871   1.309  11.095  1.1233 -0.4030  0.9706
   94MOL0     H12359   6.660   1.256  11.218 -1.1353  1.9217 -1.5183
   94MOL0     H12360   6.711   1.357  11.353  0.9354  1.0823 -0.1447
   94MOL0     H12361   6.928   1.266  11.494  0.1783 -1.0901  0.1820
   94MOL0     H12362   7.068   0.936  11.551  0.5683 -0.1040 -1.8223
   94MOL0     H12363   7.093   1.121  11.578  0.9889  1.4727  0.0511
   94MOL0     H12364   7.307   1.004  11.521  2.6579  3.6418 -1.1644
   94MOL0     H12365   7.264   1.126  11.408 -1.9497  0.7800  1.2671
   94MOL0     H12366   7.168   0.862  11.346 -1.9072  1.9236  2.8044
   94MOL0     H12367   7.262   0.989  11.243 -0.0864 -0.1205 -0.3219
   94MOL0     H12368   7.468   0.911  11.345 -0.3908 -0.4872  3.1497
   94MOL0     H12369   7.370   0.799  11.242 -2.9817 -0.4136  0.1678
   94MOL0     H12370   7.556   0.631  11.329 -1.1435  1.0518 -0.1407
   94MOL0     H12371   7.752   0.521  11.440  1.8926  1.6286 -0.5423
   94MOL0     H12372   8.140   0.503  11.587 -1.7484 -0.5252  0.8927
   94MOL0     H12373   8.348   0.346  11.641 -0.7606  3.6960 -1.5560
   94MOL0     H12374   8.502   0.191  11.692  0.5715 -0.4284  1.9958
   94MOL0     H12375   8.387   0.098  11.590 -0.3108 -0.9723  0.7298
   94MOL0     H12376   8.430  -0.107  11.742  1.2554  0.3586 -0.3272
   94MOL0     H12377   8.551  -0.008  11.824 -1.1407 -0.8446  2.0692
   94MOL0     H12378   8.624  -0.022  11.539 -2.8938  0.1817 -0.0262
   94MOL0     H12379   8.572  -0.181  11.588  0.9946 -0.1884  0.4214
   94MOL0     H12380   8.778  -0.011  11.718 -0.6305 -0.6584  2.6294
   94MOL0     H12381   8.715  -0.147  11.801  1.7363 -0.8624 -0.0543
   94MOL0     H12382   8.861  -0.150  11.530 -2.9290  0.8108  0.6483
   94MOL0     H12383   8.791  -0.291  11.604 -0.2286  0.3489  0.4043
   94MOL0     H12384   8.937  -0.274  11.808  0.9498 -1.5536  0.6626
   94MOL0     H12385   9.004  -0.120  11.726 -0.2502 -0.1562  0.2039
   94MOL0     H12386   9.159  -0.333  11.693  0.4395 -1.8257 -0.4356
   94MOL0     H12387   9.026  -0.386  11.586 -0.8855  0.4074 -0.0139
   94MOL0     H12388   9.078  -0.156  11.453  2.1106  0.9405 -0.0689
   94MOL0     H12389   9.204  -0.284  11.464 -0.6407  0.1004  0.4141
   94MOL0     H12390   8.073   0.124  11.879 -0.7007 -1.9931 -2.6380
   94MOL0     H12391   7.898   0.265  11.826 -0.2324  1.8801 -0.2803
   94MOL0     H12392   7.555   0.606  11.819 -3.3223  0.9172 -1.3086
   94MOL0     H12393   7.374   0.704  11.694 -0.6043 -1.3605 -0.7191
   94MOL0     H12394   7.498   1.142  10.823 -1.1563  1.5590 -0.1800
   94MOL0     H12395   7.633   0.962  10.891 -1.5503 -2.7456  1.9921
   94MOL0     H12396   8.131   0.963  11.100  2.6483  0.2920  1.3233
   94MOL0     H12397   8.302   0.778  11.111  0.2455  0.1315  1.0116
   94MOL0     H12398   8.414   0.622  11.242 -2.7288  2.5885 -1.7991
   94MOL0     H12399   8.414   0.540  11.086 -1.5313  1.1406 -1.0558
   94MOL0     H12400   8.548   0.434  11.235 -0.3524  1.6434  2.9242
   94MOL0     H12401   8.423   0.386  11.354 -3.0631  1.0464  0.3578
   94MOL0     H12402   8.474   0.297  11.072  2.2357  2.4403  1.5475
   94MOL0     H12403   8.310   0.282  11.141  0.0605  1.6950 -0.1573
   94MOL0     H12404   8.579   0.152  11.240  0.5898 -0.6821  2.5528
   94MOL0     H12405   8.446   0.160  11.345  0.3523 -1.6044 -0.2726
   94MOL0     H12406   8.351  -0.146  11.067 -1.5224 -0.4022  1.6691
   94MOL0     H12407   7.968   0.515  11.184 -0.1615  0.5233  1.0470
   94MOL0     H12408   7.815   0.696  11.133  0.1986 -1.7493 -0.8547
   95MOL0     O12409   4.199   2.613   4.251  0.4255 -0.3571  0.2530
   95MOL0     C12410   4.271   2.571   4.340  0.7245 -0.2085 -0.0365
   95MOL0     O12411   4.224   2.530   4.469 -0.2544  0.0270 -0.0886
   95MOL0     C12412   4.087   2.548   4.507 -0.3883  0.1357  0.9255
   95MOL0     C12413   3.979   2.581   4.427  0.9799 -0.2599  1.2588
   95MOL0     C12414   3.851   2.599   4.478 -0.4175  0.7716  1.2511
   95MOL0     C12415   3.820   2.583   4.613 -0.1337  0.9933  0.2977
   95MOL0     O12416   3.700   2.598   4.662  0.3097 -0.1205  0.1256
   95MOL0     C12417   3.648   2.512   4.754  0.1187  0.8084 -0.1879
   95MOL0     C12418   3.532   2.589   4.833 -0.5393 -0.3148 -0.2788
   95MOL0     C12419   3.419   2.491   4.874  0.6046 -0.3334  0.1510
   95MOL0     C12420   3.320   2.574   4.955 -0.2152 -0.5684 -0.2390
   95MOL0     C12421   3.190   2.503   4.978  0.3138 -0.1763 -0.1939
   95MOL0     C12422   3.208   2.370   5.058 -0.0559 -0.9164 -0.2382
   95MOL0     C12423   3.085   2.319   5.122  0.8175  0.2310  0.1973
   95MOL0     C12424   3.027   2.408   5.235 -0.4853  0.3503  0.1600
   95MOL0     N12425   2.930   2.329   5.319 -0.5902  0.0749 -0.1564
   95MOL0     C12426   2.966   2.263   5.440 -0.5239  0.2998  0.2185
   95MOL0     C12427   2.848   2.205   5.473  0.2307 -0.4984 -0.4373
   95MOL0     C12428   2.828   2.122   5.596  1.0513 -0.1719  1.4570
   95MOL0     C12429   2.682   2.057   5.601  0.3234 -0.6072  0.1106
   95MOL0     C12430   2.657   1.993   5.739  0.6772  0.3652  0.1820
   95MOL0     C12431   2.599   2.099   5.831  1.4148 -0.0254  0.2376
   95MOL0     O12432   2.547   2.053   5.948 -0.2299 -0.3039  0.0722
   95MOL0     C12433   2.428   1.992   5.954 -0.7768  0.2592 -0.2959
   95MOL0     C12434   2.377   1.957   6.082 -1.3088 -0.7939 -0.7205
   95MOL0     C12435   2.243   1.911   6.098 -0.6890  1.7630  0.4289
   95MOL0     C12436   2.159   1.894   5.987 -1.6694 -0.4611  0.0066
   95MOL0     C12437   2.019   1.829   5.998 -0.9994 -0.4515  0.3048
   95MOL0     O12438   1.985   1.761   6.118 -0.3723 -0.3196  0.7058
   95MOL0     C12439   1.859   1.706   6.143  1.3278  0.0156 -0.9221
   95MOL0     C12440   1.731   1.735   6.069  0.0105  0.0909 -0.4838
   95MOL0     C12441   1.612   1.683   6.109 -0.8331  0.2788  0.0050
   95MOL0     C12442   1.613   1.583   6.209 -0.8487  1.1105 -0.6562
   95MOL0     O12443   1.491   1.520   6.231 -0.2785 -0.8277  1.1532
   95MOL0     C12444   1.485   1.398   6.153  1.1696  0.0739  0.2145
   95MOL0     C12445   1.349   1.329   6.187  0.7331 -1.2969 -0.1976
   95MOL0     C12446   1.369   1.223   6.298 -0.3465  0.0346 -0.6947
   95MOL0     C12447   1.239   1.207   6.377  0.5573 -0.0077  0.0828
   95MOL0     C12448   1.125   1.146   6.287 -0.9100  0.2289  0.6863
   95MOL0     C12449   0.990   1.218   6.314 -0.5093  0.0981  0.4106
   95MOL0     C12450   0.875   1.137   6.260  0.8757  0.0131  0.6047
   95MOL0     C12451   0.743   1.177   6.327 -0.0111 -0.1563 -0.0945
   95MOL0    Cl12452   0.734   1.352   6.315  0.2236  0.1420  0.2054
   95MOL0     C12453   1.729   1.548   6.272 -0.1335  0.5854  0.3052
   95MOL0     C12454   1.851   1.612   6.249 -0.8344  0.5619 -0.5483
   95MOL0     O12455   1.946   1.844   5.900  0.0592 -0.0113  0.3329
   95MOL0     C12456   2.212   1.925   5.854  0.3166 -0.5511 -0.1646
   95MOL0     C12457   2.344   1.980   5.842  0.3915  0.3308  0.4268
   95MOL0     N12458   2.754   2.223   5.367 -0.0857  0.1583 -1.4387
   95MOL0     N12459   2.798   2.302   5.289  0.0714 -0.8172  0.3710
   95MOL0     C12460   3.930   2.556   4.687 -0.2690 -0.0920 -0.2652
   95MOL0     C12461   4.061   2.530   4.647 -0.2215 -0.6336 -0.1976
   95MOL0     C12462   4.417   2.547   4.317 -0.1198 -0.7116  0.1314
   95MOL0     C12463   4.480   2.579   4.197 -0.0615 -0.3896 -0.3126
   95MOL0     C12464   4.613   2.542   4.173  0.3230 -0.3514 -0.3148
   95MOL0     C12465   4.684   2.466   4.264  1.0088 -0.7357 -0.8920
   95MOL0     O12466   4.810   2.425   4.223 -0.3089  0.1324  0.1371
   95MOL0     C12467   4.903   2.413   4.333  0.1152  0.1037 -0.4351
   95MOL0     C12468   4.927   2.553   4.392 -0.3944  0.2829  0.2521
   95MOL0     C12469   4.973   2.660   4.291 -0.8148  0.4852  0.4851
   95MOL0     C12470   5.030   2.787   4.354  0.5587 -0.3927  1.1535
   95MOL0     C12471   5.148   2.759   4.443  0.0950  0.1990  0.1062
   95MOL0     C12472   5.229   2.740   4.532  0.6128  0.5802 -0.2292
   95MOL0     C12473   4.623   2.436   4.396  0.7104  0.3123 -1.3107
   95MOL0     C12474   4.487   2.483   4.422  0.2883  0.5217 -0.2819
   95MOL0     H12475   3.994   2.573   4.320 -0.5089 -2.9525  1.1636
   95MOL0     H12476   3.765   2.599   4.411 -0.8772  4.0627  1.6720
   95MOL0     H12477   3.728   2.480   4.821  1.2520  0.8466 -1.4851
   95MOL0     H12478   3.611   2.429   4.694 -0.7451  1.6213 -0.8108
   95MOL0     H12479   3.482   2.664   4.772 -2.3250 -1.5977 -0.4809
   95MOL0     H12480   3.567   2.646   4.920 -1.9952  0.5046 -0.2100
   95MOL0     H12481   3.452   2.405   4.933  0.9545 -0.2837  0.0297
   95MOL0     H12482   3.367   2.445   4.789  0.2170 -0.0777  0.2470
   95MOL0     H12483   3.367   2.612   5.047  1.3655 -0.8556 -0.9055
   95MOL0     H12484   3.303   2.669   4.904  0.3758 -0.5552 -0.4210
   95MOL0     H12485   3.142   2.479   4.883 -1.4909 -2.1234  1.1253
   95MOL0     H12486   3.129   2.577   5.031  1.4748  0.1543  0.7221
   95MOL0     H12487   3.277   2.400   5.137 -2.4008  2.6091  0.7475
   95MOL0     H12488   3.232   2.287   4.991 -1.1027 -1.7603  0.4024
   95MOL0     H12489   3.007   2.301   5.047  0.6345 -0.5662  0.5608
   95MOL0     H12490   3.096   2.215   5.156  0.4482  0.6546  1.6631
   95MOL0     H12491   2.979   2.497   5.193  0.3212  0.0731 -1.4369
   95MOL0     H12492   3.114   2.437   5.293  2.0175 -3.8152 -1.0863
   95MOL0     H12493   3.060   2.252   5.493 -0.7953 -3.3014  0.1873
   95MOL0     H12494   2.859   2.178   5.685  5.2054 -1.3702  0.9522
   95MOL0     H12495   2.892   2.034   5.584 -2.4665 -2.6179 -1.6023
   95MOL0     H12496   2.668   1.984   5.521 -1.1368 -1.4006  1.0546
   95MOL0     H12497   2.619   2.144   5.582  1.1846  0.4809  1.9903
   95MOL0     H12498   2.581   1.915   5.724  0.0046  1.1374 -0.5479
   95MOL0     H12499   2.741   1.936   5.780 -0.7645 -0.3846  2.2560
   95MOL0     H12500   2.532   2.172   5.786  1.2345 -0.5870 -0.4363
   95MOL0     H12501   2.682   2.168   5.850  1.1613  0.3258  0.0641
   95MOL0     H12502   2.438   1.954   6.171 -1.3696  2.2091 -0.4602
   95MOL0     H12503   2.212   1.884   6.199  3.6533 -1.2610  1.2224
   95MOL0     H12504   1.710   1.790   5.978 -1.2314 -0.7032 -0.7172
   95MOL0     H12505   1.516   1.716   6.071 -0.0527  3.7878  0.6886
   95MOL0     H12506   1.567   1.329   6.169  0.7242  0.2021  3.6686
   95MOL0     H12507   1.489   1.420   6.045  0.8019  1.7216  0.5039
   95MOL0     H12508   1.304   1.284   6.099 -0.7832 -1.4648  0.6365
   95MOL0     H12509   1.282   1.404   6.229  1.7455 -2.1506  3.2779
   95MOL0     H12510   1.454   1.229   6.368  0.2820 -3.8283 -0.8935
   95MOL0     H12511   1.387   1.128   6.247 -2.3416 -1.5112  1.2772
   95MOL0     H12512   1.251   1.149   6.469  2.1941  0.4298  0.1609
   95MOL0     H12513   1.209   1.306   6.412  1.3442  0.6919 -1.1454
   95MOL0     H12514   1.112   1.044   6.324 -2.3325 -0.0205 -0.4512
   95MOL0     H12515   1.150   1.144   6.180 -0.3636  3.7451  0.6266
   95MOL0     H12516   0.990   1.316   6.266 -1.8801 -0.6228 -1.1347
   95MOL0     H12517   0.998   1.243   6.420  2.0683 -3.0260  1.1239
   95MOL0     H12518   0.863   1.144   6.151  1.5985  1.1751  0.5919
   95MOL0     H12519   0.895   1.031   6.278 -2.8498 -0.5757  2.0664
   95MOL0     H12520   0.737   1.144   6.431  2.5742  0.2568  0.2543
   95MOL0     H12521   0.670   1.133   6.260  1.0049 -1.3414 -0.4601
   95MOL0     H12522   1.721   1.460   6.335  1.4996 -1.3087 -1.9429
   95MOL0     H12523   1.944   1.583   6.296 -0.7041  0.3628 -0.9235
   95MOL0     H12524   2.156   1.900   5.765 -1.6508 -3.6643  1.7387
   95MOL0     H12525   2.379   1.998   5.741  0.7514 -0.2905  0.4403
   95MOL0     H12526   3.919   2.548   4.795 -1.6688  0.4160 -0.3536
   95MOL0     H12527   4.137   2.485   4.710 -1.4467  1.0204  2.6110
   95MOL0     H12528   4.421   2.625   4.118  0.4767 -0.7734 -0.9547
   95MOL0     H12529   4.668   2.559   4.081  4.8189  2.0825  2.4568
   95MOL0     H12530   4.995   2.368   4.294 -1.0703 -0.6270 -2.5642
   95MOL0     H12531   4.863   2.350   4.413  0.4191 -0.4474 -0.7110
   95MOL0     H12532   4.844   2.584   4.457  0.0153  1.9949 -0.0092
   95MOL0     H12533   5.014   2.535   4.456 -1.3831 -0.3367  1.4735
   95MOL0     H12534   4.897   2.697   4.223 -2.8172 -2.7106  0.7641
   95MOL0     H12535   5.050   2.618   4.226  0.6963  4.7888 -0.8100
   95MOL0     H12536   5.067   2.843   4.268 -1.7960 -0.8323 -0.2393
   95MOL0     H12537   4.950   2.837   4.409  0.5191 -1.3619  2.0063
   95MOL0     H12538   5.314   2.740   4.597  1.4240 -2.6430 -1.1259
   95MOL0     H12539   4.682   2.382   4.468  0.1285 -0.0671 -1.1069
   95MOL0     H12540   4.442   2.464   4.519  0.0044  0.0802 -0.4965
   96MOL0     O12541   8.605   1.429   9.578  0.2021 -0.2024  0.3694
   96MOL0     C12542   8.583   1.314   9.538  0.5475  0.3845  0.3551
   96MOL0     O12543   8.472   1.271   9.469  0.5831 -0.0614  0.1820
   96MOL0     C12544   8.383   1.376   9.436 -0.0942  0.2806 -0.0644
   96MOL0     C12545   8.276   1.400   9.523 -0.0882  0.0516 -0.3318
   96MOL0     C12546   8.167   1.486   9.477 -0.6012 -0.4743  0.3790
   96MOL0     C12547   8.170   1.544   9.349 -0.3520 -0.2377  0.3216
   96MOL0     O12548   8.065   1.620   9.306 -0.0148  0.1570  0.3223
   96MOL0     C12549   8.056   1.653   9.166  0.8634  0.0449  0.3788
   96MOL0     C12550   7.904   1.671   9.135 -0.6386  0.3772 -0.0393
   96MOL0     C12551   7.844   1.801   9.190 -0.5138 -0.6773  0.4503
   96MOL0     C12552   7.695   1.802   9.166  0.4649  0.0463  0.1536
   96MOL0     C12553   7.656   1.876   9.049  0.2214 -0.9635  0.8439
   96MOL0     C12554   7.501   1.873   9.020  0.2712  0.1815  0.6530
   96MOL0     C12555   7.476   1.910   8.874  0.1134 -0.1271  0.3706
   96MOL0     C12556   7.338   1.947   8.844  0.0986  0.9862  0.4071
   96MOL0     N12557   7.288   1.977   8.714  0.0721  0.6925 -0.3538
   96MOL0     C12558   7.310   1.901   8.599 -0.7211  0.3842  0.3717
   96MOL0     C12559   7.263   1.977   8.495 -0.8247 -0.4302  0.9740
   96MOL0     C12560   7.285   1.958   8.353  0.9764  0.2376  0.5210
   96MOL0     C12561   7.402   1.874   8.313 -0.6071 -0.6270 -0.3747
   96MOL0     C12562   7.402   1.858   8.162  0.2675  0.4634 -0.4807
   96MOL0     C12563   7.509   1.757   8.109  0.0277  0.4281  0.1027
   96MOL0     O12564   7.471   1.713   7.974  0.7276 -0.0867  0.6531
   96MOL0     C12565   7.542   1.618   7.905  0.3221 -0.2610 -0.0622
   96MOL0     C12566   7.674   1.582   7.946 -0.7145  0.3001 -0.6671
   96MOL0     C12567   7.757   1.502   7.864 -0.1060  1.1384 -0.0681
   96MOL0     C12568   7.694   1.429   7.761  0.2017  0.2579 -0.8729
   96MOL0     C12569   7.768   1.325   7.688 -0.9580  0.4702 -0.5814
   96MOL0     O12570   7.692   1.227   7.625 -0.5876 -0.9215 -0.2385
   96MOL0     C12571   7.749   1.110   7.579 -0.3546  0.7911  0.9259
   96MOL0     C12572   7.784   1.004   7.657 -0.0551  0.7200 -0.6696
   96MOL0     C12573   7.854   0.897   7.612  0.1573 -0.1673  0.2867
   96MOL0     C12574   7.895   0.883   7.487 -1.0133 -0.8267  0.0795
   96MOL0     O12575   7.967   0.773   7.448  0.3062 -0.6749 -0.0562
   96MOL0     C12576   8.105   0.796   7.417 -0.3327 -0.0595  0.0524
   96MOL0     C12577   8.183   0.658   7.415 -0.0109 -0.5011 -0.0203
   96MOL0     C12578   8.245   0.620   7.561  0.7771 -0.1029  0.1274
   96MOL0     C12579   8.305   0.482   7.561  0.0384 -0.6031 -0.1486
   96MOL0     C12580   8.396   0.454   7.675  0.5510  0.0097  0.7628
   96MOL0     C12581   8.476   0.321   7.660  0.1986 -0.8446  0.6044
   96MOL0     C12582   8.611   0.328   7.737  0.7288  0.0684 -0.2616
   96MOL0     C12583   8.692   0.202   7.727  0.4174 -0.6468  0.3802
   96MOL0    Cl12584   8.762   0.153   7.585 -0.1717  0.9763  0.2701
   96MOL0     C12585   7.855   0.977   7.395 -0.4651 -0.2823 -0.2967
   96MOL0     C12586   7.785   1.093   7.440 -0.9755 -0.5894  0.3733
   96MOL0     O12587   7.897   1.320   7.699  0.9994 -1.0576  0.2376
   96MOL0     C12588   7.562   1.460   7.729 -0.3610  0.2730  1.1899
   96MOL0     C12589   7.498   1.565   7.792  0.7818 -0.0035 -0.3641
   96MOL0     N12590   7.215   2.093   8.551  0.1538 -0.2042  0.8737
   96MOL0     N12591   7.255   2.102   8.672  1.1328  0.4535  0.5373
   96MOL0     C12592   8.281   1.519   9.271 -0.1210 -0.1901  0.0495
   96MOL0     C12593   8.383   1.432   9.307  0.3213  0.0988  0.2901
   96MOL0     C12594   8.694   1.211   9.551  0.1306 -2.0220 -0.1001
   96MOL0     C12595   8.823   1.245   9.592  0.2427 -0.1350 -0.7324
   96MOL0     C12596   8.918   1.140   9.598  0.6824  0.3518 -0.2067
   96MOL0     C12597   8.898   1.015   9.550  0.3076  0.4432 -0.2878
   96MOL0     O12598   9.003   0.928   9.568 -0.6028 -1.2791  0.2182
   96MOL0     C12599   8.979   0.792   9.555  0.4863  1.0587  0.5026
   96MOL0     C12600   8.896   0.729   9.670  1.4093  0.7378  0.3256
   96MOL0     C12601   8.884   0.579   9.649 -0.0894 -0.3315 -0.1867
   96MOL0     C12602   8.773   0.526   9.750 -0.4996  0.1908 -0.2312
   96MOL0     C12603   8.791   0.554   9.890  0.6052  0.5112 -0.5309
   96MOL0     C12604   8.805   0.568  10.007 -0.9953 -0.2831 -0.1267
   96MOL0     C12605   8.775   0.987   9.500 -0.2210 -0.4693  0.0215
   96MOL0     C12606   8.674   1.086   9.508  0.3838 -0.2427 -0.0181
   96MOL0     H12607   8.282   1.359   9.623  1.3917 -0.7062 -0.7053
   96MOL0     H12608   8.084   1.512   9.540 -1.2920 -0.2133 -0.6149
   96MOL0     H12609   8.101   1.575   9.105 -0.6454  0.4669 -1.3322
   96MOL0     H12610   8.115   1.742   9.141  0.6121 -0.2067 -1.1962
   96MOL0     H12611   7.850   1.584   9.171 -0.1794 -0.5067 -1.4046
   96MOL0     H12612   7.904   1.664   9.026 -1.4614  2.7434 -0.2513
   96MOL0     H12613   7.895   1.882   9.137 -0.8589  0.5427  1.9252
   96MOL0     H12614   7.866   1.806   9.297 -1.0010 -3.4418  0.7557
   96MOL0     H12615   7.665   1.701   9.135 -1.9890  0.9460 -0.6411
   96MOL0     H12616   7.633   1.834   9.251 -0.5258 -2.0756  0.2965
   96MOL0     H12617   7.699   1.826   8.961 -0.9255 -2.3799  1.0566
   96MOL0     H12618   7.706   1.973   9.059  1.6320 -0.9244 -3.9880
   96MOL0     H12619   7.464   1.945   9.093  2.5824  1.4899  0.6572
   96MOL0     H12620   7.455   1.774   9.030 -1.4784  0.8721 -0.1660
   96MOL0     H12621   7.541   1.992   8.843 -0.7956  0.1226 -0.9395
   96MOL0     H12622   7.489   1.825   8.806 -1.7067 -0.8871  0.9079
   96MOL0     H12623   7.314   2.027   8.915 -0.7722 -0.0442  1.2983
   96MOL0     H12624   7.273   1.863   8.869  0.5690  0.1742 -1.0251
   96MOL0     H12625   7.361   1.805   8.596  2.6342  2.0229  0.3209
   96MOL0     H12626   7.297   2.055   8.304 -1.8334 -0.7422 -2.4627
   96MOL0     H12627   7.195   1.909   8.313  2.6571 -1.5751 -1.3096
   96MOL0     H12628   7.413   1.782   8.370  4.2048 -0.2632 -0.2836
   96MOL0     H12629   7.500   1.912   8.345 -0.2791 -2.1051  0.4425
   96MOL0     H12630   7.299   1.826   8.140 -0.6615  2.5158  0.5595
   96MOL0     H12631   7.407   1.955   8.113 -1.3366  0.1174 -1.3869
   96MOL0     H12632   7.521   1.676   8.182 -2.5145 -1.8966 -1.8716
   96MOL0     H12633   7.605   1.810   8.116  0.5463 -0.3631 -0.7929
   96MOL0     H12634   7.723   1.618   8.036 -1.1209 -0.3040 -0.1989
   96MOL0     H12635   7.860   1.479   7.887 -0.1315 -1.0294 -1.7805
   96MOL0     H12636   7.760   1.022   7.761  0.8598  2.1916 -0.6869
   96MOL0     H12637   7.876   0.818   7.684 -2.6514 -0.9154  0.4804
   96MOL0     H12638   8.152   0.866   7.486 -0.0408  0.0155 -0.2217
   96MOL0     H12639   8.103   0.841   7.318 -0.6563  0.3227  0.2275
   96MOL0     H12640   8.251   0.658   7.330 -2.0759  1.0615 -1.7786
   96MOL0     H12641   8.105   0.586   7.386  1.5034 -1.1870 -2.6182
   96MOL0     H12642   8.175   0.626   7.644  2.0293  2.5067  1.1076
   96MOL0     H12643   8.304   0.707   7.593 -2.9511  2.5334  0.4246
   96MOL0     H12644   8.231   0.403   7.545 -3.1641  1.6208  2.2949
   96MOL0     H12645   8.375   0.481   7.477  0.4670  1.0986  0.1629
   96MOL0     H12646   8.348   0.462   7.772  0.7305  0.1332  0.8436
   96MOL0     H12647   8.470   0.534   7.683 -0.4366  0.9767  0.4322
   96MOL0     H12648   8.494   0.298   7.554  2.6135  0.5237  0.6413
   96MOL0     H12649   8.422   0.245   7.717  2.9724 -2.2893  1.5240
   96MOL0     H12650   8.673   0.412   7.702  1.0878 -0.3938 -0.7467
   96MOL0     H12651   8.587   0.351   7.841  1.6872  1.7749 -0.3695
   96MOL0     H12652   8.634   0.115   7.760 -0.0801 -0.5129 -0.1251
   96MOL0     H12653   8.770   0.224   7.800  1.3091  1.7218 -1.1577
   96MOL0     H12654   7.874   0.971   7.288 -0.9377  0.7360 -0.4464
   96MOL0     H12655   7.775   1.184   7.381  2.6715 -0.0494  0.3621
   96MOL0     H12656   7.509   1.425   7.641 -0.1514  3.2894 -0.2894
   96MOL0     H12657   7.410   1.601   7.738 -0.8827 -4.0262 -0.7094
   96MOL0     H12658   8.291   1.566   9.174 -2.0222  0.0650 -0.0466
   96MOL0     H12659   8.445   1.408   9.221  1.4288  1.7402  0.5766
   96MOL0     H12660   8.864   1.333   9.640  4.1692 -0.5452 -2.9072
   96MOL0     H12661   9.020   1.170   9.621  2.5296 -2.4815 -3.6799
   96MOL0     H12662   9.073   0.736   9.561  0.6463  1.1752 -0.6982
   96MOL0     H12663   8.926   0.771   9.462 -3.3601  1.7652  2.3337
   96MOL0     H12664   8.930   0.755   9.770  1.0118 -1.5172  1.0984
   96MOL0     H12665   8.799   0.780   9.669  0.9731 -0.0705  0.5971
   96MOL0     H12666   8.981   0.535   9.674 -0.1270  0.1397  0.8414
   96MOL0     H12667   8.846   0.550   9.551 -1.5670  1.4030 -0.1822
   96MOL0     H12668   8.678   0.570   9.717  0.2438  0.4798 -2.1326
   96MOL0     H12669   8.759   0.419   9.734  0.9026 -0.2314  1.2236
   96MOL0     H12670   8.821   0.583  10.112  1.2012  1.2254 -0.5999
   96MOL0     H12671   8.750   0.886   9.470  0.4320 -0.7059  0.2526
   96MOL0     H12672   8.581   1.048   9.466  1.3597  0.1074 -2.6855
   97MOL0     O12673  11.369   7.054  10.605  0.4258  0.2934  0.2733
   97MOL0     C12674  11.430   7.022  10.501  0.6445 -0.5601 -0.6140
   97MOL0     O12675  11.390   7.059  10.377  0.1602 -0.0265  0.2807
   97MOL0     C12676  11.303   7.164  10.359  0.2200 -0.7519  0.1556
   97MOL0     C12677  11.226   7.157  10.241 -0.3939 -0.2978  0.1472
   97MOL0     C12678  11.134   7.253  10.206  0.3231  0.4940  0.1784
   97MOL0     C12679  11.102   7.350  10.298 -0.3354 -0.2386 -0.2839
   97MOL0     O12680  10.995   7.442  10.288  0.4718  0.1671 -0.2598
   97MOL0     C12681  10.885   7.405  10.210  0.4766 -0.0399  0.6041
   97MOL0     C12682  10.775   7.503  10.247  0.4758 -0.2616  0.1642
   97MOL0     C12683  10.823   7.647  10.235 -0.1794 -0.0845  0.1635
   97MOL0     C12684  10.720   7.750  10.279  0.3753  0.4220 -0.0947
   97MOL0     C12685  10.635   7.784  10.155 -0.2710  0.2007 -0.0747
   97MOL0     C12686  10.503   7.864  10.180 -0.7215  0.1637 -0.0653
   97MOL0     C12687  10.407   7.861  10.053  0.2334 -0.1600 -1.2141
   97MOL0     C12688  10.472   7.961   9.950  1.0202  0.6951 -0.1592
   97MOL0     N12689  10.386   8.078   9.952  0.4959 -0.1768  1.1075
   97MOL0     C12690  10.344   8.140  10.063  0.3197 -0.0480 -0.1718
   97MOL0     C12691  10.233   8.216  10.033 -0.0793 -0.3933  0.0791
   97MOL0     C12692  10.138   8.277  10.122 -0.1679 -0.7471 -0.8484
   97MOL0     C12693  10.134   8.428  10.115  0.7214  1.3470  0.6990
   97MOL0     C12694  10.031   8.478  10.210  0.0969  0.0974 -0.0090
   97MOL0     C12695  10.031   8.631  10.200  0.7507 -0.6728 -0.1026
   97MOL0     O12696   9.919   8.683  10.276 -0.3524 -0.0900 -0.2451
   97MOL0     C12697   9.912   8.823  10.277 -0.1733  0.2069 -0.4730
   97MOL0     C12698   9.994   8.907  10.360  0.1611 -0.4422  0.1089
   97MOL0     C12699   9.988   9.043  10.353 -0.1551 -0.1980 -0.7739
   97MOL0     C12700   9.886   9.107  10.280  0.2480 -0.0854  1.0505
   97MOL0     C12701   9.852   9.252  10.276 -0.4028 -0.1762  0.9853
   97MOL0     O12702   9.784   9.295  10.165  0.0450  0.1553  0.3169
   97MOL0     C12703   9.756   9.422  10.126  0.1511  0.3041 -0.4624
   97MOL0     C12704   9.748   9.457   9.990  0.3680 -0.9588 -0.3824
   97MOL0     C12705   9.698   9.585   9.947 -0.5674 -1.1646  0.4141
   97MOL0     C12706   9.672   9.681  10.047 -0.5113  0.1080 -0.0552
   97MOL0     O12707   9.666   9.814  10.028 -0.8105 -0.5821 -0.1285
   97MOL0     C12708   9.592   9.854   9.910 -0.6931  0.3790 -0.0935
   97MOL0     C12709   9.628  10.002   9.881 -1.0643 -0.5000  0.7669
   97MOL0     C12710   9.514  10.071   9.804  0.1174 -0.0946 -0.4619
   97MOL0     C12711   9.522  10.225   9.803  0.7598 -0.0989 -0.2812
   97MOL0     C12712   9.429  10.282   9.697 -0.1157  0.2066 -0.3910
   97MOL0     C12713   9.470  10.436   9.683  0.4275  0.0926  0.5007
   97MOL0     C12714   9.364  10.511   9.609  0.0731 -1.5313  0.4193
   97MOL0     C12715   9.394  10.666   9.592 -0.0470  0.6486 -0.1235
   97MOL0    Cl12716   9.550  10.698   9.515 -0.2397  0.6263  0.3892
   97MOL0     C12717   9.682   9.646  10.178  0.2974 -0.2474 -0.1787
   97MOL0     C12718   9.723   9.522  10.215  0.5624  0.0090 -0.7169
   97MOL0     O12719   9.876   9.316  10.377 -0.2672 -0.3267  0.6020
   97MOL0     C12720   9.804   9.026  10.195 -0.6541  0.4841  0.2691
   97MOL0     C12721   9.827   8.887  10.190  0.2935  0.0451 -1.1370
   97MOL0     N12722  10.213   8.193   9.895  0.4880  0.0441  0.3877
   97MOL0     N12723  10.301   8.107   9.851 -0.3407 -0.5800  0.5895
   97MOL0     C12724  11.184   7.368  10.409  0.6374 -0.2029 -0.8377
   97MOL0     C12725  11.277   7.271  10.441  0.0166 -0.6004 -0.3224
   97MOL0     C12726  11.551   6.943  10.514  0.0662 -0.0713  0.1089
   97MOL0     C12727  11.593   6.906  10.642  0.0201  0.1011  0.3100
   97MOL0     C12728  11.703   6.824  10.650 -0.5811 -0.6540 -1.1342
   97MOL0     C12729  11.776   6.776  10.528  0.0856 -0.5982  1.2574
   97MOL0     O12730  11.872   6.682  10.519  0.2177  0.0282  0.2094
   97MOL0     C12731  11.966   6.653  10.632  0.2889  0.7113 -0.6199
   97MOL0     C12732  12.084   6.566  10.572  0.7574 -0.5993 -0.2435
   97MOL0     C12733  12.031   6.418  10.580 -0.5128 -1.2704 -0.2863
   97MOL0     C12734  12.135   6.299  10.554 -0.1692  0.3680 -0.0722
   97MOL0     C12735  12.076   6.177  10.544  0.1197 -0.0868  0.5612
   97MOL0     C12736  12.028   6.063  10.569  0.6738  0.1960 -0.1207
   97MOL0     C12737  11.721   6.805  10.404 -0.2127 -0.6842  0.3458
   97MOL0     C12738  11.604   6.884  10.393 -1.0282  0.0803 -0.0982
   97MOL0     H12739  11.234   7.074  10.173 -4.2034 -1.8439  1.3002
   97MOL0     H12740  11.080   7.241  10.112  0.6295  0.1793  0.0395
   97MOL0     H12741  10.853   7.301  10.222 -0.9497 -0.0395 -2.3583
   97MOL0     H12742  10.903   7.413  10.103  1.2752 -4.6700  0.1691
   97MOL0     H12743  10.745   7.482  10.350 -1.3854 -4.2465 -0.9878
   97MOL0     H12744  10.696   7.491  10.173  2.2405 -1.9366 -1.6037
   97MOL0     H12745  10.873   7.667  10.140  0.1004 -0.0072  0.3266
   97MOL0     H12746  10.904   7.659  10.307 -2.6787 -0.3528  3.2577
   97MOL0     H12747  10.672   7.698  10.362  1.8937  2.0549  1.9181
   97MOL0     H12748  10.756   7.849  10.310  3.2985 -0.0400 -1.6963
   97MOL0     H12749  10.624   7.698  10.088  1.8901 -0.2129  0.0099
   97MOL0     H12750  10.710   7.849  10.108 -2.5755  2.2572 -1.1506
   97MOL0     H12751  10.532   7.965  10.211  1.9480 -0.4834 -0.1731
   97MOL0     H12752  10.445   7.816  10.259 -2.2455  2.6661  0.4231
   97MOL0     H12753  10.401   7.762  10.007 -0.4400  0.3020 -2.1396
   97MOL0     H12754  10.305   7.889  10.080  0.3022 -0.4333 -0.6753
   97MOL0     H12755  10.471   7.918   9.850  0.6280 -1.0103  0.5272
   97MOL0     H12756  10.573   7.995   9.975  0.9394  0.9541 -0.1924
   97MOL0     H12757  10.382   8.122  10.163  1.0288 -0.7664 -0.5482
   97MOL0     H12758  10.183   8.250  10.218  0.6078  1.7640 -0.4476
   97MOL0     H12759  10.041   8.228  10.118  0.5668 -2.5929  1.4235
   97MOL0     H12760  10.090   8.451  10.017  0.0832 -1.7753  0.1411
   97MOL0     H12761  10.232   8.467  10.146  0.5211  1.9020  0.6387
   97MOL0     H12762   9.933   8.436  10.184  0.1138 -0.8372  1.3609
   97MOL0     H12763  10.055   8.444  10.311 -0.4364 -1.2183 -0.3081
   97MOL0     H12764  10.025   8.676  10.100  2.7960  1.4267  0.6145
   97MOL0     H12765  10.134   8.662  10.221  0.6932  1.1897 -2.2077
   97MOL0     H12766  10.059   8.850  10.426  0.0861 -1.9673 -1.0691
   97MOL0     H12767  10.050   9.109  10.414  3.3999  1.0381 -5.1483
   97MOL0     H12768   9.778   9.374   9.926  0.6224 -2.4053  1.5158
   97MOL0     H12769   9.711   9.607   9.842 -2.8457  1.9895  0.6221
   97MOL0     H12770   9.489   9.837   9.943 -0.1310  0.1111  1.6677
   97MOL0     H12771   9.615   9.785   9.829  1.4435  0.7994  0.0982
   97MOL0     H12772   9.720  10.010   9.822 -1.8468 -1.0769 -0.5583
   97MOL0     H12773   9.650  10.054   9.975  0.9861  0.4813 -0.1889
   97MOL0     H12774   9.417  10.040   9.844 -1.1876  1.8836 -1.8580
   97MOL0     H12775   9.521  10.037   9.700 -1.6840  1.0661 -1.0123
   97MOL0     H12776   9.493  10.267   9.900 -0.9001  2.1506 -1.6536
   97MOL0     H12777   9.628  10.248   9.790  0.9600  0.9859  2.5706
   97MOL0     H12778   9.323  10.292   9.724 -0.0783  5.4136 -1.1687
   97MOL0     H12779   9.450  10.231   9.603 -0.1841  0.8825 -0.7766
   97MOL0     H12780   9.564  10.446   9.629 -0.8906  1.4513 -1.6834
   97MOL0     H12781   9.490  10.491   9.775  0.6801  0.8497 -0.0017
   97MOL0     H12782   9.348  10.485   9.504 -1.1501 -1.2977  0.5265
   97MOL0     H12783   9.266  10.517   9.658  0.2647  1.7636  0.6450
   97MOL0     H12784   9.389  10.710   9.693  0.3537  0.9434 -0.2265
   97MOL0     H12785   9.321  10.709   9.523  1.7513  1.1790 -1.7688
   97MOL0     H12786   9.680   9.729  10.248 -0.3565 -0.3816 -0.0374
   97MOL0     H12787   9.716   9.505  10.322  0.7750 -1.2353 -0.8854
   97MOL0     H12788   9.738   9.064  10.117  1.4079 -4.3813 -4.5068
   97MOL0     H12789   9.764   8.833  10.121 -0.3547 -1.2943  0.4343
   97MOL0     H12790  11.180   7.465  10.458  2.3499 -1.5963  2.3535
   97MOL0     H12791  11.342   7.283  10.528 -2.4389 -1.4058  1.7623
   97MOL0     H12792  11.534   6.934  10.729 -2.2973 -4.2051  0.3840
   97MOL0     H12793  11.736   6.799  10.751 -2.7368  0.0357 -0.2029
   97MOL0     H12794  11.907   6.596  10.704  0.7830  0.8539 -0.0934
   97MOL0     H12795  12.002   6.747  10.675 -1.8156  1.5460 -0.5899
   97MOL0     H12796  12.099   6.594  10.468  1.0202 -3.1857 -0.9870
   97MOL0     H12797  12.180   6.589  10.620  1.6262  1.6492 -2.8081
   97MOL0     H12798  11.956   6.405  10.501  1.6568  1.7390 -3.0969
   97MOL0     H12799  11.988   6.397  10.678  1.5835 -0.7086  0.8065
   97MOL0     H12800  12.197   6.313  10.465  1.7713 -1.4143  0.9102
   97MOL0     H12801  12.197   6.282  10.642  0.0372  3.5939  0.5289
   97MOL0     H12802  11.983   5.971  10.599  0.2239  0.0417 -1.1917
   97MOL0     H12803  11.760   6.768  10.310  0.5554  1.0845 -0.0588
   97MOL0     H12804  11.559   6.892  10.294 -0.4286 -2.4488 -0.6634
   98MOL0     O12805   7.950   1.164   3.868 -0.1663 -0.3344 -0.0253
   98MOL0     C12806   7.899   1.078   3.946 -0.6084  0.1861  0.5065
   98MOL0     O12807   7.769   1.062   3.974 -0.7360  0.3756  0.3942
   98MOL0     C12808   7.682   1.106   3.876  0.3770  0.3567 -0.4607
   98MOL0     C12809   7.639   1.037   3.768  0.7585 -0.3540  0.0344
   98MOL0     C12810   7.562   1.095   3.675  0.1441  0.1864 -0.4044
   98MOL0     C12811   7.521   1.224   3.685  0.5484 -0.1208  0.0130
   98MOL0     O12812   7.437   1.262   3.588  1.0587 -1.0184 -0.0886
   98MOL0     C12813   7.469   1.388   3.524  0.1717  0.3219  0.5756
   98MOL0     C12814   7.537   1.363   3.388  0.4550 -0.0748  1.4705
   98MOL0     C12815   7.595   1.490   3.331 -0.8124  0.3618 -0.9460
   98MOL0     C12816   7.656   1.460   3.196 -0.4679  0.1276 -0.0546
   98MOL0     C12817   7.700   1.581   3.121  0.5844  0.8213 -0.7655
   98MOL0     C12818   7.787   1.529   3.005 -0.1620 -0.7187  0.2355
   98MOL0     C12819   7.846   1.644   2.914  0.3544 -0.2189 -0.0470
   98MOL0     C12820   7.737   1.710   2.840  0.6580 -1.4312  0.2677
   98MOL0     N12821   7.776   1.774   2.720  0.4284 -1.0451  0.2613
   98MOL0     C12822   7.856   1.894   2.697 -0.4803  0.3232  0.5852
   98MOL0     C12823   7.885   1.881   2.560 -0.1913 -0.2705 -0.4166
   98MOL0     C12824   7.982   1.969   2.478 -0.4220 -0.8101  0.1777
   98MOL0     C12825   7.956   2.124   2.490 -0.5126  0.6400  0.4777
   98MOL0     C12826   8.031   2.195   2.378 -0.1472 -0.0630  0.3273
   98MOL0     C12827   7.954   2.212   2.244 -0.3932  0.1518  0.5035
   98MOL0     O12828   8.053   2.235   2.143 -0.3666  0.3738 -0.8629
   98MOL0     C12829   8.018   2.205   2.010  0.5125  1.4291  1.0361
   98MOL0     C12830   8.123   2.186   1.911  0.4131 -0.5001 -0.6994
   98MOL0     C12831   8.099   2.154   1.779  0.3907  0.5462 -0.0383
   98MOL0     C12832   7.975   2.118   1.738 -0.2398  0.7601  0.4530
   98MOL0     C12833   7.939   2.073   1.604 -0.1355  0.7132 -0.1429
   98MOL0     O12834   8.036   2.096   1.509  0.3920  0.8052  0.5309
   98MOL0     C12835   8.009   2.050   1.378 -0.7336 -1.1521  0.1533
   98MOL0     C12836   8.074   1.941   1.332 -0.1922 -0.3068 -0.5700
   98MOL0     C12837   8.049   1.887   1.203 -0.1509 -0.1757 -0.2587
   98MOL0     C12838   7.978   1.964   1.107 -0.2826  0.6351  1.0343
   98MOL0     O12839   7.946   1.928   0.973 -0.2461 -0.4429 -0.2424
   98MOL0     C12840   7.988   1.792   0.927  0.1511 -0.4615  0.3298
   98MOL0     C12841   7.943   1.770   0.785 -0.3642  0.0936 -0.2320
   98MOL0     C12842   7.967   1.623   0.727  0.5253 -0.4256 -0.0040
   98MOL0     C12843   7.882   1.597   0.601  0.4335  0.3068 -0.5007
   98MOL0     C12844   7.902   1.461   0.543  0.7499  0.9361  0.2553
   98MOL0     C12845   8.047   1.393   0.542  0.1349 -0.2847  1.2506
   98MOL0     C12846   8.045   1.271   0.453  0.1896  0.0025  0.2562
   98MOL0     C12847   8.182   1.203   0.462  0.7419  0.1744 -0.0664
   98MOL0    Cl12848   8.294   1.310   0.400  0.3111  0.2020  0.4329
   98MOL0     C12849   7.916   2.076   1.159 -0.1407 -0.8977  0.2161
   98MOL0     C12850   7.937   2.123   1.284 -0.9568 -0.2250 -1.1924
   98MOL0     O12851   7.842   1.999   1.594  0.2313  0.8707 -0.0982
   98MOL0     C12852   7.865   2.135   1.829  0.0254 -0.1434  0.4088
   98MOL0     C12853   7.886   2.178   1.959 -0.1390 -0.2561 -0.4800
   98MOL0     N12854   7.812   1.778   2.502 -0.4570  0.6066  0.1155
   98MOL0     N12855   7.764   1.705   2.602 -0.5135 -0.3404  0.5935
   98MOL0     C12856   7.554   1.295   3.798 -0.7877 -0.8018 -0.5826
   98MOL0     C12857   7.634   1.238   3.898 -0.8545  0.3005  0.0080
   98MOL0     C12858   8.002   1.010   4.017 -0.6766 -0.1403  0.0660
   98MOL0     C12859   8.112   0.958   3.944 -0.2996  0.0245 -0.4636
   98MOL0     C12860   8.201   0.872   4.008 -0.0222  0.1437 -0.1791
   98MOL0     C12861   8.195   0.874   4.149 -0.1778 -0.2245 -0.7317
   98MOL0     O12862   8.300   0.806   4.208 -0.3116  0.0976  0.4424
   98MOL0     C12863   8.278   0.700   4.303 -0.0135 -0.3690  0.4393
   98MOL0     C12864   8.169   0.599   4.267  0.4343 -0.2112 -0.7210
   98MOL0     C12865   8.170   0.472   4.365 -1.4755 -0.2164  0.0964
   98MOL0     C12866   8.168   0.493   4.523  0.1098  0.3119 -1.1375
   98MOL0     C12867   8.037   0.556   4.553  0.3905 -0.3328 -0.1724
   98MOL0     C12868   7.945   0.621   4.579  0.9135 -0.5942 -1.2478
   98MOL0     C12869   8.090   0.924   4.221  0.6944 -0.9458  0.8428
   98MOL0     C12870   7.991   0.990   4.155  0.2388 -0.4443 -0.4226
   98MOL0     H12871   7.673   0.934   3.759 -0.3866 -0.6062 -1.8611
   98MOL0     H12872   7.531   1.048   3.582 -2.2101  0.4120  0.2053
   98MOL0     H12873   7.526   1.460   3.584  1.1051  1.1795 -1.2475
   98MOL0     H12874   7.375   1.439   3.501 -0.0884 -1.2132 -2.1934
   98MOL0     H12875   7.464   1.314   3.323  1.1334 -1.0369  1.4134
   98MOL0     H12876   7.627   1.302   3.401 -0.7401 -2.4782 -0.6332
   98MOL0     H12877   7.672   1.510   3.406  2.0744 -1.1990 -3.2972
   98MOL0     H12878   7.520   1.568   3.341 -4.2238 -2.7262 -0.0580
   98MOL0     H12879   7.745   1.401   3.219  2.3159  3.5999 -0.9435
   98MOL0     H12880   7.585   1.403   3.136 -0.4624 -1.1797  1.1484
   98MOL0     H12881   7.770   1.636   3.185  1.3481 -0.9606 -0.0221
   98MOL0     H12882   7.612   1.640   3.093 -1.1386 -1.1800  0.1567
   98MOL0     H12883   7.725   1.460   2.947 -1.1366  2.4411 -2.8634
   98MOL0     H12884   7.872   1.477   3.050 -0.3207 -0.3372  0.9960
   98MOL0     H12885   7.883   1.721   2.982 -1.1463  0.1446  0.4128
   98MOL0     H12886   7.919   1.605   2.842  0.1725  0.8128 -0.8258
   98MOL0     H12887   7.685   1.779   2.906 -0.5078 -1.8062 -0.2304
   98MOL0     H12888   7.653   1.645   2.815 -2.3841  2.9700 -2.2583
   98MOL0     H12889   7.896   1.965   2.769  0.3222  0.0760  0.3913
   98MOL0     H12890   7.973   1.937   2.374  1.7815 -0.0424 -0.3216
   98MOL0     H12891   8.087   1.952   2.506 -0.2559 -1.6670 -0.8842
   98MOL0     H12892   7.981   2.150   2.594  0.1573 -0.2844  0.5567
   98MOL0     H12893   7.848   2.140   2.477 -0.3797  0.3924 -1.0679
   98MOL0     H12894   8.057   2.296   2.410 -1.8855 -0.1554  2.1977
   98MOL0     H12895   8.130   2.150   2.361  0.0794  1.1554 -1.9324
   98MOL0     H12896   7.877   2.289   2.255  0.7141  1.7243 -1.8577
   98MOL0     H12897   7.891   2.128   2.211 -1.6531  1.7557 -1.4391
   98MOL0     H12898   8.224   2.221   1.930 -0.6002  1.1784  2.2875
   98MOL0     H12899   8.190   2.132   1.723  1.4346 -7.4689  3.4352
   98MOL0     H12900   8.147   1.903   1.402  0.1870  0.7804 -0.3617
   98MOL0     H12901   8.082   1.787   1.177  1.3082  0.0622  0.5533
   98MOL0     H12902   7.947   1.721   1.000 -2.1885  1.5800  1.1713
   98MOL0     H12903   8.097   1.795   0.924  0.1995  1.4650  1.8664
   98MOL0     H12904   7.993   1.842   0.719 -1.1414 -1.2051 -2.3190
   98MOL0     H12905   7.836   1.795   0.778 -0.3456 -0.3306 -3.0696
   98MOL0     H12906   7.939   1.542   0.796  2.3658 -1.6672 -0.6394
   98MOL0     H12907   8.074   1.609   0.714  1.2467  2.9326  1.2789
   98MOL0     H12908   7.776   1.617   0.620 -0.4035 -2.7931 -1.2848
   98MOL0     H12909   7.910   1.670   0.524  1.2621  1.5731  0.9542
   98MOL0     H12910   7.864   1.468   0.440  0.1056  1.8758  0.5478
   98MOL0     H12911   7.839   1.380   0.581  1.1166  0.4651 -0.1264
   98MOL0     H12912   8.065   1.362   0.645  1.2053 -0.3063  1.0697
   98MOL0     H12913   8.120   1.466   0.507  1.8145 -2.7427 -0.7773
   98MOL0     H12914   7.978   1.196   0.496  1.3621 -1.0640  0.2453
   98MOL0     H12915   8.015   1.306   0.354 -0.5978  1.0321  0.8294
   98MOL0     H12916   8.207   1.113   0.404  4.0602 -1.2345  3.1471
   98MOL0     H12917   8.205   1.197   0.569  2.4986  2.4926 -0.2370
   98MOL0     H12918   7.854   2.133   1.091  1.3503  2.4280  1.4265
   98MOL0     H12919   7.891   2.213   1.323 -1.9991 -2.2061  2.7250
   98MOL0     H12920   7.763   2.119   1.799 -0.1454  3.3466 -1.3238
   98MOL0     H12921   7.804   2.201   2.026 -1.3672 -1.8279 -1.3992
   98MOL0     H12922   7.525   1.399   3.810  2.9861  0.2588  0.9377
   98MOL0     H12923   7.666   1.306   3.976 -3.2658 -0.1816  1.5279
   98MOL0     H12924   8.125   0.979   3.838  1.8119 -2.7056 -0.8724
   98MOL0     H12925   8.288   0.824   3.965 -0.5032 -1.4641  0.5822
   98MOL0     H12926   8.252   0.747   4.399  0.1276 -0.1013  0.3500
   98MOL0     H12927   8.371   0.646   4.322  1.0873  1.8252  1.7470
   98MOL0     H12928   8.070   0.645   4.255  0.1023 -0.9206 -0.7423
   98MOL0     H12929   8.196   0.561   4.168 -0.3189 -0.4242 -0.8508
   98MOL0     H12930   8.260   0.414   4.343 -0.3211  1.9573 -1.1909
   98MOL0     H12931   8.086   0.411   4.330 -2.5762  1.5877 -0.5284
   98MOL0     H12932   8.186   0.400   4.578  0.3551  0.4724 -0.9426
   98MOL0     H12933   8.241   0.571   4.547 -1.2488  0.6286  2.6859
   98MOL0     H12934   7.850   0.669   4.591  0.6082 -1.5411  0.3628
   98MOL0     H12935   8.091   0.911   4.328 -1.4278 -0.0950  1.0133
   98MOL0     H12936   7.906   0.996   4.223  0.7507  0.4327  0.1728
   99MOL0     O12937  10.947   5.885   2.080  0.2139 -0.1009 -0.3134
   99MOL0     C12938  10.984   5.784   2.025  0.4764  0.3249  1.3399
   99MOL0     O12939  11.061   5.775   1.912 -0.3527  0.1390  0.1766
   99MOL0     C12940  11.094   5.896   1.852 -0.2028  0.6864  0.5893
   99MOL0     C12941  11.219   5.957   1.855 -0.8283 -0.0554 -0.1936
   99MOL0     C12942  11.239   6.083   1.794 -0.4129  1.3482  0.1276
   99MOL0     C12943  11.142   6.144   1.717  0.9432 -0.6158 -0.2223
   99MOL0     O12944  11.170   6.249   1.635 -0.7335 -0.4877 -0.3505
   99MOL0     C12945  11.054   6.332   1.600 -0.4351  0.3043  0.0287
   99MOL0     C12946  11.105   6.459   1.539 -0.4522  0.3648 -0.3229
   99MOL0     C12947  10.982   6.553   1.507  0.4301 -0.8385  0.7830
   99MOL0     C12948  10.896   6.585   1.629 -0.1924 -0.6201 -0.4345
   99MOL0     C12949  10.791   6.690   1.587  0.1737  0.2554  0.3741
   99MOL0     C12950  10.680   6.710   1.699 -0.6112  0.7816  0.8268
   99MOL0     C12951  10.565   6.796   1.663 -0.0620 -0.3492  0.0688
   99MOL0     C12952  10.470   6.757   1.551  0.2273  1.1438  0.0760
   99MOL0     N12953  10.425   6.614   1.561 -1.3321 -0.6169 -0.6699
   99MOL0     C12954  10.392   6.530   1.457  0.6792 -0.2465 -0.4738
   99MOL0     C12955  10.300   6.442   1.513 -0.4981 -0.1301 -0.4111
   99MOL0     C12956  10.238   6.336   1.425  0.2887  0.8472 -1.3338
   99MOL0     C12957  10.322   6.212   1.419  0.1599  0.0961  0.0060
   99MOL0     C12958  10.231   6.087   1.381 -0.5123 -0.2256  0.6642
   99MOL0     C12959  10.144   6.120   1.258  0.4592  0.3073 -0.9646
   99MOL0     O12960  10.118   6.003   1.181 -0.5247 -0.4865  0.2161
   99MOL0     C12961  10.215   5.930   1.114 -0.5237 -0.2851 -0.3296
   99MOL0     C12962  10.192   5.801   1.087 -0.2836  0.0704 -0.2209
   99MOL0     C12963  10.285   5.724   1.017  0.2870 -0.6483  0.6012
   99MOL0     C12964  10.401   5.780   0.973  0.2379  0.0981  0.1189
   99MOL0     C12965  10.488   5.704   0.879 -0.1229 -1.2379  0.1055
   99MOL0     O12966  10.616   5.749   0.848  0.1723  0.3865  0.3023
   99MOL0     C12967  10.712   5.655   0.885  0.0930  0.2383 -0.3355
   99MOL0     C12968  10.734   5.550   0.797  0.0602 -0.3944 -0.1065
   99MOL0     C12969  10.835   5.457   0.814 -0.1374 -0.1497 -0.4386
   99MOL0     C12970  10.921   5.483   0.920  0.1022  0.4284 -0.7616
   99MOL0     O12971  11.031   5.409   0.962  0.2309 -0.6967  0.5855
   99MOL0     C12972  11.082   5.315   0.866 -0.0080 -0.2904 -0.2371
   99MOL0     C12973  11.207   5.244   0.925  0.3535  0.7627 -0.6484
   99MOL0     C12974  11.317   5.337   0.968 -0.4474  0.2134 -0.9412
   99MOL0     C12975  11.430   5.268   1.053  0.6039 -0.0453  0.2399
   99MOL0     C12976  11.569   5.332   1.044  0.1797  0.9159  0.1893
   99MOL0     C12977  11.625   5.327   0.904  0.4501 -1.7327  0.1763
   99MOL0     C12978  11.768   5.317   0.873  0.9896  0.2266 -0.4052
   99MOL0     C12979  11.784   5.340   0.725 -1.0674 -0.2312 -0.0934
   99MOL0    Cl12980  11.744   5.197   0.609 -0.1902 -0.6421  0.4047
   99MOL0     C12981  10.898   5.587   1.011  0.5363 -0.9008  0.2212
   99MOL0     C12982  10.787   5.668   0.996 -0.1677 -0.1773  0.2485
   99MOL0     O12983  10.446   5.598   0.840 -1.3764 -0.1206 -0.2845
   99MOL0     C12984  10.431   5.907   1.009  0.3130 -0.1085  0.6517
   99MOL0     C12985  10.344   5.985   1.081  0.1565 -0.3666 -0.0425
   99MOL0     N12986  10.297   6.459   1.652 -1.3852 -0.1804 -0.8179
   99MOL0     N12987  10.374   6.563   1.682  0.0346 -0.7557 -0.0308
   99MOL0     C12988  11.018   6.076   1.714 -0.5440 -0.5238  0.2610
   99MOL0     C12989  10.997   5.962   1.783  0.0569 -1.2054  0.3589
   99MOL0     C12990  10.964   5.653   2.095  0.4417 -0.2080  0.5753
   99MOL0     C12991  11.001   5.532   2.035  0.6015  0.6531  0.4156
   99MOL0     C12992  10.966   5.403   2.087 -0.1249  0.5726  0.2558
   99MOL0     C12993  10.883   5.390   2.201 -0.2426 -1.0741  0.5134
   99MOL0     O12994  10.844   5.274   2.254  0.0855  0.3969 -0.0079
   99MOL0     C12995  10.844   5.153   2.173 -0.9642  0.1980  0.6355
   99MOL0     C12996  10.744   5.061   2.221 -0.9397 -0.0651 -0.4808
   99MOL0     C12997  10.596   5.082   2.179 -0.2336  1.1758 -0.0139
   99MOL0     C12998  10.503   4.976   2.246  0.2093  0.2834 -0.7156
   99MOL0     C12999  10.461   4.872   2.147  0.0823 -0.1981 -1.0667
   99MOL0     C13000  10.430   4.777   2.080  0.2109 -0.3076  0.0186
   99MOL0     C13001  10.875   5.513   2.274  0.3952  0.0856 -0.5173
   99MOL0     C13002  10.905   5.636   2.218 -0.6793  0.4775 -0.1221
   99MOL0     H13003  11.302   5.905   1.900 -0.2214  0.0680 -1.1459
   99MOL0     H13004  11.345   6.106   1.804  0.4895 -2.0711 -0.2025
   99MOL0     H13005  10.997   6.348   1.693  0.5719 -2.2438  1.1783
   99MOL0     H13006  10.999   6.275   1.524  0.4324  1.0728 -1.2083
   99MOL0     H13007  11.165   6.428   1.453 -1.2529 -4.4049  0.5584
   99MOL0     H13008  11.176   6.503   1.610 -0.2933 -0.8225  0.2744
   99MOL0     H13009  10.920   6.516   1.424 -0.1410  1.1721  0.2674
   99MOL0     H13010  11.028   6.642   1.463  2.5133 -1.5692  1.3950
   99MOL0     H13011  10.846   6.497   1.670  1.3256 -2.5974 -2.5876
   99MOL0     H13012  10.957   6.630   1.708 -1.4383 -3.6738  2.5054
   99MOL0     H13013  10.734   6.647   1.504 -0.1070  1.5918 -0.1549
   99MOL0     H13014  10.825   6.786   1.546  3.0140 -2.2103 -3.8425
   99MOL0     H13015  10.744   6.762   1.771 -0.0762  2.1267 -0.5649
   99MOL0     H13016  10.647   6.612   1.734  1.6781 -0.9395 -1.4196
   99MOL0     H13017  10.485   6.812   1.735 -1.9906  4.3429 -2.6735
   99MOL0     H13018  10.599   6.894   1.630 -2.9927  1.1391  1.1262
   99MOL0     H13019  10.532   6.778   1.464  2.2020  2.3764  1.7025
   99MOL0     H13020  10.381   6.820   1.543 -1.0381 -0.7097 -1.9062
   99MOL0     H13021  10.429   6.532   1.355  0.8211 -1.3125 -0.4593
   99MOL0     H13022  10.218   6.390   1.332  2.5395  2.0118 -1.2173
   99MOL0     H13023  10.139   6.315   1.466  1.5183 -3.1060  0.0044
   99MOL0     H13024  10.379   6.202   1.512 -1.3907  0.0752  0.9881
   99MOL0     H13025  10.389   6.236   1.335 -1.3992  1.3704 -0.9191
   99MOL0     H13026  10.293   6.002   1.352 -1.8964 -0.8318 -0.6431
   99MOL0     H13027  10.167   6.046   1.460 -2.1989 -3.0995 -1.9534
   99MOL0     H13028  10.202   6.194   1.201  2.5121  1.1755  1.9628
   99MOL0     H13029  10.055   6.161   1.306  2.5962  0.9909  2.9072
   99MOL0     H13030  10.093   5.766   1.115 -0.0943  0.1890  0.6164
   99MOL0     H13031  10.258   5.621   0.993  4.5976 -2.2167  1.4812
   99MOL0     H13032  10.667   5.539   0.712 -0.1217 -0.5748  0.0601
   99MOL0     H13033  10.850   5.373   0.747  1.4128 -1.3979  1.3445
   99MOL0     H13034  11.102   5.361   0.769 -1.6699 -1.4294 -1.1605
   99MOL0     H13035  11.016   5.230   0.848  0.4361 -0.8377  0.6069
   99MOL0     H13036  11.245   5.178   0.848 -0.1181  0.9804 -1.0761
   99MOL0     H13037  11.170   5.187   1.011  2.5831  0.4875  0.2048
   99MOL0     H13038  11.278   5.411   1.039  0.5221 -0.9939  0.9339
   99MOL0     H13039  11.349   5.387   0.877 -4.3526 -0.9768 -3.1766
   99MOL0     H13040  11.398   5.267   1.157  1.9875 -2.3530  0.7076
   99MOL0     H13041  11.433   5.162   1.027  1.6012 -0.3312  1.4335
   99MOL0     H13042  11.629   5.281   1.121 -0.2334  2.5080  1.6111
   99MOL0     H13043  11.560   5.432   1.085 -0.7335  0.8652  0.1219
   99MOL0     H13044  11.583   5.416   0.856 -1.6601 -2.0256  1.3562
   99MOL0     H13045  11.579   5.235   0.866 -0.4098 -1.3350  0.2341
   99MOL0     H13046  11.820   5.397   0.925 -2.7999  3.2608 -0.8643
   99MOL0     H13047  11.798   5.215   0.901 -0.3396  0.2419  1.2079
   99MOL0     H13048  11.889   5.369   0.717 -1.5935  1.4245 -1.2754
   99MOL0     H13049  11.724   5.423   0.689  1.8630  0.9233 -2.7844
   99MOL0     H13050  10.962   5.596   1.098  0.8881  1.4214 -0.2169
   99MOL0     H13051  10.764   5.735   1.079  1.4615 -1.2729  1.6550
   99MOL0     H13052  10.530   5.953   1.000 -0.9056  3.1307  2.1645
   99MOL0     H13053  10.367   6.089   1.106  1.1567 -0.5760 -0.0473
   99MOL0     H13054  10.936   6.110   1.651  0.8116  0.5730 -0.9842
   99MOL0     H13055  10.903   5.908   1.785 -0.5382 -0.1822  1.6887
   99MOL0     H13056  11.041   5.525   1.934  1.0254 -1.4070  0.6903
   99MOL0     H13057  10.996   5.321   2.023  3.7531  2.4272 -0.6094
   99MOL0     H13058  10.935   5.092   2.173 -1.9257 -1.5490 -3.4214
   99MOL0     H13059  10.822   5.166   2.067  0.9009 -1.3857 -0.0104
   99MOL0     H13060  10.767   4.963   2.178  1.6411  0.9779 -1.6719
   99MOL0     H13061  10.752   5.049   2.330 -2.1263  3.8877  0.2024
   99MOL0     H13062  10.587   5.081   2.070 -0.9797  0.0604  0.0331
   99MOL0     H13063  10.558   5.180   2.209  0.5811  1.7519 -0.8144
   99MOL0     H13064  10.547   4.917   2.327 -0.2932  1.8899  0.7885
   99MOL0     H13065  10.412   5.028   2.280 -0.6891  0.9470 -3.8006
   99MOL0     H13066  10.414   4.694   2.014 -1.5489 -1.5793  1.8856
   99MOL0     H13067  10.835   5.515   2.375 -4.8634  0.1609 -2.3453
   99MOL0     H13068  10.874   5.720   2.279 -0.5677 -0.0170  0.6272
  100MOL0     O13069   6.165  10.975   3.772 -0.0716 -0.6285  0.8271
  100MOL0     C13070   6.088  10.876   3.770 -0.4295  0.7460 -1.0050
  100MOL0     O13071   5.980  10.846   3.682 -0.0994 -0.4674  0.1552
  100MOL0     C13072   5.971  10.899   3.553  0.5461  1.0124 -0.0090
  100MOL0     C13073   5.837  10.886   3.500  0.1299  0.0672 -0.3917
  100MOL0     C13074   5.797  10.946   3.380 -0.0981  0.0448  0.3519
  100MOL0     C13075   5.901  11.016   3.308 -0.2862 -0.7478 -0.6152
  100MOL0     O13076   5.884  11.061   3.186 -0.5695 -0.6763 -0.1716
  100MOL0     C13077   5.876  10.966   3.089 -0.6527  0.8644 -0.0313
  100MOL0     C13078   5.947  10.995   2.955 -0.1371 -0.1231 -1.6490
  100MOL0     C13079   5.932  10.873   2.866 -0.6911  0.5771  0.6030
  100MOL0     C13080   5.975  10.898   2.714  1.1951  0.4433  0.1176
  100MOL0     C13081   5.896  11.011   2.637  0.6025 -1.1283 -0.7773
  100MOL0     C13082   5.928  11.004   2.486  0.3710 -0.8228  0.0424
  100MOL0     C13083   5.920  11.133   2.416 -0.5325 -0.9192  1.1739
  100MOL0     C13084   6.060  11.195   2.375  0.4188  0.0254 -0.4417
  100MOL0     N13085   6.123  11.110   2.269 -0.5213 -0.2799  0.3848
  100MOL0     C13086   6.064  11.085   2.153 -0.2432  1.7534 -0.4491
  100MOL0     C13087   6.131  10.980   2.107 -0.0927 -0.2232 -0.2038
  100MOL0     C13088   6.115  10.896   1.975 -0.1337 -0.7022 -0.4245
  100MOL0     C13089   6.237  10.797   1.942 -0.5296  0.0345  1.5139
  100MOL0     C13090   6.218  10.741   1.799  0.0665  0.3012 -0.5408
  100MOL0     C13091   6.315  10.806   1.707 -0.4631 -0.3673  0.6709
  100MOL0     O13092   6.313  10.743   1.577  0.1229  0.2752  0.3444
  100MOL0     C13093   6.409  10.765   1.484  0.0147  0.5747  0.4677
  100MOL0     C13094   6.522  10.831   1.509  0.2805  0.5819 -0.1717
  100MOL0     C13095   6.614  10.848   1.403  1.5018 -0.0315  0.1309
  100MOL0     C13096   6.596  10.802   1.273 -0.0991 -0.9988  1.2271
  100MOL0     C13097   6.685  10.847   1.163  0.1257  0.1313 -1.1630
  100MOL0     O13098   6.645  10.835   1.035  0.5142 -0.1093  0.1141
  100MOL0     C13099   6.703  10.923   0.940 -0.7248  0.1553 -0.2148
  100MOL0     C13100   6.703  10.888   0.807 -1.4604 -0.5613 -0.1197
  100MOL0     C13101   6.751  10.979   0.695  0.2706 -0.5030 -0.1347
  100MOL0     C13102   6.791  11.102   0.732  0.0085  0.6381  0.6005
  100MOL0     O13103   6.841  11.186   0.630  0.3379  1.0742 -0.1376
  100MOL0     C13104   6.835  11.330   0.653  1.1388  0.6470 -1.2046
  100MOL0     C13105   6.816  11.397   0.516  0.5312 -0.9055 -0.1980
  100MOL0     C13106   6.827  11.554   0.533  0.0599  0.1266 -0.1466
  100MOL0     C13107   6.851  11.628   0.409  0.0989  0.1998 -0.3516
  100MOL0     C13108   6.858  11.778   0.435  0.4293  0.7717 -0.2808
  100MOL0     C13109   6.865  11.866   0.316  0.3846  0.5467 -0.2852
  100MOL0     C13110   7.000  11.861   0.247  0.1051  0.3525  0.9794
  100MOL0     C13111   7.051  12.003   0.221  0.7050  0.5410  0.3892
  100MOL0    Cl13112   7.091  12.061   0.389  0.0069  0.4510 -0.0859
  100MOL0     C13113   6.765  11.147   0.860 -0.2358 -0.0204  0.6604
  100MOL0     C13114   6.725  11.058   0.965 -0.7424 -1.1230  0.9104
  100MOL0     O13115   6.790  10.899   1.200 -0.1764 -0.1059  0.0594
  100MOL0     C13116   6.480  10.731   1.251  0.6370 -0.2573 -0.0386
  100MOL0     C13117   6.389  10.715   1.360  0.0686 -0.4386 -0.4663
  100MOL0     N13118   6.242  10.949   2.186  0.9052  0.2026  0.3631
  100MOL0     N13119   6.221  11.012   2.299 -0.0841  0.2164  0.3249
  100MOL0     C13120   6.029  11.039   3.361 -0.1809 -0.8170 -0.4855
  100MOL0     C13121   6.060  10.971   3.483  0.3368 -0.0786  0.4892
  100MOL0     C13122   6.108  10.776   3.879 -0.7729  0.0310  0.2326
  100MOL0     C13123   6.001  10.705   3.926  0.3220 -0.0965 -0.0676
  100MOL0     C13124   6.016  10.606   4.021 -0.1718  0.0811 -0.0481
  100MOL0     C13125   6.133  10.596   4.094 -0.6908 -0.6506 -0.5981
  100MOL0     O13126   6.142  10.492   4.183 -0.7736 -0.8545 -0.0636
  100MOL0     C13127   6.234  10.385   4.160 -0.3075 -0.3195  0.2065
  100MOL0     C13128   6.215  10.283   4.047 -0.4982  0.6374  0.7466
  100MOL0     C13129   6.344  10.209   4.017  0.3321  0.0397  0.5324
  100MOL0     C13130   6.348  10.184   3.869  0.2247 -0.1989 -0.6490
  100MOL0     C13131   6.470  10.111   3.814  0.8583  0.3070 -1.3965
  100MOL0     C13132   6.571  10.072   3.761  0.0064 -0.2770  0.4518
  100MOL0     C13133   6.242  10.680   4.061 -0.2604  0.7294 -0.8331
  100MOL0     C13134   6.233  10.764   3.952  0.0230  0.3188 -0.2106
  100MOL0     H13135   5.757  10.827   3.546  0.3887 -3.1235 -3.5608
  100MOL0     H13136   5.698  10.940   3.334  0.9998 -0.7275 -2.1064
  100MOL0     H13137   5.774  10.946   3.053  0.4082 -1.1280 -2.2251
  100MOL0     H13138   5.926  10.876   3.127  2.0375  2.4764  0.4991
  100MOL0     H13139   6.052  11.016   2.975 -0.3192  0.9819 -1.7511
  100MOL0     H13140   5.916  11.094   2.918  0.6235  1.2085  1.0107
  100MOL0     H13141   5.827  10.844   2.853 -1.1161  2.8518 -1.7072
  100MOL0     H13142   5.987  10.794   2.920  1.1375  2.4690  1.6409
  100MOL0     H13143   6.081  10.924   2.706  1.2419 -0.0023 -0.9251
  100MOL0     H13144   5.950  10.798   2.678  0.4480  0.5479  0.3381
  100MOL0     H13145   5.936  11.103   2.682 -3.9681  1.0191 -0.5755
  100MOL0     H13146   5.790  11.000   2.663  1.1716 -3.5145  0.9160
  100MOL0     H13147   5.848  10.936   2.456  0.0067 -0.0877 -0.7133
  100MOL0     H13148   6.025  10.958   2.467  1.4796  2.1703 -2.2894
  100MOL0     H13149   5.869  11.134   2.320 -3.0912 -2.9137  2.3916
  100MOL0     H13150   5.885  11.213   2.482 -1.0195  1.0857 -1.3494
  100MOL0     H13151   6.117  11.216   2.466 -1.4188  4.6568 -0.0778
  100MOL0     H13152   6.043  11.288   2.320 -0.5403 -0.9602 -1.8841
  100MOL0     H13153   5.977  11.134   2.110 -0.2410 -1.3706 -4.6095
  100MOL0     H13154   6.112  10.959   1.885  0.7383 -1.3822 -0.9454
  100MOL0     H13155   6.021  10.841   1.989 -0.6303  0.1266 -0.4266
  100MOL0     H13156   6.238  10.715   2.015 -2.1321 -0.9636  0.4706
  100MOL0     H13157   6.334  10.847   1.943  0.8795 -2.4573 -0.3775
  100MOL0     H13158   6.233  10.633   1.808  1.9346  0.6691  2.4257
  100MOL0     H13159   6.118  10.751   1.756  0.4296  0.8244 -1.2907
  100MOL0     H13160   6.416  10.818   1.746  0.4519 -1.4726 -1.1851
  100MOL0     H13161   6.286  10.910   1.692  1.8120  0.5290  1.9926
  100MOL0     H13162   6.542  10.877   1.605  0.5800  0.5945 -0.2380
  100MOL0     H13163   6.706  10.902   1.422  0.2687  1.3140  2.9217
  100MOL0     H13164   6.681  10.785   0.782 -1.3358 -0.6988  0.3444
  100MOL0     H13165   6.764  10.947   0.592 -0.1503 -0.7907 -0.1026
  100MOL0     H13166   6.915  11.368   0.717 -0.4629 -0.6544  1.7992
  100MOL0     H13167   6.743  11.346   0.710  3.5560  1.2907  2.9160
  100MOL0     H13168   6.717  11.381   0.473 -0.2087 -0.0667  1.1331
  100MOL0     H13169   6.884  11.358   0.440 -0.7929 -1.5998 -1.0639
  100MOL0     H13170   6.921  11.563   0.588  1.6332  0.4960 -2.7219
  100MOL0     H13171   6.739  11.592   0.585 -0.2767  2.2256 -2.0767
  100MOL0     H13172   6.942  11.603   0.353  1.0027  1.5882  0.4276
  100MOL0     H13173   6.772  11.595   0.341 -0.4965 -0.7403  0.7758
  100MOL0     H13174   6.938  11.793   0.509  0.2475 -2.0260  0.6190
  100MOL0     H13175   6.767  11.804   0.491 -0.7295 -4.4129  0.7431
  100MOL0     H13176   6.843  11.971   0.336  1.3572  0.5699  0.7953
  100MOL0     H13177   6.799  11.818   0.243  0.1206 -0.2610  0.4619
  100MOL0     H13178   7.076  11.797   0.293 -0.5887 -2.1683 -1.1534
  100MOL0     H13179   6.986  11.823   0.145  3.7269  0.2790  0.3615
  100MOL0     H13180   6.981  12.071   0.171  1.2750 -1.2136 -3.1575
  100MOL0     H13181   7.137  11.993   0.154 -0.6263 -1.6621 -1.1523
  100MOL0     H13182   6.768  11.250   0.893  0.1298 -0.4179  1.9459
  100MOL0     H13183   6.706  11.102   1.062 -3.6197  2.1690 -0.9294
  100MOL0     H13184   6.459  10.697   1.150  1.5942 -4.0642  0.8722
  100MOL0     H13185   6.299  10.657   1.339  1.5105 -2.6029 -0.9489
  100MOL0     H13186   6.087  11.114   3.310 -1.4135  1.2784  1.0000
  100MOL0     H13187   6.162  10.987   3.517  0.1766 -0.3916  1.1430
  100MOL0     H13188   5.906  10.715   3.873 -0.1811  2.4554  1.1960
  100MOL0     H13189   5.941  10.529   4.036  1.1156 -0.8963  1.8163
  100MOL0     H13190   6.226  10.335   4.257 -1.9423 -0.1045  0.2195
  100MOL0     H13191   6.335  10.424   4.145 -0.7750  0.6584 -0.5089
  100MOL0     H13192   6.139  10.211   4.076  2.7120 -2.8565  1.3350
  100MOL0     H13193   6.199  10.345   3.958  2.5748  1.3752  0.5822
  100MOL0     H13194   6.344  10.113   4.070  3.0125 -1.4125 -1.8030
  100MOL0     H13195   6.441  10.256   4.039  2.0109 -2.5923 -0.6381
  100MOL0     H13196   6.258  10.130   3.838 -0.3820 -0.3361  1.2696
  100MOL0     H13197   6.353  10.280   3.817  0.2437 -1.1382 -2.4616
  100MOL0     H13198   6.661  10.024   3.727 -1.0619 -2.2962  0.3687
  100MOL0     H13199   6.338  10.665   4.110 -1.5607  2.6779  2.6856
  100MOL0     H13200   6.318  10.824   3.921  1.6573 -1.2359  1.1136
  101MOL0     O13201   2.258   8.585   8.349 -0.6289 -0.2547  0.3312
  101MOL0     C13202   2.384   8.566   8.339  0.4667  0.6293 -0.6158
  101MOL0     O13203   2.461   8.538   8.449 -0.2315  0.3372  0.2186
  101MOL0     C13204   2.413   8.524   8.574  0.2260  0.4033 -0.1448
  101MOL0     C13205   2.371   8.397   8.615  0.3483 -0.4422  1.1984
  101MOL0     C13206   2.333   8.388   8.747 -0.6231  0.3993 -0.5651
  101MOL0     C13207   2.334   8.494   8.833  0.5278 -0.6718 -0.5692
  101MOL0     O13208   2.311   8.492   8.967 -0.6956  0.0546 -0.8265
  101MOL0     C13209   2.250   8.368   9.013  0.2995  0.6143 -1.3032
  101MOL0     C13210   2.200   8.384   9.163  0.4643 -0.7400  0.7910
  101MOL0     C13211   2.316   8.401   9.263  0.4102 -0.0778  0.0418
  101MOL0     C13212   2.263   8.451   9.398  0.1068 -0.7741  1.2998
  101MOL0     C13213   2.369   8.420   9.507  0.4325 -0.2004 -0.1112
  101MOL0     C13214   2.330   8.481   9.640  0.1746 -0.8822 -0.0027
  101MOL0     C13215   2.429   8.437   9.753  0.1962  0.8741  0.7123
  101MOL0     C13216   2.424   8.285   9.764 -0.1220  0.4126 -1.4166
  101MOL0     N13217   2.508   8.245   9.875  0.2816  0.2818 -0.0381
  101MOL0     C13218   2.604   8.140   9.871  0.7858 -0.1868 -0.6459
  101MOL0     C13219   2.655   8.135   9.997 -0.8407 -0.3278 -1.0648
  101MOL0     C13220   2.749   8.040  10.050  0.5019  0.5785 -0.3763
  101MOL0     C13221   2.682   7.900  10.072  0.2872 -0.6427 -0.1012
  101MOL0     C13222   2.775   7.784  10.090  0.2912  0.4557  0.0029
  101MOL0     C13223   2.833   7.752  10.229 -0.3039 -0.7068  0.4174
  101MOL0     O13224   2.908   7.865  10.285 -0.4098  0.5837  0.3212
  101MOL0     C13225   3.042   7.860  10.283 -0.4952 -0.4712  0.6671
  101MOL0     C13226   3.112   7.808  10.395  0.7459 -0.0891  0.0254
  101MOL0     C13227   3.251   7.797  10.396 -0.4049 -0.4424 -0.3400
  101MOL0     C13228   3.319   7.838  10.283  0.2339 -0.4804 -0.1202
  101MOL0     C13229   3.469   7.824  10.280 -0.1058 -0.8879 -0.0383
  101MOL0     O13230   3.538   7.890  10.180 -0.3501 -0.4521 -0.3787
  101MOL0     C13231   3.666   7.864  10.149 -0.4391  0.9999  0.1308
  101MOL0     C13232   3.685   7.820  10.018  0.3064 -0.4617 -0.6964
  101MOL0     C13233   3.810   7.799   9.968 -0.6395  0.2440  0.1380
  101MOL0     C13234   3.930   7.843  10.028  0.4301 -0.1950 -0.3284
  101MOL0     O13235   4.051   7.833   9.963  0.2455  0.4351 -0.2360
  101MOL0     C13236   4.141   7.949   9.968  0.3946  0.7559  0.1251
  101MOL0     C13237   4.281   7.908   9.917  0.9661  1.0426 -0.0887
  101MOL0     C13238   4.382   7.875  10.037 -0.7964 -0.0000 -0.6335
  101MOL0     C13239   4.366   7.728  10.070  0.0158  0.3326 -0.1985
  101MOL0     C13240   4.442   7.702  10.200 -0.2935 -0.7432 -0.4795
  101MOL0     C13241   4.392   7.572  10.263 -0.1606  1.0391  0.0274
  101MOL0     C13242   4.466   7.529  10.392 -0.3577 -0.5914 -0.3337
  101MOL0     C13243   4.455   7.640  10.505 -0.5625 -0.0631 -0.2462
  101MOL0    Cl13244   4.625   7.672  10.563  0.3111  0.3375  0.4353
  101MOL0     C13245   3.910   7.893  10.154 -0.5031 -0.8858  0.0255
  101MOL0     C13246   3.778   7.911  10.209 -0.1350  0.2713  0.0991
  101MOL0     O13247   3.516   7.759  10.374 -0.5256  0.3996  0.4839
  101MOL0     C13248   3.256   7.882  10.167  0.6273 -0.3507  0.2092
  101MOL0     C13249   3.115   7.889  10.160  1.0731  0.2108 -0.2937
  101MOL0     N13250   2.601   8.236  10.080 -0.0889  0.2298  0.2611
  101MOL0     N13251   2.513   8.298  10.010  0.2126  0.2289  0.6412
  101MOL0     C13252   2.357   8.620   8.780 -1.3724 -0.7352 -0.2871
  101MOL0     C13253   2.404   8.641   8.654  0.3187 -0.1608 -0.5161
  101MOL0     C13254   2.444   8.578   8.204 -0.1882 -0.4166 -0.3427
  101MOL0     C13255   2.354   8.581   8.092  0.7630 -0.3734  0.0726
  101MOL0     C13256   2.404   8.591   7.962 -0.0280  0.4931  0.0247
  101MOL0     C13257   2.538   8.593   7.940  0.8019 -1.3790  0.8091
  101MOL0     O13258   2.573   8.604   7.817  0.1550 -0.0646  0.0206
  101MOL0     C13259   2.563   8.731   7.755 -0.6428 -0.2202 -0.3210
  101MOL0     C13260   2.507   8.734   7.607 -0.9331 -0.0850 -0.6857
  101MOL0     C13261   2.356   8.725   7.581  0.0004 -0.2626  0.1654
  101MOL0     C13262   2.264   8.810   7.673  0.2857  0.3162  0.6600
  101MOL0     C13263   2.280   8.950   7.633 -0.4065  0.6703  0.1514
  101MOL0     C13264   2.290   9.067   7.615  0.0333  0.2567 -0.1466
  101MOL0     C13265   2.625   8.576   8.047  0.4614 -0.7105  0.4492
  101MOL0     C13266   2.583   8.569   8.177 -0.2193 -0.2727  0.6089
  101MOL0     H13267   2.352   8.317   8.545 -4.6802  1.1815  0.3334
  101MOL0     H13268   2.316   8.288   8.784 -0.7786  1.1703  1.5490
  101MOL0     H13269   2.316   8.281   9.007  0.0792  0.2031  1.2864
  101MOL0     H13270   2.157   8.357   8.956 -0.1351  0.8733 -0.6574
  101MOL0     H13271   2.141   8.294   9.183 -0.0632 -0.6315 -0.1792
  101MOL0     H13272   2.124   8.463   9.165 -0.0634 -1.1834 -0.4232
  101MOL0     H13273   2.382   8.475   9.217 -0.5831  0.3942 -0.6817
  101MOL0     H13274   2.371   8.306   9.264 -0.0924 -0.3829 -0.2560
  101MOL0     H13275   2.240   8.557   9.387  2.4207 -0.3405  0.1297
  101MOL0     H13276   2.165   8.408   9.420  0.8851 -2.8907  0.8483
  101MOL0     H13277   2.467   8.464   9.489  0.5925 -0.2240  0.6891
  101MOL0     H13278   2.365   8.311   9.515 -0.4724 -0.0847  1.4235
  101MOL0     H13279   2.232   8.454   9.682  0.6525  1.3982  2.9072
  101MOL0     H13280   2.330   8.590   9.633  2.4100 -0.9125 -1.3931
  101MOL0     H13281   2.534   8.457   9.728  0.7652 -1.9892  0.4991
  101MOL0     H13282   2.388   8.483   9.843 -2.6368  2.5522 -1.2708
  101MOL0     H13283   2.466   8.236   9.676  1.9244  0.0434 -0.3082
  101MOL0     H13284   2.318   8.263   9.780  0.4459 -1.3950  0.2577
  101MOL0     H13285   2.623   8.069   9.791  4.0673  0.9643 -1.0492
  101MOL0     H13286   2.780   8.079  10.147 -0.6685 -0.3247  0.3826
  101MOL0     H13287   2.836   8.032   9.984 -0.2400 -0.1083 -1.3097
  101MOL0     H13288   2.627   7.883   9.979  1.0174 -2.3914 -0.2542
  101MOL0     H13289   2.615   7.905  10.158  0.0353 -0.5896 -0.3017
  101MOL0     H13290   2.712   7.697  10.071  0.5422  0.2304  0.1970
  101MOL0     H13291   2.852   7.770  10.013 -1.2337 -1.1679 -1.3065
  101MOL0     H13292   2.905   7.670  10.230  1.9812  1.1688  1.9123
  101MOL0     H13293   2.749   7.733  10.296 -1.5704  0.0561 -0.8732
  101MOL0     H13294   3.058   7.793  10.488 -0.7506  1.6801 -0.5084
  101MOL0     H13295   3.296   7.754  10.485 -3.2398  1.6679  2.3565
  101MOL0     H13296   3.599   7.782   9.962  0.8268  0.4296 -2.1571
  101MOL0     H13297   3.832   7.754   9.872  0.7336  0.0772  0.5005
  101MOL0     H13298   4.153   7.983  10.071  2.6003 -1.2627  0.6335
  101MOL0     H13299   4.109   8.032   9.905  0.1096 -0.5914 -1.5995
  101MOL0     H13300   4.324   7.989   9.857 -0.6430  2.2319  0.2961
  101MOL0     H13301   4.269   7.822   9.851 -0.6584 -1.4158  3.1106
  101MOL0     H13302   4.370   7.939  10.125 -0.6264 -1.9901  0.9166
  101MOL0     H13303   4.486   7.888  10.004 -0.9402  1.9125 -0.4158
  101MOL0     H13304   4.258   7.711  10.084  0.2032  0.6698  1.9726
  101MOL0     H13305   4.389   7.646  10.001 -0.1557 -3.0151  3.3363
  101MOL0     H13306   4.439   7.782  10.275 -0.5846 -2.7331  1.7558
  101MOL0     H13307   4.548   7.685  10.180  0.2003  1.4821  0.0192
  101MOL0     H13308   4.405   7.491  10.191 -1.6033  1.6572 -0.9849
  101MOL0     H13309   4.283   7.580  10.274 -0.1917 -0.6431  1.3042
  101MOL0     H13310   4.429   7.431  10.426 -2.6135  0.1781 -0.4042
  101MOL0     H13311   4.573   7.518  10.373  0.6124  3.9136  1.3984
  101MOL0     H13312   4.411   7.605  10.598  2.3195 -2.2395  0.4250
  101MOL0     H13313   4.416   7.735  10.467  1.1098 -0.8016 -4.3005
  101MOL0     H13314   3.992   7.925  10.217 -0.4731  1.8884 -1.2802
  101MOL0     H13315   3.756   7.962  10.302 -4.0794 -0.8697 -0.0192
  101MOL0     H13316   3.306   7.891  10.071  1.5531 -1.9297  0.5019
  101MOL0     H13317   3.066   7.931  10.073 -2.1029  0.7135  1.5557
  101MOL0     H13318   2.350   8.710   8.841  1.5881 -1.0434  0.6770
  101MOL0     H13319   2.418   8.740   8.613 -0.8263  0.0999 -0.3073
  101MOL0     H13320   2.247   8.591   8.105  0.7413  0.0421 -0.3998
  101MOL0     H13321   2.331   8.582   7.882 -0.9956  3.2254  0.4963
  101MOL0     H13322   2.662   8.778   7.762  0.7407 -2.7179 -1.6231
  101MOL0     H13323   2.494   8.787   7.819 -2.5328 -1.9935 -0.7305
  101MOL0     H13324   2.526   8.832   7.560 -2.2571  1.5035  1.8706
  101MOL0     H13325   2.566   8.663   7.548 -4.0192 -2.6986 -0.9267
  101MOL0     H13326   2.333   8.620   7.602  3.7743 -2.2098 -3.9211
  101MOL0     H13327   2.345   8.740   7.473 -1.0282 -0.1618  0.2753
  101MOL0     H13328   2.158   8.786   7.661  0.4840 -0.4265  0.2729
  101MOL0     H13329   2.292   8.790   7.777  1.4013 -1.0094  0.1465
  101MOL0     H13330   2.292   9.173   7.606 -2.4668  0.3666 -0.1841
  101MOL0     H13331   2.730   8.574   8.019  0.1029 -0.3011 -1.0024
  101MOL0     H13332   2.645   8.546   8.262 -1.2506 -0.5244  1.3192
  102MOL0     O13333   7.974   0.890   8.671  0.0731 -0.1722  0.0023
  102MOL0     C13334   7.934   0.867   8.558 -0.6009 -0.2216  0.1470
  102MOL0     O13335   8.013   0.854   8.442 -0.6793 -0.9790  0.4500
  102MOL0     C13336   8.146   0.883   8.427  0.3135 -0.6647  0.3446
  102MOL0     C13337   8.235   0.957   8.497 -0.5619  0.2889 -0.1909
  102MOL0     C13338   8.360   0.991   8.465 -1.4348  0.6716 -0.1150
  102MOL0     C13339   8.414   0.951   8.344  0.3436 -0.0082  0.5754
  102MOL0     O13340   8.537   1.006   8.316 -0.2105  0.7070 -0.4998
  102MOL0     C13341   8.622   0.925   8.224 -0.5897 -0.0856 -0.2504
  102MOL0     C13342   8.768   0.927   8.269 -0.1809 -0.4714 -0.1469
  102MOL0     C13343   8.857   0.837   8.184 -0.5169 -0.7094  0.0778
  102MOL0     C13344   8.994   0.812   8.231 -0.2826  0.5347  0.3721
  102MOL0     C13345   9.065   0.933   8.308  0.4115 -0.4203 -0.6704
  102MOL0     C13346   9.208   0.890   8.341  0.6273  0.4069  0.2498
  102MOL0     C13347   9.283   0.992   8.431  0.6857 -0.0383 -0.3832
  102MOL0     C13348   9.423   0.942   8.478  0.2396 -0.3462 -0.1268
  102MOL0     N13349   9.484   1.021   8.583 -0.5062  0.3143 -0.0850
  102MOL0     C13350   9.626   1.017   8.622  1.3035  0.7940  0.3722
  102MOL0     C13351   9.642   1.126   8.694  0.3434  0.5366  0.3481
  102MOL0     C13352   9.761   1.196   8.758  0.0769 -1.1801 -0.4993
  102MOL0     C13353   9.838   1.266   8.642  0.3259  0.4511 -0.2737
  102MOL0     C13354   9.869   1.408   8.687 -0.2667  0.6336  0.7111
  102MOL0     C13355   9.986   1.467   8.607 -0.2532  0.3031  0.5378
  102MOL0     O13356   9.941   1.463   8.470  0.4265  0.6548  0.0614
  102MOL0     C13357   9.871   1.564   8.419  0.6184 -0.4995 -0.2264
  102MOL0     C13358   9.740   1.538   8.377  0.7335 -0.2001 -0.7030
  102MOL0     C13359   9.653   1.648   8.347 -0.7189  0.1645 -0.4384
  102MOL0     C13360   9.701   1.778   8.351 -0.7406  0.4174  0.4020
  102MOL0     C13361   9.620   1.893   8.312  0.6391  0.1132  0.0512
  102MOL0     O13362   9.483   1.886   8.324 -0.0594  0.6325  0.3006
  102MOL0     C13363   9.409   1.989   8.283  0.1836 -0.7131  1.3659
  102MOL0     C13364   9.427   2.040   8.150  1.4325  0.9980 -0.2703
  102MOL0     C13365   9.361   2.155   8.106  0.6906  0.1801  0.4078
  102MOL0     C13366   9.273   2.228   8.193  1.2223 -0.5186 -0.3268
  102MOL0     O13367   9.216   2.352   8.151 -0.3220 -0.2794 -0.4884
  102MOL0     C13368   9.103   2.400   8.231  1.3124  0.5304 -0.8635
  102MOL0     C13369   9.045   2.542   8.190  0.4637  0.5439 -0.3976
  102MOL0     C13370   9.143   2.659   8.203 -0.1267 -0.1275  0.0994
  102MOL0     C13371   9.059   2.783   8.161  0.4154 -0.4316 -0.3259
  102MOL0     C13372   9.152   2.900   8.147 -0.3639  0.0173  0.4309
  102MOL0     C13373   9.076   3.003   8.068 -0.3797  0.2508  0.2472
  102MOL0     C13374   9.164   3.118   8.014  0.1047 -0.4041 -0.5155
  102MOL0     C13375   9.311   3.098   7.991 -0.0603 -0.1120 -0.6837
  102MOL0    Cl13376   9.374   3.229   7.888  0.1930  0.2907 -0.2018
  102MOL0     C13377   9.252   2.177   8.323 -0.1887 -0.4662 -0.1651
  102MOL0     C13378   9.323   2.065   8.371 -0.4149  0.2777 -0.8170
  102MOL0     O13379   9.679   1.990   8.278 -0.3446 -0.7955 -0.0701
  102MOL0     C13380   9.840   1.802   8.372  0.1427 -1.1243 -0.2483
  102MOL0     C13381   9.922   1.700   8.415 -0.3855  1.1295 -0.4734
  102MOL0     N13382   9.513   1.198   8.707  0.0676 -0.1006  0.1070
  102MOL0     N13383   9.415   1.127   8.640 -1.2010 -0.7510  0.0787
  102MOL0     C13384   8.325   0.879   8.259  0.4249  0.4234  0.2212
  102MOL0     C13385   8.195   0.841   8.303  0.1065 -0.2767 -0.6806
  102MOL0     C13386   7.793   0.858   8.524  0.5113  0.7810  0.8105
  102MOL0     C13387   7.754   0.810   8.395  1.5427 -0.3197 -0.0558
  102MOL0     C13388   7.616   0.802   8.360  0.0123  0.2296  0.5297
  102MOL0     C13389   7.519   0.826   8.455 -0.6465  0.2615 -0.7027
  102MOL0     O13390   7.388   0.800   8.434  1.1385 -0.5249  0.0676
  102MOL0     C13391   7.309   0.921   8.418  0.1251 -0.1439  0.4893
  102MOL0     C13392   7.286   0.996   8.283  0.6806  0.8222  0.1803
  102MOL0     C13393   7.169   1.104   8.290  0.6162 -0.7016 -0.5169
  102MOL0     C13394   7.029   1.063   8.260  0.6316  0.2860 -0.3646
  102MOL0     C13395   6.930   1.171   8.241 -0.1318  0.2718 -0.6725
  102MOL0     C13396   6.850   1.258   8.242  0.9872 -0.5273  0.4132
  102MOL0     C13397   7.558   0.872   8.580 -0.0320  0.4551  1.2431
  102MOL0     C13398   7.693   0.881   8.616  0.0505 -0.0569  0.4840
  102MOL0     H13399   8.191   1.009   8.581  0.2784  3.0403 -1.3216
  102MOL0     H13400   8.424   1.056   8.523 -0.9287  0.5203 -0.5008
  102MOL0     H13401   8.624   0.963   8.122 -3.4627  2.6326  0.5324
  102MOL0     H13402   8.583   0.822   8.222  1.1770 -0.7732 -1.7865
  102MOL0     H13403   8.778   0.901   8.375  3.1252 -3.1018 -0.9356
  102MOL0     H13404   8.797   1.033   8.262 -0.2999 -0.0022  3.8704
  102MOL0     H13405   8.872   0.895   8.093  0.0751  1.4609  1.4815
  102MOL0     H13406   8.799   0.748   8.157 -5.1691  2.2600 -0.8880
  102MOL0     H13407   8.977   0.726   8.296 -2.6211  0.2703 -0.5087
  102MOL0     H13408   9.062   0.780   8.152  0.0675  0.3879  0.7312
  102MOL0     H13409   9.013   0.973   8.395  0.4815 -2.0424  0.1441
  102MOL0     H13410   9.066   1.015   8.235  1.6104 -1.1398 -1.5007
  102MOL0     H13411   9.257   0.884   8.243 -2.4933 -0.6150 -1.3959
  102MOL0     H13412   9.205   0.790   8.386 -0.8125  1.3718  2.4471
  102MOL0     H13413   9.300   1.085   8.377  0.1156  0.4121  0.1926
  102MOL0     H13414   9.211   1.013   8.511 -0.7630 -0.0257 -1.6578
  102MOL0     H13415   9.492   0.937   8.392  2.0682 -0.3089  1.2805
  102MOL0     H13416   9.411   0.844   8.525  4.6280  0.0780  2.3679
  102MOL0     H13417   9.702   0.944   8.594  1.5480 -0.3929  3.6193
  102MOL0     H13418   9.826   1.133   8.820 -0.0976  0.0637  1.0177
  102MOL0     H13419   9.718   1.266   8.830 -0.4726 -3.1385  1.2127
  102MOL0     H13420   9.781   1.251   8.550  0.5223  0.2034 -0.3545
  102MOL0     H13421   9.933   1.215   8.627  0.4717  1.0038 -1.3544
  102MOL0     H13422   9.783   1.474   8.671 -0.2455  0.7498  1.0719
  102MOL0     H13423   9.900   1.409   8.791  0.6716  3.2652  0.4701
  102MOL0     H13424  10.077   1.406   8.614  1.9568  2.9797 -2.0807
  102MOL0     H13425   9.999   1.572   8.633  4.2881  0.1469 -0.2202
  102MOL0     H13426   9.721   1.431   8.382  5.3628 -1.2112 -0.3797
  102MOL0     H13427   9.550   1.629   8.320 -1.2826 -1.4645  2.5109
  102MOL0     H13428   9.479   1.992   8.068 -1.1612 -1.3352 -0.6859
  102MOL0     H13429   9.384   2.193   8.007 -4.6043 -0.7439 -1.5293
  102MOL0     H13430   9.127   2.407   8.337 -0.3398 -0.7123 -0.3681
  102MOL0     H13431   9.032   2.317   8.223  0.4059  1.1542  0.4629
  102MOL0     H13432   8.952   2.560   8.245  1.6345  1.4998  1.3692
  102MOL0     H13433   9.038   2.527   8.082 -1.1613 -0.8192 -0.1479
  102MOL0     H13434   9.230   2.621   8.149  2.2271  1.0932  2.7225
  102MOL0     H13435   9.179   2.673   8.306 -2.8508 -2.1318  1.4487
  102MOL0     H13436   9.014   2.754   8.065  1.3306 -0.8484 -0.6463
  102MOL0     H13437   8.982   2.807   8.234 -0.7253  0.0032 -1.6267
  102MOL0     H13438   9.250   2.879   8.103 -2.3451 -2.3168 -3.3688
  102MOL0     H13439   9.176   2.948   8.243 -0.7626 -0.1111  0.5962
  102MOL0     H13440   8.988   3.046   8.116 -0.6090 -1.8852  1.9163
  102MOL0     H13441   9.039   2.943   7.985  2.4655  0.6810 -1.4446
  102MOL0     H13442   9.118   3.152   7.921  2.1392  3.2016 -0.3673
  102MOL0     H13443   9.155   3.202   8.084 -1.5543 -1.2686  0.3650
  102MOL0     H13444   9.332   3.010   7.929  1.2830 -0.1711 -0.1874
  102MOL0     H13445   9.367   3.107   8.085  0.0702  0.6864 -0.8272
  102MOL0     H13446   9.180   2.216   8.393  0.9365 -0.1497  0.8521
  102MOL0     H13447   9.325   2.052   8.478 -2.2178  1.1876 -0.6320
  102MOL0     H13448   9.888   1.899   8.370  0.7129 -1.4084 -0.6007
  102MOL0     H13449  10.026   1.723   8.432 -0.0070 -0.7238 -0.0652
  102MOL0     H13450   8.360   0.834   8.166  1.9807  4.5837 -1.4456
  102MOL0     H13451   8.135   0.774   8.242  0.1893  0.0128 -1.0894
  102MOL0     H13452   7.833   0.777   8.328  0.9133 -0.9473 -0.4995
  102MOL0     H13453   7.582   0.756   8.268 -0.1229 -0.6779  1.0202
  102MOL0     H13454   7.332   0.995   8.495  1.3178  1.1630 -1.0468
  102MOL0     H13455   7.213   0.877   8.449  1.3392 -0.9256  3.4471
  102MOL0     H13456   7.380   1.053   8.276  0.7685  0.6894  0.2850
  102MOL0     H13457   7.273   0.929   8.198 -1.5326  2.1921 -0.6497
  102MOL0     H13458   7.195   1.181   8.218 -3.2525  1.3809  0.0269
  102MOL0     H13459   7.170   1.160   8.384  3.0306 -2.8181  0.8372
  102MOL0     H13460   7.029   0.998   8.172  0.4093 -0.5361  0.2309
  102MOL0     H13461   6.997   0.993   8.339  2.5498 -1.5206 -1.0860
  102MOL0     H13462   6.780   1.339   8.245  1.4713 -0.1330  1.6454
  102MOL0     H13463   7.474   0.903   8.641 -1.9992  2.6969 -2.2060
  102MOL0     H13464   7.720   0.896   8.720  0.3471 -3.1225  0.9382
  103MOL0     O13465  10.219   4.872   1.645 -0.5712 -0.1860  0.1201
  103MOL0     C13466  10.135   4.822   1.719  0.2760  0.0253  0.3646
  103MOL0     O13467  10.102   4.694   1.727 -0.1137  0.6138  0.3284
  103MOL0     C13468  10.150   4.605   1.635  0.0099 -0.1208  0.0924
  103MOL0     C13469  10.104   4.600   1.500  0.0949  0.7030  0.1417
  103MOL0     C13470  10.153   4.510   1.412 -1.0755 -1.2324 -0.0411
  103MOL0     C13471  10.253   4.422   1.457 -0.1033  0.5341  0.4885
  103MOL0     O13472  10.304   4.318   1.385 -0.1702 -0.2539  0.2830
  103MOL0     C13473  10.264   4.304   1.249  0.3501 -0.5892  0.0133
  103MOL0     C13474  10.360   4.205   1.186 -0.5521 -0.6350  0.9010
  103MOL0     C13475  10.346   4.060   1.246 -0.3737  0.2662  0.0693
  103MOL0     C13476  10.434   3.961   1.179 -0.0193  1.1504 -0.4092
  103MOL0     C13477  10.586   3.983   1.214  0.4638  0.1968  1.1263
  103MOL0     C13478  10.683   3.902   1.128 -0.3087 -0.4348  0.2573
  103MOL0     C13479  10.688   3.930   0.966  0.5614  0.0381 -0.4515
  103MOL0     C13480  10.724   4.077   0.937 -0.1755  1.0128 -0.6771
  103MOL0     N13481  10.846   4.124   1.002  0.0416 -0.1616  0.6147
  103MOL0     C13482  10.977   4.100   0.955  1.4687  0.0870  0.5805
  103MOL0     C13483  11.050   4.170   1.052  0.8615  0.2774  0.6311
  103MOL0     C13484  11.200   4.185   1.047 -0.1397  0.5178 -0.2525
  103MOL0     C13485  11.261   4.320   1.061 -1.0130 -0.6097  0.1470
  103MOL0     C13486  11.398   4.324   1.116  0.8870  1.0047 -0.0046
  103MOL0     C13487  11.447   4.464   1.178  0.2669 -0.0933  0.0140
  103MOL0     O13488  11.470   4.571   1.082 -0.6116 -0.3377  0.2703
  103MOL0     C13489  11.567   4.537   0.992 -0.1360  0.2910  0.2655
  103MOL0     C13490  11.705   4.532   1.024  0.4491  0.2476  0.0735
  103MOL0     C13491  11.800   4.495   0.933  0.2643 -0.3937  0.2022
  103MOL0     C13492  11.759   4.472   0.797 -0.3038  0.6947  0.2405
  103MOL0     C13493  11.868   4.453   0.704 -0.4811  0.4842 -0.3389
  103MOL0     O13494  11.993   4.405   0.748 -0.0756  0.2896 -0.2382
  103MOL0     C13495  12.104   4.371   0.665  0.0298 -0.3409  0.3716
  103MOL0     C13496  12.153   4.447   0.553 -0.2742  0.1047 -1.1200
  103MOL0     C13497  12.271   4.406   0.488 -0.7341 -0.9908 -0.8227
  103MOL0     C13498  12.343   4.289   0.537 -0.3604  0.3164 -0.0674
  103MOL0     O13499  12.448   4.255   0.454 -0.2696  0.0547 -0.2200
  103MOL0     C13500  12.534   4.145   0.489  0.0523 -0.4622  0.5753
  103MOL0     C13501  12.658   4.124   0.404 -0.0107 -0.5650  0.1650
  103MOL0     C13502  12.794   4.104   0.482  0.0809  0.5156 -0.4249
  103MOL0     C13503  12.894   4.039   0.388  0.1864 -0.7200  0.0432
  103MOL0     C13504  13.029   4.010   0.460 -0.3647  0.8417  0.3441
  103MOL0     C13505  13.119   3.910   0.390 -0.6416 -0.6457  0.4220
  103MOL0     C13506  13.141   3.936   0.242 -0.1671 -0.6036  0.1656
  103MOL0     C13507  13.224   3.836   0.172 -0.0861 -0.2659 -0.6403
  103MOL0    Cl13508  13.206   3.867  -0.001  0.2496  0.3501  0.0605
  103MOL0     C13509  12.297   4.214   0.655 -0.0523  0.1307 -0.4565
  103MOL0     C13510  12.182   4.260   0.709  0.2191 -0.7328  0.5935
  103MOL0     O13511  11.836   4.458   0.591 -0.5923  0.0905  0.4012
  103MOL0     C13512  11.626   4.484   0.762 -0.1932 -0.1776 -0.1072
  103MOL0     C13513  11.529   4.509   0.862 -0.2080  1.1056  0.2154
  103MOL0     N13514  10.959   4.215   1.151 -0.5657  0.4549  0.2589
  103MOL0     N13515  10.844   4.189   1.121  0.6388  0.1576  0.0583
  103MOL0     C13516  10.300   4.427   1.587 -0.3546  0.1211  0.7647
  103MOL0     C13517  10.246   4.513   1.682 -0.5936  0.1374 -0.2919
  103MOL0     C13518  10.094   4.918   1.818  0.2913  0.0088  0.6722
  103MOL0     C13519  10.029   4.865   1.934  0.3237 -0.3706  0.4695
  103MOL0     C13520  10.005   4.948   2.047  0.0578  0.6813  0.0779
  103MOL0     C13521  10.036   5.081   2.039  0.1441 -0.5279 -0.2088
  103MOL0     O13522  10.001   5.170   2.139  0.5347 -0.7011  0.1179
  103MOL0     C13523  10.021   5.127   2.274  0.1680 -0.1212  0.1689
  103MOL0     C13524  10.024   5.245   2.374  0.5950  0.2934 -0.5234
  103MOL0     C13525  10.121   5.357   2.354 -2.3223  0.1533 -0.0018
  103MOL0     C13526  10.258   5.313   2.315 -1.1818 -0.4084 -0.2901
  103MOL0     C13527  10.332   5.430   2.272  0.6037 -0.4271  0.5893
  103MOL0     C13528  10.384   5.543   2.260  0.0681  0.9551  0.5491
  103MOL0     C13529  10.100   5.133   1.922 -0.3091 -0.6294  0.1749
  103MOL0     C13530  10.136   5.052   1.815  0.6728 -0.8978 -0.0035
  103MOL0     H13531  10.026   4.667   1.464 -1.8290 -2.5083 -2.1682
  103MOL0     H13532  10.131   4.522   1.307 -2.8753 -0.2475  0.4051
  103MOL0     H13533  10.283   4.394   1.189  4.7931 -1.0036  0.5066
  103MOL0     H13534  10.158   4.279   1.244 -0.0292  0.7200  0.9705
  103MOL0     H13535  10.455   4.256   1.203  0.1596  0.2080 -4.0081
  103MOL0     H13536  10.345   4.208   1.078  1.3693  2.0107  0.6262
  103MOL0     H13537  10.240   4.034   1.241 -1.3536  3.9165 -1.7387
  103MOL0     H13538  10.373   4.076   1.351 -0.5295  0.1714  0.1244
  103MOL0     H13539  10.404   3.863   1.218  3.3550  0.6338  1.2090
  103MOL0     H13540  10.418   3.959   1.071  1.5268  0.2863 -0.6471
  103MOL0     H13541  10.600   3.933   1.310  1.2419 -2.4738 -0.2597
  103MOL0     H13542  10.612   4.089   1.212  1.3550  0.0284 -1.5987
  103MOL0     H13543  10.671   3.796   1.151 -2.1387 -0.0040  1.5275
  103MOL0     H13544  10.780   3.928   1.172 -0.3129 -0.6719  0.4074
  103MOL0     H13545  10.770   3.885   0.910  1.7296  1.4302  0.0822
  103MOL0     H13546  10.592   3.894   0.928  0.6507 -0.7165  0.0095
  103MOL0     H13547  10.639   4.136   0.974  0.2446 -0.8303  3.8749
  103MOL0     H13548  10.722   4.078   0.827  0.4445  1.6771 -0.6891
  103MOL0     H13549  11.004   4.047   0.865  0.3379  0.4135  0.0290
  103MOL0     H13550  11.224   4.130   0.955  0.2771 -0.6774  0.5431
  103MOL0     H13551  11.243   4.126   1.128 -1.2675  1.0556  0.7709
  103MOL0     H13552  11.204   4.379   1.133 -1.0969 -1.0899  0.4837
  103MOL0     H13553  11.253   4.371   0.964  1.3300  1.4203  0.9154
  103MOL0     H13554  11.395   4.253   1.199 -0.8266  2.8628  1.6348
  103MOL0     H13555  11.470   4.285   1.044  2.6206  0.5772  1.8688
  103MOL0     H13556  11.531   4.449   1.247 -0.8028  1.1649  1.6816
  103MOL0     H13557  11.366   4.506   1.239 -1.5163 -2.8194 -0.3215
  103MOL0     H13558  11.722   4.552   1.129  3.0482 -0.6585 -0.1043
  103MOL0     H13559  11.904   4.492   0.963  1.1176  0.9988 -2.3136
  103MOL0     H13560  12.095   4.532   0.518 -1.3847 -1.8317 -4.4522
  103MOL0     H13561  12.321   4.461   0.409  2.2975 -1.6936  0.4606
  103MOL0     H13562  12.478   4.051   0.496  0.5283 -0.6176  3.1979
  103MOL0     H13563  12.576   4.164   0.588  1.3310 -0.0946 -0.0121
  103MOL0     H13564  12.674   4.203   0.330 -0.6463 -0.9963 -0.4581
  103MOL0     H13565  12.637   4.038   0.339 -1.5944 -0.0460 -0.0563
  103MOL0     H13566  12.771   4.030   0.559  2.2198  1.7691  1.5398
  103MOL0     H13567  12.826   4.198   0.527  3.3211 -0.3406 -0.6801
  103MOL0     H13568  12.859   3.940   0.357  2.7810 -2.2708  1.6521
  103MOL0     H13569  12.914   4.108   0.305 -1.1318  0.9111  1.0166
  103MOL0     H13570  13.017   3.978   0.564  1.2359  1.3302  0.7181
  103MOL0     H13571  13.086   4.102   0.480  3.0045 -0.8620 -0.7848
  103MOL0     H13572  13.079   3.810   0.411  1.1591 -1.7092 -1.0041
  103MOL0     H13573  13.221   3.917   0.429 -0.8750 -0.2286  0.9710
  103MOL0     H13574  13.044   3.944   0.190 -0.8586 -2.5077  1.0473
  103MOL0     H13575  13.177   4.038   0.232 -2.0366  0.0068 -0.9653
  103MOL0     H13576  13.194   3.739   0.212  2.9820 -0.6897  0.9664
  103MOL0     H13577  13.332   3.838   0.187  0.0641 -0.4291 -1.6449
  103MOL0     H13578  12.343   4.119   0.682  1.7183  1.0716 -0.0224
  103MOL0     H13579  12.126   4.209   0.787 -1.1605  0.4086  0.4049
  103MOL0     H13580  11.589   4.462   0.662 -0.6684  0.9282 -0.1876
  103MOL0     H13581  11.424   4.512   0.835 -0.1813  1.8943  0.1703
  103MOL0     H13582  10.384   4.364   1.614  0.6599  1.0592 -0.0934
  103MOL0     H13583  10.296   4.541   1.774 -1.7135  5.2253 -0.9241
  103MOL0     H13584   9.995   4.762   1.936  1.0460 -0.6114  0.6303
  103MOL0     H13585   9.960   4.908   2.138  1.1145 -2.0162 -0.4719
  103MOL0     H13586  10.112   5.067   2.285 -1.7036 -3.8065 -2.2532
  103MOL0     H13587   9.932   5.066   2.291  0.0422  0.1164  0.3709
  103MOL0     H13588   9.926   5.294   2.378  1.1017  1.2542  0.9225
  103MOL0     H13589  10.038   5.184   2.464 -1.9419 -0.5654 -0.6264
  103MOL0     H13590  10.128   5.408   2.450  3.1430 -0.1770  0.1183
  103MOL0     H13591  10.077   5.436   2.293 -1.7964  2.1927  2.1044
  103MOL0     H13592  10.314   5.262   2.394 -1.4908  0.5757  0.5868
  103MOL0     H13593  10.263   5.242   2.232 -0.7937 -1.5067  0.6444
  103MOL0     H13594  10.421   5.642   2.245  0.7647  0.5716 -0.3671
  103MOL0     H13595  10.136   5.235   1.918  0.8677 -1.0379 -0.2003
  103MOL0     H13596  10.178   5.101   1.728 -1.9710  1.0344 -0.3252
  104MOL0     O13597   0.805   3.387   5.966 -0.0313  0.1610  0.4963
  104MOL0     C13598   0.900   3.445   5.907 -0.6275 -0.6676  0.4059
  104MOL0     O13599   1.019   3.378   5.865  0.5948  0.2858  0.3002
  104MOL0     C13600   1.022   3.243   5.819  1.2801 -0.3631  1.1579
  104MOL0     C13601   1.140   3.207   5.742  0.2655 -0.0106 -0.3526
  104MOL0     C13602   1.170   3.069   5.715  1.3390 -0.3127 -0.2343
  104MOL0     C13603   1.077   2.972   5.750  0.6452 -0.5165 -0.4549
  104MOL0     O13604   1.101   2.841   5.731 -0.0316  0.9446  0.2575
  104MOL0     C13605   1.045   2.798   5.610 -0.6905  1.0020  0.4548
  104MOL0     C13606   1.144   2.707   5.548 -0.3269 -0.2116  0.9706
  104MOL0     C13607   1.110   2.668   5.404 -0.6230  0.1675 -0.4889
  104MOL0     C13608   0.966   2.604   5.396 -0.3567 -0.2888  0.5356
  104MOL0     C13609   0.946   2.513   5.272  0.7511 -0.6453 -0.4791
  104MOL0     C13610   0.804   2.469   5.243  0.8857  0.3157  0.8113
  104MOL0     C13611   0.800   2.366   5.126  0.4714 -0.1421 -0.3366
  104MOL0     C13612   0.666   2.303   5.120 -1.4645 -1.1374  0.2831
  104MOL0     N13613   0.642   2.245   4.982 -0.4537  0.6232 -0.1454
  104MOL0     C13614   0.671   2.112   4.964  0.3463  0.2266 -0.0685
  104MOL0     C13615   0.605   2.075   4.860 -0.1532  0.2973 -0.4277
  104MOL0     C13616   0.586   1.930   4.804 -0.9061  0.0309  0.1199
  104MOL0     C13617   0.459   1.856   4.850  0.5046  0.7043 -0.8600
  104MOL0     C13618   0.475   1.715   4.825 -0.5141  0.8061  0.2287
  104MOL0     C13619   0.342   1.661   4.782  1.0644 -0.6459 -0.4598
  104MOL0     O13620   0.331   1.522   4.745 -0.2992  0.5004  0.6984
  104MOL0     C13621   0.207   1.476   4.711 -0.7334  0.2532  0.7723
  104MOL0     C13622   0.089   1.552   4.698 -0.0910  0.3188 -0.5946
  104MOL0     C13623  -0.026   1.494   4.657  0.0747  0.2674  0.8444
  104MOL0     C13624  -0.027   1.360   4.620  0.6831  0.1638  0.9420
  104MOL0     C13625  -0.152   1.290   4.597 -0.6587 -0.1620 -0.3826
  104MOL0     O13626  -0.275   1.347   4.611  0.1995 -0.3376  0.6124
  104MOL0     C13627  -0.386   1.259   4.590 -0.5447 -0.9318  0.1637
  104MOL0     C13628  -0.468   1.260   4.470 -0.4144 -0.5876  0.5945
  104MOL0     C13629  -0.581   1.177   4.462  0.0247 -0.0986  1.2027
  104MOL0     C13630  -0.604   1.085   4.559  0.8197 -0.3943 -0.4845
  104MOL0     O13631  -0.704   0.995   4.548 -0.1078 -0.5430  0.1136
  104MOL0     C13632  -0.802   1.003   4.446  0.7117 -0.7636 -0.2581
  104MOL0     C13633  -0.921   0.909   4.469  0.3036 -0.3479  0.3227
  104MOL0     C13634  -0.989   0.938   4.600  0.3817 -0.1882 -0.6266
  104MOL0     C13635  -1.076   1.069   4.614  0.5213 -0.2499 -0.2983
  104MOL0     C13636  -1.146   1.044   4.756 -0.4427 -0.7850 -0.2400
  104MOL0     C13637  -1.212   1.179   4.807 -0.5403  0.5961  1.2611
  104MOL0     C13638  -1.248   1.168   4.954 -0.2351 -0.1719 -0.6562
  104MOL0     C13639  -1.304   1.043   5.018 -0.2326  1.0986 -0.0853
  104MOL0    Cl13640  -1.275   1.069   5.204 -0.1067  0.1958 -0.1896
  104MOL0     C13641  -0.531   1.074   4.671 -1.4333  0.6438  0.0629
  104MOL0     C13642  -0.420   1.163   4.687  0.0302 -0.1139  0.4629
  104MOL0     O13643  -0.143   1.171   4.574 -0.4032 -0.0554 -0.1104
  104MOL0     C13644   0.095   1.288   4.613 -0.2684  0.3759 -0.4850
  104MOL0     C13645   0.209   1.346   4.669  0.3592 -0.2358 -0.1374
  104MOL0     N13646   0.531   2.188   4.802 -0.0518 -0.3893 -0.0901
  104MOL0     N13647   0.560   2.285   4.883 -0.2008  1.3330  0.7529
  104MOL0     C13648   0.954   3.015   5.793 -0.0689 -0.3443 -1.1080
  104MOL0     C13649   0.924   3.149   5.829 -1.1973  0.2487  0.7175
  104MOL0     C13650   0.886   3.592   5.876 -0.7383  0.2927 -0.6755
  104MOL0     C13651   0.770   3.662   5.920 -0.3020 -0.2393  0.5800
  104MOL0     C13652   0.752   3.797   5.892 -0.6218 -0.5616 -0.4853
  104MOL0     C13653   0.864   3.878   5.849 -0.5631  0.8682 -0.4932
  104MOL0     O13654   0.847   4.017   5.843 -0.2996  0.0071 -0.8110
  104MOL0     C13655   0.968   4.099   5.816  0.5587  0.1362 -1.4969
  104MOL0     C13656   1.038   4.133   5.950  0.8694  0.6737  0.0927
  104MOL0     C13657   1.118   4.264   5.931 -0.7317  0.1575  0.0132
  104MOL0     C13658   1.103   4.364   6.047  0.8608 -0.2866 -0.2221
  104MOL0     C13659   1.177   4.323   6.164  0.7401  0.6684  0.6336
  104MOL0     C13660   1.235   4.289   6.263  0.3897  0.1734 -0.1457
  104MOL0     C13661   0.982   3.807   5.813 -0.0758  0.5930  0.2452
  104MOL0     C13662   0.993   3.669   5.831  0.0155 -0.8407 -0.7494
  104MOL0     H13663   1.205   3.290   5.717 -0.9472  2.0037  2.6178
  104MOL0     H13664   1.265   3.023   5.688 -0.2969 -3.5901 -0.8358
  104MOL0     H13665   1.031   2.881   5.540 -1.6810  1.5803  1.3084
  104MOL0     H13666   0.944   2.759   5.624 -0.7615  0.3812 -1.5064
  104MOL0     H13667   1.144   2.617   5.610 -0.3706  0.8819  2.6067
  104MOL0     H13668   1.246   2.747   5.555 -0.2682 -0.2283  0.3351
  104MOL0     H13669   1.189   2.598   5.375 -0.0950  0.0040  1.2606
  104MOL0     H13670   1.114   2.749   5.330 -4.3014  2.7786  1.8349
  104MOL0     H13671   0.936   2.553   5.488  0.1198 -1.3957  0.1019
  104MOL0     H13672   0.893   2.685   5.389  0.0979  0.0054 -1.2801
  104MOL0     H13673   1.011   2.425   5.274 -1.2729 -2.2106  0.9342
  104MOL0     H13674   0.991   2.575   5.194 -0.9829  2.5309  0.8574
  104MOL0     H13675   0.742   2.556   5.217 -1.5447 -1.2455  1.0427
  104MOL0     H13676   0.752   2.424   5.328 -0.1773  0.9396  0.5065
  104MOL0     H13677   0.824   2.404   5.026 -2.4984 -1.5884 -1.7302
  104MOL0     H13678   0.865   2.279   5.139 -0.5553 -1.2128 -1.9468
  104MOL0     H13679   0.593   2.380   5.145  1.3468  2.6863 -2.2391
  104MOL0     H13680   0.670   2.222   5.194 -0.5489 -1.9014 -0.5793
  104MOL0     H13681   0.707   2.035   5.031 -0.8753 -0.2217  0.1072
  104MOL0     H13682   0.675   1.875   4.835  2.0428  1.4756 -4.7057
  104MOL0     H13683   0.602   1.933   4.696 -2.2392  1.8620 -0.0756
  104MOL0     H13684   0.368   1.888   4.800 -2.2094 -2.1811  1.8063
  104MOL0     H13685   0.446   1.872   4.957  2.8223  0.1699 -0.4244
  104MOL0     H13686   0.523   1.690   4.730 -1.3297 -2.6423  0.5755
  104MOL0     H13687   0.519   1.657   4.906  0.9611  1.3688 -0.1388
  104MOL0     H13688   0.308   1.724   4.699 -0.7057 -0.5633  0.2772
  104MOL0     H13689   0.272   1.679   4.864  0.1046  0.0170 -1.3952
  104MOL0     H13690   0.094   1.659   4.719  0.8788 -0.0473  1.2666
  104MOL0     H13691  -0.118   1.548   4.640 -1.5386 -1.2592  3.8712
  104MOL0     H13692  -0.451   1.336   4.394 -1.5395 -1.8471 -1.0023
  104MOL0     H13693  -0.640   1.182   4.371  0.8804  0.6709  0.6782
  104MOL0     H13694  -0.747   0.974   4.356  0.4068  2.0013 -1.4432
  104MOL0     H13695  -0.843   1.104   4.450  2.1575 -0.1776  2.3234
  104MOL0     H13696  -0.894   0.804   4.485 -4.1668 -1.5783  1.1781
  104MOL0     H13697  -0.989   0.920   4.384 -0.9925 -1.1885  1.2206
  104MOL0     H13698  -0.916   0.935   4.681  1.7051 -2.4050 -1.7937
  104MOL0     H13699  -1.054   0.852   4.618 -0.5447  0.6385  0.0383
  104MOL0     H13700  -1.024   1.163   4.595  1.0508 -0.7856 -1.6850
  104MOL0     H13701  -1.154   1.068   4.537 -2.0330  1.6743  2.0791
  104MOL0     H13702  -1.071   1.011   4.829 -0.1553 -1.0950 -0.6658
  104MOL0     H13703  -1.212   0.957   4.751  1.5771 -2.5190  1.3171
  104MOL0     H13704  -1.300   1.198   4.746 -0.7970  1.0874  1.7810
  104MOL0     H13705  -1.149   1.268   4.794 -0.4530  0.2982 -0.5784
  104MOL0     H13706  -1.152   1.171   5.004  0.1944 -0.4126 -1.4441
  104MOL0     H13707  -1.316   1.251   4.977 -1.1329 -2.3179  7.2577
  104MOL0     H13708  -1.241   0.959   4.986  1.2761  0.9979  2.8237
  104MOL0     H13709  -1.410   1.032   4.992 -1.3732  3.3677  3.0531
  104MOL0     H13710  -0.560   1.008   4.752 -1.4817 -0.9963 -1.2583
  104MOL0     H13711  -0.366   1.159   4.781 -0.9583  0.8480  1.1023
  104MOL0     H13712   0.112   1.196   4.559  1.2913  0.1069  0.3949
  104MOL0     H13713   0.304   1.294   4.670 -0.6734 -2.2175 -0.4147
  104MOL0     H13714   0.888   2.932   5.815  0.2558 -0.3603 -0.1694
  104MOL0     H13715   0.830   3.167   5.880 -1.0030  0.9841  0.8304
  104MOL0     H13716   0.702   3.606   5.983 -0.7282 -1.1594 -0.6540
  104MOL0     H13717   0.657   3.839   5.922 -0.4070  1.8597 -2.9018
  104MOL0     H13718   0.930   4.183   5.758  1.1758  0.2311 -1.7696
  104MOL0     H13719   1.037   4.045   5.750  0.2665  0.4115 -2.0273
  104MOL0     H13720   0.963   4.153   6.027  0.3409  1.7858 -0.6899
  104MOL0     H13721   1.111   4.064   5.994 -0.8234  0.3072  2.5755
  104MOL0     H13722   1.074   4.314   5.845  1.7933 -0.7593 -1.9441
  104MOL0     H13723   1.222   4.236   5.908 -0.7832  1.5937 -2.1943
  104MOL0     H13724   1.146   4.456   6.008 -2.5853  0.1637 -3.5582
  104MOL0     H13725   0.997   4.382   6.070  1.0533  2.5197 -1.2081
  104MOL0     H13726   1.281   4.258   6.355  3.1357 -0.7547 -1.7220
  104MOL0     H13727   1.070   3.859   5.775  0.5798  1.2492  2.4950
  104MOL0     H13728   1.087   3.620   5.806  2.4864  1.1042  3.5638
  105MOL0     O13729  11.170   0.275   1.283  0.0532  0.4334  0.3026
  105MOL0     C13730  11.085   0.359   1.300 -0.0364  0.3494 -1.0079
  105MOL0     O13731  11.096   0.494   1.268  0.0091 -0.0680 -0.3655
  105MOL0     C13732  11.213   0.571   1.251  0.2781 -1.2711  0.2352
  105MOL0     C13733  11.180   0.702   1.204 -0.4909  0.8960 -1.8465
  105MOL0     C13734  11.300   0.780   1.173 -0.5478  0.1571 -0.8103
  105MOL0     C13735  11.436   0.745   1.211  0.7394 -0.5561 -0.0228
  105MOL0     O13736  11.546   0.827   1.219 -0.9261  0.5239 -0.6618
  105MOL0     C13737  11.529   0.962   1.185 -0.0975 -0.7392  0.7862
  105MOL0     C13738  11.664   1.033   1.189 -0.4868  0.3560 -0.4949
  105MOL0     C13739  11.637   1.184   1.166 -0.7873  0.4474  0.0357
  105MOL0     C13740  11.774   1.256   1.166  0.1017 -0.4192  0.4699
  105MOL0     C13741  11.870   1.224   1.046 -0.1075 -0.0517 -0.0436
  105MOL0     C13742  12.021   1.266   1.063  0.0326 -0.1018  1.4723
  105MOL0     C13743  12.067   1.319   0.932  0.0034 -0.0115 -0.1884
  105MOL0     C13744  12.150   1.220   0.850  0.6753 -0.0571  0.1336
  105MOL0     N13745  12.187   1.271   0.719  0.8912  0.9162  0.1741
  105MOL0     C13746  12.101   1.271   0.611  0.0763 -1.5604 -0.3291
  105MOL0     C13747  12.180   1.303   0.501  0.0166  0.4989  0.2270
  105MOL0     C13748  12.133   1.323   0.358 -0.2927 -0.6609  0.2101
  105MOL0     C13749  12.106   1.466   0.340  0.7157 -0.0060  0.7740
  105MOL0     C13750  12.075   1.515   0.195 -0.7583 -0.3927  0.5488
  105MOL0     C13751  11.953   1.602   0.187  0.7534  0.0388 -0.4855
  105MOL0     O13752  11.920   1.666   0.058 -0.6896 -0.6345 -0.1909
  105MOL0     C13753  11.989   1.783   0.029  0.7818  0.1739  1.3484
  105MOL0     C13754  11.962   1.843  -0.101  0.3760 -0.1753  0.3846
  105MOL0     C13755  12.020   1.965  -0.138  0.1948  0.5492  0.1108
  105MOL0     C13756  12.114   2.020  -0.056  0.7040  0.0777  0.3527
  105MOL0     C13757  12.173   2.151  -0.097  0.5367  0.3691 -0.2389
  105MOL0     O13758  12.133   2.200  -0.226  0.1149  0.0468  0.4913
  105MOL0     C13759  12.166   2.326  -0.263 -0.9655 -0.0196  0.2366
  105MOL0     C13760  12.212   2.320  -0.394  0.3638 -0.2714  0.2836
  105MOL0     C13761  12.257   2.434  -0.458 -0.7224  0.9911  0.6996
  105MOL0     C13762  12.258   2.558  -0.392 -0.3714 -0.3488  0.0853
  105MOL0     O13763  12.292   2.680  -0.450  0.0098 -0.0145 -0.0538
  105MOL0     C13764  12.287   2.695  -0.597  0.4851 -0.7203  0.5876
  105MOL0     C13765  12.247   2.842  -0.645 -0.2216  0.0632  0.8163
  105MOL0     C13766  12.292   2.858  -0.785 -0.7016 -0.3485  0.1612
  105MOL0     C13767  12.286   3.010  -0.825  0.1222  0.8301  1.0997
  105MOL0     C13768  12.286   3.018  -0.981  1.2898 -0.2460  0.0777
  105MOL0     C13769  12.292   3.159  -1.025 -0.4158  0.8517  0.0359
  105MOL0     C13770  12.435   3.203  -1.037  0.2593  0.2154  0.3378
  105MOL0     C13771  12.459   3.352  -1.075  0.2005 -1.6892  0.2817
  105MOL0    Cl13772  12.620   3.344  -1.138 -0.2694 -0.1403 -0.1544
  105MOL0     C13773  12.195   2.566  -0.257 -0.4652 -0.3445  0.0587
  105MOL0     C13774  12.156   2.444  -0.190  0.0586 -0.2965 -0.1944
  105MOL0     O13775  12.243   2.210  -0.017  0.9249  1.2482  0.6535
  105MOL0     C13776  12.149   1.959   0.066 -0.4570 -0.3934  0.2034
  105MOL0     C13777  12.083   1.848   0.107  0.2833  0.2238 -0.4085
  105MOL0     N13778  12.312   1.303   0.542 -0.2640  0.0358 -0.2891
  105MOL0     N13779  12.317   1.290   0.681  0.1862 -0.1013  0.9449
  105MOL0     C13780  11.455   0.621   1.275 -0.3431 -0.2835  0.1670
  105MOL0     C13781  11.343   0.533   1.288 -0.5274 -1.0852 -0.0819
  105MOL0     C13782  10.955   0.313   1.358  0.1412 -0.5182  0.4728
  105MOL0     C13783  10.838   0.382   1.328 -0.9776 -1.2896 -0.0587
  105MOL0     C13784  10.715   0.343   1.383 -0.5057  0.7645 -0.8118
  105MOL0     C13785  10.708   0.223   1.455 -1.0656 -0.8270 -0.4098
  105MOL0     O13786  10.588   0.191   1.510  0.2378  0.6772  0.3647
  105MOL0     C13787  10.585   0.182   1.648 -0.3703 -0.2175 -0.5373
  105MOL0     C13788  10.477   0.270   1.718  0.1682  0.3104 -0.4954
  105MOL0     C13789  10.475   0.414   1.681 -1.0720  0.9755  0.2272
  105MOL0     C13790  10.391   0.504   1.766 -0.5263 -0.3971 -0.9804
  105MOL0     C13791  10.370   0.630   1.687  1.1187  0.6334 -0.0033
  105MOL0     C13792  10.327   0.727   1.624  0.6689 -0.3255 -1.0236
  105MOL0     C13793  10.822   0.145   1.478  0.0525 -0.8310  0.6509
  105MOL0     C13794  10.949   0.191   1.433  0.3637 -0.3542 -0.2303
  105MOL0     H13795  11.074   0.718   1.188 -1.1357 -0.8895  0.1073
  105MOL0     H13796  11.289   0.883   1.140  0.6216  1.3812  2.2377
  105MOL0     H13797  11.471   1.002   1.269  1.1537 -0.0605  1.3550
  105MOL0     H13798  11.483   0.989   1.089 -0.1853  2.8076  1.6696
  105MOL0     H13799  11.731   0.981   1.120 -0.6939 -0.6029  0.0169
  105MOL0     H13800  11.697   1.030   1.293 -0.2738  3.5588 -0.3806
  105MOL0     H13801  11.575   1.227   1.245  3.7856  2.6954  2.7947
  105MOL0     H13802  11.589   1.205   1.069 -0.0996  2.8488  0.1510
  105MOL0     H13803  11.752   1.362   1.181 -2.8219 -0.7164 -0.8607
  105MOL0     H13804  11.825   1.207   1.249 -1.1943  2.3987  3.0990
  105MOL0     H13805  11.824   1.271   0.959  1.3326  1.1500 -0.1862
  105MOL0     H13806  11.865   1.115   1.037 -1.3203 -0.0984  0.8660
  105MOL0     H13807  12.085   1.191   1.109 -1.0080 -2.4176 -0.6409
  105MOL0     H13808  12.027   1.350   1.133 -3.5653  1.2925  0.3346
  105MOL0     H13809  11.977   1.350   0.877 -0.7633  3.1818  2.5345
  105MOL0     H13810  12.126   1.411   0.939  0.2572 -0.2659  1.6394
  105MOL0     H13811  12.088   1.132   0.832  1.3512 -0.8401  1.4304
  105MOL0     H13812  12.239   1.192   0.908 -1.9290 -2.5620  3.3155
  105MOL0     H13813  11.994   1.273   0.626  0.5595  0.6577  5.1137
  105MOL0     H13814  12.045   1.262   0.336 -0.6512 -0.1005  0.0545
  105MOL0     H13815  12.208   1.296   0.283  0.1002  2.5638 -0.7296
  105MOL0     H13816  12.186   1.523   0.388  1.5979 -0.3264 -0.2680
  105MOL0     H13817  12.009   1.476   0.390  0.5368 -4.4905  1.7445
  105MOL0     H13818  12.158   1.574   0.155 -2.6800  1.6489 -0.6619
  105MOL0     H13819  12.062   1.429   0.129  1.5535  1.9715 -3.4147
  105MOL0     H13820  11.945   1.674   0.270  1.8478 -0.4336  0.0384
  105MOL0     H13821  11.868   1.537   0.210  0.4911  0.9225  1.2874
  105MOL0     H13822  11.894   1.795  -0.169 -3.3990  1.7970  2.4561
  105MOL0     H13823  11.991   2.012  -0.231  0.4009  0.5860  0.0655
  105MOL0     H13824  12.205   2.240  -0.467  0.1611  1.6048 -1.8724
  105MOL0     H13825  12.261   2.405  -0.562 -0.6827 -1.5739  1.3368
  105MOL0     H13826  12.221   2.622  -0.645  0.2441  0.1309 -0.4144
  105MOL0     H13827  12.390   2.671  -0.625  2.4151  3.1975  3.4005
  105MOL0     H13828  12.301   2.907  -0.576  2.9974 -0.4245 -1.0412
  105MOL0     H13829  12.143   2.869  -0.628  0.5465  2.0090  2.9579
  105MOL0     H13830  12.229   2.803  -0.856 -1.8006  0.9870  0.0535
  105MOL0     H13831  12.390   2.811  -0.794 -1.2602 -2.0229  2.0495
  105MOL0     H13832  12.197   3.054  -0.779  0.9921  1.9494  1.7543
  105MOL0     H13833  12.374   3.058  -0.783  2.6733 -0.4445 -2.2792
  105MOL0     H13834  12.194   2.981  -1.026 -0.0223  3.9320 -1.1494
  105MOL0     H13835  12.375   2.965  -1.018  2.2291  1.0463  0.3835
  105MOL0     H13836  12.238   3.222  -0.954 -2.8121 -1.4250  0.3737
  105MOL0     H13837  12.243   3.183  -1.119 -2.8993 -0.7316  0.8370
  105MOL0     H13838  12.488   3.182  -0.944  1.9818 -0.0474 -0.6592
  105MOL0     H13839  12.478   3.137  -1.113 -2.2059  2.9176 -3.8338
  105MOL0     H13840  12.460   3.418  -0.988 -3.5001  2.0902 -2.1593
  105MOL0     H13841  12.387   3.402  -1.140 -0.2255  0.2554  2.1386
  105MOL0     H13842  12.204   2.653  -0.192  2.9441 -0.1742 -0.4305
  105MOL0     H13843  12.124   2.438  -0.086 -1.6850  1.9148 -0.5287
  105MOL0     H13844  12.232   2.006   0.117 -1.0138  0.2018  0.5753
  105MOL0     H13845  12.126   1.803   0.196 -3.5062  0.4547  1.7450
  105MOL0     H13846  11.552   0.591   1.314 -0.1335 -0.2643 -0.3385
  105MOL0     H13847  11.353   0.431   1.324 -2.8075 -1.1627  0.5355
  105MOL0     H13848  10.836   0.476   1.274  0.6519 -1.2198 -0.0485
  105MOL0     H13849  10.625   0.403   1.366 -2.0146 -0.3305  2.4483
  105MOL0     H13850  10.684   0.186   1.693  0.0848 -3.1499 -1.0867
  105MOL0     H13851  10.551   0.079   1.661 -4.3519  1.0413  0.3026
  105MOL0     H13852  10.388   0.237   1.665  0.0879  0.0926 -0.2293
  105MOL0     H13853  10.474   0.257   1.827  1.1414  0.7727 -0.4034
  105MOL0     H13854  10.442   0.421   1.576 -1.4541  0.3207  0.2965
  105MOL0     H13855  10.575   0.453   1.661  0.3556 -2.3558  0.1703
  105MOL0     H13856  10.292   0.467   1.796 -1.4668  2.0268 -0.8288
  105MOL0     H13857  10.441   0.528   1.860  0.6467  1.6063 -2.0597
  105MOL0     H13858  10.286   0.820   1.588 -0.7537 -0.0110  1.2061
  105MOL0     H13859  10.803   0.062   1.545 -5.5213 -0.7300 -0.3818
  105MOL0     H13860  11.038   0.132   1.451 -0.1318 -0.9780  0.2233
  106MOL0     O13861   4.932   5.453   9.204  0.8240 -0.2476 -1.1200
  106MOL0     C13862   4.810   5.460   9.222  0.1158  0.6299  0.0118
  106MOL0     O13863   4.724   5.370   9.173 -0.1573  0.0285 -0.2803
  106MOL0     C13864   4.736   5.352   9.039 -0.7725 -0.0651  0.3531
  106MOL0     C13865   4.784   5.226   8.985  0.5998  0.0162 -0.6170
  106MOL0     C13866   4.803   5.212   8.838  0.6324 -0.1708  0.1833
  106MOL0     C13867   4.779   5.314   8.746 -0.5810  0.4471 -0.2334
  106MOL0     O13868   4.799   5.291   8.617 -0.3512  0.2479  0.3804
  106MOL0     C13869   4.840   5.389   8.517  0.3772  0.5361  0.6188
  106MOL0     C13870   4.892   5.332   8.383 -0.0072 -0.7500 -1.6191
  106MOL0     C13871   4.777   5.287   8.293  0.0841  0.1563  0.2332
  106MOL0     C13872   4.824   5.279   8.142  0.2108  0.2296 -0.7113
  106MOL0     C13873   4.702   5.287   8.051  0.4792 -0.1048 -1.0600
  106MOL0     C13874   4.638   5.429   8.038  0.4415 -0.1481 -0.3829
  106MOL0     C13875   4.553   5.414   7.912 -0.1975  0.0569 -0.1731
  106MOL0     C13876   4.505   5.544   7.857  0.1489 -0.4876  0.5776
  106MOL0     N13877   4.608   5.642   7.810  0.1978 -0.6715 -0.3767
  106MOL0     C13878   4.660   5.645   7.679  0.1414  0.2536 -0.0968
  106MOL0     C13879   4.744   5.746   7.682  0.3536  0.2863 -0.8433
  106MOL0     C13880   4.832   5.794   7.564 -0.0616  0.4032  0.2822
  106MOL0     C13881   4.906   5.677   7.487  0.1982  0.9563 -0.5592
  106MOL0     C13882   4.957   5.708   7.348  0.6167 -0.0798  0.3535
  106MOL0     C13883   4.847   5.743   7.246 -0.4334  0.6614 -0.5029
  106MOL0     O13884   4.878   5.693   7.119  0.4836  0.2078 -0.5135
  106MOL0     C13885   4.802   5.735   7.015  0.4541 -1.1315  0.6196
  106MOL0     C13886   4.786   5.653   6.907  0.8530 -1.1396  0.0120
  106MOL0     C13887   4.730   5.694   6.787  0.3456 -0.6242  0.0029
  106MOL0     C13888   4.675   5.821   6.773 -0.3444 -0.0098  0.2355
  106MOL0     C13889   4.615   5.870   6.639 -0.3228  0.4636 -0.4127
  106MOL0     O13890   4.551   5.988   6.641  0.0401  0.0178  0.3200
  106MOL0     C13891   4.491   6.019   6.516 -0.9402 -0.2594  1.0047
  106MOL0     C13892   4.357   6.058   6.527 -0.2358  1.0393 -0.0798
  106MOL0     C13893   4.286   6.103   6.420  0.1682  0.3122  0.3691
  106MOL0     C13894   4.347   6.123   6.296 -0.1986  0.7692  0.2026
  106MOL0     O13895   4.294   6.180   6.186  0.0591  0.4987  1.0232
  106MOL0     C13896   4.149   6.208   6.184  0.5667 -0.9991  0.7978
  106MOL0     C13897   4.128   6.327   6.090 -0.6725 -0.4126  0.2733
  106MOL0     C13898   4.201   6.312   5.956  0.0040 -0.2212  0.4100
  106MOL0     C13899   4.151   6.412   5.853  0.8463  1.0249 -0.7167
  106MOL0     C13900   4.201   6.556   5.860 -1.2009 -0.1474  0.2415
  106MOL0     C13901   4.169   6.647   5.733 -0.1821 -0.2826 -0.4374
  106MOL0     C13902   4.019   6.667   5.737  1.1005  0.9362  0.9090
  106MOL0     C13903   3.999   6.762   5.613  0.0811  0.0848 -0.8570
  106MOL0    Cl13904   4.057   6.929   5.667  0.1287  0.0972 -0.3529
  106MOL0     C13905   4.481   6.085   6.282  0.5620 -0.5598  0.3376
  106MOL0     C13906   4.553   6.033   6.392 -0.6068  0.5058 -0.3228
  106MOL0     O13907   4.638   5.804   6.534 -0.5282  0.4231 -0.0907
  106MOL0     C13908   4.676   5.908   6.885  0.0041  1.8836 -0.7440
  106MOL0     C13909   4.750   5.870   7.002 -0.3977  0.7302  0.0244
  106MOL0     N13910   4.760   5.785   7.815 -0.1211  0.5292 -0.3604
  106MOL0     N13911   4.682   5.719   7.896  0.8384 -0.0677 -0.3525
  106MOL0     C13912   4.742   5.431   8.815  0.9423 -0.4831 -0.5250
  106MOL0     C13913   4.722   5.457   8.948 -0.5369  0.5211 -0.0689
  106MOL0     C13914   4.767   5.547   9.324  0.3670  0.3775  0.2835
  106MOL0     C13915   4.632   5.564   9.354 -0.0610  0.9794  0.0484
  106MOL0     C13916   4.590   5.663   9.448 -0.7486  0.0155 -0.2856
  106MOL0     C13917   4.681   5.758   9.503  0.2063 -0.1839  0.1415
  106MOL0     O13918   4.632   5.848   9.600  0.5694  0.0092  0.2265
  106MOL0     C13919   4.710   5.966   9.637 -0.2332 -0.4919 -0.2124
  106MOL0     C13920   4.616   6.087   9.658 -0.1741 -0.5198  0.2807
  106MOL0     C13921   4.505   6.082   9.550  0.0209  0.0012  0.0595
  106MOL0     C13922   4.397   6.185   9.568 -0.2272 -0.0757 -0.7787
  106MOL0     C13923   4.310   6.183   9.456  0.5941  0.0526 -0.0044
  106MOL0     C13924   4.244   6.210   9.361  1.0581  0.2728 -0.7510
  106MOL0     C13925   4.814   5.739   9.481  0.2181  0.2826  0.3880
  106MOL0     C13926   4.855   5.634   9.394 -1.1593 -0.3393  0.0321
  106MOL0     H13927   4.813   5.150   9.057 -0.2340 -0.8313 -1.1444
  106MOL0     H13928   4.830   5.114   8.801 -4.5655 -0.8712 -2.8755
  106MOL0     H13929   4.911   5.454   8.570  1.1507  0.8906 -0.8053
  106MOL0     H13930   4.750   5.449   8.501  0.6347  0.4309 -1.4973
  106MOL0     H13931   4.951   5.241   8.401 -0.2885 -0.9862 -1.8792
  106MOL0     H13932   4.954   5.407   8.334  2.5853 -0.9774  1.0526
  106MOL0     H13933   4.698   5.362   8.300  1.6232  1.8808 -0.0096
  106MOL0     H13934   4.730   5.199   8.338  0.1039  0.7898  1.5440
  106MOL0     H13935   4.877   5.374   8.127  0.7848  0.4346  2.0583
  106MOL0     H13936   4.873   5.192   8.098 -1.9919 -0.9242 -0.9770
  106MOL0     H13937   4.627   5.224   8.100 -0.4069  0.1627 -2.0387
  106MOL0     H13938   4.732   5.250   7.952  1.8968  0.0416 -0.7044
  106MOL0     H13939   4.728   5.491   8.027 -0.5445  1.4424  0.1534
  106MOL0     H13940   4.576   5.457   8.123  0.9811  1.6441 -0.5424
  106MOL0     H13941   4.589   5.343   7.837  1.4243 -4.7170  4.4678
  106MOL0     H13942   4.463   5.353   7.930 -0.5675 -0.0500 -2.1611
  106MOL0     H13943   4.447   5.599   7.932  1.7867  2.3318 -0.0879
  106MOL0     H13944   4.439   5.518   7.773  0.3818  1.2123 -0.1774
  106MOL0     H13945   4.639   5.585   7.591  2.0115 -1.7452  0.7124
  106MOL0     H13946   4.906   5.858   7.613 -0.2758 -0.9403  2.5040
  106MOL0     H13947   4.766   5.845   7.493 -2.8604 -1.8020  1.0870
  106MOL0     H13948   4.845   5.586   7.480 -0.1911  1.2907 -1.6414
  106MOL0     H13949   5.001   5.660   7.539  1.5053  1.1700 -2.7598
  106MOL0     H13950   5.032   5.788   7.345  1.8127 -1.1961 -2.3192
  106MOL0     H13951   4.994   5.611   7.314  1.6655 -0.2817  1.9689
  106MOL0     H13952   4.837   5.851   7.250  3.1116  1.1282 -1.2036
  106MOL0     H13953   4.748   5.704   7.274  0.5373 -1.4195  0.2864
  106MOL0     H13954   4.821   5.551   6.912  3.0488 -0.5833 -1.9978
  106MOL0     H13955   4.726   5.624   6.704  0.5249 -0.3598 -0.2329
  106MOL0     H13956   4.314   6.051   6.626  2.4764  0.1194  1.1445
  106MOL0     H13957   4.188   6.138   6.452  0.6466  1.2170  0.8750
  106MOL0     H13958   4.095   6.239   6.274 -0.5420  0.4114 -0.2958
  106MOL0     H13959   4.095   6.122   6.144  1.8604 -1.6816  0.4550
  106MOL0     H13960   4.173   6.418   6.133  0.2848  0.3420 -2.0856
  106MOL0     H13961   4.022   6.346   6.074 -1.4024 -4.1883 -0.1629
  106MOL0     H13962   4.187   6.210   5.917 -0.6210 -0.2713  0.7431
  106MOL0     H13963   4.307   6.326   5.975 -0.4062  1.9277  1.3893
  106MOL0     H13964   4.168   6.364   5.756 -2.2513  0.0881 -0.8817
  106MOL0     H13965   4.043   6.421   5.867  0.3664  0.2180 -3.3019
  106MOL0     H13966   4.310   6.548   5.861 -0.7953  2.8304 -2.5139
  106MOL0     H13967   4.169   6.603   5.953 -0.4248  1.5644 -0.3113
  106MOL0     H13968   4.205   6.607   5.638  0.0174  1.3724 -1.0920
  106MOL0     H13969   4.224   6.742   5.741  1.4260 -1.3083  1.3805
  106MOL0     H13970   3.972   6.569   5.725  2.3249  0.3375  0.7667
  106MOL0     H13971   3.969   6.711   5.824 -1.7355 -1.4298  0.6248
  106MOL0     H13972   3.890   6.762   5.603 -0.1287 -0.9599  0.9899
  106MOL0     H13973   4.038   6.720   5.520 -1.1336  1.3020 -1.9763
  106MOL0     H13974   4.520   6.104   6.182  2.7355  0.9758  1.4036
  106MOL0     H13975   4.656   6.002   6.373 -0.6318 -0.2092  0.6095
  106MOL0     H13976   4.626   6.004   6.894 -1.1943  1.3521 -1.3918
  106MOL0     H13977   4.764   5.949   7.075 -0.5915  1.5046 -0.7674
  106MOL0     H13978   4.689   5.507   8.759  0.5735  0.6080  1.2431
  106MOL0     H13979   4.689   5.553   8.988 -1.5267 -0.9170  2.8441
  106MOL0     H13980   4.554   5.505   9.305 -0.0199 -3.0516  4.1862
  106MOL0     H13981   4.487   5.687   9.470 -0.4820  1.9766 -0.9653
  106MOL0     H13982   4.787   5.988   9.563  1.2942  0.2938  1.5315
  106MOL0     H13983   4.769   5.945   9.727 -0.2074 -1.3618 -0.4256
  106MOL0     H13984   4.577   6.064   9.757 -0.6202 -2.3604 -0.2932
  106MOL0     H13985   4.662   6.186   9.651 -1.5048  0.3106  2.4591
  106MOL0     H13986   4.447   5.990   9.545 -1.9397  1.2389 -2.5432
  106MOL0     H13987   4.565   6.088   9.459 -2.4563 -0.5577 -1.7245
  106MOL0     H13988   4.345   6.172   9.663 -0.3410  0.4638 -0.7671
  106MOL0     H13989   4.439   6.285   9.582 -0.8773  0.3182 -1.5917
  106MOL0     H13990   4.196   6.226   9.266 -0.8456 -0.2861  0.0771
  106MOL0     H13991   4.890   5.797   9.532 -0.0815  1.4193 -0.4153
  106MOL0     H13992   4.962   5.629   9.375 -1.4601 -0.8948 -1.6625
  107MOL0     O13993   3.742   1.360   6.660  0.0410  0.1140  0.3890
  107MOL0     C13994   3.822   1.367   6.753  0.1355  0.2054  1.4704
  107MOL0     O13995   3.932   1.452   6.756  0.0891  0.8118  0.1822
  107MOL0     C13996   3.976   1.533   6.656 -0.7196 -0.4466  0.6503
  107MOL0     C13997   4.053   1.639   6.688 -1.1217 -0.9878  0.4611
  107MOL0     C13998   4.077   1.744   6.598  0.3646 -0.0257 -0.5503
  107MOL0     C13999   4.030   1.750   6.472 -0.7373  0.1185  0.2755
  107MOL0     O14000   4.054   1.830   6.366 -0.7168 -0.8376  0.7484
  107MOL0     C14001   4.181   1.889   6.365  0.0131 -0.8598 -0.5680
  107MOL0     C14002   4.176   2.020   6.284  0.0552 -0.4784 -0.9985
  107MOL0     C14003   4.287   2.032   6.183  0.3190  0.4876 -0.5772
  107MOL0     C14004   4.271   2.152   6.091  0.5111  1.1629  0.2517
  107MOL0     C14005   4.350   2.134   5.955  0.1703 -0.7372  0.4535
  107MOL0     C14006   4.372   2.265   5.876 -0.1077  0.2735 -1.6510
  107MOL0     C14007   4.483   2.358   5.938 -0.0466  0.3298 -0.0433
  107MOL0     C14008   4.522   2.490   5.858  0.9277  0.1839 -0.5343
  107MOL0     N14009   4.546   2.600   5.938  0.8978  0.4937 -0.4329
  107MOL0     C14010   4.665   2.647   6.001  0.4183  0.1896 -0.4076
  107MOL0     C14011   4.622   2.775   6.038  0.6543 -1.1225 -0.2325
  107MOL0     C14012   4.715   2.873   6.118  0.5701  0.3300 -0.6238
  107MOL0     C14013   4.757   2.818   6.261 -0.5568 -0.4445 -0.2825
  107MOL0     C14014   4.641   2.750   6.336  0.3496 -0.2039 -0.1512
  107MOL0     C14015   4.663   2.725   6.488 -0.7258  0.2269  0.1326
  107MOL0     O14016   4.547   2.669   6.553  0.7457  0.0051  0.4142
  107MOL0     C14017   4.447   2.745   6.593  0.3885  0.7561  0.3777
  107MOL0     C14018   4.318   2.679   6.626 -0.1121 -0.9579  0.7279
  107MOL0     C14019   4.205   2.745   6.665  0.1258  0.4281  0.7196
  107MOL0     C14020   4.213   2.889   6.669  0.7826  0.2839  0.2443
  107MOL0     C14021   4.103   2.967   6.730 -0.5853  0.5800  0.7327
  107MOL0     O14022   4.123   3.101   6.717 -0.0114 -0.1899  0.2402
  107MOL0     C14023   4.046   3.197   6.768 -0.3683 -0.6576  0.2362
  107MOL0     C14024   4.095   3.259   6.879 -0.1229  0.2102 -0.5074
  107MOL0     C14025   4.012   3.365   6.940 -0.5723 -0.0179 -0.0047
  107MOL0     C14026   3.892   3.412   6.881 -0.3339  0.2938 -0.3939
  107MOL0     O14027   3.808   3.501   6.938 -0.5792 -0.0960  0.4789
  107MOL0     C14028   3.805   3.515   7.083  0.1416 -0.5561  0.7012
  107MOL0     C14029   3.681   3.582   7.140 -0.8669 -0.1762 -0.1363
  107MOL0     C14030   3.671   3.552   7.294  0.5492  0.0752  1.2045
  107MOL0     C14031   3.646   3.410   7.327  0.1059  1.1400 -0.6602
  107MOL0     C14032   3.609   3.381   7.476 -0.4906 -0.2449 -0.5781
  107MOL0     C14033   3.707   3.445   7.573  0.2503 -0.0129  1.2909
  107MOL0     C14034   3.853   3.399   7.560 -1.0208 -0.3808  0.5222
  107MOL0     C14035   3.949   3.436   7.676  0.4635  0.7985 -0.2384
  107MOL0    Cl14036   3.947   3.605   7.715 -0.2410  0.4815  0.3668
  107MOL0     C14037   3.850   3.344   6.763  0.0542 -0.6609  0.4049
  107MOL0     C14038   3.928   3.242   6.713 -0.9243  0.5475 -0.0357
  107MOL0     O14039   4.023   2.910   6.801 -0.0076  0.2912 -0.3238
  107MOL0     C14040   4.326   2.950   6.622 -0.0608  0.0563  0.3618
  107MOL0     C14041   4.444   2.884   6.588  0.2616  0.6379 -0.8074
  107MOL0     N14042   4.494   2.804   5.991  0.0381  0.1158  0.8615
  107MOL0     N14043   4.452   2.692   5.938 -0.4227 -1.2154  0.4455
  107MOL0     C14044   3.956   1.637   6.430  0.0971 -0.4026  0.1109
  107MOL0     C14045   3.929   1.533   6.524  0.1530  0.3103  0.1675
  107MOL0     C14046   3.791   1.265   6.855 -0.6890  0.1926 -0.7570
  107MOL0     C14047   3.678   1.184   6.855  0.6049 -0.3344  0.2185
  107MOL0     C14048   3.651   1.097   6.959  0.2738 -0.0440  0.8585
  107MOL0     C14049   3.734   1.087   7.076  0.2598  0.2946  0.4850
  107MOL0     O14050   3.722   1.000   7.175  0.0936 -0.3904  0.1841
  107MOL0     C14051   3.621   0.896   7.169  0.2200 -0.2684  0.2296
  107MOL0     C14052   3.491   0.963   7.208  0.5710  0.5472 -0.7670
  107MOL0     C14053   3.502   1.030   7.347 -0.4173 -0.5150  0.5582
  107MOL0     C14054   3.367   1.068   7.408 -0.2968 -0.3581  1.3487
  107MOL0     C14055   3.378   1.111   7.545  1.1656  0.5257 -0.5122
  107MOL0     C14056   3.382   1.136   7.664  0.5678 -0.3619  0.0651
  107MOL0     C14057   3.848   1.169   7.067  0.1319 -0.3207  0.1241
  107MOL0     C14058   3.885   1.250   6.961  0.1464  0.0363 -0.4367
  107MOL0     H14059   4.088   1.667   6.786 -0.6663  0.1544 -0.0072
  107MOL0     H14060   4.140   1.818   6.647 -2.0852  1.3048  0.7826
  107MOL0     H14061   4.245   1.821   6.308  1.0355 -0.0743 -0.3671
  107MOL0     H14062   4.207   1.919   6.467 -2.3853 -1.8246  0.4035
  107MOL0     H14063   4.175   2.108   6.349 -0.3323 -0.2621 -1.2929
  107MOL0     H14064   4.082   2.018   6.229 -0.6241  3.3604 -0.2721
  107MOL0     H14065   4.301   1.940   6.124  3.0699 -0.2181  0.9738
  107MOL0     H14066   4.374   2.036   6.249 -0.1050  0.8804 -0.0398
  107MOL0     H14067   4.164   2.161   6.070  0.3844 -2.1819 -1.1861
  107MOL0     H14068   4.307   2.236   6.152  0.3205  0.5314  1.2459
  107MOL0     H14069   4.300   2.055   5.898  1.1061 -0.3098 -1.0139
  107MOL0     H14070   4.443   2.087   5.989 -0.6954 -4.7023 -1.9869
  107MOL0     H14071   4.273   2.306   5.857 -0.7783 -1.0706 -1.2004
  107MOL0     H14072   4.415   2.240   5.778  1.6551 -0.3237 -0.7708
  107MOL0     H14073   4.456   2.384   6.041 -0.7186  1.7314 -0.5439
  107MOL0     H14074   4.571   2.293   5.938  0.0023  0.3891 -0.4186
  107MOL0     H14075   4.437   2.510   5.792  0.4732  1.1482  0.3330
  107MOL0     H14076   4.601   2.455   5.791  0.9506  1.7415 -1.3601
  107MOL0     H14077   4.762   2.602   6.018 -0.2708 -1.8909 -1.6252
  107MOL0     H14078   4.654   2.961   6.141 -0.7348 -0.9062  0.8738
  107MOL0     H14079   4.801   2.893   6.053  0.4911  0.2272 -0.7589
  107MOL0     H14080   4.807   2.897   6.318  0.7398  1.4945 -3.8130
  107MOL0     H14081   4.833   2.740   6.245  1.5400  1.0496  1.7023
  107MOL0     H14082   4.548   2.807   6.342 -0.5016 -1.5271 -0.3138
  107MOL0     H14083   4.610   2.655   6.293  0.0984 -1.6733  2.9880
  107MOL0     H14084   4.699   2.816   6.538  4.4090 -2.7963  2.7820
  107MOL0     H14085   4.747   2.655   6.493  0.2083  1.1348 -1.5858
  107MOL0     H14086   4.303   2.572   6.615 -2.3450 -0.7989  1.7367
  107MOL0     H14087   4.121   2.682   6.695 -1.0139  0.1105 -2.6929
  107MOL0     H14088   4.189   3.234   6.927  0.2130 -0.7804 -1.6432
  107MOL0     H14089   4.055   3.415   7.027  1.8610 -0.2515 -1.0048
  107MOL0     H14090   3.898   3.566   7.111  0.6156 -1.2488  0.4134
  107MOL0     H14091   3.799   3.411   7.117 -0.9609 -0.6409  0.2884
  107MOL0     H14092   3.594   3.559   7.078 -1.7124  1.1126  0.5115
  107MOL0     H14093   3.688   3.691   7.135 -0.5489  0.2108  4.3827
  107MOL0     H14094   3.587   3.607   7.336  1.3163  2.2981  0.0002
  107MOL0     H14095   3.761   3.583   7.347  1.0465 -1.4313  1.2761
  107MOL0     H14096   3.569   3.382   7.254  1.3603 -1.0270 -1.2578
  107MOL0     H14097   3.738   3.353   7.310  0.2675  0.4228  2.1951
  107MOL0     H14098   3.592   3.273   7.485  0.4904 -0.7181 -3.3742
  107MOL0     H14099   3.516   3.426   7.510 -1.2188 -1.9808 -0.1438
  107MOL0     H14100   3.681   3.417   7.676  0.0778 -1.4520  0.8782
  107MOL0     H14101   3.703   3.554   7.561  4.5555  0.3701  1.6033
  107MOL0     H14102   3.857   3.291   7.543  4.3018 -0.1944 -1.2940
  107MOL0     H14103   3.901   3.439   7.470  0.4354  3.5447  2.7734
  107MOL0     H14104   4.047   3.398   7.645  0.4858 -1.1976  2.0066
  107MOL0     H14105   3.915   3.381   7.764 -1.2958  1.3652 -0.5164
  107MOL0     H14106   3.755   3.362   6.713  1.0671  0.9136 -1.0610
  107MOL0     H14107   3.897   3.218   6.611  0.7379 -0.9729 -0.2399
  107MOL0     H14108   4.342   3.056   6.609 -2.0586  0.1001 -3.1215
  107MOL0     H14109   4.525   2.951   6.563  0.5800  0.2139 -0.9099
  107MOL0     H14110   3.920   1.625   6.328  1.0156  0.6472 -0.3601
  107MOL0     H14111   3.860   1.458   6.487 -2.4502  1.2127  2.8272
  107MOL0     H14112   3.615   1.179   6.767  0.9734  0.8208 -0.1312
  107MOL0     H14113   3.561   1.037   6.951 -0.0149  0.4932 -0.1135
  107MOL0     H14114   3.656   0.826   7.246  1.9044 -1.8657 -1.8408
  107MOL0     H14115   3.615   0.830   7.082  0.3067  1.2653 -0.9724
  107MOL0     H14116   3.442   1.035   7.141 -0.1186 -3.4760 -5.1673
  107MOL0     H14117   3.419   0.881   7.219 -0.2415  1.2847 -0.4248
  107MOL0     H14118   3.562   1.121   7.347 -2.7426  1.3065 -3.5014
  107MOL0     H14119   3.550   0.957   7.413  0.0071 -2.3569 -1.6569
  107MOL0     H14120   3.332   1.158   7.356 -1.4548 -1.4132  0.2194
  107MOL0     H14121   3.290   0.992   7.391 -0.5690  0.2602 -0.4481
  107MOL0     H14122   3.376   1.173   7.764 -0.6496 -4.8314  1.9158
  107MOL0     H14123   3.908   1.155   7.156  1.4748 -1.5580 -0.9298
  107MOL0     H14124   3.973   1.314   6.954  1.2007 -1.3996 -0.8861
  108MOL0     O14125   0.485   9.334   6.349 -0.9936 -0.0098 -0.4346
  108MOL0     C14126   0.553   9.419   6.404 -0.6801 -0.6880  0.3407
  108MOL0     O14127   0.498   9.514   6.492  0.0799 -0.3155  0.2394
  108MOL0     C14128   0.358   9.525   6.496 -0.8631  0.3544  0.6076
  108MOL0     C14129   0.292   9.596   6.402 -0.3511 -0.5761  0.3299
  108MOL0     C14130   0.150   9.598   6.400  0.0030 -0.4345  0.3705
  108MOL0     C14131   0.074   9.518   6.482  0.6685 -0.2721 -0.2470
  108MOL0     O14132  -0.058   9.516   6.467  0.3799 -0.0478 -0.1113
  108MOL0     C14133  -0.133   9.454   6.577 -0.9507 -0.2066  0.2580
  108MOL0     C14134  -0.133   9.543   6.696 -1.3141 -0.7823  0.3188
  108MOL0     C14135  -0.233   9.660   6.706  0.5351 -0.1931  0.4332
  108MOL0     C14136  -0.378   9.630   6.716  0.5816 -0.4100 -0.1425
  108MOL0     C14137  -0.455   9.747   6.769  0.1668 -0.9578  0.1172
  108MOL0     C14138  -0.466   9.750   6.921  1.2995 -1.0396  0.5458
  108MOL0     C14139  -0.525   9.889   6.965  0.4874  1.7493 -0.5102
  108MOL0     C14140  -0.595   9.866   7.092  0.4176 -0.3459 -0.5522
  108MOL0     N14141  -0.664   9.992   7.132  0.6087 -0.2664 -0.4306
  108MOL0     C14142  -0.667  10.054   7.258 -0.0173 -0.6179  0.0561
  108MOL0     C14143  -0.741  10.163   7.235 -0.0250  0.6579  0.3213
  108MOL0     C14144  -0.781  10.242   7.355 -0.1236  0.5601 -0.3057
  108MOL0     C14145  -0.682  10.365   7.378 -0.3628  0.1888  0.1624
  108MOL0     C14146  -0.734  10.453   7.495  0.6360  0.5720 -0.1088
  108MOL0     C14147  -0.856  10.550   7.461  0.0203  0.7872  0.6607
  108MOL0     O14148  -0.872  10.643   7.562  0.3773  0.7794  0.4144
  108MOL0     C14149  -0.947  10.749   7.547 -0.7380  0.4645  0.3742
  108MOL0     C14150  -0.956  10.824   7.432  0.9577  0.6041 -1.0894
  108MOL0     C14151  -1.041  10.937   7.423 -0.3811  0.0333 -0.3390
  108MOL0     C14152  -1.124  10.970   7.532 -0.7747 -0.6059 -0.5737
  108MOL0     C14153  -1.216  11.081   7.534  0.6741 -0.3622  0.0546
  108MOL0     O14154  -1.330  11.064   7.596  0.5291  0.4238 -0.2704
  108MOL0     C14155  -1.402  11.176   7.621 -0.4498  0.2152  0.8387
  108MOL0     C14156  -1.527  11.190   7.554 -0.0506 -0.2050  0.0385
  108MOL0     C14157  -1.605  11.302   7.579 -0.5332 -0.3985  1.1621
  108MOL0     C14158  -1.546  11.413   7.650  0.0666  0.1527  1.0731
  108MOL0     O14159  -1.626  11.520   7.693 -0.5158  0.4592  0.2382
  108MOL0     C14160  -1.628  11.641   7.613  0.1253 -1.0596 -0.2053
  108MOL0     C14161  -1.747  11.734   7.647  0.1439 -0.2948 -0.7673
  108MOL0     C14162  -1.764  11.752   7.796  0.0573 -0.2565 -0.2099
  108MOL0     C14163  -1.827  11.890   7.828  0.3225  0.8153  0.3403
  108MOL0     C14164  -1.714  11.990   7.841  0.1395  0.0875  0.0868
  108MOL0     C14165  -1.758  12.138   7.880  0.6330 -0.4944  0.3492
  108MOL0     C14166  -1.818  12.136   8.016  0.7216 -0.5199 -0.5253
  108MOL0     C14167  -1.827  12.277   8.067  0.6409 -0.7836 -0.5571
  108MOL0    Cl14168  -1.963  12.354   7.982 -0.2372  0.1899 -0.0727
  108MOL0     C14169  -1.419  11.397   7.702  0.5373 -0.0399  0.7019
  108MOL0     C14170  -1.351  11.283   7.682 -0.4507 -1.0136  0.2187
  108MOL0     O14171  -1.188  11.171   7.460  0.1199 -0.4678  1.6784
  108MOL0     C14172  -1.098  10.908   7.654 -0.5647 -0.4703  0.3296
  108MOL0     C14173  -1.008  10.802   7.661  0.3987 -0.1109 -0.5314
  108MOL0     N14174  -0.775  10.177   7.099 -0.8904 -0.4197  0.6760
  108MOL0     N14175  -0.735  10.067   7.045 -0.0650  0.4093  0.8225
  108MOL0     C14176   0.147   9.445   6.584  0.4226 -0.3807 -0.4156
  108MOL0     C14177   0.283   9.450   6.593 -0.8606 -1.0043  0.3309
  108MOL0     C14178   0.686   9.446   6.361  0.3547  0.0826  0.4748
  108MOL0     C14179   0.767   9.543   6.421  0.5455  0.1902 -0.5663
  108MOL0     C14180   0.902   9.545   6.382 -0.3406 -0.1883  0.7447
  108MOL0     C14181   0.952   9.467   6.265  0.1058 -0.8088  0.1176
  108MOL0     O14182   1.075   9.487   6.216 -0.5384  0.3656 -0.3567
  108MOL0     C14183   1.168   9.553   6.297 -0.0322 -0.2289  0.2887
  108MOL0     C14184   1.307   9.516   6.247  0.3671 -0.3943  0.0764
  108MOL0     C14185   1.420   9.592   6.319  0.6068 -0.1206 -0.2899
  108MOL0     C14186   1.550   9.577   6.253 -1.1355 -0.4781 -0.4671
  108MOL0     C14187   1.667   9.648   6.309  0.7241  0.6616  0.2729
  108MOL0     C14188   1.750   9.731   6.352  0.0588  0.0692  0.0238
  108MOL0     C14189   0.863   9.382   6.215  0.1216 -0.0686  0.9472
  108MOL0     C14190   0.736   9.371   6.252 -0.6356  0.5556 -1.2446
  108MOL0     H14191   0.350   9.654   6.330  1.8085 -1.6406  1.1054
  108MOL0     H14192   0.100   9.655   6.322  0.1187 -0.3695  0.3430
  108MOL0     H14193  -0.105   9.351   6.600  0.5673 -0.0972 -0.9484
  108MOL0     H14194  -0.235   9.429   6.546 -0.5120  0.4702 -1.9053
  108MOL0     H14195  -0.035   9.587   6.718 -1.9376  1.0919 -0.4495
  108MOL0     H14196  -0.170   9.469   6.768 -2.8325 -0.4136 -0.0560
  108MOL0     H14197  -0.226   9.726   6.619 -1.2746  1.1662  1.2414
  108MOL0     H14198  -0.203   9.721   6.793 -0.6399  1.6625 -0.3880
  108MOL0     H14199  -0.417   9.597   6.619  0.5240 -1.0382  0.0880
  108MOL0     H14200  -0.405   9.543   6.777  1.3994 -1.1988 -0.8820
  108MOL0     H14201  -0.555   9.737   6.726 -0.0607 -1.5043  0.7563
  108MOL0     H14202  -0.411   9.841   6.734 -0.9139  0.1756  1.6908
  108MOL0     H14203  -0.364   9.737   6.959  2.1042  2.7669  0.0983
  108MOL0     H14204  -0.533   9.669   6.953 -0.4758 -0.4797 -1.4948
  108MOL0     H14205  -0.442   9.960   6.972  1.3426  0.9231 -1.9352
  108MOL0     H14206  -0.605   9.916   6.895 -1.8190 -0.4197  1.1046
  108MOL0     H14207  -0.508   9.858   7.158 -0.2062  5.1517  1.4178
  108MOL0     H14208  -0.658   9.777   7.104  1.6379 -1.0029  1.5847
  108MOL0     H14209  -0.625  10.033   7.356 -1.1788  1.3680  1.0406
  108MOL0     H14210  -0.790  10.192   7.452 -0.0339  0.3077 -0.4263
  108MOL0     H14211  -0.887  10.267   7.345 -1.4649 -2.4089  3.8641
  108MOL0     H14212  -0.672  10.423   7.286  0.6422  0.0320  0.1642
  108MOL0     H14213  -0.582  10.325   7.398 -0.9391 -2.4656 -1.6573
  108MOL0     H14214  -0.740  10.385   7.581  3.7710 -0.9483 -0.9605
  108MOL0     H14215  -0.648  10.517   7.516  0.8545  1.6054 -3.5535
  108MOL0     H14216  -0.949  10.494   7.452  0.5970 -0.2609  0.9595
  108MOL0     H14217  -0.838  10.588   7.360 -0.8360  3.0438  1.2953
  108MOL0     H14218  -0.877  10.821   7.358  1.0239 -1.5450 -1.0035
  108MOL0     H14219  -1.034  10.996   7.332  1.1310 -0.5742 -0.6525
  108MOL0     H14220  -1.579  11.107   7.507 -1.3914 -0.1672  1.3684
  108MOL0     H14221  -1.710  11.304   7.549  0.4300  2.3325 -2.7538
  108MOL0     H14222  -1.636  11.611   7.508 -2.7643 -0.1401 -0.3195
  108MOL0     H14223  -1.533  11.691   7.636 -0.1314 -0.1225 -1.0979
  108MOL0     H14224  -1.833  11.681   7.605 -1.5465 -0.1960  2.2734
  108MOL0     H14225  -1.726  11.829   7.596 -1.4599  1.0364  0.8912
  108MOL0     H14226  -1.663  11.745   7.838 -0.2450  2.7668  1.2701
  108MOL0     H14227  -1.829  11.670   7.829 -2.7754  1.4600 -1.2202
  108MOL0     H14228  -1.898  11.916   7.749 -1.6061 -1.1128  1.3101
  108MOL0     H14229  -1.887  11.883   7.920 -2.6948  0.8228 -1.4829
  108MOL0     H14230  -1.654  11.990   7.749 -3.6436  0.1281 -2.6035
  108MOL0     H14231  -1.636  11.950   7.906  1.7460  0.9928 -1.1995
  108MOL0     H14232  -1.820  12.180   7.801  1.7278  1.8088  0.6047
  108MOL0     H14233  -1.667  12.199   7.884  0.4834 -0.3286  2.3134
  108MOL0     H14234  -1.919  12.094   8.013  0.3657 -0.2173  3.0476
  108MOL0     H14235  -1.757  12.077   8.085  0.0615  1.9549  2.3968
  108MOL0     H14236  -1.746  12.348   8.051  0.9551 -1.4545 -2.1970
  108MOL0     H14237  -1.856  12.282   8.172 -1.0098  2.0986 -1.0366
  108MOL0     H14238  -1.385  11.479   7.764 -4.4743  2.2515  0.9084
  108MOL0     H14239  -1.249  11.267   7.715 -0.4394 -0.4779  0.4371
  108MOL0     H14240  -1.150  10.933   7.746  2.8869 -0.1602  2.3813
  108MOL0     H14241  -1.017  10.751   7.756 -3.3452 -1.7202 -1.5650
  108MOL0     H14242   0.112   9.391   6.671  1.4265  1.3197  1.1122
  108MOL0     H14243   0.342   9.401   6.670  1.3867 -0.1147 -0.7393
  108MOL0     H14244   0.742   9.618   6.495  1.8800  0.3221 -0.2216
  108MOL0     H14245   0.965   9.621   6.428  0.3210 -2.8255  4.5874
  108MOL0     H14246   1.162   9.528   6.403  2.6485  0.6938  0.7065
  108MOL0     H14247   1.156   9.661   6.304 -2.4036 -0.3418 -0.7815
  108MOL0     H14248   1.314   9.408   6.264  0.3907 -0.4335 -0.1837
  108MOL0     H14249   1.314   9.534   6.140 -2.8776  1.4617  0.0353
  108MOL0     H14250   1.445   9.554   6.418 -0.3619 -1.1528 -0.4195
  108MOL0     H14251   1.388   9.697   6.318  0.8615 -0.0452 -0.6247
  108MOL0     H14252   1.575   9.471   6.263  0.6495 -0.0000  0.5791
  108MOL0     H14253   1.534   9.606   6.149  0.2779 -1.9882 -1.1580
  108MOL0     H14254   1.818   9.807   6.386 -1.2502  1.7152 -0.9088
  108MOL0     H14255   0.895   9.325   6.127  0.6248  2.4494 -0.5872
  108MOL0     H14256   0.672   9.306   6.193 -0.5477 -0.8258  0.1246
  109MOL0     O14257   0.472   7.147  11.142  0.6824  0.1481  0.4570
  109MOL0     C14258   0.538   7.230  11.199  0.4816 -0.2329  1.3325
  109MOL0     O14259   0.670   7.249  11.175  0.3984 -0.2548 -0.5965
  109MOL0     C14260   0.731   7.173  11.067 -0.4346 -0.2882 -0.0767
  109MOL0     C14261   0.683   7.164  10.935  0.5846 -0.2112  1.0322
  109MOL0     C14262   0.745   7.088  10.834 -0.2698  0.2991 -0.2869
  109MOL0     C14263   0.863   7.018  10.869 -0.3076  0.3761 -0.4512
  109MOL0     O14264   0.926   6.938  10.779  0.1957 -0.4517  0.2381
  109MOL0     C14265   0.999   6.828  10.833 -0.5285  0.2585  0.6011
  109MOL0     C14266   0.923   6.725  10.923 -0.0420 -0.3265 -0.1431
  109MOL0     C14267   0.977   6.586  10.892 -0.0960  0.2969  0.7400
  109MOL0     C14268   0.906   6.482  10.982 -0.7096  1.2869  0.9138
  109MOL0     C14269   0.970   6.338  10.965  0.5712  0.5162  0.0182
  109MOL0     C14270   0.887   6.224  11.033 -0.0679 -0.2767  0.5755
  109MOL0     C14271   0.966   6.096  11.031 -1.2231  0.1787 -0.6294
  109MOL0     C14272   0.904   5.988  10.931 -1.1681 -0.5183 -0.2230
  109MOL0     N14273   0.961   5.986  10.797 -0.1036  0.5310  0.1532
  109MOL0     C14274   0.946   5.885  10.707  1.0253  0.3272 -0.4131
  109MOL0     C14275   0.987   5.938  10.588 -0.3420  0.3416 -0.6104
  109MOL0     C14276   0.996   5.883  10.444  0.1486 -0.4940 -0.1542
  109MOL0     C14277   1.082   5.767  10.462 -0.4123  0.1709  0.0613
  109MOL0     C14278   1.094   5.710  10.320 -0.5007 -0.5005 -0.5961
  109MOL0     C14279   1.181   5.590  10.308 -0.4759 -0.1894 -0.4419
  109MOL0     O14280   1.210   5.555  10.180  0.0610  0.4168  0.4288
  109MOL0     C14281   1.262   5.438  10.157 -0.4637  0.4274 -0.2658
  109MOL0     C14282   1.320   5.350  10.255 -0.6041 -0.0616 -0.3532
  109MOL0     C14283   1.360   5.222  10.212 -0.0676 -0.8257 -0.1998
  109MOL0     C14284   1.351   5.181  10.085 -0.0270  0.8809  1.4653
  109MOL0     C14285   1.389   5.045  10.044  0.1606 -0.5769  0.3315
  109MOL0     O14286   1.384   5.027   9.913 -0.2463 -0.6159 -0.1043
  109MOL0     C14287   1.378   4.899   9.868 -0.7318 -0.2727  0.7029
  109MOL0     C14288   1.411   4.889   9.727  0.4840 -0.8114 -0.5948
  109MOL0     C14289   1.394   4.762   9.668 -0.4431 -0.9543 -0.5724
  109MOL0     C14290   1.365   4.641   9.739  0.5579 -0.5363  0.1816
  109MOL0     O14291   1.374   4.524   9.671  0.3177  0.0712  0.0944
  109MOL0     C14292   1.369   4.400   9.744  0.6655  0.2594  0.7576
  109MOL0     C14293   1.335   4.285   9.648 -0.1944 -1.0756  0.1001
  109MOL0     C14294   1.257   4.171   9.710 -0.4480  0.6166 -0.6897
  109MOL0     C14295   1.217   4.066   9.605 -0.1873 -0.0518  0.9167
  109MOL0     C14296   1.111   3.969   9.662  1.3682  0.3826 -0.2728
  109MOL0     C14297   1.064   3.871   9.558 -0.5477  0.6296  0.0306
  109MOL0     C14298   0.971   3.770   9.613  0.1842  0.0742  0.1308
  109MOL0     C14299   0.880   3.712   9.501 -0.1939 -0.4412 -0.5926
  109MOL0    Cl14300   0.761   3.609   9.579  0.1743 -0.1796 -0.0023
  109MOL0     C14301   1.341   4.661   9.873 -0.3278 -0.7874 -0.0565
  109MOL0     C14302   1.342   4.784   9.927 -0.4353  0.5848 -0.5486
  109MOL0     O14303   1.441   4.975  10.132  0.1043 -0.1369 -0.1760
  109MOL0     C14304   1.298   5.275   9.994 -0.1282  0.6144  0.0792
  109MOL0     C14305   1.251   5.399  10.029  0.0829 -0.1315  0.7430
  109MOL0     N14306   1.030   6.068  10.606  0.1644 -0.3379 -0.1582
  109MOL0     N14307   1.008   6.103  10.732  0.3604 -0.1466 -0.2452
  109MOL0     C14308   0.916   7.039  10.999  0.1900 -0.4212 -0.1102
  109MOL0     C14309   0.856   7.122  11.097 -0.7208  0.0115  0.2850
  109MOL0     C14310   0.493   7.313  11.312  0.8198  0.9773  0.1044
  109MOL0     C14311   0.570   7.399  11.384 -0.0356  0.8510 -0.3613
  109MOL0     C14312   0.542   7.457  11.505  0.0137  0.2222  0.0250
  109MOL0     C14313   0.420   7.426  11.554  1.1365 -0.4735 -0.2679
  109MOL0     O14314   0.396   7.474  11.680  0.1826 -0.7432  0.0059
  109MOL0     C14315   0.256   7.479  11.734  0.0817 -0.4223  0.0221
  109MOL0     C14316   0.238   7.600  11.830 -0.2649 -0.0342 -0.1904
  109MOL0     C14317   0.097   7.620  11.884 -0.1617 -0.3118  1.5103
  109MOL0     C14318   0.079   7.758  11.943  0.5434  0.0342  0.1552
  109MOL0     C14319   0.164   7.788  12.058  0.6294 -0.5670  1.1934
  109MOL0     C14320   0.219   7.791  12.167 -0.0995  0.6448  0.0093
  109MOL0     C14321   0.321   7.348  11.479 -0.7757 -0.5796 -0.9348
  109MOL0     C14322   0.360   7.298  11.350  1.7836  0.6654 -0.9476
  109MOL0     H14323   0.590   7.212  10.909 -0.7109 -2.0459  2.0722
  109MOL0     H14324   0.707   7.094  10.732 -0.6103  1.6191 -0.0978
  109MOL0     H14325   1.091   6.854  10.887 -0.6151 -0.5295  1.1395
  109MOL0     H14326   1.032   6.771  10.746 -0.5812 -0.5974  1.1307
  109MOL0     H14327   0.815   6.727  10.904 -0.1701  1.9362  0.5639
  109MOL0     H14328   0.955   6.736  11.027  3.9077 -1.5424 -1.0743
  109MOL0     H14329   1.086   6.585  10.901  0.0547 -0.5198 -0.8847
  109MOL0     H14330   0.958   6.566  10.786  4.0999  2.6371 -0.6918
  109MOL0     H14331   0.933   6.518  11.082  2.0872  0.0979  0.6714
  109MOL0     H14332   0.801   6.480  10.952 -0.3101  2.6911 -0.7714
  109MOL0     H14333   1.069   6.344  11.010  1.3561 -0.0024 -1.5789
  109MOL0     H14334   0.996   6.321  10.860  0.8519 -1.0984  0.3183
  109MOL0     H14335   0.790   6.202  10.987  1.2034 -0.6980 -2.1130
  109MOL0     H14336   0.876   6.245  11.140  0.9474  0.5547  0.5329
  109MOL0     H14337   1.068   6.115  10.997 -2.0795 -1.8632 -5.0452
  109MOL0     H14338   0.970   6.039  11.124 -1.1927 -0.2085 -0.8650
  109MOL0     H14339   0.801   6.012  10.903 -2.3636 -4.2577  0.3367
  109MOL0     H14340   0.905   5.897  10.992 -1.7620  0.2768  1.0034
  109MOL0     H14341   0.902   5.787  10.722 -1.0046  1.1538 -0.6867
  109MOL0     H14342   1.041   5.959  10.379  0.5920  0.3425  1.0796
  109MOL0     H14343   0.896   5.856  10.410 -0.7925  1.7971  0.6136
  109MOL0     H14344   1.016   5.693  10.509 -3.3580  1.9211 -1.0544
  109MOL0     H14345   1.177   5.793  10.510 -0.7079  0.5969  0.4175
  109MOL0     H14346   0.993   5.695  10.280 -1.0945  5.4612 -2.3084
  109MOL0     H14347   1.148   5.780  10.256 -1.8150  2.4233  1.2696
  109MOL0     H14348   1.130   5.509  10.361 -0.0378  0.3689  0.8711
  109MOL0     H14349   1.272   5.616  10.363 -0.4039  1.2856 -1.2115
  109MOL0     H14350   1.343   5.373  10.358  0.3815 -1.4748 -0.2316
  109MOL0     H14351   1.413   5.164  10.286  3.1251 -1.6547 -2.9014
  109MOL0     H14352   1.443   4.969   9.662  0.1840 -1.7405 -1.9375
  109MOL0     H14353   1.422   4.748   9.564  0.2775  0.3474 -0.5841
  109MOL0     H14354   1.288   4.409   9.818  0.2449  0.1150  0.3211
  109MOL0     H14355   1.458   4.376   9.802  0.4073 -2.7747  0.0534
  109MOL0     H14356   1.428   4.250   9.604  0.3316 -0.4107  0.6633
  109MOL0     H14357   1.260   4.329   9.581 -0.0993 -0.1727  0.5672
  109MOL0     H14358   1.179   4.217   9.771  0.8803 -1.3536  2.7197
  109MOL0     H14359   1.307   4.120   9.792  0.8663  3.1009  0.1527
  109MOL0     H14360   1.172   4.118   9.519 -2.7450 -1.2125  1.4546
  109MOL0     H14361   1.314   4.022   9.584 -0.8820 -0.1963 -2.6166
  109MOL0     H14362   1.028   4.021   9.710  0.0065 -0.7882 -1.2844
  109MOL0     H14363   1.165   3.919   9.743  4.2670  1.1347 -1.5889
  109MOL0     H14364   1.154   3.827   9.514 -1.4080  0.4058 -1.6093
  109MOL0     H14365   1.014   3.926   9.478 -2.1315 -2.5262 -1.3154
  109MOL0     H14366   1.033   3.691   9.656 -0.4140  0.6057  2.1002
  109MOL0     H14367   0.898   3.802   9.688 -2.0042 -1.4408 -1.2299
  109MOL0     H14368   0.936   3.658   9.424  1.1466 -0.8604  0.6290
  109MOL0     H14369   0.845   3.805   9.453  0.1916 -0.4205 -0.8415
  109MOL0     H14370   1.331   4.574   9.937  3.2022  0.1024  1.9867
  109MOL0     H14371   1.341   4.792  10.036 -1.5033  1.1416 -0.5844
  109MOL0     H14372   1.294   5.241   9.891  0.0344  1.4696 -0.2195
  109MOL0     H14373   1.195   5.458   9.957 -0.4858  0.4099  1.6127
  109MOL0     H14374   1.007   6.991  11.034  1.9143  0.1040 -3.5169
  109MOL0     H14375   0.886   7.131  11.200 -2.6858 -1.9132  1.0898
  109MOL0     H14376   0.659   7.442  11.339  0.8904 -0.6028  0.0205
  109MOL0     H14377   0.611   7.527  11.551 -2.9783  2.5098  1.4051
  109MOL0     H14378   0.249   7.394  11.803  1.0839 -0.0359  0.6171
  109MOL0     H14379   0.174   7.477  11.662  0.9076 -0.8297 -0.9297
  109MOL0     H14380   0.306   7.580  11.914 -1.6271 -1.7544  0.5640
  109MOL0     H14381   0.259   7.684  11.762 -0.6292  0.7014  0.5893
  109MOL0     H14382   0.086   7.538  11.956  3.0280 -0.9676  1.3797
  109MOL0     H14383   0.024   7.615  11.802  2.1697 -0.9660 -0.6313
  109MOL0     H14384   0.100   7.840  11.873  1.9081  1.5351  2.1916
  109MOL0     H14385  -0.029   7.751  11.962  0.4160 -1.5492 -0.9653
  109MOL0     H14386   0.263   7.785  12.264 -0.8205  1.8351  0.4339
  109MOL0     H14387   0.228   7.329  11.532 -0.5081 -0.5813 -0.4611
  109MOL0     H14388   0.292   7.235  11.294  2.5349 -3.5271  2.2562
  110MOL0     O14389   2.019   4.492   8.044 -0.0551  0.3704 -0.2453
  110MOL0     C14390   1.921   4.428   8.079  1.0020 -0.2025 -0.2611
  110MOL0     O14391   1.785   4.474   8.071  0.2534 -0.0000  0.1840
  110MOL0     C14392   1.768   4.593   8.007 -0.0952  0.4626 -0.0227
  110MOL0     C14393   1.747   4.587   7.867  0.5338 -0.2248  1.0302
  110MOL0     C14394   1.724   4.707   7.796 -0.1033 -0.3333 -0.0976
  110MOL0     C14395   1.727   4.826   7.866  0.0825 -1.2855  0.1363
  110MOL0     O14396   1.699   4.934   7.784  0.9615 -0.0569 -0.0037
  110MOL0     C14397   1.757   5.058   7.836  0.0510 -0.2788 -0.1414
  110MOL0     C14398   1.799   5.145   7.723  0.1802  0.8500 -0.0681
  110MOL0     C14399   1.681   5.201   7.638 -1.0041 -0.5101 -0.1481
  110MOL0     C14400   1.596   5.093   7.567  0.2117  0.2531  0.4269
  110MOL0     C14401   1.537   5.135   7.430 -0.2637  0.0482 -0.0669
  110MOL0     C14402   1.437   5.245   7.434 -0.0845  0.2277 -0.2058
  110MOL0     C14403   1.373   5.285   7.305  0.2482  0.0592  0.3947
  110MOL0     C14404   1.294   5.170   7.237  0.6183 -0.6074  0.3416
  110MOL0     N14405   1.179   5.131   7.331  0.2574  0.7474  0.8090
  110MOL0     C14406   1.178   5.019   7.407 -0.0225  0.8914  0.1502
  110MOL0     C14407   1.045   5.013   7.453  0.2227 -0.7701 -0.5713
  110MOL0     C14408   0.992   4.907   7.546 -0.0281 -0.1915  0.0723
  110MOL0     C14409   0.925   4.790   7.475 -0.6417  0.0013  0.1043
  110MOL0     C14410   0.833   4.708   7.563  0.6843  0.3738  0.4464
  110MOL0     C14411   0.694   4.779   7.569  0.7188 -0.2773  0.4284
  110MOL0     O14412   0.603   4.697   7.643 -0.1048 -0.3138 -0.0902
  110MOL0     C14413   0.492   4.641   7.588  0.2661 -0.3172  0.1964
  110MOL0     C14414   0.404   4.577   7.679  0.0122 -0.7200 -0.1214
  110MOL0     C14415   0.295   4.511   7.622 -0.0290  0.5658  0.6977
  110MOL0     C14416   0.259   4.514   7.487  0.5027  0.1898  0.0079
  110MOL0     C14417   0.129   4.455   7.434 -1.4252  0.1728  0.9888
  110MOL0     O14418   0.117   4.455   7.299  0.8186 -0.0619  0.5545
  110MOL0     C14419   0.015   4.376   7.232  0.0507 -0.1333 -0.2195
  110MOL0     C14420  -0.034   4.416   7.110  0.8135  0.9274  0.2900
  110MOL0     C14421  -0.138   4.359   7.045  0.5994  1.0921 -0.4610
  110MOL0     C14422  -0.186   4.242   7.091  1.0936  0.2829 -1.2158
  110MOL0     O14423  -0.292   4.182   7.024 -0.5166 -0.7672  0.3992
  110MOL0     C14424  -0.310   4.194   6.883 -0.7742 -0.4045 -0.5413
  110MOL0     C14425  -0.412   4.104   6.833  0.2424 -0.2875  0.0016
  110MOL0     C14426  -0.558   4.148   6.874 -0.2153 -0.9885  0.2717
  110MOL0     C14427  -0.595   4.287   6.822 -0.2982  1.3375  0.6446
  110MOL0     C14428  -0.746   4.295   6.824  0.9665  0.5105  0.5249
  110MOL0     C14429  -0.836   4.220   6.716 -0.1615  0.1312  0.4277
  110MOL0     C14430  -0.812   4.256   6.571  0.4616  0.5481  0.3674
  110MOL0     C14431  -0.902   4.176   6.477  0.4717  0.9123 -0.0262
  110MOL0    Cl14432  -0.849   4.204   6.307 -0.0360 -0.1182 -0.1379
  110MOL0     C14433  -0.149   4.192   7.221  0.9245 -0.2326  0.2118
  110MOL0     C14434  -0.050   4.262   7.289 -0.6412  0.3658 -0.3265
  110MOL0     O14435   0.052   4.409   7.508 -0.3383  0.4665  0.1818
  110MOL0     C14436   0.353   4.571   7.397 -0.0035 -0.9227 -0.5282
  110MOL0     C14437   0.468   4.638   7.445  0.5014  0.1645 -0.6553
  110MOL0     N14438   0.978   5.123   7.407 -0.0595  0.7003 -0.0512
  110MOL0     N14439   1.063   5.199   7.347  0.3031 -0.4651  0.0701
  110MOL0     C14440   1.738   4.831   8.006  0.6509  0.0527  0.2067
  110MOL0     C14441   1.761   4.711   8.076 -0.1856 -0.2812 -1.0151
  110MOL0     C14442   1.954   4.298   8.150 -2.1406 -0.2385 -0.7461
  110MOL0     C14443   2.088   4.256   8.171 -0.2859  1.0722  0.0188
  110MOL0     C14444   2.119   4.145   8.236 -0.2119 -0.0018  0.4341
  110MOL0     C14445   2.020   4.060   8.295 -0.4890 -0.7378 -0.1228
  110MOL0     O14446   2.041   3.964   8.391  0.1685  0.9740 -0.0643
  110MOL0     C14447   2.181   3.924   8.428  0.0075 -0.0201  0.3829
  110MOL0     C14448   2.165   3.819   8.526  0.0397  0.4795 -0.2112
  110MOL0     C14449   2.267   3.826   8.638 -0.1970 -0.0134 -0.4857
  110MOL0     C14450   2.226   3.783   8.774  0.5351 -0.1782 -0.2505
  110MOL0     C14451   2.150   3.879   8.849 -0.2503 -0.4324 -0.9618
  110MOL0     C14452   2.113   3.968   8.919  0.6648  0.4362 -0.6228
  110MOL0     C14453   1.887   4.108   8.290  0.3369 -0.5058 -1.1225
  110MOL0     C14454   1.857   4.218   8.210  0.3184  0.4242  0.0355
  110MOL0     H14455   1.744   4.490   7.819  0.7759  1.0181 -1.6826
  110MOL0     H14456   1.715   4.707   7.687 -0.0775 -2.4972 -0.1402
  110MOL0     H14457   1.844   5.037   7.899  0.3484 -1.7098 -0.9803
  110MOL0     H14458   1.678   5.107   7.894  0.6467  0.6263 -0.0781
  110MOL0     H14459   1.870   5.096   7.656 -1.3779 -1.1175 -0.3828
  110MOL0     H14460   1.861   5.226   7.763 -0.4808  0.1980  2.5013
  110MOL0     H14461   1.716   5.269   7.560 -3.1976  0.1599 -0.6290
  110MOL0     H14462   1.615   5.269   7.695 -1.5607  1.4196 -2.9049
  110MOL0     H14463   1.655   5.003   7.546 -0.1853  0.3167 -1.0879
  110MOL0     H14464   1.515   5.056   7.630 -0.3712  0.4596 -0.1934
  110MOL0     H14465   1.483   5.054   7.382 -2.1893  3.0361 -3.4550
  110MOL0     H14466   1.618   5.165   7.363 -0.3568  1.7151  0.5093
  110MOL0     H14467   1.479   5.329   7.490  2.5555 -1.6639  0.8157
  110MOL0     H14468   1.355   5.220   7.502 -2.6305 -0.7703 -3.3671
  110MOL0     H14469   1.297   5.363   7.314  0.2094  0.1134 -0.3127
  110MOL0     H14470   1.449   5.326   7.238  1.6223  1.0763  2.4847
  110MOL0     H14471   1.370   5.093   7.219 -0.5960 -1.9841  0.8828
  110MOL0     H14472   1.250   5.212   7.146 -0.1009 -0.9683  0.5158
  110MOL0     H14473   1.243   4.933   7.426 -1.6601 -0.0828  1.6050
  110MOL0     H14474   0.924   4.951   7.620 -0.7798 -1.8235  0.4119
  110MOL0     H14475   1.076   4.870   7.605 -0.3968  2.8038  2.7335
  110MOL0     H14476   1.003   4.722   7.440 -1.6363 -0.0409 -2.1612
  110MOL0     H14477   0.869   4.826   7.388  1.5117 -1.6154 -2.0772
  110MOL0     H14478   0.818   4.609   7.519 -2.4833  1.1563 -0.4927
  110MOL0     H14479   0.870   4.693   7.665  1.3197 -1.5989 -0.0415
  110MOL0     H14480   0.668   4.786   7.463  1.7724  0.2400  0.1886
  110MOL0     H14481   0.712   4.876   7.616  2.5416 -0.3990  0.0811
  110MOL0     H14482   0.428   4.582   7.784  2.3754  0.9348 -0.6578
  110MOL0     H14483   0.234   4.464   7.698  0.4701 -0.5362  0.4308
  110MOL0     H14484   0.025   4.500   7.074  3.8801 -0.0459  2.6092
  110MOL0     H14485  -0.178   4.407   6.956 -0.0576 -1.2885 -1.5339
  110MOL0     H14486  -0.211   4.162   6.848 -0.7721  0.2991 -1.1974
  110MOL0     H14487  -0.339   4.294   6.850  0.6572  0.7740  1.5189
  110MOL0     H14488  -0.408   3.998   6.858 -0.5522 -0.2945  0.1380
  110MOL0     H14489  -0.422   4.112   6.724 -2.4468  0.7735  0.2379
  110MOL0     H14490  -0.573   4.141   6.982  0.8822  3.1068  0.8639
  110MOL0     H14491  -0.621   4.070   6.830 -1.0961  0.2454 -0.7100
  110MOL0     H14492  -0.556   4.366   6.887 -1.8191  2.4845  0.2073
  110MOL0     H14493  -0.547   4.304   6.725  0.0257 -4.8666 -0.7055
  110MOL0     H14494  -0.770   4.402   6.823  1.9155  0.7377  0.8872
  110MOL0     H14495  -0.773   4.263   6.925  0.5619  3.0678  1.3054
  110MOL0     H14496  -0.938   4.242   6.746  0.6712  2.1714  1.9707
  110MOL0     H14497  -0.822   4.111   6.726 -0.2783 -0.1335 -1.6912
  110MOL0     H14498  -0.841   4.359   6.552  1.5696  0.9369  0.6751
  110MOL0     H14499  -0.705   4.261   6.548  0.7053 -0.2265  1.2554
  110MOL0     H14500  -1.005   4.206   6.498  1.1240  3.5012 -0.1480
  110MOL0     H14501  -0.894   4.068   6.490  0.5616  0.2542 -4.2898
  110MOL0     H14502  -0.186   4.099   7.264  1.4273 -1.7002 -2.3511
  110MOL0     H14503   0.004   4.223   7.374  3.0509  1.9813 -1.7407
  110MOL0     H14504   0.329   4.596   7.294 -0.1473  1.1370 -0.0480
  110MOL0     H14505   0.527   4.684   7.366  0.1908 -2.3975 -2.4815
  110MOL0     H14506   1.714   4.917   8.068  1.3093 -1.1647  2.2499
  110MOL0     H14507   1.773   4.706   8.184  0.8476 -0.4621 -1.1283
  110MOL0     H14508   2.174   4.311   8.136 -0.4116  0.8887 -0.5879
  110MOL0     H14509   2.222   4.113   8.246 -0.8766 -1.7562  2.4655
  110MOL0     H14510   2.228   4.010   8.476 -2.9976  0.1317  3.4236
  110MOL0     H14511   2.237   3.886   8.342 -2.7167 -3.8960  0.0722
  110MOL0     H14512   2.065   3.818   8.572  1.0754 -1.8362  2.2418
  110MOL0     H14513   2.155   3.718   8.484  2.6646 -1.1374  2.5889
  110MOL0     H14514   2.327   3.917   8.648 -0.3333 -0.1351  2.1582
  110MOL0     H14515   2.344   3.758   8.601  0.3325 -0.3776  1.1852
  110MOL0     H14516   2.154   3.703   8.755  0.5621 -0.0380 -0.9417
  110MOL0     H14517   2.321   3.766   8.826  1.5232 -0.1089 -1.9574
  110MOL0     H14518   2.088   4.045   8.989  1.4471  1.3182 -1.2769
  110MOL0     H14519   1.800   4.061   8.334 -0.7337  2.2878 -0.0384
  110MOL0     H14520   1.752   4.243   8.197  0.7536  2.1875 -0.4730
  111MOL0     O14521   6.373   0.170   4.061 -0.7101  0.2792  0.1535
  111MOL0     C14522   6.459   0.211   4.144  1.2688  0.9065 -0.4278
  111MOL0     O14523   6.437   0.213   4.279  0.2502  0.8720  0.3220
  111MOL0     C14524   6.335   0.123   4.326 -0.0217  0.2308 -0.3124
  111MOL0     C14525   6.360  -0.016   4.329  1.0380  0.5769  0.8260
  111MOL0     C14526   6.269  -0.102   4.394 -1.2690 -0.8461  0.0106
  111MOL0     C14527   6.162  -0.052   4.464 -0.0208 -0.3490  0.7176
  111MOL0     O14528   6.102  -0.129   4.551 -0.4761  0.3147  0.4539
  111MOL0     C14529   6.131  -0.272   4.548 -0.1628 -0.5869 -0.6143
  111MOL0     C14530   6.014  -0.332   4.635  0.0300  0.5136  0.0864
  111MOL0     C14531   5.977  -0.480   4.600  0.6900 -0.0343  0.7573
  111MOL0     C14532   5.859  -0.537   4.678  0.9079 -0.1686  0.1612
  111MOL0     C14533   5.906  -0.594   4.809  0.7508  0.8466  0.5143
  111MOL0     C14534   5.786  -0.650   4.900 -0.5763  0.2290 -0.5451
  111MOL0     C14535   5.710  -0.766   4.825  0.4913  0.0639  0.5700
  111MOL0     C14536   5.584  -0.816   4.896  0.5609  1.2519 -0.0063
  111MOL0     N14537   5.489  -0.717   4.925  0.6416 -0.3821 -0.3009
  111MOL0     C14538   5.404  -0.651   4.836  0.0003 -0.5920  1.4989
  111MOL0     C14539   5.340  -0.558   4.913 -0.4709 -0.5154 -0.0663
  111MOL0     C14540   5.226  -0.475   4.864 -0.3595 -1.8362 -0.0221
  111MOL0     C14541   5.210  -0.342   4.943 -0.5152  0.3991 -0.8681
  111MOL0     C14542   5.076  -0.275   4.947 -0.1506 -1.0642  0.3997
  111MOL0     C14543   4.949  -0.351   4.967  0.7300  0.4546  0.7549
  111MOL0     O14544   4.966  -0.474   5.031  0.6245 -0.5359  0.1606
  111MOL0     C14545   4.861  -0.563   5.037 -0.1165  0.2213 -0.1731
  111MOL0     C14546   4.889  -0.688   5.097 -0.1196 -0.1348  0.8203
  111MOL0     C14547   4.790  -0.785   5.121 -0.0912  0.5881 -0.1893
  111MOL0     C14548   4.655  -0.750   5.079  0.1515  0.9188 -0.5278
  111MOL0     C14549   4.540  -0.850   5.094  0.9605  0.2773 -0.1227
  111MOL0     O14550   4.569  -0.967   5.150 -0.1271 -0.1716  0.4875
  111MOL0     C14551   4.469  -1.049   5.166  0.5009  1.4895  0.4382
  111MOL0     C14552   4.370  -1.020   5.258  0.6434  0.9012 -0.6748
  111MOL0     C14553   4.258  -1.111   5.280  0.4607  0.6257 -1.1032
  111MOL0     C14554   4.248  -1.227   5.202 -0.2712  0.4908 -0.0145
  111MOL0     O14555   4.142  -1.317   5.229 -0.4441  0.5472  0.5093
  111MOL0     C14556   4.104  -1.424   5.142 -0.0757  0.0758 -0.4757
  111MOL0     C14557   3.993  -1.498   5.210 -0.1156 -0.0243 -0.4355
  111MOL0     C14558   3.933  -1.599   5.098  0.4215  0.8031  0.4327
  111MOL0     C14559   3.841  -1.708   5.163 -0.0045 -0.8497  0.4286
  111MOL0     C14560   3.892  -1.852   5.123  0.2860 -0.6318 -0.6647
  111MOL0     C14561   4.010  -1.917   5.212 -0.4091  0.4351  0.0371
  111MOL0     C14562   4.060  -2.050   5.153  0.4934  0.0134  0.1629
  111MOL0     C14563   4.161  -2.130   5.244  0.1514 -0.3911 -0.9913
  111MOL0    Cl14564   4.318  -2.035   5.264  0.0523  0.4898  0.2709
  111MOL0     C14565   4.342  -1.252   5.102  0.1511 -0.3097  0.5966
  111MOL0     C14566   4.451  -1.169   5.094  0.2627  0.4843 -0.4765
  111MOL0     O14567   4.426  -0.819   5.044 -1.2175  0.5475 -0.6037
  111MOL0     C14568   4.629  -0.626   5.017  0.4227  1.0786 -0.1340
  111MOL0     C14569   4.728  -0.536   4.995  0.8345 -0.4458 -0.4463
  111MOL0     N14570   5.383  -0.575   5.047  0.2714  0.4643  0.3872
  111MOL0     N14571   5.466  -0.674   5.053  0.7470  0.3429 -0.0337
  111MOL0     C14572   6.132   0.086   4.462 -0.6288 -0.2361 -0.1068
  111MOL0     C14573   6.212   0.164   4.382 -0.0038  0.2495  0.4531
  111MOL0     C14574   6.580   0.285   4.089 -0.5549 -0.1782  0.6696
  111MOL0     C14575   6.667   0.355   4.172  0.5882  0.2864  0.3245
  111MOL0     C14576   6.773   0.426   4.116 -0.2190  0.4348 -0.0100
  111MOL0     C14577   6.790   0.443   3.980  0.2238 -0.7396 -0.1950
  111MOL0     O14578   6.892   0.515   3.912 -0.0512 -0.4912  0.3928
  111MOL0     C14579   7.010   0.552   3.987  0.3598 -0.0538 -0.5673
  111MOL0     C14580   7.102   0.433   4.035 -0.5355 -0.7088  0.0594
  111MOL0     C14581   7.109   0.315   3.943  0.6367  0.8537  0.6331
  111MOL0     C14582   7.206   0.205   3.994  0.8412 -0.3491 -0.3601
  111MOL0     C14583   7.160   0.171   4.131 -0.3806 -0.4912 -0.3778
  111MOL0     C14584   7.098   0.168   4.234  0.0291  0.3590 -0.8832
  111MOL0     C14585   6.698   0.371   3.898  0.5519 -0.0489  0.3860
  111MOL0     C14586   6.601   0.289   3.945  0.1873  0.4758  0.6095
  111MOL0     H14587   6.450  -0.042   4.276  0.3772  0.3749 -0.2229
  111MOL0     H14588   6.310  -0.202   4.378 -0.2039 -0.6324  1.3180
  111MOL0     H14589   6.228  -0.298   4.592  0.8674 -0.5163 -2.7120
  111MOL0     H14590   6.123  -0.316   4.448 -2.3452  0.2687 -0.8665
  111MOL0     H14591   5.932  -0.262   4.614 -0.6701 -0.9473 -2.3838
  111MOL0     H14592   6.050  -0.320   4.738  2.2098 -0.4530 -0.5137
  111MOL0     H14593   6.061  -0.546   4.622  0.0334 -0.9461  0.5737
  111MOL0     H14594   5.948  -0.491   4.495 -0.1329 -2.0867  1.1547
  111MOL0     H14595   5.779  -0.464   4.692  0.6766 -0.6171  1.3359
  111MOL0     H14596   5.819  -0.622   4.623  1.6031  0.1316 -0.8323
  111MOL0     H14597   5.959  -0.518   4.866  0.5314  2.0611 -0.8397
  111MOL0     H14598   5.977  -0.675   4.788  1.7263  2.1683 -1.6497
  111MOL0     H14599   5.716  -0.571   4.926 -1.9650 -0.9967 -0.4164
  111MOL0     H14600   5.828  -0.680   4.996  0.1989 -1.6691 -1.4291
  111MOL0     H14601   5.691  -0.743   4.720  3.7836  0.0630 -0.1367
  111MOL0     H14602   5.785  -0.845   4.820  0.9827  0.5259  0.4930
  111MOL0     H14603   5.613  -0.858   4.993 -2.3834  0.1354  0.4761
  111MOL0     H14604   5.542  -0.905   4.849  2.3624 -1.2976  2.8309
  111MOL0     H14605   5.379  -0.661   4.731 -0.9566  1.8446  1.4421
  111MOL0     H14606   5.132  -0.531   4.862 -2.1876  0.9799  0.7556
  111MOL0     H14607   5.263  -0.448   4.765 -2.3535 -1.8828 -0.8219
  111MOL0     H14608   5.280  -0.263   4.914 -0.6761  1.4110  1.3097
  111MOL0     H14609   5.224  -0.349   5.051 -3.6952  1.8320 -0.2353
  111MOL0     H14610   5.068  -0.208   5.033 -0.7536 -0.9692  0.2733
  111MOL0     H14611   5.070  -0.206   4.863 -1.2989 -0.3106  1.0793
  111MOL0     H14612   4.901  -0.363   4.869  2.4603 -0.5101 -0.0306
  111MOL0     H14613   4.876  -0.287   5.017 -2.8725 -2.4930 -0.3206
  111MOL0     H14614   4.988  -0.706   5.138  1.7382  1.0007 -2.7640
  111MOL0     H14615   4.802  -0.886   5.159 -2.0511  0.5365  0.4240
  111MOL0     H14616   4.364  -0.922   5.304  0.4848  0.5940 -0.0157
  111MOL0     H14617   4.175  -1.083   5.346 -2.4466 -2.7727 -2.9594
  111MOL0     H14618   4.191  -1.487   5.121  1.6919  1.9121  1.0510
  111MOL0     H14619   4.073  -1.379   5.047  1.9098  0.6520 -0.8889
  111MOL0     H14620   3.916  -1.428   5.244 -1.5601 -1.7500 -0.0248
  111MOL0     H14621   4.034  -1.556   5.292  0.4914  0.0117 -0.7107
  111MOL0     H14622   4.022  -1.629   5.042 -0.0765 -2.5819  1.2558
  111MOL0     H14623   3.859  -1.542   5.041 -1.5922 -2.1635 -0.1557
  111MOL0     H14624   3.848  -1.712   5.272  1.6419 -2.6258  0.3235
  111MOL0     H14625   3.736  -1.692   5.136  0.5072  2.8593  0.2021
  111MOL0     H14626   3.915  -1.859   5.016  0.4193 -4.1649 -0.5321
  111MOL0     H14627   3.797  -1.907   5.122 -1.6098  2.3911  0.4425
  111MOL0     H14628   3.968  -1.937   5.311 -2.6231  1.7843 -0.5558
  111MOL0     H14629   4.091  -1.844   5.211  1.8930 -1.9769  0.0690
  111MOL0     H14630   3.965  -2.099   5.129 -0.0723  1.3592 -0.4305
  111MOL0     H14631   4.105  -2.035   5.055 -1.1124 -0.0663 -0.6319
  111MOL0     H14632   4.193  -2.222   5.194 -1.3482 -0.9418 -0.9838
  111MOL0     H14633   4.118  -2.146   5.343 -2.1373 -0.4396 -1.9370
  111MOL0     H14634   4.330  -1.340   5.039 -2.3107 -0.1796  0.7972
  111MOL0     H14635   4.536  -1.196   5.032  0.3734 -2.4938  0.7957
  111MOL0     H14636   4.530  -0.595   4.985 -0.2200  0.3137  1.0409
  111MOL0     H14637   4.688  -0.445   4.953  0.5316 -0.0172  0.7391
  111MOL0     H14638   6.055   0.126   4.527  1.5782  0.0259  2.5579
  111MOL0     H14639   6.184   0.268   4.371 -0.5157  0.7454  4.7207
  111MOL0     H14640   6.655   0.346   4.280 -0.9475 -1.1731  0.0687
  111MOL0     H14641   6.834   0.483   4.185 -1.9707  2.0663  0.2982
  111MOL0     H14642   6.989   0.634   4.056 -1.9045  2.4488 -3.9181
  111MOL0     H14643   7.078   0.610   3.923 -0.3077  3.5588  1.7052
  111MOL0     H14644   7.201   0.477   4.025 -1.2984  0.4109 -4.8548
  111MOL0     H14645   7.060   0.402   4.131 -3.5475 -0.6325 -1.1295
  111MOL0     H14646   7.146   0.364   3.852  0.2034 -0.5793 -0.3503
  111MOL0     H14647   7.007   0.281   3.924  0.4647  0.8105  1.6115
  111MOL0     H14648   7.176   0.120   3.932 -2.9483  0.3690  0.2379
  111MOL0     H14649   7.311   0.234   3.999  1.0392  0.1567 -4.2219
  111MOL0     H14650   7.057   0.175   4.332 -0.6538  1.4107 -1.2308
  111MOL0     H14651   6.696   0.386   3.790 -1.8049 -3.1454 -0.1280
  111MOL0     H14652   6.526   0.236   3.887  1.9950 -2.6076  0.8965
  112MOL0     O14653  10.212   6.115   8.550 -0.5751 -0.2016  0.6863
  112MOL0     C14654  10.118   6.093   8.623 -1.1484  1.0212  0.9487
  112MOL0     O14655  10.101   6.124   8.759 -0.1420 -0.1053  0.0696
  112MOL0     C14656  10.193   6.216   8.800 -0.7391  0.0495  0.5840
  112MOL0     C14657  10.333   6.191   8.841  0.0924  0.2478  0.1679
  112MOL0     C14658  10.418   6.297   8.868  0.8962  0.1738 -0.6523
  112MOL0     C14659  10.358   6.426   8.879  0.6876  0.2646  1.0255
  112MOL0     O14660  10.424   6.537   8.919  0.2010  0.6933 -0.5774
  112MOL0     C14661  10.454   6.625   8.814 -0.5118 -0.1353  0.4105
  112MOL0     C14662  10.479   6.764   8.866 -0.5933 -0.7352  0.7587
  112MOL0     C14663  10.355   6.801   8.951  0.5722 -0.2302  0.5520
  112MOL0     C14664  10.381   6.903   9.069 -1.1970 -0.3484 -1.0710
  112MOL0     C14665  10.261   6.940   9.162 -0.0735  0.0755 -0.9524
  112MOL0     C14666  10.203   6.816   9.230  0.3893  0.0438 -0.9942
  112MOL0     C14667  10.081   6.848   9.314  0.4007  0.0403  0.2847
  112MOL0     C14668  10.038   6.726   9.392 -0.0669 -0.4172  0.0282
  112MOL0     N14669  10.001   6.606   9.306  0.3293 -0.0365 -1.1351
  112MOL0     C14670  10.080   6.485   9.314  0.4982 -0.0492  0.8775
  112MOL0     C14671  10.034   6.410   9.205  0.5650 -0.9208  0.4267
  112MOL0     C14672  10.087   6.275   9.179  0.3196 -0.0257 -0.7837
  112MOL0     C14673  10.052   6.183   9.301  0.3666 -0.3222 -0.2484
  112MOL0     C14674   9.994   6.051   9.247 -0.7457  1.0321 -1.7446
  112MOL0     C14675   9.869   6.078   9.170 -0.3561  0.8329 -0.3041
  112MOL0     O14676   9.868   5.969   9.077 -0.4398 -0.8874 -0.0551
  112MOL0     C14677   9.768   5.958   8.984 -0.6664 -0.5188 -0.4511
  112MOL0     C14678   9.763   5.830   8.930 -0.4065 -0.3254 -0.4967
  112MOL0     C14679   9.672   5.804   8.836  0.2563  0.2199 -0.1031
  112MOL0     C14680   9.559   5.890   8.817 -0.6078  0.4316  0.3515
  112MOL0     C14681   9.453   5.860   8.724  0.2658  0.5690 -1.2084
  112MOL0     O14682   9.360   5.957   8.691  1.1733  0.6713  0.0909
  112MOL0     C14683   9.266   5.929   8.599 -0.0567 -0.8913 -0.4788
  112MOL0     C14684   9.236   6.048   8.531 -0.4499  0.6141  0.5106
  112MOL0     C14685   9.152   6.050   8.416 -0.3292  0.0850 -0.0695
  112MOL0     C14686   9.088   5.927   8.375  0.6957  0.5280  0.0470
  112MOL0     O14687   9.018   5.913   8.254 -1.0284 -0.2600  0.0510
  112MOL0     C14688   9.047   6.013   8.155  0.4393  0.3595  0.7514
  112MOL0     C14689   9.014   5.987   8.015 -0.8253 -0.3704 -1.1304
  112MOL0     C14690   8.862   6.000   7.982  0.3565 -0.2658 -0.1876
  112MOL0     C14691   8.827   6.150   7.986 -0.8517 -0.9382 -0.6728
  112MOL0     C14692   8.672   6.166   7.965  0.7255 -0.3474 -0.0417
  112MOL0     C14693   8.625   6.309   7.929 -0.2084 -0.9703 -0.0142
  112MOL0     C14694   8.473   6.314   7.925  0.8201  0.0820  0.0278
  112MOL0     C14695   8.419   6.449   7.887  0.2604 -0.3397  0.9069
  112MOL0    Cl14696   8.276   6.510   7.985 -0.4184  0.0438  0.2737
  112MOL0     C14697   9.106   5.809   8.459  0.1891 -0.3455 -0.2026
  112MOL0     C14698   9.201   5.807   8.570  0.0069  0.0237 -0.9978
  112MOL0     O14699   9.464   5.747   8.672  0.3929 -0.8205  0.0220
  112MOL0     C14700   9.557   6.020   8.880 -0.0650  0.1648  0.2433
  112MOL0     C14701   9.677   6.056   8.944  0.2191 -0.1138 -0.0130
  112MOL0     N14702   9.928   6.483   9.148 -0.3175  0.4716  0.6998
  112MOL0     N14703   9.915   6.597   9.207 -0.7145  0.3043 -0.5909
  112MOL0     C14704  10.227   6.448   8.835 -0.1465 -0.2320  0.8095
  112MOL0     C14705  10.150   6.344   8.805  0.1734 -0.6395  0.5446
  112MOL0     C14706  10.005   6.020   8.551  0.7501  0.5795  0.5672
  112MOL0     C14707   9.906   5.945   8.620  0.1440  0.3415 -0.3451
  112MOL0     C14708   9.808   5.886   8.546 -0.8637  0.5792  0.3172
  112MOL0     C14709   9.808   5.890   8.406  0.2689  1.0292 -0.0264
  112MOL0     O14710   9.719   5.816   8.327 -0.4162  0.0466  0.9318
  112MOL0     C14711   9.625   5.723   8.384 -0.7520  0.3692  0.4010
  112MOL0     C14712   9.525   5.662   8.286  0.0668 -0.8891  0.0956
  112MOL0     C14713   9.462   5.752   8.181 -0.0539 -0.4045 -0.5768
  112MOL0     C14714   9.310   5.737   8.159 -0.8283  0.3777  0.7623
  112MOL0     C14715   9.266   5.664   8.037 -0.0178 -0.0210 -0.6627
  112MOL0     C14716   9.236   5.619   7.921 -0.4248 -0.6203  0.5370
  112MOL0     C14717   9.893   5.970   8.334  0.1881 -0.1134  0.6594
  112MOL0     C14718   9.991   6.028   8.415  0.2108 -0.6341  1.1375
  112MOL0     H14719  10.355   6.086   8.822 -0.1598  0.4490 -1.2786
  112MOL0     H14720  10.526   6.291   8.873  1.1142  0.7927 -3.1054
  112MOL0     H14721  10.376   6.648   8.740  0.3705 -0.4747 -0.6663
  112MOL0     H14722  10.545   6.583   8.769 -0.0537  2.6838 -1.6141
  112MOL0     H14723  10.497   6.835   8.785 -2.1885 -1.0188  0.1201
  112MOL0     H14724  10.572   6.771   8.924 -1.0919 -0.9038  1.5908
  112MOL0     H14725  10.312   6.713   8.999  1.0433  0.1304  1.6650
  112MOL0     H14726  10.277   6.848   8.890 -0.5215  0.5854  2.4745
  112MOL0     H14727  10.459   6.862   9.134  0.3827 -0.2418 -2.8010
  112MOL0     H14728  10.426   6.992   9.023 -0.0812 -0.2325  0.1712
  112MOL0     H14729  10.192   6.993   9.096  1.7873 -0.4516 -3.4635
  112MOL0     H14730  10.304   6.999   9.244  1.5087 -0.1624 -1.5687
  112MOL0     H14731  10.289   6.780   9.288 -1.7366 -2.8707  0.6203
  112MOL0     H14732  10.183   6.737   9.157 -2.0135 -0.7112  0.3694
  112MOL0     H14733  10.099   6.936   9.377  2.9809  0.3238 -0.7174
  112MOL0     H14734  10.000   6.870   9.245 -1.5488 -1.9851  1.7850
  112MOL0     H14735   9.949   6.761   9.446 -0.2747 -0.2043 -0.4435
  112MOL0     H14736  10.109   6.705   9.472 -0.3236  0.4075  0.4902
  112MOL0     H14737  10.156   6.449   9.382 -0.3635 -5.4739 -0.5964
  112MOL0     H14738  10.196   6.285   9.170  0.4005 -1.2857 -1.6172
  112MOL0     H14739  10.040   6.235   9.089 -3.4574  2.2972 -0.0360
  112MOL0     H14740   9.977   6.235   9.362  2.6769  0.8082  1.8074
  112MOL0     H14741  10.142   6.153   9.355 -0.1529 -3.5924 -1.0049
  112MOL0     H14742  10.060   5.983   9.192 -0.6228 -2.2117  1.9131
  112MOL0     H14743   9.977   5.986   9.333 -0.3541 -0.1224 -2.5147
  112MOL0     H14744   9.860   6.176   9.122  2.8863  0.4851 -1.9105
  112MOL0     H14745   9.779   6.070   9.232 -0.0089  1.0314  0.2329
  112MOL0     H14746   9.836   5.752   8.951  1.4141  1.0737 -1.3280
  112MOL0     H14747   9.668   5.699   8.807 -0.2047 -0.0916  1.0590
  112MOL0     H14748   9.279   6.143   8.561  0.0041  0.7851 -0.6322
  112MOL0     H14749   9.136   6.142   8.360  0.3994  0.8094  0.8937
  112MOL0     H14750   9.151   6.047   8.153  0.6493 -0.0539  2.6503
  112MOL0     H14751   8.989   6.099   8.189 -0.8124 -0.9038  1.9566
  112MOL0     H14752   9.044   5.882   8.004  0.2386 -0.3340  1.0422
  112MOL0     H14753   9.076   6.060   7.962  2.9672 -0.5794  2.5234
  112MOL0     H14754   8.805   5.942   8.055  0.0810  0.2654  0.0274
  112MOL0     H14755   8.833   5.952   7.888  2.4705 -2.5971  0.2423
  112MOL0     H14756   8.846   6.203   8.080 -4.2196  1.3151 -1.0742
  112MOL0     H14757   8.872   6.209   7.906 -1.4358  0.8061  0.2400
  112MOL0     H14758   8.607   6.122   8.042 -0.8562  0.5510 -0.8115
  112MOL0     H14759   8.658   6.110   7.872  3.3555  1.7690 -1.8505
  112MOL0     H14760   8.669   6.340   7.834  2.4362  1.6970  1.8978
  112MOL0     H14761   8.648   6.382   8.007  1.9208 -0.8103 -0.7131
  112MOL0     H14762   8.431   6.239   7.858 -1.1319 -0.2155  1.5063
  112MOL0     H14763   8.436   6.302   8.027  2.2859 -1.2263  0.4574
  112MOL0     H14764   8.397   6.449   7.780  1.5939  1.6854  0.5806
  112MOL0     H14765   8.503   6.519   7.896  1.5314 -1.0742 -3.1371
  112MOL0     H14766   9.046   5.729   8.418 -0.1305 -0.6843  0.8873
  112MOL0     H14767   9.218   5.718   8.630 -1.4275  0.1228 -0.4210
  112MOL0     H14768   9.479   6.095   8.883 -0.8466 -0.6041 -0.3647
  112MOL0     H14769   9.683   6.149   9.000  4.5031 -1.9068  3.1497
  112MOL0     H14770  10.186   6.548   8.842 -0.1772 -0.1227 -0.5309
  112MOL0     H14771  10.043   6.361   8.791  0.2928  0.3085  0.7543
  112MOL0     H14772   9.901   5.939   8.729 -1.2267  0.7127 -0.3638
  112MOL0     H14773   9.741   5.821   8.602 -0.2640  1.9867  2.7957
  112MOL0     H14774   9.576   5.774   8.467 -1.6468  5.3897 -2.7869
  112MOL0     H14775   9.677   5.637   8.428 -0.8274  0.1443  0.0546
  112MOL0     H14776   9.560   5.579   8.224 -0.2673  0.6054 -2.2050
  112MOL0     H14777   9.446   5.630   8.356  0.2292  2.3072  1.9536
  112MOL0     H14778   9.517   5.719   8.092  1.6099 -2.4007  1.0775
  112MOL0     H14779   9.492   5.856   8.198  1.9107 -1.0421  0.0321
  112MOL0     H14780   9.274   5.701   8.255  1.7917 -1.6851  1.0945
  112MOL0     H14781   9.270   5.837   8.140 -1.0485  0.5819  2.2146
  112MOL0     H14782   9.228   5.588   7.818 -1.4209  2.8343 -0.5753
  112MOL0     H14783   9.904   5.956   8.227  0.1051 -3.1668  0.9526
  112MOL0     H14784  10.060   6.087   8.356 -0.7265 -0.8212 -0.1926
  113MOL0     O14785   0.119   2.547   7.368  0.1674  1.2052  0.3315
  113MOL0     C14786   0.108   2.524   7.249 -0.3237 -0.2088  1.1248
  113MOL0     O14787   0.009   2.458   7.180  0.3596  0.3626 -0.7401
  113MOL0     C14788  -0.077   2.379   7.253  0.5346  0.2526 -0.5549
  113MOL0     C14789  -0.138   2.436   7.374 -0.1811  1.4056  0.0970
  113MOL0     C14790  -0.216   2.362   7.469  0.1321  0.1623  0.6987
  113MOL0     C14791  -0.242   2.221   7.449 -0.0846  0.0119  0.5056
  113MOL0     O14792  -0.310   2.123   7.526  0.0070 -0.6813  0.1218
  113MOL0     C14793  -0.404   2.183   7.622 -0.5144  0.6896  0.0624
  113MOL0     C14794  -0.497   2.087   7.685  0.0333 -0.2853 -0.2684
  113MOL0     C14795  -0.627   2.162   7.741 -0.5866 -0.4002  0.0584
  113MOL0     C14796  -0.683   2.074   7.849 -0.0521  0.2466 -0.1284
  113MOL0     C14797  -0.823   2.118   7.909 -0.6662  0.1793  0.5983
  113MOL0     C14798  -0.844   2.270   7.927  0.7359  0.7693  0.4738
  113MOL0     C14799  -0.975   2.288   8.014 -0.0322 -0.0318  0.0218
  113MOL0     C14800  -1.113   2.257   7.945 -0.5252  0.5939 -0.2211
  113MOL0     N14801  -1.141   2.338   7.824 -0.6161 -0.5213  0.2062
  113MOL0     C14802  -1.166   2.473   7.822 -0.3723  0.0048 -0.2107
  113MOL0     C14803  -1.174   2.504   7.686 -1.0661  0.9886 -0.2018
  113MOL0     C14804  -1.209   2.632   7.620  0.4806  0.0209 -0.5686
  113MOL0     C14805  -1.075   2.704   7.593 -0.5671 -0.1877  0.4069
  113MOL0     C14806  -1.117   2.839   7.542 -1.8721 -0.0289 -0.5338
  113MOL0     C14807  -1.002   2.912   7.476 -0.1311  1.1390  0.3508
  113MOL0     O14808  -0.893   2.915   7.567 -0.1460 -0.6422  0.0119
  113MOL0     C14809  -0.764   2.911   7.513 -0.8720  0.5905  0.1886
  113MOL0     C14810  -0.659   2.994   7.565  1.4612 -0.4058  0.8077
  113MOL0     C14811  -0.535   2.993   7.511 -0.5604 -0.3858  0.0456
  113MOL0     C14812  -0.503   2.909   7.404 -0.5068  0.0216  0.3741
  113MOL0     C14813  -0.364   2.913   7.347 -0.7109 -0.5126 -0.1870
  113MOL0     O14814  -0.290   3.028   7.367  0.1906 -0.4963  0.3208
  113MOL0     C14815  -0.170   3.042   7.300  0.4506  0.9633  0.2996
  113MOL0     C14816  -0.182   3.074   7.158 -0.4024  1.1359  0.4010
  113MOL0     C14817  -0.066   3.101   7.090 -0.6419 -0.2329 -0.3880
  113MOL0     C14818   0.064   3.099   7.156 -0.4562 -0.0143 -0.2943
  113MOL0     O14819   0.183   3.128   7.096  0.3415 -1.0644 -0.4597
  113MOL0     C14820   0.190   3.227   6.988 -0.7004  0.1134 -0.5021
  113MOL0     C14821   0.334   3.271   6.972 -0.3715  0.0761  0.0411
  113MOL0     C14822   0.378   3.366   7.080 -0.2210  0.1303  0.5381
  113MOL0     C14823   0.526   3.399   7.060  0.5861  0.4157  0.0154
  113MOL0     C14824   0.577   3.516   7.142  0.5734 -0.2341  0.2733
  113MOL0     C14825   0.540   3.651   7.073  0.5223  0.5279  0.3077
  113MOL0     C14826   0.617   3.781   7.113  0.3253 -0.0494  0.0157
  113MOL0     C14827   0.757   3.780   7.057  0.0782 -0.2064 -0.6394
  113MOL0    Cl14828   0.828   3.953   7.065 -0.0338  0.1657 -0.3655
  113MOL0     C14829   0.065   3.073   7.292  0.7160  0.5195 -0.0995
  113MOL0     C14830  -0.048   3.044   7.362  0.0977 -1.0258  0.3820
  113MOL0     O14831  -0.331   2.824   7.273  1.1102 -0.1885  0.7680
  113MOL0     C14832  -0.596   2.823   7.350 -0.4557  0.8985 -0.0260
  113MOL0     C14833  -0.730   2.827   7.408 -0.6699 -0.1632 -0.7086
  113MOL0     N14834  -1.156   2.389   7.616 -0.1736 -0.2904  0.4379
  113MOL0     N14835  -1.132   2.298   7.696 -0.1729 -0.2525 -0.6298
  113MOL0     C14836  -0.191   2.166   7.325 -0.3107 -0.1098  0.0717
  113MOL0     C14837  -0.114   2.243   7.229 -0.7074  0.5543  0.6473
  113MOL0     C14838   0.206   2.596   7.160 -0.1329  0.6382  0.2858
  113MOL0     C14839   0.215   2.737   7.166 -0.1803  0.7812 -0.2525
  113MOL0     C14840   0.320   2.801   7.107  0.2606  0.0243  1.2436
  113MOL0     C14841   0.409   2.737   7.008 -0.3738 -0.6129 -0.3257
  113MOL0     O14842   0.512   2.804   6.956  0.3318  0.3026 -0.1721
  113MOL0     C14843   0.565   2.929   7.011  0.1824 -0.1012 -0.7581
  113MOL0     C14844   0.637   2.997   6.889 -0.4726 -0.4830 -0.4626
  113MOL0     C14845   0.757   2.904   6.843  0.1718  0.3043  0.7270
  113MOL0     C14846   0.790   2.930   6.687  0.2929  1.4193  0.1354
  113MOL0     C14847   0.905   3.014   6.677  0.5291  0.3135 -0.8163
  113MOL0     C14848   1.017   3.057   6.676 -0.1277  0.2187 -0.1928
  113MOL0     C14849   0.381   2.601   6.980  0.1378 -0.5312 -0.6604
  113MOL0     C14850   0.282   2.530   7.052  0.0572  0.0439 -0.8786
  113MOL0     H14851  -0.123   2.541   7.397 -0.1432  1.5556 -0.5759
  113MOL0     H14852  -0.244   2.397   7.568  0.6368 -0.8015  1.1978
  113MOL0     H14853  -0.461   2.248   7.554 -0.5453  0.6753  0.0744
  113MOL0     H14854  -0.354   2.249   7.694  1.0274  3.1279 -3.0144
  113MOL0     H14855  -0.437   2.063   7.773 -0.1436  2.9001  0.8553
  113MOL0     H14856  -0.514   1.994   7.631  1.1405 -1.7670  1.7998
  113MOL0     H14857  -0.709   2.157   7.668 -2.6228 -1.0165  2.2884
  113MOL0     H14858  -0.613   2.263   7.780 -0.8644 -0.3151 -0.0579
  113MOL0     H14859  -0.689   1.970   7.814  2.0695 -0.1610  0.5783
  113MOL0     H14860  -0.607   2.084   7.927 -3.2493  3.3976  2.9431
  113MOL0     H14861  -0.837   2.068   8.006  1.2500  3.2927  2.6615
  113MOL0     H14862  -0.899   2.087   7.837  0.3348  0.7294 -0.7278
  113MOL0     H14863  -0.845   2.322   7.832 -0.2620 -0.6550 -0.3264
  113MOL0     H14864  -0.757   2.311   7.981  0.7415  1.8311 -0.3238
  113MOL0     H14865  -0.971   2.229   8.106 -0.6059  0.7553  0.5654
  113MOL0     H14866  -0.979   2.393   8.044  3.2333 -0.3457  2.1347
  113MOL0     H14867  -1.188   2.285   8.019 -0.5522  4.0280 -1.3362
  113MOL0     H14868  -1.121   2.154   7.911 -0.7103  0.5054  0.0968
  113MOL0     H14869  -1.196   2.534   7.907 -0.6087 -0.2127 -0.1395
  113MOL0     H14870  -1.285   2.676   7.685 -1.5712  0.6328 -3.1513
  113MOL0     H14871  -1.257   2.606   7.525 -1.6025  1.9957 -0.1624
  113MOL0     H14872  -1.015   2.648   7.521 -0.2391  0.9616 -0.2358
  113MOL0     H14873  -1.013   2.717   7.683  1.4459 -0.8021 -0.8318
  113MOL0     H14874  -1.192   2.842   7.462 -1.8694 -2.9714 -0.7917
  113MOL0     H14875  -1.152   2.903   7.623  0.4864  1.7753 -0.8561
  113MOL0     H14876  -1.032   3.009   7.434  0.7187  1.3207  0.1391
  113MOL0     H14877  -0.983   2.847   7.390  2.5043  2.0117  0.1619
  113MOL0     H14878  -0.681   3.055   7.653 -1.9490  0.8925 -0.7371
  113MOL0     H14879  -0.451   3.049   7.550 -1.5733  0.8556  0.5247
  113MOL0     H14880  -0.279   3.077   7.111 -0.8219  1.7565  1.2814
  113MOL0     H14881  -0.067   3.130   6.985 -1.2467  3.3959  0.4872
  113MOL0     H14882   0.132   3.313   7.022 -1.3072 -0.8357  0.9567
  113MOL0     H14883   0.152   3.173   6.901  0.4177  0.2995 -1.1272
  113MOL0     H14884   0.339   3.324   6.876  1.6366 -2.3507 -1.3099
  113MOL0     H14885   0.389   3.177   6.960  1.8499  1.3907 -0.8797
  113MOL0     H14886   0.370   3.325   7.182  3.5719  1.4252  1.5491
  113MOL0     H14887   0.315   3.453   7.064  1.8941  1.4551 -1.2013
  113MOL0     H14888   0.577   3.315   7.108 -1.1309  0.0785  1.3477
  113MOL0     H14889   0.550   3.416   6.955  0.3747  1.4015  0.1191
  113MOL0     H14890   0.686   3.509   7.140  0.7787 -0.8631  4.6204
  113MOL0     H14891   0.541   3.516   7.245  2.3820 -1.0044  0.9349
  113MOL0     H14892   0.431   3.652   7.080  0.4027 -2.7309  0.3266
  113MOL0     H14893   0.564   3.636   6.967 -3.0932 -1.0075 -0.4075
  113MOL0     H14894   0.550   3.853   7.064  0.6512 -0.3848 -0.9537
  113MOL0     H14895   0.602   3.793   7.221 -1.1831 -1.0573 -0.0507
  113MOL0     H14896   0.759   3.739   6.956  0.2583  0.0346 -0.7338
  113MOL0     H14897   0.813   3.712   7.122 -0.4532 -3.3640 -3.2376
  113MOL0     H14898   0.160   3.082   7.343  0.2224  0.6424  0.8125
  113MOL0     H14899  -0.050   3.040   7.471  0.1644 -1.5129  0.3665
  113MOL0     H14900  -0.577   2.763   7.261  0.6376  2.6207 -1.0064
  113MOL0     H14901  -0.805   2.769   7.355  1.3490 -1.7114 -2.0076
  113MOL0     H14902  -0.216   2.062   7.305  0.6577 -0.5506  1.0425
  113MOL0     H14903  -0.076   2.198   7.138  0.6336  1.1083  0.9098
  113MOL0     H14904   0.143   2.782   7.234  0.7956 -1.1881  2.2261
  113MOL0     H14905   0.317   2.909   7.109  1.9859  0.0935  2.3027
  113MOL0     H14906   0.631   2.907   7.096  1.3413 -0.5867 -1.7449
  113MOL0     H14907   0.493   3.001   7.052  3.3422  1.7942  2.0684
  113MOL0     H14908   0.567   3.028   6.811  0.1650  2.8330  0.1675
  113MOL0     H14909   0.691   3.082   6.930 -1.4198 -0.2740  0.3790
  113MOL0     H14910   0.720   2.801   6.853 -1.1470  0.8413  1.7583
  113MOL0     H14911   0.837   2.904   6.917 -1.5825 -1.1608  2.7528
  113MOL0     H14912   0.803   2.835   6.633 -0.0144  0.6669  1.3409
  113MOL0     H14913   0.704   2.977   6.638  0.8001  1.7051 -0.4945
  113MOL0     H14914   1.120   3.086   6.675 -0.0574  0.6518  3.7878
  113MOL0     H14915   0.439   2.536   6.915 -1.1229 -2.3072 -0.0833
  113MOL0     H14916   0.256   2.425   7.043 -2.7665  0.2928  2.2361
  114MOL0     O14917   7.166   6.476   2.300 -0.0444 -0.0998  0.8721
  114MOL0     C14918   7.096   6.404   2.233 -0.3905  0.2632 -0.5983
  114MOL0     O14919   7.126   6.352   2.109  0.7779 -0.2561  0.5602
  114MOL0     C14920   7.231   6.380   2.033 -1.3579 -0.9154  1.1315
  114MOL0     C14921   7.270   6.281   1.944  0.1062  0.7325 -0.2213
  114MOL0     C14922   7.387   6.297   1.863 -0.6042 -1.3250 -0.4064
  114MOL0     C14923   7.455   6.421   1.865  0.3304  1.0359 -0.0296
  114MOL0     O14924   7.578   6.445   1.809 -0.1541 -0.5507 -0.3137
  114MOL0     C14925   7.561   6.498   1.676  0.0671 -0.4960  0.4735
  114MOL0     C14926   7.527   6.386   1.574 -0.3676  0.2839  0.2270
  114MOL0     C14927   7.564   6.429   1.432 -0.3185 -0.7652 -0.1995
  114MOL0     C14928   7.553   6.318   1.330  0.2674  0.0219  0.1469
  114MOL0     C14929   7.619   6.348   1.190  0.4657 -0.1506 -0.2001
  114MOL0     C14930   7.771   6.327   1.195 -0.0233  0.6473  0.2699
  114MOL0     C14931   7.835   6.395   1.067 -1.3392 -0.6622  1.2724
  114MOL0     C14932   7.788   6.329   0.936 -0.2513 -0.1678 -0.5023
  114MOL0     N14933   7.863   6.369   0.815  0.5267  0.8780  1.2709
  114MOL0     C14934   7.965   6.302   0.757 -0.3180  1.1055  0.8641
  114MOL0     C14935   8.026   6.393   0.672  0.1455  0.2885 -0.0785
  114MOL0     C14936   8.146   6.381   0.584  0.0998  0.9673  0.3060
  114MOL0     C14937   8.192   6.241   0.540 -0.4486  1.1944 -0.0265
  114MOL0     C14938   8.328   6.262   0.476 -0.2866 -0.7630  0.1723
  114MOL0     C14939   8.398   6.128   0.441  0.9018  0.3185  0.1830
  114MOL0     O14940   8.512   6.163   0.353 -0.4439 -0.4995 -0.3325
  114MOL0     C14941   8.592   6.058   0.311  1.0743 -0.0709 -0.6781
  114MOL0     C14942   8.573   5.918   0.346  0.8941 -0.3544  0.6793
  114MOL0     C14943   8.660   5.809   0.301  0.1976 -0.7186  0.0067
  114MOL0     C14944   8.776   5.845   0.231 -0.3082  0.8230  1.3761
  114MOL0     C14945   8.872   5.734   0.192  0.3064 -0.3349  0.9250
  114MOL0     O14946   8.843   5.610   0.237 -0.3314 -0.2724  0.3935
  114MOL0     C14947   8.901   5.501   0.182 -0.0925  0.7312  0.2179
  114MOL0     C14948   8.814   5.417   0.103 -0.0790  0.3602 -0.3973
  114MOL0     C14949   8.862   5.333   0.006  0.1730  0.4669  0.5629
  114MOL0     C14950   9.000   5.303  -0.005  1.4076  0.0117 -0.4154
  114MOL0     O14951   9.050   5.209  -0.091  0.1029 -0.9383 -0.1611
  114MOL0     C14952   9.173   5.245  -0.152  1.2567  0.1639  0.3877
  114MOL0     C14953   9.219   5.144  -0.242 -0.5433  0.8476  0.9565
  114MOL0     C14954   9.247   5.009  -0.167 -0.3668  0.0207 -0.1659
  114MOL0     C14955   9.328   4.904  -0.248  0.6774  0.2712 -0.1676
  114MOL0     C14956   9.333   4.768  -0.185  0.5961  0.0570 -0.2510
  114MOL0     C14957   9.395   4.669  -0.297 -0.8517 -0.8443 -0.3369
  114MOL0     C14958   9.390   4.518  -0.261  0.2165  0.4338  0.1839
  114MOL0     C14959   9.460   4.452  -0.374  0.2180  0.6861 -0.8117
  114MOL0    Cl14960   9.360   4.460  -0.526  0.3623 -0.0850 -0.1765
  114MOL0     C14961   9.085   5.363   0.093  0.0857 -0.4681  0.0848
  114MOL0     C14962   9.036   5.451   0.187 -0.3657 -0.4501 -0.7543
  114MOL0     O14963   8.943   5.759   0.097  0.0137 -0.1857  0.3233
  114MOL0     C14964   8.806   5.979   0.212  0.5233 -0.2302 -0.3351
  114MOL0     C14965   8.711   6.078   0.240  0.1974  0.0546  0.9397
  114MOL0     N14966   7.952   6.502   0.667 -0.0725 -0.2862 -0.3839
  114MOL0     N14967   7.859   6.491   0.752 -0.6563  0.7915  0.0322
  114MOL0     C14968   7.414   6.522   1.946  0.8545 -0.4233  0.3664
  114MOL0     C14969   7.307   6.498   2.037  0.2866 -0.2892 -0.5915
  114MOL0     C14970   6.958   6.370   2.288 -0.2889 -0.5186  0.0895
  114MOL0     C14971   6.897   6.436   2.403 -0.3672 -0.9889 -0.4627
  114MOL0     C14972   6.770   6.409   2.456  0.2286  0.1717 -1.2960
  114MOL0     C14973   6.693   6.314   2.382  0.1061  0.2813 -0.8943
  114MOL0     O14974   6.561   6.294   2.398  0.0390  0.1683 -0.8846
  114MOL0     C14975   6.504   6.325   2.524  0.4156  0.1221 -0.9558
  114MOL0     C14976   6.378   6.237   2.536  0.8164  0.0473  0.9596
  114MOL0     C14977   6.280   6.292   2.642 -0.0153  0.0864  0.3875
  114MOL0     C14978   6.337   6.274   2.781  0.5912  0.1194 -0.3980
  114MOL0     C14979   6.231   6.323   2.875  0.6077 -0.0073  1.1206
  114MOL0     C14980   6.156   6.364   2.954 -0.6786  0.4870  0.5126
  114MOL0     C14981   6.748   6.255   2.265  0.3720 -0.0941 -0.2510
  114MOL0     C14982   6.878   6.282   2.214 -0.2921 -0.7601  1.1328
  114MOL0     H14983   7.228   6.181   1.935  3.2498 -0.5236 -2.5111
  114MOL0     H14984   7.419   6.209   1.808  1.0546  0.5134 -2.5590
  114MOL0     H14985   7.652   6.552   1.647  0.5447 -2.4384 -1.9420
  114MOL0     H14986   7.474   6.564   1.673 -0.1525 -0.4584  3.8536
  114MOL0     H14987   7.423   6.352   1.580  0.0546 -0.9713  0.7369
  114MOL0     H14988   7.604   6.309   1.586 -1.2583 -0.7683 -0.6305
  114MOL0     H14989   7.655   6.485   1.411 -1.7091  1.2094 -1.3690
  114MOL0     H14990   7.481   6.499   1.417 -1.9349 -2.2840  1.3113
  114MOL0     H14991   7.592   6.228   1.378 -1.5678 -0.8682  0.0824
  114MOL0     H14992   7.447   6.294   1.314  0.6083 -0.0113 -2.5654
  114MOL0     H14993   7.593   6.448   1.155  0.0136 -0.3158 -0.3447
  114MOL0     H14994   7.576   6.289   1.109 -1.6316  0.7597  0.1885
  114MOL0     H14995   7.794   6.220   1.192  0.7259  0.8062 -2.8321
  114MOL0     H14996   7.819   6.375   1.280 -1.0662  1.0843  0.6323
  114MOL0     H14997   7.789   6.494   1.064 -0.2606 -0.1492 -1.3864
  114MOL0     H14998   7.944   6.395   1.080 -0.6587  3.3332 -2.2184
  114MOL0     H14999   7.682   6.351   0.920 -0.4549 -0.4797  0.3608
  114MOL0     H15000   7.799   6.220   0.941  1.2882  0.0293  1.8195
  114MOL0     H15001   7.995   6.200   0.779 -3.9620  0.1640  2.2241
  114MOL0     H15002   8.228   6.429   0.639  0.9525  0.2176 -0.2835
  114MOL0     H15003   8.131   6.444   0.496 -0.2681 -0.0791 -0.3854
  114MOL0     H15004   8.119   6.195   0.473 -0.5446 -0.2658  1.0234
  114MOL0     H15005   8.192   6.175   0.628 -0.3922  0.3208 -0.6638
  114MOL0     H15006   8.307   6.315   0.382 -0.8945 -1.8237 -0.3033
  114MOL0     H15007   8.404   6.314   0.536  1.1511 -2.3306 -0.1993
  114MOL0     H15008   8.329   6.061   0.389  0.8753  0.7086 -0.2907
  114MOL0     H15009   8.428   6.076   0.532  1.0907  0.7560  0.3724
  114MOL0     H15010   8.486   5.884   0.401  0.1044 -0.7941 -0.7838
  114MOL0     H15011   8.648   5.705   0.328  3.0989 -1.1967 -0.2208
  114MOL0     H15012   8.709   5.443   0.111  0.4033  1.9339  1.8669
  114MOL0     H15013   8.789   5.286  -0.060  1.6063 -0.3534 -0.4832
  114MOL0     H15014   9.262   5.253  -0.088  1.3668 -2.6909  0.7360
  114MOL0     H15015   9.160   5.337  -0.208 -0.2101 -0.7482 -0.8386
  114MOL0     H15016   9.313   5.186  -0.279  0.2612 -1.9717 -0.4790
  114MOL0     H15017   9.145   5.129  -0.321  1.8746 -2.4286 -0.9576
  114MOL0     H15018   9.158   4.965  -0.121  0.5371 -1.2252  0.4581
  114MOL0     H15019   9.292   5.029  -0.069  1.7515 -1.1267 -0.8285
  114MOL0     H15020   9.278   4.909  -0.345 -2.3713  0.2833  1.3111
  114MOL0     H15021   9.432   4.937  -0.260  1.3459 -1.6577 -0.0507
  114MOL0     H15022   9.236   4.731  -0.152  1.1910 -1.6239 -0.2748
  114MOL0     H15023   9.400   4.764  -0.098  2.8324  0.4743 -1.8441
  114MOL0     H15024   9.499   4.697  -0.317 -1.0196 -0.5665 -0.8219
  114MOL0     H15025   9.343   4.682  -0.392  1.7473 -0.9910 -1.8898
  114MOL0     H15026   9.450   4.507  -0.170  0.4101 -1.9839 -0.1681
  114MOL0     H15027   9.287   4.484  -0.244 -0.4662  0.7662 -2.8405
  114MOL0     H15028   9.463   4.346  -0.347  2.0370  1.3984  2.3056
  114MOL0     H15029   9.562   4.483  -0.397  1.0905 -2.8982 -2.4392
  114MOL0     H15030   9.192   5.349   0.095  0.1229 -1.3928  5.0173
  114MOL0     H15031   9.101   5.496   0.262 -2.8268  2.1434  0.0070
  114MOL0     H15032   8.895   6.010   0.158 -0.7567  1.0750 -1.7726
  114MOL0     H15033   8.739   6.182   0.225  3.9525 -1.0070 -0.5676
  114MOL0     H15034   7.467   6.616   1.951 -2.3085  1.4283  4.2475
  114MOL0     H15035   7.284   6.582   2.102 -0.3529 -1.2945  0.5287
  114MOL0     H15036   6.959   6.511   2.451  0.3839 -2.0973  0.3334
  114MOL0     H15037   6.742   6.464   2.546  3.2275  1.6641 -1.1653
  114MOL0     H15038   6.474   6.430   2.528 -0.8760 -0.1345 -2.6138
  114MOL0     H15039   6.569   6.307   2.610  6.0661  4.2993 -3.6764
  114MOL0     H15040   6.333   6.241   2.436 -1.0146  2.4629  1.7896
  114MOL0     H15041   6.402   6.134   2.564  1.4880  0.2457  1.1240
  114MOL0     H15042   6.181   6.247   2.627 -0.1470  0.4184  0.2554
  114MOL0     H15043   6.259   6.397   2.622  0.0704  0.2954  1.3933
  114MOL0     H15044   6.357   6.167   2.790  2.8191  0.5009 -0.2123
  114MOL0     H15045   6.431   6.330   2.790 -0.7514  2.2743  1.5663
  114MOL0     H15046   6.077   6.401   3.017 -1.7360  0.7191 -0.9136
  114MOL0     H15047   6.682   6.183   2.218  0.4583 -1.1433  1.1567
  114MOL0     H15048   6.906   6.243   2.117 -2.7857  1.9212 -0.8638
  115MOL0     O15049  11.400   1.588  10.778 -0.3705 -0.9843  0.5050
  115MOL0     C15050  11.385   1.708  10.792 -0.6804  0.1473 -0.0531
  115MOL0     O15051  11.336   1.762  10.912  0.0653  0.0542  0.0670
  115MOL0     C15052  11.293   1.692  11.012  0.5722  0.2888 -0.9533
  115MOL0     C15053  11.212   1.769  11.093 -0.0371 -0.1562  0.2078
  115MOL0     C15054  11.180   1.727  11.223 -0.6034 -0.4484 -0.6639
  115MOL0     C15055  11.217   1.604  11.271  0.0641  0.9818  0.6480
  115MOL0     O15056  11.183   1.570  11.398 -0.0251 -0.5927 -0.1016
  115MOL0     C15057  11.169   1.435  11.427 -0.5823 -0.7748 -0.6643
  115MOL0     C15058  11.044   1.401  11.503  0.9215  0.0775 -0.2432
  115MOL0     C15059  11.001   1.255  11.495  1.0134  0.2991 -0.2704
  115MOL0     C15060  10.857   1.240  11.557 -1.1872 -0.6713  0.1584
  115MOL0     C15061  10.772   1.125  11.505  0.0491  1.2788  0.4378
  115MOL0     C15062  10.821   0.994  11.566 -0.6139 -0.1609  0.1310
  115MOL0     C15063  10.759   0.869  11.509  0.2325  0.9791  0.0208
  115MOL0     C15064  10.787   0.755  11.610 -0.4684  0.2515  0.1568
  115MOL0     N15065  10.696   0.647  11.583  0.5350 -1.0054  0.0785
  115MOL0     C15066  10.692   0.566  11.471 -0.3043 -0.5462  0.4895
  115MOL0     C15067  10.613   0.462  11.507 -0.1516  0.4651  0.1066
  115MOL0     C15068  10.577   0.332  11.428 -0.1906 -0.2712  0.2809
  115MOL0     C15069  10.572   0.358  11.283  0.9731  0.3525  1.4654
  115MOL0     C15070  10.445   0.423  11.231 -0.4071  0.4472 -0.3098
  115MOL0     C15071  10.450   0.579  11.226  1.0466 -0.0331  0.0125
  115MOL0     O15072  10.557   0.623  11.136  0.1322  0.0892 -0.1094
  115MOL0     C15073  10.576   0.754  11.123  0.3431  0.2173  0.0330
  115MOL0     C15074  10.660   0.792  11.018  0.6744  0.6208 -1.1143
  115MOL0     C15075  10.685   0.920  10.981 -0.3071 -0.2524 -0.4137
  115MOL0     C15076  10.624   1.021  11.050 -0.5638 -0.0766  0.1895
  115MOL0     C15077  10.662   1.163  11.020 -0.7423  1.3585  0.2973
  115MOL0     O15078  10.666   1.242  11.134  0.4250 -0.0112  0.3970
  115MOL0     C15079  10.705   1.375  11.109  0.1813 -0.3399 -0.3855
  115MOL0     C15080  10.653   1.458  11.005  0.2411 -0.0548 -0.5769
  115MOL0     C15081  10.692   1.593  11.000  0.7338 -0.6788  0.3333
  115MOL0     C15082  10.778   1.651  11.094 -0.4110  0.7387  0.5169
  115MOL0     O15083  10.827   1.783  11.087  0.3738 -0.7189  0.1792
  115MOL0     C15084  10.785   1.855  10.969 -0.1946 -0.0910  0.6408
  115MOL0     C15085  10.889   1.826  10.853 -0.2972  1.0454 -0.5592
  115MOL0     C15086  10.883   1.945  10.762 -0.0216 -0.2773 -0.1903
  115MOL0     C15087  10.916   1.912  10.614 -0.2524  0.0878 -0.9758
  115MOL0     C15088  10.902   2.043  10.537 -1.3839 -0.1754  0.4658
  115MOL0     C15089  10.893   2.013  10.386  0.9925  0.2162 -0.5340
  115MOL0     C15090  10.918   2.127  10.293  0.1963 -0.0728 -0.4983
  115MOL0     C15091  10.883   2.103  10.144  0.1354  0.1153 -0.2356
  115MOL0    Cl15092  10.727   2.016  10.108  0.2157 -0.1735  0.3687
  115MOL0     C15093  10.811   1.570  11.204 -0.4743  0.1566 -1.1929
  115MOL0     C15094  10.780   1.432  11.210 -0.0705  0.4322 -0.1229
  115MOL0     O15095  10.684   1.198  10.906 -0.0962 -1.0367  0.5888
  115MOL0     C15096  10.535   0.987  11.157 -0.8180  1.0366 -0.3794
  115MOL0     C15097  10.516   0.856  11.189 -0.6272  0.4254 -1.1477
  115MOL0     N15098  10.581   0.472  11.634  0.9739 -0.3156  0.3114
  115MOL0     N15099  10.620   0.587  11.678  0.6952 -0.2222  0.7735
  115MOL0     C15100  11.302   1.520  11.185  0.5817 -0.5673  0.4527
  115MOL0     C15101  11.342   1.571  11.058  0.4809  0.8500 -0.2106
  115MOL0     C15102  11.414   1.799  10.684 -0.1917 -1.0294 -0.7966
  115MOL0     C15103  11.366   1.935  10.693  0.0882  0.1763  0.8715
  115MOL0     C15104  11.411   2.024  10.594  0.2399  0.6148  0.3101
  115MOL0     C15105  11.500   1.984  10.490 -0.0771 -0.5633  0.2007
  115MOL0     O15106  11.539   2.079  10.399 -0.4858 -0.1350 -0.7388
  115MOL0     C15107  11.585   2.203  10.452  0.1761 -0.9440 -0.3210
  115MOL0     C15108  11.723   2.235  10.396  0.2729  0.6552 -0.0491
  115MOL0     C15109  11.719   2.264  10.241 -0.3719  0.7554 -0.2107
  115MOL0     C15110  11.822   2.364  10.191 -0.2066 -0.4849 -0.6242
  115MOL0     C15111  11.803   2.409  10.046  0.2934  0.3240 -0.6198
  115MOL0     C15112  11.773   2.435   9.938  0.2005 -0.4457  0.0500
  115MOL0     C15113  11.534   1.848  10.479 -0.1046 -0.3227 -0.3418
  115MOL0     C15114  11.492   1.760  10.577 -0.2028  0.3617  0.4798
  115MOL0     H15115  11.192   1.871  11.060  0.1714  0.5441  2.0864
  115MOL0     H15116  11.122   1.788  11.290  3.0738  2.2699  0.3665
  115MOL0     H15117  11.252   1.411  11.494  1.6808  0.8275 -2.7366
  115MOL0     H15118  11.165   1.364  11.344 -0.7701 -1.8443  0.2406
  115MOL0     H15119  10.971   1.467  11.455  0.2071 -2.1538 -2.4433
  115MOL0     H15120  11.057   1.420  11.610 -0.9538 -2.7844  0.6102
  115MOL0     H15121  11.074   1.191  11.546 -1.5081 -0.7930  2.1965
  115MOL0     H15122  11.007   1.236  11.388  3.3431  0.7987 -0.2926
  115MOL0     H15123  10.864   1.239  11.666  3.6243  1.6713  0.1555
  115MOL0     H15124  10.804   1.334  11.536 -1.6495 -1.0244 -0.2793
  115MOL0     H15125  10.764   1.139  11.397 -0.5811  1.0002  0.4438
  115MOL0     H15126  10.671   1.136  11.545  0.4239  1.8150  1.2600
  115MOL0     H15127  10.808   1.002  11.674  0.6953  0.8611  0.2540
  115MOL0     H15128  10.930   0.994  11.551 -0.7784 -1.5071 -1.1943
  115MOL0     H15129  10.651   0.884  11.499 -0.4026 -0.8242  2.9659
  115MOL0     H15130  10.798   0.837  11.411 -0.5142 -0.9454  0.3059
  115MOL0     H15131  10.790   0.794  11.712  4.1449  1.9473 -0.3510
  115MOL0     H15132  10.890   0.718  11.601  0.3765  1.7476  2.5717
  115MOL0     H15133  10.738   0.592  11.376  0.2880  0.5367  1.0539
  115MOL0     H15134  10.484   0.295  11.473  1.0589 -0.3852  2.9719
  115MOL0     H15135  10.651   0.252  11.433 -1.6028 -1.6523  0.0843
  115MOL0     H15136  10.573   0.261  11.231 -0.8852  1.7157 -1.4074
  115MOL0     H15137  10.664   0.407  11.250  0.2349  1.6405  1.2587
  115MOL0     H15138  10.424   0.379  11.133  0.9038  1.5821 -1.1481
  115MOL0     H15139  10.364   0.388  11.296 -0.6662 -0.5835 -1.1675
  115MOL0     H15140  10.454   0.627  11.324 -0.6850  0.1308  0.0281
  115MOL0     H15141  10.358   0.608  11.175  1.1707 -0.8554 -0.7125
  115MOL0     H15142  10.705   0.710  10.964 -1.2018 -2.4857  1.6544
  115MOL0     H15143  10.754   0.942  10.900 -0.0670  0.6131  0.0122
  115MOL0     H15144  10.573   1.425  10.940  0.9378  0.2344 -1.5888
  115MOL0     H15145  10.637   1.643  10.921 -2.7207 -4.7629 -0.2243
  115MOL0     H15146  10.790   1.963  10.987 -1.9662  0.0935  0.1410
  115MOL0     H15147  10.679   1.840  10.951 -0.3249  0.7912  0.6394
  115MOL0     H15148  10.857   1.731  10.809 -3.0200  1.7685 -0.3437
  115MOL0     H15149  10.990   1.821  10.896 -0.5313  1.9616  0.1196
  115MOL0     H15150  10.944   2.030  10.793 -1.1046  0.7706 -0.8748
  115MOL0     H15151  10.782   1.985  10.765  0.0711 -0.0441 -0.1915
  115MOL0     H15152  11.017   1.871  10.605 -0.4453 -0.5744 -0.2673
  115MOL0     H15153  10.844   1.836  10.582 -0.2561 -1.4751  2.3882
  115MOL0     H15154  10.999   2.091  10.550 -0.0718 -2.5324 -0.0867
  115MOL0     H15155  10.819   2.104  10.575 -0.3627  0.8224  1.1735
  115MOL0     H15156  10.791   1.978  10.366  0.1690  2.4496 -0.4900
  115MOL0     H15157  10.948   1.927  10.347  0.0979 -0.7151  0.1703
  115MOL0     H15158  10.850   2.208  10.321 -2.2800 -1.7139 -1.3821
  115MOL0     H15159  11.021   2.162  10.302 -0.2635  1.3464 -0.5045
  115MOL0     H15160  10.957   2.026  10.121  1.0865  0.8505  0.3187
  115MOL0     H15161  10.916   2.184  10.079 -0.2428  1.0886  0.7700
  115MOL0     H15162  10.878   1.612  11.278 -1.8151 -3.0352  2.1293
  115MOL0     H15163  10.815   1.367  11.289  2.2369  1.2196 -0.4205
  115MOL0     H15164  10.487   1.059  11.222  0.9323  1.3326  0.6687
  115MOL0     H15165  10.448   0.838  11.272 -2.7253  0.3074 -2.8049
  115MOL0     H15166  11.334   1.424  11.225  1.4918 -0.5157 -0.1423
  115MOL0     H15167  11.411   1.501  11.014  1.1539 -0.5204  2.7654
  115MOL0     H15168  11.296   1.964  10.770  1.8848 -1.6569  3.3661
  115MOL0     H15169  11.370   2.124  10.592 -1.2449  0.0985  2.0014
  115MOL0     H15170  11.592   2.199  10.561 -4.4251 -0.1960  0.2015
  115MOL0     H15171  11.509   2.279  10.431 -0.8444 -1.7473  0.4214
  115MOL0     H15172  11.767   2.324  10.441  3.7428 -0.6542 -0.5820
  115MOL0     H15173  11.793   2.154  10.419 -2.1541 -1.1321  1.6171
  115MOL0     H15174  11.616   2.300  10.232 -1.2213 -1.5524 -0.5179
  115MOL0     H15175  11.717   2.171  10.183 -0.7477  1.0530 -0.6765
  115MOL0     H15176  11.812   2.449  10.260  0.4619 -1.6589  0.9694
  115MOL0     H15177  11.923   2.326  10.210 -0.8145 -2.0887 -0.4779
  115MOL0     H15178  11.752   2.487   9.847  2.0043  4.0699  1.8646
  115MOL0     H15179  11.603   1.811  10.403  1.6688  2.5034 -0.2517
  115MOL0     H15180  11.527   1.657  10.578 -1.1654  0.0040  2.3000
  116MOL0     O15181   4.804   0.780   5.418 -0.5314 -0.0795  0.1615
  116MOL0     C15182   4.681   0.781   5.388 -0.3098  0.4094 -0.2135
  116MOL0     O15183   4.624   0.882   5.328 -0.4933 -0.6484  0.4126
  116MOL0     C15184   4.703   0.994   5.295 -0.1690 -0.5575 -0.8090
  116MOL0     C15185   4.805   0.980   5.201 -0.1008  0.4107  0.5709
  116MOL0     C15186   4.877   1.096   5.158  0.0683 -0.7067 -1.1267
  116MOL0     C15187   4.854   1.219   5.205  0.2480 -0.3053  1.0540
  116MOL0     O15188   4.941   1.315   5.162 -0.1696 -0.0887 -0.0648
  116MOL0     C15189   5.016   1.372   5.267 -0.3204  0.0697  0.7331
  116MOL0     C15190   5.104   1.278   5.347  0.0619  0.5980  0.9883
  116MOL0     C15191   5.218   1.360   5.415  1.0546  0.0192  0.4405
  116MOL0     C15192   5.334   1.407   5.336 -0.1924 -0.9097  0.1501
  116MOL0     C15193   5.447   1.466   5.413 -0.7166 -0.8850 -0.3071
  116MOL0     C15194   5.483   1.401   5.544 -0.0648  0.2002  0.1587
  116MOL0     C15195   5.621   1.431   5.600 -0.1137  0.1449  0.5646
  116MOL0     C15196   5.631   1.361   5.734 -0.0177 -0.8988 -0.9495
  116MOL0     N15197   5.647   1.211   5.723 -0.2738 -0.3425 -0.9341
  116MOL0     C15198   5.591   1.106   5.799 -0.6791 -0.4086 -0.1758
  116MOL0     C15199   5.679   0.999   5.785 -0.2980 -0.4855  0.2494
  116MOL0     C15200   5.665   0.857   5.839  0.2159  0.0664  0.1098
  116MOL0     C15201   5.721   0.850   5.983  0.3580  0.6172 -0.4276
  116MOL0     C15202   5.733   0.702   6.013 -0.1551  0.7753 -0.7072
  116MOL0     C15203   5.761   0.679   6.161  0.3602 -0.3485 -0.3487
  116MOL0     O15204   5.897   0.706   6.198 -0.1943  0.9343 -0.4023
  116MOL0     C15205   5.992   0.610   6.183  0.7437  0.5461  0.1140
  116MOL0     C15206   6.108   0.642   6.252  0.8370 -0.7439  0.2133
  116MOL0     C15207   6.224   0.569   6.241 -0.5294  0.0854 -0.4625
  116MOL0     C15208   6.228   0.462   6.147 -0.2495 -0.6507 -0.6740
  116MOL0     C15209   6.364   0.401   6.113 -0.3265  0.2894 -0.1246
  116MOL0     O15210   6.476   0.472   6.158 -0.5642  0.3415  0.2246
  116MOL0     C15211   6.599   0.480   6.091 -0.0398  0.5029  0.4829
  116MOL0     C15212   6.615   0.472   5.950 -0.4302  0.5423 -0.2112
  116MOL0     C15213   6.734   0.516   5.889 -0.4441 -0.4703 -0.4074
  116MOL0     C15214   6.848   0.558   5.965 -1.1501  0.1048 -0.6098
  116MOL0     O15215   6.964   0.572   5.892  0.1490 -0.7913  0.3656
  116MOL0     C15216   7.080   0.507   5.956 -0.6740 -0.0090 -0.2603
  116MOL0     C15217   7.072   0.355   5.978 -0.2984  0.2570 -0.3626
  116MOL0     C15218   7.163   0.314   6.100 -0.3365  0.5482  0.6491
  116MOL0     C15219   7.094   0.317   6.233  0.3032  0.2189 -0.4430
  116MOL0     C15220   7.124   0.200   6.331  0.4964 -0.1617  0.4186
  116MOL0     C15221   7.064   0.208   6.466 -0.4177 -0.1653 -0.6600
  116MOL0     C15222   7.160   0.232   6.594 -0.9416  0.5331  0.0168
  116MOL0     C15223   7.105   0.337   6.695  0.7900 -0.1105 -1.1477
  116MOL0    Cl15224   6.963   0.275   6.800  0.0277 -0.0206 -0.0917
  116MOL0     C15225   6.835   0.550   6.106  0.9758  0.1105  0.4192
  116MOL0     C15226   6.713   0.519   6.163 -0.8994  0.4195 -0.7331
  116MOL0     O15227   6.363   0.311   6.032  0.3480  0.4580  0.0149
  116MOL0     C15228   6.108   0.428   6.073  0.6022 -0.4470  0.2419
  116MOL0     C15229   5.993   0.500   6.101 -0.3801  0.5479 -0.4148
  116MOL0     N15230   5.775   1.030   5.700  0.2961 -0.8064  0.6094
  116MOL0     N15231   5.759   1.157   5.664 -0.1297  0.0421 -0.0753
  116MOL0     C15232   4.754   1.234   5.305 -0.3943  0.1996  0.2224
  116MOL0     C15233   4.678   1.124   5.352  1.2049  0.2423  1.3880
  116MOL0     C15234   4.609   0.647   5.391  0.2822  0.0075 -0.1670
  116MOL0     C15235   4.473   0.641   5.367  1.3218  0.5658 -0.5686
  116MOL0     C15236   4.406   0.513   5.383 -0.0969 -0.6620 -0.4349
  116MOL0     C15237   4.477   0.396   5.403 -0.3308  0.1292  0.9916
  116MOL0     O15238   4.414   0.279   5.427  1.1350  0.3934 -0.1536
  116MOL0     C15239   4.428   0.187   5.324  0.2191 -1.5099  0.3837
  116MOL0     C15240   4.358   0.053   5.357  0.4240 -0.4244 -0.0623
  116MOL0     C15241   4.202   0.070   5.385  0.0771  0.5304 -0.2430
  116MOL0     C15242   4.105  -0.042   5.334  0.5361  0.7403  0.6228
  116MOL0     C15243   4.157  -0.178   5.375  0.6929 -0.7678  0.0922
  116MOL0     C15244   4.200  -0.279   5.415 -0.0393  0.3015 -0.3228
  116MOL0     C15245   4.615   0.400   5.412  0.1499  0.1169 -0.5199
  116MOL0     C15246   4.681   0.520   5.409 -0.0508 -0.4876 -0.9735
  116MOL0     H15247   4.816   0.883   5.152 -2.5857  1.1706 -1.7522
  116MOL0     H15248   4.964   1.061   5.104  1.6819 -2.6660  2.3524
  116MOL0     H15249   4.952   1.421   5.341  1.1970  0.2335  2.0070
  116MOL0     H15250   5.081   1.443   5.215 -2.2542  1.4564  0.1236
  116MOL0     H15251   5.145   1.202   5.279 -2.2653 -0.2210  0.4121
  116MOL0     H15252   5.046   1.218   5.417 -1.5522 -1.1975 -1.6905
  116MOL0     H15253   5.264   1.298   5.492 -1.4480 -2.4828  0.0674
  116MOL0     H15254   5.177   1.454   5.452  2.9547  1.1495 -0.1876
  116MOL0     H15255   5.377   1.329   5.273  0.3885 -0.3509 -0.1638
  116MOL0     H15256   5.297   1.481   5.263 -2.1226  0.4495  2.3572
  116MOL0     H15257   5.431   1.574   5.424  0.6679 -0.3720 -2.6567
  116MOL0     H15258   5.528   1.466   5.340  1.0448  0.7627  1.5007
  116MOL0     H15259   5.474   1.292   5.531  1.6199 -0.2514  2.1716
  116MOL0     H15260   5.402   1.438   5.609 -0.3301 -0.9697  0.5236
  116MOL0     H15261   5.697   1.384   5.536  0.3704  0.7310  0.6904
  116MOL0     H15262   5.643   1.538   5.589  0.4551 -0.2070 -2.7617
  116MOL0     H15263   5.552   1.374   5.808  0.4645 -2.9616  0.0171
  116MOL0     H15264   5.723   1.391   5.785 -0.2384  0.4171 -1.2804
  116MOL0     H15265   5.500   1.092   5.857  0.1151 -3.3924  0.5235
  116MOL0     H15266   5.727   0.784   5.787 -1.3156 -0.7328 -0.6881
  116MOL0     H15267   5.557   0.836   5.838  0.0630  0.6176  1.5717
  116MOL0     H15268   5.658   0.907   6.051  1.5185 -0.4502  1.6704
  116MOL0     H15269   5.819   0.896   6.000 -0.5477  2.4328  0.1140
  116MOL0     H15270   5.643   0.643   5.996  1.1001 -1.5128  0.1788
  116MOL0     H15271   5.817   0.663   5.955  0.3307 -1.2695  1.2338
  116MOL0     H15272   5.737   0.578   6.196 -0.5640  0.5474  1.7594
  116MOL0     H15273   5.697   0.741   6.224 -1.1891 -0.4224 -1.7807
  116MOL0     H15274   6.103   0.728   6.318 -1.6994 -2.9456  3.1526
  116MOL0     H15275   6.314   0.581   6.300 -0.4408 -0.4661 -0.4777
  116MOL0     H15276   6.531   0.448   5.885 -0.3355 -0.3364 -0.0196
  116MOL0     H15277   6.747   0.516   5.782 -0.5550  1.0933 -0.4477
  116MOL0     H15278   7.108   0.560   6.047  2.0496 -1.4473 -0.1462
  116MOL0     H15279   7.162   0.521   5.886 -2.7674  1.1439 -2.6649
  116MOL0     H15280   7.108   0.318   5.882  0.1153  2.8603 -1.2733
  116MOL0     H15281   6.964   0.335   5.985 -0.0928 -0.8604 -0.0663
  116MOL0     H15282   7.257   0.369   6.114 -1.5392  2.2384  2.6125
  116MOL0     H15283   7.192   0.209   6.084 -0.6752  0.8844 -3.2404
  116MOL0     H15284   7.135   0.407   6.279  3.4272 -1.1337 -0.3086
  116MOL0     H15285   6.986   0.321   6.221  0.1506 -1.7782 -0.1727
  116MOL0     H15286   7.233   0.202   6.342  0.8574  3.5476 -2.1538
  116MOL0     H15287   7.095   0.104   6.286  1.6936  0.4804 -1.8816
  116MOL0     H15288   7.022   0.110   6.492  0.4205 -0.4321 -0.2755
  116MOL0     H15289   6.978   0.275   6.468 -0.1897  0.1578 -1.4691
  116MOL0     H15290   7.159   0.134   6.643 -0.5971  0.4940 -0.0513
  116MOL0     H15291   7.261   0.267   6.573  0.1095 -1.2723  1.7269
  116MOL0     H15292   7.077   0.434   6.653  4.4387  1.6385 -0.0219
  116MOL0     H15293   7.185   0.350   6.769 -0.4182 -0.0488  0.1993
  116MOL0     H15294   6.914   0.583   6.173  2.3772 -1.9361 -0.1297
  116MOL0     H15295   6.709   0.510   6.272 -1.4899 -0.8332 -0.8390
  116MOL0     H15296   6.106   0.347   6.000  2.0955  1.1038 -1.6475
  116MOL0     H15297   5.901   0.454   6.066  0.8085 -1.8118 -0.6065
  116MOL0     H15298   4.740   1.335   5.342 -1.3848 -0.9097  3.1179
  116MOL0     H15299   4.594   1.125   5.420 -0.5268  0.5466 -0.6447
  116MOL0     H15300   4.421   0.736   5.359  3.8696  1.9555 -1.8897
  116MOL0     H15301   4.298   0.511   5.393 -0.0214  1.5219  1.9552
  116MOL0     H15302   4.536   0.176   5.312  0.0901 -2.7430  0.2856
  116MOL0     H15303   4.395   0.250   5.241 -1.3649 -1.6414  0.8890
  116MOL0     H15304   4.358  -0.009   5.267 -0.3480  2.4741 -2.1760
  116MOL0     H15305   4.409  -0.003   5.437  1.0139 -4.5057 -2.9620
  116MOL0     H15306   4.163   0.168   5.355 -0.4996 -1.0392 -5.8697
  116MOL0     H15307   4.189   0.063   5.493  2.9326  0.5200  0.1904
  116MOL0     H15308   4.007  -0.042   5.383 -0.1757  0.0802 -0.7392
  116MOL0     H15309   4.112  -0.042   5.225  0.7198 -1.1505  0.6024
  116MOL0     H15310   4.229  -0.377   5.448  0.6638  0.7131  0.3351
  116MOL0     H15311   4.685   0.319   5.431  1.1584  0.6047 -2.0165
  116MOL0     H15312   4.790   0.523   5.412  0.0588 -2.4268  2.5675
  117MOL0     O15313   5.113   6.026   9.482  0.5002  0.4463 -0.6015
  117MOL0     C15314   5.195   5.965   9.548 -0.4735  0.0105 -0.2417
  117MOL0     O15315   5.303   5.892   9.498 -0.4261  0.0337  0.5453
  117MOL0     C15316   5.376   5.930   9.382 -0.2437  0.1578 -1.2502
  117MOL0     C15317   5.346   6.049   9.306 -0.1631  0.2236 -0.0609
  117MOL0     C15318   5.434   6.085   9.206  0.8097  0.0777 -0.2902
  117MOL0     C15319   5.550   6.008   9.167  1.7850 -0.1259  0.6598
  117MOL0     O15320   5.623   6.065   9.063  0.2346  0.9464 -0.0762
  117MOL0     C15321   5.755   6.006   9.029 -0.6134  0.6951  0.7988
  117MOL0     C15322   5.865   6.108   9.080  0.2555  0.1923 -0.5968
  117MOL0     C15323   5.898   6.115   9.229 -0.2535 -0.3301 -0.1079
  117MOL0     C15324   5.978   5.989   9.276 -0.3420 -0.7244 -0.3966
  117MOL0     C15325   6.046   6.011   9.414  0.1221 -0.2246  0.3118
  117MOL0     C15326   6.115   5.877   9.462  0.4615  0.5374 -0.9418
  117MOL0     C15327   6.012   5.774   9.517 -0.9996  0.5919  0.3711
  117MOL0     C15328   6.041   5.713   9.651  0.8265 -0.6015  0.2641
  117MOL0     N15329   6.160   5.638   9.654  0.2540  0.0933 -0.3859
  117MOL0     C15330   6.288   5.686   9.647  0.0019 -0.2744 -0.8017
  117MOL0     C15331   6.365   5.570   9.643 -0.1390 -0.5458 -0.2054
  117MOL0     C15332   6.509   5.574   9.668 -0.6722  0.1300  0.9811
  117MOL0     C15333   6.594   5.609   9.542  0.4746  0.1206  0.0467
  117MOL0     C15334   6.716   5.706   9.562  0.1959  0.4370  0.0189
  117MOL0     C15335   6.796   5.735   9.425 -0.4995  0.2563 -0.5585
  117MOL0     O15336   6.917   5.648   9.439  1.0224 -1.3745  0.4118
  117MOL0     C15337   6.998   5.638   9.333 -0.8146  0.1980  0.3788
  117MOL0     C15338   6.977   5.692   9.200 -0.5364  0.1319 -0.5792
  117MOL0     C15339   7.061   5.657   9.094  0.5898  0.3171 -1.0477
  117MOL0     C15340   7.186   5.597   9.118 -0.0495 -0.0049 -0.2544
  117MOL0     C15341   7.286   5.570   9.001 -0.2691  0.2585  0.1400
  117MOL0     O15342   7.374   5.469   9.022 -0.4615 -0.5979 -0.2323
  117MOL0     C15343   7.474   5.435   8.936  0.3114  0.1583  0.4735
  117MOL0     C15344   7.490   5.306   8.901 -0.3352  0.5935 -0.3987
  117MOL0     C15345   7.586   5.250   8.817  0.0975  0.9513  0.0101
  117MOL0     C15346   7.674   5.338   8.750  0.5096 -0.2929  0.1565
  117MOL0     O15347   7.782   5.273   8.680  0.3259 -0.4378 -0.1617
  117MOL0     C15348   7.860   5.348   8.586 -0.5863  0.3353 -0.6696
  117MOL0     C15349   7.895   5.286   8.449 -1.3647  0.0574 -1.4097
  117MOL0     C15350   8.007   5.173   8.448 -0.4666  0.5038  0.4562
  117MOL0     C15351   8.143   5.230   8.406  0.0312  0.0513  0.8066
  117MOL0     C15352   8.261   5.135   8.420  0.1196 -0.0246 -0.0088
  117MOL0     C15353   8.393   5.195   8.370  0.1798 -0.5820 -0.1035
  117MOL0     C15354   8.510   5.094   8.368  1.0968  0.1872 -0.5232
  117MOL0     C15355   8.627   5.143   8.290 -0.4758  0.1811 -0.7684
  117MOL0    Cl15356   8.707   5.011   8.179 -0.0434 -0.0707 -0.3183
  117MOL0     C15357   7.660   5.480   8.779 -0.0231 -0.5912 -0.2706
  117MOL0     C15358   7.567   5.528   8.878  0.2386 -0.2591  0.3924
  117MOL0     O15359   7.274   5.631   8.897 -0.2480 -0.6567  0.7729
  117MOL0     C15360   7.209   5.550   9.244 -0.4256 -0.4429  0.3796
  117MOL0     C15361   7.114   5.558   9.347 -1.0361 -0.2098 -0.0903
  117MOL0     N15362   6.276   5.461   9.634  0.2758 -0.3549  0.6574
  117MOL0     N15363   6.154   5.500   9.625  0.1681  0.6825  0.4902
  117MOL0     C15364   5.574   5.893   9.240  0.8442  0.9634  0.0414
  117MOL0     C15365   5.486   5.855   9.351  0.3214  0.3243  0.3207
  117MOL0     C15366   5.183   5.970   9.692  0.4364  0.1427 -0.1020
  117MOL0     C15367   5.268   5.898   9.775 -0.4635  0.3835  1.2472
  117MOL0     C15368   5.247   5.909   9.907 -0.3822 -0.5094 -1.4286
  117MOL0     C15369   5.161   6.000   9.972 -0.2503 -0.2240 -0.4028
  117MOL0     O15370   5.161   6.005  10.106  0.2052  0.1408 -1.1591
  117MOL0     C15371   5.111   6.130  10.163 -0.7362  0.1008 -0.1707
  117MOL0     C15372   5.091   6.100  10.317  0.2555 -0.4227  0.4242
  117MOL0     C15373   4.966   6.017  10.332  0.6824  0.0420 -0.3012
  117MOL0     C15374   4.858   6.076  10.426  0.9325  0.5237 -0.0024
  117MOL0     C15375   4.782   6.182  10.363 -0.0765 -0.0369  0.8660
  117MOL0     C15376   4.728   6.281  10.309  0.8135  0.4528  0.0295
  117MOL0     C15377   5.078   6.079   9.889 -0.6048  0.7745 -0.5344
  117MOL0     C15378   5.096   6.064   9.753  1.1770  0.1289 -0.4931
  117MOL0     H15379   5.282   6.134   9.330 -1.1352 -0.9135  1.5497
  117MOL0     H15380   5.412   6.176   9.151 -6.4788  0.2682  1.9062
  117MOL0     H15381   5.764   5.992   8.921  3.2623 -2.5848  1.3062
  117MOL0     H15382   5.772   5.909   9.076 -4.3444  0.0914  1.1866
  117MOL0     H15383   5.834   6.208   9.050 -2.4208 -0.5947 -0.7189
  117MOL0     H15384   5.957   6.099   9.022 -0.9167  2.5138 -3.0700
  117MOL0     H15385   5.803   6.134   9.279 -0.4780  2.4604 -1.3645
  117MOL0     H15386   5.949   6.212   9.239  0.4230 -0.7220  0.2457
  117MOL0     H15387   5.904   5.910   9.290  0.8222 -2.4906 -3.3612
  117MOL0     H15388   6.054   5.969   9.199 -1.0107  1.2599 -1.6533
  117MOL0     H15389   5.975   6.046   9.489 -0.1405 -0.6178  0.2535
  117MOL0     H15390   6.127   6.083   9.401  0.8919 -1.4609 -2.7634
  117MOL0     H15391   6.174   5.901   9.551 -0.5444  3.3814 -0.9348
  117MOL0     H15392   6.171   5.831   9.381 -0.8983 -1.5195 -0.8160
  117MOL0     H15393   5.917   5.828   9.519 -0.6022  1.4011  3.4401
  117MOL0     H15394   6.004   5.690   9.448 -1.3708 -0.2065  1.3591
  117MOL0     H15395   5.959   5.643   9.672 -0.1657  0.9592  1.9363
  117MOL0     H15396   6.032   5.793   9.725 -3.3682 -1.0012  0.4462
  117MOL0     H15397   6.316   5.791   9.657 -3.0187  0.5209  0.2387
  117MOL0     H15398   6.544   5.480   9.710 -0.4632  0.3154  1.2232
  117MOL0     H15399   6.525   5.646   9.748 -0.3016 -1.5235  2.4545
  117MOL0     H15400   6.530   5.658   9.468 -0.0272  0.8194  0.9226
  117MOL0     H15401   6.629   5.513   9.503  1.3063 -0.3762  1.9054
  117MOL0     H15402   6.672   5.801   9.594 -2.3578 -0.5820 -0.2095
  117MOL0     H15403   6.795   5.669   9.628  1.9620  0.8023 -1.7753
  117MOL0     H15404   6.831   5.839   9.428 -0.6186  0.2814  0.6633
  117MOL0     H15405   6.733   5.727   9.336 -3.2696 -0.0024  1.3060
  117MOL0     H15406   6.886   5.745   9.172 -1.2255 -0.3050  0.6953
  117MOL0     H15407   7.039   5.699   8.996  3.4549  1.5006 -1.2714
  117MOL0     H15408   7.424   5.236   8.951 -0.2811  0.2602 -0.7785
  117MOL0     H15409   7.607   5.145   8.800 -1.0721  1.0019 -2.1405
  117MOL0     H15410   7.947   5.389   8.639 -0.9808  1.4459 -0.8455
  117MOL0     H15411   7.803   5.436   8.555  2.1024  2.1619 -0.8319
  117MOL0     H15412   7.921   5.367   8.380  0.0472  1.5953  0.7987
  117MOL0     H15413   7.801   5.240   8.420 -1.6129 -0.5850  0.2789
  117MOL0     H15414   7.983   5.093   8.378  3.1531 -1.6164  1.3920
  117MOL0     H15415   8.016   5.134   8.550 -1.7488  2.4134  1.3666
  117MOL0     H15416   8.137   5.265   8.302 -2.0908 -0.1526  0.8230
  117MOL0     H15417   8.163   5.317   8.470  0.7129 -0.9519  1.9942
  117MOL0     H15418   8.239   5.045   8.362  2.5594 -0.1188 -0.9080
  117MOL0     H15419   8.270   5.110   8.526 -0.4447 -0.5987 -0.0902
  117MOL0     H15420   8.424   5.274   8.439 -3.9458  1.3056 -0.0853
  117MOL0     H15421   8.370   5.248   8.277 -2.8882  2.5025  2.1651
  117MOL0     H15422   8.544   5.063   8.467  1.3423  1.6080 -0.1335
  117MOL0     H15423   8.476   5.007   8.311  0.5869  0.9270 -1.3763
  117MOL0     H15424   8.699   5.184   8.361 -2.5158  0.9217  0.9568
  117MOL0     H15425   8.605   5.225   8.220  1.6508  0.4934 -1.1401
  117MOL0     H15426   7.733   5.549   8.737  0.4629 -1.5405 -1.0122
  117MOL0     H15427   7.569   5.631   8.914  0.5098 -1.6406  4.9813
  117MOL0     H15428   7.300   5.491   9.256 -0.9478 -1.7414 -1.6586
  117MOL0     H15429   7.140   5.529   9.448  1.5157 -0.2159 -0.6711
  117MOL0     H15430   5.662   5.834   9.216  0.8845 -2.1329  5.8853
  117MOL0     H15431   5.492   5.771   9.420 -1.3465  2.3596  3.1476
  117MOL0     H15432   5.339   5.823   9.742 -1.6277 -0.5717  0.8370
  117MOL0     H15433   5.321   5.860   9.970 -1.6114  1.1425  1.5056
  117MOL0     H15434   5.013   6.164  10.127 -1.1115 -1.2369 -0.4603
  117MOL0     H15435   5.180   6.215  10.168  0.8206 -1.1916  3.1791
  117MOL0     H15436   5.180   6.041  10.341  1.3991 -0.0849 -2.5174
  117MOL0     H15437   5.073   6.194  10.369 -2.6850  0.0282 -1.1915
  117MOL0     H15438   5.001   5.920  10.368  0.0979  0.8287  2.6519
  117MOL0     H15439   4.914   6.003  10.237  0.1988  3.0639 -0.5648
  117MOL0     H15440   4.777   6.007  10.449  2.1243 -0.4865  1.3430
  117MOL0     H15441   4.904   6.117  10.516 -0.0420  0.3676  0.5701
  117MOL0     H15442   4.673   6.365  10.270  1.6125  0.5451 -0.9125
  117MOL0     H15443   5.000   6.148   9.919  0.2390  2.7085 -2.4544
  117MOL0     H15444   5.031   6.113   9.680 -0.1771 -3.0768 -1.6225
  118MOL0     O15445   8.016   5.268   4.734  0.6034 -0.5841 -0.1907
  118MOL0     C15446   8.006   5.379   4.795  0.2378  0.3490 -1.0760
  118MOL0     O15447   7.903   5.466   4.792  0.7671 -0.8020  0.8820
  118MOL0     C15448   7.820   5.460   4.676 -0.1564 -0.0771  0.4604
  118MOL0     C15449   7.732   5.353   4.674 -0.3435 -0.5023  0.0240
  118MOL0     C15450   7.667   5.324   4.549  0.3739 -0.4971 -1.9845
  118MOL0     C15451   7.683   5.418   4.447  1.1078  0.4476 -0.6401
  118MOL0     O15452   7.609   5.399   4.339 -0.4184 -0.5188 -0.1050
  118MOL0     C15453   7.480   5.460   4.361 -1.0290  0.5231 -0.4157
  118MOL0     C15454   7.462   5.552   4.241 -0.1230 -0.2353  0.0430
  118MOL0     C15455   7.329   5.631   4.240  0.5650 -0.0401  1.0595
  118MOL0     C15456   7.322   5.729   4.110 -0.2036 -0.5710 -0.4303
  118MOL0     C15457   7.374   5.873   4.149 -1.0733 -0.6300  0.3747
  118MOL0     C15458   7.391   5.959   4.028 -0.0331  0.4065 -0.2507
  118MOL0     C15459   7.486   6.072   4.046 -0.5034  0.1117  0.1171
  118MOL0     C15460   7.425   6.173   4.140  0.3962 -0.5009 -0.4929
  118MOL0     N15461   7.314   6.244   4.069  0.0414 -0.7731  0.1539
  118MOL0     C15462   7.318   6.324   3.956  0.3822 -0.1123  0.5692
  118MOL0     C15463   7.191   6.374   3.946 -0.5880  0.0820  0.5640
  118MOL0     C15464   7.153   6.411   3.813 -0.3312 -0.2317 -0.5202
  118MOL0     C15465   7.015   6.491   3.792 -0.0970  0.7555 -0.4051
  118MOL0     C15466   7.003   6.621   3.878 -0.1210  0.5081 -0.3104
  118MOL0     C15467   6.889   6.619   3.972 -0.5821 -0.5563  0.7417
  118MOL0     O15468   6.888   6.753   4.017 -0.4839 -0.2263  0.3119
  118MOL0     C15469   6.791   6.806   4.085  0.4070 -0.2014 -0.3701
  118MOL0     C15470   6.692   6.729   4.147  0.7002  0.0511 -0.1100
  118MOL0     C15471   6.583   6.790   4.205 -0.3046  0.8451 -0.6776
  118MOL0     C15472   6.583   6.928   4.228  0.6436  0.5032 -0.6860
  118MOL0     C15473   6.478   6.994   4.295  0.4616  0.8934 -0.3848
  118MOL0     O15474   6.511   7.114   4.352  0.2693 -1.1492 -0.6854
  118MOL0     C15475   6.414   7.199   4.404  0.0021  0.6329 -0.2662
  118MOL0     C15476   6.288   7.221   4.345 -0.8469  0.0167 -0.4634
  118MOL0     C15477   6.200   7.308   4.406 -0.1909  0.1462  0.8359
  118MOL0     C15478   6.223   7.366   4.523 -0.1821 -0.0918  0.6717
  118MOL0     O15479   6.143   7.462   4.587  0.3136  0.6859  0.0013
  118MOL0     C15480   6.004   7.464   4.540 -1.2266  0.4246 -0.5098
  118MOL0     C15481   5.931   7.586   4.589  0.4071  0.2456  1.0210
  118MOL0     C15482   5.776   7.584   4.558  0.1386  0.5322  0.0277
  118MOL0     C15483   5.745   7.565   4.409  0.2347  0.4689 -0.1851
  118MOL0     C15484   5.602   7.613   4.389  0.2473 -0.8536  1.0139
  118MOL0     C15485   5.543   7.573   4.255 -0.4837 -0.6384 -0.8783
  118MOL0     C15486   5.532   7.423   4.217  0.0406 -0.6612  0.3169
  118MOL0     C15487   5.472   7.375   4.084 -0.6710 -0.8144  0.3775
  118MOL0    Cl15488   5.575   7.452   3.953 -0.2308  0.2496 -0.2331
  118MOL0     C15489   6.341   7.329   4.590 -0.5165  0.1080 -0.1465
  118MOL0     C15490   6.436   7.242   4.535  0.2907  0.4015  0.0275
  118MOL0     O15491   6.364   6.946   4.284  0.3761 -0.3704  0.3067
  118MOL0     C15492   6.676   7.005   4.154  0.1161  0.2894 -0.0115
  118MOL0     C15493   6.781   6.949   4.084 -0.0939 -0.5860  0.0318
  118MOL0     N15494   7.119   6.341   4.057  0.6604  0.2823 -0.8237
  118MOL0     N15495   7.190   6.268   4.127  0.3974  0.0002  0.0673
  118MOL0     C15496   7.760   5.537   4.456  0.5936  0.0766 -0.6719
  118MOL0     C15497   7.838   5.553   4.568 -0.1129 -0.1487 -0.0335
  118MOL0     C15498   8.127   5.415   4.871 -0.0483  0.2303 -0.2897
  118MOL0     C15499   8.115   5.513   4.973  0.1271  0.1268  0.1050
  118MOL0     C15500   8.230   5.541   5.052 -0.8287  0.8676  0.3134
  118MOL0     C15501   8.351   5.471   5.044  0.1735  0.4579 -0.3659
  118MOL0     O15502   8.455   5.488   5.132 -0.1750  0.5225 -0.2993
  118MOL0     C15503   8.444   5.553   5.260  0.3695 -0.2344  1.1250
  118MOL0     C15504   8.498   5.698   5.259  0.2616  0.0731  0.5228
  118MOL0     C15505   8.480   5.763   5.402  0.2743  0.5199  0.3259
  118MOL0     C15506   8.543   5.896   5.416 -0.3010 -0.0241 -0.2245
  118MOL0     C15507   8.545   5.948   5.552 -1.1426  0.5305 -1.1806
  118MOL0     C15508   8.562   5.998   5.667  0.3054 -0.3815 -0.0798
  118MOL0     C15509   8.351   5.363   4.953 -0.2491  0.8096  1.0110
  118MOL0     C15510   8.247   5.341   4.855 -0.1855 -0.0897 -0.5264
  118MOL0     H15511   7.735   5.265   4.737 -1.3422 -0.3118  0.3494
  118MOL0     H15512   7.599   5.240   4.552 -3.5562  2.4310 -1.4406
  118MOL0     H15513   7.468   5.503   4.461  3.8314  1.5589 -0.0464
  118MOL0     H15514   7.403   5.383   4.350  0.2635 -0.6233 -2.0394
  118MOL0     H15515   7.478   5.491   4.152 -0.6351 -0.7591  0.3017
  118MOL0     H15516   7.548   5.620   4.244  1.2938 -1.8384  4.3010
  118MOL0     H15517   7.309   5.681   4.335 -0.5313  2.1881 -0.2826
  118MOL0     H15518   7.259   5.548   4.222  1.8611 -0.6000 -2.1539
  118MOL0     H15519   7.375   5.680   4.028 -0.5931 -2.4989  0.4152
  118MOL0     H15520   7.217   5.741   4.083 -0.5750 -0.1344  1.1103
  118MOL0     H15521   7.469   5.862   4.203 -1.6721 -3.5965  1.0212
  118MOL0     H15522   7.311   5.930   4.218 -0.3173 -1.2486  1.6227
  118MOL0     H15523   7.289   5.992   4.005 -0.9125  1.9845  4.6662
  118MOL0     H15524   7.440   5.901   3.949 -1.2582  1.7811 -2.0948
  118MOL0     H15525   7.580   6.028   4.081 -1.7553 -3.7851 -0.9129
  118MOL0     H15526   7.511   6.113   3.948 -1.1546  0.0392 -0.0850
  118MOL0     H15527   7.496   6.252   4.166  0.6679 -1.4624  1.9598
  118MOL0     H15528   7.385   6.122   4.228 -0.6598 -1.2982 -1.4010
  118MOL0     H15529   7.392   6.337   3.877 -0.6460 -1.3882 -0.6641
  118MOL0     H15530   7.144   6.316   3.760 -1.2839  0.2139 -1.1915
  118MOL0     H15531   7.222   6.465   3.748  0.2116 -0.0757  0.1707
  118MOL0     H15532   6.939   6.421   3.828  1.3159 -0.7376 -0.2104
  118MOL0     H15533   6.998   6.495   3.684 -1.8762  1.4759 -0.1302
  118MOL0     H15534   7.092   6.644   3.937 -0.5154 -0.1501  0.5597
  118MOL0     H15535   7.000   6.701   3.804 -1.1133  1.4434  0.7055
  118MOL0     H15536   6.890   6.552   4.059 -2.0048  0.8396  1.9084
  118MOL0     H15537   6.809   6.598   3.900  2.3105 -2.0557 -2.2941
  118MOL0     H15538   6.685   6.621   4.143 -1.5571  0.1447 -0.1925
  118MOL0     H15539   6.509   6.722   4.246 -1.6618  0.9004 -2.8814
  118MOL0     H15540   6.269   7.168   4.252  3.0441  1.0737 -2.0858
  118MOL0     H15541   6.101   7.308   4.362  0.8526 -1.1619 -1.7223
  118MOL0     H15542   5.954   7.375   4.579  0.5066  0.3422  1.7993
  118MOL0     H15543   6.005   7.468   4.431  0.3841  1.0566 -0.5132
  118MOL0     H15544   5.969   7.679   4.547 -0.3637 -0.1427 -0.6104
  118MOL0     H15545   5.950   7.592   4.696 -1.8489  3.1182  1.3820
  118MOL0     H15546   5.739   7.679   4.598 -0.7359  0.5311 -0.7389
  118MOL0     H15547   5.732   7.504   4.619 -2.0853  0.9752 -0.9004
  118MOL0     H15548   5.809   7.620   4.340 -2.0802  0.4813 -2.5084
  118MOL0     H15549   5.766   7.458   4.398  1.9416  0.5629  1.5975
  118MOL0     H15550   5.610   7.721   4.406  0.7426 -0.6596 -0.3700
  118MOL0     H15551   5.540   7.565   4.465 -0.3656 -1.2639  0.2720
  118MOL0     H15552   5.621   7.609   4.187  1.1459 -1.2629  0.6067
  118MOL0     H15553   5.452   7.631   4.236  1.7392  3.3421 -0.5774
  118MOL0     H15554   5.627   7.370   4.219  0.5515  0.2419  1.3393
  118MOL0     H15555   5.464   7.384   4.293 -1.0531  4.7086  2.6147
  118MOL0     H15556   5.373   7.421   4.078 -1.1028 -1.4642  2.1088
  118MOL0     H15557   5.471   7.267   4.068 -1.9203 -0.5425 -1.9375
  118MOL0     H15558   6.368   7.388   4.677  1.2327 -1.5435  0.5024
  118MOL0     H15559   6.528   7.224   4.588 -0.1949 -3.0601 -0.0966
  118MOL0     H15560   6.670   7.114   4.161 -2.5697  0.1943 -0.0897
  118MOL0     H15561   6.857   7.007   4.032 -0.4562  0.4357  0.6164
  118MOL0     H15562   7.766   5.613   4.379  0.3823  1.7390  0.8814
  118MOL0     H15563   7.897   5.644   4.573 -1.9101  1.0173  1.0852
  118MOL0     H15564   8.021   5.565   4.988 -0.2635 -0.9708  1.7172
  118MOL0     H15565   8.209   5.614   5.129 -1.1932  1.0234  0.0704
  118MOL0     H15566   8.500   5.494   5.334 -1.1273 -1.9521  0.9723
  118MOL0     H15567   8.340   5.561   5.292 -0.0227  0.3871 -0.2452
  118MOL0     H15568   8.603   5.691   5.232  0.3123 -3.3826  1.1409
  118MOL0     H15569   8.447   5.754   5.180 -0.2103 -0.9941  0.0467
  118MOL0     H15570   8.526   5.696   5.476 -1.6499  1.3367  2.3769
  118MOL0     H15571   8.375   5.771   5.432  0.7009  3.6346  1.3135
  118MOL0     H15572   8.650   5.900   5.392  0.4322 -1.0134  2.4946
  118MOL0     H15573   8.499   5.967   5.346  3.0521 -0.0069 -2.6190
  118MOL0     H15574   8.575   6.043   5.764  3.1224 -0.0165 -0.5515
  118MOL0     H15575   8.427   5.286   4.945 -1.9966 -0.8931 -0.0750
  118MOL0     H15576   8.264   5.258   4.786  2.4739 -0.4900  0.4750
  119MOL0     O15577   3.164   3.918   0.288 -0.1040 -0.2176 -0.0782
  119MOL0     C15578   3.271   3.954   0.329 -0.7937 -0.1049  0.3067
  119MOL0     O15579   3.303   4.083   0.360  0.5050 -1.0881  0.4646
  119MOL0     C15580   3.192   4.171   0.365 -0.2197  0.1284 -0.3811
  119MOL0     C15581   3.055   4.142   0.388  1.0472  0.9847 -0.3825
  119MOL0     C15582   2.958   4.239   0.380  0.0598 -0.1900 -0.7528
  119MOL0     C15583   2.995   4.376   0.357  0.2107  1.2791  0.2022
  119MOL0     O15584   2.898   4.470   0.345 -0.4314 -0.1875 -0.3697
  119MOL0     C15585   2.775   4.433   0.274 -0.1921 -0.8420 -0.7972
  119MOL0     C15586   2.678   4.547   0.298 -0.5157  0.7835  0.4001
  119MOL0     C15587   2.726   4.670   0.223  0.6734 -0.5043 -0.2346
  119MOL0     C15588   2.630   4.779   0.252  0.7135 -0.0691 -0.2376
  119MOL0     C15589   2.689   4.912   0.201 -0.3511 -0.0049 -0.6859
  119MOL0     C15590   2.598   5.036   0.225 -0.0027  0.3355  0.2098
  119MOL0     C15591   2.649   5.161   0.149  0.3018 -0.1359 -0.1547
  119MOL0     C15592   2.573   5.291   0.191  0.4721 -0.4068 -1.1699
  119MOL0     N15593   2.638   5.408   0.139  0.3896  0.8436  0.4394
  119MOL0     C15594   2.773   5.430   0.156  0.0007  0.1804 -0.4469
  119MOL0     C15595   2.804   5.534   0.086 -0.9679 -0.0662  0.9350
  119MOL0     C15596   2.939   5.605   0.097 -0.7747  0.2365  0.3535
  119MOL0     C15597   2.962   5.664   0.236  0.8732 -0.3151 -0.0090
  119MOL0     C15598   2.888   5.797   0.263 -0.0497 -0.6079 -0.0542
  119MOL0     C15599   2.908   5.851   0.404  0.2480 -0.1377 -0.2030
  119MOL0     O15600   2.831   5.970   0.408 -0.0785  0.0899 -0.6172
  119MOL0     C15601   2.840   6.033   0.531 -0.4778 -0.2304  0.5196
  119MOL0     C15602   2.932   6.015   0.631 -0.3652 -0.1567 -0.5479
  119MOL0     C15603   2.932   6.109   0.739 -0.2025 -0.6456 -1.2974
  119MOL0     C15604   2.849   6.228   0.728 -0.4862  0.5928  0.3691
  119MOL0     C15605   2.873   6.342   0.817  0.3205  0.2316 -0.5986
  119MOL0     O15606   2.949   6.313   0.924 -0.0092 -0.8370  0.5775
  119MOL0     C15607   2.970   6.389   1.032 -0.3412  0.4110  0.7128
  119MOL0     C15608   2.876   6.485   1.072  0.3222 -0.0395 -1.2282
  119MOL0     C15609   2.889   6.553   1.195 -0.5703 -0.0302 -0.7226
  119MOL0     C15610   2.993   6.523   1.289 -0.8183 -0.6385  1.3584
  119MOL0     O15611   3.028   6.589   1.406  0.2795  0.1495 -0.3024
  119MOL0     C15612   2.918   6.631   1.493 -0.9156  0.6578  0.1535
  119MOL0     C15613   2.987   6.650   1.632  0.2728 -0.5868 -0.6754
  119MOL0     C15614   3.085   6.767   1.636 -0.7216 -0.4025  0.8036
  119MOL0     C15615   3.021   6.903   1.619 -0.6147 -0.6669  0.7170
  119MOL0     C15616   2.897   6.932   1.710  0.0088  1.3198 -0.5116
  119MOL0     C15617   2.856   7.071   1.679  0.4742  0.0282 -0.6543
  119MOL0     C15618   2.744   7.120   1.762  0.0462  0.1894 -0.5691
  119MOL0     C15619   2.751   7.274   1.777  0.0187  0.2195  0.1850
  119MOL0    Cl15620   2.879   7.308   1.902  0.0167 -0.2615 -0.4766
  119MOL0     C15621   3.095   6.438   1.242 -0.3655 -0.3127  0.4529
  119MOL0     C15622   3.086   6.369   1.114 -0.5754  0.4148  1.0104
  119MOL0     O15623   2.805   6.442   0.796  0.6075 -0.8887 -0.5680
  119MOL0     C15624   2.746   6.238   0.626 -1.4302  1.1130 -0.6962
  119MOL0     C15625   2.745   6.139   0.535 -0.6434  0.0235 -0.2118
  119MOL0     N15626   2.694   5.587   0.032  0.7223 -0.0581  0.7743
  119MOL0     N15627   2.591   5.509   0.060 -0.1083  0.4469  0.3888
  119MOL0     C15628   3.133   4.402   0.333  0.1250  0.4879 -0.2002
  119MOL0     C15629   3.234   4.302   0.329  0.3052 -0.5930  0.7802
  119MOL0     C15630   3.379   3.859   0.333  0.2644 -0.3210 -0.7276
  119MOL0     C15631   3.362   3.721   0.305  0.2232  0.3154 -0.1358
  119MOL0     C15632   3.474   3.632   0.316  0.5585 -0.7023  0.2792
  119MOL0     C15633   3.608   3.684   0.316 -0.3121 -0.1194 -0.2755
  119MOL0     O15634   3.723   3.606   0.300  0.1565  0.1867  0.3390
  119MOL0     C15635   3.695   3.485   0.238 -0.0825 -0.3782 -1.1884
  119MOL0     C15636   3.822   3.414   0.213 -0.5655  0.5495  0.0454
  119MOL0     C15637   3.802   3.264   0.168  0.4919  0.4639 -0.0647
  119MOL0     C15638   3.688   3.242   0.066  0.3734 -0.5868  0.0385
  119MOL0     C15639   3.681   3.109   0.002 -0.6561 -0.3284 -0.4109
  119MOL0     C15640   3.668   3.006  -0.057 -0.0209  0.3872 -0.8269
  119MOL0     C15641   3.623   3.824   0.326  0.2929 -0.3161  0.5951
  119MOL0     C15642   3.517   3.906   0.343 -0.0688 -0.8269  0.1818
  119MOL0     H15643   3.028   4.043   0.421 -0.4454  1.7538  0.8365
  119MOL0     H15644   2.857   4.211   0.409 -0.6674  1.2220 -1.7948
  119MOL0     H15645   2.725   4.349   0.322 -2.7795  0.8809 -0.2784
  119MOL0     H15646   2.789   4.416   0.167 -1.2226  0.2910 -1.1358
  119MOL0     H15647   2.659   4.585   0.398 -1.0436  2.9753 -0.4552
  119MOL0     H15648   2.579   4.512   0.269 -0.0732 -1.6042  1.5664
  119MOL0     H15649   2.735   4.653   0.115 -0.5447  0.7290 -0.5489
  119MOL0     H15650   2.824   4.705   0.258 -0.7923  0.6371  3.1088
  119MOL0     H15651   2.537   4.762   0.196 -1.5094  3.6689  1.9059
  119MOL0     H15652   2.609   4.776   0.360  0.2725 -3.7783 -0.2711
  119MOL0     H15653   2.712   4.895   0.095 -1.0415 -1.6780 -0.5966
  119MOL0     H15654   2.784   4.923   0.254 -1.2883  3.6802  0.5811
  119MOL0     H15655   2.591   5.045   0.334  1.3697  1.8610  0.2296
  119MOL0     H15656   2.494   5.028   0.194 -0.7526  3.4622  1.5307
  119MOL0     H15657   2.758   5.172   0.151  0.2639  0.2185  0.2225
  119MOL0     H15658   2.628   5.157   0.041  1.5692  1.5837 -0.5190
  119MOL0     H15659   2.584   5.303   0.299  1.1069  0.9558 -1.3669
  119MOL0     H15660   2.471   5.305   0.152 -0.0049 -1.3672 -0.3053
  119MOL0     H15661   2.847   5.365   0.202 -2.3483  0.0595  3.5825
  119MOL0     H15662   2.950   5.687   0.026 -1.2863 -0.5568 -0.6793
  119MOL0     H15663   3.019   5.535   0.070 -0.9765  0.3134 -0.4752
  119MOL0     H15664   3.071   5.670   0.246  1.3368 -2.3126 -2.6899
  119MOL0     H15665   2.909   5.588   0.294 -1.1761 -0.3549 -1.7943
  119MOL0     H15666   2.928   5.873   0.196 -2.0828 -0.7635 -1.5345
  119MOL0     H15667   2.783   5.779   0.237 -0.2238 -0.9163  0.8156
  119MOL0     H15668   3.010   5.888   0.416 -0.2765  1.4368 -0.4250
  119MOL0     H15669   2.888   5.781   0.486 -0.9101  3.6057  3.0443
  119MOL0     H15670   3.007   5.938   0.642  0.6346  0.8577 -0.0708
  119MOL0     H15671   3.012   6.103   0.812 -2.4894 -1.8992  1.2620
  119MOL0     H15672   2.790   6.517   1.014 -0.1393  1.5958  0.2642
  119MOL0     H15673   2.833   6.645   1.205 -0.9957  0.0261 -3.0829
  119MOL0     H15674   2.837   6.558   1.495 -0.0903 -0.3340 -1.1831
  119MOL0     H15675   2.876   6.726   1.457 -3.3046 -1.1001 -2.0924
  119MOL0     H15676   3.052   6.565   1.652 -1.2474 -1.3833  1.1786
  119MOL0     H15677   2.910   6.671   1.707 -1.4244  4.0956 -3.3235
  119MOL0     H15678   3.157   6.752   1.555 -0.8926 -2.8565  1.0391
  119MOL0     H15679   3.147   6.773   1.725 -1.1567  1.2657  1.0310
  119MOL0     H15680   3.097   6.981   1.633 -0.3054 -0.6631 -0.8524
  119MOL0     H15681   2.985   6.911   1.516 -0.6825 -2.7700  0.5484
  119MOL0     H15682   2.931   6.932   1.814  1.7695  0.0993 -1.0346
  119MOL0     H15683   2.817   6.859   1.698  2.0611 -1.8553  2.8716
  119MOL0     H15684   2.821   7.080   1.575 -1.9935 -2.9035 -0.2062
  119MOL0     H15685   2.946   7.131   1.699 -0.7949  1.4866  0.9173
  119MOL0     H15686   2.646   7.093   1.722 -1.0188  0.9250  1.4183
  119MOL0     H15687   2.741   7.070   1.859  1.1146 -0.4167 -0.8374
  119MOL0     H15688   2.653   7.307   1.810 -0.8951 -1.2464 -0.9286
  119MOL0     H15689   2.774   7.321   1.681  0.1539  0.5336  0.3720
  119MOL0     H15690   3.183   6.424   1.304 -0.7119  0.8926  1.2724
  119MOL0     H15691   3.165   6.301   1.085  0.7525  2.4223 -0.3607
  119MOL0     H15692   2.680   6.324   0.624 -0.0578  2.2057 -1.1871
  119MOL0     H15693   2.669   6.146   0.458  1.1834 -1.3422 -2.2613
  119MOL0     H15694   3.160   4.507   0.329 -0.8025  0.7225 -0.6317
  119MOL0     H15695   3.338   4.322   0.306 -0.5226  1.3396 -1.8382
  119MOL0     H15696   3.258   3.689   0.306  0.0876  0.7175 -0.9015
  119MOL0     H15697   3.456   3.525   0.310  0.0609 -0.8025  2.5825
  119MOL0     H15698   3.648   3.497   0.140  2.1339  1.1779 -2.1710
  119MOL0     H15699   3.626   3.428   0.301 -0.7648  2.8160  1.2144
  119MOL0     H15700   3.884   3.468   0.142  0.8173  0.6898  1.3170
  119MOL0     H15701   3.890   3.422   0.298 -0.5728  2.0324 -0.0608
  119MOL0     H15702   3.796   3.194   0.251  1.5592 -0.0618 -0.4107
  119MOL0     H15703   3.889   3.233   0.109  0.0504 -1.4724  0.2496
  119MOL0     H15704   3.595   3.253   0.124  0.7168 -2.9806  1.1610
  119MOL0     H15705   3.690   3.300  -0.027  3.8900 -3.7615 -2.1905
  119MOL0     H15706   3.653   2.926  -0.127  2.8442 -0.6223 -0.4141
  119MOL0     H15707   3.727   3.856   0.322  0.0198  0.4874 -0.2764
  119MOL0     H15708   3.537   4.013   0.347  3.0272 -1.2865 -0.2204
  120MOL0     O15709   7.725   3.098   1.805  0.4719 -0.4946 -0.0560
  120MOL0     C15710   7.631   3.047   1.859  0.9085 -0.3153 -0.1932
  120MOL0     O15711   7.540   2.964   1.801 -0.1134 -1.2077 -0.6736
  120MOL0     C15712   7.556   2.928   1.678  0.3232 -0.2030  1.6326
  120MOL0     C15713   7.675   2.903   1.612 -1.1470  0.2255 -0.1392
  120MOL0     C15714   7.673   2.873   1.480 -0.0434 -0.2972 -0.2949
  120MOL0     C15715   7.555   2.862   1.404  0.1952  0.7980 -0.8092
  120MOL0     O15716   7.551   2.837   1.265 -0.6100 -0.4872  0.4689
  120MOL0     C15717   7.674   2.796   1.199  0.6586  0.3508  0.9121
  120MOL0     C15718   7.741   2.927   1.151 -0.7743  0.6860  0.7794
  120MOL0     C15719   7.674   3.000   1.026 -0.7009  0.2927 -0.5935
  120MOL0     C15720   7.738   3.127   0.993  0.1120  0.7881 -0.3172
  120MOL0     C15721   7.641   3.222   0.906 -0.9096 -0.1519  0.0807
  120MOL0     C15722   7.655   3.203   0.753 -0.4444 -0.0245  0.8267
  120MOL0     C15723   7.548   3.284   0.685  0.3024  0.4996  0.7812
  120MOL0     C15724   7.552   3.440   0.719 -0.1010  1.0250 -0.0869
  120MOL0     N15725   7.415   3.492   0.737  0.5671  0.2811  0.8621
  120MOL0     C15726   7.338   3.460   0.848  0.3087 -0.7935  0.2843
  120MOL0     C15727   7.240   3.555   0.846  0.0059  0.0090  0.3167
  120MOL0     C15728   7.138   3.586   0.948  0.8989  0.0840 -0.5563
  120MOL0     C15729   6.996   3.540   0.904 -0.5291 -0.3808  0.0207
  120MOL0     C15730   6.910   3.654   0.851  0.5816  0.5661 -0.3936
  120MOL0     C15731   6.785   3.598   0.769 -0.4519  0.1968  0.1981
  120MOL0     O15732   6.730   3.479   0.826 -0.1862 -0.1468 -0.6278
  120MOL0     C15733   6.644   3.392   0.765 -0.3706 -0.1906 -0.2989
  120MOL0     C15734   6.609   3.282   0.829  0.3779  0.0702  0.2297
  120MOL0     C15735   6.546   3.172   0.774 -1.5862  0.4153  0.2502
  120MOL0     C15736   6.501   3.177   0.646 -0.0524  0.6187 -0.1042
  120MOL0     C15737   6.439   3.065   0.583 -0.2484  0.8709  0.8532
  120MOL0     O15738   6.392   3.078   0.458 -1.2550  0.3496  0.2599
  120MOL0     C15739   6.332   2.967   0.423  0.8204 -0.8827  0.2251
  120MOL0     C15740   6.196   2.939   0.454  1.1347 -0.1521  0.4777
  120MOL0     C15741   6.122   2.833   0.399 -0.8660  0.0767  0.4108
  120MOL0     C15742   6.199   2.743   0.321 -0.3787  0.7120 -0.2691
  120MOL0     O15743   6.139   2.630   0.270  0.6418  0.1999  0.8908
  120MOL0     C15744   6.218   2.523   0.206 -1.1110 -0.5036  0.6743
  120MOL0     C15745   6.139   2.400   0.183  0.5775  0.5509 -0.1878
  120MOL0     C15746   6.018   2.427   0.093  0.2682 -1.4879  1.0102
  120MOL0     C15747   5.894   2.357   0.138 -0.4481 -0.7595 -0.2307
  120MOL0     C15748   5.849   2.429   0.273 -1.0459  0.2800 -0.2032
  120MOL0     C15749   5.736   2.351   0.347 -0.8729 -0.0465  0.1320
  120MOL0     C15750   5.711   2.391   0.490  0.4996  0.0336  0.3844
  120MOL0     C15751   5.746   2.539   0.514  0.4626 -0.4511  0.4159
  120MOL0    Cl15752   5.646   2.632   0.402  0.2006 -0.3341 -0.1269
  120MOL0     C15753   6.327   2.779   0.282  0.9537  0.1535  1.0487
  120MOL0     C15754   6.396   2.886   0.330 -0.1126  0.7115  1.0520
  120MOL0     O15755   6.420   2.963   0.652  0.1885 -0.6176  0.1232
  120MOL0     C15756   6.506   3.306   0.587  0.4630  0.8969  0.0319
  120MOL0     C15757   6.578   3.415   0.644 -0.4806 -0.0034 -0.0298
  120MOL0     N15758   7.260   3.637   0.739 -0.1735 -0.2720  0.2472
  120MOL0     N15759   7.365   3.597   0.667  0.3762 -0.1230 -0.1639
  120MOL0     C15760   7.430   2.877   1.475  0.1096 -0.6822 -0.6465
  120MOL0     C15761   7.433   2.911   1.611  0.3580  0.2369 -0.7832
  120MOL0     C15762   7.627   3.087   2.005  0.6757  0.2750  0.0350
  120MOL0     C15763   7.673   3.219   2.043  0.1313 -0.0575  0.1833
  120MOL0     C15764   7.649   3.262   2.166  0.8064 -0.4055 -1.2291
  120MOL0     C15765   7.583   3.182   2.259 -0.1090 -0.2639 -0.1617
  120MOL0     O15766   7.575   3.226   2.391 -0.1213  0.1556  0.1784
  120MOL0     C15767   7.550   3.127   2.487  0.0614 -0.1097 -1.0573
  120MOL0     C15768   7.654   3.156   2.591  0.4073 -0.9296 -0.0292
  120MOL0     C15769   7.642   3.070   2.716 -0.4503 -0.2010  0.2915
  120MOL0     C15770   7.674   2.916   2.678 -0.3837  0.4093 -0.3211
  120MOL0     C15771   7.694   2.838   2.796  0.2185  0.1180  0.3699
  120MOL0     C15772   7.676   2.766   2.892 -0.0018 -0.1971  0.1570
  120MOL0     C15773   7.530   3.057   2.225  0.1400  0.5280  0.1679
  120MOL0     C15774   7.558   3.006   2.099 -0.0825  0.0577 -0.2027
  120MOL0     H15775   7.771   2.926   1.657 -0.9256  0.5388 -0.7430
  120MOL0     H15776   7.772   2.857   1.437 -0.4440 -0.3091 -1.2444
  120MOL0     H15777   7.650   2.740   1.109 -0.8695  1.4305  0.6173
  120MOL0     H15778   7.739   2.731   1.259  0.8032  0.5919  1.0201
  120MOL0     H15779   7.848   2.915   1.133 -0.9024 -0.5982  0.7509
  120MOL0     H15780   7.737   3.006   1.226  0.0044  0.5156  1.0141
  120MOL0     H15781   7.575   3.019   1.066 -0.3745 -0.5222  0.6691
  120MOL0     H15782   7.661   2.943   0.933 -1.7964 -2.2093  0.9833
  120MOL0     H15783   7.778   3.170   1.086 -1.5153  1.4597  0.1090
  120MOL0     H15784   7.819   3.096   0.926 -0.2752 -2.8776  0.7167
  120MOL0     H15785   7.657   3.325   0.939  2.4322 -0.2025 -0.9899
  120MOL0     H15786   7.539   3.206   0.941 -0.7377  0.4743  0.9114
  120MOL0     H15787   7.644   3.104   0.707 -0.1494  2.1993 -4.9782
  120MOL0     H15788   7.752   3.234   0.712 -0.1209 -0.5317  1.2014
  120MOL0     H15789   7.548   3.278   0.576  1.1855  0.8352  0.7570
  120MOL0     H15790   7.453   3.247   0.724 -0.4845  1.6261 -0.0057
  120MOL0     H15791   7.594   3.496   0.634  1.4337  2.9534  1.8371
  120MOL0     H15792   7.605   3.470   0.809  1.5492 -0.1222 -0.6273
  120MOL0     H15793   7.358   3.409   0.942  0.2062  1.1143  1.4061
  120MOL0     H15794   7.133   3.691   0.978 -0.0397  0.2646 -1.2912
  120MOL0     H15795   7.163   3.525   1.035 -1.8076  1.1280  1.1150
  120MOL0     H15796   6.962   3.508   1.003 -0.2186 -2.9719 -0.6488
  120MOL0     H15797   7.002   3.462   0.828 -0.5775  2.2249 -2.8821
  120MOL0     H15798   6.876   3.717   0.934  0.2888  1.6294 -1.2820
  120MOL0     H15799   6.969   3.725   0.792  0.0107  3.3712  2.1523
  120MOL0     H15800   6.796   3.578   0.662 -0.6858 -1.0250  0.3863
  120MOL0     H15801   6.732   3.692   0.789  2.5333  1.5002  2.8909
  120MOL0     H15802   6.642   3.281   0.932  0.3845  2.1818  0.2973
  120MOL0     H15803   6.529   3.102   0.855  2.1715  1.0096  1.7319
  120MOL0     H15804   6.155   3.020   0.513  3.7014  0.8912  0.9313
  120MOL0     H15805   6.018   2.815   0.424 -0.4050  0.1116  2.5662
  120MOL0     H15806   6.310   2.497   0.260 -0.7285  0.2245  0.3833
  120MOL0     H15807   6.250   2.557   0.107  0.7578 -0.8981  1.0919
  120MOL0     H15808   6.109   2.350   0.275 -2.9001 -1.2218 -2.0817
  120MOL0     H15809   6.186   2.317   0.129 -0.2479 -1.5380  2.1142
  120MOL0     H15810   6.046   2.394  -0.008  3.6486 -0.2152  1.4023
  120MOL0     H15811   6.001   2.534   0.080 -1.0222 -1.7816  0.0261
  120MOL0     H15812   5.816   2.369   0.062 -1.1060 -0.2758  0.4980
  120MOL0     H15813   5.913   2.250   0.148 -0.6974 -0.8721 -0.9831
  120MOL0     H15814   5.811   2.528   0.248 -0.9644  0.7777  1.5806
  120MOL0     H15815   5.937   2.432   0.338 -1.8063 -5.4483  1.6249
  120MOL0     H15816   5.764   2.245   0.351 -2.1303 -0.4092 -0.1696
  120MOL0     H15817   5.651   2.357   0.279 -2.3252 -1.8815  1.6835
  120MOL0     H15818   5.609   2.364   0.516  0.1940 -0.4239 -1.1467
  120MOL0     H15819   5.786   2.341   0.551 -0.2064  0.8429  1.9622
  120MOL0     H15820   5.852   2.564   0.501  0.4023  0.6498  1.7581
  120MOL0     H15821   5.733   2.557   0.622  1.7033  1.8319  0.2504
  120MOL0     H15822   6.390   2.730   0.209 -2.5518  0.9568 -2.8989
  120MOL0     H15823   6.494   2.919   0.295 -0.7006  1.9711  0.5198
  120MOL0     H15824   6.464   3.323   0.488 -0.9336  0.8431  0.6062
  120MOL0     H15825   6.583   3.513   0.598 -3.5637  1.1066  1.6853
  120MOL0     H15826   7.347   2.863   1.407  1.1549 -0.6510 -1.9649
  120MOL0     H15827   7.341   2.925   1.666  1.4716  2.7871  0.6320
  120MOL0     H15828   7.727   3.279   1.971 -3.8082 -0.6916 -3.7092
  120MOL0     H15829   7.688   3.354   2.207  0.9092 -2.3346  3.7014
  120MOL0     H15830   7.554   3.021   2.461  1.7484 -0.4003  0.2106
  120MOL0     H15831   7.446   3.137   2.520  0.3395  0.6957 -0.3686
  120MOL0     H15832   7.757   3.134   2.561 -0.1723 -1.4641 -1.7882
  120MOL0     H15833   7.641   3.260   2.623 -1.1898 -1.5686  1.5529
  120MOL0     H15834   7.539   3.084   2.748  0.0637  3.3455  0.8700
  120MOL0     H15835   7.702   3.119   2.794 -3.0874  0.9356  1.7435
  120MOL0     H15836   7.595   2.872   2.617  1.3755 -1.3849 -1.4651
  120MOL0     H15837   7.767   2.906   2.621 -0.2913 -0.6369 -0.0172
  120MOL0     H15838   7.649   2.700   2.971 -0.6729  0.7754  0.7526
  120MOL0     H15839   7.456   3.005   2.285  1.0291 -1.2356 -0.1831
  120MOL0     H15840   7.509   2.915   2.066  0.3595 -1.0605  1.9997
  121MOL0     O15841   2.438   6.649   9.282 -0.0432  0.9858 -0.8074
  121MOL0     C15842   2.387   6.720   9.197 -0.9555 -0.8781  0.3346
  121MOL0     O15843   2.450   6.825   9.142 -0.4823  0.1777 -0.2863
  121MOL0     C15844   2.570   6.865   9.187 -0.2498 -0.1147 -0.0214
  121MOL0     C15845   2.689   6.796   9.154 -0.0552 -0.1839 -1.1470
  121MOL0     C15846   2.815   6.830   9.207  0.0957  0.7972  0.0887
  121MOL0     C15847   2.826   6.950   9.277  0.1440  0.7139 -0.3318
  121MOL0     O15848   2.961   6.978   9.321  0.3684  0.3417 -0.1919
  121MOL0     C15849   3.004   7.109   9.356  0.0978 -0.1770  0.3553
  121MOL0     C15850   3.065   7.097   9.499 -0.3348 -0.4995 -0.0266
  121MOL0     C15851   3.114   7.226   9.559 -0.7740 -0.1661  0.6957
  121MOL0     C15852   3.238   7.280   9.484  0.6587 -0.4707  0.5605
  121MOL0     C15853   3.260   7.434   9.514  0.5245 -0.0947 -0.5176
  121MOL0     C15854   3.251   7.470   9.669  0.6983  0.0296  0.2749
  121MOL0     C15855   3.289   7.614   9.678  0.2955  0.0497 -0.1103
  121MOL0     C15856   3.258   7.675   9.814  0.2188  0.3219 -0.5949
  121MOL0     N15857   3.301   7.582   9.924  0.3132 -0.1476 -0.7382
  121MOL0     C15858   3.213   7.527  10.008  0.0562 -0.5992  0.5736
  121MOL0     C15859   3.289   7.461  10.095  0.7241  0.0474  1.0760
  121MOL0     C15860   3.254   7.388  10.219 -0.7435 -0.2005 -0.1786
  121MOL0     C15861   3.212   7.474  10.329 -0.2237  0.4706 -1.0881
  121MOL0     C15862   3.164   7.400  10.449 -0.1399  0.2134 -1.1604
  121MOL0     C15863   3.100   7.492  10.558  0.5716  1.5616  1.0963
  121MOL0     O15864   2.968   7.539  10.528  0.1012  0.2939  0.4173
  121MOL0     C15865   2.909   7.626  10.625 -0.2218  0.6627  0.7146
  121MOL0     C15866   2.972   7.656  10.752  0.3152 -0.7297 -0.8647
  121MOL0     C15867   2.917   7.751  10.831  0.5086  0.9241 -0.6941
  121MOL0     C15868   2.806   7.829  10.787  0.9976 -0.6534 -0.2102
  121MOL0     C15869   2.743   7.922  10.880  0.0363 -0.2848  0.2449
  121MOL0     O15870   2.634   7.991  10.838  0.4993  0.2382  0.8552
  121MOL0     C15871   2.589   8.092  10.920  1.1545  0.2480 -0.3682
  121MOL0     C15872   2.450   8.103  10.911 -0.1931 -0.1724  0.7994
  121MOL0     C15873   2.384   8.200  10.982 -0.6420 -1.2694 -0.2290
  121MOL0     C15874   2.454   8.304  11.044 -1.0077 -0.1633 -0.3546
  121MOL0     O15875   2.386   8.389  11.121  0.3021 -0.2086 -0.3238
  121MOL0     C15876   2.440   8.413  11.255 -0.4951  0.4064 -0.6216
  121MOL0     C15877   2.496   8.550  11.253  0.6186  0.1744 -1.5072
  121MOL0     C15878   2.582   8.570  11.385  0.0792  1.2971 -0.4982
  121MOL0     C15879   2.725   8.512  11.371 -0.2680  0.4555 -0.6656
  121MOL0     C15880   2.793   8.533  11.511 -0.4878  0.1695 -0.6626
  121MOL0     C15881   2.794   8.670  11.574  0.2134  0.2173 -0.3443
  121MOL0     C15882   2.753   8.677  11.723  0.0566  0.8825  1.4124
  121MOL0     C15883   2.820   8.580  11.820 -0.2495 -0.4807 -0.1792
  121MOL0    Cl15884   2.993   8.632  11.853 -0.4244 -0.2263  0.2982
  121MOL0     C15885   2.597   8.299  11.033 -0.3868  0.4566 -0.3994
  121MOL0     C15886   2.665   8.202  10.959 -1.2830 -0.8110  0.8280
  121MOL0     O15887   2.783   7.922  10.997 -0.1964  0.2923 -0.2139
  121MOL0     C15888   2.737   7.792  10.671 -0.5530  0.9820 -0.0720
  121MOL0     C15889   2.788   7.689  10.590  0.5875 -0.2486  0.7479
  121MOL0     N15890   3.422   7.492  10.069  0.0408  0.6877  0.4323
  121MOL0     N15891   3.429   7.569   9.973 -0.3133  0.2327 -0.1204
  121MOL0     C15892   2.712   7.018   9.321 -0.2175  0.7444 -0.1768
  121MOL0     C15893   2.592   6.972   9.272  0.5736 -0.0694  0.0801
  121MOL0     C15894   2.252   6.678   9.158  0.1980  0.7063 -0.0911
  121MOL0     C15895   2.196   6.562   9.204  0.4292  0.5477 -0.6666
  121MOL0     C15896   2.062   6.536   9.176  0.5767  0.1704  0.2749
  121MOL0     C15897   1.992   6.627   9.097  0.2894 -0.4352 -0.2313
  121MOL0     O15898   1.863   6.590   9.084 -0.6143 -0.3011 -0.8320
  121MOL0     C15899   1.771   6.655   9.003 -0.3631 -0.2404 -0.7269
  121MOL0     C15900   1.645   6.559   9.016 -0.2355 -0.6264 -0.2461
  121MOL0     C15901   1.533   6.592   8.904 -0.3540  0.1152  0.5414
  121MOL0     C15902   1.384   6.573   8.949  0.0705  0.6518  0.6319
  121MOL0     C15903   1.343   6.453   9.021 -0.0980  0.0707 -1.0864
  121MOL0     C15904   1.329   6.348   9.073 -0.0545 -0.1589 -0.8363
  121MOL0     C15905   2.051   6.733   9.021 -0.6949 -0.5504  0.0363
  121MOL0     C15906   2.175   6.768   9.071  0.3723  0.3060  0.9507
  121MOL0     H15907   2.682   6.704   9.096 -0.1949  0.5402 -2.3061
  121MOL0     H15908   2.903   6.772   9.183  0.3916 -0.0534  2.9042
  121MOL0     H15909   2.921   7.179   9.365 -0.2239 -0.7641  2.3061
  121MOL0     H15910   3.070   7.164   9.287  0.6962  1.6797  2.2930
  121MOL0     H15911   3.142   7.020   9.508 -0.4171 -0.4640  1.1904
  121MOL0     H15912   2.982   7.066   9.563 -1.4315 -0.5996 -1.4699
  121MOL0     H15913   3.138   7.198   9.662 -1.0135  0.5332  0.9489
  121MOL0     H15914   3.046   7.310   9.571  2.2010  2.2686  1.6525
  121MOL0     H15915   3.328   7.232   9.524  1.2865  1.8355  2.1963
  121MOL0     H15916   3.230   7.273   9.375 -1.0752  0.1113  0.6333
  121MOL0     H15917   3.175   7.476   9.459  0.5732 -1.0246 -1.3275
  121MOL0     H15918   3.361   7.459   9.480  2.1291 -3.6230  1.1868
  121MOL0     H15919   3.324   7.403   9.716  1.8089  0.7028 -0.4550
  121MOL0     H15920   3.147   7.455   9.698 -0.4036  1.8345 -2.3918
  121MOL0     H15921   3.396   7.629   9.661  0.5551  2.8364  2.7858
  121MOL0     H15922   3.228   7.667   9.604 -0.2228 -0.7942 -0.2908
  121MOL0     H15923   3.152   7.687   9.839  1.0489  1.5101  2.8319
  121MOL0     H15924   3.316   7.767   9.828  4.1648 -2.1232  0.7024
  121MOL0     H15925   3.106   7.545  10.011  0.5259  2.8205  0.5523
  121MOL0     H15926   3.340   7.330  10.253 -1.8581 -1.8434 -0.0402
  121MOL0     H15927   3.183   7.308  10.195  0.5206 -1.0996 -1.0291
  121MOL0     H15928   3.127   7.532  10.294 -0.6543 -1.9364 -4.5262
  121MOL0     H15929   3.290   7.544  10.362  1.0770 -0.6311 -1.7014
  121MOL0     H15930   3.098   7.315  10.427  0.7403 -0.2162 -2.2515
  121MOL0     H15931   3.249   7.373  10.513 -2.8224  0.2101  2.8110
  121MOL0     H15932   3.173   7.568  10.585  1.4363 -0.0570  3.6900
  121MOL0     H15933   3.097   7.431  10.648  1.3493 -0.6613 -0.2857
  121MOL0     H15934   3.067   7.617  10.787  0.8143  1.4073  0.3057
  121MOL0     H15935   2.964   7.774  10.926 -1.0959  1.9463 -0.1032
  121MOL0     H15936   2.398   8.026  10.854  0.9214  1.7865 -3.2177
  121MOL0     H15937   2.276   8.196  10.991 -0.7788  2.0637  1.0965
  121MOL0     H15938   2.514   8.337  11.282 -3.3153 -1.7765  1.6006
  121MOL0     H15939   2.365   8.389  11.331 -2.3544 -0.9509 -2.7555
  121MOL0     H15940   2.419   8.627  11.243  3.2099  2.5891 -5.9777
  121MOL0     H15941   2.552   8.575  11.163 -1.5263  4.0830 -1.9677
  121MOL0     H15942   2.536   8.520  11.471 -0.0096  1.7182 -0.3040
  121MOL0     H15943   2.578   8.678  11.402 -2.2759  1.0238  1.2704
  121MOL0     H15944   2.730   8.405  11.347  0.2672  0.3593 -0.1638
  121MOL0     H15945   2.769   8.558  11.283 -0.3344 -1.7635 -1.9346
  121MOL0     H15946   2.894   8.492  11.507  0.5088  1.6094  3.8696
  121MOL0     H15947   2.743   8.482  11.594  1.1741 -0.8517 -0.2319
  121MOL0     H15948   2.746   8.747  11.515  1.0623  0.7008 -0.4223
  121MOL0     H15949   2.901   8.693  11.583  0.1734 -0.3225  4.5673
  121MOL0     H15950   2.777   8.783  11.737  0.6733  1.3230 -2.0864
  121MOL0     H15951   2.645   8.663  11.727  0.0577  0.9795  1.8143
  121MOL0     H15952   2.797   8.474  11.805 -3.6864  0.2540 -1.1073
  121MOL0     H15953   2.766   8.606  11.912  1.7685 -1.3353  1.3120
  121MOL0     H15954   2.654   8.372  11.091  3.2219 -1.7696 -0.8233
  121MOL0     H15955   2.771   8.215  10.941 -1.5252 -1.7463 -1.6925
  121MOL0     H15956   2.649   7.842  10.634 -0.5219 -1.4829 -4.0961
  121MOL0     H15957   2.739   7.678  10.494  0.4975  0.8390  0.6647
  121MOL0     H15958   2.701   7.103   9.388 -2.3368  1.1957 -1.0201
  121MOL0     H15959   2.502   7.032   9.275 -0.0021 -0.9454  0.8126
  121MOL0     H15960   2.257   6.505   9.273 -0.9017 -0.3507 -0.1659
  121MOL0     H15961   2.025   6.441   9.212 -1.6087 -0.3113 -2.8645
  121MOL0     H15962   1.814   6.670   8.903 -0.9299  0.9452 -0.8121
  121MOL0     H15963   1.746   6.757   9.034 -1.5426  0.6050 -4.0129
  121MOL0     H15964   1.684   6.457   9.008  2.2730  0.2325  0.1834
  121MOL0     H15965   1.594   6.578   9.111 -0.3705  3.8292 -0.9893
  121MOL0     H15966   1.549   6.524   8.819 -0.8283 -0.7253  1.1127
  121MOL0     H15967   1.543   6.694   8.867 -0.5119  0.1387  0.5632
  121MOL0     H15968   1.366   6.660   9.014 -2.0703  1.7445 -1.2856
  121MOL0     H15969   1.331   6.585   8.854  6.1544  1.7439 -3.2012
  121MOL0     H15970   1.331   6.252   9.121  0.2616  0.2968  0.0912
  121MOL0     H15971   2.011   6.812   8.957  0.9467  2.0931  2.0443
  121MOL0     H15972   2.211   6.868   9.048 -2.4210  0.8785 -1.4937
  122MOL0     O15973   8.171   8.905   5.299  0.8176 -0.1308 -0.0410
  122MOL0     C15974   8.092   8.983   5.347  0.1639  0.4325 -0.1771
  122MOL0     O15975   8.116   9.059   5.461  0.3154 -0.2907 -0.5994
  122MOL0     C15976   8.241   9.058   5.512  0.1461 -0.1598 -0.2452
  122MOL0     C15977   8.333   9.153   5.472  0.2201  0.4191 -0.1779
  122MOL0     C15978   8.457   9.166   5.537  0.5072  0.0101  0.3769
  122MOL0     C15979   8.492   9.078   5.641  0.7394 -0.5438 -0.3490
  122MOL0     O15980   8.616   9.079   5.698  0.5607  0.0993  0.4013
  122MOL0     C15981   8.723   9.043   5.603  0.3748  0.6059  0.0868
  122MOL0     C15982   8.813   8.948   5.682 -0.3273 -0.8360  0.7206
  122MOL0     C15983   8.932   8.912   5.607 -0.3159 -0.0998 -0.2037
  122MOL0     C15984   9.041   8.827   5.687 -0.1121 -1.3416 -0.8074
  122MOL0     C15985   9.179   8.825   5.617 -0.3448  0.0190  0.0492
  122MOL0     C15986   9.281   8.742   5.687  0.4826 -0.1341  0.1004
  122MOL0     C15987   9.415   8.734   5.600 -0.5754 -0.5251  0.1640
  122MOL0     C15988   9.484   8.863   5.601 -0.4727 -0.5236  0.3302
  122MOL0     N15989   9.620   8.842   5.558  0.2527 -0.2782  1.0763
  122MOL0     C15990   9.667   8.879   5.435  0.0782 -0.0731 -0.3029
  122MOL0     C15991   9.798   8.842   5.440 -0.4716  0.9387 -0.1737
  122MOL0     C15992   9.895   8.877   5.336  0.3123  0.7808 -0.1056
  122MOL0     C15993  10.037   8.846   5.382  0.2453  1.2966 -0.1526
  122MOL0     C15994  10.156   8.853   5.282 -0.4623 -0.0086  1.4854
  122MOL0     C15995  10.146   8.753   5.171 -0.2379  0.5165  1.1475
  122MOL0     O15996  10.064   8.803   5.063 -0.6569  0.0811 -0.6643
  122MOL0     C15997  10.109   8.899   4.978  0.9395 -0.6002 -0.4127
  122MOL0     C15998  10.241   8.931   4.968  0.5191  0.2702 -0.4379
  122MOL0     C15999  10.287   9.024   4.874 -0.5127  0.5748  0.2838
  122MOL0     C16000  10.193   9.099   4.804  0.2342  0.2879  1.4928
  122MOL0     C16001  10.243   9.210   4.708 -0.6632  0.8534 -1.0484
  122MOL0     O16002  10.159   9.280   4.628 -0.6819  0.1138 -0.3344
  122MOL0     C16003  10.218   9.375   4.547  0.9221 -0.1121  0.3292
  122MOL0     C16004  10.265   9.338   4.415 -0.2522  0.0990  0.5418
  122MOL0     C16005  10.322   9.426   4.329 -1.1097  0.3354 -0.5108
  122MOL0     C16006  10.329   9.563   4.370 -0.2426 -1.0210  0.7272
  122MOL0     O16007  10.367   9.669   4.289  0.3190  0.1015  0.4351
  122MOL0     C16008  10.457   9.644   4.184 -1.5651  0.3822 -0.5426
  122MOL0     C16009  10.551   9.764   4.188 -0.2703 -0.1419  0.1463
  122MOL0     C16010  10.490   9.888   4.123  0.3175 -0.1648 -0.2833
  122MOL0     C16011  10.582  10.007   4.088 -0.1018  0.0021 -0.4864
  122MOL0     C16012  10.648  10.042   4.218 -1.1584  0.3210 -0.7559
  122MOL0     C16013  10.735  10.178   4.220  0.5891  1.4711  0.6612
  122MOL0     C16014  10.808  10.204   4.363 -0.0328 -0.6984  0.2380
  122MOL0     C16015  10.862  10.339   4.369  0.1451 -0.3914  0.7064
  122MOL0    Cl16016  10.964  10.361   4.517 -0.1766 -0.0300 -0.2960
  122MOL0     C16017  10.300   9.598   4.498 -0.4916 -0.7401 -0.7688
  122MOL0     C16018  10.241   9.509   4.589 -0.1954 -0.0393  0.0983
  122MOL0     O16019  10.358   9.228   4.719 -0.0271  0.0590  0.1102
  122MOL0     C16020  10.055   9.069   4.809  0.5951  0.1389  0.6396
  122MOL0     C16021  10.022   8.964   4.890 -0.1832  0.6456  0.8687
  122MOL0     N16022   9.830   8.790   5.562  0.3203 -0.3659 -0.3603
  122MOL0     N16023   9.718   8.788   5.633 -1.0587  0.1392  0.1767
  122MOL0     C16024   8.395   8.986   5.679 -0.0607  0.8672 -0.7601
  122MOL0     C16025   8.277   8.968   5.610  0.6432 -0.4151 -0.4574
  122MOL0     C16026   7.949   8.982   5.309  0.3966  0.1880  0.1161
  122MOL0     C16027   7.901   8.876   5.236 -1.0778  0.3556  0.4120
  122MOL0     C16028   7.768   8.872   5.193 -0.0823 -0.9917 -0.8853
  122MOL0     C16029   7.685   8.977   5.221  0.3118  0.4140 -0.3522
  122MOL0     O16030   7.560   8.981   5.160 -0.2898  0.1674 -0.3860
  122MOL0     C16031   7.466   9.038   5.238  1.8101  0.6651 -0.6779
  122MOL0     C16032   7.328   9.016   5.175  0.6787  0.0467  1.0036
  122MOL0     C16033   7.209   8.992   5.281 -0.3738 -0.0983  0.2412
  122MOL0     C16034   7.199   9.102   5.381  0.2000 -0.4720 -0.3584
  122MOL0     C16035   7.154   9.232   5.330  1.6078  0.5300 -0.2275
  122MOL0     C16036   7.111   9.340   5.321 -0.2827 -1.2615 -0.0871
  122MOL0     C16037   7.718   9.080   5.295 -2.0325  0.2321 -0.3377
  122MOL0     C16038   7.857   9.077   5.341  0.1803 -0.0450  0.3409
  122MOL0     H16039   8.302   9.235   5.408 -0.2168  1.5929  1.4671
  122MOL0     H16040   8.527   9.235   5.490  1.3709 -2.8275 -2.9710
  122MOL0     H16041   8.787   9.128   5.576  2.6301 -0.9146  0.3710
  122MOL0     H16042   8.677   8.999   5.514  1.3736 -1.4948  0.5659
  122MOL0     H16043   8.748   8.868   5.717 -1.9040 -0.1842 -0.5610
  122MOL0     H16044   8.843   8.994   5.776 -0.7696  2.0311 -0.4339
  122MOL0     H16045   8.966   9.008   5.568 -2.0422  0.4124 -0.5195
  122MOL0     H16046   8.894   8.846   5.528 -0.6293 -0.8687  0.5704
  122MOL0     H16047   9.055   8.864   5.790  0.8758 -0.6549 -1.1777
  122MOL0     H16048   8.991   8.730   5.681  0.8625 -1.8605 -0.6903
  122MOL0     H16049   9.212   8.927   5.601 -0.4876  0.4181  2.0310
  122MOL0     H16050   9.180   8.772   5.522 -0.1901  0.0344  0.0422
  122MOL0     H16051   9.242   8.641   5.703 -0.0588  0.1768  0.8012
  122MOL0     H16052   9.296   8.789   5.785  1.7621 -0.3479  0.0131
  122MOL0     H16053   9.483   8.660   5.645  2.0404  1.1852 -0.7090
  122MOL0     H16054   9.402   8.709   5.494 -2.9542 -3.3575  0.9933
  122MOL0     H16055   9.484   8.915   5.697  2.5890 -0.6417  0.4923
  122MOL0     H16056   9.439   8.934   5.531  0.2442 -0.1565  0.2207
  122MOL0     H16057   9.613   8.941   5.364 -1.1718 -1.1354 -0.3109
  122MOL0     H16058   9.895   8.985   5.323  1.9341  1.1112  2.0110
  122MOL0     H16059   9.880   8.821   5.243 -0.1486 -0.7774  0.8642
  122MOL0     H16060  10.030   8.747   5.428  2.5042  1.6018  0.9900
  122MOL0     H16061  10.062   8.909   5.469  0.5231  4.0409 -2.0888
  122MOL0     H16062  10.164   8.951   5.233  1.3484  0.0761  1.8543
  122MOL0     H16063  10.241   8.835   5.349 -1.6125  0.6102  3.1956
  122MOL0     H16064  10.097   8.662   5.208  3.4743 -2.2733 -0.1539
  122MOL0     H16065  10.236   8.700   5.139 -0.4200 -1.5363  3.6757
  122MOL0     H16066  10.318   8.897   5.037  1.3580  3.8835  0.6291
  122MOL0     H16067  10.395   9.035   4.864 -0.3053  0.5555  2.0713
  122MOL0     H16068  10.247   9.234   4.388  0.7235 -0.2896  1.3292
  122MOL0     H16069  10.349   9.407   4.226  0.0798  3.0240 -0.7813
  122MOL0     H16070  10.402   9.635   4.089 -1.5298  0.1176 -0.5394
  122MOL0     H16071  10.514   9.550   4.186  1.3108  1.9605 -2.0311
  122MOL0     H16072  10.645   9.746   4.136 -0.3529  0.2066 -0.1264
  122MOL0     H16073  10.570   9.783   4.294 -0.6619  0.7563  0.0662
  122MOL0     H16074  10.414   9.937   4.184 -0.0115 -1.5930  0.5056
  122MOL0     H16075  10.436   9.851   4.035  2.0878  1.5172 -2.1631
  122MOL0     H16076  10.650   9.978   4.007 -2.4285  1.7666 -3.2411
  122MOL0     H16077  10.529  10.097   4.056  1.2358  2.0122  2.4425
  122MOL0     H16078  10.712   9.957   4.245  0.1703  1.6783  0.5535
  122MOL0     H16079  10.577  10.054   4.300  1.1027  0.0322  1.3795
  122MOL0     H16080  10.658  10.254   4.203 -0.9013  0.1872  1.4162
  122MOL0     H16081  10.814  10.191   4.146  1.2145  0.9931  1.2349
  122MOL0     H16082  10.735  10.199   4.444  0.7401  0.4418  1.0497
  122MOL0     H16083  10.881  10.123   4.378 -0.3773 -1.4177 -1.7118
  122MOL0     H16084  10.776  10.407   4.369  2.9488  3.4559  0.7104
  122MOL0     H16085  10.930  10.345   4.284  0.4741 -2.7179  0.7543
  122MOL0     H16086  10.328   9.699   4.528 -1.7578 -0.8094  0.7689
  122MOL0     H16087  10.212   9.538   4.690 -1.7709  2.0198 -0.8662
  122MOL0     H16088   9.983   9.124   4.750 -0.0690 -3.8241 -2.7172
  122MOL0     H16089   9.921   8.925   4.893  0.0764 -0.1766  4.7678
  122MOL0     H16090   8.420   8.922   5.764 -2.2493  0.5842 -0.2452
  122MOL0     H16091   8.203   8.892   5.632  0.8953 -1.0730 -1.7893
  122MOL0     H16092   7.983   8.811   5.206 -1.4105 -2.3801  4.5987
  122MOL0     H16093   7.723   8.811   5.115 -2.7766  1.4265 -1.3886
  122MOL0     H16094   7.470   9.146   5.252 -1.5352  0.8101 -0.1102
  122MOL0     H16095   7.457   8.984   5.333 -1.3917  0.5892 -0.9206
  122MOL0     H16096   7.304   9.103   5.113  0.6221 -2.4607 -2.8218
  122MOL0     H16097   7.330   8.935   5.102  0.5205 -0.6106  1.7105
  122MOL0     H16098   7.225   8.896   5.332  2.6610 -0.4391 -1.1314
  122MOL0     H16099   7.112   8.972   5.235 -1.7347  2.2109  1.9227
  122MOL0     H16100   7.127   9.068   5.456 -0.1475  2.2564  0.6579
  122MOL0     H16101   7.302   9.115   5.416  0.3533  1.3887 -1.3377
  122MOL0     H16102   7.077   9.441   5.311 -0.3797 -1.4562 -2.0971
  122MOL0     H16103   7.659   9.165   5.329  0.6496  2.3985 -0.7559
  122MOL0     H16104   7.898   9.157   5.402 -0.4129 -0.2467  1.0209
  123MOL0     O16105   5.495   7.716   5.143 -0.5525  0.1397  0.3518
  123MOL0     C16106   5.443   7.775   5.051  0.1701  0.7258  0.3129
  123MOL0     O16107   5.498   7.828   4.939 -0.8595 -0.1620 -0.9129
  123MOL0     C16108   5.630   7.810   4.917 -0.6439  0.5055 -0.0067
  123MOL0     C16109   5.703   7.689   4.923 -0.2024  1.4561 -0.3201
  123MOL0     C16110   5.843   7.692   4.899 -0.2053  0.2716  0.4758
  123MOL0     C16111   5.905   7.815   4.876  0.3650 -0.1076 -0.1319
  123MOL0     O16112   6.038   7.810   4.875  0.2388  0.7146  0.5330
  123MOL0     C16113   6.102   7.926   4.814  0.7171 -0.0300 -0.1428
  123MOL0     C16114   6.243   7.894   4.791  0.0415 -0.2422  0.6440
  123MOL0     C16115   6.320   7.849   4.913  0.8585  1.3518 -0.3621
  123MOL0     C16116   6.470   7.823   4.899 -0.2445  0.0828  0.5894
  123MOL0     C16117   6.515   7.715   4.798  0.2582 -0.6161 -0.6853
  123MOL0     C16118   6.487   7.567   4.849 -0.8952  0.1524 -0.5796
  123MOL0     C16119   6.577   7.535   4.971 -0.0579 -0.4519 -0.6470
  123MOL0     C16120   6.596   7.387   4.982  0.6785  0.3069 -0.5364
  123MOL0     N16121   6.715   7.358   5.053  0.0642 -0.2465  0.1729
  123MOL0     C16122   6.854   7.370   5.025  0.0200  0.0307  0.6992
  123MOL0     C16123   6.922   7.296   5.113  0.0184  0.8274  0.4549
  123MOL0     C16124   7.077   7.283   5.115  0.2128 -0.0486 -0.4375
  123MOL0     C16125   7.130   7.355   5.244  0.1148 -0.8774 -0.2184
  123MOL0     C16126   7.282   7.348   5.272  0.1918  0.1175  0.0730
  123MOL0     C16127   7.343   7.229   5.317  0.3871  0.4822 -1.0420
  123MOL0     O16128   7.359   7.133   5.205 -0.2604 -0.1571 -0.0332
  123MOL0     C16129   7.421   7.014   5.224 -0.1551  0.1530  0.9176
  123MOL0     C16130   7.448   6.939   5.112  0.3253 -0.2611  0.6533
  123MOL0     C16131   7.505   6.813   5.131 -1.2848 -0.2671 -0.6212
  123MOL0     C16132   7.556   6.769   5.250 -1.1696 -0.0760 -0.1987
  123MOL0     C16133   7.599   6.634   5.272  0.0209  0.0340  0.2379
  123MOL0     O16134   7.658   6.605   5.388  0.1663  0.2159 -0.6285
  123MOL0     C16135   7.645   6.466   5.423  0.0550  0.7369 -1.4005
  123MOL0     C16136   7.526   6.401   5.446 -0.4604 -0.3143  0.8110
  123MOL0     C16137   7.525   6.267   5.481  0.0573  0.2571 -0.1877
  123MOL0     C16138   7.653   6.202   5.508 -0.5024 -0.7298  0.4038
  123MOL0     O16139   7.664   6.076   5.545  0.6349  0.0865 -0.7869
  123MOL0     C16140   7.549   5.994   5.516  0.3531  0.3116 -0.1821
  123MOL0     C16141   7.583   5.848   5.539 -0.5201 -0.1174 -0.7168
  123MOL0     C16142   7.543   5.776   5.666 -0.4613  0.1677 -2.0170
  123MOL0     C16143   7.624   5.848   5.775 -0.6489  0.1445 -0.1176
  123MOL0     C16144   7.568   5.796   5.911 -0.3634 -0.3112 -0.2300
  123MOL0     C16145   7.637   5.861   6.033  1.1697 -0.3288  0.5478
  123MOL0     C16146   7.596   5.794   6.168  0.4995 -0.1446 -0.6229
  123MOL0     C16147   7.706   5.821   6.273  0.3555  0.4351  0.6425
  123MOL0    Cl16148   7.654   5.776   6.440  0.1718  0.7022  0.1433
  123MOL0     C16149   7.775   6.282   5.485  0.1802 -0.3115 -0.4515
  123MOL0     C16150   7.769   6.411   5.457  0.6023  0.0650 -0.2198
  123MOL0     O16151   7.586   6.553   5.178  0.3071  0.3666  0.3032
  123MOL0     C16152   7.528   6.849   5.362 -0.3738 -0.1864 -0.7671
  123MOL0     C16153   7.465   6.971   5.348 -0.2122  0.2266 -0.4766
  123MOL0     N16154   6.833   7.245   5.202  0.6648  0.2287 -0.0537
  123MOL0     N16155   6.716   7.281   5.165 -0.7640 -0.8125  0.2780
  123MOL0     C16156   5.836   7.938   4.869  0.3592 -0.1695 -0.8910
  123MOL0     C16157   5.696   7.928   4.890 -0.0368  0.3880 -0.1909
  123MOL0     C16158   5.299   7.782   5.057  0.3279 -0.3669 -0.8693
  123MOL0     C16159   5.213   7.804   4.942  0.3364 -0.1600  0.3797
  123MOL0     C16160   5.074   7.821   4.945 -0.2280  0.2444 -0.9754
  123MOL0     C16161   5.020   7.824   5.068  0.2761 -0.4643  1.0271
  123MOL0     O16162   4.883   7.823   5.069  0.6217 -0.2554  0.6566
  123MOL0     C16163   4.822   7.696   5.073 -0.2966 -0.2703 -0.3315
  123MOL0     C16164   4.696   7.688   5.166  0.6118 -0.5447  0.3552
  123MOL0     C16165   4.663   7.528   5.179 -0.5774 -0.1460  0.1247
  123MOL0     C16166   4.539   7.525   5.275  1.3018  0.3445 -0.2929
  123MOL0     C16167   4.407   7.556   5.215  0.1384  0.0662 -0.4609
  123MOL0     C16168   4.302   7.562   5.150  0.0012 -0.5848  0.0215
  123MOL0     C16169   5.092   7.813   5.186 -0.0316  0.4285 -0.9414
  123MOL0     C16170   5.232   7.796   5.181  0.0696  0.0715  0.7480
  123MOL0     H16171   5.655   7.593   4.939  0.1597  1.5100  1.2278
  123MOL0     H16172   5.910   7.607   4.892  2.7763  2.5814 -2.4979
  123MOL0     H16173   6.094   8.012   4.880 -3.3656  1.3017 -2.0353
  123MOL0     H16174   6.073   7.944   4.710  1.6226 -1.2818 -0.6457
  123MOL0     H16175   6.296   7.978   4.746 -0.2958 -1.7088 -2.7489
  123MOL0     H16176   6.254   7.828   4.705  0.4104  0.3198  0.2571
  123MOL0     H16177   6.288   7.750   4.947 -2.2955  1.1293 -3.3697
  123MOL0     H16178   6.299   7.919   4.995  0.9533 -1.0084  1.7692
  123MOL0     H16179   6.520   7.915   4.871  0.2597 -0.2185  0.5007
  123MOL0     H16180   6.503   7.795   5.000 -0.2030 -1.8791  0.0703
  123MOL0     H16181   6.622   7.726   4.779  0.3230  4.3184  1.2440
  123MOL0     H16182   6.464   7.730   4.702  1.8165 -0.9857 -1.6141
  123MOL0     H16183   6.531   7.505   4.770  1.8413  0.4442  0.5920
  123MOL0     H16184   6.384   7.541   4.874 -0.2265 -2.2259 -0.0591
  123MOL0     H16185   6.681   7.562   4.952 -0.0138 -1.4035 -1.8354
  123MOL0     H16186   6.549   7.580   5.067  1.3558 -2.8281  1.0112
  123MOL0     H16187   6.589   7.339   4.884  1.4561 -0.3766 -0.2653
  123MOL0     H16188   6.512   7.354   5.044  0.8171  1.3694  0.2599
  123MOL0     H16189   6.905   7.418   4.942 -0.0742 -1.1761 -0.0659
  123MOL0     H16190   7.132   7.325   5.029  2.3253 -0.9240  0.4155
  123MOL0     H16191   7.090   7.176   5.127 -1.6680 -0.0849  1.8599
  123MOL0     H16192   7.080   7.328   5.338 -1.0249  0.9696 -0.2608
  123MOL0     H16193   7.108   7.462   5.246  3.7568  0.0511  3.3956
  123MOL0     H16194   7.340   7.375   5.183  0.2667  1.3685  0.4826
  123MOL0     H16195   7.311   7.413   5.355  2.5759 -2.3720  1.3728
  123MOL0     H16196   7.274   7.184   5.390  1.9110 -3.4235 -1.7750
  123MOL0     H16197   7.439   7.256   5.361  1.3812 -2.0243 -1.5057
  123MOL0     H16198   7.419   6.970   5.012 -2.0193 -2.0581  0.7010
  123MOL0     H16199   7.516   6.755   5.040  1.2434 -0.8965 -0.0063
  123MOL0     H16200   7.441   6.468   5.446  0.6822  1.1936  1.0729
  123MOL0     H16201   7.426   6.224   5.484 -0.1911  0.6961 -1.3354
  123MOL0     H16202   7.528   6.010   5.410 -2.8056  0.2580  0.3243
  123MOL0     H16203   7.459   6.018   5.574  1.1734  0.3158  1.1246
  123MOL0     H16204   7.691   5.836   5.527  0.3415  1.9524  3.3154
  123MOL0     H16205   7.528   5.797   5.460 -1.3223  1.9314 -1.5468
  123MOL0     H16206   7.573   5.671   5.659  1.1215  0.5688 -1.4699
  123MOL0     H16207   7.436   5.781   5.686 -0.2641 -4.6557  2.0319
  123MOL0     H16208   7.732   5.831   5.767 -0.3358  1.7270  0.3114
  123MOL0     H16209   7.610   5.957   5.772 -0.4520  0.1750 -2.9048
  123MOL0     H16210   7.585   5.688   5.906  0.2460 -0.1608 -2.5931
  123MOL0     H16211   7.463   5.823   5.927 -0.2648 -1.3620  2.9150
  123MOL0     H16212   7.619   5.969   6.032 -0.0922 -0.5099  0.9762
  123MOL0     H16213   7.743   5.842   6.015  0.6786 -1.4281 -1.4853
  123MOL0     H16214   7.499   5.837   6.196  0.0215  0.6444 -3.2345
  123MOL0     H16215   7.589   5.687   6.148  0.8141 -0.5511  1.2144
  123MOL0     H16216   7.740   5.924   6.257  0.6328  0.2683  0.1253
  123MOL0     H16217   7.784   5.747   6.252 -0.3046 -0.9668  2.7858
  123MOL0     H16218   7.869   6.234   5.509  0.5515 -1.5838 -3.8453
  123MOL0     H16219   7.856   6.475   5.450  1.0133 -0.2163  1.7790
  123MOL0     H16220   7.554   6.816   5.462 -1.8098  1.4982  0.2176
  123MOL0     H16221   7.445   7.026   5.440  1.1134 -0.3456  0.1691
  123MOL0     H16222   5.883   8.035   4.867  0.3876 -0.1887 -1.1103
  123MOL0     H16223   5.645   8.024   4.888 -0.7087  0.0340 -0.3638
  123MOL0     H16224   5.244   7.785   4.839  0.1103 -1.3755  0.5241
  123MOL0     H16225   5.014   7.855   4.861  0.3528  3.3523 -0.2630
  123MOL0     H16226   4.899   7.634   5.120 -0.9371  1.9370  4.1661
  123MOL0     H16227   4.801   7.666   4.970  0.1236 -0.1993 -0.4370
  123MOL0     H16228   4.699   7.741   5.261 -0.0752  1.5995 -0.7557
  123MOL0     H16229   4.614   7.737   5.112  0.0854  0.7311  2.1923
  123MOL0     H16230   4.747   7.476   5.227  2.0041  0.5090 -3.2321
  123MOL0     H16231   4.649   7.476   5.084 -0.5704  0.7986 -0.4040
  123MOL0     H16232   4.525   7.426   5.320 -2.8281  0.9129  0.0933
  123MOL0     H16233   4.542   7.583   5.367  2.8237 -3.4573  2.3161
  123MOL0     H16234   4.201   7.574   5.119 -0.0983  0.5825  0.7481
  123MOL0     H16235   5.040   7.798   5.280  5.3024 -0.0794  2.3084
  123MOL0     H16236   5.279   7.784   5.278 -1.6360 -2.2701  1.3539
  124MOL0     O16237   7.347   6.004   1.676  0.8510  0.5411  0.7614
  124MOL0     C16238   7.247   5.941   1.712 -0.2534 -0.0079 -0.0806
  124MOL0     O16239   7.143   5.889   1.630 -0.5129  0.2570  0.8237
  124MOL0     C16240   7.120   5.953   1.511 -0.7215  0.5118  0.4932
  124MOL0     C16241   7.213   5.958   1.407  0.0837 -0.7103 -1.1633
  124MOL0     C16242   7.195   6.027   1.288  1.0115 -1.3119 -0.1635
  124MOL0     C16243   7.068   6.096   1.275 -0.2227  0.3238  0.7499
  124MOL0     O16244   7.036   6.169   1.156 -0.4269 -0.2408 -0.5515
  124MOL0     C16245   7.142   6.211   1.069 -0.3356 -1.4504  0.0891
  124MOL0     C16246   7.089   6.336   0.997 -0.2184 -0.7339 -1.1250
  124MOL0     C16247   7.083   6.464   1.091 -0.1320 -0.7184 -0.2040
  124MOL0     C16248   7.082   6.593   0.997 -0.3286  0.1719  0.0840
  124MOL0     C16249   7.103   6.718   1.083  0.6746  0.3133 -0.2472
  124MOL0     C16250   6.996   6.746   1.195 -0.4675 -0.4602  0.0947
  124MOL0     C16251   7.018   6.877   1.275 -0.1605 -0.8331 -0.0739
  124MOL0     C16252   7.152   6.905   1.356 -0.2795 -0.1074  0.5515
  124MOL0     N16253   7.170   6.818   1.470  0.0397  0.3850  1.0557
  124MOL0     C16254   7.094   6.822   1.583  0.2684 -0.2446  1.2964
  124MOL0     C16255   7.139   6.718   1.644  0.3263  0.1017  0.3908
  124MOL0     C16256   7.097   6.663   1.781  0.3283 -0.1862  0.3690
  124MOL0     C16257   7.060   6.515   1.769  0.0466  0.2828  0.6588
  124MOL0     C16258   6.960   6.480   1.659  0.0692  0.4273 -0.7293
  124MOL0     C16259   6.835   6.576   1.662  0.3441 -0.0892  0.4306
  124MOL0     O16260   6.725   6.498   1.710  0.0610  0.0888  0.3937
  124MOL0     C16261   6.677   6.529   1.833  0.4525  0.1848  0.6813
  124MOL0     C16262   6.546   6.494   1.846 -0.0759  0.2148  0.3284
  124MOL0     C16263   6.476   6.521   1.961 -0.0465  0.4986 -0.8917
  124MOL0     C16264   6.545   6.571   2.075 -0.5584  1.0138  0.1926
  124MOL0     C16265   6.473   6.599   2.201  0.4531  0.2385  0.7538
  124MOL0     O16266   6.339   6.555   2.194 -0.1659  0.1401 -0.3206
  124MOL0     C16267   6.262   6.604   2.298 -0.1144 -0.6109  0.1149
  124MOL0     C16268   6.260   6.741   2.354 -0.2190  0.0572  0.0195
  124MOL0     C16269   6.176   6.793   2.443  0.1327 -0.0788  0.0776
  124MOL0     C16270   6.075   6.712   2.487 -0.2083 -0.4724 -1.2790
  124MOL0     O16271   6.004   6.768   2.588  0.5113  0.1030  0.1259
  124MOL0     C16272   6.030   6.711   2.724  0.1128 -1.3744  0.1624
  124MOL0     C16273   5.933   6.755   2.822  0.5115 -0.1465 -0.3394
  124MOL0     C16274   5.812   6.664   2.842  0.6226 -0.6196  0.0685
  124MOL0     C16275   5.722   6.693   2.958  0.4233 -0.2705  0.3122
  124MOL0     C16276   5.623   6.808   2.942 -0.1338  0.3916  0.3252
  124MOL0     C16277   5.529   6.833   3.051  0.0733  0.3950  0.3841
  124MOL0     C16278   5.600   6.856   3.178  0.0085 -1.3285 -0.2801
  124MOL0     C16279   5.512   6.819   3.297 -0.1467  1.1371 -0.2736
  124MOL0    Cl16280   5.486   6.633   3.309  0.3280 -0.1941 -0.4997
  124MOL0     C16281   6.065   6.579   2.444 -0.0577 -0.1039  0.8405
  124MOL0     C16282   6.158   6.525   2.353 -0.2015  0.0107  1.0190
  124MOL0     O16283   6.524   6.664   2.287 -0.2010  0.3531  0.2146
  124MOL0     C16284   6.685   6.605   2.063  0.7078  0.3368 -0.0268
  124MOL0     C16285   6.742   6.590   1.941 -0.7299 -0.3654  0.2623
  124MOL0     N16286   7.236   6.653   1.563 -0.2564  0.2742  0.3637
  124MOL0     N16287   7.258   6.716   1.459  0.0928  0.6375  0.1036
  124MOL0     C16288   6.966   6.085   1.368 -0.5993 -0.0186 -0.4563
  124MOL0     C16289   6.995   6.001   1.486  0.5431 -0.0769 -0.0748
  124MOL0     C16290   7.231   5.927   1.860  0.6361 -0.0128 -0.5362
  124MOL0     C16291   7.105   5.899   1.929 -0.5811 -0.4124  1.2429
  124MOL0     C16292   7.098   5.886   2.073  0.3368  0.0413  0.1363
  124MOL0     C16293   7.216   5.896   2.156  0.9026 -0.0797 -0.6597
  124MOL0     O16294   7.202   5.891   2.290 -0.1320 -0.1643  0.3841
  124MOL0     C16295   7.321   5.883   2.377 -0.4040  0.3317 -0.7469
  124MOL0     C16296   7.396   5.754   2.355  0.8691 -0.6423 -0.5976
  124MOL0     C16297   7.500   5.722   2.472  0.8353  0.1876  0.2279
  124MOL0     C16298   7.593   5.604   2.443 -0.1378  0.2306  0.2389
  124MOL0     C16299   7.698   5.644   2.343 -1.5050  1.0093 -0.6004
  124MOL0     C16300   7.780   5.679   2.259 -1.0543 -0.4858 -0.2221
  124MOL0     C16301   7.332   5.926   2.080  1.2572 -0.3461 -0.6707
  124MOL0     C16302   7.345   5.948   1.943  0.0374  0.9198  0.9911
  124MOL0     H16303   7.299   5.896   1.432  0.7176  0.5277 -0.1244
  124MOL0     H16304   7.282   6.034   1.224  0.5376 -1.1800 -0.8075
  124MOL0     H16305   7.158   6.132   0.995 -2.2478 -0.9385 -0.9441
  124MOL0     H16306   7.237   6.237   1.117  0.8467 -2.7846 -1.4005
  124MOL0     H16307   6.986   6.321   0.965  0.4199  0.0192 -3.7666
  124MOL0     H16308   7.146   6.347   0.904  0.0774  1.0363 -0.7704
  124MOL0     H16309   7.164   6.475   1.164 -1.6088  0.7857  1.2667
  124MOL0     H16310   6.989   6.452   1.145  0.3452 -2.4724  0.3031
  124MOL0     H16311   7.148   6.585   0.911 -1.0931 -5.8891 -0.3752
  124MOL0     H16312   6.990   6.607   0.939  1.5122 -0.4421 -3.2417
  124MOL0     H16313   7.100   6.809   1.022  2.8529  1.4665  1.2172
  124MOL0     H16314   7.201   6.700   1.129  1.2184 -2.1553 -2.1883
  124MOL0     H16315   6.989   6.665   1.269  0.4966  0.9415  1.7978
  124MOL0     H16316   6.899   6.752   1.145  0.7248  0.6357 -2.2685
  124MOL0     H16317   6.993   6.963   1.212  1.0994 -0.7138 -0.4498
  124MOL0     H16318   6.941   6.890   1.351  0.2054  0.2822  0.1227
  124MOL0     H16319   7.163   7.008   1.390  1.9013  0.9873 -2.9326
  124MOL0     H16320   7.232   6.884   1.284 -0.5496 -2.4168  0.8544
  124MOL0     H16321   7.016   6.895   1.603  0.0166 -0.2957  0.5112
  124MOL0     H16322   7.006   6.710   1.819  1.6401  2.1770  0.8021
  124MOL0     H16323   7.178   6.680   1.853  1.5519 -0.4508 -0.8804
  124MOL0     H16324   7.017   6.472   1.859 -1.7770 -2.5572 -1.3970
  124MOL0     H16325   7.156   6.468   1.747  1.1553  1.0583  3.3976
  124MOL0     H16326   7.012   6.488   1.563  2.5016  0.8136  0.5221
  124MOL0     H16327   6.933   6.374   1.663  1.7595 -0.1415 -2.5454
  124MOL0     H16328   6.812   6.610   1.560 -2.9383 -0.0080  1.0913
  124MOL0     H16329   6.839   6.678   1.701 -2.3403  1.3467 -2.5300
  124MOL0     H16330   6.506   6.441   1.760  0.6089 -0.9186  0.6918
  124MOL0     H16331   6.368   6.508   1.966 -0.0926  0.3330 -1.9599
  124MOL0     H16332   6.342   6.806   2.323  0.2832 -1.2353 -1.5446
  124MOL0     H16333   6.188   6.896   2.474 -0.9573  0.4534 -1.1802
  124MOL0     H16334   6.130   6.745   2.752  1.1568 -4.4674  0.5310
  124MOL0     H16335   6.033   6.602   2.731  3.7479 -1.3475  0.8276
  124MOL0     H16336   5.911   6.858   2.792 -0.7640  0.2474  1.7783
  124MOL0     H16337   5.991   6.756   2.915  0.9324  0.9547 -0.6001
  124MOL0     H16338   5.850   6.563   2.861  0.9817 -0.4575  0.2343
  124MOL0     H16339   5.746   6.667   2.755 -0.4618  1.2106  0.8774
  124MOL0     H16340   5.662   6.604   2.979 -1.6563  0.9528 -0.1658
  124MOL0     H16341   5.785   6.710   3.046 -2.0138 -1.6256  2.4774
  124MOL0     H16342   5.564   6.792   2.852  1.4704  0.4301 -0.7869
  124MOL0     H16343   5.682   6.900   2.939  0.5110  0.0319  1.3448
  124MOL0     H16344   5.467   6.743   3.057 -0.4574  0.8057  1.2255
  124MOL0     H16345   5.474   6.921   3.017  1.0699  1.4655  1.4546
  124MOL0     H16346   5.686   6.791   3.197  1.7056  1.1504  1.0073
  124MOL0     H16347   5.645   6.955   3.176  1.8545 -2.1166 -0.1427
  124MOL0     H16348   5.411   6.858   3.282 -0.0481  1.6704  0.4489
  124MOL0     H16349   5.551   6.852   3.393  0.1908  0.1739 -0.0661
  124MOL0     H16350   5.996   6.515   2.498  0.8480 -2.3835 -0.5658
  124MOL0     H16351   6.147   6.421   2.322 -0.0830  0.6305 -1.1986
  124MOL0     H16352   6.742   6.651   2.143 -0.7576  2.8796 -0.3380
  124MOL0     H16353   6.847   6.613   1.933 -0.6597 -0.5471  0.6264
  124MOL0     H16354   6.868   6.123   1.344 -1.7912 -1.8375  1.1526
  124MOL0     H16355   6.921   5.991   1.565 -1.6768 -0.9447 -2.1223
  124MOL0     H16356   7.020   5.878   1.865 -2.3221 -0.6906  3.5326
  124MOL0     H16357   7.003   5.878   2.124 -0.4996 -0.3333 -1.3964
  124MOL0     H16358   7.284   5.888   2.480  2.4950 -0.0622  0.4131
  124MOL0     H16359   7.390   5.969   2.377 -0.6783  0.5529 -0.6758
  124MOL0     H16360   7.318   5.677   2.360 -0.6713  0.8420 -0.8564
  124MOL0     H16361   7.444   5.757   2.257  0.6597 -1.8345 -0.7568
  124MOL0     H16362   7.450   5.704   2.567  0.5559  1.5995  0.3772
  124MOL0     H16363   7.563   5.812   2.480  2.6364 -1.0903  0.9221
  124MOL0     H16364   7.634   5.566   2.537  2.7153  1.3776 -0.4194
  124MOL0     H16365   7.534   5.527   2.393 -1.1514  1.7483 -1.0113
  124MOL0     H16366   7.853   5.700   2.182  1.1395  0.2361  1.9193
  124MOL0     H16367   7.427   5.941   2.131  1.5641  1.6087 -1.7157
  124MOL0     H16368   7.444   5.961   1.901  1.1544 -5.1293  0.8395
  125MOL0     O16369   7.764   7.940   2.127  0.2184  0.5344 -0.3514
  125MOL0     C16370   7.783   7.825   2.080  0.2189 -0.4218  1.5524
  125MOL0     O16371   7.771   7.708   2.142  0.2705 -0.6378  0.4073
  125MOL0     C16372   7.735   7.691   2.271 -0.1809 -0.6629  0.2155
  125MOL0     C16373   7.771   7.576   2.339 -0.6737 -0.3004  1.1186
  125MOL0     C16374   7.728   7.538   2.471 -0.5214  0.7298  0.4111
  125MOL0     C16375   7.644   7.626   2.543 -0.5903  0.6990 -0.1495
  125MOL0     O16376   7.597   7.594   2.669 -0.8625 -0.0166  0.4089
  125MOL0     C16377   7.688   7.527   2.754 -0.5405 -0.0718 -0.7813
  125MOL0     C16378   7.601   7.470   2.860  0.1893  0.2782 -1.0441
  125MOL0     C16379   7.669   7.375   2.953  0.3523  0.2611 -1.6265
  125MOL0     C16380   7.583   7.352   3.077 -0.6135 -0.7802  0.6353
  125MOL0     C16381   7.594   7.463   3.182 -0.2219 -0.1664 -0.5962
  125MOL0     C16382   7.600   7.398   3.321  0.5177 -0.2309  0.1209
  125MOL0     C16383   7.469   7.321   3.348  0.7621 -0.2897  0.2277
  125MOL0     C16384   7.463   7.269   3.492 -0.5415  0.9647 -0.0180
  125MOL0     N16385   7.511   7.359   3.597  0.4775 -0.8157  0.1454
  125MOL0     C16386   7.444   7.487   3.609  0.4347  0.1499 -0.8288
  125MOL0     C16387   7.490   7.535   3.728  0.1925 -0.2665  0.2896
  125MOL0     C16388   7.446   7.650   3.803 -0.9485  0.2435  0.6495
  125MOL0     C16389   7.339   7.614   3.910  1.5114 -0.3270  0.6626
  125MOL0     C16390   7.385   7.608   4.048  0.8329  0.0676  0.0600
  125MOL0     C16391   7.274   7.577   4.146 -0.2735  0.6907  0.0838
  125MOL0     O16392   7.334   7.576   4.279  0.2926  0.0817 -0.5174
  125MOL0     C16393   7.243   7.611   4.383  1.4250 -0.0329  0.0567
  125MOL0     C16394   7.284   7.700   4.478 -0.1039 -0.0976  0.7500
  125MOL0     C16395   7.192   7.733   4.572  0.5858  0.0986 -0.3532
  125MOL0     C16396   7.070   7.660   4.592 -0.3400  0.6303  0.3504
  125MOL0     C16397   6.987   7.684   4.707  0.3282  0.1956  0.3821
  125MOL0     O16398   7.007   7.801   4.778 -0.5037  0.0234 -0.1740
  125MOL0     C16399   6.957   7.804   4.902  1.0512 -0.3752 -0.1951
  125MOL0     C16400   7.029   7.747   5.012 -0.7923  0.7385  0.1837
  125MOL0     C16401   6.966   7.744   5.137  1.0301  0.0243  0.4086
  125MOL0     C16402   6.846   7.808   5.159 -0.3763  1.2503 -0.2359
  125MOL0     O16403   6.795   7.820   5.281  0.2349  0.0161  0.5377
  125MOL0     C16404   6.802   7.711   5.376  0.4431  0.7180 -0.6810
  125MOL0     C16405   6.713   7.730   5.494 -0.4674  0.5557 -0.3641
  125MOL0     C16406   6.575   7.779   5.447 -0.4966 -0.5493  0.3563
  125MOL0     C16407   6.556   7.929   5.470  0.2789  0.2448 -0.7930
  125MOL0     C16408   6.436   7.992   5.385 -0.3292  0.2011  0.8659
  125MOL0     C16409   6.444   8.060   5.246  0.3531  0.1231  0.0620
  125MOL0     C16410   6.318   8.137   5.219  0.0790 -0.2179 -0.4910
  125MOL0     C16411   6.334   8.227   5.091  0.0879 -0.9545 -0.3717
  125MOL0    Cl16412   6.192   8.331   5.043 -0.1878  0.0786  0.2958
  125MOL0     C16413   6.775   7.874   5.052  0.7872  0.0345 -0.7357
  125MOL0     C16414   6.836   7.862   4.921  0.1311  0.6294 -0.1633
  125MOL0     O16415   6.918   7.584   4.745  0.6192 -1.3077 -0.2885
  125MOL0     C16416   7.037   7.568   4.497  0.4901 -0.2598  1.2519
  125MOL0     C16417   7.126   7.540   4.399 -0.6051 -1.0213 -0.2396
  125MOL0     N16418   7.587   7.452   3.786  0.8450  0.0257  0.2650
  125MOL0     N16419   7.594   7.346   3.706 -0.1246  1.0278 -0.7057
  125MOL0     C16420   7.620   7.753   2.488  0.0108 -0.1083 -0.2258
  125MOL0     C16421   7.668   7.779   2.353  1.0296 -0.2249 -0.6031
  125MOL0     C16422   7.822   7.817   1.934  0.4869  0.0962  0.5756
  125MOL0     C16423   7.771   7.701   1.870  0.5118 -0.4734  1.3699
  125MOL0     C16424   7.810   7.675   1.731 -0.6474 -0.8898 -0.7741
  125MOL0     C16425   7.903   7.767   1.661  0.4297 -0.2131  0.6429
  125MOL0     O16426   7.934   7.730   1.535  0.1851  0.3598  0.1762
  125MOL0     C16427   7.988   7.836   1.451  0.2342  0.0818  0.2796
  125MOL0     C16428   7.987   7.809   1.305 -0.4605 -0.8457  0.3700
  125MOL0     C16429   8.007   7.937   1.212  0.6479  0.1031 -0.0048
  125MOL0     C16430   8.145   8.011   1.233 -0.5065 -0.4312 -0.3170
  125MOL0     C16431   8.145   8.120   1.131 -1.1800  0.2149 -0.9210
  125MOL0     C16432   8.159   8.208   1.039 -0.2740  0.5734 -0.6877
  125MOL0     C16433   7.948   7.874   1.731 -0.6295 -0.8342 -0.7519
  125MOL0     C16434   7.908   7.905   1.869  0.3893 -0.3132  0.0331
  125MOL0     H16435   7.838   7.516   2.278 -1.1612  1.2481 -1.0730
  125MOL0     H16436   7.774   7.450   2.514  1.0682  0.6515 -1.3085
  125MOL0     H16437   7.768   7.591   2.793 -0.5437 -1.1646  1.1807
  125MOL0     H16438   7.730   7.438   2.706  0.1134 -1.4041  2.0307
  125MOL0     H16439   7.519   7.408   2.823  0.0121 -0.5967  0.7267
  125MOL0     H16440   7.559   7.554   2.915  3.2045  1.5475 -0.4654
  125MOL0     H16441   7.769   7.403   2.988  1.4809  0.5592 -4.6997
  125MOL0     H16442   7.680   7.276   2.908 -1.3026 -1.6407  1.7906
  125MOL0     H16443   7.477   7.345   3.050 -1.2734 -0.0547  2.7914
  125MOL0     H16444   7.623   7.262   3.124  1.4254  1.2012  3.0136
  125MOL0     H16445   7.504   7.525   3.170 -2.3901 -3.3041 -2.2356
  125MOL0     H16446   7.682   7.527   3.176 -0.7169  0.7508  1.2360
  125MOL0     H16447   7.623   7.485   3.384  0.9144  0.2341 -0.6465
  125MOL0     H16448   7.684   7.330   3.336  0.5160 -0.1187  0.6535
  125MOL0     H16449   7.381   7.383   3.331  0.6586 -0.3324  0.6047
  125MOL0     H16450   7.472   7.234   3.282 -1.2654 -1.7124  1.8739
  125MOL0     H16451   7.537   7.189   3.495 -3.0009 -1.4284  1.0159
  125MOL0     H16452   7.360   7.238   3.512  0.3705 -3.1924 -0.9766
  125MOL0     H16453   7.366   7.513   3.538 -0.3730 -3.0302 -1.2780
  125MOL0     H16454   7.393   7.722   3.740 -4.7241 -2.5147  0.3006
  125MOL0     H16455   7.531   7.699   3.852 -0.2375  1.0512 -1.3053
  125MOL0     H16456   7.314   7.513   3.875  0.3653 -0.1792  1.0219
  125MOL0     H16457   7.254   7.681   3.898  0.9122 -1.3274 -1.0280
  125MOL0     H16458   7.460   7.531   4.065 -0.6549 -1.4798 -0.0897
  125MOL0     H16459   7.424   7.708   4.070 -3.5285  2.6546 -2.3103
  125MOL0     H16460   7.234   7.477   4.128 -2.7914  1.3061  1.7992
  125MOL0     H16461   7.193   7.650   4.150 -3.2362 -2.3536 -0.1192
  125MOL0     H16462   7.383   7.743   4.468  0.8117 -1.8685  1.7796
  125MOL0     H16463   7.212   7.812   4.644 -2.8042 -0.7126  1.6840
  125MOL0     H16464   7.122   7.697   4.987 -0.6987 -0.0734  2.0197
  125MOL0     H16465   7.017   7.690   5.216  2.6582 -1.0737 -1.2705
  125MOL0     H16466   6.896   7.707   5.431 -0.4800 -0.4643  0.9021
  125MOL0     H16467   6.783   7.616   5.325  0.7754  0.5095 -0.4172
  125MOL0     H16468   6.752   7.804   5.565 -0.8680 -3.4096  4.5181
  125MOL0     H16469   6.697   7.641   5.555 -0.9264  1.3370  0.7039
  125MOL0     H16470   6.486   7.733   5.491 -1.7326  0.3304 -1.0990
  125MOL0     H16471   6.564   7.747   5.343 -0.2118 -0.5168  0.3180
  125MOL0     H16472   6.531   7.930   5.577  1.6126 -0.3476 -0.4560
  125MOL0     H16473   6.643   7.995   5.460  1.0907 -0.3256  1.7166
  125MOL0     H16474   6.399   8.077   5.444 -0.7931  1.5655 -1.2683
  125MOL0     H16475   6.361   7.914   5.378  1.2349 -1.2127 -2.7213
  125MOL0     H16476   6.456   7.975   5.179  1.4346  1.8398 -2.0431
  125MOL0     H16477   6.528   8.130   5.259 -1.7368  2.8798 -0.4624
  125MOL0     H16478   6.240   8.061   5.210 -2.6708  1.9206  2.7835
  125MOL0     H16479   6.289   8.199   5.304 -1.3804 -1.7084  0.1518
  125MOL0     H16480   6.355   8.158   5.009 -0.4170 -0.8730 -0.5753
  125MOL0     H16481   6.422   8.292   5.100 -0.3170  0.1281 -3.2295
  125MOL0     H16482   6.683   7.916   5.091  2.2473  0.7952  2.2301
  125MOL0     H16483   6.788   7.905   4.834 -0.4230 -0.5755 -0.4607
  125MOL0     H16484   6.944   7.513   4.501  0.0085  0.2269 -1.4216
  125MOL0     H16485   7.089   7.478   4.319 -1.2279  0.1463 -0.8837
  125MOL0     H16486   7.565   7.827   2.544  2.0563  0.1501  1.5908
  125MOL0     H16487   7.637   7.881   2.331 -4.1892 -1.1493  0.9873
  125MOL0     H16488   7.709   7.627   1.918 -0.3039  0.8938  2.5095
  125MOL0     H16489   7.771   7.585   1.683  1.6623 -2.0764 -0.5565
  125MOL0     H16490   8.092   7.839   1.484 -0.3229 -1.4249  2.4082
  125MOL0     H16491   7.939   7.931   1.474 -1.6728 -0.7794 -0.0007
  125MOL0     H16492   8.066   7.737   1.280  1.6217  0.5986  2.4368
  125MOL0     H16493   7.892   7.756   1.289  0.2600 -2.6731  1.8476
  125MOL0     H16494   7.937   8.008   1.256  1.0092  0.4900 -0.0454
  125MOL0     H16495   7.978   7.913   1.109 -0.0513  0.1027  0.1928
  125MOL0     H16496   8.166   8.043   1.335 -0.6828 -1.2157 -0.0346
  125MOL0     H16497   8.228   7.947   1.203  0.0139  0.2500 -0.3758
  125MOL0     H16498   8.146   8.291   0.973 -2.6335  0.0349 -0.9652
  125MOL0     H16499   8.006   7.955   1.688 -1.5004  0.9917  1.3120
  125MOL0     H16500   7.949   7.995   1.914 -1.1384  0.6120 -0.3355
  126MOL0     O16501   5.278   2.438   4.244 -0.1594 -0.0659  0.0464
  126MOL0     C16502   5.314   2.403   4.133 -0.5476 -0.4280  1.0642
  126MOL0     O16503   5.290   2.475   4.011  0.7927  0.7122  0.2517
  126MOL0     C16504   5.235   2.605   4.010  0.6726 -0.2660 -0.0473
  126MOL0     C16505   5.315   2.711   4.049 -0.5393 -0.7043  0.3733
  126MOL0     C16506   5.268   2.849   4.035  0.3845 -0.9865  0.0460
  126MOL0     C16507   5.153   2.867   3.970  0.3065  0.7710  0.5571
  126MOL0     O16508   5.117   2.998   3.949  0.0923  0.5813 -0.6574
  126MOL0     C16509   5.091   3.043   3.812 -0.0868 -0.6426  0.1506
  126MOL0     C16510   5.060   3.189   3.830  0.3096 -0.6370  0.4821
  126MOL0     C16511   5.007   3.265   3.703  0.2211  0.3920  0.9689
  126MOL0     C16512   5.108   3.264   3.593 -0.0467  0.0587  1.0248
  126MOL0     C16513   5.047   3.328   3.469 -0.0812  0.1289 -0.1229
  126MOL0     C16514   5.042   3.479   3.466  0.1316  0.3079 -0.3910
  126MOL0     C16515   5.172   3.536   3.400  0.1483 -0.9407  0.3017
  126MOL0     C16516   5.152   3.689   3.373  0.0959 -0.5621 -0.3006
  126MOL0     N16517   5.281   3.747   3.327 -0.1855  0.9290 -0.2056
  126MOL0     C16518   5.307   3.832   3.225 -0.3365 -0.2413 -0.3457
  126MOL0     C16519   5.441   3.855   3.228 -0.9738  0.3508 -0.1747
  126MOL0     C16520   5.497   3.954   3.138 -0.0978  0.0423  0.4179
  126MOL0     C16521   5.506   3.903   2.994 -0.6129  0.5451 -0.6837
  126MOL0     C16522   5.592   4.002   2.910 -0.8309  0.4742  0.4247
  126MOL0     C16523   5.575   3.995   2.755 -0.8157 -0.5864 -0.9015
  126MOL0     O16524   5.669   4.081   2.691 -0.3088 -0.1439  0.6366
  126MOL0     C16525   5.643   4.113   2.559  0.3280 -0.6306 -0.4018
  126MOL0     C16526   5.571   4.039   2.465  0.3394  0.1076 -0.6899
  126MOL0     C16527   5.550   4.093   2.343  0.2776 -0.0218 -1.1496
  126MOL0     C16528   5.584   4.223   2.303  0.6365  0.1797 -0.0506
  126MOL0     C16529   5.534   4.278   2.173 -0.4255 -0.0024 -0.7605
  126MOL0     O16530   5.562   4.409   2.140 -0.3189  0.2442 -0.4058
  126MOL0     C16531   5.512   4.454   2.022 -0.2008  0.2015  0.5244
  126MOL0     C16532   5.444   4.578   2.025  1.0114  0.6891  0.3231
  126MOL0     C16533   5.375   4.627   1.914  0.8826 -0.1003  0.0589
  126MOL0     C16534   5.361   4.554   1.793 -0.0863 -0.4878  0.2533
  126MOL0     O16535   5.290   4.607   1.685 -0.5654  0.0284 -0.7250
  126MOL0     C16536   5.194   4.707   1.707 -0.3621 -0.0680 -0.2985
  126MOL0     C16537   5.111   4.739   1.581  0.5898  0.3128 -0.9653
  126MOL0     C16538   5.201   4.797   1.468  0.0067 -0.1918 -0.0985
  126MOL0     C16539   5.127   4.819   1.339 -0.5446 -0.5794 -0.0338
  126MOL0     C16540   5.216   4.884   1.234  0.4019 -0.0098 -0.3406
  126MOL0     C16541   5.132   4.938   1.111 -0.1879 -0.0389 -0.1039
  126MOL0     C16542   5.043   4.840   1.036  0.0953 -0.5149 -0.0148
  126MOL0     C16543   5.119   4.736   0.966 -0.7708  0.8849  0.7515
  126MOL0    Cl16544   4.995   4.644   0.855  0.3340  0.1927  0.3894
  126MOL0     C16545   5.435   4.437   1.785  1.1776 -0.6206 -0.0547
  126MOL0     C16546   5.506   4.388   1.895 -0.0221  0.0834 -0.1290
  126MOL0     O16547   5.479   4.197   2.104  0.5413 -0.4080  0.8744
  126MOL0     C16548   5.635   4.296   2.398 -0.4245 -1.1266 -0.4460
  126MOL0     C16549   5.672   4.248   2.519  0.1257  0.4255  0.0475
  126MOL0     N16550   5.494   3.784   3.328  0.3910  0.0887  0.3938
  126MOL0     N16551   5.399   3.722   3.392  0.1146  0.2630  0.0065
  126MOL0     C16552   5.083   2.760   3.908  0.4681 -0.4722 -0.1347
  126MOL0     C16553   5.115   2.625   3.933 -0.2009 -0.9887  0.3817
  126MOL0     C16554   5.393   2.283   4.104  0.0122  0.2019  0.4271
  126MOL0     C16555   5.415   2.227   3.985 -0.7694 -0.0725 -0.0557
  126MOL0     C16556   5.509   2.117   3.966  0.0343  0.3530  0.5260
  126MOL0     C16557   5.590   2.082   4.072  0.2200  0.3882  0.5452
  126MOL0     O16558   5.681   1.974   4.060 -1.1769 -0.2201  0.0346
  126MOL0     C16559   5.778   1.976   3.960  1.0011 -0.4332  0.6756
  126MOL0     C16560   5.903   1.894   3.986  0.5435  0.0187  0.6889
  126MOL0     C16561   5.878   1.741   3.974  0.3513  1.1911 -0.0788
  126MOL0     C16562   6.020   1.666   3.980  0.1398  0.0284 -0.1143
  126MOL0     C16563   5.997   1.528   3.950 -0.2954 -0.2439  0.0608
  126MOL0     C16564   5.979   1.417   3.919 -0.5454  0.1142  0.5710
  126MOL0     C16565   5.565   2.130   4.196  0.2340  0.1881  1.2576
  126MOL0     C16566   5.472   2.231   4.213  0.5094  0.2382 -0.4787
  126MOL0     H16567   5.409   2.692   4.098 -0.5465 -1.2899  0.1620
  126MOL0     H16568   5.328   2.934   4.068 -0.0485  1.0527 -3.7526
  126MOL0     H16569   5.001   2.990   3.778 -0.8107 -0.0341  1.0661
  126MOL0     H16570   5.170   3.020   3.739 -2.0515  1.2578 -2.7786
  126MOL0     H16571   5.145   3.244   3.871 -2.1455  2.7532  1.5350
  126MOL0     H16572   4.980   3.202   3.904 -1.6575  0.4496 -1.7223
  126MOL0     H16573   4.986   3.368   3.733  1.4800 -0.1031  4.0008
  126MOL0     H16574   4.916   3.213   3.674  2.6996 -4.2240  0.5082
  126MOL0     H16575   5.201   3.316   3.618 -1.0157  1.7902  1.2342
  126MOL0     H16576   5.124   3.158   3.572  4.3112  0.7009  0.1784
  126MOL0     H16577   4.950   3.280   3.454 -0.5020  1.6520 -3.0175
  126MOL0     H16578   5.111   3.291   3.388  2.1227  0.4583  1.3662
  126MOL0     H16579   5.014   3.514   3.565 -1.5177 -3.1143  0.5219
  126MOL0     H16580   4.972   3.513   3.389  1.9357 -0.5370 -2.5344
  126MOL0     H16581   5.254   3.528   3.472  1.1000 -0.8778 -0.7582
  126MOL0     H16582   5.198   3.496   3.302 -1.2828  0.9402 -0.9221
  126MOL0     H16583   5.133   3.741   3.467 -4.0644  1.3415 -1.9834
  126MOL0     H16584   5.066   3.696   3.306  1.0421 -3.9535 -2.1094
  126MOL0     H16585   5.221   3.876   3.176 -1.3523 -2.4117 -0.6173
  126MOL0     H16586   5.598   3.969   3.178  0.4074  0.2219 -0.8768
  126MOL0     H16587   5.431   4.042   3.140 -1.7284 -1.1317  0.2828
  126MOL0     H16588   5.404   3.892   2.956 -2.4905 -1.7201  4.1104
  126MOL0     H16589   5.555   3.805   2.995  0.8479  1.1894  2.5363
  126MOL0     H16590   5.560   4.105   2.930  3.5366  2.3037 -0.7718
  126MOL0     H16591   5.695   3.977   2.937 -2.2826 -2.0427  4.5819
  126MOL0     H16592   5.471   4.024   2.736 -0.1216  4.4965  1.3028
  126MOL0     H16593   5.600   3.894   2.722 -1.7779 -0.1530 -3.1422
  126MOL0     H16594   5.547   3.934   2.480 -1.0719  0.3696 -1.0029
  126MOL0     H16595   5.504   4.019   2.279 -2.1960 -0.9595  1.4684
  126MOL0     H16596   5.446   4.638   2.116 -0.6988  1.1496  0.0759
  126MOL0     H16597   5.320   4.721   1.914  1.0673  0.0142 -0.5759
  126MOL0     H16598   5.243   4.797   1.745 -3.1404  1.1569  0.6706
  126MOL0     H16599   5.129   4.668   1.787  2.9842 -3.6345  0.9970
  126MOL0     H16600   5.024   4.800   1.607 -0.8436 -1.3894 -1.5919
  126MOL0     H16601   5.070   4.643   1.548  1.7633 -0.9356  0.9714
  126MOL0     H16602   5.296   4.743   1.462  1.1393  1.2989  2.4528
  126MOL0     H16603   5.223   4.899   1.502  0.9959 -0.5921  0.4895
  126MOL0     H16604   5.084   4.727   1.297 -0.0911 -0.4274 -0.8614
  126MOL0     H16605   5.054   4.898   1.362  0.7132  0.3327  0.9453
  126MOL0     H16606   5.303   4.825   1.204  0.0656 -0.4367 -0.5029
  126MOL0     H16607   5.260   4.972   1.282 -0.8060 -2.4305  6.3808
  126MOL0     H16608   5.200   4.984   1.039  3.8302 -4.5690  0.2844
  126MOL0     H16609   5.073   5.017   1.158  0.7891 -0.9004  2.7907
  126MOL0     H16610   4.965   4.808   1.106 -1.1038  2.6708  0.2758
  126MOL0     H16611   4.983   4.898   0.965 -0.1420 -0.8150 -0.0655
  126MOL0     H16612   5.165   4.656   1.025 -0.6491 -2.5944 -3.4869
  126MOL0     H16613   5.203   4.773   0.906 -2.0580  2.1650 -0.3172
  126MOL0     H16614   5.437   4.382   1.691  1.8802 -1.1076  0.2381
  126MOL0     H16615   5.562   4.297   1.880 -0.6777 -0.3427 -0.0143
  126MOL0     H16616   5.658   4.398   2.368 -1.2579 -1.2365 -1.5311
  126MOL0     H16617   5.719   4.309   2.595  0.6680 -1.1906  1.0742
  126MOL0     H16618   4.986   2.781   3.864  0.8605  1.4675 -0.1412
  126MOL0     H16619   5.053   2.541   3.902 -2.6932  1.0866 -0.6770
  126MOL0     H16620   5.358   2.256   3.897 -0.6845 -0.8537 -0.3765
  126MOL0     H16621   5.532   2.061   3.876  1.2909  0.1204  0.9803
  126MOL0     H16622   5.786   2.084   3.943 -0.4689 -0.1844  1.4412
  126MOL0     H16623   5.744   1.933   3.866  2.5312  0.4184 -0.3138
  126MOL0     H16624   5.983   1.916   3.916 -0.3213  1.2581  0.0460
  126MOL0     H16625   5.935   1.919   4.088  0.9610  1.9207  0.1323
  126MOL0     H16626   5.853   1.699   3.876  5.5551 -4.0017  0.2587
  126MOL0     H16627   5.808   1.710   4.053 -0.5122  3.1878 -0.0130
  126MOL0     H16628   6.092   1.702   3.906 -1.6936 -0.1751 -2.1141
  126MOL0     H16629   6.056   1.677   4.083  0.3431 -0.7617 -0.1000
  126MOL0     H16630   5.982   1.319   3.875  2.2557  0.4436 -0.1226
  126MOL0     H16631   5.617   2.082   4.279  0.8678 -1.0851  0.1627
  126MOL0     H16632   5.450   2.281   4.307  0.2934  0.2826 -0.5500
  127MOL0     O16633  10.674   8.828   2.891 -0.3866 -0.8950  0.4409
  127MOL0     C16634  10.682   8.921   2.969 -0.8906  0.0786 -0.7114
  127MOL0     O16635  10.596   9.026   2.970 -0.4823  0.5749 -0.8078
  127MOL0     C16636  10.489   9.027   2.879  1.4109  0.9040 -0.3962
  127MOL0     C16637  10.361   8.980   2.922 -0.3849 -0.4191  0.0567
  127MOL0     C16638  10.248   8.993   2.847  0.6624 -0.6869  0.5974
  127MOL0     C16639  10.255   9.039   2.715  0.9451 -0.1597  0.1389
  127MOL0     O16640  10.139   9.039   2.637  0.3007 -0.0065  0.3637
  127MOL0     C16641  10.153   9.022   2.496 -0.3693 -0.6581 -0.3526
  127MOL0     C16642  10.017   8.996   2.432  0.2924 -0.4538 -0.9406
  127MOL0     C16643   9.903   8.991   2.540 -0.3009 -0.2766  0.2698
  127MOL0     C16644   9.772   8.962   2.461  0.4301 -0.3185 -0.1342
  127MOL0     C16645   9.729   9.095   2.390  0.7824 -0.0852 -0.0048
  127MOL0     C16646   9.590   9.098   2.332  0.7347  0.1991 -0.0119
  127MOL0     C16647   9.576   9.050   2.183  0.4898 -0.2283 -1.0582
  127MOL0     C16648   9.458   8.958   2.154 -0.0506  0.2876  0.2694
  127MOL0     N16649   9.341   9.037   2.142  0.7599  0.0830 -0.3049
  127MOL0     C16650   9.262   9.053   2.252  0.1043 -0.6144  0.1934
  127MOL0     C16651   9.177   9.156   2.210  1.3188 -0.4242  0.4960
  127MOL0     C16652   9.062   9.209   2.288  0.0914  0.1023  0.0417
  127MOL0     C16653   9.104   9.352   2.327  1.1202 -0.1499 -0.9006
  127MOL0     C16654   9.202   9.354   2.440 -0.0866 -0.9336  0.0646
  127MOL0     C16655   9.129   9.355   2.575  0.8698 -0.0498 -0.4130
  127MOL0     O16656   9.062   9.229   2.605  0.6493  0.8375  0.4360
  127MOL0     C16657   8.946   9.242   2.685 -0.0414 -0.1720 -0.3042
  127MOL0     C16658   8.817   9.199   2.642  0.3527 -0.3942  0.8673
  127MOL0     C16659   8.705   9.186   2.723 -0.0322 -0.4499  0.3002
  127MOL0     C16660   8.714   9.225   2.865  0.4660 -0.6758 -0.7726
  127MOL0     C16661   8.594   9.212   2.951 -0.1845  0.6703  0.4185
  127MOL0     O16662   8.490   9.130   2.899 -0.2350  0.5957 -0.2379
  127MOL0     C16663   8.364   9.170   2.918  0.6016 -0.0396 -0.4220
  127MOL0     C16664   8.315   9.276   2.844  0.1144 -0.0150  0.4401
  127MOL0     C16665   8.179   9.295   2.843 -0.6938 -1.6891 -0.5226
  127MOL0     C16666   8.094   9.227   2.930  1.1559 -0.2555 -0.4947
  127MOL0     O16667   7.955   9.247   2.937 -1.4354 -0.0613  0.1693
  127MOL0     C16668   7.922   9.348   3.042 -0.7508  0.4975 -0.0496
  127MOL0     C16669   7.863   9.282   3.170  0.4299 -0.3516 -0.4366
  127MOL0     C16670   7.720   9.236   3.159  0.1723 -1.2266  0.1191
  127MOL0     C16671   7.703   9.138   3.279 -0.9733  0.0819 -0.0536
  127MOL0     C16672   7.554   9.113   3.303 -0.7510 -0.2044  0.2489
  127MOL0     C16673   7.474   9.073   3.173  0.1545 -0.0223  0.2045
  127MOL0     C16674   7.329   9.078   3.207 -0.0407  0.5404 -0.4387
  127MOL0     C16675   7.241   9.023   3.095  0.3212 -0.2326  0.1363
  127MOL0    Cl16676   7.247   8.836   3.077 -0.1057  0.7449  0.0165
  127MOL0     C16677   8.139   9.115   3.004  0.1756 -0.0039 -0.1825
  127MOL0     C16678   8.277   9.083   2.998  1.2253 -0.4968  0.2930
  127MOL0     O16679   8.583   9.295   3.035  0.0438 -0.1922 -0.1382
  127MOL0     C16680   8.835   9.271   2.906  0.2944  0.7138 -0.4553
  127MOL0     C16681   8.952   9.277   2.827  0.4484  0.0992 -0.3545
  127MOL0     N16682   9.198   9.193   2.075  0.1797 -0.1006 -0.6379
  127MOL0     N16683   9.307   9.125   2.047  0.8229 -0.4117 -0.2849
  127MOL0     C16684  10.379   9.078   2.661 -0.0062 -0.2716 -0.3806
  127MOL0     C16685  10.491   9.074   2.746 -0.1289 -0.6180 -1.1456
  127MOL0     C16686  10.797   8.920   3.061  0.9579 -0.4984 -0.2413
  127MOL0     C16687  10.825   9.015   3.165 -0.3609  0.1771  0.6896
  127MOL0     C16688  10.929   9.001   3.253 -0.8533  0.1341 -0.2521
  127MOL0     C16689  11.021   8.902   3.247  0.4097  0.7576 -0.3114
  127MOL0     O16690  11.131   8.903   3.326  0.5030  0.0907 -0.0455
  127MOL0     C16691  11.265   8.874   3.271 -0.2765  0.2615 -0.2347
  127MOL0     C16692  11.355   8.997   3.298  0.5318 -0.2216  0.6609
  127MOL0     C16693  11.392   9.011   3.446  0.5548  0.2882  0.3657
  127MOL0     C16694  11.287   9.070   3.547 -0.0437 -0.0001  0.3912
  127MOL0     C16695  11.335   9.098   3.683 -0.2580  0.3818  0.2294
  127MOL0     C16696  11.376   9.114   3.798  0.7130  0.2752  0.4119
  127MOL0     C16697  10.995   8.799   3.161  0.6984 -0.2594 -0.3874
  127MOL0     C16698  10.886   8.808   3.068 -0.2605  0.1406 -0.3464
  127MOL0     H16699  10.357   8.931   3.019 -0.3072 -2.1985 -0.7949
  127MOL0     H16700  10.161   8.948   2.894  0.3530 -1.1856 -0.4117
  127MOL0     H16701  10.222   8.939   2.477 -0.9931 -1.6438  1.4652
  127MOL0     H16702  10.192   9.113   2.450 -0.5789 -0.7732 -0.7737
  127MOL0     H16703  10.041   8.902   2.381  0.5390 -0.3150 -1.0816
  127MOL0     H16704   9.999   9.082   2.367 -1.8393 -0.9217 -1.0301
  127MOL0     H16705   9.902   9.078   2.606  2.2660 -1.8127  2.5711
  127MOL0     H16706   9.922   8.908   2.609 -1.1307 -0.9104 -0.2476
  127MOL0     H16707   9.777   8.878   2.392 -0.1590 -0.9970  0.6262
  127MOL0     H16708   9.698   8.929   2.534  0.3887  1.6339  0.7780
  127MOL0     H16709   9.798   9.119   2.309  0.0997  3.3598  0.2922
  127MOL0     H16710   9.746   9.182   2.454  2.1187  0.3102 -0.8366
  127MOL0     H16711   9.557   9.201   2.345  2.2900  0.5824  1.2690
  127MOL0     H16712   9.524   9.041   2.397  1.5584 -0.4774  0.2528
  127MOL0     H16713   9.577   9.140   2.122  0.1926  1.4218  1.2460
  127MOL0     H16714   9.655   8.979   2.156 -0.2541 -2.3131  1.8016
  127MOL0     H16715   9.451   8.879   2.228  0.1134 -0.3740 -0.4101
  127MOL0     H16716   9.480   8.902   2.062  0.0747 -1.6861  1.4567
  127MOL0     H16717   9.267   8.995   2.343 -1.1018 -0.7164  0.2121
  127MOL0     H16718   9.039   9.136   2.366 -0.2271  0.6884  0.5054
  127MOL0     H16719   8.975   9.196   2.223  0.5380  1.5941 -0.8832
  127MOL0     H16720   9.014   9.406   2.359  0.9897 -0.6123 -0.4779
  127MOL0     H16721   9.141   9.404   2.238  0.4799 -1.4368 -1.9583
  127MOL0     H16722   9.275   9.273   2.434  2.5503  1.3520 -1.0171
  127MOL0     H16723   9.258   9.448   2.434 -0.3123 -0.8472 -0.8349
  127MOL0     H16724   9.058   9.438   2.573 -1.1353 -1.6819 -2.2988
  127MOL0     H16725   9.199   9.383   2.654  0.4150 -0.3263  0.0913
  127MOL0     H16726   8.811   9.157   2.542 -1.0744 -0.0501  0.7956
  127MOL0     H16727   8.616   9.142   2.681  1.4467 -1.0894 -2.3736
  127MOL0     H16728   8.386   9.333   2.785 -1.7224 -0.4360 -2.3560
  127MOL0     H16729   8.154   9.373   2.772 -1.9594 -2.0922 -0.5495
  127MOL0     H16730   7.854   9.421   2.996 -2.1686 -1.1804 -0.7048
  127MOL0     H16731   8.018   9.399   3.061 -0.7098  0.7967 -1.0111
  127MOL0     H16732   7.870   9.357   3.250  0.8210 -1.2667  0.4004
  127MOL0     H16733   7.928   9.203   3.206 -0.2391 -0.5052  0.4663
  127MOL0     H16734   7.703   9.200   3.057  2.4262  1.2250 -1.2504
  127MOL0     H16735   7.659   9.327   3.170  1.2487 -0.7108  2.2176
  127MOL0     H16736   7.761   9.046   3.261 -0.4839  0.2583  0.5801
  127MOL0     H16737   7.744   9.198   3.361  2.7056  1.6641 -2.7595
  127MOL0     H16738   7.518   9.210   3.339  0.9173  0.5459 -0.0058
  127MOL0     H16739   7.536   9.042   3.384  0.1021 -1.2169 -0.4208
  127MOL0     H16740   7.493   8.970   3.139 -1.2812 -0.2937  0.1496
  127MOL0     H16741   7.488   9.142   3.090  3.7080 -3.5879 -2.5865
  127MOL0     H16742   7.311   9.013   3.294  1.8524  0.3873 -0.1261
  127MOL0     H16743   7.302   9.182   3.227 -0.1563  0.9040 -2.3361
  127MOL0     H16744   7.247   9.075   2.999  2.2806 -0.8226 -0.1023
  127MOL0     H16745   7.136   9.042   3.121  0.9062 -0.5880  3.1728
  127MOL0     H16746   8.071   9.039   3.041 -2.5289  1.5163 -1.7081
  127MOL0     H16747   8.306   8.997   3.058 -0.7217 -0.5141  1.3034
  127MOL0     H16748   8.850   9.302   3.009  1.8140 -0.0650 -0.4110
  127MOL0     H16749   9.049   9.312   2.863  0.7632 -2.4246  1.5443
  127MOL0     H16750  10.398   9.078   2.554 -2.2049 -1.4101 -0.8173
  127MOL0     H16751  10.585   9.107   2.703 -0.2728  0.9117 -0.3334
  127MOL0     H16752  10.762   9.103   3.176  0.1961  0.7005 -0.2157
  127MOL0     H16753  10.951   9.085   3.318  0.5167  0.6377 -1.3259
  127MOL0     H16754  11.263   8.869   3.162  1.7169  1.1614 -0.3599
  127MOL0     H16755  11.300   8.775   3.304  0.1281  0.1154 -1.0705
  127MOL0     H16756  11.443   9.005   3.234 -0.0871  3.4638  0.0687
  127MOL0     H16757  11.290   9.077   3.260 -0.5321 -0.3338  2.1386
  127MOL0     H16758  11.481   9.072   3.461  0.2201  0.9967 -0.4962
  127MOL0     H16759  11.427   8.915   3.486  2.8495  1.3216  1.0358
  127MOL0     H16760  11.224   9.151   3.509 -3.0919  0.2138  5.0768
  127MOL0     H16761  11.212   8.992   3.557  2.3086 -3.8368 -5.8632
  127MOL0     H16762  11.408   9.131   3.899 -0.3219  4.6017  0.2303
  127MOL0     H16763  11.066   8.717   3.169 -1.3648 -2.0300  1.0581
  127MOL0     H16764  10.876   8.731   2.993  0.3605  1.6612 -2.0634
  128MOL0     O16765   5.976   5.915   4.609  0.8619  0.0700  1.3793
  128MOL0     C16766   6.009   5.966   4.494 -0.6475 -0.9556  0.5628
  128MOL0     O16767   6.098   6.073   4.482  0.2245  0.2678  0.2654
  128MOL0     C16768   6.140   6.132   4.592 -0.2670 -0.6128  0.6438
  128MOL0     C16769   6.065   6.225   4.672  0.0575 -0.1447  0.9614
  128MOL0     C16770   6.123   6.289   4.774 -0.5215 -1.1303  0.2944
  128MOL0     C16771   6.256   6.268   4.811  0.2904 -0.4157 -0.4502
  128MOL0     O16772   6.299   6.348   4.914 -0.4717  0.2968 -0.6951
  128MOL0     C16773   6.442   6.336   4.952 -0.7629 -0.2246 -0.2483
  128MOL0     C16774   6.534   6.404   4.849 -0.3943  0.5356  0.5455
  128MOL0     C16775   6.604   6.530   4.898 -0.5824  0.7159  1.1283
  128MOL0     C16776   6.734   6.492   4.976  0.3699 -0.2056  0.1715
  128MOL0     C16777   6.819   6.615   5.028 -0.3039  0.0142  0.7681
  128MOL0     C16778   6.955   6.590   5.090 -0.2584  0.5777  0.0354
  128MOL0     C16779   7.070   6.563   4.989  0.0639 -1.6121  0.2166
  128MOL0     C16780   7.204   6.502   5.050 -0.0057  1.2248  0.3611
  128MOL0     N16781   7.174   6.399   5.148 -0.6534 -0.1291 -0.0101
  128MOL0     C16782   7.120   6.276   5.127 -0.4633  0.2555 -0.1383
  128MOL0     C16783   7.110   6.227   5.252 -0.0272 -0.0284  0.1099
  128MOL0     C16784   7.031   6.101   5.285 -0.4134  0.2885  1.0153
  128MOL0     C16785   6.879   6.143   5.274  1.3120 -0.2412 -1.6292
  128MOL0     C16786   6.797   6.021   5.232  0.0604 -0.0700 -0.4604
  128MOL0     C16787   6.653   6.051   5.268 -1.1941  0.1208 -0.2856
  128MOL0     O16788   6.567   5.939   5.258  0.1324 -0.5829 -0.4296
  128MOL0     C16789   6.510   5.889   5.148 -0.8025 -1.0287  0.2795
  128MOL0     C16790   6.449   5.772   5.177  0.1497 -0.5096 -0.6340
  128MOL0     C16791   6.393   5.697   5.073  0.4829 -0.0956 -0.4893
  128MOL0     C16792   6.407   5.747   4.944  0.7705 -0.1587  0.3536
  128MOL0     C16793   6.364   5.668   4.830  0.4736 -0.7931 -0.4701
  128MOL0     O16794   6.431   5.688   4.716 -0.3789  0.1697 -0.0551
  128MOL0     C16795   6.415   5.619   4.595  0.7156 -0.4051 -0.9425
  128MOL0     C16796   6.533   5.561   4.540 -0.0911  0.2390  0.4821
  128MOL0     C16797   6.506   5.482   4.423 -0.6362  0.9292 -0.2204
  128MOL0     C16798   6.375   5.477   4.360  0.5062 -0.5880 -0.8035
  128MOL0     O16799   6.363   5.415   4.241  0.1688  0.4062  0.0239
  128MOL0     C16800   6.240   5.341   4.215 -0.2922 -0.7716  1.5070
  128MOL0     C16801   6.256   5.238   4.101  0.9531 -0.3248 -0.4184
  128MOL0     C16802   6.111   5.191   4.064 -0.2656 -0.6306 -0.3310
  128MOL0     C16803   6.103   5.085   3.959 -0.4060 -1.2117  0.4916
  128MOL0     C16804   6.124   4.940   4.016  0.2271 -1.0466 -0.2235
  128MOL0     C16805   6.126   4.831   3.909  0.4730  0.2704  0.3754
  128MOL0     C16806   6.171   4.695   3.977 -0.8286  0.1965 -0.4101
  128MOL0     C16807   6.322   4.691   4.043  1.3757 -0.1285  0.3554
  128MOL0    Cl16808   6.348   4.544   4.124  0.2058 -0.1727 -0.4011
  128MOL0     C16809   6.265   5.540   4.417 -1.2045  1.2006 -0.4116
  128MOL0     C16810   6.285   5.601   4.533 -0.4216  0.2315 -1.0757
  128MOL0     O16811   6.276   5.584   4.840 -0.2314  0.2554 -0.5043
  128MOL0     C16812   6.458   5.876   4.920 -0.3830 -0.6751 -0.7632
  128MOL0     C16813   6.527   5.943   5.022  0.7568  0.4114  0.0638
  128MOL0     N16814   7.165   6.315   5.342  0.3807  0.1455 -0.2809
  128MOL0     N16815   7.209   6.415   5.281 -0.2763  0.0362  0.1980
  128MOL0     C16816   6.332   6.175   4.736 -0.6426  0.6299 -0.7219
  128MOL0     C16817   6.273   6.105   4.631  0.9295  0.2975 -0.3834
  128MOL0     C16818   5.952   5.905   4.377 -0.0680  0.1095 -0.9159
  128MOL0     C16819   5.977   5.961   4.254 -0.0623  0.0216  0.5668
  128MOL0     C16820   5.929   5.901   4.142  0.3480 -0.6864  0.0364
  128MOL0     C16821   5.848   5.788   4.151  0.5823  0.7028 -0.0138
  128MOL0     O16822   5.788   5.724   4.053  0.0782  0.1110  0.2583
  128MOL0     C16823   5.773   5.768   3.922  0.3612  0.0365  0.1557
  128MOL0     C16824   5.638   5.717   3.878 -0.7567 -0.2268  0.0581
  128MOL0     C16825   5.607   5.753   3.734  0.4850 -0.1022  1.1112
  128MOL0     C16826   5.665   5.660   3.620 -0.5137 -0.4559  0.6441
  128MOL0     C16827   5.802   5.690   3.585 -0.2124  0.1283  0.4324
  128MOL0     C16828   5.919   5.708   3.572 -0.5890  0.9905  0.2952
  128MOL0     C16829   5.812   5.737   4.275 -0.5568 -0.7823  0.1335
  128MOL0     C16830   5.866   5.803   4.389  1.2674 -0.0624 -0.7067
  128MOL0     H16831   5.962   6.247   4.649  1.1972  3.8410 -1.2578
  128MOL0     H16832   6.068   6.369   4.823  1.6419  1.0274 -0.6056
  128MOL0     H16833   6.479   6.234   4.967 -3.0040 -1.3304 -1.6866
  128MOL0     H16834   6.467   6.375   5.051 -0.0764 -0.2281 -0.4148
  128MOL0     H16835   6.480   6.427   4.756 -0.5434  0.0877  0.5230
  128MOL0     H16836   6.612   6.331   4.827  0.8672  2.4995 -2.0852
  128MOL0     H16837   6.540   6.585   4.966  0.1936  3.0605  0.0610
  128MOL0     H16838   6.611   6.602   4.816  1.5317  0.8601  1.3622
  128MOL0     H16839   6.698   6.434   5.061  0.3936 -1.1644 -0.4652
  128MOL0     H16840   6.799   6.420   4.926 -0.7672  0.0698 -1.8263
  128MOL0     H16841   6.766   6.678   5.099 -0.2221  0.0191  0.8247
  128MOL0     H16842   6.835   6.669   4.934  2.6209  0.1278  1.2313
  128MOL0     H16843   6.949   6.500   5.151  0.1850 -0.3529 -1.2340
  128MOL0     H16844   6.989   6.671   5.155  2.0111  0.4817 -0.9281
  128MOL0     H16845   7.039   6.489   4.914  1.1043 -2.1176  0.2725
  128MOL0     H16846   7.095   6.651   4.929 -2.2465 -1.5971 -0.8314
  128MOL0     H16847   7.253   6.587   5.099  3.4229  1.2498 -2.6866
  128MOL0     H16848   7.276   6.476   4.972  0.8606  1.5464  1.0312
  128MOL0     H16849   7.075   6.233   5.038  1.5138 -0.3856 -0.8844
  128MOL0     H16850   7.036   6.056   5.385 -1.3564 -1.8670  0.1547
  128MOL0     H16851   7.056   6.031   5.205 -0.4974  0.5898  0.7276
  128MOL0     H16852   6.856   6.229   5.211 -2.1795  0.2937  0.1164
  128MOL0     H16853   6.848   6.165   5.377  1.4881  0.9233 -1.8146
  128MOL0     H16854   6.809   6.012   5.123 -0.4059 -0.6455 -0.4728
  128MOL0     H16855   6.822   5.926   5.279 -1.1433 -1.0864 -1.7765
  128MOL0     H16856   6.629   6.142   5.213 -2.0988  0.5060  0.7120
  128MOL0     H16857   6.650   6.072   5.375  0.9999  1.2715 -0.3791
  128MOL0     H16858   6.441   5.724   5.274 -2.0577 -2.2137 -1.5500
  128MOL0     H16859   6.351   5.598   5.086 -0.4088  0.1455 -1.3823
  128MOL0     H16860   6.634   5.563   4.578 -0.3375 -1.1685  1.2786
  128MOL0     H16861   6.589   5.442   4.364 -2.3356  1.9158 -3.5391
  128MOL0     H16862   6.169   5.420   4.187  0.4414 -0.0806  1.5627
  128MOL0     H16863   6.213   5.280   4.301 -0.2452 -1.5704  0.9747
  128MOL0     H16864   6.312   5.157   4.149 -2.5632 -4.6083 -2.7971
  128MOL0     H16865   6.312   5.276   4.016  0.8397 -0.2623 -0.4655
  128MOL0     H16866   6.058   5.279   4.027 -0.8587 -0.7080  0.3275
  128MOL0     H16867   6.048   5.162   4.148 -1.5162  1.6690 -0.4048
  128MOL0     H16868   5.999   5.084   3.924 -1.1047  0.6569  2.2685
  128MOL0     H16869   6.176   5.103   3.879 -0.4587 -1.5987  0.3550
  128MOL0     H16870   6.043   4.930   4.089 -3.8225  0.3644 -4.0564
  128MOL0     H16871   6.218   4.945   4.071  1.2011  1.9537 -1.9543
  128MOL0     H16872   6.179   4.864   3.820 -0.6548 -1.4597 -1.0059
  128MOL0     H16873   6.024   4.816   3.872  0.0587 -1.7398  2.1373
  128MOL0     H16874   6.092   4.656   4.043  0.9706 -1.4528  0.8742
  128MOL0     H16875   6.163   4.609   3.910  2.1499  1.6009 -2.7818
  128MOL0     H16876   6.343   4.773   4.112  0.5411  0.4153 -0.0137
  128MOL0     H16877   6.392   4.700   3.960 -0.6617  4.5882 -1.2167
  128MOL0     H16878   6.162   5.540   4.383 -2.1199 -1.4408  1.9866
  128MOL0     H16879   6.197   5.648   4.576 -0.6285 -0.4418 -0.7570
  128MOL0     H16880   6.475   5.912   4.819 -0.4585  1.9676  0.1045
  128MOL0     H16881   6.596   6.021   4.992  1.2899  0.6949  1.8831
  128MOL0     H16882   6.440   6.172   4.748 -0.4938  2.5400 -1.3034
  128MOL0     H16883   6.342   6.039   4.580  0.8152 -1.1754  1.2670
  128MOL0     H16884   6.036   6.051   4.236  2.1053 -1.4660 -0.0866
  128MOL0     H16885   5.944   5.947   4.045  1.4377 -2.5061 -0.7102
  128MOL0     H16886   5.844   5.704   3.868  1.8660  1.9170 -0.2246
  128MOL0     H16887   5.793   5.874   3.902  2.8901 -0.1014  1.4912
  128MOL0     H16888   5.634   5.608   3.892  0.4590  0.0037  2.7829
  128MOL0     H16889   5.571   5.759   3.954 -1.5584 -1.5570  0.1217
  128MOL0     H16890   5.624   5.854   3.696 -0.1797 -0.5373 -0.4248
  128MOL0     H16891   5.499   5.738   3.725  0.8857 -1.9606 -3.9039
  128MOL0     H16892   5.652   5.559   3.659 -0.7817  0.7239  3.8884
  128MOL0     H16893   5.605   5.668   3.529 -0.6848 -1.8693  0.6141
  128MOL0     H16894   6.026   5.705   3.572 -0.6063 -0.7902  0.2460
  128MOL0     H16895   5.740   5.657   4.276 -1.7764  0.1238 -3.0053
  128MOL0     H16896   5.823   5.771   4.483 -3.3627 -2.7156 -3.3697
  129MOL0     O16897  10.704   0.645   2.821  0.1155  0.8161  0.0337
  129MOL0     C16898  10.817   0.681   2.789  0.7577  1.0912 -0.3215
  129MOL0     O16899  10.867   0.675   2.660 -0.1850  0.5621  0.3458
  129MOL0     C16900  10.784   0.640   2.558 -0.2205 -0.2842  0.3842
  129MOL0     C16901  10.739   0.511   2.537 -0.1621  0.8607  0.5154
  129MOL0     C16902  10.658   0.483   2.428 -0.1985 -0.6529 -0.3464
  129MOL0     C16903  10.620   0.586   2.339  0.0221  0.4406 -0.0876
  129MOL0     O16904  10.530   0.557   2.244 -0.6052  0.2567  0.1094
  129MOL0     C16905  10.404   0.517   2.295  0.2458  0.7709 -0.6395
  129MOL0     C16906  10.322   0.446   2.187 -0.0952 -0.6043  0.1330
  129MOL0     C16907  10.347   0.293   2.189 -0.2735 -0.0808  0.7984
  129MOL0     C16908  10.255   0.217   2.104 -0.4468  0.2053  0.3070
  129MOL0     C16909  10.240   0.068   2.151  0.2190  0.3275 -0.0791
  129MOL0     C16910  10.099   0.040   2.223 -0.5222 -0.8663 -1.2251
  129MOL0     C16911  10.062  -0.104   2.229 -0.2775  0.5596  0.7662
  129MOL0     C16912   9.930  -0.131   2.306 -0.1671  0.6072 -0.8665
  129MOL0     N16913   9.887  -0.040   2.417  0.5617 -0.2400 -0.1421
  129MOL0     C16914   9.894  -0.070   2.549 -0.6707 -0.9606  0.2159
  129MOL0     C16915   9.819   0.022   2.617 -0.3429 -0.2016  0.5172
  129MOL0     C16916   9.809   0.025   2.772 -0.8368  0.6097  0.5207
  129MOL0     C16917   9.932   0.091   2.829 -0.2920 -0.4893  0.0573
  129MOL0     C16918   9.897   0.222   2.895  0.4105  0.4114 -0.5245
  129MOL0     C16919   9.859   0.326   2.786  0.6828 -0.1037  0.2410
  129MOL0     O16920   9.840   0.460   2.831 -0.5219 -0.1595 -0.5147
  129MOL0     C16921   9.943   0.538   2.876  0.3167 -0.4113 -0.0749
  129MOL0     C16922  10.071   0.498   2.901 -0.0764  0.7145 -0.0180
  129MOL0     C16923  10.167   0.601   2.944 -0.1911  0.6863  0.2781
  129MOL0     C16924  10.129   0.728   2.977  0.6429 -0.2046 -0.6202
  129MOL0     C16925  10.235   0.820   3.033  0.9440 -0.0734  0.4516
  129MOL0     O16926  10.350   0.767   3.087 -0.1318 -0.6527 -0.1054
  129MOL0     C16927  10.436   0.852   3.153  0.1117  0.0037 -1.0478
  129MOL0     C16928  10.394   0.929   3.263  1.5824 -0.4722 -0.2577
  129MOL0     C16929  10.479   1.023   3.320 -0.4996 -0.4396 -0.6896
  129MOL0     C16930  10.614   1.037   3.266 -0.4177 -0.4539 -0.1182
  129MOL0     O16931  10.695   1.132   3.327  0.5203 -0.7022  0.3232
  129MOL0     C16932  10.801   1.189   3.248  0.4721 -0.0795 -0.0223
  129MOL0     C16933  10.865   1.309   3.326  0.5266 -0.0037  0.2591
  129MOL0     C16934  10.986   1.361   3.245  0.1760  0.5582  0.9905
  129MOL0     C16935  11.070   1.471   3.309 -0.2412 -0.7500 -1.1245
  129MOL0     C16936  11.133   1.592   3.227  0.0730  0.6277 -0.7869
  129MOL0     C16937  11.226   1.528   3.113 -0.2786  0.2468 -0.7344
  129MOL0     C16938  11.280   1.632   3.015  0.9467  0.1198  0.5973
  129MOL0     C16939  11.167   1.673   2.921 -0.4878 -1.0264 -0.0189
  129MOL0    Cl16940  11.227   1.785   2.799 -0.1873 -0.0752 -0.0829
  129MOL0     C16941  10.657   0.950   3.166 -0.4278 -0.8481 -0.8585
  129MOL0     C16942  10.569   0.859   3.109 -0.3582 -0.5734 -0.2105
  129MOL0     O16943  10.216   0.941   3.019 -0.5926  0.8988 -0.9231
  129MOL0     C16944   9.994   0.759   2.955 -0.7051  0.1887 -0.0786
  129MOL0     C16945   9.906   0.669   2.906  0.4716  0.0714 -0.4402
  129MOL0     N16946   9.778   0.115   2.522 -0.4339  0.9114  0.0150
  129MOL0     N16947   9.821   0.082   2.402 -0.3679 -0.2928  0.4806
  129MOL0     C16948  10.674   0.715   2.350 -0.4514 -0.4240 -0.7877
  129MOL0     C16949  10.741   0.741   2.471  1.2562 -0.7898 -0.0112
  129MOL0     C16950  10.908   0.736   2.895 -1.1342  0.2335  1.2355
  129MOL0     C16951  11.032   0.794   2.860 -0.4086 -0.6529 -0.1517
  129MOL0     C16952  11.129   0.805   2.958 -0.7319 -0.2172  0.1395
  129MOL0     C16953  11.104   0.754   3.083 -0.2332 -0.2596 -0.2990
  129MOL0     O16954  11.214   0.734   3.168  0.7761  1.0020  0.1383
  129MOL0     C16955  11.261   0.848   3.236  0.9471  0.5142 -0.2165
  129MOL0     C16956  11.159   0.895   3.341  0.2426 -0.6311  0.0133
  129MOL0     C16957  11.194   1.027   3.407 -0.1620 -0.1853 -0.0164
  129MOL0     C16958  11.313   1.032   3.504 -0.0921  0.3071  0.6627
  129MOL0     C16959  11.364   1.170   3.547  0.7679 -0.6811  0.2456
  129MOL0     C16960  11.395   1.283   3.585  0.8345 -0.4038  0.5514
  129MOL0     C16961  10.988   0.701   3.121  0.4987  0.2860  0.9532
  129MOL0     C16962  10.889   0.691   3.025  1.1174  0.3642 -0.3045
  129MOL0     H16963  10.756   0.439   2.616  1.3820  0.2592 -0.3181
  129MOL0     H16964  10.621   0.381   2.421 -0.1880 -0.6245 -0.9083
  129MOL0     H16965  10.358   0.604   2.342  0.3803  0.9036 -0.7563
  129MOL0     H16966  10.414   0.452   2.383 -0.5805  1.0123 -0.3590
  129MOL0     H16967  10.350   0.491   2.091 -0.8244 -1.6938 -0.6091
  129MOL0     H16968  10.216   0.457   2.213 -0.8628 -1.3994 -2.3647
  129MOL0     H16969  10.339   0.258   2.292 -1.1251 -3.8384 -0.3875
  129MOL0     H16970  10.449   0.275   2.156 -0.9722  0.9168 -2.2386
  129MOL0     H16971  10.151   0.251   2.098 -0.2048  0.8217 -3.6324
  129MOL0     H16972  10.288   0.221   1.999  2.1092  2.8357  1.0742
  129MOL0     H16973  10.317   0.023   2.215  0.1197 -1.0190 -0.8809
  129MOL0     H16974  10.239   0.007   2.060 -2.0977  0.7193 -0.3827
  129MOL0     H16975  10.012   0.093   2.183 -2.8303 -1.2915  2.6731
  129MOL0     H16976  10.114   0.065   2.329 -1.2801  2.1213 -1.7304
  129MOL0     H16977  10.073  -0.148   2.129  1.5265 -0.1881  1.2511
  129MOL0     H16978  10.135  -0.161   2.287 -1.7072 -1.7670  0.4100
  129MOL0     H16979   9.916  -0.233   2.343  1.1281  0.0249 -1.9162
  129MOL0     H16980   9.856  -0.124   2.226  2.1515 -1.2851 -3.3607
  129MOL0     H16981   9.939  -0.155   2.600  0.6823 -0.1705  0.3836
  129MOL0     H16982   9.814  -0.079   2.808 -0.1988 -0.4775 -2.3982
  129MOL0     H16983   9.722   0.084   2.802  0.2668  3.0490 -0.8401
  129MOL0     H16984  10.015   0.111   2.760  1.1640 -0.1751  1.8140
  129MOL0     H16985   9.971   0.026   2.908  1.4871 -0.9296 -1.1337
  129MOL0     H16986   9.824   0.209   2.975  1.1412  2.0652  0.4594
  129MOL0     H16987   9.986   0.265   2.943  0.4627  1.5365 -1.5767
  129MOL0     H16988   9.761   0.291   2.753  1.2465 -2.6860  1.1168
  129MOL0     H16989   9.934   0.322   2.707 -0.8339  0.8156 -1.3162
  129MOL0     H16990  10.111   0.400   2.880 -3.5316 -1.6725  3.3029
  129MOL0     H16991  10.272   0.576   2.937 -0.3606  0.5324 -2.9103
  129MOL0     H16992  10.294   0.918   3.306  1.3086  1.0359 -0.4387
  129MOL0     H16993  10.459   1.094   3.400 -0.7124 -1.2361 -0.0093
  129MOL0     H16994  10.783   1.223   3.145 -0.4906  0.7386  0.3943
  129MOL0     H16995  10.887   1.122   3.244  1.1559  0.7866 -0.1432
  129MOL0     H16996  10.903   1.285   3.425  0.3580  0.7600  0.5146
  129MOL0     H16997  10.785   1.382   3.340 -1.0262 -0.6035 -3.8491
  129MOL0     H16998  10.954   1.392   3.145 -2.4753  3.2746  2.5114
  129MOL0     H16999  11.053   1.274   3.239 -0.6446 -0.6258  5.3235
  129MOL0     H17000  11.016   1.527   3.386  1.6558 -1.0950  0.5541
  129MOL0     H17001  11.146   1.434   3.378  0.7621  0.5617 -1.4839
  129MOL0     H17002  11.190   1.653   3.297 -1.4330  1.0304  0.1443
  129MOL0     H17003  11.047   1.658   3.209 -1.1835  0.6827  4.0455
  129MOL0     H17004  11.186   1.444   3.055  3.3202 -1.1504 -1.4702
  129MOL0     H17005  11.307   1.475   3.165 -1.3310 -1.7130 -0.9796
  129MOL0     H17006  11.325   1.717   3.067  3.3753 -1.3721  1.1044
  129MOL0     H17007  11.357   1.588   2.950  1.2434  4.5260 -2.4753
  129MOL0     H17008  11.091   1.719   2.984  3.8800  1.7206  3.8691
  129MOL0     H17009  11.120   1.585   2.877 -1.1341 -1.0101  0.6221
  129MOL0     H17010  10.758   0.937   3.130 -0.0371 -0.0374 -0.0636
  129MOL0     H17011  10.607   0.786   3.039 -0.6801  2.9081 -4.4889
  129MOL0     H17012   9.954   0.856   2.981 -1.3884  0.7842 -3.0589
  129MOL0     H17013   9.807   0.705   2.878  0.9755  2.0372  0.2068
  129MOL0     H17014  10.640   0.794   2.283 -2.8257 -2.7041 -2.5149
  129MOL0     H17015  10.766   0.847   2.469 -1.4272 -0.0911 -0.6286
  129MOL0     H17016  11.055   0.819   2.756 -2.5295 -1.4112 -0.8521
  129MOL0     H17017  11.232   0.816   2.926 -0.9281 -2.6085 -1.5626
  129MOL0     H17018  11.263   0.935   3.170 -2.0357 -0.7092 -2.1075
  129MOL0     H17019  11.363   0.834   3.274  1.3696  0.7248 -1.2375
  129MOL0     H17020  11.065   0.917   3.291  0.3831  3.3829  1.1621
  129MOL0     H17021  11.144   0.816   3.416  0.9723 -4.0165 -3.1122
  129MOL0     H17022  11.107   1.061   3.463  1.4490 -0.3291  2.7912
  129MOL0     H17023  11.217   1.107   3.336  0.7309 -0.3066  0.1235
  129MOL0     H17024  11.279   0.983   3.596  0.4651 -0.3917  0.5111
  129MOL0     H17025  11.394   0.974   3.460 -0.4138 -1.3638  2.1639
  129MOL0     H17026  11.426   1.382   3.610 -2.8669  0.5213  2.2091
  129MOL0     H17027  10.969   0.632   3.204 -0.1252 -0.4357  0.2351
  129MOL0     H17028  10.804   0.634   3.063  1.2524  0.5328  0.2669
  130MOL0     O17029   3.367   5.777   0.898  0.3678 -0.1693  0.3509
  130MOL0     C17030   3.306   5.882   0.861  0.3059  0.4241  0.4282
  130MOL0     O17031   3.202   5.886   0.772 -0.4919 -0.2343 -0.0377
  130MOL0     C17032   3.174   5.776   0.698  0.3636  0.8314 -0.8732
  130MOL0     C17033   3.096   5.681   0.756 -0.0321 -0.2989  0.2357
  130MOL0     C17034   3.067   5.559   0.698  1.3831 -0.8267  0.7100
  130MOL0     C17035   3.109   5.542   0.566 -0.7384  0.3452 -0.0824
  130MOL0     O17036   3.069   5.428   0.493  0.2103 -0.1853 -0.1995
  130MOL0     C17037   3.022   5.303   0.552  0.3378  0.0001  0.8582
  130MOL0     C17038   2.872   5.302   0.572  0.3857  0.4208  0.2329
  130MOL0     C17039   2.828   5.173   0.637 -0.6710  0.1825 -0.0072
  130MOL0     C17040   2.680   5.169   0.644  0.1907 -0.2145 -0.1571
  130MOL0     C17041   2.617   5.033   0.651  0.0805  0.5413 -0.5171
  130MOL0     C17042   2.465   5.058   0.652  0.1690  0.6284 -0.7756
  130MOL0     C17043   2.388   4.929   0.686 -0.7038  0.1241 -0.2643
  130MOL0     C17044   2.387   4.894   0.835  0.7414  0.5633 -0.3588
  130MOL0     N17045   2.305   4.773   0.864  0.1461 -0.6097  0.3784
  130MOL0     C17046   2.170   4.761   0.858  0.0268 -0.6509  0.3096
  130MOL0     C17047   2.150   4.632   0.901 -0.5239 -0.3935 -0.2443
  130MOL0     C17048   2.018   4.559   0.876 -0.2890  0.1362 -0.2198
  130MOL0     C17049   1.952   4.533   1.015 -0.3641 -0.3476 -0.5297
  130MOL0     C17050   2.029   4.434   1.102 -0.0879  0.5181  0.0890
  130MOL0     C17051   1.957   4.297   1.117 -0.0800 -0.5561 -0.1873
  130MOL0     O17052   1.850   4.328   1.206  0.4035  0.1600  0.2703
  130MOL0     C17053   1.759   4.234   1.231  0.1852 -0.6392 -0.2637
  130MOL0     C17054   1.787   4.095   1.212 -0.0176  0.3523 -0.2660
  130MOL0     C17055   1.690   4.002   1.250 -0.0141  0.4221 -0.7150
  130MOL0     C17056   1.562   4.035   1.295 -0.4410  0.7276  0.3579
  130MOL0     C17057   1.461   3.936   1.321 -0.4759  0.2897 -0.1648
  130MOL0     O17058   1.335   3.990   1.320 -0.0642  0.1075  0.2710
  130MOL0     C17059   1.247   3.906   1.384 -0.1220 -0.5191  0.5045
  130MOL0     C17060   1.204   3.782   1.329 -0.1504 -0.8219  0.2951
  130MOL0     C17061   1.117   3.702   1.409  0.1443  0.3490  0.0174
  130MOL0     C17062   1.073   3.747   1.526  0.6952 -0.0996 -0.3073
  130MOL0     O17063   0.980   3.674   1.606 -0.6996 -0.2126 -0.1250
  130MOL0     C17064   0.995   3.526   1.601 -0.0854 -0.4848  0.1217
  130MOL0     C17065   0.893   3.483   1.705  0.7520  0.0796  0.1844
  130MOL0     C17066   0.746   3.533   1.685  0.2143 -1.3554  0.4032
  130MOL0     C17067   0.654   3.450   1.766 -0.1081 -0.0265  0.6310
  130MOL0     C17068   0.631   3.500   1.902  0.2601 -0.1363  0.5033
  130MOL0     C17069   0.514   3.434   1.961 -0.1098  0.7702  0.2061
  130MOL0     C17070   0.424   3.514   2.057 -0.0192 -0.7063  0.5691
  130MOL0     C17071   0.507   3.614   2.146  0.2638 -0.2503  0.1975
  130MOL0    Cl17072   0.383   3.689   2.267  0.4296 -0.3567  0.2407
  130MOL0     C17073   1.111   3.871   1.573 -0.8772  0.1713 -0.1633
  130MOL0     C17074   1.214   3.948   1.514  0.6311  0.4264  0.7635
  130MOL0     O17075   1.490   3.818   1.338 -0.1280  0.6611 -0.7132
  130MOL0     C17076   1.550   4.164   1.349 -0.7210 -0.4231  0.2887
  130MOL0     C17077   1.646   4.263   1.309 -0.0273  0.5885  0.0324
  130MOL0     N17078   2.268   4.577   0.939 -0.3006 -0.2348  0.2634
  130MOL0     N17079   2.364   4.666   0.921  0.0669  1.1505  0.6878
  130MOL0     C17080   3.197   5.630   0.513 -0.2940 -0.0908 -0.2566
  130MOL0     C17081   3.229   5.750   0.579 -0.0817  0.1764 -0.3447
  130MOL0     C17082   3.346   6.006   0.921 -0.1785  0.6915  0.4105
  130MOL0     C17083   3.320   6.127   0.855 -0.2152  0.7377 -0.3434
  130MOL0     C17084   3.363   6.254   0.912  0.6473  1.3722  0.0410
  130MOL0     C17085   3.449   6.251   1.029  0.3369  0.3820  0.6984
  130MOL0     O17086   3.506   6.360   1.090  0.7741 -0.7069  0.3073
  130MOL0     C17087   3.489   6.486   1.013  0.5837 -0.5170 -0.0664
  130MOL0     C17088   3.544   6.611   1.092 -0.3562  0.1352  0.2339
  130MOL0     C17089   3.498   6.624   1.235  0.8935  0.2135 -0.5516
  130MOL0     C17090   3.543   6.755   1.300  1.1378 -0.2089 -0.1860
  130MOL0     C17091   3.484   6.767   1.438 -0.1890  0.8248  0.3787
  130MOL0     C17092   3.425   6.774   1.547 -0.8418 -1.6073 -0.0424
  130MOL0     C17093   3.458   6.130   1.095  0.3514 -0.3295 -0.2984
  130MOL0     C17094   3.425   6.007   1.043  0.3164 -0.6425  0.0615
  130MOL0     H17095   3.060   5.698   0.857 -0.8964  2.6020 -0.4396
  130MOL0     H17096   3.017   5.484   0.759  1.6474 -1.4853  0.1326
  130MOL0     H17097   3.069   5.293   0.650  1.4550  4.2238  0.9761
  130MOL0     H17098   3.053   5.225   0.482 -1.4699  0.6607 -0.7498
  130MOL0     H17099   2.815   5.316   0.479  1.8437 -1.6790 -1.0584
  130MOL0     H17100   2.850   5.379   0.646  0.6329  0.7583 -0.0396
  130MOL0     H17101   2.866   5.171   0.739 -0.8155 -1.4364  0.0418
  130MOL0     H17102   2.864   5.085   0.584 -0.2728 -1.2750  2.5251
  130MOL0     H17103   2.643   5.239   0.719 -0.6160 -1.5768  0.7585
  130MOL0     H17104   2.638   5.213   0.552  2.0001 -0.7199 -1.2728
  130MOL0     H17105   2.661   4.984   0.738  0.5649 -0.0941 -1.1113
  130MOL0     H17106   2.641   4.971   0.564 -0.8121 -0.0990 -0.3183
  130MOL0     H17107   2.418   5.092   0.559  1.8626  2.1816 -1.1310
  130MOL0     H17108   2.441   5.142   0.719 -0.3191  0.9006 -1.2829
  130MOL0     H17109   2.284   4.931   0.654 -0.4768  0.5501 -1.0006
  130MOL0     H17110   2.425   4.840   0.635  0.4427  1.6011 -2.1409
  130MOL0     H17111   2.356   4.983   0.890  0.5886  0.8721 -0.9318
  130MOL0     H17112   2.491   4.871   0.859  0.4907 -3.1072 -2.1395
  130MOL0     H17113   2.092   4.820   0.811  0.6273  0.2182  0.3745
  130MOL0     H17114   2.030   4.463   0.824  0.2087 -0.1434  0.3951
  130MOL0     H17115   1.956   4.628   0.817  1.1313  0.2504 -1.6504
  130MOL0     H17116   1.850   4.499   0.994 -0.1819 -0.4879 -1.2090
  130MOL0     H17117   1.956   4.620   1.082  3.5116  0.8133 -1.9817
  130MOL0     H17118   2.125   4.412   1.054  3.2557  1.9405  5.2499
  130MOL0     H17119   2.056   4.463   1.204 -0.5288 -2.8926  1.3052
  130MOL0     H17120   2.025   4.220   1.153  0.0738  0.8260  2.7737
  130MOL0     H17121   1.920   4.282   1.015 -1.6851 -0.5818  0.3767
  130MOL0     H17122   1.868   4.060   1.150  0.1343  0.3385 -0.0622
  130MOL0     H17123   1.700   3.897   1.222 -3.5287  0.1606 -1.4785
  130MOL0     H17124   1.236   3.760   1.228  0.7835  0.3124  0.3198
  130MOL0     H17125   1.073   3.611   1.369 -0.8709  0.9118 -0.1845
  130MOL0     H17126   1.093   3.485   1.628 -0.2021 -0.0380  1.2698
  130MOL0     H17127   0.957   3.488   1.506 -1.9563  0.1883  0.5621
  130MOL0     H17128   0.925   3.505   1.807  1.2754  1.4263 -0.2359
  130MOL0     H17129   0.890   3.375   1.694 -2.1363 -0.0773  1.6273
  130MOL0     H17130   0.722   3.530   1.578 -0.5314 -2.1204  0.5813
  130MOL0     H17131   0.739   3.637   1.718 -1.2411 -1.6499  1.0670
  130MOL0     H17132   0.562   3.457   1.708 -0.7202  2.4749  1.7670
  130MOL0     H17133   0.693   3.348   1.764  0.9335  0.2560 -3.2225
  130MOL0     H17134   0.612   3.608   1.898  0.7598  0.2017  3.9838
  130MOL0     H17135   0.707   3.487   1.980 -1.3132  1.8602  2.5027
  130MOL0     H17136   0.554   3.349   2.018 -3.5129 -1.5687 -0.5807
  130MOL0     H17137   0.453   3.384   1.885  1.2573  0.0613 -0.4664
  130MOL0     H17138   0.344   3.567   2.003  0.3579  1.7713  2.2693
  130MOL0     H17139   0.368   3.449   2.124  0.4544  1.3530  3.1137
  130MOL0     H17140   0.548   3.697   2.089  3.0108 -1.7959 -0.2189
  130MOL0     H17141   0.592   3.563   2.193  0.0696 -1.6541 -0.9172
  130MOL0     H17142   1.076   3.913   1.667  1.7916 -0.4235  1.2024
  130MOL0     H17143   1.246   4.037   1.566  2.5350 -0.0570  0.4937
  130MOL0     H17144   1.465   4.196   1.409 -2.1268 -0.0451 -1.8174
  130MOL0     H17145   1.624   4.358   1.357 -0.6505 -0.3489  1.7056
  130MOL0     H17146   3.233   5.615   0.412 -0.3014  4.0499 -1.0503
  130MOL0     H17147   3.303   5.818   0.537  5.1460 -4.6936 -0.2531
  130MOL0     H17148   3.267   6.122   0.761  0.5070 -0.0707 -0.7158
  130MOL0     H17149   3.321   6.346   0.875 -1.3387  1.8958  3.2145
  130MOL0     H17150   3.382   6.507   1.012  0.1057 -2.7936 -0.5121
  130MOL0     H17151   3.514   6.489   0.907 -3.9204  4.8946 -1.4259
  130MOL0     H17152   3.653   6.620   1.092 -0.1273 -1.5371  2.9638
  130MOL0     H17153   3.512   6.701   1.039 -2.5698 -0.6984  0.0634
  130MOL0     H17154   3.516   6.535   1.296  2.2578  0.6253 -0.3262
  130MOL0     H17155   3.391   6.638   1.222  0.9028  0.8169 -0.0601
  130MOL0     H17156   3.652   6.760   1.313  1.0565  4.2496  0.2061
  130MOL0     H17157   3.495   6.816   1.224  0.4442 -0.5041  0.0114
  130MOL0     H17158   3.393   6.796   1.647  0.9368  0.4017  0.1525
  130MOL0     H17159   3.507   6.122   1.192  0.6908  0.6635 -0.3705
  130MOL0     H17160   3.448   5.919   1.102 -0.7461 -1.4747 -0.7160
  131MOL0     O17161  11.012   8.435   1.091 -0.0306  0.0319 -0.0303
  131MOL0     C17162  10.918   8.413   1.165 -0.9048  0.9069  0.3719
  131MOL0     O17163  10.904   8.302   1.245 -0.7380 -0.4156  0.3460
  131MOL0     C17164  10.974   8.182   1.226  0.2601  0.0680  0.0054
  131MOL0     C17165  10.914   8.052   1.253 -0.7908 -0.9725  0.5173
  131MOL0     C17166  10.981   7.934   1.241  1.2984 -0.7328  0.3624
  131MOL0     C17167  11.119   7.940   1.211 -0.0650  0.2583 -0.2303
  131MOL0     O17168  11.170   7.813   1.188 -0.6131 -0.2410  0.0511
  131MOL0     C17169  11.301   7.805   1.122 -0.0922 -0.4591 -0.3417
  131MOL0     C17170  11.333   7.660   1.114  0.5136 -0.1663  0.2221
  131MOL0     C17171  11.243   7.591   1.003 -0.6861 -0.8480  0.4368
  131MOL0     C17172  11.296   7.454   0.967 -0.0272 -0.5819  0.8074
  131MOL0     C17173  11.300   7.348   1.073 -0.2870  0.6060 -0.7475
  131MOL0     C17174  11.164   7.323   1.138  0.1477 -0.4409  0.0182
  131MOL0     C17175  11.171   7.192   1.226  0.2876 -0.7657  0.1552
  131MOL0     C17176  11.237   7.205   1.365 -0.2428  0.3127  0.0736
  131MOL0     N17177  11.281   7.071   1.416  0.0154 -0.6511 -0.2366
  131MOL0     C17178  11.215   6.977   1.493  0.9036 -0.4922 -0.1074
  131MOL0     C17179  11.299   6.865   1.494  0.1060 -0.7494 -0.4198
  131MOL0     C17180  11.278   6.750   1.583 -0.2587 -0.5473 -0.0706
  131MOL0     C17181  11.334   6.788   1.714 -0.1730 -0.7104 -0.3905
  131MOL0     C17182  11.254   6.892   1.788  0.4817 -0.7597 -1.1266
  131MOL0     C17183  11.269   6.888   1.937 -0.3862 -0.1558 -0.1802
  131MOL0     O17184  11.391   6.952   1.982 -0.5087  0.4615  0.0692
  131MOL0     C17185  11.451   6.891   2.082 -0.6586  0.0550 -0.0740
  131MOL0     C17186  11.587   6.885   2.078 -0.8081 -0.2044 -0.7496
  131MOL0     C17187  11.663   6.843   2.186 -0.1284 -0.7150  0.4002
  131MOL0     C17188  11.596   6.827   2.315  0.0178 -0.4953 -1.3856
  131MOL0     C17189  11.672   6.794   2.436 -0.1150 -0.0386  0.4747
  131MOL0     O17190  11.593   6.785   2.552 -0.0485  0.1052  0.1170
  131MOL0     C17191  11.630   6.730   2.666  0.6298 -0.4445 -0.5188
  131MOL0     C17192  11.548   6.762   2.776  0.3847  0.2377 -0.2183
  131MOL0     C17193  11.549   6.689   2.892  0.4756  0.4658  0.1788
  131MOL0     C17194  11.653   6.589   2.908 -0.6365  1.4379  0.5162
  131MOL0     O17195  11.660   6.511   3.022 -0.0726 -0.4084 -0.0468
  131MOL0     C17196  11.687   6.575   3.145 -1.1443 -1.1615 -0.2023
  131MOL0     C17197  11.812   6.488   3.194  0.6135 -0.0552  0.5258
  131MOL0     C17198  11.939   6.496   3.122  0.4442 -0.8353  0.3898
  131MOL0     C17199  12.025   6.384   3.178  0.3809 -0.1024 -0.1677
  131MOL0     C17200  12.103   6.411   3.304 -0.0097  0.4008 -0.1113
  131MOL0     C17201  12.215   6.511   3.287 -0.4621  0.5148 -0.4048
  131MOL0     C17202  12.313   6.511   3.411  0.2365  0.3375  0.4624
  131MOL0     C17203  12.426   6.610   3.413 -1.0828 -0.0372  0.7433
  131MOL0    Cl17204  12.533   6.597   3.277  0.0882 -0.3025  0.4374
  131MOL0     C17205  11.725   6.554   2.799  0.6849  0.0258  0.5113
  131MOL0     C17206  11.707   6.620   2.680 -0.2397  0.0070  0.0783
  131MOL0     O17207  11.798   6.777   2.428 -0.5624 -0.4570  0.2766
  131MOL0     C17208  11.458   6.824   2.320  1.1401  0.3139  0.0871
  131MOL0     C17209  11.385   6.855   2.201  0.2833 -0.0720 -0.4035
  131MOL0     N17210  11.412   6.897   1.420 -0.5039  0.4208 -0.0724
  131MOL0     N17211  11.398   7.016   1.379 -0.5772 -0.3833  0.3964
  131MOL0     C17212  11.186   8.057   1.189 -0.5063  0.1892 -0.0249
  131MOL0     C17213  11.113   8.176   1.209 -0.0887  0.3938  0.6938
  131MOL0     C17214  10.813   8.516   1.182  0.2173  0.0657 -0.2549
  131MOL0     C17215  10.807   8.629   1.099 -0.4166 -0.4536  0.6275
  131MOL0     C17216  10.708   8.726   1.107 -0.2230  0.3400 -0.0654
  131MOL0     C17217  10.608   8.711   1.201  0.4411 -0.9755  0.1805
  131MOL0     O17218  10.518   8.815   1.199  0.0120  0.7024  0.2576
  131MOL0     C17219  10.408   8.804   1.101  0.1839 -0.2633 -0.1080
  131MOL0     C17220  10.340   8.943   1.093  0.7235  0.3855  0.1028
  131MOL0     C17221  10.239   8.940   0.976 -0.7193 -0.0281  0.4610
  131MOL0     C17222  10.154   9.061   0.942 -0.3720 -0.0101  0.8489
  131MOL0     C17223  10.097   9.127   1.058  0.0532  0.0386  0.6126
  131MOL0     C17224  10.040   9.192   1.142  0.2913 -0.2054 -0.0728
  131MOL0     C17225  10.615   8.605   1.290  1.1783  0.0861  1.8874
  131MOL0     C17226  10.714   8.504   1.282  0.1470  0.1765  0.6950
  131MOL0     H17227  10.811   8.046   1.289 -1.0805 -0.5840 -0.2199
  131MOL0     H17228  10.932   7.838   1.252 -1.6059  0.4144 -1.4058
  131MOL0     H17229  11.377   7.860   1.178 -0.3936  3.2091 -3.1832
  131MOL0     H17230  11.304   7.850   1.023  1.3337 -2.0954 -1.1007
  131MOL0     H17231  11.322   7.603   1.207 -0.6808  0.4043  0.4513
  131MOL0     H17232  11.439   7.660   1.087 -0.0977  1.2187 -2.4905
  131MOL0     H17233  11.245   7.647   0.908  1.3574 -0.0908  0.8781
  131MOL0     H17234  11.146   7.568   1.049 -1.3615 -0.5501 -0.7826
  131MOL0     H17235  11.248   7.413   0.878  2.4987  0.0642 -0.9600
  131MOL0     H17236  11.398   7.463   0.930 -0.5653  0.4238 -0.5036
  131MOL0     H17237  11.385   7.356   1.142 -1.4256 -1.2877  0.9683
  131MOL0     H17238  11.331   7.256   1.022 -2.5763 -0.0117 -1.1220
  131MOL0     H17239  11.085   7.327   1.062 -0.6831  2.1326  0.9390
  131MOL0     H17240  11.145   7.409   1.202  4.3274 -0.6754  1.9007
  131MOL0     H17241  11.069   7.157   1.243  0.5982 -2.3237 -0.9803
  131MOL0     H17242  11.231   7.118   1.171  3.7847  0.3359  2.1272
  131MOL0     H17243  11.169   7.259   1.432  1.3250  0.5051  1.5814
  131MOL0     H17244  11.318   7.275   1.343 -1.2193  0.5223 -3.5866
  131MOL0     H17245  11.115   7.000   1.530  1.3943  0.3852  0.7207
  131MOL0     H17246  11.336   6.665   1.545 -1.3752 -0.7413 -1.3914
  131MOL0     H17247  11.170   6.739   1.592 -0.1182 -2.9399 -0.5037
  131MOL0     H17248  11.439   6.816   1.707 -0.5587  1.6463  1.9395
  131MOL0     H17249  11.341   6.699   1.778 -0.5391  0.0758  0.7720
  131MOL0     H17250  11.285   6.993   1.761  2.5858 -1.3597 -1.1357
  131MOL0     H17251  11.144   6.891   1.781  0.1082  1.7122  1.9669
  131MOL0     H17252  11.260   6.789   1.982  0.9507  0.4111  1.4292
  131MOL0     H17253  11.184   6.948   1.973 -0.3214  0.9144 -1.7218
  131MOL0     H17254  11.638   6.907   1.984 -0.7478 -1.1116 -0.9436
  131MOL0     H17255  11.769   6.842   2.163 -0.3399  1.3265 -0.9192
  131MOL0     H17256  11.466   6.831   2.756 -1.3521 -1.5069  0.5147
  131MOL0     H17257  11.492   6.704   2.983  1.8770  2.7629  0.7716
  131MOL0     H17258  11.595   6.578   3.203 -1.0767  0.9247 -0.1561
  131MOL0     H17259  11.720   6.678   3.130 -0.1548 -1.5164 -0.5347
  131MOL0     H17260  11.768   6.388   3.193 -0.9842  0.6124 -0.0846
  131MOL0     H17261  11.828   6.512   3.300  0.7023  0.7635  0.3359
  131MOL0     H17262  11.987   6.593   3.136  1.4584 -1.2587  0.0328
  131MOL0     H17263  11.924   6.471   3.016  0.3435 -1.4882  0.5529
  131MOL0     H17264  11.963   6.297   3.203 -0.1426 -0.0949 -1.3970
  131MOL0     H17265  12.088   6.358   3.092 -3.9545  0.3482 -3.8248
  131MOL0     H17266  12.139   6.312   3.330 -0.5972  0.3895  0.6757
  131MOL0     H17267  12.035   6.459   3.375 -2.4633  0.4585 -2.3317
  131MOL0     H17268  12.167   6.609   3.277  0.1297  1.1273  2.0849
  131MOL0     H17269  12.283   6.494   3.203  1.2212  2.5007  0.4638
  131MOL0     H17270  12.241   6.522   3.492  0.6797 -1.6824  1.1934
  131MOL0     H17271  12.367   6.416   3.420  1.2521  0.8627  0.1239
  131MOL0     H17272  12.474   6.601   3.510  1.0088  2.5554  0.0758
  131MOL0     H17273  12.387   6.712   3.403  0.7699  0.5846 -0.6871
  131MOL0     H17274  11.780   6.461   2.807  2.2155  0.9870  1.8951
  131MOL0     H17275  11.752   6.577   2.591 -1.5630 -1.8582  0.2620
  131MOL0     H17276  11.412   6.805   2.417 -1.8813 -0.8928 -1.4472
  131MOL0     H17277  11.278   6.848   2.213  0.5962  0.0747  5.1039
  131MOL0     H17278  11.293   8.076   1.180 -0.3181 -0.0247  1.5466
  131MOL0     H17279  11.172   8.265   1.189 -0.7741  0.8806  0.8157
  131MOL0     H17280  10.881   8.638   1.020 -2.0088  0.0089 -0.8510
  131MOL0     H17281  10.715   8.813   1.043 -2.2603  3.1452  3.2001
  131MOL0     H17282  10.339   8.720   1.112 -1.3318  0.9181 -0.3526
  131MOL0     H17283  10.453   8.789   1.002  0.0473 -0.4341 -0.1444
  131MOL0     H17284  10.295   8.963   1.191  2.6205  1.2109  0.8687
  131MOL0     H17285  10.416   9.019   1.072  4.0550 -2.4565  0.9578
  131MOL0     H17286  10.169   8.865   1.013 -1.4540 -0.5134 -1.7436
  131MOL0     H17287  10.293   8.905   0.888  1.7059  1.9182  1.0204
  131MOL0     H17288  10.218   9.129   0.885 -0.9046 -0.5589 -0.4489
  131MOL0     H17289  10.074   9.041   0.870  0.2431  2.1681 -0.5360
  131MOL0     H17290   9.989   9.256   1.212  0.2252  0.4092 -0.6770
  131MOL0     H17291  10.536   8.584   1.362  1.4025 -2.5811  1.4724
  131MOL0     H17292  10.708   8.424   1.355  0.2296 -2.2335 -1.7816
  132MOL0     O17293   0.174   3.765   1.448 -0.4485 -0.4446 -0.3244
  132MOL0     C17294   0.218   3.657   1.426  0.2826 -0.0860  0.6442
  132MOL0     O17295   0.161   3.537   1.480 -0.1528  0.3828  0.8377
  132MOL0     C17296   0.079   3.548   1.586 -0.0497 -0.3848 -0.7621
  132MOL0     C17297   0.120   3.547   1.721  0.1847  1.3181  0.5840
  132MOL0     C17298   0.035   3.534   1.830  0.7325  0.3012  0.2442
  132MOL0     C17299  -0.114   3.524   1.809 -0.2212  0.2727  0.2581
  132MOL0     O17300  -0.204   3.508   1.913  0.0870 -0.3271  1.0888
  132MOL0     C17301  -0.282   3.629   1.930 -0.5901 -0.2848 -0.1125
  132MOL0     C17302  -0.328   3.654   2.074  0.2634 -1.4487 -0.1938
  132MOL0     C17303  -0.391   3.533   2.147  0.0341 -0.6348 -0.4943
  132MOL0     C17304  -0.541   3.514   2.118 -0.1115 -0.2358  0.4038
  132MOL0     C17305  -0.596   3.390   2.187  0.6257 -0.1704  0.4865
  132MOL0     C17306  -0.753   3.380   2.176  0.0174 -0.1763 -0.0047
  132MOL0     C17307  -0.816   3.249   2.231  0.7007 -0.2074 -0.8759
  132MOL0     C17308  -0.846   3.271   2.377 -0.4357 -0.5578  0.3005
  132MOL0     N17309  -0.939   3.171   2.432  0.1361 -1.1061 -0.5617
  132MOL0     C17310  -0.963   3.176   2.564  0.0044  0.7830  0.1451
  132MOL0     C17311  -1.066   3.083   2.579 -0.0181  0.0503 -0.0088
  132MOL0     C17312  -1.145   3.049   2.704  0.2629 -1.0411  1.3260
  132MOL0     C17313  -1.295   3.088   2.716 -0.4832  0.7370  1.2058
  132MOL0     C17314  -1.330   3.119   2.859  0.4542 -0.1393  0.2122
  132MOL0     C17315  -1.485   3.157   2.870 -0.1536  0.4877 -0.0931
  132MOL0     O17316  -1.558   3.049   2.812 -0.2943 -0.3793 -0.5548
  132MOL0     C17317  -1.695   3.029   2.831 -1.1144 -0.0731 -0.1218
  132MOL0     C17318  -1.742   2.898   2.814 -0.7340 -1.0586 -0.1789
  132MOL0     C17319  -1.874   2.871   2.837 -1.3562  0.9439 -0.2250
  132MOL0     C17320  -1.969   2.975   2.867  0.3987  0.7436  1.1735
  132MOL0     C17321  -2.117   2.939   2.904  0.1051 -0.8171 -0.0730
  132MOL0     O17322  -2.199   3.041   2.943 -0.1287 -0.3556 -0.0945
  132MOL0     C17323  -2.328   3.023   2.973  0.8584  0.2373  0.1103
  132MOL0     C17324  -2.413   2.921   2.928 -0.5174  0.0402 -0.2667
  132MOL0     C17325  -2.551   2.941   2.928  0.3078 -1.0177  0.6001
  132MOL0     C17326  -2.605   3.060   2.980 -0.4372  0.6149  0.4586
  132MOL0     O17327  -2.742   3.061   2.997 -0.1089 -0.3185 -0.0876
  132MOL0     C17328  -2.830   2.996   2.904  0.3774 -0.3533  0.3181
  132MOL0     C17329  -2.958   3.071   2.906 -0.0716  0.0164 -0.7923
  132MOL0     C17330  -3.086   2.985   2.855 -0.2574  0.8956 -0.5622
  132MOL0     C17331  -3.073   2.929   2.712  0.6642 -0.2314 -0.2163
  132MOL0     C17332  -3.039   3.041   2.611  0.3388 -0.1739 -0.5052
  132MOL0     C17333  -3.122   3.167   2.611 -0.2702 -0.4771  0.0125
  132MOL0     C17334  -3.089   3.262   2.493 -0.2703  0.4210  0.1543
  132MOL0     C17335  -3.143   3.410   2.512 -0.9606  0.0075  0.4326
  132MOL0    Cl17336  -3.128   3.508   2.369 -0.1088 -0.8602  0.1939
  132MOL0     C17337  -2.525   3.154   3.039  0.3751 -0.1776  0.1177
  132MOL0     C17338  -2.379   3.133   3.038 -0.0331 -0.0122  0.4657
  132MOL0     O17339  -2.147   2.823   2.894  0.5332 -0.3479 -0.0080
  132MOL0     C17340  -1.915   3.115   2.874 -0.3679 -0.4080 -0.7121
  132MOL0     C17341  -1.781   3.135   2.854 -0.5094 -0.7175  0.2652
  132MOL0     N17342  -1.085   3.022   2.458 -0.2174  0.1532  0.1428
  132MOL0     N17343  -1.012   3.076   2.368  0.5585 -0.2003 -0.7481
  132MOL0     C17344  -0.158   3.518   1.676  0.1716 -1.4265 -0.5566
  132MOL0     C17345  -0.063   3.527   1.569  0.4319 -0.9938 -0.4618
  132MOL0     C17346   0.333   3.635   1.339 -0.3399  0.0468 -0.6080
  132MOL0     C17347   0.361   3.725   1.238 -0.3345 -0.3818 -0.3155
  132MOL0     C17348   0.482   3.710   1.168 -0.0338 -0.1314  0.1020
  132MOL0     C17349   0.575   3.605   1.196 -0.2848 -0.0583  0.2112
  132MOL0     O17350   0.689   3.574   1.124 -0.8918 -0.3427  0.0321
  132MOL0     C17351   0.752   3.668   1.042  0.8467 -0.3854  0.3546
  132MOL0     C17352   0.858   3.608   0.950  0.2510 -0.2776  0.7721
  132MOL0     C17353   0.978   3.578   1.041 -1.3442 -0.1864  0.3871
  132MOL0     C17354   1.088   3.502   0.961 -0.4870 -0.5094 -0.3313
  132MOL0     C17355   1.213   3.453   1.031  0.5017  0.3186 -0.1494
  132MOL0     C17356   1.312   3.405   1.074 -0.4740 -0.2800 -0.1117
  132MOL0     C17357   0.555   3.525   1.307  0.4881  0.0045  0.4971
  132MOL0     C17358   0.430   3.531   1.369  0.3024 -0.3647  0.0119
  132MOL0     H17359   0.225   3.551   1.751 -0.2495  1.1675  2.1978
  132MOL0     H17360   0.070   3.538   1.933 -2.0065  1.7744  1.2440
  132MOL0     H17361  -0.370   3.634   1.866 -0.0668  0.0962 -0.8151
  132MOL0     H17362  -0.219   3.712   1.896  1.9395 -2.5660 -1.3569
  132MOL0     H17363  -0.402   3.734   2.079  1.9036  0.4269 -2.8123
  132MOL0     H17364  -0.246   3.697   2.132 -3.3965  2.1013  2.9459
  132MOL0     H17365  -0.376   3.547   2.255  2.7562  0.4134 -0.9306
  132MOL0     H17366  -0.341   3.440   2.118  1.9607 -0.1635  1.0475
  132MOL0     H17367  -0.602   3.591   2.168 -0.6729  0.8588 -1.8341
  132MOL0     H17368  -0.566   3.505   2.012 -0.7723  0.7302  0.4549
  132MOL0     H17369  -0.578   3.399   2.295  2.6798  2.6273  0.0268
  132MOL0     H17370  -0.550   3.302   2.142  0.3202 -0.5842  0.9802
  132MOL0     H17371  -0.776   3.373   2.069  1.4210  1.5860 -0.4662
  132MOL0     H17372  -0.809   3.465   2.216  0.1604 -0.5587  1.0308
  132MOL0     H17373  -0.911   3.213   2.191 -0.7240 -0.4518  2.4262
  132MOL0     H17374  -0.744   3.167   2.226  1.1227 -0.0931  1.8714
  132MOL0     H17375  -0.889   3.370   2.394 -1.4211 -0.9986  0.4214
  132MOL0     H17376  -0.754   3.275   2.436  1.3151  1.5814 -2.2502
  132MOL0     H17377  -0.927   3.232   2.650 -2.9885  0.4733  1.7058
  132MOL0     H17378  -1.093   3.099   2.787  1.6018 -0.8627  0.4026
  132MOL0     H17379  -1.128   2.945   2.735 -1.7637 -1.4249  1.2669
  132MOL0     H17380  -1.341   2.998   2.674  0.0682  0.4920  1.1074
  132MOL0     H17381  -1.323   3.168   2.647 -0.0805  1.6641  2.0977
  132MOL0     H17382  -1.302   3.047   2.936 -2.2618 -0.3177  1.1605
  132MOL0     H17383  -1.278   3.211   2.885  0.2695 -0.3293  1.2788
  132MOL0     H17384  -1.501   3.251   2.815 -4.4581  2.4262  3.8044
  132MOL0     H17385  -1.505   3.173   2.976 -0.3165  0.2830 -0.0920
  132MOL0     H17386  -1.678   2.817   2.781  0.9650  0.0086  0.4111
  132MOL0     H17387  -1.900   2.766   2.848  2.0398  0.1758  1.9783
  132MOL0     H17388  -2.383   2.828   2.881 -1.5592  0.2977 -1.5153
  132MOL0     H17389  -2.606   2.861   2.879  1.9784 -0.9549 -1.5206
  132MOL0     H17390  -2.839   2.889   2.928  0.2357 -0.3904  0.0995
  132MOL0     H17391  -2.799   2.999   2.799 -0.5376  0.1191  0.0512
  132MOL0     H17392  -2.952   3.166   2.853 -0.8008  2.3511  2.9029
  132MOL0     H17393  -2.970   3.111   3.008  1.0409 -0.6734 -0.3703
  132MOL0     H17394  -3.181   3.039   2.848 -2.0629 -1.6078  1.9853
  132MOL0     H17395  -3.106   2.905   2.927  0.5605 -1.3128 -2.6511
  132MOL0     H17396  -2.990   2.858   2.700  1.6569  0.5689  1.5269
  132MOL0     H17397  -3.165   2.877   2.684 -1.3807  2.0298  1.7796
  132MOL0     H17398  -3.038   2.992   2.514 -0.2086 -0.5118 -0.3447
  132MOL0     H17399  -2.938   3.075   2.637  1.2451 -2.4329 -0.9170
  132MOL0     H17400  -3.112   3.221   2.706 -1.4880 -0.9563  0.4242
  132MOL0     H17401  -3.226   3.136   2.612  0.1001 -1.7780 -0.1842
  132MOL0     H17402  -2.980   3.254   2.481 -0.1771 -0.1144  1.2403
  132MOL0     H17403  -3.133   3.218   2.403  0.1762 -2.4143  1.2229
  132MOL0     H17404  -3.087   3.459   2.592  3.0280 -0.1861 -2.0176
  132MOL0     H17405  -3.248   3.388   2.537  0.0864 -5.8890  0.9850
  132MOL0     H17406  -2.578   3.228   3.098 -0.4399  0.1688 -0.9973
  132MOL0     H17407  -2.320   3.208   3.090  0.6052 -0.0362 -0.2128
  132MOL0     H17408  -1.987   3.190   2.904  0.4798 -0.8992  3.0025
  132MOL0     H17409  -1.740   3.234   2.873 -0.7004 -0.0241 -2.4083
  132MOL0     H17410  -0.263   3.508   1.654  0.6392 -2.9510 -2.3399
  132MOL0     H17411  -0.105   3.532   1.469 -1.3451  2.2309  0.2880
  132MOL0     H17412   0.303   3.809   1.202  1.2981  0.1521 -1.7935
  132MOL0     H17413   0.502   3.782   1.088 -0.3779 -1.2530 -1.0253
  132MOL0     H17414   0.801   3.743   1.105 -0.9712  1.7174 -0.5815
  132MOL0     H17415   0.669   3.714   0.988  0.3162  1.4920  2.6011
  132MOL0     H17416   0.824   3.515   0.904 -0.8706  0.6026 -0.2328
  132MOL0     H17417   0.881   3.683   0.874  0.5013 -1.6413 -0.5351
  132MOL0     H17418   0.961   3.510   1.125  1.2520  0.0078  1.1605
  132MOL0     H17419   1.024   3.670   1.077  0.1497  1.0033 -3.9645
  132MOL0     H17420   1.041   3.422   0.903 -0.9622 -0.1074 -0.5103
  132MOL0     H17421   1.117   3.578   0.887 -3.4430 -2.0413 -3.2849
  132MOL0     H17422   1.407   3.394   1.122 -1.0192  0.3768  1.1420
  132MOL0     H17423   0.633   3.459   1.343 -0.5910 -1.8673 -0.4190
  132MOL0     H17424   0.399   3.461   1.446  0.3106 -2.0857 -1.4962
  133MOL0     O17425   8.980   7.477   6.277  0.8486 -0.2607 -0.1013
  133MOL0     C17426   9.048   7.423   6.196  0.7090 -0.7386  0.0512
  133MOL0     O17427   9.123   7.497   6.105 -0.0500  0.1029  0.4776
  133MOL0     C17428   9.151   7.630   6.132 -0.2736 -0.7091  0.2552
  133MOL0     C17429   9.183   7.677   6.265 -0.4062 -0.7303  0.3660
  133MOL0     C17430   9.212   7.818   6.285  0.1991  0.7264 -0.0845
  133MOL0     C17431   9.224   7.903   6.179 -0.3963 -0.2861 -0.6569
  133MOL0     O17432   9.249   8.034   6.216  0.5667 -0.3950 -0.2933
  133MOL0     C17433   9.258   8.129   6.111  0.3615  0.5081 -1.1281
  133MOL0     C17434   9.280   8.271   6.170  0.4162  0.1670 -0.2729
  133MOL0     C17435   9.327   8.382   6.076  0.9706 -0.2532  0.6172
  133MOL0     C17436   9.481   8.382   6.060 -0.9301  0.1142 -0.0194
  133MOL0     C17437   9.538   8.505   5.985 -0.2367 -0.4274  0.1737
  133MOL0     C17438   9.687   8.517   5.987  0.7445  0.2012 -0.1509
  133MOL0     C17439   9.731   8.665   5.984 -0.2815  0.5640 -0.5352
  133MOL0     C17440   9.881   8.675   5.979  0.0080 -0.9116  0.2236
  133MOL0     N17441   9.944   8.575   5.887  0.2404  0.8998  0.0396
  133MOL0     C17442  10.004   8.627   5.776 -1.0614  1.3986  0.7948
  133MOL0     C17443  10.075   8.515   5.725 -0.0669 -0.3051  0.2889
  133MOL0     C17444  10.159   8.523   5.604 -0.5854  0.9283 -0.1015
  133MOL0     C17445  10.091   8.467   5.481  1.0307  0.1414  0.1423
  133MOL0     C17446  10.085   8.316   5.479 -0.8096  0.3152  0.3234
  133MOL0     C17447  10.040   8.252   5.345 -0.1631  0.6515 -0.1569
  133MOL0     O17448  10.032   8.112   5.363 -0.7929 -0.3613  0.6426
  133MOL0     C17449  10.152   8.040   5.337 -0.6311  0.4878  0.3730
  133MOL0     C17450  10.285   8.094   5.338  0.5279  0.4808  0.9115
  133MOL0     C17451  10.404   8.014   5.311  0.2897  0.0561 -0.1187
  133MOL0     C17452  10.383   7.876   5.286  0.3553 -0.3185 -0.4130
  133MOL0     C17453  10.486   7.785   5.263 -0.5422  0.1920  0.1025
  133MOL0     O17454  10.620   7.830   5.272  0.2733 -0.1172  0.5150
  133MOL0     C17455  10.716   7.738   5.274 -0.8218  0.3942 -1.0608
  133MOL0     C17456  10.733   7.653   5.165  0.2221 -0.1754 -0.0289
  133MOL0     C17457  10.833   7.556   5.167  0.0346 -0.4088  0.2571
  133MOL0     C17458  10.914   7.532   5.276 -0.0706 -0.5608  0.3701
  133MOL0     O17459  11.005   7.431   5.270  0.2884  0.4469 -0.7841
  133MOL0     C17460  11.129   7.451   5.335 -0.6471  0.4292 -0.2279
  133MOL0     C17461  11.240   7.375   5.289  0.2469 -0.5442  0.4403
  133MOL0     C17462  11.212   7.220   5.299  0.6083 -0.1985 -0.7552
  133MOL0     C17463  11.338   7.158   5.255 -0.0705 -0.3276 -0.2214
  133MOL0     C17464  11.338   7.005   5.273  0.0179 -0.6587  0.1981
  133MOL0     C17465  11.473   6.950   5.230 -0.5873 -0.0457 -0.3728
  133MOL0     C17466  11.472   6.803   5.245  0.2617 -0.4220  0.1403
  133MOL0     C17467  11.601   6.744   5.190  0.7550 -0.2465  0.6733
  133MOL0    Cl17468  11.728   6.800   5.295  0.4553 -0.6191 -0.0767
  133MOL0     C17469  10.898   7.614   5.393  0.7027 -0.2859  0.2068
  133MOL0     C17470  10.801   7.713   5.383 -0.2554  0.2340  0.5862
  133MOL0     O17471  10.465   7.668   5.247 -0.3830  0.1616  0.4235
  133MOL0     C17472  10.247   7.829   5.284 -0.5632  0.0145  0.6944
  133MOL0     C17473  10.144   7.910   5.301  0.9201 -0.6484  0.7250
  133MOL0     N17474  10.053   8.407   5.815  0.1616 -0.3664  0.1945
  133MOL0     N17475   9.982   8.447   5.920 -0.0631 -0.5246  0.6403
  133MOL0     C17476   9.214   7.852   6.051 -0.2946  0.3076 -1.1604
  133MOL0     C17477   9.178   7.721   6.028  0.0348 -1.1055  0.0950
  133MOL0     C17478   9.069   7.270   6.198  0.3466 -0.1174  0.6920
  133MOL0     C17479   9.017   7.182   6.300 -0.6995 -0.2153  0.0033
  133MOL0     C17480   9.020   7.045   6.276  0.8970 -0.2776 -1.0639
  133MOL0     C17481   9.067   6.990   6.161 -1.4200 -0.7854  0.1741
  133MOL0     O17482   9.069   6.858   6.135  0.1557  1.1308 -1.0683
  133MOL0     C17483   9.172   6.790   6.054 -0.7368 -1.0802 -0.2888
  133MOL0     C17484   9.319   6.808   6.105 -0.7594  0.3239 -0.0513
  133MOL0     C17485   9.407   6.679   6.085  0.0119  0.4371  0.1162
  133MOL0     C17486   9.443   6.614   6.215 -0.9172  1.0193 -0.1009
  133MOL0     C17487   9.321   6.586   6.296  0.2757 -0.0052  0.1468
  133MOL0     C17488   9.221   6.554   6.358  0.4502  0.0131  0.3080
  133MOL0     C17489   9.123   7.079   6.069 -0.3980  0.2674 -0.5759
  133MOL0     C17490   9.121   7.211   6.086  0.3956  0.4209 -0.6046
  133MOL0     H17491   9.182   7.614   6.353 -0.4142 -1.0097  0.1678
  133MOL0     H17492   9.221   7.846   6.390  1.5887 -3.9945  1.2971
  133MOL0     H17493   9.171   8.136   6.045  0.0943 -1.0667 -0.9851
  133MOL0     H17494   9.351   8.104   6.059  0.1421 -1.3629 -0.7158
  133MOL0     H17495   9.334   8.265   6.265 -1.7065  0.2694  1.0084
  133MOL0     H17496   9.180   8.305   6.198  0.1558 -1.1456  0.4835
  133MOL0     H17497   9.297   8.480   6.112 -1.2861 -1.5498  2.5410
  133MOL0     H17498   9.272   8.370   5.982  2.6847  0.3009 -0.5036
  133MOL0     H17499   9.531   8.367   6.157 -2.5610 -3.2923  0.4508
  133MOL0     H17500   9.506   8.293   6.002 -1.6498 -1.5313  2.0678
  133MOL0     H17501   9.494   8.597   6.024  3.0000  2.5884 -2.5644
  133MOL0     H17502   9.495   8.505   5.884 -1.8779  2.3118  0.7707
  133MOL0     H17503   9.723   8.466   5.897 -0.5136 -2.7101  0.8638
  133MOL0     H17504   9.722   8.463   6.076  0.6780  2.1848  1.1378
  133MOL0     H17505   9.694   8.706   5.890  1.7949  1.4968 -1.0123
  133MOL0     H17506   9.693   8.724   6.067 -2.7426 -0.2134 -1.0217
  133MOL0     H17507   9.924   8.676   6.079  2.0440  1.0591 -0.5847
  133MOL0     H17508   9.909   8.773   5.939 -0.2900 -1.3611 -1.1530
  133MOL0     H17509  10.022   8.728   5.741 -1.9710  0.6170 -2.1771
  133MOL0     H17510  10.244   8.458   5.629 -0.8852  1.1830  1.7607
  133MOL0     H17511  10.192   8.626   5.594  0.8231  0.9480  3.3567
  133MOL0     H17512  10.155   8.483   5.393  0.1029 -0.9255 -0.7692
  133MOL0     H17513   9.992   8.514   5.474  0.1557 -1.4443  1.2467
  133MOL0     H17514  10.184   8.281   5.508 -0.7094  2.0599  2.3209
  133MOL0     H17515  10.026   8.272   5.560  1.7818  0.2458  2.2908
  133MOL0     H17516  10.124   8.278   5.279  1.2376  1.0963  1.7178
  133MOL0     H17517   9.960   8.313   5.302  3.3356  4.1444 -2.4236
  133MOL0     H17518  10.289   8.201   5.355 -1.6481  0.5839  1.1200
  133MOL0     H17519  10.505   8.054   5.305  0.4945 -0.4238  0.0155
  133MOL0     H17520  10.655   7.643   5.090  1.0630 -1.7326 -0.7335
  133MOL0     H17521  10.841   7.498   5.076 -0.4036  3.3150 -2.3823
  133MOL0     H17522  11.128   7.432   5.443 -0.1369  0.8973 -0.1391
  133MOL0     H17523  11.152   7.558   5.327  1.6768  0.0151  0.2410
  133MOL0     H17524  11.322   7.402   5.355 -0.3187  0.9906  0.5482
  133MOL0     H17525  11.271   7.404   5.188  3.4286 -3.3798  0.4175
  133MOL0     H17526  11.130   7.189   5.233  1.0653  0.4245 -1.6364
  133MOL0     H17527  11.190   7.186   5.400 -3.6076 -2.7998 -2.2567
  133MOL0     H17528  11.349   7.185   5.150 -0.4915  2.5421  0.3590
  133MOL0     H17529  11.422   7.201   5.310  0.5820 -0.4568 -1.1098
  133MOL0     H17530  11.256   6.966   5.212  0.1655 -0.9076  0.1592
  133MOL0     H17531  11.313   6.978   5.376  2.1404  0.0849  0.9562
  133MOL0     H17532  11.550   6.973   5.304  0.1170 -4.1018  0.4030
  133MOL0     H17533  11.503   6.989   5.132  2.3226 -0.5466  0.2212
  133MOL0     H17534  11.452   6.787   5.351 -0.5534  2.1195  0.4441
  133MOL0     H17535  11.381   6.770   5.193 -0.5273  2.6142 -0.6116
  133MOL0     H17536  11.627   6.783   5.092 -2.1520  0.1653 -0.0228
  133MOL0     H17537  11.595   6.634   5.187  0.1707 -0.1965 -0.9713
  133MOL0     H17538  10.941   7.586   5.489  0.0084  0.0645  0.6213
  133MOL0     H17539  10.788   7.770   5.475  0.6479 -0.1466  0.9557
  133MOL0     H17540  10.231   7.727   5.249  0.2912 -0.0823  0.5551
  133MOL0     H17541  10.046   7.864   5.297  0.3926  0.3676  1.7273
  133MOL0     H17542   9.236   7.916   5.966  0.8506 -0.6470 -1.6143
  133MOL0     H17543   9.180   7.672   5.931 -2.4171 -3.2075  0.9890
  133MOL0     H17544   8.977   7.211   6.396 -1.2832 -0.4724 -0.1559
  133MOL0     H17545   8.993   6.985   6.362 -0.0128 -0.6177 -1.5757
  133MOL0     H17546   9.182   6.816   5.948  1.1509 -0.1403  0.0817
  133MOL0     H17547   9.145   6.684   6.059  0.8809 -1.4807  0.4140
  133MOL0     H17548   9.361   6.884   6.038  1.3845 -0.4828  0.3246
  133MOL0     H17549   9.323   6.853   6.205 -1.2816  4.4989 -1.7083
  133MOL0     H17550   9.499   6.698   6.029 -0.3293 -1.7005 -1.2572
  133MOL0     H17551   9.357   6.607   6.020 -0.2636  1.1116 -0.4432
  133MOL0     H17552   9.497   6.521   6.198  0.8193  1.8769  0.4761
  133MOL0     H17553   9.523   6.675   6.258  1.3031 -0.6409 -1.6954
  133MOL0     H17554   9.151   6.525   6.434  0.0228 -2.0229 -0.7966
  133MOL0     H17555   9.163   7.043   5.975 -0.8801  1.2512 -1.1761
  133MOL0     H17556   9.157   7.272   6.004  1.1114  1.0117  0.1369
  134MOL0     O17557   5.139   7.269   6.366 -1.0267  0.4126  0.3499
  134MOL0     C17558   5.041   7.304   6.440 -0.5103 -0.7418  1.4520
  134MOL0     O17559   4.941   7.391   6.405 -0.1702 -0.3043  0.2465
  134MOL0     C17560   4.930   7.445   6.280 -0.3163  0.4265  0.3031
  134MOL0     C17561   4.851   7.562   6.271 -0.2131  0.0809  0.4998
  134MOL0     C17562   4.827   7.630   6.154  0.1820  0.4666  0.0643
  134MOL0     C17563   4.866   7.580   6.030  0.0298  0.8938 -0.0795
  134MOL0     O17564   4.820   7.654   5.928  0.2574 -0.0292 -0.3587
  134MOL0     C17565   4.877   7.626   5.801 -0.6904  0.4007  1.3174
  134MOL0     C17566   4.821   7.696   5.674  0.2342 -0.2524 -0.5683
  134MOL0     C17567   4.856   7.839   5.648  0.0934  0.3161 -0.1257
  134MOL0     C17568   4.793   7.898   5.524  0.1418  0.3479 -0.2182
  134MOL0     C17569   4.776   8.037   5.523 -0.0296 -0.3373 -0.7826
  134MOL0     C17570   4.899   8.117   5.536 -1.1653 -0.1656 -0.3938
  134MOL0     C17571   4.994   8.089   5.419 -1.2281  0.1550  0.9794
  134MOL0     C17572   5.080   8.210   5.377  0.8138 -0.2925 -0.9777
  134MOL0     N17573   5.176   8.177   5.269  0.0397  0.8251 -0.8979
  134MOL0     C17574   5.159   8.204   5.138  0.1054  1.0448 -0.6704
  134MOL0     C17575   5.278   8.180   5.083 -0.1767 -0.1326  0.3607
  134MOL0     C17576   5.326   8.194   4.939  0.4383 -0.4078 -0.9944
  134MOL0     C17577   5.221   8.237   4.849  0.8029 -0.3889  0.1307
  134MOL0     C17578   5.270   8.246   4.703  0.3083  0.3338  0.8399
  134MOL0     C17579   5.280   8.108   4.638  0.6660 -0.4551  0.4093
  134MOL0     O17580   5.144   8.071   4.605 -0.7327 -0.0806 -0.2712
  134MOL0     C17581   5.127   7.989   4.500  0.3140 -0.4904  0.2851
  134MOL0     C17582   5.216   7.891   4.469 -0.8511 -0.7453  0.3955
  134MOL0     C17583   5.203   7.798   4.371  1.1738 -0.6224 -0.3273
  134MOL0     C17584   5.085   7.796   4.297 -0.3303  0.3910 -0.1442
  134MOL0     C17585   5.055   7.700   4.199 -0.1086 -0.0884  0.6552
  134MOL0     O17586   4.931   7.677   4.158  0.5326 -0.1630  0.1057
  134MOL0     C17587   4.906   7.567   4.077 -0.3554  0.3959 -0.9980
  134MOL0     C17588   4.978   7.537   3.956  0.5522  1.0316 -0.9185
  134MOL0     C17589   4.963   7.418   3.891  0.3327  0.1073 -0.0626
  134MOL0     C17590   4.862   7.326   3.928 -0.2504 -0.4104  1.7097
  134MOL0     O17591   4.854   7.204   3.854 -0.0735  0.6711  0.1057
  134MOL0     C17592   4.722   7.154   3.822  0.1526 -1.6467  0.3544
  134MOL0     C17593   4.733   7.047   3.722  0.5365 -0.3626  1.1603
  134MOL0     C17594   4.774   7.096   3.581  0.4611 -0.1007  0.0532
  134MOL0     C17595   4.662   7.180   3.514  0.4390  0.9939 -0.3813
  134MOL0     C17596   4.691   7.180   3.369  0.0967  0.4365  0.5583
  134MOL0     C17597   4.582   7.240   3.282  0.8062 -0.0679 -0.1079
  134MOL0     C17598   4.623   7.291   3.145 -0.6148  0.8842  0.4831
  134MOL0     C17599   4.498   7.349   3.071 -0.1434 -0.9533 -0.8877
  134MOL0    Cl17600   4.415   7.478   3.174  0.0940  0.3234  0.0532
  134MOL0     C17601   4.774   7.373   4.026 -1.3040  1.4571 -0.2225
  134MOL0     C17602   4.813   7.477   4.109  0.9267  0.5706 -0.8343
  134MOL0     O17603   5.155   7.629   4.169 -0.0292  0.4077 -0.0872
  134MOL0     C17604   4.987   7.899   4.321 -0.1428 -0.2355 -0.9559
  134MOL0     C17605   5.016   8.003   4.416 -0.4036 -0.4114 -1.0804
  134MOL0     N17606   5.368   8.142   5.182  0.8958 -0.0828  0.2587
  134MOL0     N17607   5.301   8.137   5.289  0.7001 -0.5431 -0.1788
  134MOL0     C17608   4.935   7.453   6.035 -0.8274 -0.6775 -0.7874
  134MOL0     C17609   4.980   7.401   6.153  0.8714 -0.7068  0.4094
  134MOL0     C17610   5.041   7.240   6.578 -0.0668 -0.5864 -0.5627
  134MOL0     C17611   4.983   7.320   6.676 -0.4528  0.2865 -0.1551
  134MOL0     C17612   4.984   7.284   6.812  0.0607  0.2873  0.1095
  134MOL0     C17613   5.058   7.169   6.857 -0.7589 -0.8328  0.6339
  134MOL0     O17614   5.054   7.141   6.995 -0.4633  0.0163  0.4248
  134MOL0     C17615   5.151   7.053   7.055 -0.5530 -0.1724  0.2167
  134MOL0     C17616   5.293   7.118   7.059  0.7461  0.7009 -0.2119
  134MOL0     C17617   5.284   7.247   7.138 -0.9977 -0.0138  0.1643
  134MOL0     C17618   5.429   7.301   7.123  0.0269 -0.6007 -0.1982
  134MOL0     C17619   5.472   7.373   7.237 -0.4686 -1.0584 -0.7192
  134MOL0     C17620   5.506   7.440   7.336  1.0735 -0.3292  0.7228
  134MOL0     C17621   5.124   7.100   6.760 -0.0358  0.2373  0.8370
  134MOL0     C17622   5.115   7.131   6.625 -0.3741 -0.2164  1.3242
  134MOL0     H17623   4.801   7.593   6.363 -3.1408 -1.2308 -0.5296
  134MOL0     H17624   4.764   7.718   6.163  0.5140  0.7410 -0.2710
  134MOL0     H17625   4.861   7.518   5.795  2.9133 -0.1912 -0.1136
  134MOL0     H17626   4.986   7.634   5.804  0.3369 -6.9410  1.0100
  134MOL0     H17627   4.713   7.684   5.684  0.4012 -1.9302 -0.5677
  134MOL0     H17628   4.851   7.646   5.581 -3.5867 -0.5684 -1.8099
  134MOL0     H17629   4.965   7.842   5.635  0.1671  1.8407  0.7007
  134MOL0     H17630   4.842   7.899   5.738  3.1904  1.8362 -0.5164
  134MOL0     H17631   4.850   7.852   5.443  3.3828  1.6136  1.1587
  134MOL0     H17632   4.689   7.866   5.514 -0.0427  1.1285 -0.9899
  134MOL0     H17633   4.725   8.068   5.615  5.0555 -0.2896  2.3715
  134MOL0     H17634   4.727   8.062   5.429  1.4915  1.5648 -1.1177
  134MOL0     H17635   4.937   8.105   5.637 -1.1420 -1.1150 -0.5102
  134MOL0     H17636   4.870   8.223   5.534 -0.4463  0.2481  3.3901
  134MOL0     H17637   5.065   8.009   5.441  0.0771  0.1252 -2.6734
  134MOL0     H17638   4.945   8.060   5.325  1.9414 -2.0610 -0.1291
  134MOL0     H17639   5.132   8.242   5.467 -0.6886  0.2724 -0.2803
  134MOL0     H17640   5.009   8.291   5.356 -2.6817 -2.4978  1.2363
  134MOL0     H17641   5.082   8.260   5.084 -0.4326  0.4461 -0.5414
  134MOL0     H17642   5.362   8.095   4.908 -0.2848 -1.5407  1.4549
  134MOL0     H17643   5.412   8.262   4.939  1.3666 -1.5418 -0.4947
  134MOL0     H17644   5.186   8.337   4.878 -1.5272 -1.0678 -0.1103
  134MOL0     H17645   5.123   8.189   4.852  1.4033 -1.9038 -2.1130
  134MOL0     H17646   5.202   8.306   4.642  0.6403  0.1998  0.3394
  134MOL0     H17647   5.358   8.310   4.710 -0.1255  0.9758  0.5741
  134MOL0     H17648   5.321   8.035   4.709 -2.6691  0.6737  3.8206
  134MOL0     H17649   5.342   8.104   4.548 -1.3839 -2.1861 -1.0602
  134MOL0     H17650   5.299   7.868   4.535 -1.3415  0.1895  1.3600
  134MOL0     H17651   5.277   7.719   4.365  2.2225  0.3526 -0.6072
  134MOL0     H17652   5.056   7.599   3.913  0.3824 -0.1904 -3.1369
  134MOL0     H17653   5.040   7.404   3.816  3.0430  3.6681  1.7257
  134MOL0     H17654   4.641   7.219   3.788  0.6459 -0.8779  0.6129
  134MOL0     H17655   4.689   7.112   3.917  1.5280 -0.2947  1.4880
  134MOL0     H17656   4.642   6.987   3.719  0.2956 -0.0698  2.0154
  134MOL0     H17657   4.818   6.989   3.761  0.9015  0.3782  1.5080
  134MOL0     H17658   4.803   7.018   3.510 -1.9935 -1.4163  0.3931
  134MOL0     H17659   4.863   7.159   3.579  0.6464 -0.2659 -3.3909
  134MOL0     H17660   4.564   7.136   3.534  1.0056  1.1752  3.6204
  134MOL0     H17661   4.641   7.285   3.539 -2.6626  0.6984 -1.3237
  134MOL0     H17662   4.708   7.083   3.321 -1.7127  0.2559  0.2222
  134MOL0     H17663   4.786   7.233   3.356  1.0022 -1.7395 -3.1201
  134MOL0     H17664   4.552   7.326   3.342 -0.0344  0.3606 -1.1030
  134MOL0     H17665   4.507   7.161   3.273  0.7709  0.1218 -1.9334
  134MOL0     H17666   4.708   7.361   3.143  0.4068 -0.2316  2.2373
  134MOL0     H17667   4.664   7.208   3.087 -0.2098  0.6321  1.1167
  134MOL0     H17668   4.428   7.269   3.046  0.6462 -1.3863 -1.8105
  134MOL0     H17669   4.536   7.398   2.981  1.1558  5.7810  2.6398
  134MOL0     H17670   4.698   7.300   4.052  1.1204 -0.7676  1.1853
  134MOL0     H17671   4.755   7.477   4.201  2.2801 -4.2315  0.3124
  134MOL0     H17672   4.889   7.902   4.274 -1.1812 -3.3185  0.7607
  134MOL0     H17673   4.940   8.080   4.428  0.5401  0.4000 -0.1337
  134MOL0     H17674   4.954   7.406   5.939 -1.4451 -0.2086 -1.1501
  134MOL0     H17675   5.046   7.316   6.136  2.2860  0.8432 -2.5257
  134MOL0     H17676   4.939   7.415   6.644 -1.6083 -0.4766 -0.8961
  134MOL0     H17677   4.939   7.346   6.889  2.0263  0.2705  1.3509
  134MOL0     H17678   5.157   6.964   6.993 -2.9106  0.8074 -1.5571
  134MOL0     H17679   5.120   7.030   7.157 -2.2789  0.3646 -0.1535
  134MOL0     H17680   5.359   7.046   7.107 -3.4366 -0.7491  4.0930
  134MOL0     H17681   5.331   7.147   6.960  3.6561 -1.4593  0.1502
  134MOL0     H17682   5.261   7.216   7.241  0.8287 -0.9908  0.3247
  134MOL0     H17683   5.215   7.312   7.084 -0.4026  1.2709  0.8983
  134MOL0     H17684   5.493   7.213   7.132  1.6513  0.5468 -0.0084
  134MOL0     H17685   5.438   7.355   7.028 -0.9096 -0.6394 -0.3225
  134MOL0     H17686   5.541   7.501   7.416  0.6506  0.0639  0.6129
  134MOL0     H17687   5.190   7.016   6.778 -0.2114  0.1950  1.3033
  134MOL0     H17688   5.185   7.076   6.562  1.6192  1.4288  2.0007
  135MOL0     O17689  10.413  10.904   9.461  0.2944  0.2293  0.1930
  135MOL0     C17690  10.503  10.837   9.405 -0.5034 -0.4590 -0.0326
  135MOL0     O17691  10.553  10.717   9.451 -0.2815  0.3315 -0.0903
  135MOL0     C17692  10.515  10.645   9.561  0.4413  0.1275 -0.0980
  135MOL0     C17693  10.610  10.567   9.620  0.2909  0.2876 -0.8549
  135MOL0     C17694  10.572  10.502   9.743 -0.4051 -0.8322  0.0039
  135MOL0     C17695  10.444  10.507   9.795  0.5664 -0.1838 -0.7640
  135MOL0     O17696  10.415  10.453   9.923  0.3328 -0.1746  0.8415
  135MOL0     C17697  10.455  10.319   9.948  0.1895  1.5595  0.2926
  135MOL0     C17698  10.452  10.272  10.094 -1.2938 -0.0916  0.6181
  135MOL0     C17699  10.320  10.289  10.169 -0.7251  1.1402  0.4572
  135MOL0     C17700  10.334  10.220  10.304  0.0316  0.2407  0.3034
  135MOL0     C17701  10.447  10.276  10.387 -1.1273 -0.8469  1.2916
  135MOL0     C17702  10.458  10.228  10.533 -0.2302 -0.3532  0.1899
  135MOL0     C17703  10.503  10.084  10.549 -0.4556 -0.6119 -0.2186
  135MOL0     C17704  10.490  10.016  10.690 -0.2514 -0.6663 -0.3064
  135MOL0     N17705  10.518   9.873  10.685  0.1794  0.4525 -0.2828
  135MOL0     C17706  10.616   9.812  10.764  0.0428  0.1946 -0.3062
  135MOL0     C17707  10.620   9.691  10.710  0.1146 -0.8341 -0.9308
  135MOL0     C17708  10.707   9.572  10.748  0.2429  0.5499 -0.2722
  135MOL0     C17709  10.859   9.588  10.718 -0.3322 -0.3157  0.0159
  135MOL0     C17710  10.907   9.561  10.567  0.1975 -0.8572  1.0092
  135MOL0     C17711  10.896   9.687  10.483 -0.4771  0.1802  0.1399
  135MOL0     O17712  10.986   9.794  10.516  0.1251 -0.5955  0.0808
  135MOL0     C17713  10.948   9.913  10.466 -0.5802  0.1623  0.6070
  135MOL0     C17714  10.901   9.927  10.339  0.3296 -1.0993  0.1923
  135MOL0     C17715  10.883  10.061  10.283 -1.1385 -0.6472 -0.0679
  135MOL0     C17716  10.904  10.177  10.365  0.3705 -1.0046  0.4676
  135MOL0     C17717  10.910  10.315  10.307 -0.0946  0.3983  0.3781
  135MOL0     O17718  10.874  10.339  10.174 -1.1688  0.3596  0.3621
  135MOL0     C17719  10.912  10.457  10.121 -0.5398  0.3607 -0.1627
  135MOL0     C17720  10.813  10.536  10.068  0.4753  0.0700 -0.4544
  135MOL0     C17721  10.837  10.665  10.007  0.5210  0.4196 -0.8279
  135MOL0     C17722  10.976  10.712   9.997  0.3166  0.5511  0.6512
  135MOL0     O17723  10.997  10.843   9.977 -0.6923 -0.1146 -0.0984
  135MOL0     C17724  11.116  10.893   9.906 -0.1079 -1.1255  0.3437
  135MOL0     C17725  11.070  11.028   9.849 -0.7677 -0.7389  0.2524
  135MOL0     C17726  11.186  11.100   9.763 -0.3088 -0.2873 -0.5812
  135MOL0     C17727  11.304  11.133   9.861 -0.2669 -0.0307  0.6987
  135MOL0     C17728  11.287  11.269   9.931 -0.1110  0.8614  0.2364
  135MOL0     C17729  11.420  11.314   9.970 -0.6428  0.5509 -0.3114
  135MOL0     C17730  11.408  11.445  10.041  0.8851  0.3545 -0.4229
  135MOL0     C17731  11.386  11.571   9.969  0.0763  0.5505  0.4450
  135MOL0    Cl17732  11.533  11.590   9.880  0.0628  0.6223 -0.2937
  135MOL0     C17733  11.081  10.632  10.041  0.2487  0.5458 -0.2703
  135MOL0     C17734  11.038  10.517  10.124 -0.6596 -0.2101 -0.0519
  135MOL0     O17735  10.947  10.398  10.392  0.0352  0.1842  0.4710
  135MOL0     C17736  10.939  10.160  10.505  1.2152  0.8927  0.1956
  135MOL0     C17737  10.968  10.025  10.544 -0.4693 -0.8667 -0.6641
  135MOL0     N17738  10.532   9.680  10.603  0.5720 -0.6707 -0.2917
  135MOL0     N17739  10.478   9.800  10.584  0.6791  0.2768  0.3893
  135MOL0     C17740  10.340  10.578   9.722 -0.1499  0.5820  0.2532
  135MOL0     C17741  10.379  10.640   9.597 -0.3364 -0.5511  0.1294
  135MOL0     C17742  10.579  10.902   9.297 -0.7011 -0.1441 -0.0930
  135MOL0     C17743  10.524  11.009   9.225 -0.7276  1.2714 -0.5690
  135MOL0     C17744  10.578  11.057   9.108 -0.5120  0.1984 -0.5487
  135MOL0     C17745  10.696  10.991   9.058  0.3903 -0.1522  0.5965
  135MOL0     O17746  10.748  11.033   8.934  0.2331 -0.1058 -0.5499
  135MOL0     C17747  10.875  10.973   8.890  0.0573 -0.4816  0.0749
  135MOL0     C17748  10.872  10.993   8.739 -0.8660  0.6606 -0.6283
  135MOL0     C17749  10.991  10.949   8.661  0.6779 -0.4659  0.3397
  135MOL0     C17750  10.991  11.016   8.523  0.1869  0.1721  0.3679
  135MOL0     C17751  11.075  11.140   8.515 -0.4295  1.0095 -0.1942
  135MOL0     C17752  11.136  11.244   8.515 -0.0967 -0.1257  0.3289
  135MOL0     C17753  10.758  10.898   9.136 -0.1255  0.3162 -0.6571
  135MOL0     C17754  10.703  10.847   9.256  0.5053  0.5791  0.2459
  135MOL0     H17755  10.712  10.577   9.582  1.0482 -1.6975  0.5260
  135MOL0     H17756  10.654  10.467   9.805 -0.0731  0.4045  0.3012
  135MOL0     H17757  10.563  10.329   9.930 -0.3535  3.0862 -2.9383
  135MOL0     H17758  10.406  10.245   9.885  1.5901 -0.6100  1.6405
  135MOL0     H17759  10.530  10.335  10.137 -1.1050 -0.1428  0.3541
  135MOL0     H17760  10.491  10.170  10.102  0.5079  0.2772 -2.0855
  135MOL0     H17761  10.244  10.245  10.104  0.2658  1.4299 -0.9584
  135MOL0     H17762  10.313  10.398  10.175 -0.9865  1.3778 -2.5123
  135MOL0     H17763  10.238  10.223  10.356 -0.0354 -0.4713  0.2320
  135MOL0     H17764  10.357  10.114  10.287 -0.8012  0.6094 -4.3233
  135MOL0     H17765  10.434  10.384  10.386 -0.2928 -0.7359 -0.5034
  135MOL0     H17766  10.540  10.254  10.335 -1.8787 -0.7660 -0.1281
  135MOL0     H17767  10.363  10.232  10.587  1.9145  3.5985  4.3897
  135MOL0     H17768  10.518  10.299  10.592 -1.7636  0.0995  1.2609
  135MOL0     H17769  10.451  10.021  10.476  1.3398 -2.6173  0.1276
  135MOL0     H17770  10.608  10.070  10.522  0.3634  0.1707  2.2965
  135MOL0     H17771  10.390  10.025  10.733 -0.8022  0.4597 -1.7499
  135MOL0     H17772  10.554  10.063  10.764 -2.6857 -0.8078  2.0490
  135MOL0     H17773  10.677   9.848  10.847  2.1259  0.1111 -1.7290
  135MOL0     H17774  10.663   9.481  10.707 -0.4179  0.3838  0.7572
  135MOL0     H17775  10.695   9.544  10.853  2.8902 -3.2976 -0.8106
  135MOL0     H17776  10.921   9.524  10.782 -1.1521 -1.0131  0.1341
  135MOL0     H17777  10.883   9.691  10.747 -1.2469  0.1292 -0.7647
  135MOL0     H17778  11.012   9.531  10.567  1.1603  2.1841 -0.2002
  135MOL0     H17779  10.847   9.479  10.526 -0.2579 -1.2673  2.4273
  135MOL0     H17780  10.791   9.718  10.492 -0.3729  0.2948  1.1051
  135MOL0     H17781  10.913   9.664  10.378  2.8523  2.0786  0.1003
  135MOL0     H17782  10.879   9.853  10.263 -0.5754  0.6601 -1.3343
  135MOL0     H17783  10.869  10.074  10.176 -2.9806  0.2551  0.2548
  135MOL0     H17784  10.711  10.500  10.074  0.9730 -2.4341 -3.7800
  135MOL0     H17785  10.754  10.733   9.989  1.5589  2.5078  1.6137
  135MOL0     H17786  11.148  10.827   9.825 -0.2964  0.2945 -0.9258
  135MOL0     H17787  11.196  10.903   9.980 -0.6146  0.5681  0.6927
  135MOL0     H17788  11.053  11.098   9.931 -0.0346 -0.6541  0.3424
  135MOL0     H17789  10.983  11.012   9.785  0.4031 -4.8144 -0.5505
  135MOL0     H17790  11.148  11.188   9.710 -3.2018 -0.0325  1.6669
  135MOL0     H17791  11.228  11.027   9.694  1.8735  1.8800 -1.7235
  135MOL0     H17792  11.333  11.053   9.930 -2.8756 -0.5063  1.3553
  135MOL0     H17793  11.386  11.147   9.790 -2.2542  0.5121 -1.6343
  135MOL0     H17794  11.206  11.261  10.004 -0.7472 -0.1716 -0.5407
  135MOL0     H17795  11.249  11.338   9.854 -2.3366  0.1191  0.5887
  135MOL0     H17796  11.486  11.333   9.885  2.1841 -2.7292  0.9190
  135MOL0     H17797  11.469  11.249  10.043  1.0508  2.4002  0.3060
  135MOL0     H17798  11.322  11.427  10.107  0.4312  0.7597 -0.8914
  135MOL0     H17799  11.502  11.453  10.095  0.4755  0.9481  0.2122
  135MOL0     H17800  11.374  11.650  10.044 -2.5993 -0.6055  1.3273
  135MOL0     H17801  11.302  11.565   9.899  0.9069 -0.9638 -0.4900
  135MOL0     H17802  11.184  10.666  10.041 -0.2896  2.2864  1.3409
  135MOL0     H17803  11.119  10.468  10.178 -0.7596 -1.2291 -0.7887
  135MOL0     H17804  10.962  10.238  10.577  0.6141  0.6628  0.6538
  135MOL0     H17805  11.004  10.002  10.644  2.0619 -0.1627 -1.3461
  135MOL0     H17806  10.245  10.571   9.772  1.0340  0.1937  2.5945
  135MOL0     H17807  10.313  10.693   9.529 -1.3851 -0.8589  0.8756
  135MOL0     H17808  10.433  11.060   9.255 -0.4017  0.5688  1.7721
  135MOL0     H17809  10.515  11.128   9.055  3.3825  3.1309 -1.7478
  135MOL0     H17810  10.884  10.866   8.915 -1.2797 -0.5494  0.2998
  135MOL0     H17811  10.965  11.021   8.929  0.1356 -2.6849  3.0155
  135MOL0     H17812  10.798  10.919   8.705  0.2945 -0.7691 -0.1726
  135MOL0     H17813  10.842  11.097   8.728 -2.5698  0.1354 -1.4379
  135MOL0     H17814  10.996  10.841   8.643  1.3411 -0.2196 -1.1197
  135MOL0     H17815  11.076  10.974   8.725  1.0544  3.0726 -1.2928
  135MOL0     H17816  11.038  10.961   8.441  1.3373  1.2051  0.2986
  135MOL0     H17817  10.886  11.036   8.500 -0.0304 -0.0591  1.1198
  135MOL0     H17818  11.192  11.333   8.499 -0.3752 -0.1942 -1.1148
  135MOL0     H17819  10.854  10.855   9.111  1.1541  1.7469  1.4075
  135MOL0     H17820  10.761  10.775   9.312 -0.9273 -1.1219 -0.3519
  136MOL0     O17821  11.064   7.158   7.735 -1.1431  0.0806 -0.5145
  136MOL0     C17822  11.026   7.121   7.838 -0.3757  0.6191 -0.5053
  136MOL0     O17823  10.936   7.019   7.862 -0.2283  0.5947 -0.1670
  136MOL0     C17824  10.890   6.961   7.747 -0.7743  1.2971  0.2628
  136MOL0     C17825  10.952   6.874   7.642 -0.7125  0.9092 -0.7297
  136MOL0     C17826  10.870   6.806   7.556 -0.1349  0.2789  0.6873
  136MOL0     C17827  10.733   6.824   7.560  0.3649 -0.2652 -0.2587
  136MOL0     O17828  10.665   6.758   7.463  0.4375 -0.5118 -0.1776
  136MOL0     C17829  10.524   6.798   7.448  0.0986  0.3364  0.9306
  136MOL0     C17830  10.468   6.726   7.316 -0.1046 -0.7052 -0.5224
  136MOL0     C17831  10.330   6.770   7.279  0.3091  0.2884  0.1566
  136MOL0     C17832  10.252   6.696   7.166  0.0261 -0.8240  0.0560
  136MOL0     C17833  10.287   6.776   7.038 -1.5319  0.1765 -0.2660
  136MOL0     C17834  10.192   6.749   6.919  1.0747 -0.6014 -0.6531
  136MOL0     C17835  10.110   6.623   6.917  0.5303  0.5995  0.3479
  136MOL0     C17836  10.051   6.595   6.780  0.7847 -0.0967  0.2283
  136MOL0     N17837   9.998   6.459   6.778  0.0787 -0.5642 -0.6184
  136MOL0     C17838   9.883   6.415   6.837 -0.1667 -0.1872  0.7742
  136MOL0     C17839   9.890   6.275   6.825  0.3102 -0.2245  0.8996
  136MOL0     C17840   9.794   6.187   6.897  0.1917 -1.0783 -0.1152
  136MOL0     C17841   9.859   6.092   6.993  0.3803 -0.3989 -0.1787
  136MOL0     C17842   9.890   6.159   7.130 -0.3912  0.7920 -0.4189
  136MOL0     C17843   9.978   6.056   7.213  0.1735 -0.4798  0.5805
  136MOL0     O17844  10.115   6.086   7.196 -0.2843  0.5900  1.0070
  136MOL0     C17845  10.179   6.157   7.297  0.4237 -0.6128  0.4135
  136MOL0     C17846  10.184   6.292   7.278  0.1518  0.8377  0.7152
  136MOL0     C17847  10.239   6.375   7.376 -0.0249 -0.0253 -0.2973
  136MOL0     C17848  10.310   6.322   7.492  0.2671 -0.1601  0.3258
  136MOL0     C17849  10.378   6.399   7.594  0.0430 -0.7071  0.2228
  136MOL0     O17850  10.438   6.333   7.697  0.3713  0.3591  0.5729
  136MOL0     C17851  10.525   6.398   7.783  0.9005 -0.1183 -0.1712
  136MOL0     C17852  10.632   6.470   7.732  0.1016 -0.9128 -0.6966
  136MOL0     C17853  10.733   6.515   7.823 -0.0042  0.5473 -0.0632
  136MOL0     C17854  10.708   6.519   7.965 -0.1818  0.6061 -0.4021
  136MOL0     O17855  10.791   6.568   8.059 -0.4997  0.3160  0.1950
  136MOL0     C17856  10.933   6.541   8.039  0.7948 -0.6089 -0.9935
  136MOL0     C17857  11.008   6.666   7.994 -0.5984 -0.8669  0.2102
  136MOL0     C17858  11.016   6.780   8.096  0.4676  0.0763 -0.2461
  136MOL0     C17859  11.158   6.801   8.143 -1.1019  0.4465 -0.6889
  136MOL0     C17860  11.161   6.903   8.246 -0.2673  0.6380  0.0797
  136MOL0     C17861  11.299   6.922   8.291 -0.4850  0.5190  0.7761
  136MOL0     C17862  11.322   7.027   8.395  0.5897 -0.2855 -1.4602
  136MOL0     C17863  11.464   7.030   8.449  0.3694  0.4100  0.5270
  136MOL0    Cl17864  11.578   7.129   8.336 -0.3090  0.0176 -0.4132
  136MOL0     C17865  10.578   6.482   8.000  0.9358  0.7280  0.1985
  136MOL0     C17866  10.488   6.411   7.913  0.3488  0.1175  0.0197
  136MOL0     O17867  10.353   6.525   7.594 -0.4242  0.1453  0.3619
  136MOL0     C17868  10.304   6.184   7.499 -0.2548  0.0346  0.0649
  136MOL0     C17869  10.232   6.098   7.413 -0.5503 -0.4495 -0.4150
  136MOL0     N17870  10.010   6.248   6.771 -0.4526 -0.2388  0.4320
  136MOL0     N17871  10.076   6.357   6.743 -0.6217  1.3922 -0.3536
  136MOL0     C17872  10.673   6.898   7.664 -0.1655  0.0979  0.5892
  136MOL0     C17873  10.754   6.963   7.757 -0.4342 -0.2270 -0.3638
  136MOL0     C17874  11.064   7.203   7.963 -0.0099  0.6841 -0.0349
  136MOL0     C17875  11.168   7.290   7.951 -1.0946 -1.3011  0.2414
  136MOL0     C17876  11.215   7.368   8.063 -0.9479  0.0322  0.2077
  136MOL0     C17877  11.141   7.356   8.183 -0.6684 -0.6880 -0.2760
  136MOL0     O17878  11.177   7.413   8.308 -0.1119  0.2915  0.6711
  136MOL0     C17879  11.287   7.499   8.322  0.7098  0.7511  0.0144
  136MOL0     C17880  11.313   7.514   8.471  0.1857  0.8111 -0.2362
  136MOL0     C17881  11.329   7.386   8.552  0.2123 -0.1115 -0.1801
  136MOL0     C17882  11.236   7.382   8.680  0.4376  0.4246  0.3081
  136MOL0     C17883  11.095   7.378   8.657 -0.2102  0.4562  0.5288
  136MOL0     C17884  10.979   7.371   8.613  0.4987  1.0592 -0.4814
  136MOL0     C17885  11.043   7.262   8.199  1.0809 -0.3093  0.2465
  136MOL0     C17886  10.997   7.191   8.083  0.3667  0.4298  0.1192
  136MOL0     H17887  11.058   6.851   7.641 -1.0950 -1.0055 -0.9656
  136MOL0     H17888  10.912   6.739   7.482 -1.0717  1.6790 -1.1932
  136MOL0     H17889  10.533   6.907   7.439  3.1163  0.0758 -0.9166
  136MOL0     H17890  10.467   6.775   7.539  0.0681  2.6439  1.5612
  136MOL0     H17891  10.478   6.618   7.330 -2.8715 -1.0047 -0.0853
  136MOL0     H17892  10.533   6.770   7.240 -0.3223  1.9447  0.7049
  136MOL0     H17893  10.336   6.878   7.261 -0.1340  0.7459  2.5154
  136MOL0     H17894  10.276   6.749   7.371 -0.2472  1.7023  0.1734
  136MOL0     H17895  10.268   6.589   7.156  2.4818 -0.8890  3.1600
  136MOL0     H17896  10.151   6.703   7.207 -0.5208  1.2507 -1.4811
  136MOL0     H17897  10.388   6.744   7.010 -1.9694  0.2688 -2.0941
  136MOL0     H17898  10.288   6.884   7.058 -3.2218 -0.0845  1.5452
  136MOL0     H17899  10.251   6.743   6.827  1.2322 -2.0364 -0.4669
  136MOL0     H17900  10.122   6.833   6.919 -1.1410 -2.2950  1.6139
  136MOL0     H17901  10.174   6.544   6.958 -0.1323  0.0088  0.2702
  136MOL0     H17902  10.033   6.631   6.995 -0.1299 -1.9284  0.0709
  136MOL0     H17903  10.129   6.610   6.705  3.3524 -3.2983  1.9899
  136MOL0     H17904   9.980   6.674   6.754 -0.0181  0.3143  3.3024
  136MOL0     H17905   9.809   6.474   6.890  0.6395  1.8717 -0.2876
  136MOL0     H17906   9.722   6.138   6.831  0.4337 -0.3185 -0.9610
  136MOL0     H17907   9.737   6.256   6.960  1.1577 -0.0090 -0.3992
  136MOL0     H17908   9.944   6.034   6.955 -0.8311 -1.7529 -0.9332
  136MOL0     H17909   9.787   6.014   7.020  1.3316 -0.6655  1.7949
  136MOL0     H17910   9.930   6.261   7.129 -4.0261  2.3800  0.7993
  136MOL0     H17911   9.794   6.181   7.178  0.4024 -0.5035  1.9322
  136MOL0     H17912   9.968   5.949   7.194 -1.2239 -0.2506 -0.1786
  136MOL0     H17913   9.959   6.058   7.320  3.3762 -3.3319  1.3618
  136MOL0     H17914  10.154   6.329   7.180  1.6447 -0.8026 -0.4300
  136MOL0     H17915  10.226   6.480   7.350 -0.2645 -0.1596 -0.7300
  136MOL0     H17916  10.633   6.473   7.624  1.1831  1.0223 -0.6754
  136MOL0     H17917  10.826   6.555   7.782  0.2112 -1.1248 -1.3137
  136MOL0     H17918  10.949   6.456   7.971  3.3775  0.2365 -1.5839
  136MOL0     H17919  10.969   6.486   8.126 -0.5455 -1.1527 -0.7644
  136MOL0     H17920  10.964   6.701   7.900 -1.7015 -2.3256  0.1431
  136MOL0     H17921  11.111   6.637   7.972 -0.0019  0.5601  0.9848
  136MOL0     H17922  10.951   6.768   8.183 -1.0349  0.0573 -1.3439
  136MOL0     H17923  10.984   6.874   8.051 -0.4860 -0.2698 -0.2970
  136MOL0     H17924  11.198   6.706   8.180  0.4943  1.7979  1.2969
  136MOL0     H17925  11.214   6.840   8.058  1.1310 -0.6186  0.1806
  136MOL0     H17926  11.109   6.845   8.323  0.4086 -1.6034 -1.0579
  136MOL0     H17927  11.109   6.993   8.213 -1.7114 -0.7400 -1.6083
  136MOL0     H17928  11.357   6.952   8.203  0.7503 -0.2265  1.3204
  136MOL0     H17929  11.343   6.828   8.324  2.9869  1.8737  0.3804
  136MOL0     H17930  11.293   7.126   8.361  1.4010  0.1644 -0.8955
  136MOL0     H17931  11.259   7.010   8.483 -0.6815  2.8160 -1.6357
  136MOL0     H17932  11.496   6.925   8.445 -2.5699 -0.7928  3.5468
  136MOL0     H17933  11.487   7.064   8.550  3.8002 -0.6988  0.2360
  136MOL0     H17934  10.535   6.518   8.093  1.6743  2.7456 -0.2010
  136MOL0     H17935  10.389   6.394   7.956  0.8703 -3.5925  0.0652
  136MOL0     H17936  10.341   6.126   7.582 -1.0569  1.8407  1.7697
  136MOL0     H17937  10.220   5.991   7.424 -4.3073 -0.0292  1.3739
  136MOL0     H17938  10.569   6.893   7.694 -0.3960 -0.3889 -0.2363
  136MOL0     H17939  10.702   7.011   7.840 -1.4465  1.4440 -1.8656
  136MOL0     H17940  11.230   7.306   7.863  0.7116  2.8617  2.0134
  136MOL0     H17941  11.314   7.412   8.059  1.3928 -4.4819  2.0736
  136MOL0     H17942  11.265   7.600   8.285  1.7372  1.1398  0.4220
  136MOL0     H17943  11.376   7.467   8.267  1.7100  0.5652  1.6889
  136MOL0     H17944  11.407   7.568   8.478  0.8686 -0.4474  0.7343
  136MOL0     H17945  11.232   7.571   8.517  0.2454  1.6023 -1.0895
  136MOL0     H17946  11.429   7.378   8.595 -0.6800 -0.2079  2.0269
  136MOL0     H17947  11.306   7.296   8.495  1.1128 -1.7809  1.9783
  136MOL0     H17948  11.260   7.290   8.734 -3.0505 -0.8675 -0.0968
  136MOL0     H17949  11.263   7.468   8.743  3.5887  1.1696 -1.8517
  136MOL0     H17950  10.874   7.367   8.595  0.5679  2.2547 -1.2135
  136MOL0     H17951  10.996   7.233   8.293 -0.5151 -2.6282 -1.1644
  136MOL0     H17952  10.911   7.125   8.091  2.7237 -2.8247  0.8970
  137MOL0     O17953   9.253   5.475   9.911  0.4257 -0.5282 -0.0110
  137MOL0     C17954   9.276   5.542   9.808  0.4482 -0.0054  0.2510
  137MOL0     O17955   9.315   5.487   9.690 -0.7390 -0.1289 -0.6407
  137MOL0     C17956   9.316   5.349   9.680 -0.8101 -0.1781 -0.5785
  137MOL0     C17957   9.207   5.270   9.672  0.5410 -0.3220 -1.0072
  137MOL0     C17958   9.216   5.132   9.658  0.3870 -0.6311 -0.3464
  137MOL0     C17959   9.345   5.074   9.645 -0.3583 -0.6017 -0.2790
  137MOL0     O17960   9.343   4.938   9.628  0.1453 -0.2841  0.2381
  137MOL0     C17961   9.470   4.875   9.609 -0.6450 -0.9153  0.2000
  137MOL0     C17962   9.455   4.726   9.626  0.0912  0.6736  1.2969
  137MOL0     C17963   9.596   4.658   9.626 -0.3057 -1.3713  0.4798
  137MOL0     C17964   9.597   4.521   9.692 -0.9959  0.1464  0.4766
  137MOL0     C17965   9.617   4.405   9.599 -0.2802  0.7751 -0.1378
  137MOL0     C17966   9.618   4.273   9.684 -0.0355 -0.5413  0.2906
  137MOL0     C17967   9.502   4.251   9.792  0.6102 -0.5406 -0.0946
  137MOL0     C17968   9.366   4.253   9.740  1.5179 -0.7830 -0.4278
  137MOL0     N17969   9.349   4.129   9.668  0.9889  0.0235  0.0176
  137MOL0     C17970   9.374   4.004   9.709 -1.6486  0.5303 -0.3250
  137MOL0     C17971   9.395   3.925   9.602 -0.4485 -0.3585  0.2504
  137MOL0     C17972   9.476   3.795   9.596 -0.0345 -0.7085  0.2175
  137MOL0     C17973   9.398   3.675   9.657  0.5747 -1.3157  0.2902
  137MOL0     C17974   9.504   3.562   9.672  0.1890  0.0302  0.2928
  137MOL0     C17975   9.440   3.421   9.703 -0.8711 -0.8433  0.2988
  137MOL0     O17976   9.554   3.357   9.748 -0.4370 -0.3143 -0.3563
  137MOL0     C17977   9.567   3.221   9.748 -0.9943  0.7474 -1.2651
  137MOL0     C17978   9.459   3.133   9.758  0.8722 -0.0336 -0.7591
  137MOL0     C17979   9.475   2.995   9.767 -0.2127 -0.2189  0.0027
  137MOL0     C17980   9.604   2.947   9.778  0.0572 -0.1754  0.1541
  137MOL0     C17981   9.620   2.801   9.809 -1.2800  0.5364  0.5607
  137MOL0     O17982   9.510   2.725   9.798 -0.1294  0.5197 -0.3796
  137MOL0     C17983   9.505   2.609   9.869  0.0925  1.1576 -0.4939
  137MOL0     C17984   9.562   2.595   9.993 -0.2577 -0.2123  0.1655
  137MOL0     C17985   9.568   2.472  10.054  0.1875  0.3447 -0.8523
  137MOL0     C17986   9.499   2.359  10.009 -0.9947 -0.2438  0.2617
  137MOL0     O17987   9.497   2.233  10.076  0.7140  0.5609  0.4680
  137MOL0     C17988   9.562   2.209  10.202 -0.1960 -0.5741  0.0889
  137MOL0     C17989   9.471   2.231  10.317  0.9526  0.6787  0.3683
  137MOL0     C17990   9.361   2.123  10.333  0.5896  0.1501  0.0426
  137MOL0     C17991   9.276   2.151  10.464 -0.5923 -0.1651 -0.8375
  137MOL0     C17992   9.161   2.057  10.493  0.2168 -0.2969 -0.9391
  137MOL0     C17993   9.056   2.063  10.390 -0.2998 -1.3768  0.2050
  137MOL0     C17994   8.968   2.188  10.402 -0.5478  0.6481  0.0138
  137MOL0     C17995   8.881   2.210  10.523 -0.9309  0.2177  0.5078
  137MOL0    Cl17996   8.763   2.340  10.488  0.3138  0.1189 -0.5778
  137MOL0     C17997   9.437   2.375   9.888 -0.4203 -1.0023 -1.1252
  137MOL0     C17998   9.440   2.500   9.814 -0.7234  0.1125 -0.1482
  137MOL0     O17999   9.732   2.758   9.840 -1.2572 -0.2506  0.4699
  137MOL0     C18000   9.715   3.023   9.760 -0.6018  0.1283  0.5665
  137MOL0     C18001   9.703   3.161   9.745  1.1692 -0.0622  0.1448
  137MOL0     N18002   9.380   4.004   9.495  0.6900 -0.2427 -0.0886
  137MOL0     N18003   9.356   4.126   9.535  0.1957 -0.4350 -0.6212
  137MOL0     C18004   9.455   5.158   9.632 -0.7993 -0.5694 -0.0623
  137MOL0     C18005   9.436   5.293   9.644 -0.0170  0.2577  0.3179
  137MOL0     C18006   9.249   5.685   9.793 -0.0001 -0.3521 -0.8217
  137MOL0     C18007   9.193   5.756   9.905 -1.7770 -0.3362  0.2990
  137MOL0     C18008   9.169   5.899   9.889 -0.6886  0.9211  0.3764
  137MOL0     C18009   9.185   5.963   9.763  0.0961 -0.5793 -0.1703
  137MOL0     O18010   9.136   6.092   9.756  0.2448 -0.1631  0.4123
  137MOL0     C18011   9.159   6.179   9.641  0.3993 -0.0498 -0.7476
  137MOL0     C18012   9.064   6.141   9.525  0.4455 -0.3708 -1.4404
  137MOL0     C18013   9.097   6.055   9.401 -0.8656  0.3235  0.0555
  137MOL0     C18014   8.991   6.060   9.296  0.2109 -0.0685 -0.2904
  137MOL0     C18015   8.968   6.186   9.222 -0.3442  0.9033  0.9061
  137MOL0     C18016   8.930   6.289   9.162 -1.2975 -0.4837  0.3271
  137MOL0     C18017   9.254   5.896   9.666  0.3522  1.3461  0.5546
  137MOL0     C18018   9.276   5.753   9.672 -0.5834 -0.9649 -0.1727
  137MOL0     H18019   9.111   5.320   9.672  0.8132  0.2187 -0.0759
  137MOL0     H18020   9.127   5.069   9.661 -1.8596  2.2256 -1.9362
  137MOL0     H18021   9.526   4.909   9.697  1.0358 -1.4702 -0.6145
  137MOL0     H18022   9.526   4.903   9.519 -1.4944 -2.3253 -0.7904
  137MOL0     H18023   9.397   4.678   9.547 -1.9613  0.5673  2.7792
  137MOL0     H18024   9.389   4.700   9.709 -1.6133  3.0423  0.7903
  137MOL0     H18025   9.673   4.719   9.674  0.0882  0.0892 -1.8329
  137MOL0     H18026   9.628   4.661   9.521  2.4723 -0.4093  1.2695
  137MOL0     H18027   9.670   4.507   9.772 -5.4051 -3.2934  4.5090
  137MOL0     H18028   9.502   4.503   9.745 -0.0835 -1.5556  1.5994
  137MOL0     H18029   9.715   4.415   9.553  0.9831  1.2483  2.5046
  137MOL0     H18030   9.538   4.408   9.523  0.5293 -1.3646 -1.1304
  137MOL0     H18031   9.713   4.270   9.738 -1.2095  1.1626  2.6567
  137MOL0     H18032   9.630   4.199   9.604  0.7008  1.2916 -1.3843
  137MOL0     H18033   9.505   4.163   9.858  2.9967 -0.3382  0.1521
  137MOL0     H18034   9.506   4.330   9.867 -1.1812  0.7168 -1.2619
  137MOL0     H18035   9.359   4.344   9.681 -0.9288  0.8552  2.1166
  137MOL0     H18036   9.291   4.261   9.819  2.8056 -2.1166  0.9820
  137MOL0     H18037   9.402   3.984   9.812  0.2789  1.6883 -0.5857
  137MOL0     H18038   9.566   3.817   9.655 -0.2391  1.4817 -0.2090
  137MOL0     H18039   9.502   3.774   9.492 -0.7337  1.0173 -0.3483
  137MOL0     H18040   9.319   3.642   9.589  3.0247 -3.3346 -1.7840
  137MOL0     H18041   9.367   3.699   9.759  0.2445  2.6776 -0.5739
  137MOL0     H18042   9.568   3.541   9.585 -1.0873 -0.7882 -0.4886
  137MOL0     H18043   9.570   3.588   9.755  0.7852  0.0269 -0.1706
  137MOL0     H18044   9.392   3.378   9.614 -0.4005  0.3100 -0.5446
  137MOL0     H18045   9.361   3.434   9.777 -2.4135 -1.3140 -1.1804
  137MOL0     H18046   9.358   3.172   9.759  0.6489 -0.5184 -2.4657
  137MOL0     H18047   9.381   2.942   9.775  0.8757 -2.0386  1.7333
  137MOL0     H18048   9.604   2.684  10.037  0.4163 -0.0386 -0.8054
  137MOL0     H18049   9.615   2.468  10.151  0.1528 -0.8988 -0.8659
  137MOL0     H18050   9.661   2.255  10.214  0.2218 -1.7537  1.5074
  137MOL0     H18051   9.598   2.105  10.206  0.4748 -0.3079  1.6145
  137MOL0     H18052   9.419   2.326  10.323 -1.7134 -0.6056 -0.8278
  137MOL0     H18053   9.532   2.218  10.408  0.0856  1.8609  1.1376
  137MOL0     H18054   9.417   2.029  10.332  0.7074  0.1867  1.5866
  137MOL0     H18055   9.293   2.131  10.247 -0.4202  3.4471  1.0060
  137MOL0     H18056   9.348   2.113  10.537 -0.7917 -1.4833 -1.2957
  137MOL0     H18057   9.256   2.258  10.465 -1.4521  0.0114 -6.1431
  137MOL0     H18058   9.114   2.062  10.591 -0.8017  0.0109 -1.4350
  137MOL0     H18059   9.212   1.962  10.478  1.5609  0.5411 -1.9982
  137MOL0     H18060   8.995   1.972  10.391  0.6645 -2.0304  0.6331
  137MOL0     H18061   9.097   2.068  10.288  0.9042  0.9819  0.7367
  137MOL0     H18062   9.032   2.277  10.399  0.8366 -0.3276 -1.4294
  137MOL0     H18063   8.904   2.191  10.313 -0.7545  2.7574  0.1789
  137MOL0     H18064   8.938   2.242  10.611  2.5814 -1.7073 -0.8315
  137MOL0     H18065   8.836   2.116  10.557  1.6065 -1.0955  0.5478
  137MOL0     H18066   9.374   2.298   9.844 -0.8512 -0.7807 -0.9091
  137MOL0     H18067   9.388   2.501   9.719 -1.5497  0.6807  0.2947
  137MOL0     H18068   9.814   2.985   9.783  1.3521  3.6013 -1.1232
  137MOL0     H18069   9.790   3.222   9.766  0.6186  0.2025  1.8185
  137MOL0     H18070   9.550   5.121   9.595 -1.2324 -2.5881  0.7033
  137MOL0     H18071   9.524   5.355   9.629  2.2413 -2.0641  2.8872
  137MOL0     H18072   9.175   5.712  10.003 -2.4350 -3.0409 -0.9491
  137MOL0     H18073   9.110   5.955   9.961 -2.1010  0.4095 -0.3484
  137MOL0     H18074   9.264   6.171   9.612  1.3562  4.2717  0.8121
  137MOL0     H18075   9.135   6.281   9.671 -1.4893 -0.6693 -0.0140
  137MOL0     H18076   8.975   6.098   9.572  0.6509 -0.4294 -1.0998
  137MOL0     H18077   9.035   6.241   9.492 -0.1812 -0.5722 -1.5077
  137MOL0     H18078   9.115   5.954   9.439 -3.0885  0.1903  0.9543
  137MOL0     H18079   9.188   6.101   9.362 -1.1708  0.9712  0.0965
  137MOL0     H18080   9.011   5.997   9.209 -2.2555  0.9172 -1.6292
  137MOL0     H18081   8.897   6.042   9.349  0.3493 -1.0811 -0.3698
  137MOL0     H18082   8.885   6.375   9.117 -1.2506  0.7793  2.5400
  137MOL0     H18083   9.286   5.946   9.575 -1.1237  1.8121  0.2512
  137MOL0     H18084   9.329   5.705   9.590  2.4396 -0.4728  1.3301
  138MOL0     O18085   4.097   0.028  11.272 -0.5829 -0.7179  0.2772
  138MOL0     C18086   4.015   0.010  11.182  0.3859 -0.9303  0.1026
  138MOL0     O18087   4.044   0.019  11.052 -0.3186 -0.0945 -0.4327
  138MOL0     C18088   4.167   0.051  10.997  0.2229 -0.0888  0.3661
  138MOL0     C18089   4.161   0.034  10.855 -0.2650  1.1949 -0.2965
  138MOL0     C18090   4.276   0.075  10.781 -1.5459  0.2072 -0.2016
  138MOL0     C18091   4.393   0.130  10.849  0.3323  0.2097  0.8319
  138MOL0     O18092   4.503   0.157  10.772 -0.0425  0.7930 -0.4363
  138MOL0     C18093   4.478   0.240  10.652 -0.6600 -0.6145 -0.1036
  138MOL0     C18094   4.615   0.261  10.600 -0.0636  0.9970 -0.9202
  138MOL0     C18095   4.625   0.394  10.529  0.2861 -0.1964 -0.6217
  138MOL0     C18096   4.769   0.436  10.504 -0.0966  0.1654 -0.4921
  138MOL0     C18097   4.785   0.576  10.453 -0.8537  0.8408  0.1556
  138MOL0     C18098   4.934   0.616  10.427  0.3913  0.4865  0.4722
  138MOL0     C18099   4.922   0.756  10.374 -0.6030 -0.6172 -0.8249
  138MOL0     C18100   4.884   0.857  10.489  1.1273  0.5240  0.0189
  138MOL0     N18101   4.896   0.991  10.437  0.0929 -0.0228  0.1915
  138MOL0     C18102   5.013   1.062  10.453 -0.5209 -0.6159 -0.9006
  138MOL0     C18103   4.989   1.174  10.387  0.0920  0.3770 -0.7947
  138MOL0     C18104   5.099   1.274  10.352  0.8354  0.9081  0.7953
  138MOL0     C18105   5.181   1.257  10.227  0.0297 -0.0911  1.0702
  138MOL0     C18106   5.092   1.273  10.105  0.0023 -0.0534 -0.1582
  138MOL0     C18107   5.163   1.340   9.980 -0.3982  1.2632  0.8613
  138MOL0     O18108   5.285   1.285   9.942  1.2868 -0.0552  0.5217
  138MOL0     C18109   5.287   1.175   9.860 -0.2570  0.5256 -0.2031
  138MOL0     C18110   5.409   1.120   9.830 -0.2179 -0.5545  0.7368
  138MOL0     C18111   5.432   1.020   9.747 -0.1951  0.6626  0.0594
  138MOL0     C18112   5.325   0.937   9.700  0.3735 -0.1765 -0.6359
  138MOL0     C18113   5.358   0.807   9.630  0.4376 -1.1834  0.1571
  138MOL0     O18114   5.482   0.788   9.566 -0.2231  0.0045 -0.4713
  138MOL0     C18115   5.519   0.661   9.517  0.8006 -0.4028 -0.0582
  138MOL0     C18116   5.511   0.630   9.384  0.3118 -0.1029  1.3641
  138MOL0     C18117   5.574   0.517   9.327  0.9987  0.9000 -1.1425
  138MOL0     C18118   5.636   0.425   9.417  0.1356 -0.3074  0.2186
  138MOL0     O18119   5.702   0.306   9.385  0.1570 -0.3759 -0.2645
  138MOL0     C18120   5.631   0.226   9.300 -1.4597  0.4232  0.2958
  138MOL0     C18121   5.508   0.153   9.361  0.1637  0.8188  0.2378
  138MOL0     C18122   5.521   0.085   9.493 -0.6605  0.3923 -0.0973
  138MOL0     C18123   5.634  -0.018   9.500  0.2547 -0.1030  0.0794
  138MOL0     C18124   5.652  -0.092   9.624 -1.1922 -0.1459 -0.2450
  138MOL0     C18125   5.708  -0.015   9.756  1.4910  0.6120 -0.1768
  138MOL0     C18126   5.743  -0.117   9.870 -0.1519 -1.0009  0.4137
  138MOL0     C18127   5.668  -0.087   9.996 -0.2055  0.0995 -0.0445
  138MOL0    Cl18128   5.492  -0.154   9.973 -0.2185 -0.2588  0.5442
  138MOL0     C18129   5.652   0.465   9.555  0.4965 -1.0223  0.0068
  138MOL0     C18130   5.584   0.576   9.604  1.3072  0.0603 -0.3397
  138MOL0     O18131   5.273   0.724   9.644 -0.1150 -0.4534  0.4658
  138MOL0     C18132   5.202   0.981   9.733 -0.0091  0.3239 -0.0232
  138MOL0     C18133   5.178   1.101   9.800  0.2823  0.5941  0.3640
  138MOL0     N18134   4.866   1.177  10.340  0.5283 -0.0425 -0.1484
  138MOL0     N18135   4.800   1.070  10.368 -0.3908  0.8250  0.0997
  138MOL0     C18136   4.382   0.146  10.984  0.7264 -0.1237 -0.5861
  138MOL0     C18137   4.276   0.110  11.063  0.4081 -0.2615 -0.4016
  138MOL0     C18138   3.876  -0.023  11.230 -0.1410 -0.2755 -0.1225
  138MOL0     C18139   3.852  -0.003  11.367 -0.2423  0.3618 -1.3486
  138MOL0     C18140   3.722  -0.022  11.420  0.1289  0.5130  0.2657
  138MOL0     C18141   3.621  -0.073  11.339  0.1562 -0.0413  0.0401
  138MOL0     O18142   3.502  -0.109  11.405  0.0450 -0.0166 -0.2783
  138MOL0     C18143   3.414  -0.202  11.339 -0.1696 -0.6104  0.3581
  138MOL0     C18144   3.275  -0.223  11.399 -0.4543 -0.3137  0.6676
  138MOL0     C18145   3.194  -0.091  11.408 -0.0893  0.1248  0.2819
  138MOL0     C18146   3.062  -0.109  11.500 -0.7259  0.3396  0.1038
  138MOL0     C18147   3.013   0.032  11.500 -0.2572 -0.5476 -0.1650
  138MOL0     C18148   2.958   0.140  11.503 -0.4451 -0.0678  0.5702
  138MOL0     C18149   3.660  -0.111  11.211  0.1421  0.3368  0.0329
  138MOL0     C18150   3.781  -0.078  11.153  0.5717 -0.0831  0.2381
  138MOL0     H18151   4.073  -0.014  10.813  0.0647 -0.9442  1.2849
  138MOL0     H18152   4.265   0.059  10.674  0.1356 -0.4126 -0.3201
  138MOL0     H18153   4.434   0.336  10.680  0.1178 -1.0728  3.1340
  138MOL0     H18154   4.425   0.184  10.575 -0.8971 -0.8810  0.2517
  138MOL0     H18155   4.654   0.178  10.540 -0.7714  0.0272 -0.0810
  138MOL0     H18156   4.695   0.255  10.674 -0.9563  2.7508  0.2539
  138MOL0     H18157   4.577   0.468  10.594  1.2971 -1.2668  1.4520
  138MOL0     H18158   4.566   0.396  10.437  1.7653  0.3547 -1.5938
  138MOL0     H18159   4.817   0.445  10.602 -1.7338  1.1067  0.2592
  138MOL0     H18160   4.813   0.357  10.442 -0.5799  0.1176 -0.7839
  138MOL0     H18161   4.735   0.649  10.517  0.5747  4.0845 -2.1160
  138MOL0     H18162   4.726   0.571  10.361  0.0754 -2.0516 -0.3952
  138MOL0     H18163   4.993   0.555  10.358  0.5522 -2.0658  2.6954
  138MOL0     H18164   4.981   0.615  10.526  1.0217 -0.7594  0.1762
  138MOL0     H18165   5.024   0.789  10.349 -0.8699  1.0321  0.1271
  138MOL0     H18166   4.857   0.778  10.288  0.2114 -1.3094 -1.6464
  138MOL0     H18167   4.949   0.847  10.575 -1.0015 -0.9087  1.5735
  138MOL0     H18168   4.778   0.839  10.509  1.5919 -1.9924  0.4856
  138MOL0     H18169   5.103   1.035  10.507  0.2706  1.1038 -1.2867
  138MOL0     H18170   5.175   1.279  10.430 -0.9339  4.4725  2.5580
  138MOL0     H18171   5.058   1.375  10.364  1.9913  1.2831  1.8347
  138MOL0     H18172   5.235   1.162  10.221  2.4129  1.2310  0.1190
  138MOL0     H18173   5.252   1.340  10.217 -3.0297  3.1207  3.5585
  138MOL0     H18174   5.065   1.172  10.074  0.2700  0.0546 -0.7608
  138MOL0     H18175   5.007   1.337  10.129  1.5774  1.9970  0.2710
  138MOL0     H18176   5.193   1.444   9.997  1.0591  1.6068 -2.8526
  138MOL0     H18177   5.099   1.329   9.892  3.6755 -0.7842 -2.1734
  138MOL0     H18178   5.488   1.159   9.893 -0.6681 -2.0973  2.3292
  138MOL0     H18179   5.535   0.996   9.725  0.2227  2.3858  0.0065
  138MOL0     H18180   5.470   0.705   9.316 -1.4153 -3.2887 -1.3975
  138MOL0     H18181   5.563   0.512   9.219 -1.5745 -0.1146 -0.8993
  138MOL0     H18182   5.704   0.148   9.277  0.1869  2.2852 -1.2912
  138MOL0     H18183   5.596   0.274   9.208 -2.0933  1.3381  0.9913
  138MOL0     H18184   5.453   0.093   9.288 -0.5844  1.8297 -0.0593
  138MOL0     H18185   5.441   0.236   9.386 -0.4464  0.1827  0.7377
  138MOL0     H18186   5.423   0.039   9.510 -1.0104  1.1969  0.1336
  138MOL0     H18187   5.530   0.156   9.576  0.5462 -2.3703  2.3057
  138MOL0     H18188   5.615  -0.085   9.416  0.7296  1.2034 -1.1157
  138MOL0     H18189   5.733   0.015   9.468  1.8427 -4.2186  0.1345
  138MOL0     H18190   5.728  -0.167   9.600 -1.1117 -0.5300  1.1708
  138MOL0     H18191   5.558  -0.137   9.657  0.0898 -1.6000  1.6201
  138MOL0     H18192   5.630   0.056   9.785  0.6152  0.9941 -3.1588
  138MOL0     H18193   5.795   0.043   9.727  1.2221  0.4864 -1.2727
  138MOL0     H18194   5.721  -0.221   9.843  1.5268 -1.3142  0.0899
  138MOL0     H18195   5.850  -0.106   9.889  0.4860  1.1810 -3.3060
  138MOL0     H18196   5.678   0.021  10.011  1.4050  0.0573 -0.6517
  138MOL0     H18197   5.705  -0.143  10.082  0.8482  1.0933  0.1688
  138MOL0     H18198   5.691   0.388   9.621 -0.6476  1.7334  4.2668
  138MOL0     H18199   5.587   0.605   9.708  0.7338  4.2774 -1.2811
  138MOL0     H18200   5.115   0.929   9.695 -0.5923  2.6946 -2.2727
  138MOL0     H18201   5.079   1.139   9.819  0.6779  2.2643 -0.6608
  138MOL0     H18202   4.466   0.193  11.034 -0.5225  2.3192 -0.6274
  138MOL0     H18203   4.285   0.125  11.170  4.2402 -0.9027 -0.5037
  138MOL0     H18204   3.926   0.010  11.445 -1.4943 -5.0506  1.2670
  138MOL0     H18205   3.697  -0.027  11.525 -1.1482 -4.6847  0.0040
  138MOL0     H18206   3.461  -0.300  11.346  2.0016  0.1213 -2.2164
  138MOL0     H18207   3.404  -0.195  11.230  0.1821  1.5995  0.4023
  138MOL0     H18208   3.210  -0.281  11.333 -1.1199  0.9930  0.1500
  138MOL0     H18209   3.263  -0.266  11.499 -0.3476 -1.0584  0.3656
  138MOL0     H18210   3.146  -0.069  11.312 -0.0715 -1.3025 -0.0785
  138MOL0     H18211   3.257  -0.008  11.442  1.1845 -0.6211 -0.1840
  138MOL0     H18212   2.996  -0.184  11.455 -0.6798 -1.2721  2.5652
  138MOL0     H18213   3.074  -0.141  11.604  2.1160 -2.0621 -0.8097
  138MOL0     H18214   2.900   0.225  11.476  0.9164  0.9217  0.6536
  138MOL0     H18215   3.585  -0.151  11.143  0.9819  0.8717 -1.2443
  138MOL0     H18216   3.793  -0.083  11.045 -3.5817  0.8179 -0.4538
  139MOL0     O18217   1.342   3.032  10.747  0.2711 -0.5337  0.2050
  139MOL0     C18218   1.390   2.924  10.762 -0.2332 -0.2511 -0.0418
  139MOL0     O18219   1.458   2.887  10.882 -0.4939  0.2414 -0.2466
  139MOL0     C18220   1.404   2.789  10.957  0.2904  0.1084 -0.6158
  139MOL0     C18221   1.266   2.764  10.957  0.5256 -1.6634 -0.4691
  139MOL0     C18222   1.220   2.651  11.021 -0.2371 -1.1063  0.0301
  139MOL0     C18223   1.307   2.573  11.094  0.2684  1.0208 -1.1456
  139MOL0     O18224   1.272   2.476  11.181 -0.1477  0.2892  0.6077
  139MOL0     C18225   1.132   2.440  11.193 -0.4803 -0.7135 -0.1880
  139MOL0     C18226   1.118   2.314  11.265 -0.2542 -0.1619 -0.2325
  139MOL0     C18227   1.151   2.192  11.171  0.3192 -0.1338  0.0689
  139MOL0     C18228   1.137   2.063  11.248  0.3757  0.5703  0.6778
  139MOL0     C18229   1.235   1.959  11.201  0.2828  0.3433  0.5242
  139MOL0     C18230   1.240   1.843  11.296 -1.3081 -0.1129 -0.7907
  139MOL0     C18231   1.369   1.770  11.273 -0.0023  0.4299  0.5734
  139MOL0     C18232   1.376   1.628  11.319  0.1523  0.3397 -0.6002
  139MOL0     N18233   1.466   1.533  11.249  0.1120 -0.0986  0.4278
  139MOL0     C18234   1.508   1.422  11.301 -0.6753  0.2351 -0.4577
  139MOL0     C18235   1.610   1.376  11.217  0.7869  1.1476  0.3406
  139MOL0     C18236   1.671   1.238  11.247 -0.6403 -0.6916 -0.8577
  139MOL0     C18237   1.828   1.234  11.226  0.0611 -0.1840 -1.1482
  139MOL0     C18238   1.920   1.301  11.333  0.3928 -0.8004  0.9812
  139MOL0     C18239   1.872   1.435  11.398 -0.4565 -0.1374  0.4643
  139MOL0     O18240   1.752   1.418  11.472 -0.7781 -0.7446  0.5587
  139MOL0     C18241   1.709   1.515  11.558 -1.0247 -0.0147 -0.9188
  139MOL0     C18242   1.604   1.480  11.643  0.0024  0.1843  0.3876
  139MOL0     C18243   1.550   1.583  11.723  0.0918  0.0617 -1.0446
  139MOL0     C18244   1.603   1.702  11.741  0.2894 -0.7818 -0.0057
  139MOL0     C18245   1.525   1.808  11.823  0.1133 -0.1499  0.3970
  139MOL0     O18246   1.553   1.936  11.794  0.0549 -0.4593 -0.0456
  139MOL0     C18247   1.497   2.050  11.845 -0.9149 -0.0571  0.5653
  139MOL0     C18248   1.546   2.166  11.792  0.3776  0.0063 -0.6328
  139MOL0     C18249   1.509   2.295  11.844 -0.0603  1.1752 -0.0923
  139MOL0     C18250   1.426   2.307  11.950  0.5194  0.5831 -0.1180
  139MOL0     O18251   1.386   2.427  11.991 -0.3228  1.2508 -0.1492
  139MOL0     C18252   1.454   2.484  12.108 -0.4644  0.4964  0.0649
  139MOL0     C18253   1.368   2.576  12.191 -0.4142  0.3661  0.8514
  139MOL0     C18254   1.244   2.486  12.242  0.1690  0.2235  0.0809
  139MOL0     C18255   1.285   2.369  12.340  1.3514  0.1786  0.9948
  139MOL0     C18256   1.166   2.315  12.420 -0.0594 -1.0440 -0.1685
  139MOL0     C18257   1.198   2.200  12.507  0.1610 -0.6340 -1.0346
  139MOL0     C18258   1.294   2.223  12.623 -0.6283 -1.3383 -0.4443
  139MOL0     C18259   1.289   2.361  12.694  0.1816  0.1588  0.5316
  139MOL0    Cl18260   1.406   2.354  12.833  0.3359 -0.0174 -0.3479
  139MOL0     C18261   1.376   2.186  11.997 -0.0048  0.8084 -0.6684
  139MOL0     C18262   1.412   2.054  11.954  0.0595  0.3704 -0.1414
  139MOL0     O18263   1.444   1.769  11.906 -0.2162  0.4181  0.3929
  139MOL0     C18264   1.721   1.729  11.674 -0.1681  0.3188  0.8011
  139MOL0     C18265   1.769   1.645  11.569  0.2880 -0.7827 -1.4520
  139MOL0     N18266   1.613   1.455  11.109  0.2979 -0.7967  0.2691
  139MOL0     N18267   1.519   1.548  11.124 -0.2888  0.2355  0.9895
  139MOL0     C18268   1.442   2.605  11.103  0.5171  0.4872  0.3514
  139MOL0     C18269   1.497   2.712  11.029  1.3524  0.6351  0.1808
  139MOL0     C18270   1.389   2.842  10.644 -0.7640 -0.3690 -0.1470
  139MOL0     C18271   1.477   2.734  10.636 -0.3040  0.3470 -0.1634
  139MOL0     C18272   1.480   2.646  10.532  0.4895  0.2131  0.1040
  139MOL0     C18273   1.391   2.651  10.422  0.4317 -0.6063 -0.2282
  139MOL0     O18274   1.401   2.548  10.340  0.4843 -0.5353  0.5578
  139MOL0     C18275   1.319   2.522  10.229  0.4250 -0.2774  0.4900
  139MOL0     C18276   1.387   2.449  10.117  0.0266 -0.0594  0.1000
  139MOL0     C18277   1.289   2.384  10.015 -0.6427 -0.1223 -0.1769
  139MOL0     C18278   1.355   2.284   9.917  0.1889 -0.5733  0.7855
  139MOL0     C18279   1.290   2.266   9.787  0.1899  0.2258 -0.7358
  139MOL0     C18280   1.241   2.248   9.682 -0.0539 -0.1474  0.4825
  139MOL0     C18281   1.300   2.765  10.427  0.0885 -0.7909  0.1236
  139MOL0     C18282   1.300   2.853  10.543  0.4464 -0.3551  0.6172
  139MOL0     H18283   1.206   2.841  10.910  2.8342  2.1086  2.1897
  139MOL0     H18284   1.113   2.659  11.038 -0.3076 -1.7857 -0.0687
  139MOL0     H18285   1.084   2.432  11.096 -1.5919  2.0551  0.0441
  139MOL0     H18286   1.078   2.513  11.255  1.0612  1.4240 -1.2293
  139MOL0     H18287   1.016   2.316  11.302 -0.9639  0.9514 -2.1115
  139MOL0     H18288   1.187   2.329  11.349  0.0246  1.3161 -0.6926
  139MOL0     H18289   1.246   2.187  11.116 -2.2524 -1.4795 -4.8150
  139MOL0     H18290   1.082   2.181  11.087 -0.9909 -2.3518  1.3287
  139MOL0     H18291   1.156   2.084  11.354 -0.6108  2.3614  0.5530
  139MOL0     H18292   1.034   2.030  11.230  1.0762 -0.8236 -1.0353
  139MOL0     H18293   1.333   2.008  11.200  0.1093  0.6903  0.5145
  139MOL0     H18294   1.219   1.922  11.099  0.5731  0.8028  0.3102
  139MOL0     H18295   1.152   1.778  11.286 -2.3316  0.6079  2.4843
  139MOL0     H18296   1.236   1.877  11.400  2.2694 -1.2406 -0.1696
  139MOL0     H18297   1.386   1.760  11.165  1.5241 -2.3127  0.9572
  139MOL0     H18298   1.456   1.820  11.317  0.5943  1.0348 -1.1919
  139MOL0     H18299   1.285   1.572  11.295  2.8578 -4.4019 -1.0689
  139MOL0     H18300   1.391   1.616  11.427 -1.9615  0.8511 -0.1981
  139MOL0     H18301   1.485   1.367  11.392 -1.8151  0.1252 -0.8073
  139MOL0     H18302   1.629   1.166  11.175  1.9751 -2.5399 -0.6716
  139MOL0     H18303   1.649   1.206  11.349  0.5666  0.5538 -0.1784
  139MOL0     H18304   1.863   1.285  11.135  2.8874  1.1202  0.5343
  139MOL0     H18305   1.874   1.135  11.217  0.7991  0.0999 -0.6411
  139MOL0     H18306   1.948   1.231  11.412  3.2357 -0.4263  0.4290
  139MOL0     H18307   2.019   1.317  11.288  1.1895 -0.8910  2.6548
  139MOL0     H18308   1.843   1.510  11.323  0.4513  1.4611  1.6363
  139MOL0     H18309   1.958   1.473  11.455  0.9907 -0.1160 -1.6031
  139MOL0     H18310   1.546   1.390  11.623  0.8749  0.1064 -2.0200
  139MOL0     H18311   1.461   1.548  11.776  2.0342 -1.8963  1.1591
  139MOL0     H18312   1.609   2.168  11.704 -1.6519  2.4775 -2.1848
  139MOL0     H18313   1.558   2.387  11.816  2.5638  0.8402  2.8918
  139MOL0     H18314   1.545   2.534  12.075 -0.3722  0.4191  0.1964
  139MOL0     H18315   1.491   2.398  12.165  0.2929  0.2676 -0.7572
  139MOL0     H18316   1.350   2.662  12.126  4.0824  1.1224  0.2849
  139MOL0     H18317   1.424   2.625  12.271 -0.4202  3.8423 -1.0748
  139MOL0     H18318   1.180   2.449  12.161  1.9191 -2.3564 -0.2553
  139MOL0     H18319   1.180   2.551  12.302 -1.2407 -0.7126 -0.3582
  139MOL0     H18320   1.329   2.288  12.282 -2.1176 -0.7261 -0.6555
  139MOL0     H18321   1.348   2.418  12.415  2.8550  1.3349 -0.9094
  139MOL0     H18322   1.105   2.296  12.332  1.9007 -2.2681 -1.3279
  139MOL0     H18323   1.125   2.398  12.480 -0.9323  0.2573 -2.4581
  139MOL0     H18324   1.247   2.127  12.442  3.2623  1.7517 -1.6120
  139MOL0     H18325   1.107   2.156  12.548  2.2911 -4.6328 -0.1514
  139MOL0     H18326   1.277   2.137  12.689  1.7532 -0.4501  1.4545
  139MOL0     H18327   1.396   2.228  12.584 -0.7516  1.2754 -0.6210
  139MOL0     H18328   1.185   2.378  12.723  0.2747 -1.1790  1.7552
  139MOL0     H18329   1.301   2.449  12.630 -2.2994  0.9909  1.0739
  139MOL0     H18330   1.309   2.182  12.082  1.5773 -1.5233  0.5803
  139MOL0     H18331   1.363   1.964  11.989  0.9417 -1.1421 -2.6006
  139MOL0     H18332   1.774   1.823  11.684 -0.1123  0.4560 -0.6020
  139MOL0     H18333   1.855   1.673  11.511  2.0692 -1.8873  0.5187
  139MOL0     H18334   1.506   2.544  11.165  0.5484  2.2779  2.1762
  139MOL0     H18335   1.604   2.730  11.037  0.9993  2.4077  1.2322
  139MOL0     H18336   1.542   2.706  10.719 -1.5969 -1.5361  0.2937
  139MOL0     H18337   1.557   2.570  10.523  0.8050  0.0990  2.7571
  139MOL0     H18338   1.274   2.614  10.191 -4.4513 -2.1591  0.9687
  139MOL0     H18339   1.243   2.451  10.262 -1.4214  0.9864 -0.8626
  139MOL0     H18340   1.452   2.521  10.067  0.1791  1.5873  2.4921
  139MOL0     H18341   1.461   2.374  10.145  2.6201  0.5117 -4.3374
  139MOL0     H18342   1.242   2.466   9.960  0.5841  2.4995  2.4481
  139MOL0     H18343   1.217   2.325  10.072 -1.4257  0.0773 -0.9365
  139MOL0     H18344   1.452   2.318   9.878 -0.5494 -1.7525 -2.4346
  139MOL0     H18345   1.381   2.189   9.963 -1.5639 -0.7349  1.5241
  139MOL0     H18346   1.192   2.218   9.592  0.8647 -1.1665  0.3040
  139MOL0     H18347   1.220   2.778  10.354 -1.3328 -0.9147  1.5834
  139MOL0     H18348   1.228   2.934  10.541  1.0825  0.3282 -3.1615
  140MOL0     O18349   5.687   9.018   6.454  0.7382 -0.7702  0.4461
  140MOL0     C18350   5.624   8.935   6.384 -0.3442 -0.1692 -0.1200
  140MOL0     O18351   5.508   8.957   6.313 -0.3285  0.1643 -0.3836
  140MOL0     C18352   5.467   9.077   6.284  0.0723  0.7099 -0.5150
  140MOL0     C18353   5.331   9.071   6.269  0.0680 -0.9400  0.3130
  140MOL0     C18354   5.253   9.190   6.253  0.0361  0.1823  0.6719
  140MOL0     C18355   5.330   9.315   6.236 -0.0792  0.2095  0.4371
  140MOL0     O18356   5.278   9.440   6.239  0.8633  0.2869  0.2637
  140MOL0     C18357   5.134   9.457   6.221  0.1894 -0.9272  0.3081
  140MOL0     C18358   5.078   9.600   6.230 -0.0536  0.1526  0.6165
  140MOL0     C18359   4.921   9.592   6.221  0.0580 -1.0418 -0.2109
  140MOL0     C18360   4.868   9.726   6.233  0.4963  0.1980  0.0271
  140MOL0     C18361   4.709   9.743   6.250  0.3311 -0.0882  0.5855
  140MOL0     C18362   4.622   9.655   6.150 -1.1582  0.5531 -0.4354
  140MOL0     C18363   4.646   9.713   6.007 -0.9580 -0.3155 -0.1107
  140MOL0     C18364   4.520   9.682   5.912  0.1846  0.4244 -0.2898
  140MOL0     N18365   4.526   9.536   5.871 -0.4264 -0.6238 -0.9127
  140MOL0     C18366   4.643   9.477   5.816  0.5019  0.0534 -0.7442
  140MOL0     C18367   4.597   9.356   5.780 -0.0797  0.3824  1.1875
  140MOL0     C18368   4.670   9.265   5.692 -0.4031 -0.2264 -0.0582
  140MOL0     C18369   4.819   9.231   5.736  0.3797 -0.5399  0.1323
  140MOL0     C18370   4.834   9.209   5.881 -0.4625 -0.2577  0.1894
  140MOL0     C18371   4.967   9.152   5.922 -0.0305  0.8093 -0.6867
  140MOL0     O18372   5.084   9.223   5.882  0.2547 -0.5728  0.1961
  140MOL0     C18373   5.213   9.164   5.890  0.3819  0.4291 -0.4210
  140MOL0     C18374   5.321   9.247   5.894  0.1614 -0.0018  0.6796
  140MOL0     C18375   5.452   9.202   5.896  0.4159 -0.1983  0.3149
  140MOL0     C18376   5.477   9.063   5.893 -0.2332  0.5241 -0.2969
  140MOL0     C18377   5.614   9.008   5.882 -0.2912  0.7351 -0.4973
  140MOL0     O18378   5.623   8.870   5.856 -0.5928  0.1446  0.0293
  140MOL0     C18379   5.730   8.796   5.848 -1.1012  0.4138  0.5003
  140MOL0     C18380   5.867   8.831   5.871 -0.4497 -0.3313  0.0502
  140MOL0     C18381   5.972   8.747   5.839  0.2460  0.5456 -0.1099
  140MOL0     C18382   5.953   8.614   5.795  0.2095 -0.6269 -0.2156
  140MOL0     O18383   6.060   8.532   5.767  0.3668 -0.7668 -0.6602
  140MOL0     C18384   6.059   8.392   5.714  0.3483 -0.0532  0.3701
  140MOL0     C18385   6.205   8.365   5.680  0.1918  0.2815  0.2913
  140MOL0     C18386   6.273   8.446   5.556 -0.2091 -0.4328  0.2268
  140MOL0     C18387   6.414   8.401   5.528  0.1049  0.3832  0.1052
  140MOL0     C18388   6.515   8.473   5.620 -0.6091 -0.6884 -0.3928
  140MOL0     C18389   6.661   8.466   5.569 -0.8632 -0.2443  0.4565
  140MOL0     C18390   6.715   8.327   5.597  0.2522 -0.2816 -0.2235
  140MOL0     C18391   6.834   8.280   5.518  0.2347  0.7082 -0.2528
  140MOL0    Cl18392   6.800   8.219   5.356  0.1299  0.2396 -0.2541
  140MOL0     C18393   5.819   8.574   5.784  0.1394  0.3574 -0.1410
  140MOL0     C18394   5.711   8.667   5.799 -0.1025 -0.7892 -0.3911
  140MOL0     O18395   5.713   9.082   5.897 -0.2625 -0.6689 -0.0924
  140MOL0     C18396   5.369   8.977   5.883  0.5694 -0.0262  0.2739
  140MOL0     C18397   5.241   9.028   5.889 -0.4883  0.8782 -0.9446
  140MOL0     N18398   4.481   9.327   5.857 -0.1295  0.0652  0.2360
  140MOL0     N18399   4.432   9.440   5.905 -0.4461  0.2300  0.6119
  140MOL0     C18400   5.464   9.318   6.247  0.0689  0.5208  0.4516
  140MOL0     C18401   5.540   9.199   6.266 -0.1720 -0.8290  0.3373
  140MOL0     C18402   5.678   8.798   6.376 -0.4669  0.8315 -0.7766
  140MOL0     C18403   5.757   8.739   6.472 -1.1928 -0.3498 -0.2033
  140MOL0     C18404   5.821   8.620   6.446 -0.3028  0.2845  0.4074
  140MOL0     C18405   5.802   8.550   6.326  0.0759  0.8233  0.0844
  140MOL0     O18406   5.859   8.419   6.313  0.4663 -0.3905  0.1485
  140MOL0     C18407   5.900   8.374   6.182  0.4367  0.1252  0.7434
  140MOL0     C18408   6.045   8.406   6.159  0.4311  0.9476 -0.2077
  140MOL0     C18409   6.081   8.557   6.142  0.6052  0.2159 -0.0867
  140MOL0     C18410   6.216   8.575   6.066 -0.7837 -0.7135 -0.2544
  140MOL0     C18411   6.337   8.521   6.133  0.5169 -0.5528 -0.7220
  140MOL0     C18412   6.433   8.473   6.180  0.2494  0.4924 -0.5193
  140MOL0     C18413   5.720   8.609   6.238  0.2230  0.1220  0.7953
  140MOL0     C18414   5.667   8.733   6.254 -0.9211 -0.3001  0.1790
  140MOL0     H18415   5.275   8.978   6.265  0.5819 -1.1993 -2.3375
  140MOL0     H18416   5.145   9.190   6.259  0.0444  0.0799  0.8461
  140MOL0     H18417   5.066   9.397   6.282 -1.9094 -0.2826 -1.2708
  140MOL0     H18418   5.114   9.438   6.115 -1.3145  1.4259  0.1017
  140MOL0     H18419   5.104   9.654   6.139 -4.5301  1.1234 -0.3271
  140MOL0     H18420   5.127   9.653   6.312  1.5134 -1.4458  0.7928
  140MOL0     H18421   4.883   9.526   6.300 -2.1171 -2.6996 -2.4603
  140MOL0     H18422   4.895   9.548   6.124 -2.9485  1.8168 -0.8692
  140MOL0     H18423   4.906   9.778   6.321 -0.4575  1.1104 -0.0855
  140MOL0     H18424   4.908   9.782   6.147  2.4224 -0.7856  0.2235
  140MOL0     H18425   4.687   9.850   6.242  2.3907  0.3813  0.4797
  140MOL0     H18426   4.688   9.730   6.357  3.2394  1.4041  1.4678
  140MOL0     H18427   4.520   9.666   6.188 -0.3208  0.9623  1.8305
  140MOL0     H18428   4.652   9.550   6.161 -1.0635  0.3947 -1.9013
  140MOL0     H18429   4.655   9.820   6.027  1.8828 -0.1044 -1.9184
  140MOL0     H18430   4.741   9.682   5.963  1.0025  3.5097  0.9847
  140MOL0     H18431   4.519   9.756   5.831 -0.2136  0.3736 -0.3337
  140MOL0     H18432   4.424   9.702   5.961 -0.0429  1.6837 -1.2095
  140MOL0     H18433   4.740   9.515   5.785  0.1362 -0.7959 -3.1161
  140MOL0     H18434   4.685   9.307   5.592  4.3121 -0.6000  0.2477
  140MOL0     H18435   4.625   9.166   5.678 -1.0430  0.4621 -4.5424
  140MOL0     H18436   4.879   9.316   5.704 -0.8410 -0.0515 -0.9482
  140MOL0     H18437   4.857   9.153   5.670 -2.5338 -0.7296 -1.4840
  140MOL0     H18438   4.823   9.302   5.938  0.8627 -0.2210  0.4033
  140MOL0     H18439   4.752   9.140   5.904 -1.7406  0.8625 -0.8640
  140MOL0     H18440   4.973   9.048   5.889 -0.9948  1.2407 -2.3406
  140MOL0     H18441   4.965   9.149   6.031 -1.9096  1.5737 -0.6601
  140MOL0     H18442   5.313   9.355   5.903  2.2628  0.2289  0.2958
  140MOL0     H18443   5.538   9.268   5.907 -1.4693  2.6815 -1.0140
  140MOL0     H18444   5.890   8.932   5.902 -1.9111  0.1153 -0.2146
  140MOL0     H18445   6.073   8.788   5.842  0.9276 -1.0295 -0.7248
  140MOL0     H18446   5.981   8.380   5.638 -0.6029 -0.9470  1.4506
  140MOL0     H18447   6.032   8.320   5.791 -0.2406 -1.0998 -0.7828
  140MOL0     H18448   6.206   8.260   5.652  0.0125  0.3811 -0.1031
  140MOL0     H18449   6.260   8.378   5.773  0.6714  0.9079 -0.0683
  140MOL0     H18450   6.268   8.552   5.583 -3.4902 -0.2033 -0.8681
  140MOL0     H18451   6.208   8.430   5.470  0.7780 -0.8206 -0.4702
  140MOL0     H18452   6.421   8.293   5.543  1.3567  0.5550  0.9862
  140MOL0     H18453   6.449   8.397   5.425  1.2662 -1.0131  0.5201
  140MOL0     H18454   6.507   8.431   5.721 -0.8772 -0.2839 -0.2436
  140MOL0     H18455   6.500   8.581   5.632  0.9406 -0.6492  1.9781
  140MOL0     H18456   6.723   8.529   5.633 -3.2257 -1.0296  3.7440
  140MOL0     H18457   6.673   8.487   5.462  2.0137  0.1594  0.7707
  140MOL0     H18458   6.724   8.312   5.704 -0.4239 -0.8978 -0.2427
  140MOL0     H18459   6.636   8.256   5.568  0.7686 -1.3969  1.0119
  140MOL0     H18460   6.886   8.206   5.581 -2.3322 -1.2520 -0.2734
  140MOL0     H18461   6.899   8.366   5.501 -0.1666  1.1558  0.4253
  140MOL0     H18462   5.809   8.468   5.765 -1.3354  0.5178 -0.4006
  140MOL0     H18463   5.616   8.649   5.750 -2.0086  1.1036  2.3193
  140MOL0     H18464   5.374   8.869   5.873 -2.9022 -0.3462  0.7412
  140MOL0     H18465   5.156   8.961   5.876  0.2638  0.3017 -3.4057
  140MOL0     H18466   5.518   9.410   6.262  2.6990 -1.3735  4.1400
  140MOL0     H18467   5.647   9.207   6.285  0.1528  1.3566 -1.9454
  140MOL0     H18468   5.765   8.806   6.557  1.5789  0.0971 -0.7320
  140MOL0     H18469   5.891   8.584   6.521  0.4355 -0.0693 -0.4294
  140MOL0     H18470   5.845   8.434   6.109  0.7213  2.1265  2.0767
  140MOL0     H18471   5.872   8.271   6.159  0.9191  0.0531  0.4559
  140MOL0     H18472   6.090   8.365   6.250  0.0687  1.4049  0.1857
  140MOL0     H18473   6.082   8.346   6.076 -1.4450 -1.1547  0.3771
  140MOL0     H18474   6.084   8.608   6.239  1.5077  1.0734 -0.5420
  140MOL0     H18475   6.004   8.619   6.095  1.7331  2.1002  0.4431
  140MOL0     H18476   6.198   8.536   5.965 -1.2430  1.4559 -1.0669
  140MOL0     H18477   6.223   8.684   6.063  1.2830 -0.5558  3.7590
  140MOL0     H18478   6.524   8.428   6.215  1.4764  0.4555 -3.4218
  140MOL0     H18479   5.691   8.565   6.144 -0.3927  3.5066 -0.7532
  140MOL0     H18480   5.613   8.774   6.170 -0.7559  2.7897  1.4576
  141MOL0     O18481   7.112   4.648   5.214  1.3436 -0.7136  0.3560
  141MOL0     C18482   6.986   4.652   5.207  0.3694  1.0962 -0.5466
  141MOL0     O18483   6.904   4.761   5.196  0.0157  0.1812  0.3042
  141MOL0     C18484   6.966   4.875   5.243  0.0906  0.1097  0.1128
  141MOL0     C18485   6.942   4.987   5.165 -1.1618  0.6873  0.7515
  141MOL0     C18486   6.993   5.112   5.208 -0.0769 -0.1888 -0.5098
  141MOL0     C18487   7.058   5.127   5.326  0.9530  0.7068  0.0744
  141MOL0     O18488   7.080   5.261   5.358 -0.2388  0.4559 -0.0360
  141MOL0     C18489   7.173   5.299   5.463 -0.8470  0.3641 -0.1001
  141MOL0     C18490   7.307   5.288   5.399  0.5185 -0.0224  0.2161
  141MOL0     C18491   7.327   5.403   5.292 -1.3127  0.2783 -1.2151
  141MOL0     C18492   7.479   5.406   5.241  0.2966 -0.3235  0.4670
  141MOL0     C18493   7.517   5.550   5.198  0.7291  0.2072  0.5862
  141MOL0     C18494   7.671   5.573   5.213  0.5548  0.3272  0.1496
  141MOL0     C18495   7.708   5.715   5.168  0.6136  0.3566 -0.3724
  141MOL0     C18496   7.639   5.763   5.031  0.8541 -0.5655 -0.9895
  141MOL0     N18497   7.717   5.864   4.965 -0.3679 -0.3575  0.1492
  141MOL0     C18498   7.825   5.846   4.868  0.5148 -0.4514 -0.0044
  141MOL0     C18499   7.881   5.959   4.871  0.2461  0.3117  0.9208
  141MOL0     C18500   8.015   5.984   4.819 -0.2716  0.0593 -0.2742
  141MOL0     C18501   8.140   5.911   4.872  0.1063  0.2078 -0.5406
  141MOL0     C18502   8.161   5.883   5.023  0.9128  0.5089 -0.3890
  141MOL0     C18503   8.129   6.011   5.100  0.0008 -0.5819 -0.7806
  141MOL0     O18504   8.180   6.001   5.230  0.0125 -0.2514  0.2344
  141MOL0     C18505   8.166   6.103   5.314 -0.8450  0.4319 -0.1101
  141MOL0     C18506   8.219   6.103   5.447  0.1552  0.2334  0.2487
  141MOL0     C18507   8.227   6.217   5.535 -0.2172  0.0933  0.5934
  141MOL0     C18508   8.179   6.347   5.492 -0.6080  0.1281 -0.5359
  141MOL0     C18509   8.169   6.459   5.594 -0.1929  0.8778  0.1610
  141MOL0     O18510   8.203   6.428   5.725  0.2559 -0.0632  0.4098
  141MOL0     C18511   8.191   6.520   5.827  0.0556  0.0766 -0.5415
  141MOL0     C18512   8.285   6.620   5.836  0.9359  0.5392 -1.0082
  141MOL0     C18513   8.279   6.715   5.942  0.0568  0.6132 -0.6791
  141MOL0     C18514   8.176   6.709   6.038 -0.0625  0.3374 -0.8075
  141MOL0     O18515   8.158   6.796   6.148  0.1664 -0.2380  0.0692
  141MOL0     C18516   8.258   6.888   6.188  0.6104 -0.1028 -0.2332
  141MOL0     C18517   8.373   6.805   6.247  0.5599 -0.9565  0.0862
  141MOL0     C18518   8.506   6.877   6.248  0.0459 -0.5207 -0.1954
  141MOL0     C18519   8.633   6.815   6.301 -0.0668  0.1187 -0.0371
  141MOL0     C18520   8.626   6.823   6.454 -0.9302 -0.2072 -0.9794
  141MOL0     C18521   8.753   6.775   6.518  0.2774 -1.0624 -0.4526
  141MOL0     C18522   8.758   6.838   6.659  0.1034  0.5189  0.5033
  141MOL0     C18523   8.892   6.870   6.704 -1.1227 -0.1025 -0.0014
  141MOL0    Cl18524   8.967   7.000   6.616 -0.1035 -0.2338  0.0460
  141MOL0     C18525   8.077   6.601   6.024  0.6462  0.9292 -0.2076
  141MOL0     C18526   8.086   6.510   5.919  0.5751 -0.6612  0.6604
  141MOL0     O18527   8.131   6.570   5.557  0.3097  0.3910  0.4167
  141MOL0     C18528   8.124   6.350   5.360  0.0142  0.4316  0.4586
  141MOL0     C18529   8.128   6.239   5.271 -0.2161  0.4802 -0.2672
  141MOL0     N18530   7.812   6.051   4.949 -0.1963 -0.1193  0.5431
  141MOL0     N18531   7.718   5.993   5.010 -0.2124 -0.1912 -0.5059
  141MOL0     C18532   7.081   5.015   5.405 -0.7473 -0.1395  0.2881
  141MOL0     C18533   7.036   4.888   5.365  0.0423 -0.2285  0.6097
  141MOL0     C18534   6.911   4.521   5.198 -0.3997 -0.0667  0.0142
  141MOL0     C18535   6.984   4.403   5.200 -0.5203  0.0965 -0.1275
  141MOL0     C18536   6.911   4.286   5.191 -0.5008  0.6128  0.3639
  141MOL0     C18537   6.777   4.280   5.156  0.0506  0.2584 -0.1050
  141MOL0     O18538   6.687   4.179   5.125  0.1530  0.5164  0.1813
  141MOL0     C18539   6.750   4.047   5.098  0.0423 -0.0081  0.5721
  141MOL0     C18540   6.642   3.942   5.073 -0.5766  0.2980 -0.6393
  141MOL0     C18541   6.686   3.821   4.991 -0.0836 -0.4551  0.1295
  141MOL0     C18542   6.659   3.836   4.842  0.7287  0.6523 -0.4057
  141MOL0     C18543   6.754   3.910   4.767  0.0189  0.1127 -0.6069
  141MOL0     C18544   6.821   3.986   4.701  0.2374  0.7453  0.2815
  141MOL0     C18545   6.704   4.393   5.148 -0.7757 -0.8813 -0.3851
  141MOL0     C18546   6.774   4.513   5.173  1.2751 -0.4061  0.3443
  141MOL0     H18547   6.894   4.971   5.070  0.2833 -0.6573  0.1985
  141MOL0     H18548   6.961   5.201   5.154 -1.3522 -0.8475 -0.8856
  141MOL0     H18549   7.155   5.240   5.553 -0.6012  2.6448  1.5182
  141MOL0     H18550   7.157   5.403   5.491  3.4648  1.2433 -0.2742
  141MOL0     H18551   7.318   5.194   5.344  1.5231 -0.1742  0.6503
  141MOL0     H18552   7.379   5.318   5.477  0.9475  0.2429 -0.2729
  141MOL0     H18553   7.317   5.496   5.349  0.8017 -0.5528  0.6933
  141MOL0     H18554   7.244   5.391   5.222 -2.5784 -1.5079  0.4542
  141MOL0     H18555   7.555   5.361   5.305  2.5504 -0.6065 -2.2074
  141MOL0     H18556   7.493   5.340   5.155  1.2539 -0.3017  0.5877
  141MOL0     H18557   7.468   5.621   5.264  2.9118  0.3671  2.1189
  141MOL0     H18558   7.479   5.562   5.096 -0.4307  0.3073  1.0120
  141MOL0     H18559   7.736   5.503   5.159  2.1738  2.9575 -1.5861
  141MOL0     H18560   7.700   5.555   5.317 -0.1834 -1.1090  0.1323
  141MOL0     H18561   7.680   5.790   5.243  1.9097  0.1464  0.3548
  141MOL0     H18562   7.816   5.727   5.159  0.4995  0.8989 -1.0856
  141MOL0     H18563   7.537   5.792   5.055  0.8206 -2.0967  0.9513
  141MOL0     H18564   7.632   5.674   4.968 -1.0314  0.1475 -1.8589
  141MOL0     H18565   7.862   5.751   4.832  2.4580  1.3483 -3.1694
  141MOL0     H18566   8.042   6.088   4.838  0.3257  0.0986 -1.2649
  141MOL0     H18567   8.022   5.980   4.710  3.2273  1.9003 -0.2570
  141MOL0     H18568   8.223   5.976   4.844 -1.5043  3.4864  1.6429
  141MOL0     H18569   8.132   5.816   4.818  2.8047 -1.2020  1.2681
  141MOL0     H18570   8.086   5.814   5.064 -2.7175  3.4641 -1.4492
  141MOL0     H18571   8.259   5.838   5.040 -0.3677 -1.2695  3.4401
  141MOL0     H18572   8.023   6.037   5.097 -0.3598 -1.8914 -0.2474
  141MOL0     H18573   8.189   6.090   5.053  2.7856 -1.1450  1.5093
  141MOL0     H18574   8.249   6.004   5.479 -0.2542 -0.3963 -1.2336
  141MOL0     H18575   8.274   6.203   5.632  1.9522  0.3213 -0.3604
  141MOL0     H18576   8.358   6.630   5.756 -1.9410  0.3227 -3.8384
  141MOL0     H18577   8.355   6.792   5.948  1.2715 -0.6367  0.9225
  141MOL0     H18578   8.205   6.954   6.256 -0.3671  0.9037 -1.9222
  141MOL0     H18579   8.285   6.948   6.100  1.2497  2.1399  1.4281
  141MOL0     H18580   8.391   6.716   6.187  1.3195 -0.8755  0.1747
  141MOL0     H18581   8.342   6.781   6.349  3.0640  1.4694  1.5593
  141MOL0     H18582   8.485   6.976   6.290  0.8469 -0.9900  1.4159
  141MOL0     H18583   8.527   6.903   6.144 -1.6407 -3.0751 -1.2671
  141MOL0     H18584   8.639   6.713   6.263  1.0158 -0.4631  1.5601
  141MOL0     H18585   8.727   6.861   6.268  1.3082 -1.3834  1.5453
  141MOL0     H18586   8.542   6.768   6.496 -0.1866 -0.0053  0.8460
  141MOL0     H18587   8.622   6.930   6.476  3.9219 -0.0872  0.4422
  141MOL0     H18588   8.823   6.814   6.444 -1.9988 -0.5567 -2.4701
  141MOL0     H18589   8.749   6.666   6.528 -0.8937 -0.9732  0.2437
  141MOL0     H18590   8.699   6.929   6.670 -3.3818 -1.0730 -2.8234
  141MOL0     H18591   8.712   6.759   6.720 -2.1603 -1.7595 -3.6848
  141MOL0     H18592   8.951   6.778   6.702 -0.4740  0.3141 -0.7145
  141MOL0     H18593   8.899   6.892   6.810  3.4050 -0.4134 -0.0463
  141MOL0     H18594   7.989   6.599   6.088  1.1466  2.7383  0.6019
  141MOL0     H18595   7.998   6.447   5.913 -0.2743  0.5476  0.0488
  141MOL0     H18596   8.078   6.443   5.330 -1.0700 -0.2558 -0.0506
  141MOL0     H18597   8.093   6.263   5.171 -0.6812  5.2967  0.8254
  141MOL0     H18598   7.125   5.030   5.503 -3.0785 -0.5180  1.4699
  141MOL0     H18599   7.051   4.806   5.434  0.1930 -1.9233 -1.3522
  141MOL0     H18600   7.092   4.398   5.200 -0.5191  0.0900  0.1850
  141MOL0     H18601   6.964   4.193   5.207 -0.0362  0.7123 -0.5193
  141MOL0     H18602   6.814   4.012   5.180  1.2221 -3.5925 -1.6021
  141MOL0     H18603   6.815   4.049   5.010 -1.1340 -0.1811 -0.3384
  141MOL0     H18604   6.606   3.898   5.166  6.1998 -1.2500  1.8935
  141MOL0     H18605   6.548   3.970   5.026 -0.6314  0.6087 -0.3513
  141MOL0     H18606   6.615   3.740   5.014  0.2388 -1.0828 -1.0071
  141MOL0     H18607   6.782   3.771   5.008  0.5662  0.1349 -1.5999
  141MOL0     H18608   6.650   3.737   4.796  1.9057 -1.3400  3.2454
  141MOL0     H18609   6.569   3.896   4.824  0.7546  1.6518  2.2420
  141MOL0     H18610   6.888   4.051   4.650 -1.0737  1.3235 -0.7756
  141MOL0     H18611   6.596   4.405   5.141 -1.2486 -2.2554  2.7025
  141MOL0     H18612   6.708   4.599   5.171  2.1982  0.3282  0.4633
  142MOL0     O18613   0.874   1.187   7.672  0.1213  0.0088  0.2280
  142MOL0     C18614   0.935   1.094   7.723 -0.2010 -0.0700 -0.5285
  142MOL0     O18615   0.890   1.023   7.825  0.3514  0.7281  0.5461
  142MOL0     C18616   0.772   1.049   7.879  1.2490  0.1419  0.2244
  142MOL0     C18617   0.774   1.117   7.997  0.1921 -0.2991 -0.2303
  142MOL0     C18618   0.668   1.154   8.076 -0.3056 -0.8665 -0.1920
  142MOL0     C18619   0.536   1.130   8.026 -0.4660 -0.2253 -0.9889
  142MOL0     O18620   0.418   1.159   8.085  0.7860 -0.1890 -0.0850
  142MOL0     C18621   0.394   1.306   8.094 -0.3176 -0.7561 -0.1546
  142MOL0     C18622   0.274   1.324   8.189 -0.3145 -0.3772 -0.4076
  142MOL0     C18623   0.214   1.460   8.191  0.0990 -0.3627  0.8770
  142MOL0     C18624   0.193   1.542   8.320  0.1719 -0.1971  0.5886
  142MOL0     C18625   0.090   1.655   8.316 -0.5611  0.2850 -0.7288
  142MOL0     C18626   0.087   1.711   8.459 -0.0616  0.1845 -0.4870
  142MOL0     C18627  -0.018   1.814   8.483 -0.0369  0.1249  0.3918
  142MOL0     C18628  -0.022   1.866   8.635  0.0898  0.6629  0.5787
  142MOL0     N18629  -0.152   1.930   8.674  0.1683  0.4877  0.7592
  142MOL0     C18630  -0.262   1.953   8.591  0.9967  0.0244  0.1490
  142MOL0     C18631  -0.348   2.033   8.667 -0.3378 -0.0545  0.4663
  142MOL0     C18632  -0.483   2.086   8.613 -0.2631  0.7474  0.1767
  142MOL0     C18633  -0.584   2.109   8.725  0.0019  0.4819 -0.3306
  142MOL0     C18634  -0.620   2.254   8.708  0.5234 -0.6100  0.2943
  142MOL0     C18635  -0.750   2.301   8.780  0.1622  0.2011 -0.3407
  142MOL0     O18636  -0.863   2.224   8.741 -0.2526  0.0023  0.1890
  142MOL0     C18637  -0.950   2.207   8.842  1.0966 -0.8224 -0.0711
  142MOL0     C18638  -0.972   2.073   8.870 -0.7766  0.3202  0.6221
  142MOL0     C18639  -1.072   2.036   8.961  0.0909  0.4437  0.1533
  142MOL0     C18640  -1.133   2.132   9.033 -0.2439 -0.4339 -0.9749
  142MOL0     C18641  -1.218   2.085   9.148 -0.2055  0.1298 -0.3047
  142MOL0     O18642  -1.264   2.185   9.224  0.8026  0.0469  0.4590
  142MOL0     C18643  -1.354   2.151   9.330 -0.7977 -0.3349 -0.4601
  142MOL0     C18644  -1.495   2.154   9.304 -0.7295  0.3672  0.6064
  142MOL0     C18645  -1.582   2.093   9.389  0.3872 -0.1810  0.0507
  142MOL0     C18646  -1.534   2.035   9.508  0.5899 -0.4825 -0.4840
  142MOL0     O18647  -1.620   2.010   9.613  0.6772 -0.4721  0.2928
  142MOL0     C18648  -1.761   2.055   9.607 -0.2000  0.6402  0.3202
  142MOL0     C18649  -1.818   2.065   9.748  0.3672 -0.2562  0.4362
  142MOL0     C18650  -1.809   1.941   9.835 -0.0815 -0.3474  0.6066
  142MOL0     C18651  -1.837   1.806   9.771  0.4475  0.3382  0.6187
  142MOL0     C18652  -1.985   1.805   9.732 -0.4423  0.3801  0.2595
  142MOL0     C18653  -2.018   1.651   9.714  0.0670  0.0631  0.7273
  142MOL0     C18654  -2.144   1.640   9.628 -0.2990 -0.1144  0.3492
  142MOL0     C18655  -2.172   1.495   9.567  0.3685 -0.2749 -0.4880
  142MOL0    Cl18656  -2.341   1.498   9.504  0.1142 -0.3497 -0.0149
  142MOL0     C18657  -1.394   2.020   9.527 -0.4653  0.1358  0.3264
  142MOL0     C18658  -1.302   2.082   9.442  0.4248 -0.2628 -0.3194
  142MOL0     O18659  -1.256   1.968   9.159  0.4001 -0.8418  0.7041
  142MOL0     C18660  -1.114   2.273   9.005 -0.6139 -0.3566 -0.4486
  142MOL0     C18661  -1.027   2.308   8.902  0.0346 -0.1843 -1.3437
  142MOL0     N18662  -0.293   2.042   8.791  0.1874  0.0355  0.1846
  142MOL0     N18663  -0.179   1.991   8.798  0.2725 -0.2933  0.7177
  142MOL0     C18664   0.530   1.062   7.906  1.0717  0.1331 -1.0354
  142MOL0     C18665   0.639   1.010   7.835  0.1124 -0.4449  1.4062
  142MOL0     C18666   1.055   1.051   7.648  0.2085 -0.0762  0.5344
  142MOL0     C18667   1.078   1.087   7.507 -0.0550 -0.6553  0.4278
  142MOL0     C18668   1.191   1.044   7.434  0.5523  0.2034 -0.1424
  142MOL0     C18669   1.286   0.954   7.483 -0.3715  0.1165  0.1091
  142MOL0     O18670   1.392   0.905   7.411 -0.2458  0.5469 -1.0357
  142MOL0     C18671   1.452   0.974   7.305  0.1381  0.0773 -0.2543
  142MOL0     C18672   1.590   0.922   7.251  0.1716 -0.1514  0.0362
  142MOL0     C18673   1.629   1.014   7.135 -0.3969  0.1058  0.0927
  142MOL0     C18674   1.776   1.005   7.081 -0.1168  0.3382 -0.1148
  142MOL0     C18675   1.867   1.083   7.164  0.2958 -0.0356 -0.3226
  142MOL0     C18676   1.939   1.165   7.216  0.8987  0.2122  0.9734
  142MOL0     C18677   1.266   0.917   7.619 -0.1411  1.0676  0.2814
  142MOL0     C18678   1.152   0.959   7.697 -0.3303 -0.6434 -0.1016
  142MOL0     H18679   0.875   1.148   8.021 -0.0414  0.1352  0.2083
  142MOL0     H18680   0.686   1.202   8.172  1.2209  0.5356 -1.1203
  142MOL0     H18681   0.369   1.345   7.995 -1.0315 -3.2057 -1.0029
  142MOL0     H18682   0.480   1.361   8.133 -0.5134 -1.8407  1.9135
  142MOL0     H18683   0.297   1.306   8.295  2.2280  6.4990  0.6802
  142MOL0     H18684   0.202   1.252   8.149  2.1769 -1.9686 -2.2702
  142MOL0     H18685   0.117   1.444   8.143  1.7434 -3.3965 -1.7691
  142MOL0     H18686   0.280   1.509   8.119 -0.5930  0.9791  1.1099
  142MOL0     H18687   0.139   1.476   8.388 -0.3812 -2.0565 -1.5487
  142MOL0     H18688   0.291   1.581   8.349  0.4224 -0.1601 -0.2818
  142MOL0     H18689  -0.008   1.616   8.288 -0.9797  1.0061 -0.2919
  142MOL0     H18690   0.135   1.727   8.247 -2.0899  3.4419  1.3521
  142MOL0     H18691   0.180   1.760   8.490 -0.0248  1.6904 -2.7640
  142MOL0     H18692   0.066   1.633   8.533  1.5769  1.0540  0.9574
  142MOL0     H18693  -0.017   1.904   8.419 -5.0304  1.7753  2.1801
  142MOL0     H18694  -0.110   1.762   8.456  0.6057  0.3800 -2.6990
  142MOL0     H18695   0.054   1.941   8.657 -0.4668  2.0969 -1.9722
  142MOL0     H18696  -0.001   1.773   8.689 -1.6211  1.2792  2.4515
  142MOL0     H18697  -0.276   1.922   8.488 -1.7281  2.4554 -0.3381
  142MOL0     H18698  -0.518   2.001   8.555 -1.7322  1.8730 -0.6525
  142MOL0     H18699  -0.473   2.175   8.551 -1.1619  2.4458  2.3215
  142MOL0     H18700  -0.558   2.067   8.822  0.2820  0.3166 -0.4749
  142MOL0     H18701  -0.670   2.049   8.694 -2.3264  3.4536 -0.0542
  142MOL0     H18702  -0.536   2.317   8.742  0.0161 -0.0513  0.5372
  142MOL0     H18703  -0.631   2.276   8.602  0.0164 -4.0592 -0.4709
  142MOL0     H18704  -0.768   2.408   8.765 -1.9223  0.1800  1.4405
  142MOL0     H18705  -0.735   2.295   8.888 -1.5012  4.6331  0.3338
  142MOL0     H18706  -0.902   2.001   8.829 -0.0586  0.1209  2.1236
  142MOL0     H18707  -1.087   1.931   8.984 -1.2107  0.3770 -0.9129
  142MOL0     H18708  -1.516   2.205   9.211 -2.3406  0.6783  1.1114
  142MOL0     H18709  -1.686   2.101   9.361  0.5864 -0.6557 -0.8496
  142MOL0     H18710  -1.827   1.984   9.557 -0.7343  2.6605 -2.0649
  142MOL0     H18711  -1.765   2.154   9.561 -1.8725 -0.7509 -2.8653
  142MOL0     H18712  -1.922   2.097   9.736  0.5111 -0.2259 -0.8379
  142MOL0     H18713  -1.763   2.143   9.801  2.4592 -3.1854  2.9946
  142MOL0     H18714  -1.878   1.967   9.915  1.1228  0.7943  1.3052
  142MOL0     H18715  -1.708   1.943   9.878 -0.4941  1.6115  1.5558
  142MOL0     H18716  -1.766   1.800   9.688  0.1517 -1.7988  0.4609
  142MOL0     H18717  -1.820   1.724   9.842  0.5530  0.3060  0.5580
  142MOL0     H18718  -2.015   1.861   9.643  0.4084  1.2871  0.5299
  142MOL0     H18719  -2.047   1.830   9.819  0.1318 -0.3723  0.8963
  142MOL0     H18720  -2.027   1.593   9.806 -1.5847  0.3411  0.7649
  142MOL0     H18721  -1.933   1.609   9.661  0.4795  0.8720  0.7218
  142MOL0     H18722  -2.230   1.678   9.683 -0.3092 -0.6055  0.6825
  142MOL0     H18723  -2.127   1.709   9.545 -1.3971 -0.5372 -0.2452
  142MOL0     H18724  -2.166   1.417   9.644  3.2739  2.0462  1.8635
  142MOL0     H18725  -2.096   1.475   9.491  3.0897  1.4317  1.6074
  142MOL0     H18726  -1.361   1.994   9.627 -1.8804  3.4167  1.8069
  142MOL0     H18727  -1.195   2.081   9.459  0.4522  1.0003 -0.3286
  142MOL0     H18728  -1.164   2.359   9.048 -3.5293 -3.7242  3.6204
  142MOL0     H18729  -1.007   2.412   8.881  0.0714 -0.2283 -1.5269
  142MOL0     H18730   0.427   1.043   7.879  0.8607 -0.2844  0.0082
  142MOL0     H18731   0.609   0.946   7.753 -1.9445  1.5419  0.4964
  142MOL0     H18732   1.012   1.161   7.463  2.6863  0.8741 -1.4633
  142MOL0     H18733   1.200   1.074   7.330  1.4927  2.7122  0.5921
  142MOL0     H18734   1.463   1.076   7.342  1.7397  0.2917 -1.2327
  142MOL0     H18735   1.381   0.978   7.221 -0.8107 -0.6894  0.4800
  142MOL0     H18736   1.661   0.929   7.334  1.2110  2.1588 -0.9695
  142MOL0     H18737   1.584   0.818   7.215 -0.4296  0.3995 -1.5496
  142MOL0     H18738   1.608   1.116   7.168  1.9162  1.0556 -1.1182
  142MOL0     H18739   1.570   0.988   7.047  0.0250  1.2225 -0.5456
  142MOL0     H18740   1.802   0.899   7.084 -2.7096 -0.3922 -0.7616
  142MOL0     H18741   1.781   1.042   6.978 -5.2876 -0.8708 -1.1152
  142MOL0     H18742   1.980   1.243   7.277  2.1155 -0.0361  0.5059
  142MOL0     H18743   1.328   0.838   7.661 -2.3324 -2.8469 -3.0160
  142MOL0     H18744   1.132   0.924   7.797  3.2629 -1.3124  0.5396
  143MOL0     O18745   1.281   9.670   1.815  0.4666  0.1468 -0.6886
  143MOL0     C18746   1.274   9.776   1.884  0.4392 -0.1896 -0.6769
  143MOL0     O18747   1.186   9.880   1.864  0.0785 -0.0339 -0.3552
  143MOL0     C18748   1.089   9.871   1.762  0.3354  0.4409  0.5893
  143MOL0     C18749   1.127   9.880   1.625 -0.2698  0.0406  0.5769
  143MOL0     C18750   1.025   9.886   1.526 -0.1058  0.5683 -0.1366
  143MOL0     C18751   0.889   9.878   1.555  0.0773  0.1071  0.3148
  143MOL0     O18752   0.790   9.858   1.462  0.6755  0.3343  0.1552
  143MOL0     C18753   0.795   9.894   1.328 -0.4606 -0.1223  0.5877
  143MOL0     C18754   0.712   9.807   1.244 -0.3051  0.3995 -0.7847
  143MOL0     C18755   0.560   9.806   1.265  0.2669 -0.4130  0.8753
  143MOL0     C18756   0.492   9.727   1.145 -0.2635 -0.3568 -0.6838
  143MOL0     C18757   0.352   9.681   1.164 -0.2744  0.6515  0.6408
  143MOL0     C18758   0.337   9.568   1.257  0.1740  1.4264  0.0005
  143MOL0     C18759   0.188   9.539   1.282 -0.7147  0.3195 -0.1000
  143MOL0     C18760   0.155   9.466   1.418 -0.2222 -0.6808  0.4117
  143MOL0     N18761   0.164   9.543   1.550  0.0689  0.3200 -0.1983
  143MOL0     C18762   0.165   9.682   1.547 -0.1792  0.0036 -0.1417
  143MOL0     C18763   0.131   9.717   1.673  0.3268 -0.5536  0.6207
  143MOL0     C18764   0.127   9.869   1.714  0.3754  0.0010 -1.0402
  143MOL0     C18765  -0.015   9.940   1.707  0.1782  0.1765  0.5119
  143MOL0     C18766  -0.129   9.848   1.762 -0.9993 -0.5945  0.2873
  143MOL0     C18767  -0.235   9.923   1.841 -0.1576  0.8127 -0.4616
  143MOL0     O18768  -0.291  10.022   1.755 -0.5910 -0.7348  0.3410
  143MOL0     C18769  -0.410  10.078   1.800  0.2147 -0.3858  0.4260
  143MOL0     C18770  -0.469  10.037   1.919 -0.6637  0.5441  0.2622
  143MOL0     C18771  -0.586  10.094   1.958 -0.2750  0.6227 -0.0569
  143MOL0     C18772  -0.651  10.190   1.888  0.2058  0.2726  1.0821
  143MOL0     C18773  -0.783  10.251   1.927 -0.6542  1.3416  0.2149
  143MOL0     O18774  -0.836  10.207   2.044 -0.4330  0.8463 -0.4976
  143MOL0     C18775  -0.957  10.256   2.087  0.7509  0.6514  0.1294
  143MOL0     C18776  -0.967  10.359   2.180 -0.5797 -0.4099 -0.2201
  143MOL0     C18777  -1.093  10.406   2.223 -0.5213 -0.8868  0.4498
  143MOL0     C18778  -1.217  10.362   2.176 -0.6450  0.3650  0.3253
  143MOL0     O18779  -1.333  10.419   2.218 -0.4150  0.8229  0.3990
  143MOL0     C18780  -1.452  10.388   2.147  0.3714 -0.2623 -0.2690
  143MOL0     C18781  -1.460  10.465   2.013  0.5879  0.8615  0.7818
  143MOL0     C18782  -1.571  10.407   1.936  0.3486  0.6965  0.6227
  143MOL0     C18783  -1.553  10.267   1.877  0.1867 -0.3048  0.1293
  143MOL0     C18784  -1.635  10.243   1.741  0.0975 -0.4385 -0.4648
  143MOL0     C18785  -1.790  10.247   1.768 -0.0393  0.1568  0.0093
  143MOL0     C18786  -1.853  10.112   1.812  0.3167 -0.6903  1.0897
  143MOL0     C18787  -1.991  10.120   1.882  0.1418 -0.2930  0.6316
  143MOL0    Cl18788  -1.992  10.218   2.021 -0.6420 -0.6012  0.0304
  143MOL0     C18789  -1.208  10.262   2.075 -0.2042 -0.1654  0.0428
  143MOL0     C18790  -1.087  10.207   2.039 -0.9754 -0.5790  0.7350
  143MOL0     O18791  -0.830  10.335   1.852  0.1044 -0.8273  0.4849
  143MOL0     C18792  -0.590  10.236   1.769 -0.7413  0.1170  0.1941
  143MOL0     C18793  -0.463  10.185   1.728 -0.6161 -0.9153  0.4522
  143MOL0     N18794   0.105   9.600   1.744  0.3077  0.1377 -0.7547
  143MOL0     N18795   0.139   9.503   1.673  0.2415 -0.2797 -0.9463
  143MOL0     C18796   0.852   9.871   1.691 -0.8313  0.7763  0.3415
  143MOL0     C18797   0.948   9.858   1.791  0.2504 -0.6537  0.4223
  143MOL0     C18798   1.352   9.791   2.007 -0.1274 -0.4456 -1.0048
  143MOL0     C18799   1.436   9.690   2.062  0.1628  0.6417  0.3921
  143MOL0     C18800   1.515   9.700   2.171 -0.2897 -0.7155 -0.2638
  143MOL0     C18801   1.539   9.835   2.223  0.1378  0.4417 -0.0723
  143MOL0     O18802   1.644   9.854   2.315  0.2445  0.4725  0.4960
  143MOL0     C18803   1.708   9.982   2.302  0.3242  0.2538 -0.4316
  143MOL0     C18804   1.854   9.965   2.335 -0.6180 -0.9705  0.7421
  143MOL0     C18805   1.925   9.824   2.321  0.3670  0.2244  0.0500
  143MOL0     C18806   2.081   9.834   2.325  1.1613  0.8280  0.6200
  143MOL0     C18807   2.120   9.880   2.461  0.2398 -0.4035  0.5555
  143MOL0     C18808   2.150   9.912   2.577  0.3764 -0.5046 -0.2339
  143MOL0     C18809   1.460   9.939   2.171 -0.1474  0.1478 -0.5218
  143MOL0     C18810   1.365   9.912   2.070  0.1211 -0.0699  0.7861
  143MOL0     H18811   1.233   9.898   1.605 -0.6957  0.2915 -1.5961
  143MOL0     H18812   1.044   9.858   1.423 -4.5966 -1.5179 -0.6171
  143MOL0     H18813   0.897   9.897   1.291 -0.3277  0.1220  0.9714
  143MOL0     H18814   0.754   9.995   1.315  1.8810  0.9789  1.3527
  143MOL0     H18815   0.754   9.707   1.254  1.6497  1.4033  2.5798
  143MOL0     H18816   0.733   9.836   1.140  0.4329  1.6709 -0.3108
  143MOL0     H18817   0.519   9.907   1.266  2.1163  0.4718 -1.6606
  143MOL0     H18818   0.533   9.753   1.357 -1.1044 -2.4622 -0.6230
  143MOL0     H18819   0.499   9.793   1.058 -2.0177  0.2277 -0.4283
  143MOL0     H18820   0.556   9.639   1.135 -0.1424 -0.2432 -0.9199
  143MOL0     H18821   0.314   9.650   1.066  0.5100  0.9789  0.2246
  143MOL0     H18822   0.289   9.763   1.201  0.4095  1.2673  0.4683
  143MOL0     H18823   0.382   9.597   1.353 -0.9406  2.1721  0.3099
  143MOL0     H18824   0.390   9.476   1.229  0.9723  0.8538  3.0001
  143MOL0     H18825   0.132   9.633   1.286  1.1290  1.4786 -0.3251
  143MOL0     H18826   0.152   9.486   1.193  0.0235  0.3825 -0.4441
  143MOL0     H18827   0.206   9.370   1.432 -0.3325 -0.8123 -0.0978
  143MOL0     H18828   0.049   9.445   1.402 -0.1084  0.4863 -2.4215
  143MOL0     H18829   0.190   9.745   1.463 -2.8251  2.4122  0.7265
  143MOL0     H18830   0.207   9.934   1.679  1.2683 -1.1890 -1.2640
  143MOL0     H18831   0.158   9.857   1.818 -1.4777  1.9073 -0.1805
  143MOL0     H18832  -0.052   9.979   1.611 -4.1065 -0.1559  1.8248
  143MOL0     H18833  -0.010  10.021   1.781 -2.1678  0.1468  0.7857
  143MOL0     H18834  -0.186   9.810   1.676  1.7665 -1.6693 -1.2020
  143MOL0     H18835  -0.083   9.763   1.814  2.0376  0.3581 -0.6225
  143MOL0     H18836  -0.200   9.961   1.937 -0.0315  0.2541 -0.2873
  143MOL0     H18837  -0.300   9.836   1.853  0.4185 -0.4926 -4.8114
  143MOL0     H18838  -0.442   9.950   1.977 -2.2886 -1.0705 -1.2450
  143MOL0     H18839  -0.631  10.056   2.049  1.2344  0.8900  0.8470
  143MOL0     H18840  -0.875  10.404   2.217 -1.3446  1.6033 -0.6452
  143MOL0     H18841  -1.096  10.483   2.300 -0.5154  1.2474 -1.5969
  143MOL0     H18842  -1.534  10.422   2.211 -0.0648  4.1967 -2.8181
  143MOL0     H18843  -1.468  10.280   2.135 -1.5890 -0.1158  0.4778
  143MOL0     H18844  -1.369  10.439   1.958 -1.2157 -4.1059 -0.3174
  143MOL0     H18845  -1.473  10.572   2.031 -1.5061  0.6123  1.0259
  143MOL0     H18846  -1.593  10.473   1.851 -3.2272 -2.3406 -1.0839
  143MOL0     H18847  -1.655  10.409   2.005  0.2830 -0.2708  0.5860
  143MOL0     H18848  -1.448  10.239   1.862  0.1616 -0.1452 -0.3742
  143MOL0     H18849  -1.590  10.207   1.961 -1.4785  0.7478  0.1945
  143MOL0     H18850  -1.594  10.150   1.700  3.7182  2.1882 -3.4781
  143MOL0     H18851  -1.616  10.316   1.662  0.1627 -1.6350 -1.5743
  143MOL0     H18852  -1.843  10.282   1.679 -1.0450 -0.4010  0.3750
  143MOL0     H18853  -1.829  10.307   1.850 -0.6835 -1.5355  0.9951
  143MOL0     H18854  -1.864  10.041   1.729  3.2061 -1.0006  0.8492
  143MOL0     H18855  -1.786  10.060   1.881  1.5480  0.2088  0.6084
  143MOL0     H18856  -2.035  10.023   1.908 -0.2464  0.6142  3.7736
  143MOL0     H18857  -2.049  10.176   1.807  0.5937  0.5080  0.8647
  143MOL0     H18858  -1.288  10.220   2.015  0.2477  2.3718 -2.6014
  143MOL0     H18859  -1.083  10.131   1.961  0.2608 -0.2105  0.4178
  143MOL0     H18860  -0.635  10.309   1.703 -1.3848  1.4246  2.0285
  143MOL0     H18861  -0.421  10.230   1.638 -1.4727  0.9428  0.9416
  143MOL0     H18862   0.746   9.869   1.713 -1.2224  0.4464 -1.4006
  143MOL0     H18863   0.915   9.854   1.894 -0.4795  0.3837  0.2425
  143MOL0     H18864   1.428   9.595   2.011  0.3079  0.2829  1.0291
  143MOL0     H18865   1.571   9.619   2.217  1.1118  1.2305  1.6814
  143MOL0     H18866   1.667  10.047   2.380  0.4383 -2.6323  2.2454
  143MOL0     H18867   1.700  10.027   2.203  4.5433  1.1340 -0.5414
  143MOL0     H18868   1.919  10.022   2.269  0.5552 -0.2122  2.4640
  143MOL0     H18869   1.875  10.004   2.435  0.1445  0.3879  0.0748
  143MOL0     H18870   1.895   9.779   2.226  2.0139  2.8447 -1.8443
  143MOL0     H18871   1.883   9.759   2.399  1.1734  0.1161  0.4051
  143MOL0     H18872   2.133   9.740   2.306 -0.2771  0.5328 -2.3759
  143MOL0     H18873   2.120   9.908   2.255 -0.2443  1.9349  0.9590
  143MOL0     H18874   2.163   9.927   2.683 -0.5833 -0.4401 -0.1139
  143MOL0     H18875   1.471  10.041   2.206  3.8664 -1.2162  3.0276
  143MOL0     H18876   1.286   9.985   2.060 -2.3217 -2.7423 -0.9412
  144MOL0     O18877  10.809   2.927   3.868  0.5366 -0.5063  0.7403
  144MOL0     C18878  10.877   3.013   3.815 -0.7698 -0.0250 -0.1568
  144MOL0     O18879  10.894   3.030   3.679  0.2418 -0.0795  0.6179
  144MOL0     C18880  10.805   2.967   3.589 -0.3994 -0.0054  0.2494
  144MOL0     C18881  10.850   2.969   3.457 -1.3378 -0.0122 -0.7380
  144MOL0     C18882  10.771   2.914   3.354  0.0038  0.3035  0.5006
  144MOL0     C18883  10.636   2.875   3.371  0.0541 -0.9627 -1.1951
  144MOL0     O18884  10.558   2.828   3.271  0.2793  0.1930  0.0147
  144MOL0     C18885  10.620   2.710   3.208 -0.6328 -0.8647 -0.4199
  144MOL0     C18886  10.532   2.618   3.131 -0.0191  0.6938 -0.5128
  144MOL0     C18887  10.503   2.664   2.987  0.1789  0.5717 -0.2512
  144MOL0     C18888  10.421   2.562   2.919 -0.7411  0.3242  0.2785
  144MOL0     C18889  10.399   2.602   2.775 -0.2295 -0.0716 -0.0286
  144MOL0     C18890  10.528   2.619   2.684 -1.1056 -0.1385 -1.0302
  144MOL0     C18891  10.479   2.659   2.548  0.4852 -1.4455 -0.4337
  144MOL0     C18892  10.604   2.704   2.471  0.5020 -0.0154 -0.4729
  144MOL0     N18893  10.593   2.707   2.330 -0.1591  0.1601 -0.5477
  144MOL0     C18894  10.488   2.758   2.259  0.6548 -1.2055  0.3600
  144MOL0     C18895  10.494   2.706   2.133 -0.0535  0.7109  0.2895
  144MOL0     C18896  10.405   2.729   2.009  0.6008  0.1285 -0.0175
  144MOL0     C18897  10.472   2.805   1.895  0.9343 -0.7466 -0.4918
  144MOL0     C18898  10.507   2.946   1.934  0.2238 -0.0794 -0.2436
  144MOL0     C18899  10.570   3.013   1.816  0.8201 -0.6364  0.0650
  144MOL0     O18900  10.619   3.151   1.834 -0.0093  0.4150 -0.4176
  144MOL0     C18901  10.673   3.228   1.730  0.6507  1.0646 -0.0494
  144MOL0     C18902  10.741   3.189   1.623 -1.0506 -0.6497  0.4643
  144MOL0     C18903  10.806   3.270   1.534 -0.2045 -1.3451  0.0206
  144MOL0     C18904  10.798   3.403   1.568 -0.5751 -0.2338  0.3441
  144MOL0     C18905  10.856   3.506   1.465  1.1649  0.9072 -0.0785
  144MOL0     O18906  10.911   3.459   1.356  0.3311 -0.1051  0.1822
  144MOL0     C18907  10.991   3.545   1.286  0.1389 -0.6769 -0.6886
  144MOL0     C18908  10.949   3.660   1.225 -0.1291 -0.7740 -0.2251
  144MOL0     C18909  11.034   3.751   1.156 -0.0260 -0.5057 -0.4050
  144MOL0     C18910  11.178   3.725   1.149  1.2549  0.3936 -0.3022
  144MOL0     O18911  11.257   3.802   1.069  0.7442 -0.2943 -0.2978
  144MOL0     C18912  11.391   3.838   1.110  0.4589  0.5557  0.2332
  144MOL0     C18913  11.470   3.925   1.006 -0.3993  0.8196 -0.9078
  144MOL0     C18914  11.463   3.860   0.871  0.4098  0.4661  0.1785
  144MOL0     C18915  11.538   3.929   0.756  0.8080  0.7102  0.1537
  144MOL0     C18916  11.681   3.947   0.797 -0.8054  0.1539 -0.4467
  144MOL0     C18917  11.762   4.006   0.683 -0.0892  0.1181  1.0118
  144MOL0     C18918  11.911   4.032   0.703  1.2641 -1.1163 -0.2121
  144MOL0     C18919  11.979   3.906   0.674 -0.7397  0.2379  0.5626
  144MOL0    Cl18920  12.137   3.924   0.744 -0.3587  0.1558  0.0154
  144MOL0     C18921  11.221   3.607   1.213 -0.5184  0.0483 -0.3307
  144MOL0     C18922  11.136   3.521   1.277 -0.2549 -0.4955 -0.6341
  144MOL0     O18923  10.830   3.620   1.495 -0.6557 -0.0330 -0.1631
  144MOL0     C18924  10.718   3.444   1.672 -0.8201  0.0814 -1.4600
  144MOL0     C18925  10.647   3.357   1.746 -0.2414 -0.0073 -0.7213
  144MOL0     N18926  10.598   2.616   2.132  0.7386  0.2212 -0.4745
  144MOL0     N18927  10.660   2.617   2.244  0.2266 -0.0960 -0.7901
  144MOL0     C18928  10.591   2.871   3.500 -0.1643  0.8876  0.3037
  144MOL0     C18929  10.672   2.920   3.608  0.2643 -0.1105  0.3552
  144MOL0     C18930  10.956   3.100   3.905 -0.4397 -0.3037 -0.0909
  144MOL0     C18931  10.931   3.103   4.042 -0.4671 -0.6066 -0.0343
  144MOL0     C18932  10.991   3.200   4.122 -0.5549  0.9121  0.5797
  144MOL0     C18933  11.092   3.289   4.064  0.2374  0.5453 -0.2382
  144MOL0     O18934  11.163   3.366   4.157  0.9169  0.4439 -0.2151
  144MOL0     C18935  11.262   3.453   4.094 -0.2760 -0.4684  0.0271
  144MOL0     C18936  11.293   3.580   4.179  0.5555  0.5728  0.0267
  144MOL0     C18937  11.435   3.622   4.184 -0.5541  0.3945  0.8375
  144MOL0     C18938  11.447   3.762   4.242 -0.3780 -0.4307 -0.6266
  144MOL0     C18939  11.576   3.794   4.298 -0.3268  0.4283 -0.1300
  144MOL0     C18940  11.682   3.811   4.350  0.6520 -0.2817  0.2966
  144MOL0     C18941  11.123   3.271   3.928 -0.0227  0.2966 -0.3727
  144MOL0     C18942  11.061   3.173   3.854  0.9660  0.0563  0.2098
  144MOL0     H18943  10.952   3.002   3.439 -1.8230  2.2925  0.3593
  144MOL0     H18944  10.811   2.922   3.253  1.1692  4.1110  1.0804
  144MOL0     H18945  10.652   2.643   3.289  0.9335 -1.5727 -1.5663
  144MOL0     H18946  10.711   2.731   3.152  0.3824 -1.2413  1.0255
  144MOL0     H18947  10.430   2.618   3.169 -1.3752  3.4328 -3.6801
  144MOL0     H18948  10.564   2.514   3.139 -1.5373  0.1659 -1.0657
  144MOL0     H18949  10.597   2.678   2.933 -0.0687  0.2804 -0.7716
  144MOL0     H18950  10.464   2.766   2.990 -1.6162 -0.0886  0.2589
  144MOL0     H18951  10.454   2.458   2.918 -2.4112 -0.2278 -0.1982
  144MOL0     H18952  10.330   2.555   2.979 -1.0578 -2.4679 -0.3706
  144MOL0     H18953  10.341   2.695   2.774 -0.9835 -0.4962 -2.7461
  144MOL0     H18954  10.341   2.524   2.725 -1.0965  0.9869 -0.7227
  144MOL0     H18955  10.604   2.542   2.672  0.2870  1.2017 -1.0818
  144MOL0     H18956  10.589   2.704   2.718 -0.4337 -0.2641 -1.8959
  144MOL0     H18957  10.426   2.587   2.484 -3.2934  0.4745  0.2482
  144MOL0     H18958  10.409   2.740   2.571  0.7388 -0.7946 -1.8539
  144MOL0     H18959  10.691   2.640   2.490  0.9956  0.5393 -0.8209
  144MOL0     H18960  10.632   2.805   2.505 -0.7441 -0.9535  3.9603
  144MOL0     H18961  10.414   2.825   2.300 -1.0303 -3.4616  1.1958
  144MOL0     H18962  10.317   2.785   2.043 -1.6064 -4.2413  2.4059
  144MOL0     H18963  10.377   2.628   1.978  0.8213  0.2382 -0.5733
  144MOL0     H18964  10.409   2.807   1.806 -2.2920 -1.4977  1.6119
  144MOL0     H18965  10.560   2.758   1.849  1.3213  1.9570 -2.7777
  144MOL0     H18966  10.422   3.002   1.972 -0.0540 -1.7853  1.9129
  144MOL0     H18967  10.582   2.918   2.009 -0.3800  1.5016  0.9939
  144MOL0     H18968  10.495   3.013   1.736  1.6702 -3.1006 -0.8359
  144MOL0     H18969  10.656   2.957   1.778 -0.4854 -2.2431 -0.6317
  144MOL0     H18970  10.764   3.084   1.608  0.6626 -0.0798 -1.4128
  144MOL0     H18971  10.885   3.233   1.469  2.4850  2.6138  0.6373
  144MOL0     H18972  10.842   3.681   1.223 -0.1258 -0.7928 -0.8758
  144MOL0     H18973  11.006   3.837   1.095 -1.0984 -0.2147  0.4752
  144MOL0     H18974  11.454   3.752   1.135 -1.1118 -0.6756  0.0737
  144MOL0     H18975  11.370   3.891   1.204 -0.4726  1.9580 -0.7243
  144MOL0     H18976  11.569   3.956   1.040 -1.0898  1.8826  0.2330
  144MOL0     H18977  11.429   4.026   0.996  3.3743  2.8254  1.3337
  144MOL0     H18978  11.358   3.870   0.840  1.0941  4.2897 -1.6029
  144MOL0     H18979  11.494   3.755   0.876  0.1131  0.3659 -0.0303
  144MOL0     H18980  11.536   3.870   0.663  1.3470  1.7585 -0.5459
  144MOL0     H18981  11.494   4.027   0.735 -1.2025 -0.2322 -0.2572
  144MOL0     H18982  11.726   3.850   0.822  0.9839 -0.0804 -4.0115
  144MOL0     H18983  11.683   4.019   0.879 -2.9104  0.8922 -0.9870
  144MOL0     H18984  11.726   4.108   0.665 -0.8905  0.0305  2.0143
  144MOL0     H18985  11.745   3.945   0.594 -4.9176 -2.5274  3.3289
  144MOL0     H18986  11.944   4.107   0.631 -0.8771  0.2179  0.1029
  144MOL0     H18987  11.916   4.064   0.808 -1.0419 -3.3010  0.6921
  144MOL0     H18988  12.009   3.887   0.570  4.1006  1.2191  1.5257
  144MOL0     H18989  11.924   3.818   0.708  2.0263 -0.8807  2.5482
  144MOL0     H18990  11.327   3.584   1.208 -0.6228 -0.1708 -1.9067
  144MOL0     H18991  11.169   3.432   1.327  3.2508  0.5463 -0.8242
  144MOL0     H18992  10.694   3.548   1.689 -2.8231 -0.6386  0.7706
  144MOL0     H18993  10.598   3.398   1.834  0.0434  1.1138 -1.0683
  144MOL0     H18994  10.485   2.857   3.518  0.4931 -2.1532  2.5837
  144MOL0     H18995  10.629   2.926   3.707 -2.4637 -0.3899 -0.7440
  144MOL0     H18996  10.851   3.043   4.084  1.0910 -3.4344 -0.8753
  144MOL0     H18997  10.962   3.201   4.227 -0.9608 -2.8255  0.6590
  144MOL0     H18998  11.225   3.503   4.005 -2.7434 -2.4296 -0.1468
  144MOL0     H18999  11.352   3.394   4.071 -0.3284 -0.6782  0.3488
  144MOL0     H19000  11.221   3.659   4.152  1.0992  1.7632  1.8880
  144MOL0     H19001  11.265   3.554   4.281  0.1068  3.6808  0.7938
  144MOL0     H19002  11.491   3.617   4.090 -2.8585 -0.8681 -0.5532
  144MOL0     H19003  11.486   3.553   4.251  0.8797  0.3741 -0.2275
  144MOL0     H19004  11.443   3.827   4.154 -1.1941 -0.8503 -0.9054
  144MOL0     H19005  11.363   3.789   4.306 -0.6457  0.8562 -1.4707
  144MOL0     H19006  11.778   3.840   4.388  0.8499  0.4214 -0.6881
  144MOL0     H19007  11.204   3.325   3.882 -0.6662  1.1013 -0.5847
  144MOL0     H19008  11.073   3.151   3.748  0.2661  0.3782  0.0561
  145MOL0     O19009   3.822   9.692   8.915  0.1305  0.5418  0.6267
  145MOL0     C19010   3.784   9.706   8.803 -0.8689  1.5067 -0.3851
  145MOL0     O19011   3.857   9.741   8.694  0.4702 -0.6099  0.3498
  145MOL0     C19012   3.997   9.759   8.711  0.2753  1.0329 -0.9707
  145MOL0     C19013   4.058   9.853   8.634 -0.2994  0.2581  0.4735
  145MOL0     C19014   4.197   9.874   8.652 -0.4397  0.1605  0.2222
  145MOL0     C19015   4.275   9.808   8.746  0.0018  0.4051 -0.1016
  145MOL0     O19016   4.406   9.820   8.775 -0.3837  0.4650 -0.7682
  145MOL0     C19017   4.488   9.921   8.712  0.5443 -0.2811  0.7132
  145MOL0     C19018   4.629   9.904   8.773 -0.0504  0.0566  0.7048
  145MOL0     C19019   4.734   9.977   8.684 -0.5948  1.2037  0.2886
  145MOL0     C19020   4.855   9.999   8.767  0.7586  0.8318 -0.9117
  145MOL0     C19021   4.983  10.019   8.687 -0.7074 -0.1195  0.6817
  145MOL0     C19022   4.965  10.155   8.612 -0.2764 -0.1284 -0.9910
  145MOL0     C19023   5.083  10.181   8.521  0.9400 -0.0035  0.7847
  145MOL0     C19024   5.185  10.284   8.564  0.3221 -0.3152 -1.0328
  145MOL0     N19025   5.296  10.283   8.470  0.3376  0.4378 -0.0290
  145MOL0     C19026   5.290  10.340   8.342  0.2236  0.1432 -1.1099
  145MOL0     C19027   5.402  10.291   8.279 -0.4678  0.3575  0.0775
  145MOL0     C19028   5.446  10.298   8.132 -0.9932  0.0836 -0.3663
  145MOL0     C19029   5.579  10.217   8.102  0.0117 -0.2002  0.0471
  145MOL0     C19030   5.564  10.066   8.078  0.2278  0.4672 -0.7439
  145MOL0     C19031   5.496  10.015   7.952  0.4809  0.5624  1.2407
  145MOL0     O19032   5.546  10.084   7.840 -1.1283 -0.6999  0.6239
  145MOL0     C19033   5.489  10.055   7.714  0.1509 -0.6963 -0.8653
  145MOL0     C19034   5.406   9.948   7.687 -0.1953  0.5336  0.0081
  145MOL0     C19035   5.340   9.948   7.559 -1.0831 -0.2788 -0.1477
  145MOL0     C19036   5.373  10.033   7.456 -0.5613  0.0160 -0.4189
  145MOL0     C19037   5.290  10.036   7.329 -0.2678  0.5468 -0.3412
  145MOL0     O19038   5.361  10.080   7.224  0.6577  0.1385  0.0677
  145MOL0     C19039   5.299  10.081   7.101 -0.1408  1.0839 -0.0026
  145MOL0     C19040   5.303  10.190   7.009  0.5737  0.0353 -0.6547
  145MOL0     C19041   5.237  10.177   6.886 -0.1805 -0.3542 -0.1072
  145MOL0     C19042   5.169  10.062   6.840 -0.1725  0.3716  0.4738
  145MOL0     O19043   5.100  10.058   6.724 -0.0776 -0.2717  0.3994
  145MOL0     C19044   5.103   9.936   6.643  0.4991  0.2723 -0.2827
  145MOL0     C19045   5.072   9.975   6.496 -0.1164  0.0071 -0.9002
  145MOL0     C19046   4.928  10.028   6.474  0.4385 -0.3585 -0.4060
  145MOL0     C19047   4.916  10.087   6.328  0.1531  1.0669  0.2418
  145MOL0     C19048   4.788  10.165   6.299  0.3262 -0.0400  0.2718
  145MOL0     C19049   4.787  10.226   6.157 -0.5944  0.3726  0.1880
  145MOL0     C19050   4.783  10.125   6.045 -0.0882 -0.2932  1.1013
  145MOL0     C19051   4.783  10.198   5.908 -0.5405 -0.6835 -0.1705
  145MOL0    Cl19052   4.785  10.096   5.760  0.1763  0.0714  0.4646
  145MOL0     C19053   5.174   9.950   6.926  1.0265 -0.4523 -0.4029
  145MOL0     C19054   5.240   9.959   7.056 -0.1551 -0.7765  0.5581
  145MOL0     O19055   5.175  10.003   7.333 -0.8781  0.6039  0.0172
  145MOL0     C19056   5.475  10.136   7.476 -0.2671  0.2550  0.0321
  145MOL0     C19057   5.533  10.142   7.605  0.2039 -0.1933  0.1716
  145MOL0     N19058   5.485  10.222   8.370  0.3675 -0.3369  0.1308
  145MOL0     N19059   5.422  10.223   8.479  1.1838 -0.2804  0.1343
  145MOL0     C19060   4.215   9.704   8.817 -0.2165  0.2826  0.2271
  145MOL0     C19061   4.080   9.680   8.799  0.2526  0.6629  0.0710
  145MOL0     C19062   3.641   9.674   8.778  0.6783  0.6765  0.2337
  145MOL0     C19063   3.602   9.632   8.648 -0.4819 -0.7541 -0.1908
  145MOL0     C19064   3.472   9.601   8.613 -0.0916  0.5132  0.0960
  145MOL0     C19065   3.361   9.625   8.702  0.3503 -0.3584 -0.2134
  145MOL0     O19066   3.220   9.619   8.667 -0.0191 -0.3148 -0.4659
  145MOL0     C19067   3.176   9.573   8.537 -0.6214 -0.1900 -0.5321
  145MOL0     C19068   3.038   9.634   8.498 -1.3205 -0.6722  0.3508
  145MOL0     C19069   2.987   9.594   8.361  0.5543 -0.7816 -0.1037
  145MOL0     C19070   3.052   9.683   8.253  0.5612 -1.1079  0.8593
  145MOL0     C19071   2.994   9.653   8.119  0.5597  1.1125 -0.8229
  145MOL0     C19072   2.945   9.622   8.014  0.1941  0.2223 -0.9555
  145MOL0     C19073   3.400   9.667   8.830  0.3636  1.9567 -0.3354
  145MOL0     C19074   3.538   9.692   8.876  0.6171  0.9714  0.3656
  145MOL0     H19075   4.007   9.919   8.564  0.7221  0.4390 -0.1186
  145MOL0     H19076   4.245   9.957   8.602 -1.5649 -0.1516 -1.4741
  145MOL0     H19077   4.471  10.025   8.741  2.3676 -0.2687  1.8844
  145MOL0     H19078   4.476   9.904   8.605  2.6837 -1.1416  0.5565
  145MOL0     H19079   4.659   9.799   8.764  3.0061  0.9848 -1.7676
  145MOL0     H19080   4.623   9.940   8.876  3.2601  1.5977  0.4873
  145MOL0     H19081   4.692  10.069   8.642 -0.2801  1.1220 -0.2179
  145MOL0     H19082   4.763   9.917   8.597 -2.2373  0.2975  0.3263
  145MOL0     H19083   4.825  10.087   8.825  0.0703  2.7969 -4.0048
  145MOL0     H19084   4.880   9.915   8.833 -1.1027  2.1334  1.6047
  145MOL0     H19085   4.998   9.938   8.615  2.5128  1.6766 -0.8633
  145MOL0     H19086   5.073  10.023   8.749  1.0306 -1.8802 -1.6023
  145MOL0     H19087   4.947  10.235   8.684 -1.7990 -3.7062  3.0554
  145MOL0     H19088   4.870  10.152   8.557  0.4010 -0.2147 -2.1829
  145MOL0     H19089   5.132  10.086   8.497  1.0225  0.7319 -2.3888
  145MOL0     H19090   5.041  10.212   8.425 -2.9401 -3.2158  1.1721
  145MOL0     H19091   5.229  10.261   8.662 -0.8484  2.0038  0.1236
  145MOL0     H19092   5.135  10.380   8.575  1.7128  0.1597  2.2596
  145MOL0     H19093   5.207  10.395   8.298  1.1476  2.1312 -0.4710
  145MOL0     H19094   5.463  10.401   8.099 -1.3904 -0.0741 -1.1029
  145MOL0     H19095   5.357  10.266   8.076 -2.7793  0.2759  2.1630
  145MOL0     H19096   5.651  10.232   8.183  2.8160  2.4719 -2.6724
  145MOL0     H19097   5.628  10.272   8.021 -0.0995  1.6464  1.1556
  145MOL0     H19098   5.667  10.029   8.083  0.5079  0.8318 -2.8602
  145MOL0     H19099   5.510  10.010   8.155 -0.9903 -0.6786 -2.3449
  145MOL0     H19100   5.391  10.041   7.963 -0.1662 -2.1744  2.6059
  145MOL0     H19101   5.509   9.909   7.927  1.2751  1.1699 -1.1870
  145MOL0     H19102   5.385   9.870   7.759 -0.5218  2.0361  1.6093
  145MOL0     H19103   5.259   9.881   7.533 -0.7332 -0.4307 -0.8580
  145MOL0     H19104   5.350  10.286   7.024  0.5852 -0.2502  1.3719
  145MOL0     H19105   5.237  10.261   6.817 -2.6104 -0.6278 -0.5627
  145MOL0     H19106   5.027   9.862   6.667 -0.3348  1.1406 -0.1817
  145MOL0     H19107   5.204   9.895   6.649  1.4761  2.3501 -1.3595
  145MOL0     H19108   5.094   9.889   6.433 -0.3063 -0.2636 -0.6037
  145MOL0     H19109   5.137  10.049   6.449 -0.9366 -0.0662 -2.1859
  145MOL0     H19110   4.908  10.112   6.541  3.3693  0.3903 -0.3285
  145MOL0     H19111   4.857   9.948   6.495 -0.3581 -0.1961 -2.3030
  145MOL0     H19112   5.001  10.150   6.303  0.1469  0.1957 -2.1826
  145MOL0     H19113   4.928   9.994   6.271  0.8503  0.0066  2.0205
  145MOL0     H19114   4.785  10.250   6.368 -0.8062  1.8509 -1.9498
  145MOL0     H19115   4.698  10.103   6.308 -0.2429  0.7992  0.4408
  145MOL0     H19116   4.870  10.295   6.137 -0.4899  0.0938 -0.3504
  145MOL0     H19117   4.696  10.284   6.147 -0.6118  0.0232 -2.1261
  145MOL0     H19118   4.863  10.051   6.049 -0.8551 -1.2395 -0.2537
  145MOL0     H19119   4.690  10.069   6.059  0.1901 -1.6312 -1.6514
  145MOL0     H19120   4.875  10.254   5.890 -0.6025 -1.1279 -2.0765
  145MOL0     H19121   4.705  10.274   5.921  2.2771  2.2666  0.9150
  145MOL0     H19122   5.127   9.858   6.895 -1.0546 -0.2378  1.8161
  145MOL0     H19123   5.241   9.863   7.106  0.5687 -0.1794  1.7155
  145MOL0     H19124   5.498  10.203   7.394 -0.8095 -2.0017 -2.0838
  145MOL0     H19125   5.595  10.228   7.628 -2.1878  1.3798  1.1782
  145MOL0     H19126   4.279   9.647   8.885 -0.3690 -1.5363 -1.0823
  145MOL0     H19127   4.042   9.622   8.883 -0.1429  1.7369  0.6520
  145MOL0     H19128   3.669   9.611   8.564 -1.6045  0.7823 -1.5440
  145MOL0     H19129   3.439   9.564   8.516 -3.5373 -0.1332  1.3504
  145MOL0     H19130   3.156   9.466   8.543 -5.2915  0.5638  1.3553
  145MOL0     H19131   3.242   9.593   8.452  1.5202 -0.6748  0.9020
  145MOL0     H19132   2.979   9.590   8.579 -0.5401 -0.4358  1.0642
  145MOL0     H19133   3.037   9.744   8.497  0.0318 -0.5914 -2.2818
  145MOL0     H19134   2.881   9.620   8.363  0.6238 -0.4475 -0.5429
  145MOL0     H19135   3.006   9.488   8.341  0.7689 -0.5599 -1.1295
  145MOL0     H19136   3.042   9.789   8.276  1.1104 -0.8845  0.1054
  145MOL0     H19137   3.157   9.660   8.231  1.9270  1.4678  3.9475
  145MOL0     H19138   2.919   9.588   7.916  1.8420  0.4875 -1.5299
  145MOL0     H19139   3.318   9.703   8.892 -1.9303  0.9600 -2.6244
  145MOL0     H19140   3.565   9.726   8.975  1.5098 -0.0739  0.4974
  146MOL0     O19141   2.982   0.887   7.067 -1.2203 -0.0621  0.4790
  146MOL0     C19142   3.066   0.874   7.161 -0.3384  0.4107  0.4128
  146MOL0     O19143   3.069   0.940   7.280 -0.2081 -0.2252 -0.0130
  146MOL0     C19144   2.992   1.050   7.290  1.0849  0.2210  0.7188
  146MOL0     C19145   2.995   1.157   7.198  0.5679 -0.3538  0.2540
  146MOL0     C19146   2.897   1.256   7.214 -0.4166  0.7588  0.0018
  146MOL0     C19147   2.811   1.261   7.335  0.4067 -0.2786 -0.4884
  146MOL0     O19148   2.706   1.347   7.340 -0.2980  0.3379 -0.8006
  146MOL0     C19149   2.603   1.352   7.434 -0.0699 -0.7471  0.6625
  146MOL0     C19150   2.480   1.306   7.372  0.0347 -0.0144  1.0245
  146MOL0     C19151   2.438   1.395   7.262 -0.2359  0.3219  0.4655
  146MOL0     C19152   2.307   1.343   7.210  0.2823  0.4324  0.1813
  146MOL0     C19153   2.230   1.442   7.122 -0.4811  0.6614 -0.0723
  146MOL0     C19154   2.309   1.474   6.992  0.3462 -0.3057  0.1365
  146MOL0     C19155   2.224   1.563   6.903  0.4121  0.0485  0.0733
  146MOL0     C19156   2.308   1.616   6.796 -0.4770 -0.1796  0.8418
  146MOL0     N19157   2.314   1.529   6.678 -0.0896  0.6929 -0.3901
  146MOL0     C19158   2.420   1.442   6.658  0.5673 -0.5147 -0.5961
  146MOL0     C19159   2.377   1.359   6.567  0.3649  0.1580  0.7233
  146MOL0     C19160   2.440   1.233   6.510  0.0009  0.2750 -0.2454
  146MOL0     C19161   2.499   1.263   6.376 -0.2482 -0.0733  0.5832
  146MOL0     C19162   2.397   1.242   6.273 -0.5714 -0.2615 -0.5044
  146MOL0     C19163   2.454   1.247   6.126 -0.2805 -0.9865  0.0194
  146MOL0     O19164   2.578   1.175   6.130  0.2786 -0.3648 -0.0190
  146MOL0     C19165   2.644   1.169   6.014  0.6652  0.0717 -0.3077
  146MOL0     C19166   2.635   1.243   5.895  0.1117  1.1263 -0.5284
  146MOL0     C19167   2.713   1.216   5.781 -0.2080 -0.7056  0.2623
  146MOL0     C19168   2.815   1.122   5.779 -0.7773  0.1782  1.2573
  146MOL0     C19169   2.896   1.087   5.663  0.3535 -0.0316  0.3127
  146MOL0     O19170   2.991   0.993   5.681  0.3264  0.1587 -0.8921
  146MOL0     C19171   3.046   0.926   5.577  0.6309  0.7416  0.5567
  146MOL0     C19172   2.949   0.870   5.486  0.6189 -0.0724  0.0667
  146MOL0     C19173   3.001   0.791   5.378  0.7194 -0.7751 -0.3365
  146MOL0     C19174   3.134   0.780   5.362  0.6287 -0.3228  0.0935
  146MOL0     O19175   3.185   0.693   5.265 -0.5394  0.0142  0.2335
  146MOL0     C19176   3.230   0.761   5.152  0.3816 -0.2146 -0.2736
  146MOL0     C19177   3.286   0.657   5.038  0.0369 -0.9580 -0.7700
  146MOL0     C19178   3.183   0.571   4.954 -0.0142 -0.1174 -0.3636
  146MOL0     C19179   3.247   0.509   4.823  0.1022 -0.4017 -0.0598
  146MOL0     C19180   3.140   0.435   4.737 -0.5067  0.8938  0.7447
  146MOL0     C19181   3.188   0.347   4.619 -0.4763 -0.2386  0.0317
  146MOL0     C19182   3.252   0.440   4.501 -0.1599 -0.5848 -0.5250
  146MOL0     C19183   3.405   0.461   4.508  0.5357  0.1958  0.2099
  146MOL0    Cl19184   3.480   0.312   4.460  0.4707  0.3240  0.1338
  146MOL0     C19185   3.221   0.848   5.448 -0.7747 -0.2044  0.0927
  146MOL0     C19186   3.188   0.917   5.559  0.0857 -0.1934 -0.2059
  146MOL0     O19187   2.883   1.151   5.558  0.9932  1.0196  1.0660
  146MOL0     C19188   2.844   1.067   5.892 -0.3518  0.5861 -0.7061
  146MOL0     C19189   2.763   1.097   6.011 -0.1539  0.5359  0.5071
  146MOL0     N19190   2.243   1.391   6.533 -0.1150  0.2675  0.6271
  146MOL0     N19191   2.206   1.494   6.599  0.5080 -0.1810  0.3283
  146MOL0     C19192   2.827   1.162   7.440 -0.3879 -0.6289 -0.4557
  146MOL0     C19193   2.913   1.060   7.404  0.4872  0.0673  0.7639
  146MOL0     C19194   3.159   0.755   7.141  0.1985  0.3258 -1.2821
  146MOL0     C19195   3.208   0.675   7.247 -0.6149 -0.8432 -0.3559
  146MOL0     C19196   3.282   0.564   7.223  0.1425 -0.3780 -0.0476
  146MOL0     C19197   3.301   0.517   7.091 -0.0517  0.6224 -0.2647
  146MOL0     O19198   3.383   0.406   7.079  0.4263 -0.6276  0.7204
  146MOL0     C19199   3.477   0.430   6.978 -0.4628 -0.7706 -0.0564
  146MOL0     C19200   3.561   0.562   7.004 -0.6648  0.4978 -0.2219
  146MOL0     C19201   3.672   0.587   6.901 -0.5442  0.0109  0.5144
  146MOL0     C19202   3.613   0.604   6.757 -1.4133  0.6159 -0.1153
  146MOL0     C19203   3.533   0.727   6.735  0.0491  0.5681 -0.3443
  146MOL0     C19204   3.468   0.837   6.757  0.6294  1.1769 -0.3267
  146MOL0     C19205   3.230   0.575   6.988 -0.5888 -0.1591 -0.8177
  146MOL0     C19206   3.167   0.704   7.010 -0.3184  0.4791 -0.4386
  146MOL0     H19207   3.061   1.157   7.112 -0.3888 -0.2703 -0.4894
  146MOL0     H19208   2.870   1.322   7.132 -0.5558 -1.9277 -2.2876
  146MOL0     H19209   2.592   1.458   7.459  0.8886  0.1689 -2.4446
  146MOL0     H19210   2.626   1.290   7.522  1.8909 -4.1776 -2.0157
  146MOL0     H19211   2.401   1.297   7.448  0.1728 -2.1521  0.9738
  146MOL0     H19212   2.499   1.206   7.332  0.5782  1.0187 -1.4150
  146MOL0     H19213   2.509   1.402   7.178 -0.5779  1.1507  0.2324
  146MOL0     H19214   2.433   1.500   7.291 -1.8448  1.1510 -2.4370
  146MOL0     H19215   2.342   1.257   7.153 -1.5077 -0.2748  0.0924
  146MOL0     H19216   2.244   1.293   7.284  1.3843 -2.6396 -0.7986
  146MOL0     H19217   2.222   1.533   7.182  1.8710 -0.3305  1.9692
  146MOL0     H19218   2.135   1.396   7.096  0.3332 -1.5398  0.5689
  146MOL0     H19219   2.346   1.389   6.934 -1.4245 -0.4551 -0.8523
  146MOL0     H19220   2.393   1.534   7.026 -0.4310  0.5730  0.5438
  146MOL0     H19221   2.148   1.504   6.850 -0.3377  3.5521 -3.1842
  146MOL0     H19222   2.184   1.649   6.957  3.0597  1.5756 -0.2382
  146MOL0     H19223   2.410   1.648   6.819 -0.5406  0.7404 -0.0966
  146MOL0     H19224   2.255   1.708   6.770 -0.3421  0.0748  1.4590
  146MOL0     H19225   2.518   1.445   6.704  0.9460  0.5488 -1.4395
  146MOL0     H19226   2.368   1.151   6.508  0.4021 -0.0751 -0.8223
  146MOL0     H19227   2.524   1.215   6.578 -1.2505 -1.4705  0.9275
  146MOL0     H19228   2.584   1.195   6.368  0.9687  1.2273  2.1295
  146MOL0     H19229   2.536   1.365   6.366 -1.0557  0.2455  0.7302
  146MOL0     H19230   2.355   1.141   6.280 -2.1669  0.4185  0.3322
  146MOL0     H19231   2.322   1.318   6.296 -0.2277  0.0840 -0.5140
  146MOL0     H19232   2.471   1.350   6.095  3.4476 -2.2434 -2.8442
  146MOL0     H19233   2.393   1.215   6.041  1.3343  0.1742 -1.6419
  146MOL0     H19234   2.551   1.311   5.889 -0.0158  1.3407  2.4218
  146MOL0     H19235   2.683   1.267   5.689  0.5468  1.0469  0.9378
  146MOL0     H19236   2.842   0.879   5.499  0.7256 -0.6378  1.4828
  146MOL0     H19237   2.952   0.738   5.297 -0.3231  1.1357 -1.0343
  146MOL0     H19238   3.309   0.827   5.187 -0.6553 -0.3838  2.6184
  146MOL0     H19239   3.154   0.827   5.110  0.0748  0.0841  0.7289
  146MOL0     H19240   3.352   0.586   5.088 -2.7534 -2.0794  1.6340
  146MOL0     H19241   3.342   0.705   4.957 -1.4633  0.7925 -0.8345
  146MOL0     H19242   3.101   0.635   4.921  1.2776  0.8653 -1.8290
  146MOL0     H19243   3.145   0.481   5.003 -0.1038  0.1755  0.1058
  146MOL0     H19244   3.292   0.588   4.762  0.9136 -1.3958 -0.7696
  146MOL0     H19245   3.330   0.440   4.836 -0.1061 -0.7957 -0.7675
  146MOL0     H19246   3.075   0.511   4.693 -0.0817  0.1967 -1.1614
  146MOL0     H19247   3.071   0.380   4.801 -0.7120 -1.1654 -1.1153
  146MOL0     H19248   3.104   0.286   4.585 -0.4873  1.2276 -2.8264
  146MOL0     H19249   3.263   0.274   4.650 -1.3946 -1.1355  0.1947
  146MOL0     H19250   3.220   0.410   4.401 -0.9252 -0.0000 -0.4660
  146MOL0     H19251   3.211   0.541   4.516 -1.4697 -1.3495  1.4617
  146MOL0     H19252   3.425   0.495   4.610  1.6957  1.1838 -0.3135
  146MOL0     H19253   3.423   0.535   4.429 -0.8643 -0.3614 -0.6814
  146MOL0     H19254   3.322   0.809   5.439  0.0399  0.4055  4.2701
  146MOL0     H19255   3.257   0.959   5.632 -0.5425  0.5090 -0.0019
  146MOL0     H19256   2.929   1.000   5.902 -1.3462 -0.8263 -1.4234
  146MOL0     H19257   2.802   1.048   6.099 -0.4074  0.6676  0.6921
  146MOL0     H19258   2.754   1.165   7.520 -2.0506 -0.9450 -1.8933
  146MOL0     H19259   2.911   0.975   7.471 -2.4682 -0.2658  0.3922
  146MOL0     H19260   3.173   0.694   7.348 -0.0923 -0.7757 -0.1796
  146MOL0     H19261   3.339   0.513   7.301  2.4580  1.3215 -0.5163
  146MOL0     H19262   3.425   0.440   6.882  0.6691  4.1633 -0.3874
  146MOL0     H19263   3.551   0.349   6.975  1.5249  0.9853 -0.6196
  146MOL0     H19264   3.510   0.658   6.989 -2.3828 -0.2765  0.3569
  146MOL0     H19265   3.597   0.551   7.106 -1.6499 -3.1291 -0.1095
  146MOL0     H19266   3.744   0.505   6.906 -1.2747 -1.2941 -4.7085
  146MOL0     H19267   3.729   0.670   6.942  0.2823 -0.0715 -0.4394
  146MOL0     H19268   3.689   0.617   6.679 -1.2603  0.2539 -0.0260
  146MOL0     H19269   3.561   0.511   6.733  0.4936 -0.2659 -0.9861
  146MOL0     H19270   3.420   0.932   6.761 -0.2466  0.7656 -0.7672
  146MOL0     H19271   3.238   0.544   6.885 -0.6710 -0.7064 -0.6615
  146MOL0     H19272   3.128   0.758   6.924 -4.2179  0.8817  1.3770
  147MOL0     O19273   4.930   8.273   1.341  1.1997  0.1543  0.8624
  147MOL0     C19274   4.885   8.285   1.222  0.3763 -0.8046 -0.4837
  147MOL0     O19275   4.868   8.191   1.129 -0.2326 -0.1562 -0.5144
  147MOL0     C19276   4.918   8.071   1.148  0.3622  0.1936  0.3817
  147MOL0     C19277   5.042   8.052   1.215  0.0399  0.2993 -0.3534
  147MOL0     C19278   5.087   7.919   1.238 -0.2913 -0.8048 -0.2220
  147MOL0     C19279   5.012   7.805   1.193  0.1477  0.7997  0.6490
  147MOL0     O19280   5.054   7.680   1.227  0.6798  0.0057 -0.2840
  147MOL0     C19281   4.970   7.564   1.230  0.6519  0.2868  0.0821
  147MOL0     C19282   4.881   7.558   1.351  0.3390  0.5134 -0.9065
  147MOL0     C19283   4.801   7.421   1.350 -0.0466 -0.0393  0.5832
  147MOL0     C19284   4.690   7.412   1.466 -0.3711  0.5137 -0.3431
  147MOL0     C19285   4.618   7.279   1.472 -0.6640 -0.4569 -0.2693
  147MOL0     C19286   4.544   7.267   1.606  0.1871 -0.7330  0.3613
  147MOL0     C19287   4.439   7.378   1.661 -0.3493 -0.1589  1.0514
  147MOL0     C19288   4.309   7.366   1.588  0.8317 -0.6075  0.1071
  147MOL0     N19289   4.231   7.474   1.652 -0.4894  0.0615  0.1274
  147MOL0     C19290   4.205   7.493   1.782  0.6703  0.0807 -0.0115
  147MOL0     C19291   4.152   7.620   1.789  0.3063 -0.0282  0.0208
  147MOL0     C19292   4.067   7.671   1.905 -0.9913 -0.3390  0.1270
  147MOL0     C19293   4.156   7.736   2.015  0.7262  0.0264  1.2355
  147MOL0     C19294   4.237   7.626   2.096 -0.4138 -1.2910  0.1589
  147MOL0     C19295   4.303   7.702   2.218  0.4696  0.2681  0.1272
  147MOL0     O19296   4.412   7.635   2.284 -0.0723 -0.5411  0.8901
  147MOL0     C19297   4.390   7.529   2.365  0.4717  1.3198 -1.4631
  147MOL0     C19298   4.502   7.478   2.442  0.5605  0.0615  0.3617
  147MOL0     C19299   4.491   7.365   2.525 -0.0044  0.9572  0.8917
  147MOL0     C19300   4.373   7.297   2.544  0.0634 -1.0737  0.6845
  147MOL0     C19301   4.366   7.184   2.642  0.4183  0.3317 -0.0498
  147MOL0     O19302   4.246   7.140   2.661  0.0087 -0.1253 -0.0292
  147MOL0     C19303   4.218   7.047   2.757 -1.3577  0.3544 -0.4778
  147MOL0     C19304   4.113   7.060   2.845  0.1708 -0.1884  0.7319
  147MOL0     C19305   4.072   6.953   2.927  0.6617  0.4204  0.1923
  147MOL0     C19306   4.139   6.830   2.922  0.7094 -0.7958 -0.2039
  147MOL0     O19307   4.091   6.712   2.985  0.3060 -0.5988 -0.4129
  147MOL0     C19308   3.947   6.675   2.962  0.2389 -0.5057 -0.1513
  147MOL0     C19309   3.916   6.541   3.034 -0.1714 -0.4855  0.6085
  147MOL0     C19310   3.857   6.435   2.940 -0.1772  0.0660  0.4312
  147MOL0     C19311   3.802   6.317   3.020  0.6389  0.8953 -0.5020
  147MOL0     C19312   3.793   6.181   2.945 -0.4301  0.2109 -1.0000
  147MOL0     C19313   3.929   6.096   2.922 -0.6151 -0.2305 -0.4809
  147MOL0     C19314   3.906   5.977   2.835  0.7640  0.5144  0.3202
  147MOL0     C19315   3.769   5.902   2.864  0.8787  0.6450  0.7278
  147MOL0    Cl19316   3.785   5.830   3.026 -0.3576  0.1896 -0.2988
  147MOL0     C19317   4.251   6.819   2.846  0.4648 -0.0741  1.1257
  147MOL0     C19318   4.294   6.933   2.776  0.3575 -0.6477  0.4802
  147MOL0     O19319   4.463   7.159   2.710  0.9026 -0.1944  0.2403
  147MOL0     C19320   4.263   7.362   2.479  0.0173 -1.0060 -0.2688
  147MOL0     C19321   4.269   7.464   2.386  0.7771  0.0613 -0.3668
  147MOL0     N19322   4.147   7.684   1.665 -0.1027  0.1581  0.4858
  147MOL0     N19323   4.201   7.592   1.586 -0.3153 -0.8845  0.5686
  147MOL0     C19324   4.893   7.825   1.107 -0.3762  0.0875  0.7712
  147MOL0     C19325   4.847   7.960   1.085 -0.1473  0.5848 -0.1870
  147MOL0     C19326   4.832   8.425   1.197  0.3760 -1.2995 -0.0226
  147MOL0     C19327   4.850   8.528   1.299 -0.0286 -0.1298  0.0845
  147MOL0     C19328   4.814   8.659   1.273  0.1480 -0.2562 -0.0399
  147MOL0     C19329   4.755   8.693   1.149 -0.0892  0.4684 -0.4376
  147MOL0     O19330   4.729   8.824   1.120 -0.1807 -0.4514  0.3995
  147MOL0     C19331   4.627   8.883   1.205  0.3265 -0.2141 -0.7318
  147MOL0     C19332   4.489   8.900   1.139 -0.2991 -0.2448  0.5580
  147MOL0     C19333   4.402   8.770   1.129 -0.6193 -0.3503  1.5928
  147MOL0     C19334   4.346   8.713   1.265  0.1354 -0.0983 -0.1570
  147MOL0     C19335   4.230   8.795   1.294  0.2367 -0.5204  0.0575
  147MOL0     C19336   4.119   8.843   1.324  0.0533 -0.4433  0.8608
  147MOL0     C19337   4.739   8.603   1.049 -0.1703  0.0789  0.2605
  147MOL0     C19338   4.762   8.467   1.077 -1.0327  0.5348 -0.4390
  147MOL0     H19339   5.093   8.147   1.233 -3.5392  2.5594 -1.0796
  147MOL0     H19340   5.175   7.901   1.298 -1.1825 -1.5515  0.8885
  147MOL0     H19341   5.029   7.472   1.236 -0.9730 -1.2026 -3.5413
  147MOL0     H19342   4.916   7.548   1.136  1.2934 -0.7657 -0.1272
  147MOL0     H19343   4.804   7.636   1.355 -0.8894 -0.6474 -0.9932
  147MOL0     H19344   4.937   7.564   1.445 -2.4387  3.0216  0.8042
  147MOL0     H19345   4.877   7.344   1.369  1.5157  0.7639 -1.9509
  147MOL0     H19346   4.765   7.403   1.249  0.7351 -1.4783  0.5376
  147MOL0     H19347   4.752   7.421   1.556 -3.4085  2.0420  1.7505
  147MOL0     H19348   4.622   7.497   1.459  0.4401  1.2801  0.7334
  147MOL0     H19349   4.698   7.205   1.465  2.2869  2.3555  1.3702
  147MOL0     H19350   4.542   7.274   1.394 -0.1385  2.4808 -1.0694
  147MOL0     H19351   4.623   7.266   1.682 -1.4811  1.1790  2.2761
  147MOL0     H19352   4.494   7.170   1.609  0.1030 -0.6785  0.8612
  147MOL0     H19353   4.425   7.357   1.767 -3.7927  2.8173  1.3569
  147MOL0     H19354   4.473   7.481   1.645  0.0713 -0.3835  0.4029
  147MOL0     H19355   4.267   7.265   1.595 -1.7074  0.3623  0.1198
  147MOL0     H19356   4.314   7.389   1.481 -0.0876  0.1407  0.2083
  147MOL0     H19357   4.218   7.418   1.859  4.2002 -1.2117 -1.6758
  147MOL0     H19358   3.996   7.595   1.938  1.4144 -1.7458  2.4337
  147MOL0     H19359   4.002   7.751   1.869 -0.6398 -0.0940  0.0277
  147MOL0     H19360   4.076   7.771   2.081 -1.4193 -0.6127 -0.8898
  147MOL0     H19361   4.227   7.809   1.977 -0.2389  1.8362  2.7397
  147MOL0     H19362   4.177   7.539   2.124 -0.6376 -1.2835 -0.2916
  147MOL0     H19363   4.328   7.599   2.042  1.2486  0.9783  1.6114
  147MOL0     H19364   4.228   7.724   2.294  1.1686 -1.3592  1.3327
  147MOL0     H19365   4.349   7.795   2.182 -1.2027  0.4363 -1.7302
  147MOL0     H19366   4.594   7.533   2.423 -0.2702  1.4893  0.2991
  147MOL0     H19367   4.586   7.333   2.566  0.0592  1.6746  1.3216
  147MOL0     H19368   4.047   7.145   2.831 -0.8869 -1.4794 -3.3667
  147MOL0     H19369   3.977   6.957   2.979  0.4848 -3.8828  0.5463
  147MOL0     H19370   3.947   6.666   2.853  0.4849  1.3499 -0.3317
  147MOL0     H19371   3.877   6.757   2.980  1.1108 -0.0887  1.5172
  147MOL0     H19372   3.827   6.557   3.095 -1.2822 -1.2597 -0.7451
  147MOL0     H19373   3.994   6.505   3.103 -2.9784  0.5879  4.7282
  147MOL0     H19374   3.934   6.406   2.868  0.1356  1.9737 -0.0591
  147MOL0     H19375   3.776   6.486   2.886  1.6737  3.2229  0.3918
  147MOL0     H19376   3.864   6.293   3.106  0.1622 -2.4145 -0.9494
  147MOL0     H19377   3.700   6.339   3.055  1.2236 -1.2467  3.0181
  147MOL0     H19378   3.761   6.194   2.841 -1.0160  0.8523 -0.7504
  147MOL0     H19379   3.718   6.121   2.997  1.4948 -2.5029 -1.1435
  147MOL0     H19380   3.962   6.064   3.022  2.1256 -0.7090 -1.4463
  147MOL0     H19381   4.009   6.161   2.885 -1.4020  2.3998  2.0264
  147MOL0     H19382   3.901   5.992   2.726 -0.6604 -3.0569 -0.2280
  147MOL0     H19383   3.987   5.906   2.848  1.1639  0.7249 -0.9037
  147MOL0     H19384   3.772   5.820   2.791  3.7762  0.5098  0.8646
  147MOL0     H19385   3.687   5.969   2.839 -0.4999 -0.8714  0.9931
  147MOL0     H19386   4.306   6.727   2.866  1.0394  0.5380  2.4627
  147MOL0     H19387   4.390   6.929   2.725 -0.1032  2.2626 -0.8036
  147MOL0     H19388   4.159   7.331   2.490 -1.1210  0.9673 -3.8235
  147MOL0     H19389   4.177   7.496   2.340 -1.7145 -0.3172  3.7910
  147MOL0     H19390   4.838   7.736   1.077  3.3438 -2.3115  0.3843
  147MOL0     H19391   4.753   7.977   1.032  1.1527  1.4585 -2.3317
  147MOL0     H19392   4.901   8.511   1.393  1.3979  2.8885 -0.0047
  147MOL0     H19393   4.835   8.742   1.339 -0.4969  2.4458 -2.9593
  147MOL0     H19394   4.674   8.981   1.219  3.1149 -1.4143 -1.0129
  147MOL0     H19395   4.617   8.843   1.306 -3.3785  3.3981  0.6039
  147MOL0     H19396   4.424   8.972   1.190 -1.0185  0.1708 -0.8964
  147MOL0     H19397   4.504   8.939   1.038  0.4122 -0.8568  0.4177
  147MOL0     H19398   4.458   8.690   1.081  0.4268  1.2911 -0.0727
  147MOL0     H19399   4.312   8.796   1.072 -0.5887 -1.6342  0.9380
  147MOL0     H19400   4.302   8.613   1.257  0.1319 -0.7712  5.0736
  147MOL0     H19401   4.425   8.709   1.340 -1.4263  0.0025  1.5804
  147MOL0     H19402   4.028   8.891   1.356 -0.3754 -0.3127 -0.4800
  147MOL0     H19403   4.702   8.633   0.952 -1.7515  0.0187  0.8086
  147MOL0     H19404   4.753   8.382   1.011  4.3197 -1.5470  0.9407
  148MOL0     O19405  10.860   4.958   0.584 -0.2147 -1.0838  0.0495
  148MOL0     C19406  10.899   5.072   0.547 -0.7262 -0.4823 -0.1129
  148MOL0     O19407  11.028   5.111   0.536  0.0010 -0.4386  0.1246
  148MOL0     C19408  11.117   5.013   0.556  0.3903 -0.0223 -1.3366
  148MOL0     C19409  11.204   4.985   0.451  0.2141  0.3633  0.0820
  148MOL0     C19410  11.309   4.895   0.477  0.0177 -0.3953 -0.4608
  148MOL0     C19411  11.340   4.845   0.606  0.0211 -0.3606  0.2829
  148MOL0     O19412  11.440   4.748   0.631  0.5848  0.7086  0.1616
  148MOL0     C19413  11.556   4.746   0.542 -0.0508  0.5866  0.4284
  148MOL0     C19414  11.633   4.879   0.565 -0.2541  0.3572  0.4790
  148MOL0     C19415  11.774   4.854   0.515 -1.0084 -0.4925 -0.2385
  148MOL0     C19416  11.891   4.855   0.608  0.9701 -0.8293  0.3733
  148MOL0     C19417  12.026   4.836   0.547  0.0623 -0.5088  0.2199
  148MOL0     C19418  12.129   4.813   0.659  0.3302  0.5237 -0.1122
  148MOL0     C19419  12.272   4.807   0.590  0.5761  0.2658 -0.4857
  148MOL0     C19420  12.307   4.958   0.568  0.2742  0.7944  0.0342
  148MOL0     N19421  12.418   4.982   0.479 -0.6146 -0.0216  0.4684
  148MOL0     C19422  12.536   4.901   0.471  0.5753  0.0574 -0.4551
  148MOL0     C19423  12.629   4.982   0.410 -1.2330 -0.0209 -0.1287
  148MOL0     C19424  12.781   4.974   0.391  0.0688  1.0465  0.9765
  148MOL0     C19425  12.851   5.056   0.499 -0.2871 -1.0111  0.2273
  148MOL0     C19426  13.001   5.082   0.467  0.0616  1.1491  0.4119
  148MOL0     C19427  13.074   4.940   0.504 -0.5540  0.7508  0.3547
  148MOL0     O19428  13.208   4.960   0.539 -0.3216 -0.2051  0.0643
  148MOL0     C19429  13.305   4.867   0.524  0.0627 -0.1816  0.2140
  148MOL0     C19430  13.292   4.731   0.548 -0.5682  0.4528 -0.6871
  148MOL0     C19431  13.396   4.638   0.524 -0.4619  0.3069  0.2839
  148MOL0     C19432  13.526   4.686   0.480  0.3094 -0.0842  0.4723
  148MOL0     C19433  13.640   4.602   0.462  0.3734  0.2115 -0.5993
  148MOL0     O19434  13.630   4.478   0.501  0.6121 -0.2106  0.1861
  148MOL0     C19435  13.732   4.389   0.512 -0.4856 -0.1438  0.0960
  148MOL0     C19436  13.760   4.326   0.635 -0.0074  0.1998  0.0835
  148MOL0     C19437  13.880   4.257   0.644 -1.1041 -0.6442  0.1398
  148MOL0     C19438  13.959   4.220   0.537  0.8602  0.8286 -0.1128
  148MOL0     O19439  14.078   4.158   0.561  0.0578 -0.0632 -0.1621
  148MOL0     C19440  14.090   4.019   0.545 -0.5608  0.0704  0.6614
  148MOL0     C19441  14.041   3.944   0.673  0.3742 -0.0071 -0.0208
  148MOL0     C19442  14.105   3.997   0.803 -0.3901  0.0688  0.3908
  148MOL0     C19443  14.074   3.898   0.912 -0.0102  0.5745  0.0279
  148MOL0     C19444  14.117   3.946   1.047 -0.7191  0.3401 -0.8668
  148MOL0     C19445  14.070   3.838   1.154  0.2436  0.2292 -0.1697
  148MOL0     C19446  14.080   3.890   1.303  0.3237 -0.2102 -0.3934
  148MOL0     C19447  14.218   3.861   1.364  0.4817 -0.3554 -0.2004
  148MOL0    Cl19448  14.253   3.680   1.358 -0.2020 -0.1579 -0.0505
  148MOL0     C19449  13.916   4.254   0.410 -0.1178 -1.0361 -1.1156
  148MOL0     C19450  13.815   4.357   0.398  0.5428 -0.5386 -0.8098
  148MOL0     O19451  13.754   4.657   0.445  0.0328 -0.1919 -0.8391
  148MOL0     C19452  13.537   4.826   0.481 -0.9758 -0.7748  0.7020
  148MOL0     C19453  13.435   4.912   0.511  0.0454 -0.8609 -0.1378
  148MOL0     N19454  12.566   5.095   0.367  0.5014 -0.1187 -0.0058
  148MOL0     N19455  12.447   5.100   0.428  1.2060  0.5723  0.3988
  148MOL0     C19456  11.245   4.875   0.709  0.2175  0.1076  0.2290
  148MOL0     C19457  11.134   4.942   0.673  0.3971  0.0341 -0.0789
  148MOL0     C19458  10.791   5.171   0.505 -0.0945  0.5242 -0.1345
  148MOL0     C19459  10.826   5.298   0.450 -0.7727  0.0812  0.2486
  148MOL0     C19460  10.723   5.380   0.412 -0.4973 -0.6492  0.2504
  148MOL0     C19461  10.584   5.355   0.424  0.2672  0.4232 -0.5755
  148MOL0     O19462  10.495   5.447   0.372 -0.0127 -0.0138  0.0534
  148MOL0     C19463  10.361   5.413   0.339 -1.4447  0.3239 -0.0017
  148MOL0     C19464  10.300   5.549   0.312  0.4143  0.6195 -1.1721
  148MOL0     C19465  10.229   5.628   0.432 -0.0223  0.2231  0.1579
  148MOL0     C19466  10.329   5.708   0.513  0.4903  0.3075 -0.7458
  148MOL0     C19467  10.255   5.798   0.605 -0.6448  0.3060  0.4685
  148MOL0     C19468  10.195   5.862   0.684 -0.7770 -0.6430  0.4966
  148MOL0     C19469  10.551   5.231   0.481 -0.1283 -0.1029  0.7417
  148MOL0     C19470  10.657   5.142   0.528  0.3325  0.3377 -0.4094
  148MOL0     H19471  11.189   5.019   0.349  0.7429 -0.8173 -0.4109
  148MOL0     H19472  11.371   4.867   0.391 -0.1607 -0.4255 -0.5799
  148MOL0     H19473  11.530   4.721   0.438 -0.3593 -1.1074  0.8786
  148MOL0     H19474  11.617   4.663   0.579 -2.7584 -1.2252  1.1927
  148MOL0     H19475  11.626   4.903   0.671 -1.5986 -2.7987  1.2376
  148MOL0     H19476  11.584   4.950   0.497  0.0544  2.2431  2.1634
  148MOL0     H19477  11.796   4.941   0.451  0.9553  0.3202  1.4258
  148MOL0     H19478  11.774   4.760   0.459 -1.4972 -0.1987 -0.7431
  148MOL0     H19479  11.894   4.950   0.662 -4.2002  0.6176 -1.2295
  148MOL0     H19480  11.866   4.772   0.675 -2.4655 -0.8363 -0.7361
  148MOL0     H19481  12.050   4.930   0.498 -1.6302  0.1958  0.6787
  148MOL0     H19482  12.040   4.763   0.466  0.9392  2.2453 -2.2948
  148MOL0     H19483  12.107   4.718   0.709 -2.7549  0.0492 -2.0468
  148MOL0     H19484  12.129   4.897   0.729 -0.8535  0.0326  0.5175
  148MOL0     H19485  12.351   4.754   0.643  1.1805  0.3469 -1.2958
  148MOL0     H19486  12.264   4.758   0.492  4.3448 -1.2501 -0.2121
  148MOL0     H19487  12.332   4.998   0.667 -0.8970  0.4095  0.5038
  148MOL0     H19488  12.223   5.009   0.520 -2.3806 -1.5824  1.8522
  148MOL0     H19489  12.540   4.794   0.488 -1.8232  0.0616  0.5099
  148MOL0     H19490  12.815   5.027   0.301  0.1696  2.6799  1.9397
  148MOL0     H19491  12.813   4.870   0.404  1.8929  1.4729  0.2431
  148MOL0     H19492  12.833   5.014   0.598  0.8641  0.7125  1.2030
  148MOL0     H19493  12.815   5.159   0.495 -0.9550 -1.2598 -1.3584
  148MOL0     H19494  13.010   5.121   0.365 -1.3273  1.1893  0.2908
  148MOL0     H19495  13.052   5.150   0.535 -0.3360  1.6624  0.1993
  148MOL0     H19496  13.076   4.877   0.415  0.1374 -0.1914  1.0167
  148MOL0     H19497  13.026   4.886   0.587 -1.0313 -0.5411 -0.7375
  148MOL0     H19498  13.197   4.681   0.566 -0.0043 -0.0333  1.2366
  148MOL0     H19499  13.372   4.533   0.517  2.1051 -0.3301 -0.1865
  148MOL0     H19500  13.705   4.357   0.724 -0.4981 -0.9032  0.1808
  148MOL0     H19501  13.923   4.227   0.739 -0.2032 -0.1471 -0.0939
  148MOL0     H19502  14.196   3.998   0.526 -0.2885  1.3747  0.6585
  148MOL0     H19503  14.045   3.982   0.452  1.3520  0.2162 -0.3773
  148MOL0     H19504  14.034   3.836   0.663  0.4780  0.0535 -0.7938
  148MOL0     H19505  13.934   3.969   0.670  0.4183  0.3736  1.0339
  148MOL0     H19506  14.049   4.089   0.822 -1.4064 -0.5139  0.2467
  148MOL0     H19507  14.211   4.020   0.787 -0.3363 -0.5716 -0.2093
  148MOL0     H19508  13.967   3.878   0.918  0.0210  0.5978  0.7960
  148MOL0     H19509  14.119   3.802   0.884 -0.0093  1.2976 -2.7507
  148MOL0     H19510  14.078   4.045   1.073  0.9018  0.5017  1.1989
  148MOL0     H19511  14.226   3.956   1.036 -0.4385 -0.0201  1.1932
  148MOL0     H19512  14.137   3.754   1.134  3.6670  2.4762  0.9160
  148MOL0     H19513  13.968   3.804   1.134  0.6179 -0.2239 -1.4036
  148MOL0     H19514  14.068   3.999   1.301 -1.7987 -0.3876  0.4190
  148MOL0     H19515  14.000   3.849   1.365 -1.6140  1.8959 -1.3570
  148MOL0     H19516  14.211   3.886   1.470  3.1765  0.2329 -0.0926
  148MOL0     H19517  14.301   3.915   1.318 -0.2989  3.0981  2.0789
  148MOL0     H19518  13.955   4.231   0.312 -2.0901 -0.9458 -1.9801
  148MOL0     H19519  13.800   4.398   0.298  1.0562 -1.8152 -1.4405
  148MOL0     H19520  13.636   4.867   0.461 -0.1405 -3.6913 -1.9365
  148MOL0     H19521  13.439   5.020   0.521  3.9577 -0.9731  1.0768
  148MOL0     H19522  11.241   4.842   0.812  0.3621 -0.6037  0.0126
  148MOL0     H19523  11.051   4.941   0.743 -0.0615  0.1264 -0.6038
  148MOL0     H19524  10.927   5.337   0.439 -0.7351  0.2402  1.1196
  148MOL0     H19525  10.752   5.475   0.366 -2.2777  0.1185  0.6202
  148MOL0     H19526  10.306   5.355   0.413  0.0688  0.7882  1.5330
  148MOL0     H19527  10.369   5.344   0.255  2.4791  0.1953  0.3173
  148MOL0     H19528  10.377   5.618   0.275  2.7291 -0.5370  1.1707
  148MOL0     H19529  10.223   5.523   0.239 -0.5741  0.3125 -0.0536
  148MOL0     H19530  10.173   5.563   0.499 -0.9181  1.3691  0.5532
  148MOL0     H19531  10.156   5.691   0.381  1.7100  0.8744 -1.6512
  148MOL0     H19532  10.391   5.639   0.571 -1.4057  0.3855  1.5193
  148MOL0     H19533  10.377   5.775   0.442  1.2535  0.9627  0.3764
  148MOL0     H19534  10.142   5.922   0.756  1.2557  0.7576  0.9278
  148MOL0     H19535  10.447   5.201   0.491 -0.9089  1.0385 -2.6863
  148MOL0     H19536  10.630   5.047   0.573  0.4306  0.7687  0.5920
  149MOL0     O19537   0.210  10.343   0.610 -0.2521 -0.1322  0.3370
  149MOL0     C19538   0.095  10.397   0.631 -0.4134  0.2618  0.1657
  149MOL0     O19539   0.075  10.516   0.686 -0.0320 -0.0395  1.5748
  149MOL0     C19540   0.187  10.595   0.714 -0.5563 -0.0253  0.1062
  149MOL0     C19541   0.276  10.538   0.811  1.6108  0.7955  0.7658
  149MOL0     C19542   0.389  10.610   0.845 -1.2182  0.1481  1.2803
  149MOL0     C19543   0.418  10.736   0.795 -0.7853  0.0079  0.6759
  149MOL0     O19544   0.543  10.797   0.805 -0.2592  0.2300  0.1378
  149MOL0     C19545   0.566  10.864   0.932  0.1854 -0.3143  0.8182
  149MOL0     C19546   0.500  11.001   0.944  0.1826 -0.0214  0.7773
  149MOL0     C19547   0.581  11.104   0.862 -0.2605 -0.9421 -0.1251
  149MOL0     C19548   0.711  11.141   0.939 -0.5364 -0.8681  0.5965
  149MOL0     C19549   0.750  11.297   0.929  0.2019 -0.4148  0.4314
  149MOL0     C19550   0.889  11.333   0.945 -0.3499 -0.1279 -0.8217
  149MOL0     C19551   0.950  11.294   1.088 -0.6076  0.4091 -0.6845
  149MOL0     C19552   1.096  11.342   1.118  0.9339 -0.4645  0.4891
  149MOL0     N19553   1.200  11.273   1.035  0.6184 -0.2775  1.1886
  149MOL0     C19554   1.242  11.147   1.053 -0.6684 -0.2081 -0.0853
  149MOL0     C19555   1.280  11.114   0.927 -0.2431  0.0404 -0.6678
  149MOL0     C19556   1.326  10.975   0.896  0.5586 -0.6642 -0.3453
  149MOL0     C19557   1.430  10.914   0.993  0.1691  0.3655  0.5947
  149MOL0     C19558   1.563  10.993   0.987 -0.7554  0.2626 -0.0172
  149MOL0     C19559   1.677  10.930   1.059  0.0192 -1.0349  0.0667
  149MOL0     O19560   1.798  11.010   1.025 -0.0755 -0.3125  0.1787
  149MOL0     C19561   1.922  10.969   1.070 -0.6677  0.1989 -1.3083
  149MOL0     C19562   2.034  11.042   1.029  0.6710 -0.5624 -0.3747
  149MOL0     C19563   2.158  10.990   1.046 -0.8306  0.6956 -0.0799
  149MOL0     C19564   2.184  10.881   1.131  0.2311 -0.7258  0.1964
  149MOL0     C19565   2.319  10.839   1.161  0.6311 -0.8375  0.9591
  149MOL0     O19566   2.332  10.754   1.267  0.5322  0.5763 -0.2697
  149MOL0     C19567   2.447  10.753   1.338  0.6272 -0.4656 -0.1836
  149MOL0     C19568   2.544  10.862   1.360  0.4633 -0.4405  0.1738
  149MOL0     C19569   2.657  10.855   1.451  0.1482 -0.7479 -0.3057
  149MOL0     C19570   2.671  10.737   1.508  0.5601  0.8902 -1.1943
  149MOL0     O19571   2.775  10.722   1.589 -1.3284 -0.0245  0.0081
  149MOL0     C19572   2.805  10.840   1.667 -1.1357 -0.6062 -0.1120
  149MOL0     C19573   2.863  10.785   1.792 -0.3095 -0.6285 -0.5469
  149MOL0     C19574   2.929  10.889   1.885  0.3533  0.1088  0.0940
  149MOL0     C19575   2.975  10.826   2.019  0.0059 -1.0955  0.1786
  149MOL0     C19576   3.086  10.914   2.078  0.3691  0.9658  0.5778
  149MOL0     C19577   3.086  10.910   2.235 -0.2956  0.0213  0.5376
  149MOL0     C19578   3.185  11.008   2.291  0.1064  0.2687  0.5700
  149MOL0     C19579   3.171  11.022   2.447  0.1343  0.2141  0.1105
  149MOL0    Cl19580   3.286  11.143   2.525 -0.4414  0.0350 -0.2602
  149MOL0     C19581   2.573  10.638   1.497  0.0785  0.6700 -0.3176
  149MOL0     C19582   2.460  10.644   1.412 -0.0185  0.5877  0.0841
  149MOL0     O19583   2.408  10.896   1.100 -0.7622 -0.0890  0.0575
  149MOL0     C19584   2.069  10.807   1.176  0.2279 -0.1661 -0.0895
  149MOL0     C19585   1.942  10.855   1.148 -0.2117 -0.7051  0.1731
  149MOL0     N19586   1.275  11.217   0.838  0.3089  0.0596 -0.4242
  149MOL0     N19587   1.225  11.317   0.905  0.2734  0.2579  0.0394
  149MOL0     C19588   0.333  10.787   0.694  0.1472  0.2394  1.3129
  149MOL0     C19589   0.211  10.725   0.664  0.5739 -0.0473 -0.0098
  149MOL0     C19590  -0.022  10.318   0.607 -0.2103  0.9121 -0.1131
  149MOL0     C19591  -0.021  10.174   0.575 -0.0980 -0.9549  0.5690
  149MOL0     C19592  -0.135  10.106   0.553 -0.0235 -0.7762 -1.1667
  149MOL0     C19593  -0.258  10.156   0.584  0.7962 -0.1942  0.3567
  149MOL0     O19594  -0.370  10.089   0.586  0.4939  0.3759  0.6075
  149MOL0     C19595  -0.445  10.098   0.457 -0.0062 -1.0828  0.2852
  149MOL0     C19596  -0.531   9.979   0.427 -0.0422  1.5148  0.3583
  149MOL0     C19597  -0.661   9.965   0.511 -0.0487  0.1165  1.4310
  149MOL0     C19598  -0.710   9.820   0.517  0.0798 -0.8447  0.0722
  149MOL0     C19599  -0.786   9.791   0.389 -0.2776  0.3478  0.0837
  149MOL0     C19600  -0.834   9.780   0.275  0.9328  0.9744 -0.2328
  149MOL0     C19601  -0.269  10.291   0.625 -0.9361 -0.4344 -0.1262
  149MOL0     C19602  -0.152  10.372   0.631 -0.1145 -0.9648 -0.1386
  149MOL0     H19603   0.253  10.443   0.860  1.1428 -0.2375 -1.3476
  149MOL0     H19604   0.470  10.566   0.901  0.7745  2.9130  0.7711
  149MOL0     H19605   0.675  10.867   0.944  0.3009 -0.0921 -0.1805
  149MOL0     H19606   0.528  10.798   1.011 -3.5694  1.2832  0.5756
  149MOL0     H19607   0.496  11.027   1.050  2.7729  2.2487  0.4368
  149MOL0     H19608   0.400  10.988   0.901 -0.5907 -2.6799  3.1325
  149MOL0     H19609   0.522  11.193   0.838 -0.0398 -1.0698 -1.1679
  149MOL0     H19610   0.598  11.061   0.763 -3.4847 -2.4111 -0.1636
  149MOL0     H19611   0.691  11.131   1.046 -2.3538  2.2822  0.6787
  149MOL0     H19612   0.797  11.082   0.906  0.0488 -0.6953  1.7632
  149MOL0     H19613   0.697  11.341   1.014  1.6258  1.6584  0.3089
  149MOL0     H19614   0.709  11.347   0.841  0.1414 -0.6879  0.3007
  149MOL0     H19615   0.891  11.442   0.945  0.8902 -0.1335 -0.4435
  149MOL0     H19616   0.952  11.310   0.859  0.9330  1.0936 -0.2476
  149MOL0     H19617   0.888  11.348   1.160  0.7330 -1.9738  2.4541
  149MOL0     H19618   0.952  11.185   1.082  3.8908  0.3336 -1.8337
  149MOL0     H19619   1.107  11.313   1.223  2.8870  0.0550  0.4740
  149MOL0     H19620   1.104  11.450   1.134  3.1904 -0.9522  3.8462
  149MOL0     H19621   1.245  11.089   1.145  3.5063 -0.3649 -0.1304
  149MOL0     H19622   1.383  11.003   0.806  1.3173  0.7665  0.5376
  149MOL0     H19623   1.240  10.912   0.873 -0.7693  1.9826 -3.3876
  149MOL0     H19624   1.449  10.817   0.944  5.1184  2.7267 -3.0485
  149MOL0     H19625   1.392  10.917   1.095 -0.3969  1.4530  0.3682
  149MOL0     H19626   1.596  11.016   0.885  0.5549 -3.3815 -0.5627
  149MOL0     H19627   1.544  11.083   1.046  0.6916 -1.6330  3.6987
  149MOL0     H19628   1.678  10.822   1.045 -1.9618 -0.9900 -0.6849
  149MOL0     H19629   1.657  10.931   1.167  1.2981  0.3728  0.3259
  149MOL0     H19630   2.027  11.130   0.967  0.5052 -0.2434  0.0954
  149MOL0     H19631   2.241  11.046   1.005  0.5670 -1.6439 -0.6148
  149MOL0     H19632   2.538  10.954   1.302  1.8105 -1.0915 -1.0742
  149MOL0     H19633   2.733  10.933   1.450  1.1758 -1.6665 -3.0644
  149MOL0     H19634   2.717  10.902   1.683  0.5356  1.9050 -0.1539
  149MOL0     H19635   2.876  10.906   1.616 -0.1215  0.4675  2.5314
  149MOL0     H19636   2.939  10.710   1.770  0.6113  0.7516 -2.2962
  149MOL0     H19637   2.786  10.733   1.851 -0.5583 -1.1986 -1.3633
  149MOL0     H19638   2.867  10.979   1.893  1.1104  0.5324  1.4541
  149MOL0     H19639   3.022  10.908   1.830  0.8239  0.5779  1.0381
  149MOL0     H19640   2.894  10.812   2.092  0.6324  2.7950  1.8796
  149MOL0     H19641   3.027  10.733   1.996  0.6757 -0.3293 -1.5560
  149MOL0     H19642   3.059  11.017   2.052 -1.6452  0.5197  0.7369
  149MOL0     H19643   3.187  10.899   2.037 -0.0576  0.3106 -0.2521
  149MOL0     H19644   3.103  10.808   2.272  2.3832  0.4736  0.7931
  149MOL0     H19645   2.989  10.942   2.273 -0.5503  0.6506 -0.5993
  149MOL0     H19646   3.280  10.960   2.270 -0.1970 -1.2592  2.3884
  149MOL0     H19647   3.177  11.105   2.241  2.0542 -1.3257 -3.2111
  149MOL0     H19648   3.188  10.933   2.510  0.3605  1.1252  1.3865
  149MOL0     H19649   3.074  11.060   2.479  0.5590  3.7811 -2.3000
  149MOL0     H19650   2.593  10.539   1.537 -0.6762  1.1139  1.2073
  149MOL0     H19651   2.393  10.559   1.399 -0.2063  0.9291 -1.5140
  149MOL0     H19652   2.086  10.709   1.220 -0.0616  0.5151  1.6162
  149MOL0     H19653   1.858  10.793   1.179 -0.4980 -0.8540 -0.8397
  149MOL0     H19654   0.366  10.882   0.652 -0.3743 -0.4109 -0.6605
  149MOL0     H19655   0.153  10.773   0.587  2.1105  2.6828  0.3947
  149MOL0     H19656   0.075  10.130   0.551  1.3750  0.7806  2.8154
  149MOL0     H19657  -0.120  10.002   0.523  2.1385  0.2408 -4.0671
  149MOL0     H19658  -0.375  10.118   0.375  1.4466  1.3994  2.0145
  149MOL0     H19659  -0.521  10.176   0.457 -1.1454 -2.1478  1.1839
  149MOL0     H19660  -0.560   9.990   0.322  0.6711 -0.4122 -0.0697
  149MOL0     H19661  -0.466   9.893   0.438  2.1045  3.0512  0.3237
  149MOL0     H19662  -0.741  10.029   0.474 -0.7696 -0.9251  1.1536
  149MOL0     H19663  -0.635   9.982   0.616  4.7063  0.9196  0.3409
  149MOL0     H19664  -0.627   9.750   0.531 -0.7958 -1.3461  3.9119
  149MOL0     H19665  -0.784   9.810   0.597  0.9182 -0.9167  0.8622
  149MOL0     H19666  -0.846   9.775   0.168  1.3662  2.0248 -0.3453
  149MOL0     H19667  -0.371  10.322   0.644 -1.3856 -2.8174  1.8180
  149MOL0     H19668  -0.160  10.478   0.654 -0.7259  0.3318 -5.1743
  150MOL0     O19669   2.831  10.636   8.504 -0.1553  0.1248  0.2714
  150MOL0     C19670   2.811  10.516   8.490 -0.0181 -0.2632  0.6442
  150MOL0     O19671   2.750  10.456   8.383 -0.1098 -0.0791 -0.1708
  150MOL0     C19672   2.680  10.531   8.302 -0.8549 -0.6796 -0.4654
  150MOL0     C19673   2.747  10.617   8.213 -0.4673 -0.3903  0.0113
  150MOL0     C19674   2.680  10.684   8.115  0.6945 -1.0482  0.4284
  150MOL0     C19675   2.544  10.676   8.104  0.1957  0.2641  0.3253
  150MOL0     O19676   2.494  10.767   8.011 -1.0434  0.7087  0.0551
  150MOL0     C19677   2.376  10.722   7.947 -0.1820  1.2407  0.0267
  150MOL0     C19678   2.337  10.847   7.872  1.0646 -0.3552  1.0476
  150MOL0     C19679   2.202  10.823   7.807  0.1761  0.1269 -0.1175
  150MOL0     C19680   2.199  10.922   7.690 -0.0897 -0.9247 -0.2661
  150MOL0     C19681   2.059  10.939   7.632 -0.9143  0.1161 -0.2587
  150MOL0     C19682   2.002  10.801   7.583  0.1671  0.1218  0.6099
  150MOL0     C19683   1.858  10.812   7.531 -1.0402  0.5386  0.6728
  150MOL0     C19684   1.758  10.784   7.635  0.0653  0.4838  0.4088
  150MOL0     N19685   1.762  10.883   7.737  0.1476  0.2990  0.0483
  150MOL0     C19686   1.771  10.849   7.863 -0.2583  0.3242 -0.5505
  150MOL0     C19687   1.732  10.969   7.920  0.2088  0.2861 -0.3794
  150MOL0     C19688   1.727  11.009   8.070 -0.6800 -0.0272  0.0018
  150MOL0     C19689   1.704  10.882   8.160 -0.7124  1.2122 -0.0584
  150MOL0     C19690   1.670  10.934   8.302  1.0956 -0.7947  0.4889
  150MOL0     C19691   1.676  10.824   8.400 -0.6513 -0.0691 -0.4317
  150MOL0     O19692   1.571  10.726   8.368  0.2641 -0.2520  0.9277
  150MOL0     C19693   1.480  10.700   8.472 -0.3240  0.3220  0.1708
  150MOL0     C19694   1.481  10.579   8.532  0.1666 -0.0772  0.1859
  150MOL0     C19695   1.377  10.551   8.618 -0.2151  0.5059 -0.1679
  150MOL0     C19696   1.262  10.625   8.639  1.4605 -0.6168  0.0794
  150MOL0     C19697   1.152  10.580   8.728 -0.8168  0.2512 -0.8024
  150MOL0     O19698   1.075  10.683   8.779  0.2595  0.0684 -0.5597
  150MOL0     C19699   0.947  10.643   8.823 -0.6363  0.6437  0.4629
  150MOL0     C19700   0.920  10.661   8.958  1.2966 -0.0610  0.5120
  150MOL0     C19701   0.798  10.629   9.021  0.2974  1.4182  0.0106
  150MOL0     C19702   0.683  10.587   8.941 -0.5668 -0.2062  1.1417
  150MOL0     O19703   0.561  10.566   8.990  0.6417 -0.7818  0.5138
  150MOL0     C19704   0.519  10.608   9.123 -0.7792  0.4185 -0.2367
  150MOL0     C19705   0.374  10.597   9.156  0.5599 -0.2814  0.1489
  150MOL0     C19706   0.326  10.717   9.237 -0.9075 -0.1326 -0.8366
  150MOL0     C19707   0.175  10.712   9.270 -0.4792  0.1814  0.1059
  150MOL0     C19708   0.101  10.764   9.143  0.3277 -0.0237  0.1040
  150MOL0     C19709   0.006  10.885   9.178 -0.0091 -0.7850  0.7874
  150MOL0     C19710   0.086  11.010   9.204 -0.4172 -0.6598 -0.4781
  150MOL0     C19711   0.012  11.139   9.201  1.2856 -0.1300 -0.4245
  150MOL0    Cl19712   0.101  11.254   9.290 -0.4369  0.7315 -0.1593
  150MOL0     C19713   0.704  10.588   8.797  1.0323 -0.8257  0.3529
  150MOL0     C19714   0.830  10.624   8.741 -0.3517 -0.1171  0.2203
  150MOL0     O19715   1.153  10.463   8.767 -1.0984 -0.5091  0.2372
  150MOL0     C19716   1.265  10.755   8.577 -0.1306  0.7925 -0.2549
  150MOL0     C19717   1.379  10.791   8.489 -0.0380  0.3195 -0.8076
  150MOL0     N19718   1.694  11.056   7.826  0.1874 -0.6341 -0.6456
  150MOL0     N19719   1.711  11.008   7.713 -0.2893 -0.9154 -0.4249
  150MOL0     C19720   2.472  10.597   8.196  0.2814 -0.2815  1.0082
  150MOL0     C19721   2.542  10.532   8.297 -0.3821  0.9374  0.0574
  150MOL0     C19722   2.867  10.429   8.593  0.0665  0.2855  0.4841
  150MOL0     C19723   2.916  10.477   8.718 -1.0314  0.2174 -0.1029
  150MOL0     C19724   2.961  10.377   8.816 -0.1002 -0.1020  0.7036
  150MOL0     C19725   2.959  10.238   8.792 -0.2111 -0.3486  0.6199
  150MOL0     O19726   3.019  10.135   8.863 -0.6207  0.2171  0.6911
  150MOL0     C19727   3.166  10.152   8.875  1.0517  0.3814 -0.1195
  150MOL0     C19728   3.237  10.029   8.933  1.0790  0.0263  0.0570
  150MOL0     C19729   3.370  10.063   9.003 -0.2198 -0.0971 -0.7264
  150MOL0     C19730   3.466  10.149   8.917  0.2322 -0.0226  1.0453
  150MOL0     C19731   3.519  10.069   8.800 -0.3163 -0.0400  0.1701
  150MOL0     C19732   3.542  10.003   8.696 -1.2469 -0.1950  0.5306
  150MOL0     C19733   2.885  10.200   8.673 -0.5818 -0.5792 -0.2523
  150MOL0     C19734   2.839  10.293   8.580  0.8397  0.1857 -0.0783
  150MOL0     H19735   2.851  10.630   8.240  0.4051 -1.3068 -2.5564
  150MOL0     H19736   2.735  10.753   8.052  2.7499  0.8250  3.9694
  150MOL0     H19737   2.293  10.705   8.017 -2.6559  3.6226 -2.0718
  150MOL0     H19738   2.394  10.633   7.886  3.4141  2.2869 -0.6591
  150MOL0     H19739   2.408  10.864   7.790 -1.6278  0.9580 -1.2051
  150MOL0     H19740   2.337  10.937   7.933  0.3560  1.4375 -1.4270
  150MOL0     H19741   2.118  10.833   7.876 -2.3354 -1.2163 -2.7580
  150MOL0     H19742   2.196  10.725   7.759  0.6753  0.5729 -1.1271
  150MOL0     H19743   2.232  11.017   7.735  0.6154 -1.0597 -0.4889
  150MOL0     H19744   2.262  10.888   7.608 -3.2630 -2.1843 -2.3742
  150MOL0     H19745   2.054  11.006   7.545 -2.0781  1.5341  0.8571
  150MOL0     H19746   2.000  10.970   7.719  2.8074 -2.5230  3.5394
  150MOL0     H19747   2.010  10.718   7.653  1.4649 -1.6025 -1.4510
  150MOL0     H19748   2.064  10.778   7.496 -1.5444  1.0817 -0.9501
  150MOL0     H19749   1.842  10.909   7.482  1.1868  0.7640  0.3034
  150MOL0     H19750   1.842  10.743   7.447 -1.5710 -0.0822  1.2723
  150MOL0     H19751   1.751  10.681   7.671  1.0312 -0.1210 -1.0767
  150MOL0     H19752   1.659  10.806   7.594 -0.3961  2.7273  2.4809
  150MOL0     H19753   1.814  10.759   7.905 -3.9731 -1.6669 -0.5755
  150MOL0     H19754   1.646  11.079   8.087 -0.9656  0.4642 -2.8336
  150MOL0     H19755   1.826  11.045   8.100  1.5002 -0.8567 -5.0413
  150MOL0     H19756   1.790  10.815   8.167 -1.8915 -0.2533  1.1398
  150MOL0     H19757   1.621  10.825   8.117 -0.4793  0.3069  0.6739
  150MOL0     H19758   1.741  11.012   8.330 -0.2443  0.9217 -0.7538
  150MOL0     H19759   1.576  10.990   8.308  1.4627  0.1966 -1.8939
  150MOL0     H19760   1.659  10.872   8.497  0.8425  0.7673 -0.5482
  150MOL0     H19761   1.769  10.766   8.398 -2.0411 -2.4118 -1.4346
  150MOL0     H19762   1.569  10.518   8.515  0.8569  1.2544 -1.3196
  150MOL0     H19763   1.385  10.459   8.675  0.3707  0.5891 -0.1074
  150MOL0     H19764   1.002  10.698   9.018  1.9205 -1.1987  0.3964
  150MOL0     H19765   0.786  10.620   9.128  3.2355 -1.9491  0.2484
  150MOL0     H19766   0.544  10.714   9.123 -1.5443  0.6471  2.1814
  150MOL0     H19767   0.584  10.565   9.200 -1.8856  0.9669  1.0490
  150MOL0     H19768   0.355  10.506   9.213  1.4901  0.8257  2.3270
  150MOL0     H19769   0.321  10.607   9.061 -0.1091  0.4048  0.5778
  150MOL0     H19770   0.364  10.811   9.196  2.9924 -1.3716 -0.5751
  150MOL0     H19771   0.370  10.704   9.336  0.0190  0.3495 -1.1678
  150MOL0     H19772   0.145  10.611   9.300 -0.5650  0.4399  0.9088
  150MOL0     H19773   0.159  10.770   9.361  2.2932 -1.0199  1.4768
  150MOL0     H19774   0.042  10.681   9.103  1.5229 -1.1483  0.6249
  150MOL0     H19775   0.161  10.811   9.065  0.4278  0.5255  0.5011
  150MOL0     H19776  -0.046  10.860   9.271 -1.3953 -5.5202 -0.9532
  150MOL0     H19777  -0.069  10.904   9.101  2.4032 -2.7328 -2.3196
  150MOL0     H19778   0.134  10.999   9.302 -0.1621  3.2434 -0.0060
  150MOL0     H19779   0.172  11.033   9.141  2.3899 -4.0175  1.7392
  150MOL0     H19780  -0.091  11.130   9.239  1.1364 -1.2855 -1.0470
  150MOL0     H19781  -0.009  11.158   9.095 -0.1557 -0.9850 -0.3246
  150MOL0     H19782   0.616  10.579   8.735 -0.0461  3.2233  1.0251
  150MOL0     H19783   0.830  10.624   8.633  2.1304 -0.4076  0.1472
  150MOL0     H19784   1.178  10.820   8.575 -0.5951  0.1729 -0.2723
  150MOL0     H19785   1.392  10.894   8.457 -0.1202  0.8259  0.6933
  150MOL0     H19786   2.363  10.595   8.197  0.2097  1.4334  0.9562
  150MOL0     H19787   2.491  10.465   8.366  0.8807 -0.9661 -0.7541
  150MOL0     H19788   2.921  10.581   8.748  1.7158  0.7084 -1.8193
  150MOL0     H19789   3.008  10.413   8.907 -0.4193  1.7475  0.1773
  150MOL0     H19790   3.173  10.238   8.942  1.7615  0.9310 -0.8735
  150MOL0     H19791   3.204  10.177   8.776  1.7992 -0.5358 -0.0759
  150MOL0     H19792   3.175   9.965   8.996  1.8690 -0.9076 -0.0851
  150MOL0     H19793   3.269   9.973   8.845  2.2394  1.5395 -0.5267
  150MOL0     H19794   3.418   9.967   9.024 -2.1797 -0.8516  0.6433
  150MOL0     H19795   3.358  10.113   9.099 -0.3845  0.3111 -0.9589
  150MOL0     H19796   3.425  10.244   8.883  2.3187  1.4638  2.4508
  150MOL0     H19797   3.546  10.181   8.984  0.2407  1.5212  0.3342
  150MOL0     H19798   3.558   9.955   8.601 -1.7500  2.7935 -1.1778
  150MOL0     H19799   2.877  10.096   8.646 -0.4990 -0.5266 -0.4798
  150MOL0     H19800   2.780  10.249   8.500  2.0284 -4.4071  1.2520
  151MOL0     O19801   4.990  10.704   5.768 -0.7636  0.4941  0.1134
  151MOL0     C19802   4.951  10.639   5.670 -0.8708  0.3460 -0.2976
  151MOL0     O19803   5.025  10.612   5.554 -0.0170  0.6304 -0.0513
  151MOL0     C19804   5.155  10.657   5.537 -0.1585 -0.2842 -0.0935
  151MOL0     C19805   5.198  10.693   5.410  0.0876 -0.1111  0.0152
  151MOL0     C19806   5.331  10.728   5.385  0.7287 -0.0295 -0.0218
  151MOL0     C19807   5.421  10.739   5.482 -0.4219 -0.5299 -0.0492
  151MOL0     O19808   5.552  10.776   5.460 -0.1093 -0.0729  0.1568
  151MOL0     C19809   5.568  10.912   5.421 -0.1574 -0.2193  1.5956
  151MOL0     C19810   5.707  10.931   5.354  0.8611  0.4432  0.4383
  151MOL0     C19811   5.717  11.062   5.273  0.4213  0.9245  1.0087
  151MOL0     C19812   5.866  11.082   5.235  0.1476  0.1168  0.7276
  151MOL0     C19813   5.881  11.219   5.188 -0.1828 -0.6150  0.0553
  151MOL0     C19814   6.025  11.257   5.149  0.1362 -0.6156  0.5537
  151MOL0     C19815   6.120  11.279   5.272 -1.1962  0.4894 -0.1153
  151MOL0     C19816   6.256  11.345   5.231  0.4986 -0.6257  0.7425
  151MOL0     N19817   6.316  11.432   5.335  0.6725 -0.4748 -0.2430
  151MOL0     C19818   6.324  11.567   5.326  0.6274 -0.3781  0.1190
  151MOL0     C19819   6.392  11.599   5.438  0.2244  1.2386  0.6888
  151MOL0     C19820   6.426  11.730   5.484  0.7143  0.1835  0.1769
  151MOL0     C19821   6.473  11.834   5.386 -0.5242  0.3023 -0.1828
  151MOL0     C19822   6.465  11.973   5.458  0.2384 -0.0110  0.5578
  151MOL0     C19823   6.508  12.083   5.360  0.4530  0.2123 -0.2121
  151MOL0     O19824   6.513  12.203   5.445 -0.3525  0.5705  0.3449
  151MOL0     C19825   6.449  12.310   5.392  1.1319  0.3064 -0.3281
  151MOL0     C19826   6.484  12.367   5.264 -0.5254  1.0323 -0.1751
  151MOL0     C19827   6.417  12.479   5.205 -0.2747  0.1024  0.3472
  151MOL0     C19828   6.314  12.536   5.278 -0.5566  0.7118 -1.0724
  151MOL0     C19829   6.248  12.658   5.234 -0.1686  0.4727 -0.7918
  151MOL0     O19830   6.296  12.711   5.119  0.0969 -0.3096  0.3535
  151MOL0     C19831   6.251  12.833   5.084  0.7554 -0.7620 -0.0340
  151MOL0     C19832   6.113  12.856   5.063  0.0651  0.5579 -0.6798
  151MOL0     C19833   6.069  12.974   4.998 -0.0774  0.4495 -0.1823
  151MOL0     C19834   6.160  13.064   4.962 -0.5908 -0.4561 -0.0507
  151MOL0     O19835   6.121  13.163   4.879  0.7359  0.8251 -0.7353
  151MOL0     C19836   6.133  13.297   4.937 -0.1174 -0.4120 -0.2795
  151MOL0     C19837   6.091  13.410   4.850  0.3139  0.7034 -0.0277
  151MOL0     C19838   6.155  13.408   4.706 -0.2553  0.5644 -0.2299
  151MOL0     C19839   6.119  13.518   4.607 -0.7223 -0.4331  0.6841
  151MOL0     C19840   5.995  13.483   4.523 -0.5782 -0.3088 -1.0578
  151MOL0     C19841   5.954  13.586   4.423 -0.5229 -1.0650  0.2052
  151MOL0     C19842   6.066  13.607   4.313  0.3330  0.5902  0.1196
  151MOL0     C19843   6.005  13.681   4.196  0.8848  0.4354  0.0642
  151MOL0    Cl19844   6.019  13.844   4.258  0.3718 -0.2832 -0.3814
  151MOL0     C19845   6.295  13.051   4.983  0.6802  0.2447 -1.0771
  151MOL0     C19846   6.340  12.940   5.055 -0.5367  0.6208 -1.3872
  151MOL0     O19847   6.162  12.714   5.302  0.4717  0.2739 -0.4858
  151MOL0     C19848   6.273  12.484   5.404 -0.1088 -0.8868 -0.0811
  151MOL0     C19849   6.339  12.371   5.458  0.4699 -0.6115  0.1804
  151MOL0     N19850   6.410  11.482   5.519  0.3251 -0.3943 -0.2459
  151MOL0     N19851   6.355  11.380   5.453  0.0981 -1.0455 -0.3782
  151MOL0     C19852   5.379  10.709   5.614 -0.9952 -0.3092 -0.2417
  151MOL0     C19853   5.251  10.674   5.638 -0.5071 -0.0078 -0.7925
  151MOL0     C19854   4.815  10.607   5.666  0.9549  0.0621  0.0917
  151MOL0     C19855   4.721  10.634   5.774 -0.7236  0.1270 -0.2726
  151MOL0     C19856   4.589  10.596   5.755 -0.3899 -0.2275 -0.4396
  151MOL0     C19857   4.544  10.517   5.644 -0.0288  0.0000  0.2086
  151MOL0     O19858   4.418  10.467   5.613 -0.2624 -0.2094 -0.7191
  151MOL0     C19859   4.325  10.471   5.730  0.4523  0.3356  0.3871
  151MOL0     C19860   4.183  10.415   5.692 -0.0264 -0.7141 -0.6084
  151MOL0     C19861   4.174  10.269   5.697 -0.8785  0.2083  0.0645
  151MOL0     C19862   4.041  10.200   5.691 -0.0838 -0.5128 -0.4583
  151MOL0     C19863   3.978  10.201   5.557  0.8244  0.4064 -1.0236
  151MOL0     C19864   3.899  10.200   5.461  0.5798  0.3619 -0.1499
  151MOL0     C19865   4.638  10.494   5.544 -0.8001  0.4555 -0.3464
  151MOL0     C19866   4.766  10.540   5.553 -0.6346 -0.1639 -0.3336
  151MOL0     H19867   5.137  10.691   5.320  1.7973  1.4890 -1.2575
  151MOL0     H19868   5.357  10.757   5.284 -0.5855  2.0422  0.1577
  151MOL0     H19869   5.563  10.985   5.502 -0.0063  0.7641  0.7410
  151MOL0     H19870   5.503  10.935   5.336  1.8099 -1.3637 -0.3277
  151MOL0     H19871   5.711  10.844   5.288  1.7860 -1.0265  2.3247
  151MOL0     H19872   5.789  10.927   5.427  0.3819 -2.0491  0.9059
  151MOL0     H19873   5.675  11.137   5.341  1.7805  1.0379  1.7758
  151MOL0     H19874   5.648  11.057   5.189  1.7294 -2.1329  0.0058
  151MOL0     H19875   5.931  11.046   5.316  1.4004 -1.0125 -0.6968
  151MOL0     H19876   5.902  11.014   5.157 -0.1418  0.0069  0.6884
  151MOL0     H19877   5.839  11.295   5.255 -2.9963  0.0270 -2.2511
  151MOL0     H19878   5.818  11.223   5.099  0.7339 -0.2004 -0.5934
  151MOL0     H19879   6.010  11.350   5.094  4.6491 -1.8903 -3.4857
  151MOL0     H19880   6.077  11.178   5.093  3.0124 -0.3615  2.6500
  151MOL0     H19881   6.074  11.339   5.352  0.8145 -0.9083  2.2450
  151MOL0     H19882   6.148  11.183   5.316  0.6673  0.8562 -0.4378
  151MOL0     H19883   6.241  11.411   5.145  1.4659 -0.9178  0.3362
  151MOL0     H19884   6.326  11.275   5.185 -1.1385  0.0356 -3.2170
  151MOL0     H19885   6.288  11.630   5.245  0.4756 -0.3453  0.2133
  151MOL0     H19886   6.494  11.709   5.566  0.2054  1.5477  0.9901
  151MOL0     H19887   6.330  11.770   5.518  0.3273  0.6642 -1.3716
  151MOL0     H19888   6.407  11.840   5.299 -2.7445 -4.7558  0.7888
  151MOL0     H19889   6.565  11.790   5.346 -1.4256 -1.6755 -0.2175
  151MOL0     H19890   6.366  12.008   5.487  2.3622  4.5570  3.6229
  151MOL0     H19891   6.528  11.974   5.548  0.4465  2.2871  0.4444
  151MOL0     H19892   6.439  12.096   5.277  1.8261  1.3166 -1.2385
  151MOL0     H19893   6.602  12.043   5.320  0.9237  2.3286 -1.3645
  151MOL0     H19894   6.564  12.318   5.209 -1.5962  0.6962 -1.4898
  151MOL0     H19895   6.450  12.509   5.106 -1.7849 -1.1284 -0.5643
  151MOL0     H19896   6.042  12.780   5.093  1.7528 -1.1807 -0.8807
  151MOL0     H19897   5.963  12.990   4.984 -0.2122 -2.0923 -3.0634
  151MOL0     H19898   6.235  13.329   4.963 -2.1990  5.5391  2.1267
  151MOL0     H19899   6.089  13.311   5.036 -0.4860  1.5417 -0.6749
  151MOL0     H19900   6.113  13.505   4.900 -1.2634  0.4217  1.2962
  151MOL0     H19901   5.982  13.409   4.838  0.2269  0.6895  0.6931
  151MOL0     H19902   6.148  13.312   4.655  2.9492 -1.4477  2.6760
  151MOL0     H19903   6.260  13.423   4.732 -0.4276 -0.0703  0.8895
  151MOL0     H19904   6.115  13.614   4.659  0.8600  1.0692 -1.7422
  151MOL0     H19905   6.206  13.520   4.541  1.2284 -2.4914  3.0357
  151MOL0     H19906   5.914  13.462   4.593 -0.9086  0.4380 -1.2064
  151MOL0     H19907   6.017  13.385   4.479  2.0360 -1.0466  1.5883
  151MOL0     H19908   5.931  13.681   4.473 -2.4441 -2.1747  1.5741
  151MOL0     H19909   5.863  13.541   4.382  0.2841 -2.1232 -0.4918
  151MOL0     H19910   6.142  13.668   4.363  3.4220 -2.8649  0.1423
  151MOL0     H19911   6.107  13.509   4.286 -0.3407  0.9294 -2.3412
  151MOL0     H19912   5.900  13.663   4.171  0.3578  3.3894 -0.2010
  151MOL0     H19913   6.058  13.668   4.101  1.2326 -0.9172  0.4238
  151MOL0     H19914   6.360  13.134   4.955  1.4287  0.0082 -0.0774
  151MOL0     H19915   6.445  12.935   5.081 -0.7652  0.8775 -0.3527
  151MOL0     H19916   6.188  12.521   5.460 -1.0561 -0.7728 -1.5164
  151MOL0     H19917   6.322  12.329   5.557 -0.5443 -0.1024  0.2303
  151MOL0     H19918   5.452  10.730   5.692  0.7759  0.4386 -1.9912
  151MOL0     H19919   5.224  10.646   5.739 -0.0537  1.5481 -0.2203
  151MOL0     H19920   4.759  10.664   5.871  0.7983 -0.1081 -0.7646
  151MOL0     H19921   4.530  10.625   5.841 -0.0638  1.4388 -0.7352
  151MOL0     H19922   4.309  10.574   5.761  0.2086  0.5426 -0.3957
  151MOL0     H19923   4.367  10.412   5.812 -2.7898 -2.1430  0.4569
  151MOL0     H19924   4.114  10.453   5.768 -2.2418 -0.1932 -2.7339
  151MOL0     H19925   4.153  10.445   5.591  2.6800  5.2994 -0.0716
  151MOL0     H19926   4.222  10.235   5.789  0.5513  5.0327  1.3567
  151MOL0     H19927   4.229  10.221   5.616 -0.8212  0.5858 -0.1216
  151MOL0     H19928   4.069  10.099   5.722  2.2808  0.6035  1.4207
  151MOL0     H19929   3.974  10.241   5.768 -3.5306  0.0821 -3.5175
  151MOL0     H19930   3.837  10.208   5.374 -1.5907  2.2300  1.4515
  151MOL0     H19931   4.603  10.433   5.460 -1.0982 -2.5805  1.8141
  151MOL0     H19932   4.835  10.480   5.493  2.7282 -0.7539  3.6373
  152MOL0     O19933   3.309   0.186   7.776  0.0683 -0.0211 -0.1106
  152MOL0     C19934   3.198   0.168   7.828  0.4646  0.3857 -0.2947
  152MOL0     O19935   3.079   0.154   7.762 -0.0434 -0.2449  0.0393
  152MOL0     C19936   3.073   0.182   7.627 -0.2810 -0.5590  0.8060
  152MOL0     C19937   3.074   0.074   7.539 -1.2895  1.1754 -0.0636
  152MOL0     C19938   3.075   0.100   7.406  0.5492 -0.3498 -0.0224
  152MOL0     C19939   3.053   0.228   7.359 -0.0871  0.3308  0.5383
  152MOL0     O19940   3.028   0.251   7.224 -0.0494 -0.0577 -0.3372
  152MOL0     C19941   2.910   0.336   7.195 -0.6631  0.9673  0.1301
  152MOL0     C19942   2.899   0.354   7.041 -0.1587  0.3475  0.4860
  152MOL0     C19943   2.833   0.482   7.014  0.3863 -0.7747  0.3632
  152MOL0     C19944   2.678   0.482   7.049 -0.7122 -0.3811  0.2786
  152MOL0     C19945   2.619   0.623   7.067  0.3585 -0.4719 -1.1731
  152MOL0     C19946   2.515   0.631   7.186 -0.6164  0.3645 -0.1123
  152MOL0     C19947   2.583   0.610   7.325 -0.1887  0.3501 -1.1371
  152MOL0     C19948   2.692   0.717   7.354  0.7060  0.5525 -0.4143
  152MOL0     N19949   2.721   0.710   7.496  0.1187 -0.3396  0.0195
  152MOL0     C19950   2.691   0.799   7.598 -0.2610  0.5540  0.5989
  152MOL0     C19951   2.759   0.760   7.707 -0.3907  0.0219 -1.0610
  152MOL0     C19952   2.739   0.827   7.848 -0.4531 -0.0771 -0.4046
  152MOL0     C19953   2.621   0.765   7.919  0.2599 -0.5643  0.2610
  152MOL0     C19954   2.492   0.802   7.862 -0.0540 -0.1449  0.4632
  152MOL0     C19955   2.384   0.695   7.887  0.4383 -0.6513 -0.6537
  152MOL0     O19956   2.275   0.704   7.789 -0.3326 -0.2221  0.4318
  152MOL0     C19957   2.226   0.581   7.751  0.1485 -0.3360 -0.0184
  152MOL0     C19958   2.121   0.532   7.834 -0.5606  0.0126 -0.2034
  152MOL0     C19959   2.057   0.413   7.802 -0.0242 -0.3142 -0.6415
  152MOL0     C19960   2.103   0.340   7.696 -0.2884  0.7238 -0.7823
  152MOL0     C19961   2.028   0.213   7.673  0.4040 -0.3579  0.3243
  152MOL0     O19962   2.054   0.158   7.552 -0.1905  0.2445  0.9622
  152MOL0     C19963   1.963   0.059   7.517 -1.4889  1.2204 -0.1945
  152MOL0     C19964   1.824   0.079   7.517 -0.8308  0.8021 -0.1419
  152MOL0     C19965   1.735  -0.016   7.466  0.3774 -0.1794 -1.0961
  152MOL0     C19966   1.780  -0.140   7.415 -0.8420  0.5586 -0.0788
  152MOL0     O19967   1.711  -0.243   7.367  0.5359 -0.6660 -0.0230
  152MOL0     C19968   1.581  -0.260   7.432 -1.0748  0.2849  0.1015
  152MOL0     C19969   1.471  -0.202   7.345 -0.5457 -0.0232 -0.1593
  152MOL0     C19970   1.438  -0.253   7.210 -0.3815  0.3831 -0.7877
  152MOL0     C19971   1.320  -0.197   7.131  0.4126  0.7878  0.4428
  152MOL0     C19972   1.271  -0.282   7.007  0.5218  0.5999 -0.5944
  152MOL0     C19973   1.384  -0.310   6.905 -0.6250  1.0649 -0.0684
  152MOL0     C19974   1.444  -0.179   6.835  0.5247  0.1930 -0.3148
  152MOL0     C19975   1.334  -0.100   6.762 -0.0779  0.6201 -0.2183
  152MOL0    Cl19976   1.258   0.025   6.865  0.0536 -0.4780  0.4155
  152MOL0     C19977   1.921  -0.163   7.418  0.4842  0.3239  0.3891
  152MOL0     C19978   2.008  -0.066   7.470  0.6417  0.9965 -0.9524
  152MOL0     O19979   1.964   0.162   7.761  0.0993 -0.1847 -0.2802
  152MOL0     C19980   2.210   0.389   7.617 -0.0219 -0.2786 -0.7210
  152MOL0     C19981   2.275   0.514   7.635 -0.4866  0.4332 -0.0601
  152MOL0     N19982   2.838   0.654   7.668  0.4596 -0.1847 -0.9797
  152MOL0     N19983   2.815   0.628   7.544 -0.0300 -0.0255 -0.6291
  152MOL0     C19984   3.050   0.340   7.450  0.1059 -0.1521  0.3392
  152MOL0     C19985   3.066   0.320   7.587 -1.1717  0.2528  0.5741
  152MOL0     C19986   3.200   0.146   7.965 -0.4150  0.2669 -0.8074
  152MOL0     C19987   3.316   0.147   8.048 -0.3108 -0.0053  0.3624
  152MOL0     C19988   3.315   0.105   8.184 -0.1927 -0.3283 -0.3427
  152MOL0     C19989   3.191   0.064   8.238 -0.5495  0.0632 -0.4540
  152MOL0     O19990   3.198   0.032   8.372  0.8580  1.1332  0.2078
  152MOL0     C19991   3.079  -0.031   8.419  0.4001  0.9876  0.4882
  152MOL0     C19992   3.097  -0.075   8.565  0.1246 -0.0788  0.0862
  152MOL0     C19993   3.103   0.046   8.660  0.2611  0.3071  0.1900
  152MOL0     C19994   3.094   0.018   8.809  0.2275  0.6023 -0.1552
  152MOL0     C19995   3.100  -0.126   8.837 -0.1168  0.0099 -1.0655
  152MOL0     C19996   3.095  -0.239   8.875 -0.2084  0.1619 -0.3855
  152MOL0     C19997   3.074   0.077   8.164 -0.4307  0.3847 -0.8872
  152MOL0     C19998   3.076   0.116   8.032 -0.8581 -1.2824  0.4184
  152MOL0     H19999   3.072  -0.028   7.578  2.4235  1.0523  0.1649
  152MOL0     H20000   3.057   0.031   7.325 -2.3509 -0.0274  0.2555
  152MOL0     H20001   2.925   0.430   7.250 -3.0238  0.5379  1.6597
  152MOL0     H20002   2.826   0.280   7.235  1.1821 -0.5842  2.1008
  152MOL0     H20003   2.854   0.263   7.000  1.6918 -2.0645  3.2990
  152MOL0     H20004   3.004   0.366   7.010  0.0284 -1.9754  0.0100
  152MOL0     H20005   2.854   0.511   6.911  1.9584  0.8640  1.0829
  152MOL0     H20006   2.886   0.553   7.078  0.3082  0.0718 -0.4887
  152MOL0     H20007   2.627   0.434   6.965  2.3268 -1.7928 -0.8735
  152MOL0     H20008   2.664   0.427   7.142 -0.7178  0.2313  0.6504
  152MOL0     H20009   2.570   0.655   6.975  2.5097  3.7430 -1.0781
  152MOL0     H20010   2.693   0.702   7.084  0.3426 -0.3801 -1.5300
  152MOL0     H20011   2.433   0.559   7.179 -1.3564  1.0585  1.0737
  152MOL0     H20012   2.466   0.728   7.196  0.8969  0.9124  3.5581
  152MOL0     H20013   2.499   0.622   7.394 -1.0621 -1.5497 -1.7890
  152MOL0     H20014   2.631   0.513   7.344 -1.6970 -0.2383 -0.1721
  152MOL0     H20015   2.662   0.813   7.312  3.7398  1.4479 -0.7277
  152MOL0     H20016   2.783   0.681   7.305  0.4307  1.4435 -1.6226
  152MOL0     H20017   2.622   0.882   7.597 -0.5885  0.2739  0.0362
  152MOL0     H20018   2.729   0.935   7.833 -1.2753 -0.2554 -1.2816
  152MOL0     H20019   2.819   0.800   7.917 -1.9681 -1.0654  1.0280
  152MOL0     H20020   2.626   0.806   8.021 -1.3971  2.3849 -0.7284
  152MOL0     H20021   2.637   0.657   7.930 -2.8914 -0.9913  1.9706
  152MOL0     H20022   2.446   0.894   7.900  0.3164 -0.0095  0.5801
  152MOL0     H20023   2.493   0.812   7.754 -5.5438  1.9966  0.2874
  152MOL0     H20024   2.353   0.702   7.991 -1.0438 -1.2616 -1.0204
  152MOL0     H20025   2.436   0.599   7.876  0.0482 -0.8471 -0.7964
  152MOL0     H20026   2.096   0.587   7.924 -1.3322 -2.9445  1.5422
  152MOL0     H20027   1.968   0.378   7.852  0.9225 -0.0983  1.2899
  152MOL0     H20028   1.783   0.169   7.561 -2.7296 -0.7509  1.4606
  152MOL0     H20029   1.631   0.015   7.455 -0.4001 -2.2379 -0.0474
  152MOL0     H20030   1.573  -0.219   7.533 -0.8643  0.0265  0.2236
  152MOL0     H20031   1.582  -0.366   7.456 -0.3300  0.5687  1.3796
  152MOL0     H20032   1.488  -0.097   7.320 -4.5995  0.3122 -2.4426
  152MOL0     H20033   1.388  -0.209   7.417  1.4472  0.4994  2.3499
  152MOL0     H20034   1.417  -0.360   7.221  0.9389  0.1338 -0.5503
  152MOL0     H20035   1.528  -0.255   7.148 -2.0766  1.7978 -3.4967
  152MOL0     H20036   1.242  -0.192   7.208  1.5298 -0.5381  1.7390
  152MOL0     H20037   1.344  -0.099   7.090  0.5002 -0.2010 -1.9902
  152MOL0     H20038   1.185  -0.235   6.960 -1.3436  1.1848  3.0078
  152MOL0     H20039   1.232  -0.377   7.045  0.3728  1.4861  1.6266
  152MOL0     H20040   1.345  -0.385   6.835  2.4645 -1.3260  0.5104
  152MOL0     H20041   1.468  -0.357   6.957 -2.7376 -2.6639  0.3380
  152MOL0     H20042   1.489  -0.118   6.914 -1.8499  2.4327 -0.5384
  152MOL0     H20043   1.518  -0.212   6.761  0.5615  1.5719 -0.9185
  152MOL0     H20044   1.249  -0.163   6.736 -2.3865  1.9749  3.3616
  152MOL0     H20045   1.384  -0.048   6.679  1.2236 -1.1426 -0.6008
  152MOL0     H20046   1.965  -0.257   7.386  1.4678  1.4053 -1.5355
  152MOL0     H20047   2.112  -0.089   7.490  0.2349  0.4279  0.6832
  152MOL0     H20048   2.237   0.329   7.530 -1.1978 -2.0938  0.0975
  152MOL0     H20049   2.353   0.557   7.574 -1.1202 -1.1131 -2.0765
  152MOL0     H20050   3.033   0.439   7.411  5.0102  0.7036 -0.2811
  152MOL0     H20051   3.066   0.409   7.649 -1.8547  0.6620  0.0010
  152MOL0     H20052   3.412   0.152   7.997 -0.3164  0.8085  0.4175
  152MOL0     H20053   3.402   0.116   8.249 -0.8177 -1.3122  0.6924
  152MOL0     H20054   3.065  -0.125   8.365  3.5922 -0.2443  1.5827
  152MOL0     H20055   2.993   0.036   8.406  0.5706  0.5790 -4.3321
  152MOL0     H20056   3.022  -0.148   8.596 -0.0138 -0.5024 -1.1762
  152MOL0     H20057   3.195  -0.124   8.565 -1.0785 -2.7763 -2.3711
  152MOL0     H20058   3.024   0.115   8.629  1.2304  1.1629 -0.4218
  152MOL0     H20059   3.204   0.078   8.632 -0.1089 -0.4232 -2.2427
  152MOL0     H20060   3.174   0.079   8.851  0.4424  0.5832 -0.5338
  152MOL0     H20061   3.003   0.054   8.858  1.4434  1.6889  1.4451
  152MOL0     H20062   3.104  -0.340   8.911  2.7388  0.3220 -0.4486
  152MOL0     H20063   2.979   0.068   8.215  1.1830  1.8386  2.6803
  152MOL0     H20064   2.980   0.110   7.980 -1.9215  2.4961  1.5896
  153MOL0     O20065  10.573   3.860   8.492 -0.1670 -0.7664 -0.0418
  153MOL0     C20066  10.656   3.850   8.399  0.7241  0.2636 -0.9647
  153MOL0     O20067  10.675   3.936   8.299 -0.1561  0.1520 -0.2750
  153MOL0     C20068  10.595   4.049   8.284  0.3030  0.6987 -0.0190
  153MOL0     C20069  10.548   4.074   8.155  0.2214  1.2496  0.0156
  153MOL0     C20070  10.461   4.172   8.142 -0.3953  0.2587 -0.0641
  153MOL0     C20071  10.424   4.258   8.246 -0.4097 -0.4371 -0.3205
  153MOL0     O20072  10.327   4.356   8.233  0.4810 -0.3902  0.3917
  153MOL0     C20073  10.203   4.324   8.305 -0.3478 -0.4891  0.6089
  153MOL0     C20074  10.099   4.424   8.256  0.1971 -0.1326  0.0527
  153MOL0     C20075  10.099   4.564   8.332  0.0576  0.8699 -0.4370
  153MOL0     C20076  10.039   4.680   8.262 -0.1248 -1.1590 -0.6453
  153MOL0     C20077   9.891   4.686   8.269  0.0595  0.6107  0.4067
  153MOL0     C20078   9.825   4.793   8.183 -1.3460  0.6400  0.1179
  153MOL0     C20079   9.682   4.805   8.216  0.3824  0.8603 -0.7542
  153MOL0     C20080   9.619   4.891   8.104  0.1997  0.3454  0.4399
  153MOL0     N20081   9.560   4.808   7.997 -0.5701  0.0264 -0.3218
  153MOL0     C20082   9.469   4.709   8.012 -0.3819  0.6559 -0.1676
  153MOL0     C20083   9.481   4.640   7.892 -0.7967 -0.3260  0.7756
  153MOL0     C20084   9.404   4.511   7.848 -0.7199 -0.1415  0.0353
  153MOL0     C20085   9.435   4.385   7.933  0.9132 -0.4213  0.1925
  153MOL0     C20086   9.354   4.256   7.899 -0.2016  1.1658  0.1288
  153MOL0     C20087   9.301   4.235   7.762  0.5717 -0.3476  0.4958
  153MOL0     O20088   9.191   4.322   7.732 -0.1776  0.0576 -0.2047
  153MOL0     C20089   9.064   4.277   7.717  0.4543  0.0107  0.3129
  153MOL0     C20090   8.969   4.297   7.815  0.3738 -0.8751  0.0199
  153MOL0     C20091   8.831   4.264   7.795 -0.2891  0.2208 -0.0349
  153MOL0     C20092   8.802   4.195   7.672 -0.4818 -0.3232  0.7311
  153MOL0     C20093   8.671   4.149   7.649  0.0688  0.3502  0.0124
  153MOL0     O20094   8.639   4.140   7.514 -0.1116  0.3572 -0.2963
  153MOL0     C20095   8.521   4.086   7.480  1.0532  0.0622 -0.0447
  153MOL0     C20096   8.407   4.174   7.473 -0.3288 -0.3941 -1.0655
  153MOL0     C20097   8.290   4.103   7.460 -0.3984 -0.2158 -0.5122
  153MOL0     C20098   8.271   3.963   7.441 -0.6059 -0.6448 -0.3935
  153MOL0     O20099   8.147   3.903   7.426  0.5699  1.0635  0.6816
  153MOL0     C20100   8.020   3.969   7.446 -0.5477  0.2513 -0.2954
  153MOL0     C20101   7.905   3.894   7.395  0.1519  1.1790  0.6906
  153MOL0     C20102   7.780   3.973   7.382 -0.4589  0.0060  0.5961
  153MOL0     C20103   7.670   3.880   7.333 -0.4690  0.5850  0.3951
  153MOL0     C20104   7.614   3.784   7.440  0.1085 -0.8257  0.2772
  153MOL0     C20105   7.463   3.749   7.423  0.0157 -0.8947 -0.3957
  153MOL0     C20106   7.432   3.637   7.522 -0.0205  0.5670  0.4171
  153MOL0     C20107   7.290   3.598   7.505 -0.6187  0.7193  0.2519
  153MOL0    Cl20108   7.225   3.498   7.642 -0.6273  0.0207  0.1643
  153MOL0     C20109   8.387   3.886   7.443  0.1072 -0.4511 -0.0339
  153MOL0     C20110   8.511   3.946   7.449  0.1917  0.2011 -0.4658
  153MOL0     O20111   8.591   4.112   7.743 -0.5213  0.0520  0.2557
  153MOL0     C20112   8.897   4.189   7.568 -0.2042  0.4764 -0.1715
  153MOL0     C20113   9.034   4.218   7.597  1.4033 -0.8348 -1.0087
  153MOL0     N20114   9.562   4.716   7.808  0.3062  0.0900  0.4998
  153MOL0     N20115   9.604   4.815   7.868 -0.2186  0.0050 -0.1722
  153MOL0     C20116  10.493   4.246   8.373 -0.0627  0.4917 -0.0169
  153MOL0     C20117  10.571   4.138   8.392  0.7491  0.9768  0.1196
  153MOL0     C20118  10.742   3.724   8.395  0.4126  0.6047  0.3696
  153MOL0     C20119  10.831   3.697   8.286 -0.5008  0.0919 -0.3966
  153MOL0     C20120  10.901   3.578   8.280  1.0248  0.8351 -0.0856
  153MOL0     C20121  10.891   3.474   8.375 -0.2485  0.1047 -0.0688
  153MOL0     O20122  10.987   3.376   8.353  0.0836  0.1747  0.4166
  153MOL0     C20123  11.000   3.271   8.454  0.3351 -0.1545  0.0680
  153MOL0     C20124  11.107   3.169   8.428  0.5454 -0.6748 -0.1595
  153MOL0     C20125  11.248   3.215   8.370 -1.1871  0.0852  0.5186
  153MOL0     C20126  11.326   3.102   8.292 -0.9657 -0.2414 -0.1626
  153MOL0     C20127  11.346   2.986   8.381  0.6768  0.7225  0.0628
  153MOL0     C20128  11.389   2.904   8.462 -0.8188 -0.1490  0.2412
  153MOL0     C20129  10.802   3.497   8.484  0.1382  1.0347 -0.2412
  153MOL0     C20130  10.726   3.618   8.485  0.3703 -0.1726 -0.3777
  153MOL0     H20131  10.560   4.010   8.068 -1.7645 -1.2204  1.4194
  153MOL0     H20132  10.418   4.196   8.045  0.7373  5.0459  0.4076
  153MOL0     H20133  10.212   4.333   8.414  3.0734 -1.0629  0.4897
  153MOL0     H20134  10.164   4.228   8.271 -5.4462  1.3481  0.4073
  153MOL0     H20135   9.998   4.384   8.270  0.9249 -1.3170  2.3819
  153MOL0     H20136  10.118   4.429   8.149  2.7120  3.4641  0.4984
  153MOL0     H20137  10.204   4.592   8.342 -0.0701  1.3837 -0.5300
  153MOL0     H20138  10.071   4.551   8.437 -0.2207  1.7977 -0.3879
  153MOL0     H20139  10.067   4.774   8.312 -0.5334 -2.5323  2.3614
  153MOL0     H20140  10.082   4.692   8.162  5.0540 -0.3597  1.3168
  153MOL0     H20141   9.845   4.693   8.368  0.0957  0.4322  0.4355
  153MOL0     H20142   9.867   4.590   8.223 -3.1952  1.2819  0.4317
  153MOL0     H20143   9.851   4.778   8.078  0.8663  1.6434  0.4653
  153MOL0     H20144   9.869   4.888   8.213  1.4772 -0.0642 -1.4549
  153MOL0     H20145   9.637   4.708   8.238  0.0566  1.4521  1.4159
  153MOL0     H20146   9.660   4.863   8.306  1.7110  0.0877  0.0997
  153MOL0     H20147   9.693   4.958   8.061 -0.0633  1.3225  1.4594
  153MOL0     H20148   9.538   4.947   8.151  0.7670  1.2915  0.3013
  153MOL0     H20149   9.409   4.677   8.097 -2.2372  1.2983 -1.1612
  153MOL0     H20150   9.431   4.486   7.745 -0.4998  0.8170 -0.1508
  153MOL0     H20151   9.298   4.537   7.847 -0.6621  0.4637  2.5060
  153MOL0     H20152   9.430   4.410   8.039  0.1522 -0.2048  0.1140
  153MOL0     H20153   9.540   4.368   7.911  0.6488  0.6027 -2.1337
  153MOL0     H20154   9.424   4.172   7.913  2.9746  3.8200  1.6959
  153MOL0     H20155   9.272   4.243   7.970  0.3054 -0.7631  0.4398
  153MOL0     H20156   9.271   4.130   7.752 -0.1598 -0.0901 -0.0561
  153MOL0     H20157   9.385   4.265   7.698  0.1847  1.7180  0.8924
  153MOL0     H20158   8.986   4.344   7.911 -1.1061 -0.4436  0.1008
  153MOL0     H20159   8.754   4.265   7.871 -1.7094 -2.2772 -1.2891
  153MOL0     H20160   8.405   4.283   7.476  3.7021 -0.0845 -2.3221
  153MOL0     H20161   8.199   4.160   7.444 -0.2531  0.4364  0.8922
  153MOL0     H20162   8.025   4.068   7.400  1.9695 -0.0361 -0.7795
  153MOL0     H20163   8.003   3.990   7.552  0.8856 -0.2909  0.0599
  153MOL0     H20164   7.883   3.817   7.470  2.4208 -1.1663 -0.8631
  153MOL0     H20165   7.935   3.847   7.301 -0.5497  0.6474  0.7257
  153MOL0     H20166   7.805   4.051   7.310  0.9026  1.0689  2.1524
  153MOL0     H20167   7.760   4.018   7.480  3.4001 -0.3575  1.7228
  153MOL0     H20168   7.578   3.937   7.316 -0.7201 -0.2675 -1.3872
  153MOL0     H20169   7.696   3.825   7.242  3.1638  2.3832  0.1786
  153MOL0     H20170   7.636   3.827   7.538  0.3715 -1.1726  0.3746
  153MOL0     H20171   7.671   3.692   7.422  0.5965 -0.1312 -2.0977
  153MOL0     H20172   7.448   3.726   7.317 -0.2357  0.3157 -0.6384
  153MOL0     H20173   7.400   3.836   7.442 -0.3543 -0.3552 -3.6150
  153MOL0     H20174   7.495   3.551   7.498  1.0617  2.2333 -3.4529
  153MOL0     H20175   7.453   3.652   7.628 -0.7246 -1.9534  0.9886
  153MOL0     H20176   7.282   3.543   7.411 -1.1091  1.0348  0.1070
  153MOL0     H20177   7.231   3.689   7.493 -0.4982  0.7307 -0.2824
  153MOL0     H20178   8.389   3.780   7.422  1.4530 -0.2274 -1.1993
  153MOL0     H20179   8.604   3.889   7.452 -0.8211 -1.6920 -2.2446
  153MOL0     H20180   8.879   4.137   7.474  3.1358 -3.1330  0.9151
  153MOL0     H20181   9.122   4.203   7.535  0.8553  0.1583 -2.0588
  153MOL0     H20182  10.475   4.323   8.447 -4.7885  0.7488 -1.1371
  153MOL0     H20183  10.600   4.117   8.495 -0.2849 -1.3884  0.0031
  153MOL0     H20184  10.850   3.780   8.219  1.2850 -0.2711 -0.3953
  153MOL0     H20185  10.978   3.579   8.204  0.7382 -2.1412 -0.5129
  153MOL0     H20186  10.901   3.226   8.465 -1.0166  1.7831 -2.8372
  153MOL0     H20187  11.021   3.324   8.547 -1.7745  2.0044 -0.5648
  153MOL0     H20188  11.110   3.115   8.523 -1.9743 -3.1283 -1.2960
  153MOL0     H20189  11.073   3.093   8.356 -1.3627 -1.2006  1.2388
  153MOL0     H20190  11.299   3.250   8.460 -1.2569 -2.1075  1.4580
  153MOL0     H20191  11.219   3.289   8.295 -1.0290  1.2446  1.5723
  153MOL0     H20192  11.268   3.057   8.212 -2.4858  0.5634  0.4434
  153MOL0     H20193  11.420   3.132   8.244 -0.3185 -1.1498  0.5015
  153MOL0     H20194  11.409   2.832   8.540  1.8849  0.1666 -0.0665
  153MOL0     H20195  10.794   3.422   8.562  1.3487  0.7212 -0.4026
  153MOL0     H20196  10.656   3.632   8.567  2.7191  0.7952  1.5985
  154MOL0     O20197  10.289   0.824   1.128 -0.2733  0.5613 -0.3015
  154MOL0     C20198  10.183   0.864   1.163 -0.4180  0.3982 -0.5197
  154MOL0     O20199  10.076   0.783   1.222 -0.6312  0.1288 -0.4498
  154MOL0     C20200  10.101   0.661   1.265  0.0799 -1.3936 -0.0332
  154MOL0     C20201  10.205   0.620   1.340 -0.6497 -0.0338  0.1291
  154MOL0     C20202  10.219   0.481   1.371  0.6784  0.1732  0.6978
  154MOL0     C20203  10.142   0.389   1.309 -0.2532  1.5464  0.2190
  154MOL0     O20204  10.171   0.252   1.340 -0.6248  0.5638  0.4030
  154MOL0     C20205  10.094   0.150   1.282 -0.2170  0.1845  0.1363
  154MOL0     C20206  10.149   0.008   1.309  0.5956  1.6897 -0.0160
  154MOL0     C20207  10.035  -0.100   1.317 -0.2024 -0.1905  0.3679
  154MOL0     C20208  10.100  -0.238   1.347 -0.4131 -0.0015  0.3330
  154MOL0     C20209  10.189  -0.295   1.230  0.4763 -1.0954  0.5669
  154MOL0     C20210  10.209  -0.447   1.256 -0.2419  0.2340 -0.0962
  154MOL0     C20211  10.278  -0.511   1.138  0.7609  0.2447 -0.2145
  154MOL0     C20212  10.288  -0.663   1.153 -0.4687 -0.7126  0.0856
  154MOL0     N20213  10.368  -0.701   1.269  0.5983 -0.0110  0.9973
  154MOL0     C20214  10.337  -0.733   1.403 -0.7228 -0.1122 -0.6637
  154MOL0     C20215  10.461  -0.755   1.456 -0.2648  0.0708  0.0803
  154MOL0     C20216  10.503  -0.805   1.593  0.5076  0.7591 -0.4957
  154MOL0     C20217  10.473  -0.694   1.701 -0.4542  0.4222 -0.0685
  154MOL0     C20218  10.598  -0.666   1.794  0.3784  0.0967  0.4964
  154MOL0     C20219  10.695  -0.588   1.710  0.4774 -0.8223 -0.6167
  154MOL0     O20220  10.659  -0.443   1.698  0.2209  0.5701  0.3564
  154MOL0     C20221  10.623  -0.391   1.573 -0.6504  0.2518  0.3572
  154MOL0     C20222  10.571  -0.256   1.584 -0.0210  0.8480 -0.8768
  154MOL0     C20223  10.558  -0.180   1.464  0.0616 -0.0306 -0.3859
  154MOL0     C20224  10.585  -0.239   1.336 -0.0077 -0.0294  0.9757
  154MOL0     C20225  10.586  -0.148   1.221 -1.4111  0.1345  0.1410
  154MOL0     O20226  10.615  -0.015   1.247  0.4117 -0.2129 -0.0915
  154MOL0     C20227  10.629   0.059   1.134 -0.1277 -0.5175 -0.2069
  154MOL0     C20228  10.746   0.056   1.065 -0.7673 -0.3218 -0.1233
  154MOL0     C20229  10.766   0.130   0.944 -0.2352 -0.2102 -0.0969
  154MOL0     C20230  10.658   0.208   0.893  0.3818  0.4552  0.2930
  154MOL0     O20231  10.670   0.289   0.786 -0.9872 -0.2183  0.7639
  154MOL0     C20232  10.560   0.311   0.700  0.2771 -0.6040  0.6771
  154MOL0     C20233  10.623   0.339   0.560  0.6803 -0.6914 -1.0324
  154MOL0     C20234  10.704   0.225   0.494 -0.0140  0.2103 -0.2989
  154MOL0     C20235  10.619   0.103   0.442  0.7537  0.0691 -0.0486
  154MOL0     C20236  10.581   0.002   0.548 -0.3731  0.8877 -0.4881
  154MOL0     C20237  10.687  -0.081   0.608 -0.2069  0.6713  0.5060
  154MOL0     C20238  10.651  -0.166   0.729  0.2901 -0.6439 -0.0951
  154MOL0     C20239  10.784  -0.206   0.811  0.3437  1.0905 -0.1142
  154MOL0    Cl20240  10.738  -0.342   0.927 -0.4301  0.2949 -0.3164
  154MOL0     C20241  10.534   0.209   0.964 -1.0208 -0.8830 -0.1869
  154MOL0     C20242  10.513   0.138   1.085  0.6617  0.4360  0.0295
  154MOL0     O20243  10.569  -0.197   1.104 -0.3528 -0.4972 -0.7569
  154MOL0     C20244  10.622  -0.375   1.330  0.1043  0.0065  0.2209
  154MOL0     C20245  10.652  -0.444   1.450  0.4038 -0.5761  0.6351
  154MOL0     N20246  10.561  -0.755   1.355 -0.7538 -0.1651  1.0070
  154MOL0     N20247  10.497  -0.725   1.247 -0.4040 -0.0316  0.6677
  154MOL0     C20248  10.018   0.434   1.247  0.6245 -0.2011  0.6350
  154MOL0     C20249  10.005   0.570   1.226  0.7768  0.8801 -0.2283
  154MOL0     C20250  10.159   1.007   1.124  0.0527 -1.0450  0.9279
  154MOL0     C20251  10.253   1.083   1.054 -0.0674  0.0516  0.3108
  154MOL0     C20252  10.218   1.203   0.996  0.4568 -0.2277  0.3606
  154MOL0     C20253  10.101   1.264   1.033 -0.0457  0.1351 -0.0399
  154MOL0     O20254  10.071   1.401   1.019 -0.2291  1.3818  0.6742
  154MOL0     C20255  10.138   1.482   0.921  0.2832 -0.0130 -0.3554
  154MOL0     C20256  10.245   1.564   0.996  0.2565  0.3523  0.5841
  154MOL0     C20257  10.262   1.697   0.915  0.2553 -0.3700 -1.1466
  154MOL0     C20258  10.404   1.759   0.948  0.0530 -0.0463 -0.0695
  154MOL0     C20259  10.422   1.874   0.864 -0.0296  0.4598 -0.1350
  154MOL0     C20260  10.430   1.975   0.792 -0.2143 -0.3288 -0.3599
  154MOL0     C20261  10.014   1.194   1.124 -0.2376  0.3445 -1.0373
  154MOL0     C20262  10.031   1.062   1.156  0.3406 -0.0907  0.3357
  154MOL0     H20263  10.285   0.684   1.375 -1.5690  1.4615 -0.3747
  154MOL0     H20264  10.308   0.450   1.425  1.1303 -0.9973 -0.6284
  154MOL0     H20265  10.077   0.148   1.174  1.5455 -1.4417 -0.1754
  154MOL0     H20266   9.994   0.154   1.325 -1.4517  0.3941 -2.5744
  154MOL0     H20267  10.210   0.007   1.400 -1.1844 -0.2015  1.2288
  154MOL0     H20268  10.222  -0.022   1.233 -0.4507 -2.7264  0.4400
  154MOL0     H20269   9.970  -0.105   1.229  0.6602 -1.4895 -0.2277
  154MOL0     H20270   9.964  -0.068   1.394 -0.4580  2.4001 -0.8453
  154MOL0     H20271  10.160  -0.240   1.438  0.0882  3.4089  0.2180
  154MOL0     H20272  10.010  -0.300   1.348  0.0131 -0.6370 -0.2623
  154MOL0     H20273  10.286  -0.247   1.212 -0.3525  0.7486  0.8034
  154MOL0     H20274  10.128  -0.288   1.139  1.5428  1.6869 -0.0288
  154MOL0     H20275  10.118  -0.505   1.275 -0.9775  1.7552  1.2378
  154MOL0     H20276  10.263  -0.464   1.349 -1.7312  0.0022  0.7711
  154MOL0     H20277  10.230  -0.475   1.047 -1.2899 -0.6456  0.4534
  154MOL0     H20278  10.373  -0.458   1.123  0.5247  0.9517  0.7264
  154MOL0     H20279  10.329  -0.703   1.061  0.7835 -0.7289  0.6348
  154MOL0     H20280  10.186  -0.700   1.165 -1.0734  0.2621 -1.6424
  154MOL0     H20281  10.251  -0.731   1.469  0.7328  0.6371  1.3228
  154MOL0     H20282  10.608  -0.834   1.586  0.5016  0.6048  0.0270
  154MOL0     H20283  10.452  -0.899   1.620  1.3618 -0.3610 -2.5734
  154MOL0     H20284  10.382  -0.714   1.759 -0.0169 -1.9763 -0.1157
  154MOL0     H20285  10.441  -0.597   1.661 -2.2476 -0.6136 -1.2696
  154MOL0     H20286  10.577  -0.606   1.883  0.0723 -0.0582  0.5279
  154MOL0     H20287  10.635  -0.764   1.824  2.7844  1.2892  1.7316
  154MOL0     H20288  10.714  -0.636   1.614 -0.0318  0.9641 -1.6663
  154MOL0     H20289  10.789  -0.587   1.765  0.5527 -1.6559 -0.7163
  154MOL0     H20290  10.556  -0.202   1.677  0.4997  0.3284 -0.4827
  154MOL0     H20291  10.528  -0.075   1.470  0.4904  0.2155 -1.9083
  154MOL0     H20292  10.830   0.016   1.121  1.4580  0.7844 -2.4544
  154MOL0     H20293  10.861   0.140   0.891 -1.1065  3.3419 -1.2945
  154MOL0     H20294  10.494   0.384   0.748  2.9049 -0.0800  3.8982
  154MOL0     H20295  10.505   0.217   0.691  3.3958 -2.4876  0.0783
  154MOL0     H20296  10.671   0.436   0.570 -3.0279  1.1912  0.2989
  154MOL0     H20297  10.529   0.357   0.508  0.5166  2.1696  0.1032
  154MOL0     H20298  10.785   0.191   0.558 -0.4087  1.0735  0.6955
  154MOL0     H20299  10.730   0.277   0.401 -1.7043 -1.7294 -1.9540
  154MOL0     H20300  10.522   0.130   0.399 -1.0795 -1.0605  2.9906
  154MOL0     H20301  10.680   0.052   0.367  1.5234 -1.4796  1.5535
  154MOL0     H20302  10.523  -0.070   0.489  0.7973  2.0063 -3.1554
  154MOL0     H20303  10.512   0.028   0.628 -1.4171  1.7769 -1.6318
  154MOL0     H20304  10.758  -0.012   0.654  2.7193 -1.1238 -1.0066
  154MOL0     H20305  10.740  -0.136   0.530 -1.0687  0.9065 -0.2628
  154MOL0     H20306  10.581  -0.113   0.794  2.6393  1.6572  0.7598
  154MOL0     H20307  10.599  -0.258   0.700 -0.2968  0.5670 -3.3115
  154MOL0     H20308  10.830  -0.117   0.855  0.0158  2.6449 -2.7509
  154MOL0     H20309  10.857  -0.256   0.747  1.6996  3.2307 -0.3511
  154MOL0     H20310  10.446   0.270   0.944 -0.7479 -0.2913  0.4060
  154MOL0     H20311  10.421   0.141   1.142  1.2688  1.7597  1.0046
  154MOL0     H20312  10.628  -0.412   1.228  2.3472  0.7713  0.0314
  154MOL0     H20313  10.693  -0.544   1.438 -0.7384 -0.7349 -3.5663
  154MOL0     H20314   9.932   0.371   1.226 -0.1726  0.4077  1.8837
  154MOL0     H20315   9.909   0.603   1.187  0.2903 -0.6816 -0.3929
  154MOL0     H20316  10.346   1.035   1.024 -0.4464  0.1699 -1.1201
  154MOL0     H20317  10.289   1.250   0.928 -2.6518  0.7010 -2.5537
  154MOL0     H20318  10.066   1.552   0.877  0.6852  0.4127 -0.3342
  154MOL0     H20319  10.176   1.421   0.839 -1.5557 -1.0597 -0.4953
  154MOL0     H20320  10.211   1.593   1.096  1.2310 -1.1092  1.3801
  154MOL0     H20321  10.335   1.501   0.996 -0.1211 -0.1888  0.8067
  154MOL0     H20322  10.180   1.765   0.940  1.2598 -0.5865  3.6598
  154MOL0     H20323  10.265   1.666   0.810  0.9481 -0.8915 -0.9845
  154MOL0     H20324  10.410   1.786   1.054  1.1721 -0.1791 -0.0823
  154MOL0     H20325  10.491   1.697   0.926  2.5661  2.6736  1.4118
  154MOL0     H20326  10.419   2.076   0.756 -0.9176 -0.5101 -0.6726
  154MOL0     H20327   9.925   1.247   1.155  0.6291  0.8546  0.6547
  154MOL0     H20328   9.946   1.000   1.182 -0.7128  0.1740 -2.2052
  155MOL0     O20329   5.774   7.593   3.242  1.0626 -0.3717 -0.7622
  155MOL0     C20330   5.825   7.700   3.206 -1.0160 -0.2210  0.1070
  155MOL0     O20331   5.790   7.821   3.245  0.4952  0.3652 -1.2232
  155MOL0     C20332   5.678   7.835   3.319 -0.1604 -0.0837 -0.0902
  155MOL0     C20333   5.551   7.828   3.272 -0.4421 -1.3593  0.8008
  155MOL0     C20334   5.441   7.851   3.345  0.1964  0.7589 -0.1766
  155MOL0     C20335   5.456   7.879   3.480 -0.1252 -0.1667  0.0891
  155MOL0     O20336   5.346   7.892   3.553  0.6032  0.4781 -0.5945
  155MOL0     C20337   5.343   7.831   3.684  0.1802 -1.1439 -0.2275
  155MOL0     C20338   5.198   7.809   3.716  0.1817 -0.2684  0.3634
  155MOL0     C20339   5.118   7.922   3.739  0.0254 -0.8622 -0.4103
  155MOL0     C20340   4.973   7.890   3.781 -0.4305 -0.5374 -0.1343
  155MOL0     C20341   4.893   8.013   3.825  0.2120  0.3412 -0.3160
  155MOL0     C20342   4.760   7.970   3.900  0.1208 -0.1087 -0.1079
  155MOL0     C20343   4.704   8.092   3.984 -0.6793  0.5381  0.1392
  155MOL0     C20344   4.591   8.065   4.074  0.3037  0.0346 -0.3361
  155MOL0     N20345   4.587   8.157   4.182 -0.4918 -0.2192  0.3496
  155MOL0     C20346   4.506   8.264   4.202 -0.0255  0.1156 -0.8579
  155MOL0     C20347   4.564   8.334   4.308  0.9674 -0.3832  0.0599
  155MOL0     C20348   4.516   8.459   4.370 -0.7937  0.0442  0.2277
  155MOL0     C20349   4.496   8.572   4.267  0.8604  0.5421 -0.8550
  155MOL0     C20350   4.625   8.613   4.198  0.3208  0.1432 -0.2358
  155MOL0     C20351   4.623   8.758   4.141 -0.3780 -0.1624  0.0200
  155MOL0     O20352   4.583   8.852   4.248 -0.7191  0.4223  0.1329
  155MOL0     C20353   4.676   8.864   4.351 -1.0132 -0.3842 -0.1966
  155MOL0     C20354   4.630   8.920   4.476 -0.3497 -0.7997 -0.9078
  155MOL0     C20355   4.717   8.944   4.583 -0.8068 -0.2831 -0.1579
  155MOL0     C20356   4.860   8.916   4.572 -0.6690 -0.4935  0.2854
  155MOL0     C20357   4.962   8.961   4.670 -1.0116  0.8892 -0.7927
  155MOL0     O20358   4.930   9.053   4.757  0.2905 -0.4707 -0.4958
  155MOL0     C20359   5.018   9.108   4.845 -0.2868  0.8227  0.5863
  155MOL0     C20360   5.025   9.117   4.980 -0.2029  1.3144 -0.8075
  155MOL0     C20361   5.123   9.183   5.055 -0.0614  1.0838 -0.5418
  155MOL0     C20362   5.235   9.255   4.992  0.6380  0.2379 -0.2065
  155MOL0     O20363   5.334   9.301   5.084 -0.6166  0.0975  0.4883
  155MOL0     C20364   5.417   9.411   5.035 -0.7761 -0.3231 -0.2470
  155MOL0     C20365   5.450   9.527   5.131  0.9274  0.0619 -0.7494
  155MOL0     C20366   5.335   9.632   5.139  0.0335 -0.9055  0.5102
  155MOL0     C20367   5.337   9.749   5.041 -0.9448 -0.6072 -0.1990
  155MOL0     C20368   5.200   9.823   5.028 -0.2740 -0.8665 -0.8399
  155MOL0     C20369   5.145   9.855   5.171 -0.6017 -1.4845 -0.9062
  155MOL0     C20370   5.249   9.914   5.280  0.4552  0.2245  0.1484
  155MOL0     C20371   5.167  10.028   5.336 -0.0288 -0.7832 -0.0469
  155MOL0    Cl20372   5.251  10.099   5.473 -0.1064 -0.2977 -0.6393
  155MOL0     C20373   5.219   9.254   4.849 -0.0424 -0.7578 -0.0859
  155MOL0     C20374   5.121   9.185   4.779  1.0025 -0.0320 -0.7999
  155MOL0     O20375   5.078   8.903   4.665  0.4880 -1.0126  0.4647
  155MOL0     C20376   4.899   8.854   4.449  0.1084  0.5539  0.2184
  155MOL0     C20377   4.817   8.839   4.342  0.2293  0.1596 -0.3434
  155MOL0     N20378   4.676   8.262   4.349  0.2213 -0.0869  0.7680
  155MOL0     N20379   4.692   8.157   4.275 -0.4113  0.4837  1.0015
  155MOL0     C20380   5.583   7.879   3.536 -0.8001 -0.8072 -0.4337
  155MOL0     C20381   5.693   7.872   3.454 -0.4161  0.0353  0.1049
  155MOL0     C20382   5.947   7.695   3.130 -0.5459 -0.3717 -0.3003
  155MOL0     C20383   6.046   7.595   3.151  0.3542 -0.2722  0.9285
  155MOL0     C20384   6.169   7.591   3.084  0.6064 -0.7112  1.0769
  155MOL0     C20385   6.197   7.698   2.997  0.1602  0.2836 -0.6331
  155MOL0     O20386   6.316   7.707   2.932  0.2490  0.7990 -0.1974
  155MOL0     C20387   6.421   7.611   2.963  0.4287  0.2065  0.6748
  155MOL0     C20388   6.540   7.665   2.883 -0.6274  1.1339 -0.2165
  155MOL0     C20389   6.677   7.588   2.900 -0.5751 -0.0726  0.4266
  155MOL0     C20390   6.702   7.464   2.803 -0.2661  0.2867  0.4606
  155MOL0     C20391   6.728   7.530   2.673 -0.4930 -0.0396  0.0066
  155MOL0     C20392   6.750   7.580   2.569 -0.2679  1.0594  0.1177
  155MOL0     C20393   6.099   7.797   2.983  0.9033 -0.2685  1.1775
  155MOL0     C20394   5.978   7.802   3.044 -0.1496 -0.1641 -0.2221
  155MOL0     H20395   5.542   7.805   3.167 -0.3216 -0.1432  0.5098
  155MOL0     H20396   5.340   7.833   3.310  0.2740 -0.5760  0.2288
  155MOL0     H20397   5.395   7.887   3.762 -2.7549 -1.2679  2.0042
  155MOL0     H20398   5.398   7.739   3.664 -2.7533 -2.6147 -2.3652
  155MOL0     H20399   5.189   7.745   3.804 -1.0786  0.0949  0.5195
  155MOL0     H20400   5.147   7.763   3.630  1.9292 -1.2030 -0.2116
  155MOL0     H20401   5.106   7.986   3.651 -1.7711  0.3543  0.6357
  155MOL0     H20402   5.160   7.981   3.821 -1.5635  1.2992 -1.0519
  155MOL0     H20403   4.927   7.833   3.700 -2.1286 -2.1944  1.8826
  155MOL0     H20404   4.990   7.830   3.871 -0.3763 -0.8858 -0.3771
  155MOL0     H20405   4.875   8.065   3.731 -0.1141 -2.3600 -1.8605
  155MOL0     H20406   4.965   8.061   3.891  0.3508  0.7794 -0.7807
  155MOL0     H20407   4.778   7.879   3.957 -0.5214  0.7079  1.4524
  155MOL0     H20408   4.694   7.951   3.815  0.8626 -0.2419 -0.6737
  155MOL0     H20409   4.798   8.122   4.031 -0.5221 -0.9335  0.8513
  155MOL0     H20410   4.676   8.169   3.911 -1.7183 -0.0917 -0.1489
  155MOL0     H20411   4.597   7.960   4.105 -0.2914  0.1525  0.1970
  155MOL0     H20412   4.505   8.082   4.009  0.5474  3.5757  0.0591
  155MOL0     H20413   4.419   8.298   4.147 -3.1790  0.1441  3.6312
  155MOL0     H20414   4.584   8.484   4.452 -0.4475 -2.1253  0.6456
  155MOL0     H20415   4.420   8.451   4.421 -0.5825  0.5347  0.7211
  155MOL0     H20416   4.426   8.645   4.307 -0.8293 -0.5580 -1.7075
  155MOL0     H20417   4.440   8.529   4.183  0.8501  1.6206 -1.4243
  155MOL0     H20418   4.699   8.614   4.279  1.1756  1.4932 -0.9885
  155MOL0     H20419   4.666   8.544   4.125  2.9352  0.8396  0.4484
  155MOL0     H20420   4.556   8.770   4.055 -0.5959  4.7553  0.5994
  155MOL0     H20421   4.722   8.784   4.102 -0.3515  0.7085  0.6340
  155MOL0     H20422   4.529   8.957   4.488 -0.2084 -0.6114 -0.2953
  155MOL0     H20423   4.669   8.992   4.668  0.3373 -0.1725  0.4423
  155MOL0     H20424   4.946   9.078   5.043 -2.4395  3.1434 -2.2943
  155MOL0     H20425   5.113   9.182   5.163  2.7246 -4.1704  0.0391
  155MOL0     H20426   5.378   9.446   4.939  2.9662 -2.5888 -2.8843
  155MOL0     H20427   5.519   9.378   5.012 -0.7441  0.7665 -1.8031
  155MOL0     H20428   5.540   9.580   5.098  0.1847  1.6989 -0.2681
  155MOL0     H20429   5.467   9.484   5.231 -1.4966  0.2817 -0.1751
  155MOL0     H20430   5.331   9.674   5.240 -3.2135  2.1897 -0.6815
  155MOL0     H20431   5.243   9.576   5.125 -0.7266  0.2980  0.5255
  155MOL0     H20432   5.423   9.813   5.064  2.2113 -3.3839 -3.0828
  155MOL0     H20433   5.347   9.719   4.936 -0.3634  0.7286 -0.5456
  155MOL0     H20434   5.117   9.767   4.984 -3.9276  2.5086  1.1104
  155MOL0     H20435   5.215   9.918   4.977  2.8266 -0.2205  1.0007
  155MOL0     H20436   5.104   9.763   5.212 -1.0031 -0.9055  0.0278
  155MOL0     H20437   5.062   9.925   5.157  0.4282 -0.1060 -0.3831
  155MOL0     H20438   5.273   9.835   5.350  3.7230  0.0829 -0.9589
  155MOL0     H20439   5.340   9.957   5.237 -0.3687 -1.3019 -3.4731
  155MOL0     H20440   5.062   9.997   5.349 -2.1616  3.5992 -3.7967
  155MOL0     H20441   5.166  10.110   5.263  0.4971  2.7456  3.5244
  155MOL0     H20442   5.304   9.301   4.801  1.0358 -1.9516  0.5555
  155MOL0     H20443   5.133   9.192   4.672  0.4618  1.6698 -0.7921
  155MOL0     H20444   5.001   8.819   4.438  1.1713  3.4674 -0.0372
  155MOL0     H20445   4.856   8.779   4.260  1.6172 -0.0703  0.4468
  155MOL0     H20446   5.589   7.899   3.643  1.8119  1.7568 -0.9249
  155MOL0     H20447   5.785   7.880   3.510 -0.8584 -2.3614  1.3134
  155MOL0     H20448   6.029   7.528   3.235  0.5177  2.5392  3.3537
  155MOL0     H20449   6.230   7.505   3.107  0.2461 -1.1409  0.4476
  155MOL0     H20450   6.386   7.514   2.926 -3.3602  1.0541  1.5217
  155MOL0     H20451   6.456   7.610   3.066  1.8092  0.4454  0.2217
  155MOL0     H20452   6.513   7.649   2.778 -0.1051 -0.3043 -0.1551
  155MOL0     H20453   6.564   7.769   2.906  3.2051 -0.1757  2.8044
  155MOL0     H20454   6.666   7.549   3.001 -0.5759  0.4926  0.6473
  155MOL0     H20455   6.757   7.662   2.892 -1.5436  0.7772 -3.1274
  155MOL0     H20456   6.775   7.386   2.824  0.5796 -0.6823 -4.6169
  155MOL0     H20457   6.611   7.407   2.778 -0.1204  1.3723 -3.1244
  155MOL0     H20458   6.782   7.622   2.476  0.4611 -0.6977 -0.4694
  155MOL0     H20459   6.114   7.881   2.917 -1.1666  0.5228  1.6358
  155MOL0     H20460   5.911   7.886   3.026  0.7151  1.4101  3.1956
  156MOL0     O20461   4.867   7.033  10.201 -0.0490 -0.2136 -0.5721
  156MOL0     C20462   4.924   6.980  10.298  0.5249  0.1403 -0.1450
  156MOL0     O20463   4.968   6.854  10.304  0.0469 -1.0719 -0.1379
  156MOL0     C20464   4.955   6.765  10.200 -0.3215 -0.2992  0.0640
  156MOL0     C20465   5.028   6.781  10.082 -0.2638 -0.3294 -0.0422
  156MOL0     C20466   5.009   6.691   9.978 -0.7668 -0.0795 -0.6422
  156MOL0     C20467   4.948   6.569  10.001 -0.6254 -0.5980 -0.0629
  156MOL0     O20468   4.953   6.466   9.907 -0.6870  0.0579 -0.5613
  156MOL0     C20469   4.991   6.490   9.774  0.6682 -1.3782 -0.0033
  156MOL0     C20470   5.141   6.487   9.750  0.5961 -0.7209  0.1433
  156MOL0     C20471   5.191   6.476   9.604 -0.2684  0.0430 -0.1091
  156MOL0     C20472   5.184   6.607   9.520  0.0067  0.1509  0.9648
  156MOL0     C20473   5.048   6.631   9.450  0.0750  0.5671  0.9193
  156MOL0     C20474   5.024   6.757   9.367  0.1908 -0.0590  0.1282
  156MOL0     C20475   4.870   6.763   9.314 -0.0654  0.2964 -0.2099
  156MOL0     C20476   4.863   6.841   9.183  0.4678  0.3039  0.1339
  156MOL0     N20477   4.919   6.972   9.212 -1.0673  0.8858  0.1707
  156MOL0     C20478   4.845   7.079   9.257  1.4500 -0.3510  0.7715
  156MOL0     C20479   4.924   7.180   9.284 -0.3632 -0.6773 -0.3773
  156MOL0     C20480   4.895   7.312   9.344 -0.9897 -0.5532  0.0932
  156MOL0     C20481   4.856   7.420   9.240 -0.3811 -0.2019 -0.3866
  156MOL0     C20482   4.766   7.365   9.126 -0.0690  0.4020 -0.1348
  156MOL0     C20483   4.627   7.345   9.175  0.2473  0.0953  0.3576
  156MOL0     O20484   4.571   7.476   9.199 -0.2860 -0.4403 -1.1541
  156MOL0     C20485   4.458   7.501   9.125  0.7220  0.3130 -0.8141
  156MOL0     C20486   4.341   7.541   9.189 -0.1369 -0.5590  0.3656
  156MOL0     C20487   4.211   7.568   9.131  0.0762  0.5232  0.3792
  156MOL0     C20488   4.209   7.563   8.991  0.2616 -0.5556 -0.0892
  156MOL0     C20489   4.097   7.616   8.911 -0.2719 -0.4866  0.7024
  156MOL0     O20490   4.092   7.591   8.779 -0.0700 -0.5112  0.7500
  156MOL0     C20491   3.982   7.626   8.694  1.1068 -0.6470  0.1324
  156MOL0     C20492   3.890   7.733   8.710  0.6181  0.1356 -0.3848
  156MOL0     C20493   3.788   7.751   8.622  0.5333  0.7719 -0.0245
  156MOL0     C20494   3.768   7.653   8.523 -0.3889 -0.2163 -0.4447
  156MOL0     O20495   3.667   7.654   8.438  0.4983 -0.5396  0.1869
  156MOL0     C20496   3.540   7.699   8.489  0.2393 -1.3602  1.0659
  156MOL0     C20497   3.431   7.660   8.389  0.0350 -0.0527 -0.7278
  156MOL0     C20498   3.385   7.512   8.417  0.5732 -0.1152  0.0115
  156MOL0     C20499   3.283   7.466   8.313  0.1052 -0.5330 -0.6733
  156MOL0     C20500   3.253   7.314   8.336  0.4469  0.1626 -0.1391
  156MOL0     C20501   3.133   7.265   8.258  0.8503 -0.9685 -0.4393
  156MOL0     C20502   3.146   7.123   8.212  0.7802 -0.1686 -0.2771
  156MOL0     C20503   3.133   7.021   8.326 -0.0150  0.1673 -0.4560
  156MOL0    Cl20504   2.978   7.022   8.411  0.4296  0.2124 -0.0068
  156MOL0     C20505   3.858   7.559   8.503 -0.0450  1.1417  0.4073
  156MOL0     C20506   3.961   7.539   8.585 -0.6007  1.4754 -1.2661
  156MOL0     O20507   4.013   7.682   8.970 -0.8613 -0.1720 -0.3954
  156MOL0     C20508   4.324   7.523   8.921 -0.6846 -0.0034  0.5180
  156MOL0     C20509   4.443   7.484   8.990  0.5986  0.7259 -0.2551
  156MOL0     N20510   5.052   7.141   9.242 -0.6825 -0.6213  0.1314
  156MOL0     N20511   5.048   7.016   9.196 -0.0741  0.0587  0.5795
  156MOL0     C20512   4.896   6.544  10.126  0.2575 -0.5460  0.7781
  156MOL0     C20513   4.898   6.646  10.224 -0.0949  0.8134 -0.0866
  156MOL0     C20514   4.917   7.083  10.407  0.0447  0.0933 -0.7808
  156MOL0     C20515   5.019   7.075  10.504  0.0867  0.1612 -0.8332
  156MOL0     C20516   5.038   7.170  10.608  0.1180 -0.3550  0.6472
  156MOL0     C20517   4.948   7.281  10.619 -0.5060  0.7011  0.1895
  156MOL0     O20518   4.964   7.391  10.699 -0.0156  0.2758 -0.0134
  156MOL0     C20519   5.025   7.378  10.822  0.3472 -0.4804  0.5775
  156MOL0     C20520   4.986   7.503  10.900 -0.5715  0.0203 -0.6221
  156MOL0     C20521   5.058   7.623  10.843  0.6868  0.2279 -0.4645
  156MOL0     C20522   4.975   7.709  10.743 -0.7484  0.3806  0.1778
  156MOL0     C20523   4.878   7.802  10.804 -0.3998  1.0613  0.4623
  156MOL0     C20524   4.788   7.881  10.843  0.7166  0.3637 -0.1497
  156MOL0     C20525   4.852   7.299  10.519 -0.3524 -0.1726 -0.5427
  156MOL0     C20526   4.831   7.193  10.424  0.3783 -0.1865 -0.0086
  156MOL0     H20527   5.094   6.866  10.073 -1.6443  0.6930 -0.9593
  156MOL0     H20528   5.064   6.715   9.888  0.7769 -2.3684 -0.3841
  156MOL0     H20529   4.950   6.576   9.720  0.0424 -0.9479  1.1401
  156MOL0     H20530   4.953   6.401   9.723  1.6525 -2.2669  0.7918
  156MOL0     H20531   5.188   6.414   9.816 -0.8204 -0.8992  1.0052
  156MOL0     H20532   5.181   6.583   9.785 -0.2107  0.2659 -1.4844
  156MOL0     H20533   5.142   6.390   9.558  0.5462 -0.9930  0.8711
  156MOL0     H20534   5.298   6.458   9.618 -0.5181 -0.1413  1.9140
  156MOL0     H20535   5.192   6.685   9.596 -0.7432  2.8423 -1.5542
  156MOL0     H20536   5.265   6.628   9.450 -1.1929 -0.2426 -0.5823
  156MOL0     H20537   4.972   6.622   9.527 -0.5950 -2.8055  0.0535
  156MOL0     H20538   5.022   6.546   9.386 -3.3721  1.2340  1.2296
  156MOL0     H20539   5.091   6.764   9.280  1.6444 -0.2212  1.2084
  156MOL0     H20540   5.027   6.837   9.441 -1.9957  0.4191 -0.2114
  156MOL0     H20541   4.828   6.663   9.298  1.3390 -0.6062  1.4516
  156MOL0     H20542   4.815   6.807   9.398  0.6355  2.6913 -0.9149
  156MOL0     H20543   4.757   6.848   9.154  0.1418  1.1678  1.4579
  156MOL0     H20544   4.924   6.788   9.110  4.0810  1.7764  1.8510
  156MOL0     H20545   4.746   7.062   9.297  0.1763 -0.9056 -2.3142
  156MOL0     H20546   4.995   7.341   9.376  0.0059 -1.6307 -1.9191
  156MOL0     H20547   4.820   7.318   9.424 -1.2070  4.1613 -0.1658
  156MOL0     H20548   4.947   7.452   9.188 -0.1528 -0.5872 -0.2253
  156MOL0     H20549   4.818   7.499   9.306 -0.1985 -0.9881  0.6872
  156MOL0     H20550   4.764   7.441   9.048 -2.3158  1.3607  0.7871
  156MOL0     H20551   4.791   7.269   9.080 -2.1675 -0.4612  0.4218
  156MOL0     H20552   4.622   7.293   9.271  1.9746  0.6954  0.8084
  156MOL0     H20553   4.566   7.289   9.104  0.0638  0.6664  0.0637
  156MOL0     H20554   4.338   7.555   9.296 -2.6097 -1.7699  0.5372
  156MOL0     H20555   4.129   7.593   9.196 -2.3096 -3.3748 -0.8362
  156MOL0     H20556   3.912   7.809   8.784 -2.2867  3.7400 -2.8280
  156MOL0     H20557   3.726   7.837   8.641 -0.3504 -0.4796  3.6000
  156MOL0     H20558   3.543   7.808   8.476  4.5806 -1.5828 -2.0369
  156MOL0     H20559   3.513   7.660   8.587 -2.9520 -4.0604 -0.6990
  156MOL0     H20560   3.474   7.673   8.289 -0.4957  0.5781 -0.8750
  156MOL0     H20561   3.343   7.724   8.400 -1.0972 -1.0778 -3.2230
  156MOL0     H20562   3.349   7.495   8.518 -1.1371 -0.9677 -0.7012
  156MOL0     H20563   3.476   7.450   8.412  1.8698  1.7584 -0.7777
  156MOL0     H20564   3.193   7.528   8.313  2.4883  3.2799 -0.0326
  156MOL0     H20565   3.330   7.479   8.215 -0.1105  1.1035 -0.5766
  156MOL0     H20566   3.244   7.295   8.443 -1.3827  1.5959  0.0181
  156MOL0     H20567   3.341   7.264   8.296  0.6167 -0.0726  0.5243
  156MOL0     H20568   3.114   7.334   8.176 -0.7871 -1.3624 -0.4292
  156MOL0     H20569   3.047   7.276   8.325  1.8166  6.1638  0.4184
  156MOL0     H20570   3.058   7.096   8.153  0.5892  0.6701 -0.3791
  156MOL0     H20571   3.230   7.102   8.144  0.9939  1.6376 -0.6045
  156MOL0     H20572   3.220   7.035   8.390  1.2155  0.8597 -2.1985
  156MOL0     H20573   3.134   6.921   8.282 -3.7000 -0.8942  1.4107
  156MOL0     H20574   3.835   7.498   8.416 -4.3978  2.6876  0.2230
  156MOL0     H20575   4.031   7.456   8.579 -2.5881 -0.4566  0.2723
  156MOL0     H20576   4.334   7.531   8.813 -0.0399 -1.7572  0.4122
  156MOL0     H20577   4.531   7.452   8.935  2.8627  0.2350  3.3472
  156MOL0     H20578   4.850   6.448  10.145  0.7622 -0.8521  0.4877
  156MOL0     H20579   4.855   6.609  10.317  1.0647 -3.9852 -1.2003
  156MOL0     H20580   5.084   6.988  10.510 -3.4894 -2.7351 -0.2064
  156MOL0     H20581   5.126   7.163  10.671  0.6115 -1.0051 -0.1018
  156MOL0     H20582   5.133   7.392  10.813  0.3830  1.9498  3.4062
  156MOL0     H20583   4.999   7.283  10.869 -1.0499 -0.1404  0.5299
  156MOL0     H20584   4.880   7.526  10.912 -0.3144  1.3058 -0.6992
  156MOL0     H20585   5.025   7.485  11.001  1.8907  2.2147 -1.0607
  156MOL0     H20586   5.156   7.610  10.797  2.7985  1.9779  3.0968
  156MOL0     H20587   5.081   7.682  10.932  1.9865  1.0799 -1.3219
  156MOL0     H20588   5.047   7.763  10.681 -0.3260 -1.5462 -1.0986
  156MOL0     H20589   4.928   7.645  10.668 -1.4328  1.1599 -0.0735
  156MOL0     H20590   4.734   7.966  10.879 -1.6722 -1.7441  1.5556
  156MOL0     H20591   4.779   7.379  10.522  0.9646  1.1543  3.7229
  156MOL0     H20592   4.744   7.218  10.364  1.5049  0.9749 -1.2256
  157MOL0     O20593   3.936   2.444   3.127  0.4829  0.7115  0.3568
  157MOL0     C20594   4.016   2.357   3.087 -0.1940  0.6200  0.3042
  157MOL0     O20595   4.141   2.382   3.036 -0.9455 -0.4503  0.2119
  157MOL0     C20596   4.183   2.508   3.027  0.5926 -0.1986 -0.2159
  157MOL0     C20597   4.261   2.540   2.913 -0.6000  0.7099 -0.3140
  157MOL0     C20598   4.325   2.663   2.909  0.4987 -0.4093  0.1562
  157MOL0     C20599   4.304   2.755   3.008 -0.1178  0.1062 -0.5085
  157MOL0     O20600   4.362   2.877   2.990  0.0643  1.0109 -0.7031
  157MOL0     C20601   4.384   2.968   3.110  0.8817 -0.0943 -0.6954
  157MOL0     C20602   4.465   3.090   3.068 -0.9088 -0.3424 -0.0994
  157MOL0     C20603   4.479   3.192   3.176 -0.7841  0.5273 -0.7258
  157MOL0     C20604   4.526   3.333   3.132 -0.2750  0.4197  0.5047
  157MOL0     C20605   4.667   3.337   3.058 -0.6826  0.8857  0.1443
  157MOL0     C20606   4.701   3.485   3.015 -0.3282  0.6402  0.3671
  157MOL0     C20607   4.845   3.486   2.959  0.6223  0.8895  0.3399
  157MOL0     C20608   4.904   3.625   2.972 -0.1235 -0.4620  0.3104
  157MOL0     N20609   5.046   3.637   2.923  0.4051 -1.0737 -0.3292
  157MOL0     C20610   5.090   3.694   2.809 -0.5058 -0.6193 -0.0898
  157MOL0     C20611   5.225   3.691   2.823  0.2178  0.6307  0.7511
  157MOL0     C20612   5.330   3.744   2.726  0.9432 -0.1062 -0.1411
  157MOL0     C20613   5.315   3.719   2.577  0.2332  0.8908  0.0609
  157MOL0     C20614   5.328   3.568   2.543  0.6948  0.1367  0.5636
  157MOL0     C20615   5.324   3.542   2.389  0.1002  0.2342  0.0098
  157MOL0     O20616   5.335   3.403   2.355 -0.8208 -0.6407 -0.1217
  157MOL0     C20617   5.331   3.364   2.225  0.1504 -0.5312 -0.3625
  157MOL0     C20618   5.304   3.452   2.120  0.0822  0.4302 -0.1982
  157MOL0     C20619   5.308   3.413   1.992 -0.3024  0.3171  0.6901
  157MOL0     C20620   5.330   3.282   1.957  0.7806 -0.6059  0.9749
  157MOL0     C20621   5.347   3.251   1.819 -0.2787 -0.8848 -0.4140
  157MOL0     O20622   5.346   3.359   1.739 -0.3590  0.0269 -0.3640
  157MOL0     C20623   5.334   3.333   1.606  1.1386 -0.2302  0.0655
  157MOL0     C20624   5.439   3.300   1.519 -0.5918  0.0116  0.5421
  157MOL0     C20625   5.409   3.266   1.385  0.3070 -0.1903 -0.4197
  157MOL0     C20626   5.271   3.256   1.351 -0.0687  0.3473 -0.4894
  157MOL0     O20627   5.224   3.217   1.230 -0.1604  0.4736 -0.2237
  157MOL0     C20628   5.307   3.160   1.125 -0.2924 -0.2047 -0.6937
  157MOL0     C20629   5.230   3.113   1.013  0.8972 -0.9379  0.2007
  157MOL0     C20630   5.296   3.064   0.881  0.7701 -0.3640  0.0562
  157MOL0     C20631   5.402   3.160   0.839  1.0184 -0.3135 -0.2509
  157MOL0     C20632   5.454   3.119   0.697 -1.3779  0.6807  0.0588
  157MOL0     C20633   5.527   2.985   0.682 -0.8797  0.6805  0.8382
  157MOL0     C20634   5.679   2.988   0.734  0.3926  0.5489  0.4784
  157MOL0     C20635   5.770   2.994   0.610  0.4156  0.2114  0.0139
  157MOL0    Cl20636   5.925   3.063   0.654 -0.2420 -0.2472 -0.0369
  157MOL0     C20637   5.167   3.284   1.441  0.7846 -1.1068 -0.5432
  157MOL0     C20638   5.200   3.333   1.571  0.9806 -0.4317  1.1590
  157MOL0     O20639   5.346   3.138   1.776 -0.4955  0.2145 -0.1862
  157MOL0     C20640   5.336   3.184   2.057 -0.8958  1.2094  0.8131
  157MOL0     C20641   5.347   3.228   2.193 -0.6500  0.5554 -0.9577
  157MOL0     N20642   5.256   3.639   2.942 -0.4700  0.5979 -0.0980
  157MOL0     N20643   5.148   3.615   3.009  0.8620  0.7953  0.5814
  157MOL0     C20644   4.223   2.730   3.116  0.1177  0.1921  0.2172
  157MOL0     C20645   4.162   2.609   3.125  0.4813  1.0882 -0.5276
  157MOL0     C20646   3.970   2.220   3.078  0.1905  0.5090 -0.7056
  157MOL0     C20647   4.042   2.118   3.009 -0.5305  0.6089 -0.1335
  157MOL0     C20648   3.983   1.990   2.995  0.2378 -0.1419  0.4814
  157MOL0     C20649   3.865   1.951   3.060  0.5978 -0.3819  0.2771
  157MOL0     O20650   3.828   1.817   3.055 -0.2852 -0.0454 -0.6185
  157MOL0     C20651   3.699   1.799   3.125 -0.6114  0.6464  0.3477
  157MOL0     C20652   3.647   1.655   3.142  0.3726 -0.2271  0.3031
  157MOL0     C20653   3.596   1.582   3.018 -0.3949 -0.0680 -0.4815
  157MOL0     C20654   3.570   1.436   3.050 -0.4562 -0.7023 -0.2784
  157MOL0     C20655   3.588   1.365   2.925 -1.1427 -0.5191 -0.5685
  157MOL0     C20656   3.600   1.305   2.821 -0.7438  0.4248  1.3265
  157MOL0     C20657   3.787   2.058   3.125 -0.3271  0.3070 -0.1504
  157MOL0     C20658   3.841   2.187   3.132  0.3408 -0.3343 -0.4255
  157MOL0     H20659   4.274   2.471   2.831 -0.9171  3.3379 -2.6963
  157MOL0     H20660   4.394   2.679   2.827 -2.2409  3.3683 -1.6732
  157MOL0     H20661   4.428   2.923   3.200 -0.2683  0.8255  0.3727
  157MOL0     H20662   4.284   3.001   3.142  1.2878 -0.6454  1.2929
  157MOL0     H20663   4.406   3.139   2.990  0.6533  2.5834  0.4165
  157MOL0     H20664   4.559   3.059   3.022 -2.0654 -0.3839 -2.6221
  157MOL0     H20665   4.561   3.148   3.232 -0.2571  1.8409 -0.4399
  157MOL0     H20666   4.379   3.195   3.222 -0.9253 -0.0349 -0.9778
  157MOL0     H20667   4.451   3.383   3.070  1.2179  2.9231  0.5684
  157MOL0     H20668   4.537   3.401   3.217 -4.0409  4.6459 -1.9403
  157MOL0     H20669   4.679   3.282   2.964 -1.6026  2.4259 -0.9106
  157MOL0     H20670   4.738   3.291   3.127 -0.4196 -0.5950 -1.0544
  157MOL0     H20671   4.689   3.557   3.096 -0.8560  0.8549  0.1046
  157MOL0     H20672   4.631   3.522   2.939 -1.0209 -0.8964  0.2279
  157MOL0     H20673   4.911   3.426   3.022 -0.4423  0.6326  1.2468
  157MOL0     H20674   4.850   3.456   2.854 -1.4000  2.7355 -0.3562
  157MOL0     H20675   4.902   3.655   3.077  0.2275  0.1584  0.1472
  157MOL0     H20676   4.838   3.684   2.907  0.2602 -1.8836 -1.4469
  157MOL0     H20677   5.035   3.732   2.723 -0.1208  0.9675  0.3295
  157MOL0     H20678   5.431   3.721   2.760  1.3998  0.7631 -0.8747
  157MOL0     H20679   5.312   3.852   2.728 -0.2493 -0.2907 -0.1708
  157MOL0     H20680   5.373   3.796   2.526 -4.0997  4.2579 -0.3365
  157MOL0     H20681   5.211   3.740   2.554 -0.6588 -0.9193  2.0453
  157MOL0     H20682   5.431   3.541   2.568  0.3587 -0.4522  1.3320
  157MOL0     H20683   5.260   3.505   2.599  2.9886 -2.0007  1.1216
  157MOL0     H20684   5.387   3.608   2.330  0.2803 -0.6391 -0.8065
  157MOL0     H20685   5.220   3.569   2.369  0.0497 -1.0455 -1.7001
  157MOL0     H20686   5.289   3.559   2.135 -0.2405  0.2789  0.6348
  157MOL0     H20687   5.286   3.489   1.917 -0.5065 -0.8317 -0.4631
  157MOL0     H20688   5.539   3.286   1.559 -0.4287 -2.5695 -0.5553
  157MOL0     H20689   5.479   3.238   1.307 -1.9982 -1.5905 -2.1047
  157MOL0     H20690   5.374   3.078   1.153  0.7572  0.9851  0.4173
  157MOL0     H20691   5.378   3.236   1.090  0.8053 -0.0959  1.5521
  157MOL0     H20692   5.175   3.201   0.978  1.4718 -1.3769 -1.9702
  157MOL0     H20693   5.162   3.037   1.053  1.6284 -3.6949 -3.2516
  157MOL0     H20694   5.213   3.067   0.811 -1.9940 -2.2040  2.9541
  157MOL0     H20695   5.330   2.960   0.889 -0.3470 -0.8203 -0.8569
  157MOL0     H20696   5.363   3.260   0.819 -3.0868 -1.8999 -1.1177
  157MOL0     H20697   5.489   3.164   0.905 -0.1832  0.8971  1.3487
  157MOL0     H20698   5.527   3.194   0.664  1.6362 -0.8666  2.5918
  157MOL0     H20699   5.365   3.112   0.635 -1.4059  0.1700  0.1519
  157MOL0     H20700   5.520   2.961   0.576  1.0358  0.2538  0.7671
  157MOL0     H20701   5.485   2.895   0.728 -2.5010 -1.2107 -3.7554
  157MOL0     H20702   5.678   3.087   0.780  0.0293  1.2797 -1.0330
  157MOL0     H20703   5.696   2.909   0.807 -0.3585  2.4328  2.7980
  157MOL0     H20704   5.727   3.066   0.539  1.8608  0.6350 -0.4684
  157MOL0     H20705   5.775   2.896   0.562 -1.5210  0.6929 -1.2901
  157MOL0     H20706   5.065   3.277   1.405 -0.9356  2.1875  2.8950
  157MOL0     H20707   5.119   3.359   1.639  0.4519  1.2798 -0.0488
  157MOL0     H20708   5.343   3.077   2.039 -3.2037  1.4162 -2.0938
  157MOL0     H20709   5.379   3.158   2.270 -0.2494  2.5193  0.7427
  157MOL0     H20710   4.210   2.800   3.198  1.9427  0.3426  0.4373
  157MOL0     H20711   4.125   2.582   3.224  0.7386 -0.1944 -0.7640
  157MOL0     H20712   4.137   2.136   2.960  0.8567 -2.9349  0.9464
  157MOL0     H20713   4.031   1.918   2.930 -0.8977 -0.2497 -0.2556
  157MOL0     H20714   3.620   1.855   3.073 -0.0529 -1.1530 -2.6644
  157MOL0     H20715   3.711   1.850   3.221 -2.1667  1.3477  0.2111
  157MOL0     H20716   3.725   1.601   3.196 -1.1929  0.6742  3.8033
  157MOL0     H20717   3.563   1.665   3.212  1.4779 -2.0384  2.0085
  157MOL0     H20718   3.679   1.593   2.948  1.2836 -2.2599  1.0529
  157MOL0     H20719   3.511   1.635   2.973  1.5907  2.1518 -1.8519
  157MOL0     H20720   3.640   1.397   3.125 -1.1653 -1.2989  0.1024
  157MOL0     H20721   3.471   1.410   3.090  0.1431  2.6102  4.2632
  157MOL0     H20722   3.614   1.244   2.735 -1.4352  1.8327  0.1639
  157MOL0     H20723   3.692   2.047   3.176 -0.4462 -3.8686 -0.9043
  157MOL0     H20724   3.779   2.254   3.191  0.9294  0.7830 -1.0414
  158MOL0     O20725   4.390   3.084   4.133 -0.1638 -0.0391  0.3629
  158MOL0     C20726   4.304   3.031   4.204 -0.1386 -0.3065 -0.1456
  158MOL0     O20727   4.319   3.012   4.336 -1.2229  0.6514  0.3085
  158MOL0     C20728   4.442   3.039   4.385  0.0493  0.4972 -0.2365
  158MOL0     C20729   4.469   3.137   4.482 -1.6356 -0.5163  0.1369
  158MOL0     C20730   4.603   3.147   4.515  0.7118  0.5053 -0.4603
  158MOL0     C20731   4.705   3.063   4.479 -0.2094 -0.1932  0.1201
  158MOL0     O20732   4.832   3.064   4.532 -0.1948  0.3812  0.6408
  158MOL0     C20733   4.885   3.168   4.607 -0.1404 -0.5394  1.0252
  158MOL0     C20734   5.024   3.131   4.633 -0.3779  0.7431 -0.6964
  158MOL0     C20735   5.038   3.009   4.731  0.0276  0.0581 -0.1317
  158MOL0     C20736   5.190   2.991   4.763 -0.4922 -0.1795 -0.2200
  158MOL0     C20737   5.226   2.878   4.855 -0.7363  0.6666  0.3415
  158MOL0     C20738   5.381   2.874   4.862  1.1985  0.4928 -0.4000
  158MOL0     C20739   5.428   2.760   4.946 -0.7022 -0.8298 -0.2598
  158MOL0     C20740   5.555   2.696   4.891  0.1809 -0.3332  0.4172
  158MOL0     N20741   5.668   2.791   4.890 -0.6035  0.5498  0.4630
  158MOL0     C20742   5.730   2.854   4.999 -0.0553 -0.3500 -0.6865
  158MOL0     C20743   5.827   2.932   4.955  0.7731  0.3221  0.5239
  158MOL0     C20744   5.908   3.029   5.018  0.7468  0.0525 -0.4572
  158MOL0     C20745   5.955   3.140   4.927 -0.1822  0.3127  0.7061
  158MOL0     C20746   6.047   3.228   5.019  0.0612  0.1353 -0.8120
  158MOL0     C20747   6.106   3.351   4.941  0.1730 -0.2286  0.1596
  158MOL0     O20748   6.001   3.443   4.917  0.3372  0.4860  0.6913
  158MOL0     C20749   6.031   3.542   4.837  0.5640  0.3514 -0.4886
  158MOL0     C20750   5.990   3.528   4.706  1.0372  0.5456  0.3718
  158MOL0     C20751   6.036   3.622   4.611 -0.4182 -0.3968  1.1370
  158MOL0     C20752   6.132   3.714   4.640 -0.2364  0.1981 -0.4870
  158MOL0     C20753   6.185   3.808   4.543  0.0295 -0.5894 -0.3280
  158MOL0     O20754   6.266   3.915   4.589  0.2022  1.0441 -1.1692
  158MOL0     C20755   6.339   3.979   4.490 -0.5262  0.2390 -0.5752
  158MOL0     C20756   6.276   4.085   4.423 -0.3875 -1.2647 -0.4405
  158MOL0     C20757   6.358   4.176   4.360 -0.6229 -0.1434  0.4467
  158MOL0     C20758   6.497   4.166   4.347 -0.9637  0.9277  0.1202
  158MOL0     O20759   6.549   4.249   4.254 -0.4700 -1.0575 -0.3885
  158MOL0     C20760   6.666   4.198   4.180 -0.2922 -0.5617 -0.3293
  158MOL0     C20761   6.681   4.252   4.044  0.0664  1.1216 -0.7034
  158MOL0     C20762   6.682   4.405   4.031  0.4189  0.7155 -0.1856
  158MOL0     C20763   6.687   4.453   3.885 -1.1299 -0.0530 -1.0857
  158MOL0     C20764   6.683   4.607   3.881  0.1162  0.5780 -0.0242
  158MOL0     C20765   6.640   4.673   3.747  0.3865  0.3474  0.2516
  158MOL0     C20766   6.693   4.811   3.700  0.4014  0.4362  0.0388
  158MOL0     C20767   6.680   4.934   3.792 -0.4584  0.2753 -0.0697
  158MOL0    Cl20768   6.505   4.963   3.834 -0.1210  0.0576 -0.0618
  158MOL0     C20769   6.561   4.056   4.409  0.1900 -0.0939 -0.6666
  158MOL0     C20770   6.479   3.960   4.481 -0.3989 -0.4512  0.7863
  158MOL0     O20771   6.149   3.794   4.431 -0.6652  0.4476 -0.2265
  158MOL0     C20772   6.171   3.714   4.775 -0.1368  0.3285 -0.0032
  158MOL0     C20773   6.124   3.638   4.875  0.1762  0.3179  0.2755
  158MOL0     N20774   5.829   2.912   4.817  0.2930  0.0146  0.5465
  158MOL0     N20775   5.736   2.833   4.780  0.9367 -0.1504  1.0617
  158MOL0     C20776   4.672   2.956   4.397 -0.1970  0.3828 -1.0112
  158MOL0     C20777   4.547   2.948   4.350  0.4190 -0.3225 -0.0209
  158MOL0     C20778   4.166   2.998   4.138  0.6300 -0.3104  0.3455
  158MOL0     C20779   4.147   3.021   3.999  0.4207  0.2291 -0.8647
  158MOL0     C20780   4.026   2.968   3.945  0.0506  0.0578 -0.2173
  158MOL0     C20781   3.925   2.908   4.025 -0.6493 -0.5808  0.4069
  158MOL0     O20782   3.821   2.845   3.960 -0.5486  0.5040  0.0490
  158MOL0     C20783   3.820   2.706   3.983 -1.1482  0.0087 -0.4499
  158MOL0     C20784   3.700   2.645   3.909 -0.8391 -0.5493 -0.6649
  158MOL0     C20785   3.683   2.492   3.901 -0.0085 -1.4630  0.1040
  158MOL0     C20786   3.562   2.448   3.819 -0.2540  0.7261 -0.0425
  158MOL0     C20787   3.452   2.410   3.907  0.1232 -0.3519  0.6433
  158MOL0     C20788   3.365   2.387   3.988  0.6282  0.2385  0.1800
  158MOL0     C20789   3.942   2.898   4.162 -0.3987  0.7665 -0.2727
  158MOL0     C20790   4.066   2.937   4.213 -0.5904 -0.6231 -0.7070
  158MOL0     H20791   4.389   3.201   4.519 -1.4711  0.5653 -1.2856
  158MOL0     H20792   4.617   3.208   4.604  0.2972  1.5914 -1.1186
  158MOL0     H20793   4.826   3.168   4.699 -1.7481 -3.7825  0.1674
  158MOL0     H20794   4.860   3.262   4.556 -2.6360 -3.0953 -3.0361
  158MOL0     H20795   5.089   3.214   4.663  1.0232 -0.1276 -1.2720
  158MOL0     H20796   5.072   3.102   4.540  1.5732 -2.5410  1.1360
  158MOL0     H20797   5.004   2.915   4.686  0.4947 -0.2906  0.2210
  158MOL0     H20798   4.982   3.033   4.822 -1.4777  1.3754 -1.3598
  158MOL0     H20799   5.245   2.977   4.669 -0.4531 -2.0513  0.0418
  158MOL0     H20800   5.231   3.083   4.805 -1.3560 -1.3510  3.5501
  158MOL0     H20801   5.195   2.778   4.823  4.3440 -2.3004  3.2910
  158MOL0     H20802   5.181   2.902   4.952 -1.4179 -0.1580  0.2353
  158MOL0     H20803   5.420   2.969   4.901 -0.3616  0.4458  1.4337
  158MOL0     H20804   5.424   2.870   4.761 -0.4544 -1.6167 -1.0965
  158MOL0     H20805   5.431   2.795   5.050 -3.0782  1.7892 -0.9673
  158MOL0     H20806   5.347   2.687   4.935 -1.2385 -0.1672 -0.7519
  158MOL0     H20807   5.533   2.674   4.786  0.4244 -0.0399  0.3024
  158MOL0     H20808   5.569   2.605   4.949 -1.3202 -0.4078  0.6906
  158MOL0     H20809   5.698   2.833   5.100 -0.7967 -4.2740 -1.5861
  158MOL0     H20810   5.997   2.974   5.050  1.1007 -0.6056 -2.4060
  158MOL0     H20811   5.848   3.074   5.097  0.8838  1.8904 -1.3470
  158MOL0     H20812   5.866   3.193   4.894  2.6253  3.9705 -1.9315
  158MOL0     H20813   6.020   3.103   4.846  0.3013  2.6109 -0.0310
  158MOL0     H20814   5.984   3.260   5.102 -0.3897  2.2081 -1.9001
  158MOL0     H20815   6.131   3.168   5.057 -1.0808 -0.3368  1.1125
  158MOL0     H20816   6.167   3.324   4.854  3.3676 -0.4418  2.2629
  158MOL0     H20817   6.171   3.396   5.017 -1.7330 -2.3193  3.2610
  158MOL0     H20818   5.925   3.450   4.667  1.6490  0.1822  0.0661
  158MOL0     H20819   5.992   3.630   4.512 -3.9641  0.6661  2.6535
  158MOL0     H20820   6.171   4.112   4.428  0.6501  3.3047  2.9726
  158MOL0     H20821   6.302   4.249   4.302  1.3214  1.8783  0.9843
  158MOL0     H20822   6.645   4.094   4.157 -0.4639 -0.7877  0.7786
  158MOL0     H20823   6.758   4.198   4.240 -0.2034  0.8939 -0.4323
  158MOL0     H20824   6.593   4.218   3.989  0.2672 -1.6116  0.4931
  158MOL0     H20825   6.764   4.206   3.989 -1.2247 -1.4532 -0.6327
  158MOL0     H20826   6.767   4.452   4.080  1.2613  1.9205 -2.6264
  158MOL0     H20827   6.581   4.438   4.061  0.1740 -0.2692  0.0906
  158MOL0     H20828   6.784   4.423   3.846 -0.2158 -2.4422  2.5888
  158MOL0     H20829   6.596   4.420   3.833 -0.8400 -2.5846 -0.1514
  158MOL0     H20830   6.784   4.629   3.916  0.0902  2.5558 -1.0709
  158MOL0     H20831   6.620   4.641   3.964  2.2050 -0.9077  2.3011
  158MOL0     H20832   6.531   4.665   3.741  0.5247 -0.7622 -2.1596
  158MOL0     H20833   6.680   4.609   3.668  0.8827  0.3124  0.5293
  158MOL0     H20834   6.799   4.793   3.679  0.0271 -0.9339 -0.8083
  158MOL0     H20835   6.652   4.831   3.600 -0.0772  1.4230  0.4234
  158MOL0     H20836   6.714   5.013   3.724  0.6083 -0.2810 -0.2147
  158MOL0     H20837   6.746   4.923   3.878 -3.4337 -2.3783  2.0764
  158MOL0     H20838   6.666   4.039   4.387  0.5213 -2.9371  2.3413
  158MOL0     H20839   6.538   3.881   4.526  3.7020  1.6282 -0.4901
  158MOL0     H20840   6.250   3.787   4.790 -0.1144  0.3946 -0.4564
  158MOL0     H20841   6.163   3.650   4.976  0.9505 -0.1593  0.0448
  158MOL0     H20842   4.740   2.876   4.370  1.0378  0.5280  1.4093
  158MOL0     H20843   4.527   2.865   4.284  1.4490 -2.1958  1.9148
  158MOL0     H20844   4.219   3.065   3.931  0.4680 -0.1889 -1.0872
  158MOL0     H20845   4.023   2.972   3.836  0.4912 -5.7172 -0.7556
  158MOL0     H20846   3.812   2.688   4.091 -0.4662  4.4923  0.5577
  158MOL0     H20847   3.907   2.648   3.951 -3.0740 -2.3637 -1.7430
  158MOL0     H20848   3.605   2.691   3.940  1.0228  2.6889  0.6955
  158MOL0     H20849   3.717   2.670   3.804  1.2626  0.1321 -0.2051
  158MOL0     H20850   3.663   2.449   4.000 -0.5728 -1.1649  0.1252
  158MOL0     H20851   3.773   2.444   3.863  1.2664 -1.7535  3.1845
  158MOL0     H20852   3.529   2.540   3.771 -1.3496 -0.0692 -0.8662
  158MOL0     H20853   3.578   2.375   3.739 -2.5320  0.2689 -0.1661
  158MOL0     H20854   3.285   2.347   4.047  1.6865 -1.8185  0.3064
  158MOL0     H20855   3.870   2.864   4.236  2.3752  1.6628  3.0900
  158MOL0     H20856   4.066   2.937   4.321  3.4120  0.8678 -0.5289
  159MOL0     O20857  10.002   1.383   3.308 -0.0664  0.2183 -0.8529
  159MOL0     C20858   9.971   1.375   3.187  0.8257 -0.4785 -0.1046
  159MOL0     O20859  10.056   1.407   3.085 -0.1878 -0.2638 -0.2276
  159MOL0     C20860  10.176   1.451   3.132 -0.2274 -0.0395  0.1126
  159MOL0     C20861  10.195   1.588   3.135  0.1986  0.4566 -0.5245
  159MOL0     C20862  10.318   1.641   3.172  0.6666 -0.6608 -1.5326
  159MOL0     C20863  10.425   1.560   3.211 -0.1165  0.8837  0.5605
  159MOL0     O20864  10.545   1.604   3.259 -1.5387  0.5373  0.5153
  159MOL0     C20865  10.589   1.732   3.210  0.1311 -0.6263 -1.2878
  159MOL0     C20866  10.713   1.763   3.275 -0.0317  0.2019 -0.6347
  159MOL0     C20867  10.753   1.907   3.223  0.1688 -0.0541 -0.4035
  159MOL0     C20868  10.811   1.892   3.079  0.3669 -0.1253 -0.2979
  159MOL0     C20869  10.895   2.015   3.025  0.2423 -0.2119 -0.0299
  159MOL0     C20870  10.810   2.137   2.989  0.1028  1.4974 -1.0412
  159MOL0     C20871  10.889   2.263   2.939 -0.3938  1.0438  0.0301
  159MOL0     C20872  10.802   2.395   2.941  1.3170 -0.1881  0.1367
  159MOL0     N20873  10.886   2.504   2.891 -0.3873 -0.0936  0.2189
  159MOL0     C20874  11.013   2.542   2.923 -0.5811 -0.3759 -0.5925
  159MOL0     C20875  11.059   2.610   2.823 -0.3933 -1.3863 -0.6226
  159MOL0     C20876  11.196   2.673   2.804  0.3959  0.1606 -0.6028
  159MOL0     C20877  11.230   2.763   2.926 -0.8826 -0.5720 -0.3994
  159MOL0     C20878  11.133   2.876   2.948  0.5372  1.0590 -0.4010
  159MOL0     C20879  11.180   2.973   3.055  1.0066 -0.4605  0.2889
  159MOL0     O20880  11.073   3.067   3.087  0.2784  0.4041  0.5166
  159MOL0     C20881  11.087   3.145   3.201 -1.0287 -0.0880  0.2256
  159MOL0     C20882  10.981   3.240   3.232 -0.9363  0.0746  0.3672
  159MOL0     C20883  10.991   3.315   3.347  0.3121 -0.3441  0.5079
  159MOL0     C20884  11.109   3.307   3.427 -0.0904 -0.1617 -0.4110
  159MOL0     C20885  11.121   3.388   3.553 -0.2033  0.3109 -0.3297
  159MOL0     O20886  11.026   3.469   3.580 -0.2991 -0.0477 -0.1654
  159MOL0     C20887  11.055   3.574   3.663 -0.3747 -0.3177 -0.8067
  159MOL0     C20888  10.960   3.620   3.758 -0.0783  0.1793 -0.0934
  159MOL0     C20889  10.971   3.739   3.826  0.5935  0.0041  0.1385
  159MOL0     C20890  11.076   3.815   3.818 -0.5089 -0.5529  0.6318
  159MOL0     O20891  11.090   3.930   3.895 -0.5767  0.0009  0.1210
  159MOL0     C20892  11.186   4.032   3.866 -0.5766 -0.3828  0.3150
  159MOL0     C20893  11.317   4.011   3.937  0.1063 -0.6060  0.6727
  159MOL0     C20894  11.420   4.125   3.907  0.1524 -0.0548  0.2853
  159MOL0     C20895  11.497   4.113   3.778 -0.1513 -0.2068 -0.6218
  159MOL0     C20896  11.564   4.240   3.741 -0.1920  0.0033  0.3063
  159MOL0     C20897  11.617   4.326   3.855  0.2529 -0.6018 -0.5908
  159MOL0     C20898  11.705   4.448   3.816 -0.7767  0.3533 -0.5400
  159MOL0     C20899  11.781   4.492   3.939  0.2175 -0.6262 -0.2580
  159MOL0    Cl20900  11.882   4.634   3.911  0.1012 -0.0315 -0.4331
  159MOL0     C20901  11.177   3.775   3.722  0.1925  0.4701 -0.6425
  159MOL0     C20902  11.177   3.651   3.652 -0.2930 -0.2655  0.6351
  159MOL0     O20903  11.221   3.368   3.624  0.0556 -0.2907 -0.8496
  159MOL0     C20904  11.202   3.209   3.406  0.6279 -0.2921  0.3312
  159MOL0     C20905  11.198   3.131   3.283  0.3387 -0.1769 -0.8539
  159MOL0     N20906  10.965   2.619   2.730  0.7980  0.2128  0.3366
  159MOL0     N20907  10.852   2.565   2.771  0.3480 -0.7677 -0.1878
  159MOL0     C20908  10.402   1.414   3.218 -0.2160 -0.2870 -0.5239
  159MOL0     C20909  10.282   1.363   3.172  0.4795  0.4301  0.1074
  159MOL0     C20910   9.836   1.324   3.148  0.2990 -0.5284  0.3538
  159MOL0     C20911   9.721   1.352   3.227 -0.3675  0.1418 -0.6599
  159MOL0     C20912   9.596   1.315   3.182  0.4869 -0.0173 -0.2905
  159MOL0     C20913   9.575   1.265   3.052 -0.2155 -0.1831 -0.3290
  159MOL0     O20914   9.451   1.230   3.021 -0.3373 -0.2423 -0.2407
  159MOL0     C20915   9.372   1.329   2.946  0.2216 -0.2093  0.2905
  159MOL0     C20916   9.295   1.267   2.833  0.2047  0.8671 -0.8120
  159MOL0     C20917   9.184   1.362   2.778  0.6169  0.0731 -0.3667
  159MOL0     C20918   9.225   1.468   2.679 -0.0461 -0.3591 -0.1182
  159MOL0     C20919   9.265   1.413   2.557 -0.2675  0.0075  0.2178
  159MOL0     C20920   9.268   1.382   2.438 -0.3191  0.2571  0.3471
  159MOL0     C20921   9.688   1.246   2.967 -0.2452  0.3331 -0.0027
  159MOL0     C20922   9.823   1.266   3.026  0.6467 -0.4127 -0.5130
  159MOL0     H20923  10.108   1.651   3.121  0.3053  2.7031  5.7944
  159MOL0     H20924  10.334   1.748   3.170  3.1252 -0.9767 -2.8698
  159MOL0     H20925  10.519   1.804   3.255  0.0522 -0.0184 -2.3544
  159MOL0     H20926  10.596   1.741   3.102  2.1175 -2.3272 -1.3478
  159MOL0     H20927  10.794   1.692   3.258 -1.8500 -1.3862 -3.4459
  159MOL0     H20928  10.695   1.764   3.383  0.4294  0.5474 -0.5591
  159MOL0     H20929  10.828   1.960   3.282 -0.0667 -2.8475  2.6739
  159MOL0     H20930  10.667   1.974   3.223  1.1964  1.3018  0.2289
  159MOL0     H20931  10.891   1.818   3.067  1.1011  0.2169  1.9296
  159MOL0     H20932  10.726   1.876   3.013 -1.1505 -0.9638  1.7649
  159MOL0     H20933  10.953   1.997   2.934  1.4244  0.1239  0.6304
  159MOL0     H20934  10.972   2.038   3.099  1.6166 -0.2795 -1.3957
  159MOL0     H20935  10.750   2.166   3.075  0.0490  0.8632 -0.8584
  159MOL0     H20936  10.735   2.103   2.917 -1.6867 -1.9407  2.1539
  159MOL0     H20937  10.975   2.279   3.005  0.4168 -2.0583 -0.1541
  159MOL0     H20938  10.937   2.238   2.845 -0.2894  0.2537  0.2872
  159MOL0     H20939  10.763   2.421   3.040 -2.6822 -0.3364 -1.2171
  159MOL0     H20940  10.707   2.372   2.892  1.7024  1.0085 -1.2371
  159MOL0     H20941  11.054   2.517   3.020 -0.8983  2.7870  0.4813
  159MOL0     H20942  11.204   2.733   2.713 -1.7006 -1.1429 -1.7112
  159MOL0     H20943  11.273   2.596   2.816  0.1734 -0.0495 -0.5180
  159MOL0     H20944  11.331   2.803   2.912 -0.9807  0.1124  0.6940
  159MOL0     H20945  11.234   2.699   3.016 -1.3901  0.0953  0.1053
  159MOL0     H20946  11.133   2.923   2.849  3.3380 -2.4444 -2.2782
  159MOL0     H20947  11.037   2.844   2.988  0.9585  0.7112  0.3406
  159MOL0     H20948  11.265   3.026   3.011 -0.9484 -0.0439 -3.3794
  159MOL0     H20949  11.207   2.916   3.145  2.8876 -0.7642 -0.4420
  159MOL0     H20950  10.898   3.248   3.162 -1.7637 -0.3477  1.2784
  159MOL0     H20951  10.908   3.379   3.372 -2.9486 -2.2867 -4.0436
  159MOL0     H20952  10.869   3.562   3.754 -0.5529  0.3502  4.1659
  159MOL0     H20953  10.882   3.773   3.878 -0.3095 -4.1768  1.7326
  159MOL0     H20954  11.156   4.130   3.904  1.1186  0.3960 -0.2638
  159MOL0     H20955  11.196   4.049   3.758  0.6172  0.4068  0.5365
  159MOL0     H20956  11.371   3.919   3.919  0.1360 -0.4143 -0.2712
  159MOL0     H20957  11.293   4.015   4.044 -0.7265  2.9696  0.4896
  159MOL0     H20958  11.503   4.137   3.977  0.3030  0.7892 -0.0258
  159MOL0     H20959  11.369   4.222   3.904 -0.2908 -0.2669  0.6453
  159MOL0     H20960  11.576   4.038   3.792  0.6811  0.4463 -1.6756
  159MOL0     H20961  11.432   4.093   3.692  0.1465 -1.5952 -0.5529
  159MOL0     H20962  11.491   4.301   3.687 -1.4726 -1.1407  0.6648
  159MOL0     H20963  11.649   4.214   3.676 -0.0318 -0.9423  0.8633
  159MOL0     H20964  11.673   4.261   3.922  0.2596 -0.7266 -0.7160
  159MOL0     H20965  11.532   4.362   3.913  0.9304 -0.3293  0.2438
  159MOL0     H20966  11.780   4.428   3.739  2.5857  0.6581  2.4270
  159MOL0     H20967  11.642   4.531   3.782  2.4851  1.4933 -4.6144
  159MOL0     H20968  11.857   4.419   3.966  1.7337  1.4310  1.3375
  159MOL0     H20969  11.711   4.506   4.022 -1.3253 -1.4455 -1.3665
  159MOL0     H20970  11.264   3.835   3.698 -0.8708  1.9121 -0.9771
  159MOL0     H20971  11.259   3.629   3.585 -0.9677  2.7681 -1.3406
  159MOL0     H20972  11.290   3.200   3.468 -0.1665 -3.8001  1.1636
  159MOL0     H20973  11.276   3.055   3.280  1.8048  1.2914 -1.0002
  159MOL0     H20974  10.481   1.350   3.256 -0.1801 -0.7498 -1.3417
  159MOL0     H20975  10.263   1.258   3.155 -1.9489  0.8357 -0.0047
  159MOL0     H20976   9.727   1.415   3.315  0.9236 -0.3004 -0.4025
  159MOL0     H20977   9.510   1.352   3.238  0.4955  4.4048 -2.7173
  159MOL0     H20978   9.426   1.414   2.904 -1.4249 -0.4454 -2.5714
  159MOL0     H20979   9.310   1.376   3.023 -0.1491 -1.4752  0.8023
  159MOL0     H20980   9.379   1.240   2.768  3.9270 -1.6635  4.3239
  159MOL0     H20981   9.239   1.180   2.868  2.8082 -0.6965 -0.2796
  159MOL0     H20982   9.143   1.415   2.865  3.2430 -0.3363  1.2331
  159MOL0     H20983   9.104   1.304   2.733  1.3968 -0.8330 -0.6177
  159MOL0     H20984   9.139   1.533   2.661  1.2057  0.9416 -1.6979
  159MOL0     H20985   9.300   1.538   2.715 -0.4431  0.1488 -0.2754
  159MOL0     H20986   9.287   1.343   2.340  0.3705  0.5708  0.3557
  159MOL0     H20987   9.678   1.207   2.866 -1.3658  3.3265 -1.1584
  159MOL0     H20988   9.914   1.236   2.976  1.1941 -0.0001  0.2101
  160MOL0     O20989   9.152   6.419   1.451 -0.4953  0.1419 -0.4558
  160MOL0     C20990   9.220   6.379   1.549  0.9514  0.6449 -0.4634
  160MOL0     O20991   9.360   6.372   1.563  0.8130 -0.6603  0.0012
  160MOL0     C20992   9.428   6.434   1.464  0.5489 -0.7430 -0.1919
  160MOL0     C20993   9.460   6.386   1.338 -1.2845  0.6921 -0.6362
  160MOL0     C20994   9.531   6.468   1.240 -0.2720  0.2115  0.6370
  160MOL0     C20995   9.568   6.594   1.266 -0.8284  0.0370 -0.4836
  160MOL0     O20996   9.619   6.685   1.178  0.4734 -1.0459  0.5189
  160MOL0     C20997   9.525   6.760   1.097  0.5513 -0.5118  0.2115
  160MOL0     C20998   9.610   6.801   0.976  0.7042 -0.3293 -0.0246
  160MOL0     C20999   9.538   6.859   0.858 -0.0590  0.0175 -0.0033
  160MOL0     C21000   9.474   7.006   0.860  0.3278 -0.5597  0.0352
  160MOL0     C21001   9.584   7.112   0.873 -0.3575 -0.4498 -0.5773
  160MOL0     C21002   9.548   7.261   0.845 -0.1035 -0.4110 -0.0540
  160MOL0     C21003   9.472   7.337   0.949  0.5075 -0.0660 -0.0866
  160MOL0     C21004   9.548   7.343   1.082 -0.0094 -0.3940  0.1678
  160MOL0     N21005   9.662   7.436   1.079 -0.0662  0.1100  0.0774
  160MOL0     C21006   9.785   7.415   1.148 -0.0016  0.6306 -0.4481
  160MOL0     C21007   9.860   7.528   1.139  0.1444  0.0232 -0.0028
  160MOL0     C21008   9.991   7.567   1.205  0.4812 -0.5450 -0.4243
  160MOL0     C21009   9.984   7.708   1.260 -0.0642  1.6102  0.5614
  160MOL0     C21010  10.116   7.741   1.334 -0.2495 -0.3117 -0.1479
  160MOL0     C21011  10.117   7.877   1.421  1.0809 -0.4772  0.0439
  160MOL0     O21012  10.042   7.849   1.539  0.2700  0.3209 -0.5080
  160MOL0     C21013  10.102   7.866   1.657  0.7031  0.3978 -0.7814
  160MOL0     C21014  10.166   7.764   1.719 -1.3932 -0.2349  0.1734
  160MOL0     C21015  10.223   7.781   1.843  0.6846 -0.8587  0.2451
  160MOL0     C21016  10.211   7.910   1.891 -0.1107 -0.2898 -0.4232
  160MOL0     C21017  10.270   7.931   2.031  0.1217 -0.3927  0.2305
  160MOL0     O21018  10.328   7.821   2.092 -0.0993  0.1110  0.2237
  160MOL0     C21019  10.372   7.821   2.224 -0.1992  0.6017  0.5170
  160MOL0     C21020  10.342   7.707   2.298  1.1808 -0.3075  0.0935
  160MOL0     C21021  10.375   7.691   2.431  0.1672 -0.4542  0.5727
  160MOL0     C21022  10.461   7.797   2.494  0.8050 -0.6010 -1.0296
  160MOL0     O21023  10.506   7.766   2.618  0.1487  0.0856  0.7236
  160MOL0     C21024  10.558   7.865   2.716 -0.8180 -0.0614 -0.4190
  160MOL0     C21025  10.525   7.822   2.857  0.1725 -0.1120 -0.7017
  160MOL0     C21026  10.374   7.837   2.872  0.1374 -0.4239 -0.9254
  160MOL0     C21027  10.333   7.773   3.003  0.1034 -0.2138  0.3625
  160MOL0     C21028  10.181   7.759   3.016 -0.3656  0.2578  0.2564
  160MOL0     C21029  10.102   7.884   2.980 -0.3881 -0.5921 -0.6260
  160MOL0     C21030   9.949   7.860   2.997 -0.3189  0.1277 -0.6355
  160MOL0     C21031   9.869   7.841   2.875 -0.8790  0.7403  1.2125
  160MOL0    Cl21032   9.959   7.768   2.734  0.6957 -0.1877 -0.3667
  160MOL0     C21033  10.497   7.909   2.421 -0.2759 -0.4581 -0.8984
  160MOL0     C21034  10.462   7.917   2.280 -0.5323 -0.0582  0.5396
  160MOL0     O21035  10.251   8.038   2.084  0.7250  0.4593  0.0857
  160MOL0     C21036  10.135   8.016   1.839 -0.8969  0.6262  0.6193
  160MOL0     C21037  10.074   7.987   1.716 -0.3073  0.5659 -0.3179
  160MOL0     N21038   9.782   7.604   1.060  0.4899 -0.1874 -0.0675
  160MOL0     N21039   9.671   7.557   1.015 -0.7909 -0.1578  0.6651
  160MOL0     C21040   9.533   6.651   1.389  0.3313  1.1976 -0.1679
  160MOL0     C21041   9.471   6.574   1.489 -0.0898  0.9927 -0.3404
  160MOL0     C21042   9.137   6.326   1.668  0.6291  0.1588  0.3555
  160MOL0     C21043   9.009   6.370   1.704  0.9230  0.6071  0.2249
  160MOL0     C21044   8.935   6.325   1.813  0.0194  0.6860  1.0793
  160MOL0     C21045   8.995   6.221   1.893 -0.4285  0.4427  0.3311
  160MOL0     O21046   8.916   6.197   2.013 -0.4521  0.1775  1.0658
  160MOL0     C21047   8.957   6.067   2.066  0.1085 -0.9831 -0.0766
  160MOL0     C21048   8.843   6.029   2.147 -0.2809  0.1658 -0.2205
  160MOL0     C21049   8.852   5.894   2.221  0.0918 -0.6350 -0.1169
  160MOL0     C21050   8.749   5.863   2.318  0.7966  0.9671 -0.9596
  160MOL0     C21051   8.684   5.969   2.394  0.2544  0.6768  0.0751
  160MOL0     C21052   8.622   6.049   2.461 -0.4990  0.2917  1.1197
  160MOL0     C21053   9.122   6.163   1.856  0.7778 -0.5228  0.4054
  160MOL0     C21054   9.190   6.226   1.746 -0.5327  0.1943 -0.4505
  160MOL0     H21055   9.438   6.282   1.316  2.2529  0.1248 -2.2902
  160MOL0     H21056   9.558   6.431   1.141  1.8829  2.5197  0.2324
  160MOL0     H21057   9.481   6.842   1.154 -0.1181 -0.0939 -0.8738
  160MOL0     H21058   9.434   6.704   1.074 -2.4397  3.4382  1.3393
  160MOL0     H21059   9.666   6.714   0.940  1.7014  0.8604 -1.4517
  160MOL0     H21060   9.688   6.861   1.024 -0.7655  1.2707  0.4584
  160MOL0     H21061   9.469   6.784   0.818 -2.1699  2.3044 -0.9062
  160MOL0     H21062   9.601   6.872   0.770  1.7110  1.9045  1.4363
  160MOL0     H21063   9.407   7.021   0.775 -2.4724  0.6225  2.2748
  160MOL0     H21064   9.406   7.007   0.945 -0.9056  0.2254 -0.9186
  160MOL0     H21065   9.662   7.090   0.800  1.0873  0.9735  0.4741
  160MOL0     H21066   9.629   7.100   0.973 -1.4976  0.7255  0.1006
  160MOL0     H21067   9.499   7.258   0.747  1.4072  1.9756 -0.9846
  160MOL0     H21068   9.644   7.305   0.817  0.5392 -0.5429  1.8259
  160MOL0     H21069   9.459   7.439   0.910 -0.0121  0.4466  1.3419
  160MOL0     H21070   9.374   7.291   0.960 -0.0857  0.5150 -2.5208
  160MOL0     H21071   9.590   7.247   1.113  1.7575 -1.2573 -4.1870
  160MOL0     H21072   9.482   7.385   1.159 -0.0343  2.4166 -1.2260
  160MOL0     H21073   9.807   7.336   1.219 -4.1863 -0.7112 -0.3756
  160MOL0     H21074  10.078   7.573   1.139 -0.0027  0.5705 -0.9924
  160MOL0     H21075  10.015   7.503   1.290  2.5239  0.7631  0.0577
  160MOL0     H21076   9.901   7.718   1.331  0.2695  0.5150  1.1306
  160MOL0     H21077   9.980   7.775   1.174  1.7273  0.2892 -0.6217
  160MOL0     H21078  10.138   7.665   1.409  1.6139 -2.1160 -2.3657
  160MOL0     H21079  10.199   7.759   1.265 -0.5668  2.7446  0.0983
  160MOL0     H21080  10.070   7.964   1.374 -0.5285 -0.3574  1.7646
  160MOL0     H21081  10.216   7.919   1.443  1.7241 -0.3416 -2.6541
  160MOL0     H21082  10.180   7.667   1.672 -3.1635 -0.5342  0.1830
  160MOL0     H21083  10.276   7.698   1.888 -0.5685 -1.4245  0.7366
  160MOL0     H21084  10.283   7.630   2.249  0.5624 -0.0641  0.4389
  160MOL0     H21085  10.353   7.602   2.489  0.7011 -0.0777  1.3677
  160MOL0     H21086  10.512   7.959   2.687 -1.9156 -0.7072 -0.8286
  160MOL0     H21087  10.667   7.875   2.709 -0.6236 -2.4657 -1.9365
  160MOL0     H21088  10.575   7.881   2.934  1.4589  1.0321 -2.3535
  160MOL0     H21089  10.542   7.716   2.876  0.0182  0.3026  2.1286
  160MOL0     H21090  10.324   7.785   2.790  0.6492 -1.8120 -0.3862
  160MOL0     H21091  10.353   7.944   2.872 -3.7967 -1.0582 -1.5495
  160MOL0     H21092  10.377   7.675   3.021  0.5535  0.1953  1.5795
  160MOL0     H21093  10.362   7.847   3.077 -1.8825  3.5771 -2.3134
  160MOL0     H21094  10.145   7.709   3.106 -0.6303 -1.8439 -0.9415
  160MOL0     H21095  10.145   7.677   2.953 -1.7474 -0.0350  1.3901
  160MOL0     H21096  10.130   7.908   2.877  1.9867  0.3125  0.1667
  160MOL0     H21097  10.143   7.960   3.047 -0.5818 -1.9719  1.1277
  160MOL0     H21098   9.920   7.778   3.064 -2.1880  1.5064  0.3497
  160MOL0     H21099   9.903   7.949   3.041  1.7218  1.5903 -1.3049
  160MOL0     H21100   9.825   7.933   2.837 -3.1342 -0.3945  0.8407
  160MOL0     H21101   9.781   7.781   2.903  0.0726 -0.4123  1.8212
  160MOL0     H21102  10.555   7.988   2.468 -0.9172  0.3183 -1.3888
  160MOL0     H21103  10.499   7.997   2.218  2.9169 -1.6358  0.3150
  160MOL0     H21104  10.124   8.114   1.885  0.2251  2.6540 -3.0310
  160MOL0     H21105  10.008   8.051   1.658 -2.2310 -1.1185 -0.1021
  160MOL0     H21106   9.554   6.756   1.408 -0.3768  1.0647  1.5305
  160MOL0     H21107   9.450   6.615   1.587 -2.1904 -2.0285  0.6360
  160MOL0     H21108   8.958   6.448   1.648  0.6148  0.9238  0.9361
  160MOL0     H21109   8.850   6.385   1.845 -1.2985 -0.5038 -0.0568
  160MOL0     H21110   9.049   6.073   2.124 -0.9372  1.1533  1.4625
  160MOL0     H21111   8.967   5.997   1.982  0.9518  0.5154 -1.2804
  160MOL0     H21112   8.811   6.105   2.219  1.6799 -0.4907  1.4394
  160MOL0     H21113   8.753   6.013   2.086 -0.0641 -0.5181 -0.3704
  160MOL0     H21114   8.944   5.901   2.281  0.3862  0.4647 -0.6633
  160MOL0     H21115   8.856   5.815   2.146 -2.3047 -1.5072  0.5920
  160MOL0     H21116   8.672   5.809   2.262 -0.1597  0.7864  0.4590
  160MOL0     H21117   8.777   5.801   2.403  0.4530  1.2535 -0.6295
  160MOL0     H21118   8.569   6.120   2.521 -0.6816 -1.4313  3.1315
  160MOL0     H21119   9.169   6.080   1.907  2.5823 -1.1304 -2.0597
  160MOL0     H21120   9.288   6.189   1.720  1.3390  3.2651  1.6774
  161MOL0     O21121   9.760   3.741  10.285 -0.2229  0.1855  0.5538
  161MOL0     C21122   9.790   3.840  10.358  0.5869  0.4724  0.5489
  161MOL0     O21123   9.843   3.828  10.489 -0.7778 -0.2845  0.6178
  161MOL0     C21124   9.889   3.709  10.534 -0.4879 -0.2749 -0.0026
  161MOL0     C21125   9.994   3.652  10.481 -0.3750 -0.2447 -0.5148
  161MOL0     C21126  10.051   3.536  10.536 -0.6010  0.1028  0.2953
  161MOL0     C21127   9.972   3.476  10.637 -0.6708 -0.7392 -0.3522
  161MOL0     O21128  10.025   3.374  10.703  0.7476  0.2789 -0.6691
  161MOL0     C21129  10.049   3.262  10.620  0.8262 -0.1402  0.5279
  161MOL0     C21130   9.915   3.188  10.605 -0.5627 -0.2646  0.4802
  161MOL0     C21131   9.947   3.055  10.529 -0.2855 -0.3082  0.0200
  161MOL0     C21132   9.830   2.957  10.557  0.1646  0.0204  0.7169
  161MOL0     C21133   9.870   2.814  10.496 -0.8920  0.5605  0.6320
  161MOL0     C21134   9.879   2.824  10.338 -0.1840 -0.4979 -0.4207
  161MOL0     C21135   9.901   2.696  10.262 -0.0534  0.2308  1.2034
  161MOL0     C21136   9.974   2.723  10.128 -0.3169 -0.6375 -0.4876
  161MOL0     N21137  10.026   2.595  10.077  0.2764 -0.4562  0.2249
  161MOL0     C21138   9.950   2.488  10.032  0.0038 -0.3868 -0.5307
  161MOL0     C21139  10.039   2.419   9.961  0.2582  0.0384  0.0489
  161MOL0     C21140  10.004   2.320   9.859 -0.0692 -0.0708  0.1155
  161MOL0     C21141   9.922   2.389   9.737 -0.4444  0.0733  0.4121
  161MOL0     C21142   9.992   2.518   9.681  0.0751  0.2940  0.1182
  161MOL0     C21143   9.977   2.502   9.530 -0.6378 -0.4823  0.6026
  161MOL0     O21144   9.834   2.473   9.490  0.4080 -0.4750 -0.4686
  161MOL0     C21145   9.734   2.563   9.471 -0.0454  0.4159 -0.2556
  161MOL0     C21146   9.610   2.513   9.444  0.5696 -0.4281 -0.5508
  161MOL0     C21147   9.497   2.595   9.405 -0.1097  0.2742 -0.3646
  161MOL0     C21148   9.514   2.740   9.436  0.6250  0.9972  0.6120
  161MOL0     C21149   9.393   2.823   9.417 -0.2397  0.9343 -1.1836
  161MOL0     O21150   9.413   2.958   9.432 -0.0971 -0.2840 -0.1242
  161MOL0     C21151   9.336   3.057   9.382 -0.6135  0.4550  0.7419
  161MOL0     C21152   9.219   3.040   9.305 -0.2061 -0.3244  1.1950
  161MOL0     C21153   9.159   3.154   9.234  0.1650  0.6553 -0.1827
  161MOL0     C21154   9.225   3.283   9.240 -0.3290  0.3989  1.1246
  161MOL0     O21155   9.175   3.396   9.192 -0.2965 -0.0252  0.3341
  161MOL0     C21156   9.076   3.398   9.087 -0.7595  0.3210 -0.9521
  161MOL0     C21157   9.063   3.525   8.998 -0.3651 -0.5321  0.9029
  161MOL0     C21158   8.990   3.648   9.049  0.0064 -0.2127  0.3287
  161MOL0     C21159   8.998   3.749   8.934 -0.0768 -0.9138 -0.8344
  161MOL0     C21160   8.946   3.886   8.981  0.4591  0.1698 -0.1227
  161MOL0     C21161   8.796   3.886   9.012 -0.1176 -0.9605 -0.5009
  161MOL0     C21162   8.751   4.036   9.017  0.5381  0.0525 -0.5182
  161MOL0     C21163   8.598   4.039   9.014 -0.1128  0.2461  0.3919
  161MOL0    Cl21164   8.551   4.189   9.079  0.1642  0.2960  0.6814
  161MOL0     C21165   9.334   3.294   9.329  0.0268 -1.0425 -0.3416
  161MOL0     C21166   9.392   3.184   9.390 -0.6381  0.4793 -1.2654
  161MOL0     O21167   9.287   2.769   9.392  0.8329 -0.3521 -0.3034
  161MOL0     C21168   9.643   2.788   9.465 -0.0027 -0.0148  0.9624
  161MOL0     C21169   9.743   2.699   9.497 -0.3285  0.4028 -0.0336
  161MOL0     N21170  10.165   2.475   9.982  0.6021 -0.0938  0.0012
  161MOL0     N21171  10.157   2.579  10.061  0.7862  0.1894 -0.4090
  161MOL0     C21172   9.865   3.542  10.693  0.1643 -0.0911 -0.2860
  161MOL0     C21173   9.827   3.663  10.640  1.3940 -0.8299 -0.1093
  161MOL0     C21174   9.769   3.977  10.300  0.5814 -0.1187  0.7736
  161MOL0     C21175   9.677   3.999  10.194 -0.1847 -0.2867 -0.1444
  161MOL0     C21176   9.637   4.128  10.162  0.0228 -0.1080 -0.7754
  161MOL0     C21177   9.715   4.235  10.210  0.3785 -0.9999  0.7614
  161MOL0     O21178   9.671   4.359  10.166 -0.4617 -0.1264 -0.2939
  161MOL0     C21179   9.761   4.468  10.145  0.7037  0.1478 -0.0098
  161MOL0     C21180   9.688   4.593  10.166  0.5345  0.0308  0.5710
  161MOL0     C21181   9.598   4.628  10.052  0.3115  0.4820  0.3628
  161MOL0     C21182   9.507   4.744  10.102 -0.4615  0.3437 -0.9130
  161MOL0     C21183   9.405   4.783  10.006 -0.3854  0.4403 -0.1231
  161MOL0     C21184   9.310   4.803   9.925  0.6456  0.2469 -0.4603
  161MOL0     C21185   9.827   4.216  10.288  0.5963 -0.5540  0.2262
  161MOL0     C21186   9.852   4.087  10.337 -0.1005  0.5092  0.6039
  161MOL0     H21187  10.034   3.706  10.396 -1.1261 -1.8324 -1.9275
  161MOL0     H21188  10.151   3.501  10.510  0.8017  3.8261  0.0556
  161MOL0     H21189  10.128   3.202  10.667  2.5618  1.1874 -0.5997
  161MOL0     H21190  10.081   3.290  10.519 -2.3610 -0.7812 -0.7713
  161MOL0     H21191   9.844   3.254  10.555 -1.2449 -1.4467 -0.1587
  161MOL0     H21192   9.882   3.173  10.709  0.8330  1.9836  1.3111
  161MOL0     H21193  10.035   3.006  10.571 -0.4737  1.1170  2.2170
  161MOL0     H21194   9.964   3.078  10.423  0.2908  3.0836  0.7436
  161MOL0     H21195   9.805   2.952  10.663 -2.1982 -0.3998  0.1941
  161MOL0     H21196   9.740   2.994  10.506 -0.9595 -0.4082  2.3131
  161MOL0     H21197   9.787   2.749  10.524 -0.9953  0.6126  0.4478
  161MOL0     H21198   9.971   2.790  10.531 -0.5456 -1.6574 -1.5574
  161MOL0     H21199   9.959   2.895  10.315 -1.8415  1.2343 -1.0874
  161MOL0     H21200   9.782   2.864  10.307 -0.9659 -1.6735  0.4372
  161MOL0     H21201   9.956   2.623  10.322 -0.3894  0.9541  2.4388
  161MOL0     H21202   9.800   2.657  10.242  0.2870  0.1953 -0.5836
  161MOL0     H21203  10.050   2.801  10.128 -1.3095  0.3682  0.7971
  161MOL0     H21204   9.900   2.758  10.055 -0.2368  1.6792  0.4829
  161MOL0     H21205   9.842   2.483  10.040 -0.0799  1.5928  0.0487
  161MOL0     H21206   9.936   2.246   9.902 -3.6928  3.6442  1.4552
  161MOL0     H21207  10.097   2.272   9.827  0.5045  1.5099 -0.7182
  161MOL0     H21208   9.823   2.418   9.772 -0.0306  2.0584  0.0501
  161MOL0     H21209   9.934   2.316   9.657  1.4827  0.2768  0.4648
  161MOL0     H21210   9.940   2.604   9.724 -1.4213  1.1092 -3.0094
  161MOL0     H21211  10.100   2.516   9.698 -0.2900  0.1556  2.8125
  161MOL0     H21212  10.038   2.417   9.498 -1.6043 -0.4527 -1.4926
  161MOL0     H21213  10.014   2.587   9.473 -2.0930 -0.5466 -0.5194
  161MOL0     H21214   9.591   2.407   9.433 -0.8184 -0.3053  0.3504
  161MOL0     H21215   9.400   2.565   9.369  0.0878 -1.3264  0.3769
  161MOL0     H21216   9.166   2.945   9.296  2.9960 -2.0522 -2.6097
  161MOL0     H21217   9.068   3.134   9.178  0.0442 -1.4874  0.6677
  161MOL0     H21218   8.980   3.372   9.134 -1.2972  1.0828 -1.6014
  161MOL0     H21219   9.096   3.306   9.031 -2.7694 -1.2991  0.8435
  161MOL0     H21220   9.010   3.483   8.911 -3.4127 -1.0795  2.8785
  161MOL0     H21221   9.167   3.552   8.976 -0.7697  0.6694  0.3499
  161MOL0     H21222   9.036   3.688   9.140  1.1431  1.9240 -1.1048
  161MOL0     H21223   8.883   3.634   9.069 -0.1047 -0.5115 -0.4320
  161MOL0     H21224   9.098   3.769   8.896  0.2124  3.3218  1.4857
  161MOL0     H21225   8.934   3.720   8.851 -2.1286 -2.7930  1.2540
  161MOL0     H21226   8.951   3.947   8.891  0.0482 -0.2763 -0.4575
  161MOL0     H21227   9.003   3.914   9.070  3.5413 -1.1004 -1.5682
  161MOL0     H21228   8.777   3.844   9.112  0.7809 -0.1235  0.0356
  161MOL0     H21229   8.736   3.834   8.937 -0.5017  0.7492 -1.4367
  161MOL0     H21230   8.789   4.079   9.110 -0.7385  1.4986 -0.6423
  161MOL0     H21231   8.788   4.094   8.932  0.3594  1.9540  0.6675
  161MOL0     H21232   8.554   3.957   9.072 -0.3773  0.5613  0.6354
  161MOL0     H21233   8.556   4.021   8.914  2.2017 -3.8586 -0.0824
  161MOL0     H21234   9.367   3.393   9.358 -3.6930  0.0579  0.6562
  161MOL0     H21235   9.476   3.207   9.455 -1.8051 -1.8855  1.2765
  161MOL0     H21236   9.656   2.893   9.487  1.5640 -0.0857  0.4705
  161MOL0     H21237   9.836   2.741   9.532  0.1126 -1.6886  1.4868
  161MOL0     H21238   9.809   3.487  10.767 -0.4222  0.6330 -0.1759
  161MOL0     H21239   9.740   3.721  10.671  1.7092  0.8658 -2.1308
  161MOL0     H21240   9.619   3.915  10.158 -1.6017  1.6549 -2.6223
  161MOL0     H21241   9.561   4.147  10.086  1.8390 -2.2632 -3.3587
  161MOL0     H21242   9.805   4.464  10.045 -2.0641  1.6156 -1.4043
  161MOL0     H21243   9.849   4.461  10.210 -0.6774 -1.0425  1.8287
  161MOL0     H21244   9.642   4.596  10.266  0.2727  1.5604  0.4289
  161MOL0     H21245   9.761   4.674  10.170  1.5461 -0.5835 -2.6963
  161MOL0     H21246   9.537   4.538  10.040  0.6319  0.6243 -3.5911
  161MOL0     H21247   9.643   4.648   9.954 -0.7034  1.0527 -0.0144
  161MOL0     H21248   9.467   4.733  10.203  0.2210 -0.4549 -0.7188
  161MOL0     H21249   9.569   4.834  10.104 -2.6277  2.2477  5.9630
  161MOL0     H21250   9.233   4.836   9.858  1.4071  0.7491 -1.1041
  161MOL0     H21251   9.899   4.281  10.338  1.2284 -1.3297  0.3489
  161MOL0     H21252   9.932   4.065  10.408  0.0100  0.6833  0.5319
  162MOL0     O21253   5.947   5.026   8.172  0.0751  1.3294  0.3188
  162MOL0     C21254   6.055   5.055   8.212 -1.2339  0.8036  0.3203
  162MOL0     O21255   6.142   5.147   8.155  0.4111 -0.0969 -0.7334
  162MOL0     C21256   6.129   5.200   8.029 -0.2789  0.4173  0.2611
  162MOL0     C21257   6.221   5.300   7.993 -0.4954  0.2369 -0.7676
  162MOL0     C21258   6.215   5.363   7.870  0.1438 -0.8773 -0.3666
  162MOL0     C21259   6.115   5.337   7.777 -0.5006 -0.5543 -0.4303
  162MOL0     O21260   6.109   5.388   7.647  0.5316 -0.1014 -0.4606
  162MOL0     C21261   6.180   5.500   7.594 -0.3794 -0.9496  1.1264
  162MOL0     C21262   6.120   5.540   7.457 -0.4977 -0.6303 -1.0788
  162MOL0     C21263   5.968   5.567   7.451  0.2651  0.7935 -0.0928
  162MOL0     C21264   5.924   5.630   7.314  0.2313  0.6693  0.1144
  162MOL0     C21265   5.775   5.637   7.297 -0.2183  0.3088  0.3071
  162MOL0     C21266   5.711   5.500   7.286 -0.4890 -0.2221  0.4960
  162MOL0     C21267   5.561   5.519   7.268 -0.1143  0.8399  0.0405
  162MOL0     C21268   5.477   5.390   7.273 -0.1198 -0.8753 -0.6042
  162MOL0     N21269   5.531   5.302   7.164  0.0788  0.3342 -1.2974
  162MOL0     C21270   5.636   5.215   7.174 -0.1271 -0.2773 -0.2858
  162MOL0     C21271   5.629   5.143   7.067  0.1359  0.4064  0.6853
  162MOL0     C21272   5.724   5.034   7.025 -0.0827 -0.0041 -0.7184
  162MOL0     C21273   5.642   4.928   6.938  0.1225 -0.8194  0.0605
  162MOL0     C21274   5.727   4.797   6.898 -0.9332 -0.5561 -0.5223
  162MOL0     C21275   5.783   4.737   7.031  0.1847 -0.3444  0.1438
  162MOL0     O21276   5.685   4.659   7.100  1.9405 -0.5206 -0.1616
  162MOL0     C21277   5.718   4.578   7.207 -0.2316  0.0121 -0.3695
  162MOL0     C21278   5.623   4.522   7.285  0.4021 -0.0828 -0.6416
  162MOL0     C21279   5.643   4.443   7.391  0.5033  0.9641  0.4754
  162MOL0     C21280   5.773   4.416   7.432  0.4729 -1.0067  1.3450
  162MOL0     C21281   5.792   4.334   7.547 -0.6927 -0.1589 -0.6314
  162MOL0     O21282   5.699   4.336   7.642  0.0679 -0.5553  0.5371
  162MOL0     C21283   5.719   4.261   7.759  0.0882 -0.0013  0.2425
  162MOL0     C21284   5.727   4.118   7.763 -0.6659  0.4512 -0.0513
  162MOL0     C21285   5.733   4.059   7.888 -0.1091 -1.1990  0.2212
  162MOL0     C21286   5.726   4.136   8.003 -0.0675  0.0709 -0.3603
  162MOL0     O21287   5.735   4.066   8.130  0.5014 -0.2095 -0.0850
  162MOL0     C21288   5.782   4.124   8.248  0.4997  0.4786  0.3450
  162MOL0     C21289   5.810   4.024   8.356 -0.4657 -0.6845  0.3282
  162MOL0     C21290   5.862   4.082   8.488  0.2675  0.5846 -0.7138
  162MOL0     C21291   5.862   3.982   8.606 -0.3237 -0.0595  0.2845
  162MOL0     C21292   5.901   4.029   8.743  0.8913  1.0800  0.4319
  162MOL0     C21293   6.042   4.084   8.744 -0.1686 -0.4140 -0.0525
  162MOL0     C21294   6.159   3.981   8.729  0.3695  0.3352 -0.4338
  162MOL0     C21295   6.291   4.045   8.706 -0.5602 -0.3549  0.3134
  162MOL0    Cl21296   6.343   4.126   8.859 -0.3003  0.1060  0.3742
  162MOL0     C21297   5.710   4.274   7.995  0.7344  0.1114  0.2660
  162MOL0     C21298   5.702   4.340   7.869 -0.6552 -0.6209 -0.0538
  162MOL0     O21299   5.902   4.277   7.549 -0.1862  0.2487 -0.2696
  162MOL0     C21300   5.876   4.478   7.357 -0.7033 -0.2933 -0.6354
  162MOL0     C21301   5.853   4.555   7.239  0.9022 -0.3166  0.0501
  162MOL0     N21302   5.528   5.192   6.982 -0.0438  0.1839  1.2207
  162MOL0     N21303   5.474   5.288   7.042  0.0944  0.1520 -0.6709
  162MOL0     C21304   6.013   5.258   7.816 -0.5570  0.2720 -0.2125
  162MOL0     C21305   6.026   5.177   7.935  0.3067 -0.6256  0.2654
  162MOL0     C21306   6.107   4.995   8.337  0.4007  0.0739 -0.1142
  162MOL0     C21307   6.244   5.009   8.376  0.2507 -1.1646 -0.9637
  162MOL0     C21308   6.285   4.971   8.495  0.5139 -0.2598 -0.3249
  162MOL0     C21309   6.194   4.914   8.590  0.4907 -0.6019 -0.2134
  162MOL0     O21310   6.232   4.871   8.718  0.5212 -1.2440 -0.6012
  162MOL0     C21311   6.352   4.914   8.779 -0.7965  0.0025  0.3930
  162MOL0     C21312   6.344   4.904   8.931 -0.5624  0.5569 -0.6739
  162MOL0     C21313   6.434   5.014   8.994  1.1419  1.2183  0.2429
  162MOL0     C21314   6.576   4.971   9.022 -0.5050 -0.5631  0.2815
  162MOL0     C21315   6.642   4.943   8.891  0.5111 -0.9495  1.0669
  162MOL0     C21316   6.686   4.912   8.779  0.4354 -0.3186  0.1090
  162MOL0     C21317   6.064   4.903   8.550  0.5057  0.6693 -0.0316
  162MOL0     C21318   6.022   4.928   8.419  0.0250 -0.8160  0.2628
  162MOL0     H21319   6.302   5.329   8.060 -2.0523 -2.0185  2.3270
  162MOL0     H21320   6.297   5.430   7.845 -3.0330  3.0825 -0.9631
  162MOL0     H21321   6.286   5.476   7.581  0.2284  1.8737  0.2352
  162MOL0     H21322   6.157   5.588   7.654  0.4336  1.2593 -1.5534
  162MOL0     H21323   6.150   5.455   7.395  0.9795 -1.7459  0.9984
  162MOL0     H21324   6.183   5.624   7.426 -1.2022  1.8674  3.3654
  162MOL0     H21325   5.939   5.634   7.532  0.2275 -1.5205  1.9034
  162MOL0     H21326   5.925   5.471   7.480  1.3348  1.1229  2.8415
  162MOL0     H21327   5.952   5.735   7.307 -4.3956  2.2630  1.9733
  162MOL0     H21328   5.958   5.569   7.229 -0.9195 -2.8069  1.9424
  162MOL0     H21329   5.754   5.715   7.223 -0.9371 -0.1882 -0.0208
  162MOL0     H21330   5.726   5.680   7.385 -1.2437  0.1222 -0.1572
  162MOL0     H21331   5.733   5.443   7.377  1.6580  0.5306  0.4958
  162MOL0     H21332   5.741   5.452   7.192 -1.1221 -1.5974  0.9634
  162MOL0     H21333   5.517   5.579   7.348  0.7428  0.5822  0.7186
  162MOL0     H21334   5.530   5.588   7.189 -0.5071  2.8100  1.8267
  162MOL0     H21335   5.373   5.418   7.256 -1.0124 -2.4422  1.7193
  162MOL0     H21336   5.479   5.332   7.366 -0.8104 -2.1870 -1.3820
  162MOL0     H21337   5.697   5.192   7.260 -0.3132  1.9005  0.4889
  162MOL0     H21338   5.746   4.975   7.115 -2.2103 -0.5946 -0.5249
  162MOL0     H21339   5.812   5.069   6.970  0.8476 -3.3060 -1.5487
  162MOL0     H21340   5.601   4.980   6.850  1.1190  0.3474  0.2661
  162MOL0     H21341   5.560   4.903   7.006  1.1950 -0.0060  1.6996
  162MOL0     H21342   5.665   4.722   6.848 -1.6828 -0.7883  0.7106
  162MOL0     H21343   5.809   4.827   6.832 -0.7225 -2.5924 -1.2500
  162MOL0     H21344   5.841   4.798   7.101  0.2137 -1.4775  1.1341
  162MOL0     H21345   5.860   4.669   6.993 -0.3500 -0.2207 -1.2230
  162MOL0     H21346   5.519   4.530   7.257  0.5355 -2.4706 -2.0696
  162MOL0     H21347   5.558   4.406   7.448  2.5268 -0.4453  2.7454
  162MOL0     H21348   5.728   4.069   7.667 -0.4381  1.5686 -0.6361
  162MOL0     H21349   5.755   3.954   7.906  0.9590 -0.6664  2.2952
  162MOL0     H21350   5.708   4.201   8.270 -2.8279 -0.9646 -4.2186
  162MOL0     H21351   5.881   4.168   8.232  2.2095 -2.7640  1.0982
  162MOL0     H21352   5.879   3.945   8.325  0.7732  0.8136 -0.9186
  162MOL0     H21353   5.715   3.982   8.390 -1.8668  3.1551  1.7466
  162MOL0     H21354   5.799   4.171   8.496  3.0149  3.0013 -3.4474
  162MOL0     H21355   5.967   4.106   8.470  0.0657  3.2051  1.0514
  162MOL0     H21356   5.766   3.932   8.620 -0.3981  0.4323  1.6808
  162MOL0     H21357   5.935   3.905   8.576  0.8889  1.6595 -1.3921
  162MOL0     H21358   5.893   3.942   8.810 -0.4885 -1.5099 -2.8141
  162MOL0     H21359   5.828   4.104   8.772 -0.4211  0.5748 -1.3779
  162MOL0     H21360   6.056   4.147   8.832 -0.6647  2.7300 -2.0423
  162MOL0     H21361   6.050   4.153   8.659 -0.5268  0.1356  0.3490
  162MOL0     H21362   6.169   3.927   8.824  1.2851  1.6617  0.2582
  162MOL0     H21363   6.145   3.910   8.646  0.2385 -0.3082  0.1260
  162MOL0     H21364   6.284   4.120   8.626  0.4214 -1.0257 -0.4246
  162MOL0     H21365   6.362   3.970   8.670 -1.0300 -2.1736  2.9091
  162MOL0     H21366   5.709   4.336   8.085 -0.8164  1.5628 -0.6753
  162MOL0     H21367   5.701   4.448   7.859  1.7815 -0.4444  0.8822
  162MOL0     H21368   5.976   4.456   7.394 -1.5744  0.2325  2.3237
  162MOL0     H21369   5.942   4.604   7.200  0.9108 -0.0758  0.3664
  162MOL0     H21370   5.931   5.231   7.749  1.5434 -2.1362 -2.0312
  162MOL0     H21371   5.951   5.100   7.952 -1.6907  1.6729  2.9900
  162MOL0     H21372   6.310   5.062   8.308 -0.6105  1.2255 -0.0152
  162MOL0     H21373   6.392   4.991   8.503  0.8515 -1.9249 -0.2972
  162MOL0     H21374   6.370   5.019   8.756  0.4136 -0.3508 -0.3746
  162MOL0     H21375   6.431   4.855   8.731  1.7353  2.9136  0.7181
  162MOL0     H21376   6.248   4.935   8.974  0.4654  2.2263  0.5278
  162MOL0     H21377   6.375   4.805   8.966  0.0428  1.2569  0.8425
  162MOL0     H21378   6.381   5.053   9.081 -3.5091 -3.3843  0.0153
  162MOL0     H21379   6.425   5.104   8.933  1.6591  0.6499 -0.6847
  162MOL0     H21380   6.633   5.048   9.075 -0.3716 -1.1628  1.0318
  162MOL0     H21381   6.583   4.881   9.084  0.5378 -1.5285 -1.1840
  162MOL0     H21382   6.725   4.884   8.683  0.2552  2.1963 -0.7893
  162MOL0     H21383   6.010   4.853   8.630 -1.0465  2.2330 -0.0244
  162MOL0     H21384   5.918   4.913   8.391  0.0640  1.1886 -1.1826
  163MOL0     O21385  11.088   7.023  10.785 -0.5720  0.8837  1.0189
  163MOL0     C21386  11.066   6.943  10.690 -0.0192 -0.7954 -0.4863
  163MOL0     O21387  10.949   6.924  10.634  0.7219  0.5406 -0.1114
  163MOL0     C21388  10.849   7.016  10.653  1.5409 -0.8472  0.6370
  163MOL0     C21389  10.862   7.147  10.599 -0.9731 -0.9108  0.9359
  163MOL0     C21390  10.759   7.244  10.603  0.0541  0.3316 -0.1820
  163MOL0     C21391  10.634   7.202  10.651  1.0788  1.0280  0.1449
  163MOL0     O21392  10.532   7.290  10.663 -0.2837  0.3015  0.1684
  163MOL0     C21393  10.438   7.256  10.555 -1.9179  0.5616 -0.6839
  163MOL0     C21394  10.355   7.383  10.514 -0.3402  0.8075  0.0599
  163MOL0     C21395  10.220   7.337  10.447  0.9502  0.5091 -0.6099
  163MOL0     C21396  10.148   7.469  10.404 -0.0247 -0.3791  0.3296
  163MOL0     C21397  10.027   7.442  10.330  0.1068 -0.1703  0.3104
  163MOL0     C21398   9.946   7.575  10.312  0.0492 -0.3317 -0.2338
  163MOL0     C21399   9.828   7.560  10.219  0.0948  0.0503  1.3122
  163MOL0     C21400   9.769   7.701  10.173 -0.8495  0.1921 -0.3473
  163MOL0     N21401   9.619   7.705  10.148 -0.0677  0.0996  0.4935
  163MOL0     C21402   9.556   7.659  10.033 -0.5419  0.7362  0.0962
  163MOL0     C21403   9.427   7.678  10.055 -0.0957  1.5799 -1.0038
  163MOL0     C21404   9.317   7.643   9.964  0.1801 -0.9826  0.1045
  163MOL0     C21405   9.294   7.496   9.955 -0.8070  0.2178  0.4005
  163MOL0     C21406   9.168   7.445   9.884  1.0561  0.2916  0.4677
  163MOL0     C21407   9.042   7.532   9.914  0.0171 -0.3556 -0.3851
  163MOL0     O21408   9.025   7.527  10.052  0.3295 -0.2686  0.0246
  163MOL0     C21409   8.906   7.576  10.105 -0.3361 -0.5497 -0.1539
  163MOL0     C21410   8.907   7.598  10.246  0.4078 -0.1921 -0.4868
  163MOL0     C21411   8.793   7.645  10.319 -0.0485 -0.7014  0.7744
  163MOL0     C21412   8.682   7.682  10.247  0.3851  0.3826  0.1765
  163MOL0     C21413   8.558   7.757  10.309 -0.3812  0.4307 -0.1039
  163MOL0     O21414   8.546   7.767  10.445 -0.6342  0.2286 -0.9045
  163MOL0     C21415   8.440   7.832  10.501 -0.0260 -0.5366  0.4908
  163MOL0     C21416   8.454   7.962  10.527  0.0010 -0.3460  0.6543
  163MOL0     C21417   8.366   8.037  10.607  0.0674  1.2364 -0.3057
  163MOL0     C21418   8.244   7.969  10.634 -0.1695 -1.3606 -0.1816
  163MOL0     O21419   8.150   8.046  10.695 -0.9571 -0.0403  0.9723
  163MOL0     C21420   8.059   7.978  10.784 -0.6432  0.5053  0.6800
  163MOL0     C21421   7.982   8.082  10.872 -0.6922  0.7342  0.1094
  163MOL0     C21422   8.067   8.183  10.960 -0.2243 -0.7305  0.0555
  163MOL0     C21423   7.980   8.299  11.027  0.0721 -0.1188 -0.9472
  163MOL0     C21424   8.053   8.427  11.082  1.5557 -0.0790 -0.1582
  163MOL0     C21425   7.958   8.540  11.106 -1.0718 -0.0114 -0.3667
  163MOL0     C21426   8.049   8.662  11.156  0.6763  0.7491  0.1450
  163MOL0     C21427   7.991   8.792  11.129  0.1681 -0.7554  0.4261
  163MOL0    Cl21428   8.108   8.900  11.229 -0.4155 -0.1321 -0.0202
  163MOL0     C21429   8.218   7.844  10.596 -0.3876  0.5978  0.2689
  163MOL0     C21430   8.325   7.769  10.530 -0.9775 -0.0469  0.4139
  163MOL0     O21431   8.468   7.785  10.236 -0.4065 -0.8909  0.4203
  163MOL0     C21432   8.673   7.638  10.117 -0.2426  0.5573 -0.2112
  163MOL0     C21433   8.780   7.571  10.045  0.8605  0.3051 -0.8170
  163MOL0     N21434   9.408   7.739  10.178  0.6868 -0.1275 -0.4220
  163MOL0     N21435   9.523   7.748  10.235  0.2174 -0.0631  0.0605
  163MOL0     C21436  10.622   7.074  10.714 -0.5897 -0.0100 -0.4312
  163MOL0     C21437  10.730   6.981  10.715  0.2321  0.0608 -0.3259
  163MOL0     C21438  11.163   6.849  10.648  0.1435 -0.0278  0.6957
  163MOL0     C21439  11.259   6.800  10.734  0.1029 -1.3537 -0.7339
  163MOL0     C21440  11.334   6.697  10.701 -0.1874 -0.1047 -0.3861
  163MOL0     C21441  11.334   6.637  10.576 -0.0068  0.3427  0.1539
  163MOL0     O21442  11.426   6.541  10.552  0.4015 -0.0808 -0.2850
  163MOL0     C21443  11.449   6.509  10.412 -0.6586 -0.3214 -0.0456
  163MOL0     C21444  11.557   6.417  10.390 -0.3376  0.6954  0.7950
  163MOL0     C21445  11.547   6.283  10.459 -0.2919  0.5947 -0.4229
  163MOL0     C21446  11.601   6.172  10.359  0.4799 -0.3387  0.0187
  163MOL0     C21447  11.643   6.045  10.429  0.9680 -0.5096  0.2573
  163MOL0     C21448  11.670   5.944  10.496  0.3132  0.3527 -0.5843
  163MOL0     C21449  11.244   6.691  10.478  0.0228  0.4076  0.4051
  163MOL0     C21450  11.169   6.804  10.507 -0.9866 -0.6275 -0.7774
  163MOL0     H21451  10.964   7.172  10.575 -1.4741 -0.4553 -0.8523
  163MOL0     H21452  10.779   7.346  10.574 -0.0591 -0.1365 -2.0271
  163MOL0     H21453  10.367   7.184  10.597 -3.1058  0.9016 -2.0248
  163MOL0     H21454  10.482   7.217  10.462 -1.1465 -3.8901  1.3171
  163MOL0     H21455  10.422   7.433  10.444  0.7305 -0.1879  0.3522
  163MOL0     H21456  10.324   7.451  10.595  1.2293  0.6081  0.8516
  163MOL0     H21457  10.159   7.288  10.523  0.7703  1.7310  0.0732
  163MOL0     H21458  10.251   7.266  10.370 -0.9307 -3.0287  1.6174
  163MOL0     H21459  10.118   7.525  10.494 -0.3503 -0.9467  0.5778
  163MOL0     H21460  10.223   7.528  10.350 -0.9761  0.1709 -0.4219
  163MOL0     H21461   9.965   7.377  10.392 -2.0400  0.9700 -0.5329
  163MOL0     H21462  10.056   7.406  10.231 -0.4920  0.9713 -0.2958
  163MOL0     H21463  10.010   7.652  10.268 -0.1918 -0.1659 -0.2915
  163MOL0     H21464   9.919   7.609  10.412 -1.3687  1.2566 -1.1129
  163MOL0     H21465   9.851   7.492  10.137 -1.1071 -0.0261  1.0244
  163MOL0     H21466   9.749   7.510  10.277 -1.3058 -1.0574 -1.3471
  163MOL0     H21467   9.827   7.734  10.087  2.6986 -0.1725  1.7210
  163MOL0     H21468   9.787   7.774  10.253 -4.0082  0.9799 -0.2336
  163MOL0     H21469   9.611   7.630   9.944 -1.1661  0.5708 -0.2473
  163MOL0     H21470   9.346   7.663   9.861 -2.9323 -1.7705 -1.0188
  163MOL0     H21471   9.229   7.700   9.995  0.3487 -0.1114 -0.9516
  163MOL0     H21472   9.304   7.451  10.053 -0.1029 -1.8655 -0.5813
  163MOL0     H21473   9.371   7.446   9.896  0.3022 -1.2550  2.9606
  163MOL0     H21474   9.197   7.450   9.778  1.5445  1.1021  0.6378
  163MOL0     H21475   9.147   7.340   9.906  2.2184 -0.2544 -0.8393
  163MOL0     H21476   8.961   7.479   9.863  1.7453 -0.9734 -2.6415
  163MOL0     H21477   9.048   7.636   9.879 -3.6347 -0.6122 -2.2579
  163MOL0     H21478   9.000   7.574  10.298  0.3940 -2.2504 -1.3220
  163MOL0     H21479   8.792   7.670  10.424 -2.5307  2.0630  0.1946
  163MOL0     H21480   8.548   8.004  10.494 -0.7411  3.4775  2.7846
  163MOL0     H21481   8.392   8.136  10.645  0.0888  0.6740  1.2123
  163MOL0     H21482   8.098   7.900  10.851 -3.9834 -2.2618 -0.2985
  163MOL0     H21483   7.987   7.926  10.721 -2.3661  0.0833  2.8663
  163MOL0     H21484   7.932   8.017  10.944  2.8665 -1.7763  0.5367
  163MOL0     H21485   7.909   8.134  10.808 -2.4205  0.8069  2.0500
  163MOL0     H21486   8.153   8.218  10.902  0.1720 -1.2551  0.3095
  163MOL0     H21487   8.110   8.127  11.044 -1.7436  1.5205  2.4861
  163MOL0     H21488   7.904   8.329  10.955 -0.1339 -0.7829 -1.0197
  163MOL0     H21489   7.931   8.249  11.112 -2.8423  1.9649 -1.2546
  163MOL0     H21490   8.128   8.447  11.006 -0.4561  2.3461 -1.6601
  163MOL0     H21491   8.105   8.411  11.177 -2.9165 -1.8619  2.3108
  163MOL0     H21492   7.890   8.511  11.186 -0.5106 -3.7141 -1.0542
  163MOL0     H21493   7.903   8.565  11.014 -2.6333  1.7131  0.9643
  163MOL0     H21494   8.065   8.647  11.263  1.3951  0.1402 -0.0352
  163MOL0     H21495   8.145   8.646  11.105 -0.5833 -1.8517 -1.6699
  163MOL0     H21496   7.888   8.806  11.163  0.4751 -1.8441  1.9588
  163MOL0     H21497   7.982   8.809  11.021 -0.8108  0.7011  0.7078
  163MOL0     H21498   8.121   7.796  10.602 -0.3424  0.3434 -0.7599
  163MOL0     H21499   8.303   7.667  10.503 -1.5525  0.5597 -1.5724
  163MOL0     H21500   8.581   7.643  10.061 -2.1445 -1.5758  2.4665
  163MOL0     H21501   8.768   7.524   9.948  0.2482  0.3505 -0.7670
  163MOL0     H21502  10.536   7.040  10.771  2.1794 -0.7165  3.6987
  163MOL0     H21503  10.713   6.885  10.761 -0.0379 -0.4890 -1.5510
  163MOL0     H21504  11.278   6.843  10.832 -0.7278 -1.3603 -0.5590
  163MOL0     H21505  11.403   6.650  10.770 -1.6514  0.3518  1.4647
  163MOL0     H21506  11.488   6.597  10.361 -1.2766 -0.8590 -1.4901
  163MOL0     H21507  11.360   6.474  10.358  0.2440 -0.7612 -1.2860
  163MOL0     H21508  11.564   6.409  10.281 -1.9077 -0.2436  0.7374
  163MOL0     H21509  11.649   6.465  10.425 -0.5227  1.4152  0.3004
  163MOL0     H21510  11.442   6.262  10.482  0.2424  1.2720  3.3320
  163MOL0     H21511  11.596   6.292  10.556 -1.0269  0.9534 -0.0766
  163MOL0     H21512  11.524   6.147  10.286 -1.9575  1.7833  1.6949
  163MOL0     H21513  11.689   6.209  10.306  0.0705 -1.7290 -1.7114
  163MOL0     H21514  11.675   5.847  10.541  0.6404  0.6697  0.0628
  163MOL0     H21515  11.245   6.632  10.387  0.5996 -0.4549  0.9636
  163MOL0     H21516  11.097   6.844  10.437 -2.4809 -0.3811  0.8274
  164MOL0     O21517   6.546   6.985   8.686 -0.2160 -0.3350  0.9552
  164MOL0     C21518   6.561   7.054   8.784  0.4958  0.4616  0.0825
  164MOL0     O21519   6.505   7.168   8.813 -0.7247  0.3166  0.0072
  164MOL0     C21520   6.434   7.216   8.710  0.6664  0.1781  0.0376
  164MOL0     C21521   6.307   7.161   8.666 -0.9461 -0.3947  1.2184
  164MOL0     C21522   6.248   7.223   8.551 -1.0191  0.1159 -1.1292
  164MOL0     C21523   6.300   7.335   8.493 -0.0219  0.0129  0.2253
  164MOL0     O21524   6.231   7.408   8.399  0.3307  0.3129  0.6399
  164MOL0     C21525   6.144   7.328   8.310  0.3511 -0.3527 -0.4987
  164MOL0     C21526   6.139   7.401   8.179 -0.9383 -0.2587 -0.6645
  164MOL0     C21527   6.274   7.410   8.122  0.1838 -0.7135  0.0138
  164MOL0     C21528   6.285   7.455   7.973  0.8500 -0.2316 -0.3467
  164MOL0     C21529   6.423   7.442   7.916 -0.1771 -0.1263  0.2902
  164MOL0     C21530   6.524   7.550   7.958 -0.1793  0.3075  0.1186
  164MOL0     C21531   6.659   7.507   8.012 -0.6592  0.8826  0.1569
  164MOL0     C21532   6.742   7.618   8.077 -0.3319 -0.1446  0.3604
  164MOL0     N21533   6.875   7.576   8.105 -0.1471  0.1792 -0.1698
  164MOL0     C21534   6.922   7.507   8.215  0.2377 -0.7125  0.3218
  164MOL0     C21535   7.057   7.501   8.198 -0.0892 -0.4163  0.5366
  164MOL0     C21536   7.158   7.472   8.310 -0.3988  0.5465 -0.4200
  164MOL0     C21537   7.220   7.594   8.373  0.2384  0.3206 -0.3309
  164MOL0     C21538   7.276   7.577   8.518  0.3818  0.0658  0.2287
  164MOL0     C21539   7.173   7.558   8.627  1.0616 -0.4066 -0.2469
  164MOL0     O21540   7.123   7.687   8.674 -0.4954  0.0542  0.9564
  164MOL0     C21541   7.200   7.757   8.765 -0.0852 -0.3339  0.3409
  164MOL0     C21542   7.155   7.885   8.790 -0.3893  0.2856 -0.8522
  164MOL0     C21543   7.215   7.974   8.881 -0.5668  0.6629 -0.2394
  164MOL0     C21544   7.321   7.932   8.957  0.0716  0.0546 -0.0862
  164MOL0     C21545   7.384   8.029   9.057 -0.3816 -0.4050  0.8217
  164MOL0     O21546   7.388   8.161   9.020  0.3457 -0.3906 -0.5211
  164MOL0     C21547   7.414   8.250   9.119 -0.1620  0.5414 -0.3547
  164MOL0     C21548   7.300   8.299   9.183 -0.2340 -0.9527 -0.3008
  164MOL0     C21549   7.323   8.399   9.279 -0.0942  0.2459 -0.1141
  164MOL0     C21550   7.451   8.432   9.314 -0.3410  0.0448 -1.5279
  164MOL0     O21551   7.461   8.541   9.393  0.0947 -0.5941  0.9938
  164MOL0     C21552   7.566   8.542   9.491 -0.5600  0.1320 -0.0099
  164MOL0     C21553   7.524   8.670   9.570  0.0550  0.3617  0.1946
  164MOL0     C21554   7.643   8.707   9.657 -0.8698  0.9906  0.3506
  164MOL0     C21555   7.665   8.604   9.770 -0.0071  0.7514 -0.5721
  164MOL0     C21556   7.727   8.661   9.892 -0.6548  0.1854 -0.6891
  164MOL0     C21557   7.866   8.730   9.868  0.5041 -0.1372  0.1650
  164MOL0     C21558   7.951   8.772   9.991 -0.2702 -0.2390 -0.2025
  164MOL0     C21559   7.887   8.883  10.075  0.3222 -0.2617  0.5901
  164MOL0    Cl21560   7.764   8.810  10.180 -0.0349  0.1429  0.5693
  164MOL0     C21561   7.564   8.377   9.250 -0.1058 -0.0860 -0.0859
  164MOL0     C21562   7.542   8.280   9.152 -0.7358 -0.8366 -0.4522
  164MOL0     O21563   7.434   7.978   9.157  0.3395 -0.0889 -0.6419
  164MOL0     C21564   7.372   7.803   8.927 -1.3535 -0.1473  0.5851
  164MOL0     C21565   7.321   7.724   8.826  0.3851  0.5945 -0.6063
  164MOL0     N21566   7.087   7.558   8.081  0.2573 -0.1100 -0.2890
  164MOL0     N21567   6.979   7.586   8.017 -0.3276 -0.4091 -1.2433
  164MOL0     C21568   6.423   7.388   8.531 -0.8478  0.7419  0.3225
  164MOL0     C21569   6.482   7.332   8.646  0.0521 -0.7107  0.2806
  164MOL0     C21570   6.669   7.027   8.881 -0.2617 -0.7752  0.8107
  164MOL0     C21571   6.718   6.904   8.903 -0.5394 -0.1878 -0.2436
  164MOL0     C21572   6.816   6.892   9.009 -0.2667  0.2156  0.1295
  164MOL0     C21573   6.885   7.001   9.061  0.0023  0.2873 -0.2831
  164MOL0     O21574   6.993   6.976   9.140  0.2992 -0.0368  0.9686
  164MOL0     C21575   7.074   6.855   9.132 -0.0917  0.0621  0.0840
  164MOL0     C21576   7.219   6.885   9.153 -0.0992 -0.0942 -0.4815
  164MOL0     C21577   7.284   6.973   9.054 -0.5410 -0.8411  0.8036
  164MOL0     C21578   7.440   6.971   9.071  0.4268 -0.4146 -0.3402
  164MOL0     C21579   7.500   7.070   9.165  0.3067 -0.2924  1.0757
  164MOL0     C21580   7.578   7.155   9.218  0.4986  0.3922  0.2622
  164MOL0     C21581   6.829   7.122   9.050  0.9575 -0.3172 -0.2940
  164MOL0     C21582   6.717   7.130   8.964  0.1857  0.7368  0.3652
  164MOL0     H21583   6.274   7.066   8.706  0.9305 -2.0016 -0.7724
  164MOL0     H21584   6.151   7.185   8.521 -2.2719  2.3173 -0.1101
  164MOL0     H21585   6.048   7.321   8.363  0.5352  1.0656  0.0680
  164MOL0     H21586   6.181   7.226   8.292 -0.1554 -0.5034 -0.7102
  164MOL0     H21587   6.100   7.503   8.185 -2.0237 -0.5475 -2.2037
  164MOL0     H21588   6.069   7.348   8.113 -1.2887 -0.4462 -0.1544
  164MOL0     H21589   6.334   7.319   8.136  0.6618 -0.3249  0.5773
  164MOL0     H21590   6.323   7.486   8.184  1.3304 -0.9514 -0.5760
  164MOL0     H21591   6.219   7.379   7.931  3.4076 -3.2220  0.6808
  164MOL0     H21592   6.239   7.554   7.966 -0.9549 -0.6787  3.2749
  164MOL0     H21593   6.422   7.454   7.807  0.6299  1.3349  0.4216
  164MOL0     H21594   6.463   7.344   7.942  0.5034  0.2181  0.5617
  164MOL0     H21595   6.467   7.602   8.035 -1.1783 -0.5100 -0.0340
  164MOL0     H21596   6.542   7.612   7.869  3.5002 -0.4632  0.1541
  164MOL0     H21597   6.643   7.430   8.089  1.7283  1.2028  1.0586
  164MOL0     H21598   6.720   7.467   7.930 -0.9085 -0.6181  0.6613
  164MOL0     H21599   6.703   7.663   8.169  0.2060  1.6530 -0.2598
  164MOL0     H21600   6.749   7.696   8.001  0.5234 -0.2707  0.3042
  164MOL0     H21601   6.871   7.475   8.305 -2.1564 -0.4775 -0.8625
  164MOL0     H21602   7.239   7.415   8.264 -1.6889 -0.0963 -2.0002
  164MOL0     H21603   7.106   7.407   8.380 -0.9764  0.9979 -0.4177
  164MOL0     H21604   7.144   7.672   8.383 -2.5150 -2.0635 -1.1020
  164MOL0     H21605   7.295   7.638   8.306 -0.8955  0.5157 -1.5186
  164MOL0     H21606   7.336   7.486   8.516  1.4477  0.7450  0.1015
  164MOL0     H21607   7.352   7.650   8.548  0.2177  0.8439 -1.1749
  164MOL0     H21608   7.213   7.500   8.711 -1.4097 -1.7981  0.0805
  164MOL0     H21609   7.081   7.510   8.592  0.4910  0.4968 -0.0292
  164MOL0     H21610   7.069   7.920   8.734 -0.7937 -0.2643 -0.5847
  164MOL0     H21611   7.168   8.072   8.889  0.4772  1.0627  1.3118
  164MOL0     H21612   7.200   8.273   9.150 -0.5456  1.9758 -1.9932
  164MOL0     H21613   7.232   8.441   9.319 -0.7831 -2.1044  1.0129
  164MOL0     H21614   7.658   8.564   9.436 -1.3630  1.1525 -0.9662
  164MOL0     H21615   7.579   8.454   9.556 -0.8771  0.3263  0.3152
  164MOL0     H21616   7.431   8.645   9.622 -1.0062  1.4211 -1.1105
  164MOL0     H21617   7.512   8.747   9.493 -2.1042  1.1846  1.2695
  164MOL0     H21618   7.605   8.802   9.696 -2.9751  0.6186 -0.6540
  164MOL0     H21619   7.740   8.726   9.609 -0.9368  1.6646  0.4603
  164MOL0     H21620   7.568   8.565   9.801  1.5182 -1.9034  1.2976
  164MOL0     H21621   7.719   8.517   9.732 -0.6392  0.9394 -1.9668
  164MOL0     H21622   7.742   8.573   9.955 -1.3241 -0.7899 -1.8358
  164MOL0     H21623   7.664   8.740   9.935  0.4279 -0.3597  2.0560
  164MOL0     H21624   7.861   8.824   9.812  1.0448  0.3999  0.9896
  164MOL0     H21625   7.918   8.660   9.802 -0.2750  0.7524 -1.4689
  164MOL0     H21626   7.987   8.687  10.050  0.5685 -1.3729 -2.2149
  164MOL0     H21627   8.041   8.813   9.945 -0.1306  0.1713  0.4238
  164MOL0     H21628   7.838   8.952  10.006  1.1458  1.9345  2.0767
  164MOL0     H21629   7.958   8.941  10.135 -0.2022  2.5845 -1.3028
  164MOL0     H21630   7.663   8.418   9.266 -1.3335  3.6669 -1.0065
  164MOL0     H21631   7.627   8.230   9.107 -0.0199  0.5028 -0.6453
  164MOL0     H21632   7.458   7.767   8.984  0.7404  1.2010 -1.5379
  164MOL0     H21633   7.363   7.626   8.803 -0.3661 -0.0531  0.6793
  164MOL0     H21634   6.472   7.459   8.466  1.3696 -0.9058  0.0802
  164MOL0     H21635   6.585   7.362   8.665  0.0176 -0.6420  0.3632
  164MOL0     H21636   6.668   6.826   8.848 -0.9169  1.5510 -2.5306
  164MOL0     H21637   6.849   6.794   9.043  1.4262  0.8849  0.4994
  164MOL0     H21638   7.064   6.807   9.034  1.2849 -1.3537  0.5944
  164MOL0     H21639   7.034   6.774   9.193  0.0579 -0.1285 -0.0693
  164MOL0     H21640   7.229   6.930   9.252  0.9721 -2.1752  0.4222
  164MOL0     H21641   7.279   6.794   9.160  0.8410  0.5372 -0.1425
  164MOL0     H21642   7.246   7.075   9.064  1.7957  0.4894 -2.1780
  164MOL0     H21643   7.245   6.933   8.960  1.3371  0.2792 -0.5171
  164MOL0     H21644   7.471   6.869   9.095 -2.0129 -1.8718 -2.7495
  164MOL0     H21645   7.483   6.983   8.972  3.3570  1.1698  0.9884
  164MOL0     H21646   7.651   7.209   9.275  1.7822  3.1386 -3.5564
  164MOL0     H21647   6.875   7.201   9.110 -0.2893  0.2882 -0.1044
  164MOL0     H21648   6.675   7.229   8.953 -0.6517  0.0861 -4.5012
  165MOL0     O21649  11.084   2.949  10.043 -0.5705 -0.2766 -0.3807
  165MOL0     C21650  11.144   2.884   9.956  0.1111 -1.0319 -0.6147
  165MOL0     O21651  11.207   2.944   9.844  0.5227 -0.5550 -0.4208
  165MOL0     C21652  11.199   3.082   9.839  0.4338  0.0800  0.8971
  165MOL0     C21653  11.312   3.177   9.847  0.6293  0.4415 -0.1740
  165MOL0     C21654  11.295   3.306   9.815 -0.3805  0.8539 -0.7961
  165MOL0     C21655  11.175   3.350   9.765  0.4657  0.6873  0.5574
  165MOL0     O21656  11.169   3.483   9.730  0.7721  0.0746  1.0117
  165MOL0     C21657  11.090   3.510   9.612  0.6619  0.1277  0.2988
  165MOL0     C21658  11.137   3.649   9.561 -0.6954  0.0945  0.2955
  165MOL0     C21659  11.123   3.763   9.660  0.0773  0.4041  0.9441
  165MOL0     C21660  11.129   3.903   9.582  0.5005 -0.2039  0.0234
  165MOL0     C21661  11.093   4.014   9.675  0.6689  0.1115 -0.4571
  165MOL0     C21662  11.182   4.033   9.801  0.5457  0.2829  0.8064
  165MOL0     C21663  11.167   4.177   9.854 -0.2123  1.1670 -0.2975
  165MOL0     C21664  11.256   4.212   9.967 -0.1548  0.2040  0.3141
  165MOL0     N21665  11.389   4.151   9.966 -0.0702  0.4068  0.1504
  165MOL0     C21666  11.497   4.193   9.896  0.2509  0.0935 -0.4156
  165MOL0     C21667  11.592   4.099   9.930 -1.0306 -0.2638  0.4654
  165MOL0     C21668  11.739   4.099   9.887  0.3995 -0.3119 -0.5842
  165MOL0     C21669  11.839   4.123  10.003 -0.2060 -0.3603 -0.3775
  165MOL0     C21670  11.991   4.140   9.949  0.2367  0.4615 -0.6376
  165MOL0     C21671  12.007   4.253   9.841 -0.2821 -0.3950 -0.2649
  165MOL0     O21672  11.956   4.376   9.885 -0.0683 -0.1845 -0.8399
  165MOL0     C21673  11.972   4.471   9.787  0.8416  0.0295 -0.1804
  165MOL0     C21674  11.971   4.609   9.830 -0.2321  0.4921  0.4243
  165MOL0     C21675  11.970   4.717   9.737  0.3333  0.1349  0.1801
  165MOL0     C21676  11.990   4.686   9.599  0.2197  0.4240 -0.6856
  165MOL0     C21677  11.989   4.799   9.498 -0.5931  0.2316 -0.3568
  165MOL0     O21678  12.027   4.778   9.368 -0.2218 -0.4317  0.2778
  165MOL0     C21679  12.012   4.878   9.282  0.2171 -1.1116 -0.0103
  165MOL0     C21680  11.891   4.944   9.253  0.0729  0.2028  0.5919
  165MOL0     C21681  11.874   5.043   9.165  0.2725 -1.0105  1.1949
  165MOL0     C21682  11.989   5.097   9.097  0.0964  0.9709  0.0660
  165MOL0     O21683  11.976   5.195   8.993 -1.0072  0.3351 -0.3325
  165MOL0     C21684  11.907   5.154   8.875  0.5704 -0.4415  0.9897
  165MOL0     C21685  11.953   5.245   8.764  0.0580  0.2076 -0.2882
  165MOL0     C21686  11.853   5.363   8.747 -0.4610  0.2857  0.2123
  165MOL0     C21687  11.911   5.448   8.628 -0.0933 -0.6986  0.0979
  165MOL0     C21688  11.847   5.589   8.605  0.1644  0.7106 -0.2855
  165MOL0     C21689  11.859   5.693   8.729  0.1801  0.3262  0.5685
  165MOL0     C21690  11.831   5.841   8.692  0.5114 -0.2115  0.4078
  165MOL0     C21691  11.860   5.924   8.822  0.5194 -0.5957 -0.1521
  165MOL0    Cl21692  12.021   5.937   8.879 -0.0653  0.2664  0.0065
  165MOL0     C21693  12.113   5.036   9.124 -0.7343 -0.2988  0.1095
  165MOL0     C21694  12.116   4.928   9.210  0.3397  0.1039  0.0998
  165MOL0     O21695  11.945   4.907   9.544  0.0473 -0.0592  0.5492
  165MOL0     C21696  12.004   4.552   9.555 -0.5699 -0.1932  1.1148
  165MOL0     C21697  11.994   4.446   9.649  0.3115  0.4574  0.2922
  165MOL0     N21698  11.535   3.990   9.998  0.8394 -0.3084  0.1125
  165MOL0     N21699  11.416   4.034  10.031 -0.3227 -0.3193 -0.1677
  165MOL0     C21700  11.069   3.265   9.747  0.5498  0.0524 -0.4424
  165MOL0     C21701  11.072   3.132   9.794 -0.6473 -0.1412  0.1070
  165MOL0     C21702  11.142   2.739   9.978  0.5098  0.9242 -0.0069
  165MOL0     C21703  11.199   2.645   9.886 -0.1258 -0.7242 -0.5018
  165MOL0     C21704  11.197   2.511   9.896  0.5123  0.0446 -0.4481
  165MOL0     C21705  11.153   2.459  10.017  0.2434  0.3121  0.8076
  165MOL0     O21706  11.164   2.328  10.048  0.0478  0.3030  0.1352
  165MOL0     C21707  11.280   2.252   9.994  0.0705 -0.0221 -0.9204
  165MOL0     C21708  11.262   2.100  10.021 -0.7013 -0.2768 -0.4158
  165MOL0     C21709  11.399   2.058  10.082  0.3926 -0.1833 -0.2223
  165MOL0     C21710  11.395   1.908  10.111  0.4426 -0.2391 -0.5362
  165MOL0     C21711  11.307   1.886  10.227  0.6119 -1.3980 -0.3002
  165MOL0     C21712  11.231   1.873  10.326 -0.1248  0.1526 -0.1216
  165MOL0     C21713  11.090   2.542  10.101 -0.1091 -0.4788  0.1763
  165MOL0     C21714  11.082   2.680  10.084  0.4760  0.1393 -0.2925
  165MOL0     H21715  11.412   3.139   9.862  0.4819 -0.3688 -1.1269
  165MOL0     H21716  11.374   3.379   9.824  0.3165 -0.1321  2.7305
  165MOL0     H21717  10.985   3.521   9.640  0.6834  0.4875  0.2473
  165MOL0     H21718  11.094   3.433   9.534  1.7496 -1.1116  1.5291
  165MOL0     H21719  11.058   3.677   9.490  0.6626 -1.7369 -2.0743
  165MOL0     H21720  11.237   3.658   9.518 -0.9481 -0.4422 -0.4199
  165MOL0     H21721  11.192   3.745   9.743 -1.5796 -1.3202  2.0322
  165MOL0     H21722  11.027   3.754   9.713  0.0633  2.0371  1.2628
  165MOL0     H21723  11.233   3.921   9.555  0.3700 -0.3075 -0.5833
  165MOL0     H21724  11.067   3.913   9.492  1.3697 -0.4336 -0.6181
  165MOL0     H21725  10.991   3.998   9.711  0.9403 -0.2059  0.2044
  165MOL0     H21726  11.085   4.108   9.621 -1.0743 -0.8835 -2.0191
  165MOL0     H21727  11.286   4.021   9.771  0.5179  1.2025  0.2812
  165MOL0     H21728  11.156   3.953   9.871 -0.8853 -1.4760 -1.5926
  165MOL0     H21729  11.174   4.250   9.772  1.8141 -0.5889 -1.8095
  165MOL0     H21730  11.066   4.191   9.893 -1.3791 -1.6111 -1.9882
  165MOL0     H21731  11.215   4.175  10.061 -0.8145 -0.5876 -0.2693
  165MOL0     H21732  11.266   4.321   9.966 -0.3179  0.2299 -1.7858
  165MOL0     H21733  11.502   4.282   9.834 -1.7884  0.6050  0.0683
  165MOL0     H21734  11.744   4.173   9.807 -3.4737 -0.0657 -0.7791
  165MOL0     H21735  11.774   4.002   9.851  3.5403  1.2558 -2.1372
  165MOL0     H21736  11.845   4.034  10.067 -3.1521 -2.3758 -2.6133
  165MOL0     H21737  11.823   4.209  10.068 -0.4298 -0.1483 -0.7131
  165MOL0     H21738  12.057   4.165  10.033 -2.0274  0.2568  1.3421
  165MOL0     H21739  12.027   4.045   9.907 -2.9560  0.0160 -2.6954
  165MOL0     H21740  11.960   4.217   9.749  0.3326 -0.1842 -0.6658
  165MOL0     H21741  12.112   4.266   9.815 -0.0294 -3.3367 -1.1546
  165MOL0     H21742  11.952   4.630   9.934  2.0842  0.6525  0.8592
  165MOL0     H21743  11.956   4.821   9.767 -2.7089  1.5986 -5.0339
  165MOL0     H21744  11.806   4.912   9.314 -0.6519 -1.4869 -1.2013
  165MOL0     H21745  11.787   5.108   9.166  2.6240  2.6220 -2.0255
  165MOL0     H21746  11.800   5.159   8.900  0.8152 -3.3937  3.1159
  165MOL0     H21747  11.937   5.051   8.854 -0.7132 -0.7257  0.4414
  165MOL0     H21748  11.962   5.186   8.672 -1.0720  0.8259 -0.8185
  165MOL0     H21749  12.048   5.293   8.790  0.8485  0.4455 -3.2087
  165MOL0     H21750  11.866   5.426   8.836 -2.6545  0.5479  0.4177
  165MOL0     H21751  11.746   5.340   8.736 -0.1285 -0.3927 -2.2915
  165MOL0     H21752  12.020   5.458   8.631 -0.0235 -1.5618  0.8527
  165MOL0     H21753  11.888   5.388   8.539  1.0544 -1.9198  0.5999
  165MOL0     H21754  11.740   5.582   8.580 -0.3953 -0.5458  2.1754
  165MOL0     H21755  11.890   5.633   8.515 -1.6747  1.7598 -0.7193
  165MOL0     H21756  11.960   5.678   8.768 -0.7392 -0.8247  2.7031
  165MOL0     H21757  11.783   5.678   8.807  1.8633  3.3084  3.0600
  165MOL0     H21758  11.880   5.874   8.600 -1.2112  1.1006 -0.0848
  165MOL0     H21759  11.727   5.846   8.658  1.0479 -1.5772 -1.5745
  165MOL0     H21760  11.816   5.869   8.906  2.1848 -1.0584  0.4540
  165MOL0     H21761  11.810   6.021   8.807 -1.1810 -1.3266  0.4697
  165MOL0     H21762  12.203   5.075   9.079 -0.6136  0.2501  0.8124
  165MOL0     H21763  12.214   4.883   9.225  2.1421  3.5237 -0.4380
  165MOL0     H21764  11.999   4.526   9.450  0.3347 -0.5761  1.1617
  165MOL0     H21765  12.006   4.350   9.601 -2.1478  1.4328 -2.5926
  165MOL0     H21766  10.973   3.301   9.709 -1.9105 -6.4479 -1.6871
  165MOL0     H21767  10.981   3.074   9.780 -0.4493 -0.5628  0.5412
  165MOL0     H21768  11.243   2.695   9.799 -1.0336 -0.4646 -0.8311
  165MOL0     H21769  11.224   2.441   9.817 -0.4373 -4.9582  3.2125
  165MOL0     H21770  11.376   2.292  10.027 -0.6059 -0.2304  1.5267
  165MOL0     H21771  11.282   2.263   9.886  1.1012 -0.0719 -0.9141
  165MOL0     H21772  11.173   2.087  10.083 -2.1940 -0.5864 -2.5339
  165MOL0     H21773  11.241   2.053   9.925  1.1344  1.3890 -1.7088
  165MOL0     H21774  11.423   2.102  10.179 -1.1729 -1.7664  0.9550
  165MOL0     H21775  11.479   2.082  10.012  1.2806  1.4317  1.2677
  165MOL0     H21776  11.377   1.853  10.018 -0.1952  0.7517 -1.0137
  165MOL0     H21777  11.497   1.882  10.141  1.4329  1.3470 -2.3029
  165MOL0     H21778  11.168   1.866  10.413 -0.9858  0.1070 -0.7331
  165MOL0     H21779  11.052   2.495  10.191  1.5744 -1.1912  0.5391
  165MOL0     H21780  11.035   2.739  10.163  1.9710  0.3679  0.4779
  166MOL0     O21781   2.855   7.365   2.684  0.8925 -0.9117  0.0296
  166MOL0     C21782   2.732   7.370   2.662  0.4681  1.6443 -0.6022
  166MOL0     O21783   2.639   7.374   2.756  0.1492  0.0205 -0.6595
  166MOL0     C21784   2.668   7.379   2.893  0.5353 -0.6080  0.1608
  166MOL0     C21785   2.774   7.466   2.932 -0.6575  0.3856  0.5931
  166MOL0     C21786   2.795   7.492   3.074  0.6801 -0.1795 -0.7953
  166MOL0     C21787   2.721   7.427   3.173 -0.0069 -0.2302 -0.6106
  166MOL0     O21788   2.735   7.470   3.300 -0.1083  0.1389  0.2176
  166MOL0     C21789   2.700   7.380   3.407 -0.4467  0.1420  0.0514
  166MOL0     C21790   2.764   7.402   3.546  0.4608  0.5907 -0.1050
  166MOL0     C21791   2.915   7.412   3.521  0.3677  0.5422  0.5774
  166MOL0     C21792   2.970   7.478   3.644 -0.6100  1.2497 -0.2696
  166MOL0     C21793   3.131   7.484   3.633 -0.0184  0.5537 -0.0672
  166MOL0     C21794   3.187   7.593   3.730 -0.7972 -0.4228 -0.8238
  166MOL0     C21795   3.149   7.739   3.725 -0.5685 -0.3034 -0.3787
  166MOL0     C21796   3.168   7.799   3.585  0.2772  0.6180 -0.4384
  166MOL0     N21797   3.056   7.771   3.489 -0.2200 -0.7140 -0.8562
  166MOL0     C21798   2.925   7.818   3.502  0.0436 -0.1469  0.3766
  166MOL0     C21799   2.869   7.804   3.378 -0.3178 -0.4191 -1.3139
  166MOL0     C21800   2.727   7.852   3.345 -0.5174 -0.3969  0.4035
  166MOL0     C21801   2.739   7.907   3.198  0.0668  0.6639 -0.0212
  166MOL0     C21802   2.599   7.964   3.171  0.3418 -0.3738 -0.2579
  166MOL0     C21803   2.576   7.978   3.020 -1.0416  0.9628 -0.9194
  166MOL0     O21804   2.553   7.847   2.963 -0.0803 -0.3822  0.5703
  166MOL0     C21805   2.500   7.824   2.836  0.6642 -0.5527  0.0822
  166MOL0     C21806   2.481   7.689   2.822  0.2914 -0.2959  0.2307
  166MOL0     C21807   2.433   7.644   2.695  0.0299  0.7430  0.6802
  166MOL0     C21808   2.379   7.734   2.596 -1.0974  0.6300  0.1499
  166MOL0     C21809   2.304   7.678   2.474 -0.4444 -0.2383 -0.6708
  166MOL0     O21810   2.228   7.771   2.401  0.3230  1.0565 -0.1009
  166MOL0     C21811   2.154   7.739   2.290 -1.0725  0.0016  0.4195
  166MOL0     C21812   2.024   7.790   2.267  0.8360 -0.5965  0.1575
  166MOL0     C21813   1.957   7.766   2.149  0.3326  0.1229  0.5651
  166MOL0     C21814   2.011   7.680   2.047 -0.1692  0.8096 -0.4964
  166MOL0     O21815   1.956   7.635   1.929  0.9333 -0.1711 -0.0800
  166MOL0     C21816   1.821   7.690   1.901  0.7867  0.8274  0.6664
  166MOL0     C21817   1.771   7.632   1.770 -0.0978  0.6760  0.4043
  166MOL0     C21818   1.628   7.675   1.733 -0.5851  0.6366 -0.7323
  166MOL0     C21819   1.586   7.591   1.611 -0.2335  0.1127 -0.7114
  166MOL0     C21820   1.447   7.639   1.561 -0.1941  0.9858  0.8398
  166MOL0     C21821   1.386   7.536   1.467 -0.1433  0.4609 -0.0431
  166MOL0     C21822   1.237   7.560   1.443 -1.1876 -0.4037 -0.1596
  166MOL0     C21823   1.193   7.462   1.344  0.1699  0.7251 -0.4317
  166MOL0    Cl21824   1.017   7.443   1.346  0.8923 -0.4705 -0.0249
  166MOL0     C21825   2.149   7.638   2.068  0.5749  0.6872 -0.9771
  166MOL0     C21826   2.217   7.663   2.190 -0.2072 -0.5162  0.9568
  166MOL0     O21827   2.299   7.558   2.460  0.6750 -0.1275  0.7627
  166MOL0     C21828   2.398   7.872   2.623  0.0817 -0.3906 -0.9571
  166MOL0     C21829   2.460   7.916   2.741  0.1644  0.2488  0.1851
  166MOL0     N21830   2.971   7.759   3.294 -0.1986  0.7753 -0.0456
  166MOL0     N21831   3.085   7.743   3.364  0.9015  0.1761 -0.9722
  166MOL0     C21832   2.627   7.326   3.126  0.0744 -0.4380  0.2829
  166MOL0     C21833   2.595   7.310   2.987  0.4422 -0.4455  0.2430
  166MOL0     C21834   2.684   7.326   2.527  0.5512  0.1608 -1.2211
  166MOL0     C21835   2.545   7.300   2.509  0.0081  0.0136 -0.1297
  166MOL0     C21836   2.486   7.248   2.388 -0.1746 -0.5854  0.6237
  166MOL0     C21837   2.573   7.229   2.280  0.8549 -0.6378  0.6773
  166MOL0     O21838   2.529   7.191   2.153 -0.1990 -0.0326  1.0055
  166MOL0     C21839   2.391   7.199   2.121  0.3701 -0.6037  0.1534
  166MOL0     C21840   2.389   7.174   1.969 -0.0617 -0.0231 -0.6861
  166MOL0     C21841   2.241   7.162   1.913  1.4486  0.2699  0.4647
  166MOL0     C21842   2.231   7.216   1.766 -0.7569  0.0791  0.3587
  166MOL0     C21843   2.342   7.174   1.678  0.4756 -0.5589  0.1545
  166MOL0     C21844   2.429   7.162   1.602 -0.7997  1.1720  0.5929
  166MOL0     C21845   2.712   7.258   2.295  1.9509 -0.0284  0.0135
  166MOL0     C21846   2.767   7.309   2.410 -0.5005  0.3974 -0.6920
  166MOL0     H21847   2.839   7.522   2.866 -1.6454  1.2450  0.3377
  166MOL0     H21848   2.862   7.573   3.100  0.1316  1.6680 -4.4696
  166MOL0     H21849   2.721   7.276   3.380 -4.6033 -0.8158 -0.2600
  166MOL0     H21850   2.591   7.387   3.402 -0.4688 -0.5549 -0.6550
  166MOL0     H21851   2.742   7.320   3.616 -1.8011  0.1460 -1.2322
  166MOL0     H21852   2.719   7.493   3.587  0.7960  0.1734  1.2466
  166MOL0     H21853   2.941   7.473   3.434  1.6719  1.2594  1.4182
  166MOL0     H21854   2.967   7.316   3.512 -1.3895 -0.2107 -2.8100
  166MOL0     H21855   2.933   7.581   3.649 -3.1983  0.4379 -0.7592
  166MOL0     H21856   2.948   7.414   3.730  0.1611 -1.9514 -2.2994
  166MOL0     H21857   3.161   7.503   3.529  2.3817  2.8245  0.9158
  166MOL0     H21858   3.187   7.395   3.662  0.2809  1.7140  3.4182
  166MOL0     H21859   3.296   7.586   3.734 -0.7321  0.8680  0.5300
  166MOL0     H21860   3.169   7.567   3.835 -1.0688  3.0390  0.1321
  166MOL0     H21861   3.049   7.745   3.770  0.0300  0.4630  0.8897
  166MOL0     H21862   3.213   7.797   3.792 -1.3090  0.2048 -0.0973
  166MOL0     H21863   3.263   7.754   3.554  0.4643 -1.7816  3.1010
  166MOL0     H21864   3.172   7.908   3.590 -1.4330  0.6720  0.4907
  166MOL0     H21865   2.892   7.872   3.590 -0.1000 -0.6934  0.6632
  166MOL0     H21866   2.714   7.938   3.411  2.8037 -0.1633  0.9594
  166MOL0     H21867   2.654   7.771   3.337 -0.6606 -0.2072 -0.2310
  166MOL0     H21868   2.761   7.819   3.137  1.4650 -0.5332  2.0931
  166MOL0     H21869   2.811   7.989   3.190 -1.6656  2.2648 -0.0033
  166MOL0     H21870   2.524   7.895   3.212  1.0788  1.0018  3.9141
  166MOL0     H21871   2.599   8.069   3.201 -0.3612 -0.5468  0.3819
  166MOL0     H21872   2.669   8.018   2.978 -0.7760  1.0085 -0.2934
  166MOL0     H21873   2.489   8.041   3.004 -0.7321  1.6125 -0.1031
  166MOL0     H21874   2.495   7.624   2.908 -1.2780 -1.0025 -0.0077
  166MOL0     H21875   2.425   7.536   2.695  0.7258  0.6671 -0.7067
  166MOL0     H21876   1.971   7.853   2.338 -1.1972 -0.7616 -1.1424
  166MOL0     H21877   1.854   7.802   2.148  0.4843  0.5444  0.3648
  166MOL0     H21878   1.826   7.798   1.891  1.8416  0.9797  2.4220
  166MOL0     H21879   1.753   7.654   1.979 -0.9377  2.1137 -0.1774
  166MOL0     H21880   1.773   7.523   1.768 -0.9329  0.6468 -2.3013
  166MOL0     H21881   1.839   7.659   1.689  1.3816 -3.5813 -0.0324
  166MOL0     H21882   1.639   7.775   1.691  4.3699  0.7240  0.1942
  166MOL0     H21883   1.553   7.678   1.813 -0.7210 -4.2901 -0.3680
  166MOL0     H21884   1.665   7.602   1.536  1.1794 -2.0750  0.3534
  166MOL0     H21885   1.584   7.486   1.640  0.0312  0.6368  1.3527
  166MOL0     H21886   1.455   7.741   1.522  1.7174  0.4094 -0.4453
  166MOL0     H21887   1.368   7.645   1.637 -3.1334 -0.7781 -1.8663
  166MOL0     H21888   1.395   7.435   1.510  3.2461 -0.1248 -1.8186
  166MOL0     H21889   1.440   7.530   1.372  0.0897  0.2650  0.1003
  166MOL0     H21890   1.179   7.557   1.535 -2.0017 -0.5728 -0.6633
  166MOL0     H21891   1.218   7.660   1.402 -3.4702 -0.0346  1.6277
  166MOL0     H21892   1.230   7.364   1.375  0.5380  0.6055 -1.2414
  166MOL0     H21893   1.231   7.476   1.243 -1.1564  2.9718 -0.6685
  166MOL0     H21894   2.190   7.568   1.996  2.6265  1.2313 -0.3810
  166MOL0     H21895   2.319   7.628   2.203 -0.4750 -2.8362 -1.9323
  166MOL0     H21896   2.353   7.946   2.558 -0.7812 -0.1040 -0.0700
  166MOL0     H21897   2.466   8.022   2.763 -0.2213 -0.1650  2.5876
  166MOL0     H21898   2.568   7.267   3.195  1.5796  0.2472  2.2465
  166MOL0     H21899   2.520   7.244   2.945  0.5207  1.3733 -3.0797
  166MOL0     H21900   2.489   7.298   2.602  0.6678 -1.7131  0.2645
  166MOL0     H21901   2.380   7.228   2.375 -0.2697 -0.6419  1.4554
  166MOL0     H21902   2.351   7.295   2.155  2.4134 -0.2149  1.6890
  166MOL0     H21903   2.334   7.129   2.182  2.8085 -0.2738  3.0330
  166MOL0     H21904   2.450   7.241   1.907 -0.2038 -0.6140 -1.4794
  166MOL0     H21905   2.439   7.077   1.962  0.5082 -0.0512  2.3094
  166MOL0     H21906   2.168   7.223   1.967  0.2671  1.3039 -2.1201
  166MOL0     H21907   2.205   7.059   1.921  0.8444  0.0410 -3.3562
  166MOL0     H21908   2.136   7.174   1.732 -0.0439 -0.5283 -0.9730
  166MOL0     H21909   2.221   7.325   1.766  0.0856  0.1602  0.5721
  166MOL0     H21910   2.494   7.151   1.517  2.0787  0.9350  2.6856
  166MOL0     H21911   2.766   7.239   2.203 -0.2989 -2.7545 -0.9170
  166MOL0     H21912   2.874   7.317   2.423 -0.4059 -0.5267 -0.8274
  167MOL0     O21913   0.581   0.725   4.381 -0.0456 -0.6058  1.0396
  167MOL0     C21914   0.621   0.844   4.344  0.2450  0.3570 -0.5822
  167MOL0     O21915   0.538   0.944   4.280  0.4437  0.5213  0.3838
  167MOL0     C21916   0.405   0.916   4.277 -0.1358 -0.4126 -0.0159
  167MOL0     C21917   0.346   0.827   4.191  0.7661  0.0963 -0.3517
  167MOL0     C21918   0.210   0.809   4.182  0.6125  0.0863 -0.5513
  167MOL0     C21919   0.123   0.878   4.269  0.4556 -0.2279 -0.4440
  167MOL0     O21920  -0.015   0.872   4.256  0.5547  0.3896 -0.5003
  167MOL0     C21921  -0.112   0.940   4.348 -0.0914 -0.2467 -0.1037
  167MOL0     C21922  -0.250   0.862   4.334 -0.4002  0.1008 -0.5446
  167MOL0     C21923  -0.298   0.853   4.191 -1.1122 -0.7649 -0.2305
  167MOL0     C21924  -0.444   0.877   4.165 -0.2161  0.1222  0.3122
  167MOL0     C21925  -0.474   0.849   4.014  0.7113 -0.3799 -0.3967
  167MOL0     C21926  -0.476   0.691   3.977 -0.1183 -0.7443  0.2545
  167MOL0     C21927  -0.518   0.684   3.838  0.2088  0.1906  0.1802
  167MOL0     C21928  -0.513   0.530   3.792 -0.4459 -0.7569 -0.3143
  167MOL0     N21929  -0.537   0.523   3.646  0.4383 -0.6597 -0.0260
  167MOL0     C21930  -0.589   0.413   3.578  0.8406 -0.4343  0.4022
  167MOL0     C21931  -0.614   0.467   3.455 -0.0281  0.1546  0.3468
  167MOL0     C21932  -0.680   0.397   3.338 -0.5714 -0.0201 -0.0132
  167MOL0     C21933  -0.819   0.460   3.307  0.0615 -0.3473 -0.5860
  167MOL0     C21934  -0.919   0.362   3.240  0.3701 -0.5086  0.1909
  167MOL0     C21935  -0.999   0.436   3.135  0.4574 -0.0799 -0.4184
  167MOL0     O21936  -1.071   0.343   3.060  0.2090  0.5273  0.4017
  167MOL0     C21937  -1.175   0.264   3.110  0.3362 -0.0761 -0.2042
  167MOL0     C21938  -1.172   0.132   3.070 -0.0203  1.0673 -0.3254
  167MOL0     C21939  -1.269   0.041   3.116  0.0867 -0.2276 -0.1484
  167MOL0     C21940  -1.382   0.089   3.193  0.4046  0.7023 -0.2524
  167MOL0     C21941  -1.489  -0.006   3.227  0.8504  0.0646 -0.4016
  167MOL0     O21942  -1.492  -0.119   3.146  0.1143 -0.7401 -0.9239
  167MOL0     C21943  -1.597  -0.211   3.168 -0.3583 -0.0936  0.4485
  167MOL0     C21944  -1.644  -0.261   3.283  0.8672  0.6101 -1.0220
  167MOL0     C21945  -1.738  -0.366   3.302 -0.4164 -0.5045  0.8581
  167MOL0     C21946  -1.788  -0.424   3.187 -0.1352  0.5011 -0.5024
  167MOL0     O21947  -1.893  -0.505   3.207  0.0108 -0.2690 -0.4309
  167MOL0     C21948  -1.885  -0.625   3.125  0.1641  1.1794  0.0853
  167MOL0     C21949  -1.950  -0.740   3.203  0.2412  0.5616 -0.2788
  167MOL0     C21950  -1.848  -0.829   3.265 -0.5653 -0.1574 -0.1560
  167MOL0     C21951  -1.927  -0.945   3.334 -0.3380  0.2284  0.4331
  167MOL0     C21952  -1.828  -1.046   3.385  0.8943  0.0324  1.5977
  167MOL0     C21953  -1.902  -1.179   3.404  0.4740 -0.1331 -0.1875
  167MOL0     C21954  -1.800  -1.288   3.459 -0.1244  0.6052  0.3227
  167MOL0     C21955  -1.857  -1.439   3.454 -0.0414 -1.0011  0.3855
  167MOL0    Cl21956  -1.724  -1.547   3.509 -0.1520  0.1631  0.0298
  167MOL0     C21957  -1.731  -0.390   3.061 -0.7540 -0.4890  0.6988
  167MOL0     C21958  -1.635  -0.287   3.057  0.2090 -0.4479  0.6903
  167MOL0     O21959  -1.569   0.015   3.326 -0.4386 -0.1251  0.3864
  167MOL0     C21960  -1.385   0.216   3.233 -0.5664 -0.7086  1.0083
  167MOL0     C21961  -1.273   0.303   3.198 -0.2046 -0.2328  0.7321
  167MOL0     N21962  -0.579   0.603   3.449 -0.4132 -1.0994  0.3069
  167MOL0     N21963  -0.514   0.629   3.564  1.1376  0.4402  0.3168
  167MOL0     C21964   0.181   0.977   4.354 -0.2714 -0.8061  0.0636
  167MOL0     C21965   0.313   1.003   4.348  0.7362  0.0948 -0.2495
  167MOL0     C21966   0.764   0.880   4.348  0.0976 -0.4790  0.1179
  167MOL0     C21967   0.868   0.788   4.404 -0.4999 -0.4784 -0.3984
  167MOL0     C21968   0.997   0.829   4.423 -0.4720 -0.7395  0.3776
  167MOL0     C21969   1.039   0.953   4.374 -0.2434  1.2299 -0.5759
  167MOL0     O21970   1.175   0.991   4.405  0.5426 -0.1789  1.0522
  167MOL0     C21971   1.233   1.121   4.362 -0.5062 -0.2019  0.0133
  167MOL0     C21972   1.337   1.152   4.460  0.1766 -1.4480  0.0994
  167MOL0     C21973   1.404   1.293   4.434  0.2658 -0.7002 -0.3571
  167MOL0     C21974   1.516   1.312   4.542  0.7819  0.3011  0.0966
  167MOL0     C21975   1.600   1.416   4.492 -0.2706  0.1333  0.8536
  167MOL0     C21976   1.674   1.508   4.466  0.6125  0.2187 -0.1354
  167MOL0     C21977   0.948   1.036   4.313  0.1019 -1.0778  0.3842
  167MOL0     C21978   0.813   1.002   4.297 -0.7423  1.1994 -0.5166
  167MOL0     H21979   0.423   0.773   4.137  2.3486  0.4384  1.4614
  167MOL0     H21980   0.163   0.740   4.112 -1.4265 -0.1895  0.9575
  167MOL0     H21981  -0.115   1.049   4.338  1.5056  0.0582  2.1301
  167MOL0     H21982  -0.084   0.920   4.452  0.9605  1.9152  0.0778
  167MOL0     H21983  -0.327   0.904   4.398 -2.2202 -0.0947 -2.5072
  167MOL0     H21984  -0.231   0.758   4.362  0.2756  0.6396  1.0694
  167MOL0     H21985  -0.286   0.753   4.149 -0.0670 -0.0313 -1.8071
  167MOL0     H21986  -0.248   0.926   4.126 -0.7731 -3.8634 -3.8110
  167MOL0     H21987  -0.490   0.796   4.223  1.8496 -1.4278 -0.0751
  167MOL0     H21988  -0.479   0.973   4.203 -0.2177  0.0728  0.4397
  167MOL0     H21989  -0.404   0.903   3.950  0.6226  1.0186  0.6253
  167MOL0     H21990  -0.576   0.886   4.000  0.0410 -2.6040 -1.9317
  167MOL0     H21991  -0.539   0.636   4.047  2.0434  0.5372  3.4790
  167MOL0     H21992  -0.380   0.638   3.982 -1.2207 -2.7019  1.9307
  167MOL0     H21993  -0.626   0.705   3.833  0.1474 -0.2148 -0.2836
  167MOL0     H21994  -0.452   0.754   3.786 -1.1333  0.1639 -1.6657
  167MOL0     H21995  -0.570   0.467   3.860 -0.5316  0.4879  0.8033
  167MOL0     H21996  -0.407   0.504   3.806 -0.2181  0.0879 -0.4254
  167MOL0     H21997  -0.607   0.309   3.604  2.5736 -1.9449 -3.6748
  167MOL0     H21998  -0.689   0.291   3.362  0.8786 -0.3831 -0.9945
  167MOL0     H21999  -0.634   0.406   3.240 -0.5779  2.6230  0.1438
  167MOL0     H22000  -0.821   0.557   3.256 -0.2556  0.4914  0.9478
  167MOL0     H22001  -0.860   0.486   3.405  0.4180  2.2389 -1.0363
  167MOL0     H22002  -0.868   0.284   3.183 -1.8855 -0.0505 -2.6515
  167MOL0     H22003  -0.979   0.327   3.325  3.1565 -0.1148  2.4921
  167MOL0     H22004  -0.936   0.495   3.069  0.6554  0.2726  0.0764
  167MOL0     H22005  -1.065   0.504   3.190 -1.4461  0.5894 -3.3415
  167MOL0     H22006  -1.098   0.094   3.000 -1.8441 -2.5019 -0.4851
  167MOL0     H22007  -1.261  -0.065   3.096 -3.9247 -1.5024  3.5276
  167MOL0     H22008  -1.601  -0.217   3.372 -0.8785 -0.7409  0.5671
  167MOL0     H22009  -1.801  -0.378   3.390 -3.3163 -3.4080 -1.3605
  167MOL0     H22010  -1.783  -0.660   3.110 -0.1574 -0.5785  1.6715
  167MOL0     H22011  -1.937  -0.603   3.031  2.2994  1.7246 -1.0356
  167MOL0     H22012  -2.020  -0.792   3.137 -2.6959  1.5996  1.8204
  167MOL0     H22013  -2.018  -0.691   3.274  0.3551  3.3232 -1.9444
  167MOL0     H22014  -1.803  -0.774   3.349  0.0061 -2.6025  1.2168
  167MOL0     H22015  -1.769  -0.859   3.196 -1.4823 -0.6251 -1.0089
  167MOL0     H22016  -1.965  -0.905   3.429  1.1127 -0.7764  1.4884
  167MOL0     H22017  -1.993  -0.992   3.261  1.2224  2.1799 -2.4401
  167MOL0     H22018  -1.795  -1.023   3.486 -1.2012  1.3417  2.0478
  167MOL0     H22019  -1.741  -1.054   3.319  1.9927  4.0916  2.2990
  167MOL0     H22020  -1.943  -1.212   3.308 -2.7814 -2.5859  1.8427
  167MOL0     H22021  -1.988  -1.167   3.470 -0.8709 -1.6931 -1.5520
  167MOL0     H22022  -1.714  -1.284   3.391 -0.5497  1.2041 -0.1998
  167MOL0     H22023  -1.786  -1.257   3.563 -1.2623  2.6682 -0.0845
  167MOL0     H22024  -1.892  -1.479   3.358  0.6874 -1.1690  0.1851
  167MOL0     H22025  -1.939  -1.455   3.524 -1.7278 -2.3982 -1.7540
  167MOL0     H22026  -1.783  -0.413   2.969  3.2665 -1.3350 -1.6277
  167MOL0     H22027  -1.595  -0.259   2.960 -2.4837  1.9518  0.1033
  167MOL0     H22028  -1.472   0.259   3.282 -1.0890 -0.5971  0.0094
  167MOL0     H22029  -1.257   0.406   3.228  1.3888 -0.2451  0.0504
  167MOL0     H22030   0.123   1.056   4.402  2.1036  1.3475 -0.3951
  167MOL0     H22031   0.356   1.085   4.405  1.7337  0.2436 -1.1936
  167MOL0     H22032   0.840   0.694   4.449 -2.1255  0.3298  0.3562
  167MOL0     H22033   1.066   0.755   4.462  0.2248 -1.0219 -1.3042
  167MOL0     H22034   1.164   1.206   4.360 -0.2221  0.0233 -0.2889
  167MOL0     H22035   1.275   1.118   4.261  0.0749  1.8457  0.1595
  167MOL0     H22036   1.297   1.148   4.562  0.0404 -0.4035  0.1039
  167MOL0     H22037   1.408   1.069   4.459  1.9977 -0.0133  2.0710
  167MOL0     H22038   1.332   1.376   4.435  2.0449  0.9064 -0.7463
  167MOL0     H22039   1.447   1.302   4.335 -0.7648 -0.3662 -0.7884
  167MOL0     H22040   1.477   1.343   4.640 -2.1869  0.1305 -0.9185
  167MOL0     H22041   1.573   1.219   4.554 -1.7277 -1.1325  1.8071
  167MOL0     H22042   1.742   1.589   4.447  2.5631 -1.5804 -1.2855
  167MOL0     H22043   0.979   1.134   4.280  0.7161 -0.8724  1.5525
  167MOL0     H22044   0.735   1.064   4.253 -0.9308  2.4413  1.4178
  168MOL0     O22045   6.127   1.573   0.879 -0.1429 -0.9133  0.3034
  168MOL0     C22046   6.212   1.525   0.802 -0.2489 -0.3644 -0.5306
  168MOL0     O22047   6.343   1.551   0.805 -0.2664  0.6916  0.0856
  168MOL0     C22048   6.379   1.661   0.876  0.3314 -0.5237 -0.0593
  168MOL0     C22049   6.424   1.773   0.799 -0.5120  0.5101 -0.2190
  168MOL0     C22050   6.473   1.890   0.855  0.1179  0.9982 -0.2695
  168MOL0     C22051   6.478   1.890   1.001 -0.2763  0.1161  1.1511
  168MOL0     O22052   6.554   1.990   1.045 -0.4516 -0.5796  0.2953
  168MOL0     C22053   6.555   2.001   1.193 -0.3368 -0.9218 -1.0871
  168MOL0     C22054   6.661   2.105   1.224 -0.9727 -0.1188  0.0284
  168MOL0     C22055   6.600   2.249   1.206  0.1259 -0.1105  0.2375
  168MOL0     C22056   6.672   2.359   1.294 -0.0295  0.3168  0.2830
  168MOL0     C22057   6.637   2.507   1.261 -0.0437  0.3624 -0.1264
  168MOL0     C22058   6.695   2.608   1.364 -0.1086 -0.6576  0.0755
  168MOL0     C22059   6.674   2.751   1.316  0.9394 -0.4371  0.7098
  168MOL0     C22060   6.726   2.797   1.174  0.4809  1.0777 -0.4936
  168MOL0     N22061   6.729   2.941   1.175  0.5908 -0.3495 -0.3130
  168MOL0     C22062   6.841   3.023   1.184 -1.1114 -0.2375  0.3071
  168MOL0     C22063   6.794   3.151   1.161 -0.3710 -0.0887  0.0824
  168MOL0     C22064   6.857   3.278   1.162 -0.1116 -0.7697  0.0716
  168MOL0     C22065   6.900   3.319   1.308  0.7205  0.7388 -0.0145
  168MOL0     C22066   6.791   3.419   1.358 -0.0776 -0.9174 -1.1746
  168MOL0     C22067   6.836   3.451   1.504 -0.0617 -0.3104 -1.5316
  168MOL0     O22068   6.967   3.508   1.505 -0.6153 -0.4710  0.6339
  168MOL0     C22069   6.978   3.637   1.458  0.2211 -0.1618 -0.4307
  168MOL0     C22070   6.915   3.740   1.537  0.8979 -0.8694 -0.0843
  168MOL0     C22071   6.937   3.870   1.517  0.0459  0.0895  0.2349
  168MOL0     C22072   7.011   3.914   1.410 -0.2094 -0.6251  0.4197
  168MOL0     C22073   7.041   4.057   1.372 -0.7179  0.1930  0.6286
  168MOL0     O22074   7.108   4.081   1.253 -0.6082  0.4206  0.3659
  168MOL0     C22075   7.143   4.208   1.204 -0.5490  1.2296  0.0889
  168MOL0     C22076   7.216   4.302   1.273  0.8057  0.4351  0.2394
  168MOL0     C22077   7.231   4.435   1.231  0.4436 -0.2059 -1.2165
  168MOL0     C22078   7.188   4.476   1.103 -0.1482  0.5170 -0.2838
  168MOL0     O22079   7.224   4.597   1.049  0.4821  0.2067 -0.1605
  168MOL0     C22080   7.171   4.712   1.114  0.9050  1.1146  0.7484
  168MOL0     C22081   7.242   4.830   1.048 -0.1388 -0.4185  0.7431
  168MOL0     C22082   7.204   4.852   0.896 -0.2170 -0.7680  0.2731
  168MOL0     C22083   7.276   4.964   0.822 -0.0222  0.1324 -0.2244
  168MOL0     C22084   7.228   4.976   0.663 -0.8597  0.2832  0.5252
  168MOL0     C22085   7.320   5.081   0.598  0.6193 -0.8259 -0.6143
  168MOL0     C22086   7.293   5.095   0.449  0.5051  0.3166 -0.4136
  168MOL0     C22087   7.345   5.226   0.380 -0.4467  0.1201 -0.5401
  168MOL0    Cl22088   7.267   5.241   0.212 -0.0811 -0.3810 -0.2537
  168MOL0     C22089   7.117   4.378   1.034 -0.0614  0.1132  0.7045
  168MOL0     C22090   7.086   4.246   1.084  0.3069 -0.7442  0.7535
  168MOL0     O22091   6.995   4.141   1.442 -0.0139  0.1979 -0.3581
  168MOL0     C22092   7.052   3.808   1.309 -0.6726  0.2944 -0.7325
  168MOL0     C22093   7.035   3.676   1.340  0.6182  0.8263 -0.2257
  168MOL0     N22094   6.660   3.142   1.133  0.5177 -0.0637 -0.3683
  168MOL0     N22095   6.620   3.020   1.153  0.3717  0.3076 -1.2035
  168MOL0     C22096   6.433   1.780   1.079 -0.6190 -0.3900 -0.2318
  168MOL0     C22097   6.377   1.670   1.016 -0.0295 -0.8795  0.9753
  168MOL0     C22098   6.167   1.415   0.708  0.4630  1.1476  1.1323
  168MOL0     C22099   6.035   1.352   0.715 -0.1384  0.2426 -0.4638
  168MOL0     C22100   5.995   1.256   0.617  0.2274 -0.7116  0.3297
  168MOL0     C22101   6.085   1.226   0.516  0.1251  0.1917 -0.0849
  168MOL0     O22102   6.039   1.129   0.436  0.6218  0.2095 -0.1974
  168MOL0     C22103   6.117   1.059   0.335 -0.2397  0.4945  0.2905
  168MOL0     C22104   6.045   0.933   0.269  0.3153 -0.4702  0.8006
  168MOL0     C22105   6.101   0.879   0.137 -0.9029  0.2378  0.8214
  168MOL0     C22106   6.050   0.732   0.114 -0.0605  0.6043 -0.5507
  168MOL0     C22107   5.907   0.735   0.083 -0.6007 -0.1302  0.7552
  168MOL0     C22108   5.790   0.751   0.053  0.3638 -0.6657  0.2092
  168MOL0     C22109   6.211   1.277   0.509  0.6007 -1.1676 -0.0924
  168MOL0     C22110   6.250   1.373   0.605 -0.6391 -0.6221  0.8334
  168MOL0     H22111   6.400   1.769   0.693 -0.7204  1.2685 -0.2052
  168MOL0     H22112   6.521   1.978   0.813 -1.6305  1.9316 -0.3804
  168MOL0     H22113   6.577   1.911   1.252 -3.6580 -1.6273 -0.7201
  168MOL0     H22114   6.455   2.029   1.225  0.0151 -1.0325  0.1419
  168MOL0     H22115   6.749   2.095   1.160 -1.3477  2.4968 -1.0281
  168MOL0     H22116   6.692   2.103   1.329 -1.1427 -1.5130  0.0655
  168MOL0     H22117   6.499   2.240   1.248 -0.5451 -0.5093 -1.4083
  168MOL0     H22118   6.602   2.275   1.100 -2.2337  1.2503  0.4610
  168MOL0     H22119   6.654   2.334   1.399  4.8150  1.8463  1.7343
  168MOL0     H22120   6.781   2.352   1.286  0.0434  2.1641 -0.9891
  168MOL0     H22121   6.529   2.526   1.255 -0.1242  0.6141  1.4722
  168MOL0     H22122   6.678   2.528   1.162 -1.1340 -0.9278 -0.8932
  168MOL0     H22123   6.804   2.603   1.370  0.0429  1.1080 -0.4903
  168MOL0     H22124   6.643   2.585   1.457  0.8823 -1.9506  0.3309
  168MOL0     H22125   6.567   2.772   1.312  0.9879  0.0050 -4.2951
  168MOL0     H22126   6.729   2.815   1.386  1.8050  0.0920 -0.4275
  168MOL0     H22127   6.670   2.745   1.095  1.3531 -2.6578  1.1279
  168MOL0     H22128   6.829   2.762   1.179  0.0817 -0.0493  0.3105
  168MOL0     H22129   6.939   2.981   1.206 -0.4983  0.2335 -1.3952
  168MOL0     H22130   6.791   3.353   1.118  1.0058 -0.6904 -1.5651
  168MOL0     H22131   6.941   3.283   1.093  1.6095 -1.0330  2.0423
  168MOL0     H22132   7.000   3.363   1.306  0.0228  2.3527 -1.4108
  168MOL0     H22133   6.900   3.237   1.381  1.9841  2.5820  2.1784
  168MOL0     H22134   6.788   3.510   1.297 -0.5092  0.1152  0.3499
  168MOL0     H22135   6.689   3.379   1.362 -1.1668  1.7797  2.3716
  168MOL0     H22136   6.836   3.357   1.560  1.1721  1.7166  2.2339
  168MOL0     H22137   6.764   3.520   1.549  0.9590  0.3561 -0.8758
  168MOL0     H22138   6.860   3.721   1.629 -1.5528  2.4781 -0.6903
  168MOL0     H22139   6.895   3.948   1.580  0.3766  0.5489 -0.1073
  168MOL0     H22140   7.251   4.277   1.373  0.1387  0.4709  0.4893
  168MOL0     H22141   7.280   4.516   1.283 -3.0970  0.4641  1.4924
  168MOL0     H22142   7.181   4.703   1.222  1.9479 -1.7523  0.5041
  168MOL0     H22143   7.065   4.713   1.085  0.8049 -1.7414  0.6890
  168MOL0     H22144   7.350   4.813   1.054 -0.2460 -1.4196  0.1287
  168MOL0     H22145   7.206   4.915   1.107  0.3148 -0.4740  1.1061
  168MOL0     H22146   7.098   4.882   0.897  0.6564  3.1647 -2.3071
  168MOL0     H22147   7.215   4.755   0.848  4.2211 -0.1712 -0.3227
  168MOL0     H22148   7.268   5.055   0.882 -1.8388  0.4287 -0.8694
  168MOL0     H22149   7.381   4.933   0.826 -0.1009 -0.8012 -3.2990
  168MOL0     H22150   7.125   5.003   0.640 -0.1652  1.5397 -1.3672
  168MOL0     H22151   7.250   4.883   0.610 -2.1327  2.3790 -4.1789
  168MOL0     H22152   7.424   5.061   0.626 -0.0253 -0.4672  2.4146
  168MOL0     H22153   7.296   5.177   0.644  0.3841 -2.5613  3.2875
  168MOL0     H22154   7.346   5.012   0.400  1.8327  1.1055 -0.3566
  168MOL0     H22155   7.184   5.086   0.442  0.5135 -2.1724  1.5109
  168MOL0     H22156   7.454   5.223   0.385 -0.5028 -0.0655  2.9716
  168MOL0     H22157   7.309   5.313   0.436  1.7264  0.5737  0.2399
  168MOL0     H22158   7.088   4.404   0.933  0.3087  3.0083  1.2584
  168MOL0     H22159   7.025   4.183   1.019  0.1953  0.5984 -0.4988
  168MOL0     H22160   7.098   3.835   1.215  2.1604 -2.1680 -0.2276
  168MOL0     H22161   7.081   3.590   1.292 -0.8177  0.0033 -0.1571
  168MOL0     H22162   6.437   1.776   1.187  1.1686 -0.7791 -0.2826
  168MOL0     H22163   6.323   1.607   1.085  1.5360  1.3228  4.4851
  168MOL0     H22164   5.969   1.372   0.798  0.6771 -0.0135  0.2696
  168MOL0     H22165   5.899   1.206   0.628  0.2598 -0.3007  3.3356
  168MOL0     H22166   6.209   1.021   0.379 -0.6139 -0.5925  0.1641
  168MOL0     H22167   6.150   1.127   0.256  1.0564 -2.0397 -1.5081
  168MOL0     H22168   6.029   0.851   0.340  0.5589 -2.4566 -1.3249
  168MOL0     H22169   5.954   0.987   0.242 -0.1588 -0.0427  3.0001
  168MOL0     H22170   6.210   0.879   0.139 -0.7253 -0.0629 -2.8798
  168MOL0     H22171   6.078   0.948   0.055  1.5795 -0.5723 -0.6495
  168MOL0     H22172   6.094   0.685   0.026 -4.1660 -1.8764 -1.5770
  168MOL0     H22173   6.072   0.682   0.209  2.5228  1.4776 -0.6175
  168MOL0     H22174   5.686   0.758   0.026  0.0794 -2.8132  0.5577
  168MOL0     H22175   6.275   1.247   0.427 -1.2036 -0.7287 -1.7411
  168MOL0     H22176   6.354   1.404   0.594 -0.5415  0.0189  2.9815
  169MOL0     O22177   3.081   4.589   1.533  0.2199  0.7024 -0.2544
  169MOL0     C22178   2.978   4.636   1.496  0.7429 -0.0099 -0.0873
  169MOL0     O22179   2.954   4.771   1.506  0.1472  0.1030  0.5049
  169MOL0     C22180   3.050   4.861   1.551  0.0458  0.5134  1.2368
  169MOL0     C22181   3.179   4.875   1.514 -0.0730 -0.5273 -0.5058
  169MOL0     C22182   3.260   4.980   1.556 -0.0638  0.4931 -0.2334
  169MOL0     C22183   3.207   5.078   1.638 -0.2724 -0.1873  0.0544
  169MOL0     O22184   3.282   5.186   1.657 -0.1418 -0.1176 -0.7336
  169MOL0     C22185   3.426   5.190   1.664 -0.8100 -0.2523 -0.8835
  169MOL0     C22186   3.464   5.284   1.775  0.1965 -0.2696  0.2894
  169MOL0     C22187   3.613   5.292   1.792  0.1039 -0.1281 -0.1305
  169MOL0     C22188   3.634   5.344   1.930 -0.6384 -0.2319 -0.9093
  169MOL0     C22189   3.787   5.344   1.968 -0.7326  0.3826  0.9855
  169MOL0     C22190   3.883   5.392   1.861  0.6670  0.3361  1.0203
  169MOL0     C22191   3.865   5.545   1.804  0.8018  0.4594 -0.8878
  169MOL0     C22192   3.967   5.569   1.689 -0.0656 -0.4879  0.2345
  169MOL0     N22193   4.107   5.541   1.727 -0.4990  0.2994 -0.2915
  169MOL0     C22194   4.177   5.425   1.690 -0.8860  0.6624 -0.7134
  169MOL0     C22195   4.301   5.451   1.729 -0.7726  0.3623  0.4076
  169MOL0     C22196   4.422   5.359   1.701 -0.4741  0.1431  0.0290
  169MOL0     C22197   4.528   5.439   1.630  0.1430 -0.1875  0.1512
  169MOL0     C22198   4.656   5.358   1.609 -0.7972 -1.2104  0.5171
  169MOL0     C22199   4.757   5.456   1.536  1.1657  0.1016 -1.3514
  169MOL0     O22200   4.844   5.376   1.467  0.4549 -0.2099  1.1686
  169MOL0     C22201   4.973   5.404   1.491 -0.3913 -0.3612 -0.3426
  169MOL0     C22202   5.041   5.524   1.471  1.5424 -0.6530  0.2843
  169MOL0     C22203   5.181   5.545   1.476  0.7510  0.2337  0.2946
  169MOL0     C22204   5.262   5.443   1.524 -0.3592  0.0457 -0.0845
  169MOL0     C22205   5.407   5.466   1.527 -0.3490 -0.4826 -0.5115
  169MOL0     O22206   5.457   5.589   1.569  0.7105 -0.9897  0.0584
  169MOL0     C22207   5.594   5.610   1.574  0.4910  0.1428 -1.0210
  169MOL0     C22208   5.631   5.706   1.665  0.1987 -0.3442 -0.2911
  169MOL0     C22209   5.765   5.753   1.679 -0.1153 -0.2025  0.4608
  169MOL0     C22210   5.869   5.682   1.617 -0.4397  0.4891 -0.1335
  169MOL0     O22211   5.998   5.711   1.652 -0.0558  0.5064  0.1833
  169MOL0     C22212   6.109   5.628   1.605 -0.2558  0.1653 -0.6905
  169MOL0     C22213   6.237   5.716   1.626 -0.2670 -0.7417  0.4311
  169MOL0     C22214   6.295   5.716   1.768  0.0672 -1.5509  0.5721
  169MOL0     C22215   6.423   5.803   1.751 -0.3345  0.5411 -0.3757
  169MOL0     C22216   6.483   5.808   1.893 -0.7019  0.7458 -0.0469
  169MOL0     C22217   6.617   5.885   1.886 -0.4469  0.1727  0.2580
  169MOL0     C22218   6.597   6.035   1.855  0.4703 -0.3466  0.1816
  169MOL0     C22219   6.711   6.120   1.909 -0.8041 -0.0098  0.0608
  169MOL0    Cl22220   6.861   6.074   1.832 -0.0042  0.4242  0.0260
  169MOL0     C22221   5.834   5.584   1.519  0.2843  0.4502  0.6583
  169MOL0     C22222   5.697   5.551   1.500  0.4412  0.8427 -0.2341
  169MOL0     O22223   5.480   5.374   1.506 -0.4877 -0.2810  0.1220
  169MOL0     C22224   5.200   5.317   1.548 -0.1048 -0.9428  0.5996
  169MOL0     C22225   5.059   5.303   1.546  0.4359  0.8462 -0.4408
  169MOL0     N22226   4.305   5.577   1.791  0.3104  0.3741 -0.3654
  169MOL0     N22227   4.188   5.628   1.799  0.1013 -0.6394 -0.0405
  169MOL0     C22228   3.069   5.075   1.672 -0.1966 -0.0307  0.6402
  169MOL0     C22229   2.995   4.964   1.629 -0.2792 -0.2724 -0.8548
  169MOL0     C22230   2.875   4.546   1.425 -0.7106 -0.2824 -0.7939
  169MOL0     C22231   2.876   4.404   1.444  0.2989 -0.6056  0.9520
  169MOL0     C22232   2.774   4.329   1.388 -0.0058  0.3500  0.6905
  169MOL0     C22233   2.673   4.375   1.310 -0.1746 -0.0483 -0.3407
  169MOL0     O22234   2.598   4.278   1.251 -0.0502  0.6645  0.2815
  169MOL0     C22235   2.526   4.323   1.139  0.2038  1.2113  0.3847
  169MOL0     C22236   2.375   4.361   1.176 -0.8468  0.0333  0.4922
  169MOL0     C22237   2.306   4.278   1.292 -0.1013  1.1305  0.2182
  169MOL0     C22238   2.321   4.119   1.284 -0.0726 -0.7148  0.3534
  169MOL0     C22239   2.258   4.077   1.160  0.3535 -0.5540 -0.4067
  169MOL0     C22240   2.214   4.038   1.055 -0.1494  0.3801 -1.0917
  169MOL0     C22241   2.679   4.508   1.284  0.3368 -0.4576 -0.6400
  169MOL0     C22242   2.774   4.601   1.341  0.4001  0.3858 -0.1936
  169MOL0     H22243   3.224   4.798   1.452  0.0468 -1.0505  0.2165
  169MOL0     H22244   3.361   4.990   1.517 -0.4927  2.3954 -0.9663
  169MOL0     H22245   3.479   5.214   1.571  0.1639  0.0084 -0.2830
  169MOL0     H22246   3.461   5.090   1.692  0.4281  0.9050  2.1004
  169MOL0     H22247   3.408   5.250   1.863  0.9760 -2.2767  0.0455
  169MOL0     H22248   3.435   5.385   1.744  3.6250  0.1558 -2.0546
  169MOL0     H22249   3.662   5.362   1.723  1.8691 -0.8780  0.3016
  169MOL0     H22250   3.659   5.195   1.773  0.4344 -0.5298  2.3808
  169MOL0     H22251   3.601   5.448   1.921  1.0162  1.0138  4.3103
  169MOL0     H22252   3.576   5.300   2.011  1.3911  0.9683  1.3124
  169MOL0     H22253   3.815   5.241   1.993  2.9208  0.2165 -2.6270
  169MOL0     H22254   3.810   5.399   2.059 -0.5178  0.4377  0.8992
  169MOL0     H22255   3.888   5.316   1.783  2.2451 -0.6214  2.0221
  169MOL0     H22256   3.978   5.378   1.912  1.5653 -0.1659 -0.7245
  169MOL0     H22257   3.768   5.561   1.757  0.6894  2.2114 -0.1430
  169MOL0     H22258   3.876   5.620   1.883 -1.6053  0.7637 -0.7620
  169MOL0     H22259   3.954   5.669   1.647 -2.5951 -2.1010 -3.3486
  169MOL0     H22260   3.940   5.511   1.601 -2.1786 -2.9130  2.3050
  169MOL0     H22261   4.139   5.334   1.646  2.6213 -0.7299 -1.1875
  169MOL0     H22262   4.397   5.279   1.631  1.6068 -0.5487  0.0073
  169MOL0     H22263   4.456   5.316   1.795  0.7967  0.8098 -0.0928
  169MOL0     H22264   4.555   5.530   1.686  4.3766 -0.7196 -0.6496
  169MOL0     H22265   4.499   5.476   1.531 -1.8896  1.1735  1.1955
  169MOL0     H22266   4.707   5.324   1.699 -0.8213  0.0731  1.0437
  169MOL0     H22267   4.631   5.274   1.543  0.1294 -1.1203  0.0363
  169MOL0     H22268   4.815   5.519   1.604  1.3203  0.4160 -1.7689
  169MOL0     H22269   4.709   5.521   1.462  2.0488  0.9322 -1.2114
  169MOL0     H22270   4.990   5.604   1.419  1.2616 -1.8943 -1.4452
  169MOL0     H22271   5.231   5.637   1.450 -1.1895  0.9726 -1.1245
  169MOL0     H22272   5.546   5.747   1.718  0.0291 -0.9771 -0.0653
  169MOL0     H22273   5.801   5.834   1.741  0.6434 -0.8376  0.8754
  169MOL0     H22274   6.106   5.603   1.499 -0.2690 -4.5566  0.1888
  169MOL0     H22275   6.119   5.535   1.663  0.3852 -0.3587 -1.6145
  169MOL0     H22276   6.209   5.814   1.587  1.4935 -2.0367 -4.9793
  169MOL0     H22277   6.322   5.689   1.562  1.8485  3.6945  0.9732
  169MOL0     H22278   6.327   5.621   1.813 -1.8341 -1.1590  2.9676
  169MOL0     H22279   6.230   5.770   1.837  0.1603  0.8756 -1.1193
  169MOL0     H22280   6.497   5.763   1.682  0.6959  1.7378  0.0090
  169MOL0     H22281   6.395   5.903   1.715 -0.4159  0.2098 -1.2483
  169MOL0     H22282   6.491   5.706   1.933 -2.7604  0.1248 -1.1028
  169MOL0     H22283   6.416   5.865   1.958 -0.0181  1.1033  0.3539
  169MOL0     H22284   6.694   5.838   1.825 -0.4075  0.9232 -0.2843
  169MOL0     H22285   6.653   5.877   1.989 -1.4695 -0.5066  0.5851
  169MOL0     H22286   6.565   6.046   1.751 -1.8952 -4.3780  0.2483
  169MOL0     H22287   6.506   6.057   1.911 -0.0632 -0.8775 -0.4667
  169MOL0     H22288   6.719   6.097   2.016 -0.6760  0.3120  0.1188
  169MOL0     H22289   6.693   6.226   1.890 -0.5525 -0.3739 -2.5633
  169MOL0     H22290   5.903   5.529   1.456  1.5376  1.9612  0.6547
  169MOL0     H22291   5.675   5.494   1.410 -1.5201  2.4264 -0.8193
  169MOL0     H22292   5.255   5.232   1.586  2.2002  0.6370  1.0360
  169MOL0     H22293   5.014   5.207   1.569  1.6334 -0.2923 -2.5968
  169MOL0     H22294   3.038   5.161   1.731  1.8858  1.1916  0.0522
  169MOL0     H22295   2.889   4.966   1.651 -0.1039  4.5028  0.7040
  169MOL0     H22296   2.957   4.363   1.504  4.5620  2.6222 -2.0173
  169MOL0     H22297   2.773   4.222   1.408 -0.5757 -0.1100 -1.5106
  169MOL0     H22298   2.524   4.234   1.075 -0.1027  0.5245  1.3241
  169MOL0     H22299   2.582   4.402   1.089  2.5198  0.8742  2.2616
  169MOL0     H22300   2.375   4.462   1.216  2.1828  0.2312  0.2538
  169MOL0     H22301   2.317   4.345   1.085  1.4077  0.6425 -1.1438
  169MOL0     H22302   2.199   4.303   1.294 -0.7711 -1.5288  0.3994
  169MOL0     H22303   2.343   4.309   1.391 -1.4584 -1.1078  1.5141
  169MOL0     H22304   2.426   4.091   1.271 -0.2570 -0.6178 -1.8382
  169MOL0     H22305   2.273   4.073   1.371  0.8094 -1.4616  0.4657
  169MOL0     H22306   2.173   4.014   0.959 -0.3378 -0.8526 -0.7135
  169MOL0     H22307   2.599   4.558   1.230 -2.0242 -3.6750 -0.4024
  169MOL0     H22308   2.783   4.709   1.326  1.7760 -0.0862 -3.8978
  170MOL0     O22309   9.894   3.545   8.794  0.0697 -0.8502  0.5410
  170MOL0     C22310   9.908   3.569   8.670 -0.5334 -0.0228 -0.6099
  170MOL0     O22311   9.881   3.687   8.614  0.0613 -0.1184 -0.5156
  170MOL0     C22312   9.841   3.791   8.699  0.0887 -0.3303  1.0473
  170MOL0     C22313   9.925   3.892   8.738  0.4177  0.1555  0.5671
  170MOL0     C22314   9.902   4.007   8.814  0.1512 -0.7711  0.1770
  170MOL0     C22315   9.770   4.019   8.861 -0.1333 -0.0866 -0.2014
  170MOL0     O22316   9.746   4.124   8.941  0.6031  0.5353  0.4987
  170MOL0     C22317   9.687   4.238   8.881  0.2185 -0.1543  0.5382
  170MOL0     C22318   9.693   4.355   8.975 -0.0011 -0.9520 -0.7219
  170MOL0     C22319   9.847   4.385   9.025 -0.3233  0.4817  0.2814
  170MOL0     C22320   9.870   4.531   9.082 -0.8179  1.0665 -0.4852
  170MOL0     C22321  10.020   4.541   9.125  0.4097 -0.2356  0.8133
  170MOL0     C22322  10.021   4.654   9.217 -0.5900  0.3639  0.3148
  170MOL0     C22323  10.161   4.712   9.228 -0.4477  0.0628 -0.6056
  170MOL0     C22324  10.176   4.850   9.303  0.5734  0.4262 -0.1447
  170MOL0     N22325  10.106   4.841   9.433  0.5942 -0.0028  0.3028
  170MOL0     C22326  10.124   4.741   9.517 -0.3905  0.8811  0.0059
  170MOL0     C22327  10.013   4.724   9.594 -0.2406 -0.0852 -0.2766
  170MOL0     C22328   9.991   4.616   9.710 -0.0924  0.3865 -0.3303
  170MOL0     C22329  10.093   4.638   9.828 -0.1303 -0.3416  1.5693
  170MOL0     C22330  10.074   4.550   9.950 -0.0417  0.6392  0.6669
  170MOL0     C22331  10.174   4.572  10.056  0.0297  0.3043  0.2182
  170MOL0     O22332  10.299   4.511  10.028  0.5162 -0.0332 -0.2556
  170MOL0     C22333  10.417   4.562  10.088 -0.1057 -0.0247  0.0486
  170MOL0     C22334  10.537   4.504  10.039  0.8091 -0.7937  0.2756
  170MOL0     C22335  10.657   4.522  10.107 -0.8315  1.0184  0.9500
  170MOL0     C22336  10.664   4.601  10.219  0.7170 -0.2036 -0.3508
  170MOL0     C22337  10.787   4.603  10.297  1.2007 -0.0144  0.5847
  170MOL0     O22338  10.782   4.648  10.427 -0.8750  0.0844 -0.1019
  170MOL0     C22339  10.899   4.670  10.499  0.7737  0.0309  0.1103
  170MOL0     C22340  10.903   4.783  10.575 -0.1387  0.0589  0.5459
  170MOL0     C22341  11.013   4.823  10.650  0.3516  0.1121  0.0771
  170MOL0     C22342  11.127   4.744  10.666  0.1647 -0.2367 -0.1837
  170MOL0     O22343  11.238   4.795  10.740  0.1461  1.0784  0.4255
  170MOL0     C22344  11.354   4.722  10.775  0.1911 -0.1682  0.1961
  170MOL0     C22345  11.439   4.722  10.655  0.7080 -0.9506 -0.9238
  170MOL0     C22346  11.552   4.617  10.651 -0.6655  0.3789  0.8512
  170MOL0     C22347  11.632   4.628  10.521  0.3027 -0.4993 -0.1075
  170MOL0     C22348  11.723   4.509  10.500 -0.6707  0.1702 -0.5153
  170MOL0     C22349  11.833   4.507  10.611  0.1201  0.4007 -0.2952
  170MOL0     C22350  11.912   4.375  10.595  0.1710  0.5942  0.0127
  170MOL0     C22351  11.979   4.326  10.724 -0.0206  0.4572  0.6188
  170MOL0    Cl22352  11.866   4.264  10.831 -0.2873  0.1979  0.1537
  170MOL0     C22353  11.127   4.620  10.593 -0.6356  0.4132 -0.0301
  170MOL0     C22354  11.014   4.584  10.514  0.5704  0.7814  0.0909
  170MOL0     O22355  10.886   4.575  10.238  0.6233  0.4648  0.3547
  170MOL0     C22356  10.544   4.670  10.266 -0.4120 -0.0567  0.0631
  170MOL0     C22357  10.423   4.643  10.202  0.8612  0.2860 -0.1153
  170MOL0     N22358   9.927   4.831   9.560  0.6547 -0.1762 -0.2830
  170MOL0     N22359   9.988   4.897   9.463  0.2801  0.4630  0.3373
  170MOL0     C22360   9.675   3.931   8.826  0.1471  0.1413  0.5041
  170MOL0     C22361   9.705   3.817   8.737 -0.0920  0.9833 -0.0898
  170MOL0     C22362   9.953   3.466   8.579 -0.6374 -0.1208 -0.0434
  170MOL0     C22363   9.982   3.333   8.621  0.6151 -0.2878  0.3692
  170MOL0     C22364  10.019   3.239   8.529  0.8385  0.9411  1.2101
  170MOL0     C22365  10.031   3.269   8.397  0.6194  0.3978 -0.5381
  170MOL0     O22366  10.066   3.163   8.316  0.5663  0.3858  0.9188
  170MOL0     C22367  10.054   3.179   8.173 -0.2549 -1.0715  0.1423
  170MOL0     C22368  10.083   3.051   8.100  0.9996 -0.4499  0.8639
  170MOL0     C22369  10.225   3.040   8.048 -1.1871  0.1192  0.5974
  170MOL0     C22370  10.244   2.909   7.962 -0.3463 -0.7543 -0.7311
  170MOL0     C22371  10.273   2.801   8.053 -1.0180 -0.7679  0.1303
  170MOL0     C22372  10.285   2.703   8.125  0.6258 -0.6377 -0.4197
  170MOL0     C22373  10.002   3.392   8.346  0.8048 -0.8495 -0.4427
  170MOL0     C22374   9.960   3.491   8.439 -0.1677  0.1274 -0.3487
  170MOL0     H22375  10.020   3.875   8.690  0.8921  0.6121  1.3147
  170MOL0     H22376   9.986   4.075   8.824  2.6869 -3.7543  0.5354
  170MOL0     H22377   9.583   4.214   8.857 -0.2745  2.4822 -0.1917
  170MOL0     H22378   9.742   4.259   8.790 -2.4427  3.6845 -0.4141
  170MOL0     H22379   9.635   4.334   9.066 -3.0177 -5.0048 -3.2391
  170MOL0     H22380   9.648   4.445   8.933  1.6572 -0.9871 -2.6906
  170MOL0     H22381   9.920   4.370   8.945 -0.4365 -2.0585  0.5768
  170MOL0     H22382   9.878   4.317   9.105  0.0444 -0.9539 -1.0421
  170MOL0     H22383   9.843   4.611   9.012 -0.0848  0.6814 -1.2226
  170MOL0     H22384   9.800   4.542   9.166 -0.8430 -0.8526 -0.2082
  170MOL0     H22385  10.086   4.554   9.038 -0.0529  3.0810  0.8350
  170MOL0     H22386  10.060   4.460   9.187  0.5524  2.4941  4.6638
  170MOL0     H22387   9.972   4.627   9.311 -1.6593 -0.8299 -0.5408
  170MOL0     H22388   9.963   4.740   9.184 -3.1632 -1.5168 -0.3764
  170MOL0     H22389  10.230   4.647   9.283  1.2776  0.2918 -2.3968
  170MOL0     H22390  10.198   4.724   9.126  0.6031  1.1282 -0.1134
  170MOL0     H22391  10.144   4.940   9.250 -0.8233 -0.7439 -1.3759
  170MOL0     H22392  10.284   4.862   9.316  0.6494 -0.7477  0.4219
  170MOL0     H22393  10.204   4.667   9.517 -2.8664 -2.1015 -2.2954
  170MOL0     H22394   9.971   4.511   9.685 -1.4817  0.0196  2.0327
  170MOL0     H22395   9.901   4.647   9.764 -0.1274  0.3102 -0.3467
  170MOL0     H22396  10.117   4.742   9.853  2.1767  1.1338 -4.9872
  170MOL0     H22397  10.187   4.610   9.781  1.3773  1.9019  3.0120
  170MOL0     H22398   9.982   4.579  10.001 -1.6522 -1.3811 -0.9075
  170MOL0     H22399  10.063   4.446   9.919 -2.3547 -0.0245  3.3810
  170MOL0     H22400  10.129   4.537  10.150  0.1443  1.6673  0.7992
  170MOL0     H22401  10.176   4.680  10.076 -1.2314  0.5495 -0.8213
  170MOL0     H22402  10.538   4.440   9.951  1.9311  1.3152 -1.3205
  170MOL0     H22403  10.747   4.484  10.060  0.4357  3.1127  1.5594
  170MOL0     H22404  10.817   4.850  10.572 -2.5317 -2.7965  0.9073
  170MOL0     H22405  10.999   4.928  10.674 -5.6059 -0.8307  2.6174
  170MOL0     H22406  11.325   4.617  10.787 -0.2758 -0.1007 -0.3091
  170MOL0     H22407  11.387   4.753  10.874 -2.0051 -1.2141  1.3366
  170MOL0     H22408  11.485   4.820  10.637 -0.9771 -0.0468 -0.5105
  170MOL0     H22409  11.372   4.695  10.572 -0.0878 -2.5965  0.2133
  170MOL0     H22410  11.503   4.520  10.655 -2.6273  1.3133  4.0303
  170MOL0     H22411  11.628   4.627  10.729 -0.5991  1.8506  0.6371
  170MOL0     H22412  11.573   4.627  10.428  2.0803 -4.6218 -1.4251
  170MOL0     H22413  11.692   4.719  10.531  1.3577 -1.0203 -1.4630
  170MOL0     H22414  11.779   4.505  10.406 -0.3627 -5.9058 -0.5139
  170MOL0     H22415  11.665   4.416  10.506  1.1986 -1.0805 -0.5518
  170MOL0     H22416  11.808   4.512  10.717 -0.4604  2.3634 -0.4984
  170MOL0     H22417  11.904   4.588  10.595 -0.6249  0.6441 -2.8027
  170MOL0     H22418  11.866   4.290  10.546  1.7207  0.0172 -0.4901
  170MOL0     H22419  11.988   4.411  10.525 -0.6988  1.8259 -0.3443
  170MOL0     H22420  12.041   4.406  10.765  0.0332  0.6368  0.1939
  170MOL0     H22421  12.038   4.242  10.687  0.5451  1.8879 -1.9378
  170MOL0     H22422  11.217   4.560  10.594  0.5636  2.1400  0.2738
  170MOL0     H22423  11.010   4.494  10.453 -1.8783  2.4195 -2.4082
  170MOL0     H22424  10.559   4.728  10.356  1.1427  1.6111 -1.1970
  170MOL0     H22425  10.336   4.686  10.251  0.7418 -0.3411  0.2341
  170MOL0     H22426   9.577   3.960   8.862  0.5171  3.0589 -0.5941
  170MOL0     H22427   9.634   3.740   8.707  0.7503  0.7061 -1.4737
  170MOL0     H22428   9.973   3.313   8.728 -0.6171 -2.0298 -0.0232
  170MOL0     H22429  10.032   3.136   8.560 -2.3591  0.3552  0.9026
  170MOL0     H22430  10.131   3.245   8.133 -1.1455  0.7265  1.2372
  170MOL0     H22431   9.953   3.216   8.150 -0.6398 -1.0191  1.7693
  170MOL0     H22432  10.079   2.971   8.175 -1.5693 -0.7620  0.4787
  170MOL0     H22433  10.007   3.023   8.027 -1.4217 -1.8276  3.6950
  170MOL0     H22434  10.286   3.035   8.139 -0.7537 -1.4044  0.2364
  170MOL0     H22435  10.252   3.130   7.992 -1.3372 -0.8295 -1.0536
  170MOL0     H22436  10.153   2.891   7.904 -0.7425  0.8464 -0.6360
  170MOL0     H22437  10.327   2.929   7.894 -1.0004 -0.4045 -1.4495
  170MOL0     H22438  10.316   2.627   8.194  0.4997 -1.3546 -1.1374
  170MOL0     H22439  10.016   3.413   8.241 -0.3550  1.9563 -0.1212
  170MOL0     H22440   9.943   3.595   8.412 -1.5471  0.5390  1.8997
  171MOL0     O22441   0.568   1.274   9.826  0.0336 -0.2525  0.1445
  171MOL0     C22442   0.624   1.367   9.887  0.3281  0.4627 -0.0818
  171MOL0     O22443   0.642   1.372  10.027 -1.0800 -0.7718 -0.2252
  171MOL0     C22444   0.642   1.254  10.095  0.1913  1.1936  0.2173
  171MOL0     C22445   0.753   1.204  10.157  0.1757 -0.5223  0.3704
  171MOL0     C22446   0.746   1.093  10.227  0.4927 -0.3360  0.3432
  171MOL0     C22447   0.618   1.032  10.256 -0.0170  0.3387 -0.0624
  171MOL0     O22448   0.606   0.932  10.346 -0.2590  0.0963 -0.2668
  171MOL0     C22449   0.695   0.819  10.318 -0.3041  0.1097 -0.3867
  171MOL0     C22450   0.694   0.716  10.435 -0.9219  0.4206 -0.1706
  171MOL0     C22451   0.740   0.579  10.385 -0.0729  0.1866  0.1268
  171MOL0     C22452   0.644   0.505  10.293  0.2175 -0.4576 -0.3265
  171MOL0     C22453   0.681   0.361  10.263  0.5127  0.7147 -0.1934
  171MOL0     C22454   0.585   0.291  10.170  0.4067  0.5867 -0.1479
  171MOL0     C22455   0.616   0.146  10.177  0.8154  0.4729  0.0389
  171MOL0     C22456   0.766   0.107  10.143  0.0794 -0.2879  0.4296
  171MOL0     N22457   0.858   0.112  10.258 -1.0210 -0.0701 -0.6062
  171MOL0     C22458   0.976   0.190  10.264 -0.1694  0.5716 -0.1516
  171MOL0     C22459   1.017   0.169  10.396 -0.2685  1.1467  0.1906
  171MOL0     C22460   1.138   0.239  10.442 -0.7127 -0.0065 -0.1443
  171MOL0     C22461   1.079   0.383  10.484 -0.4870 -0.7582  0.2265
  171MOL0     C22462   1.192   0.456  10.555 -0.0335  0.2460  0.3843
  171MOL0     C22463   1.155   0.601  10.577  0.4588 -0.5265 -0.8880
  171MOL0     O22464   1.278   0.664  10.622 -0.1210 -0.1470  0.1544
  171MOL0     C22465   1.284   0.800  10.650  0.1182  0.2630 -0.4026
  171MOL0     C22466   1.381   0.852  10.725 -0.4766  0.1877 -0.9056
  171MOL0     C22467   1.384   0.988  10.740  0.1258  0.3036  0.6286
  171MOL0     C22468   1.290   1.074  10.706 -1.3536  0.0084 -0.0879
  171MOL0     C22469   1.305   1.224  10.737  0.4403 -0.1403  1.6940
  171MOL0     O22470   1.192   1.301  10.729  0.1629  0.2632  0.3899
  171MOL0     C22471   1.184   1.432  10.761  0.5647 -0.2141  0.6172
  171MOL0     C22472   1.066   1.498  10.732  0.1088  0.4317 -0.1689
  171MOL0     C22473   1.039   1.629  10.769  0.6956  0.1463 -0.6842
  171MOL0     C22474   1.135   1.694  10.851 -0.3151 -0.2463  0.2080
  171MOL0     O22475   1.123   1.824  10.885 -0.3345 -0.4902  0.0724
  171MOL0     C22476   1.065   1.916  10.791  0.5901 -0.6673  0.7817
  171MOL0     C22477   1.175   1.952  10.683 -0.5232  0.5355 -1.0167
  171MOL0     C22478   1.121   2.038  10.566  0.1608 -0.2945 -0.3639
  171MOL0     C22479   1.236   2.051  10.463  0.8350 -0.0882 -0.0954
  171MOL0     C22480   1.203   2.100  10.324 -0.5379 -0.0668 -0.3002
  171MOL0     C22481   1.120   1.988  10.249  0.4765 -0.9732 -0.2428
  171MOL0     C22482   1.094   2.018  10.104 -0.7700 -0.0894  0.4816
  171MOL0     C22483   1.034   1.892  10.047  0.0783  0.0640 -0.0367
  171MOL0    Cl22484   1.045   1.907   9.859 -0.4122  0.0424  0.1312
  171MOL0     C22485   1.259   1.631  10.889 -0.1762  0.8536 -0.3954
  171MOL0     C22486   1.284   1.503  10.833  0.1963  0.1948 -0.2038
  171MOL0     O22487   1.413   1.262  10.762 -0.4722  0.4214 -0.2224
  171MOL0     C22488   1.192   1.032  10.619  0.0537  0.5187  0.7298
  171MOL0     C22489   1.184   0.897  10.596  0.3176  1.4231 -0.4956
  171MOL0     N22490   0.932   0.080  10.459 -0.3556 -0.5033  0.9551
  171MOL0     N22491   0.835   0.066  10.381  1.0187  0.1499  0.0419
  171MOL0     C22492   0.503   1.089  10.204  0.2929 -0.2206 -0.4098
  171MOL0     C22493   0.514   1.193  10.114 -0.2040 -1.2101  0.3281
  171MOL0     C22494   0.676   1.484   9.806 -0.1654  0.0776 -1.0106
  171MOL0     C22495   0.675   1.479   9.669  0.0419  0.1687  0.3015
  171MOL0     C22496   0.720   1.597   9.606  0.9078 -0.0538 -0.2252
  171MOL0     C22497   0.777   1.712   9.669 -0.2609 -0.9195 -0.5783
  171MOL0     O22498   0.823   1.822   9.608  0.5572 -0.7083 -0.3171
  171MOL0     C22499   0.836   1.807   9.469  0.2528  1.1753  0.1553
  171MOL0     C22500   0.927   1.913   9.406 -0.3537  0.4718  0.1949
  171MOL0     C22501   0.847   2.040   9.388  0.3341  1.4124 -0.4483
  171MOL0     C22502   0.932   2.152   9.341 -0.7985  1.2060  0.3019
  171MOL0     C22503   0.988   2.104   9.214  0.0831  0.6167  0.6721
  171MOL0     C22504   1.046   2.065   9.113 -0.6626 -0.5937 -0.0023
  171MOL0     C22505   0.766   1.713   9.810 -0.5612 -0.6234  0.5447
  171MOL0     C22506   0.714   1.598   9.878 -0.4039  0.2903 -0.4927
  171MOL0     H22507   0.838   1.271  10.141 -1.0204  1.0016  0.1326
  171MOL0     H22508   0.836   1.075  10.285  0.5257 -0.9068  0.1230
  171MOL0     H22509   0.795   0.863  10.312 -1.1729  2.2731 -0.1151
  171MOL0     H22510   0.676   0.773  10.221 -1.7581  1.9962 -1.0657
  171MOL0     H22511   0.598   0.696  10.483  0.9120 -4.6343  2.0310
  171MOL0     H22512   0.762   0.760  10.508 -1.2971  1.3701 -0.3773
  171MOL0     H22513   0.747   0.515  10.473  2.2341 -0.7544 -0.6702
  171MOL0     H22514   0.844   0.577  10.351 -0.0432  0.2772  0.2103
  171MOL0     H22515   0.548   0.494  10.346  0.2387 -0.6821 -0.3321
  171MOL0     H22516   0.621   0.567  10.206 -3.2620  0.4723  1.0789
  171MOL0     H22517   0.686   0.302  10.355 -4.1033  0.7762  0.2964
  171MOL0     H22518   0.776   0.354  10.209  0.2855  1.2242 -0.6697
  171MOL0     H22519   0.589   0.331  10.068 -4.1950  1.5446 -0.1709
  171MOL0     H22520   0.480   0.296  10.199  0.3896 -2.5861  0.7183
  171MOL0     H22521   0.583   0.101  10.271 -1.0071 -0.2065 -0.8796
  171MOL0     H22522   0.553   0.100  10.101 -1.0912 -0.3518  2.0112
  171MOL0     H22523   0.797   0.175  10.063  0.0872  1.4653  1.8593
  171MOL0     H22524   0.764   0.007  10.099 -0.4770  0.9908 -2.7161
  171MOL0     H22525   1.029   0.253  10.193 -1.5305  2.5792  0.5407
  171MOL0     H22526   1.210   0.253  10.360 -2.6492  1.1205 -1.7527
  171MOL0     H22527   1.189   0.180  10.519 -0.1483 -2.2621 -2.1253
  171MOL0     H22528   0.994   0.364  10.550 -1.2094 -1.7258 -0.9419
  171MOL0     H22529   1.055   0.438  10.392  1.1087 -0.2481  0.0852
  171MOL0     H22530   1.224   0.393  10.638 -0.9764 -0.6254  0.1226
  171MOL0     H22531   1.275   0.452  10.483 -2.1823  1.6006 -2.3858
  171MOL0     H22532   1.074   0.605  10.650 -0.4116 -0.9632 -1.8044
  171MOL0     H22533   1.126   0.639  10.479  0.5196 -2.2879 -1.6396
  171MOL0     H22534   1.458   0.787  10.766 -0.5179  1.9483  2.2500
  171MOL0     H22535   1.469   1.030  10.793  0.2873  0.5500  0.1881
  171MOL0     H22536   1.001   1.446  10.663  2.3342 -0.5143 -1.7024
  171MOL0     H22537   0.951   1.678  10.730 -0.4719 -0.5403  0.9536
  171MOL0     H22538   1.041   2.004  10.851 -1.7081  0.8778 -2.1452
  171MOL0     H22539   0.975   1.873  10.745  0.6161  0.8006 -0.7124
  171MOL0     H22540   1.212   1.857  10.646  1.8263 -0.7331  3.7999
  171MOL0     H22541   1.257   1.997  10.739 -2.5781  2.2110  0.8552
  171MOL0     H22542   1.086   2.126  10.620 -0.7829  0.4723 -2.1454
  171MOL0     H22543   1.029   1.997  10.524 -1.6091  2.3706  0.6810
  171MOL0     H22544   1.314   2.115  10.504  3.4652 -2.1269 -1.5974
  171MOL0     H22545   1.276   1.950  10.451  0.7417 -0.4587  2.3268
  171MOL0     H22546   1.296   2.106  10.267  0.5101  3.1707  1.4659
  171MOL0     H22547   1.159   2.200  10.320  2.0183  1.1262 -0.2513
  171MOL0     H22548   1.024   1.965  10.296 -0.3757  1.3158 -0.7183
  171MOL0     H22549   1.179   1.896  10.249  1.5359 -0.3129  0.0765
  171MOL0     H22550   1.035   2.109  10.090 -0.9878 -0.1855  0.7617
  171MOL0     H22551   1.191   2.036  10.059 -1.3083  1.4221 -0.1427
  171MOL0     H22552   0.937   1.864  10.090  0.4944 -1.3692  0.0236
  171MOL0     H22553   1.091   1.802  10.070 -0.2318 -0.2893 -0.6515
  171MOL0     H22554   1.331   1.681  10.951 -1.2274  1.5380  0.3010
  171MOL0     H22555   1.382   1.460  10.850 -0.6014 -1.3053  0.8257
  171MOL0     H22556   1.123   1.101  10.573  2.9679  1.8902 -1.9659
  171MOL0     H22557   1.104   0.862  10.531  1.1120  0.9486 -1.2305
  171MOL0     H22558   0.399   1.060  10.219 -0.7290  1.6579 -3.0842
  171MOL0     H22559   0.429   1.241  10.068  0.0405  1.2523  2.1667
  171MOL0     H22560   0.641   1.387   9.623 -2.0565  1.0430 -0.0066
  171MOL0     H22561   0.695   1.601   9.500 -1.5737 -2.0568  0.2026
  171MOL0     H22562   0.732   1.802   9.437 -0.1927 -4.5531  1.3487
  171MOL0     H22563   0.887   1.713   9.442 -0.1540  0.4066  1.9428
  171MOL0     H22564   1.020   1.928   9.462 -1.6228 -0.4216  2.6774
  171MOL0     H22565   0.959   1.856   9.319  0.4868 -1.0613  1.4469
  171MOL0     H22566   0.805   2.058   9.487  1.0949  0.9002 -0.0182
  171MOL0     H22567   0.763   2.030   9.318  1.3367  0.3251 -1.5570
  171MOL0     H22568   0.872   2.239   9.315 -1.1899  2.4210  4.6106
  171MOL0     H22569   1.010   2.172   9.414  0.4969 -1.1534 -0.3065
  171MOL0     H22570   1.114   2.033   9.037 -0.1342 -0.2756  0.3326
  171MOL0     H22571   0.797   1.800   9.867  1.1201 -0.8127 -0.0024
  171MOL0     H22572   0.705   1.600   9.986 -0.3945 -1.3478 -0.4358
  172MOL0     O22573   9.436   2.293   7.005 -0.2352  0.2449  0.2025
  172MOL0     C22574   9.403   2.279   7.125  0.6321 -0.2422 -0.2429
  172MOL0     O22575   9.401   2.159   7.193  0.4220  0.0156  0.0383
  172MOL0     C22576   9.479   2.051   7.153  0.9478 -0.4353 -1.1247
  172MOL0     C22577   9.596   2.068   7.076 -0.1487 -0.1317 -0.0241
  172MOL0     C22578   9.664   1.951   7.041  0.3691  0.5721  0.0599
  172MOL0     C22579   9.612   1.826   7.071  0.8608 -0.7523  1.0802
  172MOL0     O22580   9.681   1.722   7.015  0.3875  0.2386 -0.2144
  172MOL0     C22581   9.650   1.585   7.054  0.4964  0.2190  0.1454
  172MOL0     C22582   9.731   1.504   6.956  0.8668 -0.2486  0.1131
  172MOL0     C22583   9.744   1.361   7.007  0.2178  0.0523 -0.9868
  172MOL0     C22584   9.623   1.283   6.947 -0.9416 -0.5524  0.1803
  172MOL0     C22585   9.502   1.275   7.038 -0.3904  0.0153  0.8187
  172MOL0     C22586   9.549   1.246   7.180 -0.9875  0.3347  0.1845
  172MOL0     C22587   9.440   1.205   7.277  0.3493  0.7593  0.3268
  172MOL0     C22588   9.495   1.174   7.418  0.0565  0.6585  0.1182
  172MOL0     N22589   9.385   1.124   7.494  0.0971  0.4767  1.0115
  172MOL0     C22590   9.342   0.990   7.474 -1.1286  0.3137 -0.8418
  172MOL0     C22591   9.241   0.972   7.556 -0.4135  0.5174 -0.1484
  172MOL0     C22592   9.171   0.839   7.590  0.1791 -0.0438 -0.5617
  172MOL0     C22593   9.268   0.738   7.646  0.7700 -0.1088 -0.7347
  172MOL0     C22594   9.180   0.632   7.720 -0.3977 -0.1841 -0.9092
  172MOL0     C22595   9.158   0.678   7.863  0.0399 -0.2917  0.4257
  172MOL0     O22596   9.075   0.579   7.935  0.5912 -0.3706 -0.1592
  172MOL0     C22597   8.944   0.590   7.954  0.1717 -0.4998  0.0586
  172MOL0     C22598   8.894   0.499   8.047 -0.4790  0.4451 -0.0698
  172MOL0     C22599   8.756   0.487   8.068  0.7702 -0.1892  1.0507
  172MOL0     C22600   8.673   0.572   8.002 -0.4461 -0.4069  0.0979
  172MOL0     C22601   8.536   0.573   8.042 -0.0039  0.4477 -0.2662
  172MOL0     O22602   8.520   0.527   8.171 -0.2854  0.0453  0.6224
  172MOL0     C22603   8.396   0.522   8.232  0.2638 -0.7262  0.0631
  172MOL0     C22604   8.396   0.529   8.374 -0.3611  0.5902  0.5361
  172MOL0     C22605   8.284   0.534   8.447 -1.1118 -1.1901  0.2053
  172MOL0     C22606   8.160   0.519   8.388 -0.4277  0.1990 -0.9808
  172MOL0     O22607   8.041   0.546   8.454 -0.2270 -0.4512  0.3487
  172MOL0     C22608   8.014   0.521   8.590  0.8192 -0.1114 -0.1516
  172MOL0     C22609   7.864   0.509   8.619 -0.5315  0.3840  0.4928
  172MOL0     C22610   7.794   0.411   8.518 -0.1547  0.1568  0.0646
  172MOL0     C22611   7.665   0.351   8.570 -0.5184 -0.3125  0.8644
  172MOL0     C22612   7.608   0.261   8.454 -0.3033 -0.0427 -0.5008
  172MOL0     C22613   7.462   0.213   8.475  0.6065  0.1177 -0.0569
  172MOL0     C22614   7.417   0.122   8.359 -1.0148  0.0651 -0.4710
  172MOL0     C22615   7.396   0.208   8.230 -0.1743 -0.6640 -1.2012
  172MOL0    Cl22616   7.347   0.098   8.107  0.1678  0.0669  0.2579
  172MOL0     C22617   8.149   0.508   8.250  0.0971 -0.1745  1.1252
  172MOL0     C22618   8.264   0.509   8.167  0.1872 -0.0492  0.5504
  172MOL0     O22619   8.444   0.626   7.974 -0.5947 -0.0782 -0.1755
  172MOL0     C22620   8.719   0.662   7.901 -0.7337 -1.1861  0.3442
  172MOL0     C22621   8.852   0.660   7.861 -0.0488 -0.1558  0.0124
  172MOL0     N22622   9.221   1.092   7.611  0.2851 -0.0537 -0.0162
  172MOL0     N22623   9.299   1.186   7.573  0.4801 -0.8057  0.4111
  172MOL0     C22624   9.506   1.819   7.157 -0.3105  0.1327 -0.0700
  172MOL0     C22625   9.432   1.924   7.198  0.7573 -0.0044 -0.3631
  172MOL0     C22626   9.367   2.405   7.197  0.1937 -0.0903 -0.3956
  172MOL0     C22627   9.262   2.419   7.287 -0.2809  0.3927  0.4746
  172MOL0     C22628   9.208   2.539   7.330 -0.6201  0.6755  0.3538
  172MOL0     C22629   9.264   2.661   7.281 -0.6482  0.5033 -0.3067
  172MOL0     O22630   9.211   2.788   7.300 -0.0130  0.6558  0.3744
  172MOL0     C22631   9.106   2.797   7.399 -0.2582 -0.4376  0.6158
  172MOL0     C22632   9.106   2.946   7.444  0.3362 -0.2061 -0.7598
  172MOL0     C22633   8.997   2.975   7.552  0.4145  0.5693  0.1470
  172MOL0     C22634   8.847   2.986   7.492  0.5085  0.0478 -0.3530
  172MOL0     C22635   8.829   3.083   7.375  0.7063 -0.7041  0.0735
  172MOL0     C22636   8.810   3.162   7.282  0.8319  1.2403  0.1567
  172MOL0     C22637   9.380   2.650   7.210 -0.0670 -0.7191 -0.7722
  172MOL0     C22638   9.427   2.528   7.160 -0.8979  0.3522  0.7579
  172MOL0     H22639   9.638   2.162   7.042  0.0414  0.7228  2.3341
  172MOL0     H22640   9.751   1.966   6.978  0.2824 -0.5025 -0.3481
  172MOL0     H22641   9.546   1.555   7.039  1.0046 -1.1337 -0.9806
  172MOL0     H22642   9.695   1.564   7.152 -0.2546 -2.2604  0.0318
  172MOL0     H22643   9.832   1.540   6.933  1.2969 -1.5669 -0.1735
  172MOL0     H22644   9.684   1.513   6.857  0.3817 -1.0336  0.2584
  172MOL0     H22645   9.766   1.352   7.114 -0.6265 -1.2462 -0.9074
  172MOL0     H22646   9.820   1.301   6.955  0.8440  0.0594 -0.0976
  172MOL0     H22647   9.586   1.319   6.851 -4.8045 -0.0118  1.7062
  172MOL0     H22648   9.656   1.179   6.935 -0.8280 -0.6469  1.1918
  172MOL0     H22649   9.440   1.198   6.991  0.2431 -0.0477  0.0616
  172MOL0     H22650   9.440   1.364   7.041  1.5921  1.5910 -1.2325
  172MOL0     H22651   9.584   1.340   7.222 -0.6687 -0.6955  2.3595
  172MOL0     H22652   9.625   1.167   7.183  0.3366  1.5478 -0.3197
  172MOL0     H22653   9.368   1.287   7.278  0.3550  0.8168 -1.2252
  172MOL0     H22654   9.400   1.120   7.221  1.9982 -2.4155  3.5207
  172MOL0     H22655   9.553   1.252   7.469  2.8360 -1.3634  0.2411
  172MOL0     H22656   9.570   1.096   7.407 -1.0238 -0.3001 -0.7508
  172MOL0     H22657   9.396   0.916   7.417 -0.9560  0.6900 -1.1681
  172MOL0     H22658   9.118   0.791   7.507  2.3311 -1.6226 -1.1466
  172MOL0     H22659   9.100   0.862   7.670 -0.3032 -0.8789 -0.7345
  172MOL0     H22660   9.334   0.783   7.721  1.4858  0.3730 -1.6323
  172MOL0     H22661   9.331   0.684   7.574 -1.4512 -1.1589 -1.9652
  172MOL0     H22662   9.083   0.616   7.671 -0.6291 -0.5660 -0.3394
  172MOL0     H22663   9.235   0.537   7.719  1.9207  1.0813 -0.1085
  172MOL0     H22664   9.097   0.768   7.874 -1.3763 -1.1953  0.3612
  172MOL0     H22665   9.239   0.702   7.931 -0.4343  1.4760  0.4148
  172MOL0     H22666   8.956   0.434   8.109 -1.9204 -0.9786 -0.0531
  172MOL0     H22667   8.725   0.422   8.149 -0.6727  0.4098  1.0067
  172MOL0     H22668   8.485   0.541   8.435 -0.6482 -3.0102  1.8944
  172MOL0     H22669   8.300   0.566   8.550  2.4679 -1.4169 -0.1623
  172MOL0     H22670   8.049   0.604   8.652 -1.1549  1.6601 -1.2808
  172MOL0     H22671   8.068   0.434   8.630  0.6613  0.6622  1.8596
  172MOL0     H22672   7.819   0.609   8.619 -1.3998  0.0509  2.3087
  172MOL0     H22673   7.862   0.475   8.723 -1.8865  2.4843  1.2426
  172MOL0     H22674   7.872   0.337   8.499 -0.5321  0.2794 -2.1432
  172MOL0     H22675   7.780   0.459   8.421  1.3770 -0.5686 -0.5409
  172MOL0     H22676   7.677   0.288   8.659  0.2509 -3.6539 -1.4207
  172MOL0     H22677   7.589   0.426   8.597  0.0197  2.1779 -3.5103
  172MOL0     H22678   7.680   0.181   8.434  1.3622  1.4657 -0.8041
  172MOL0     H22679   7.603   0.320   8.362 -0.0543  0.3649 -0.2551
  172MOL0     H22680   7.397   0.299   8.490 -0.9972 -1.3815  2.2909
  172MOL0     H22681   7.449   0.151   8.564  4.2690 -0.4282  0.2773
  172MOL0     H22682   7.487   0.040   8.343 -2.6926 -1.7135  0.8482
  172MOL0     H22683   7.324   0.071   8.386 -1.3126 -0.4203 -2.2568
  172MOL0     H22684   7.489   0.260   8.205 -0.9415  2.7572  2.1733
  172MOL0     H22685   7.317   0.278   8.260  0.7521 -0.4446  0.8748
  172MOL0     H22686   8.048   0.496   8.214  0.4881 -2.4444  0.6267
  172MOL0     H22687   8.238   0.499   8.063 -1.9167 -0.6310  1.0765
  172MOL0     H22688   8.645   0.721   7.848 -2.4122 -0.8535  2.8704
  172MOL0     H22689   8.887   0.711   7.771 -1.3409  0.3342 -0.2279
  172MOL0     H22690   9.468   1.719   7.172  1.6245 -0.4055  1.6761
  172MOL0     H22691   9.343   1.905   7.257  0.9853  2.5604  0.9507
  172MOL0     H22692   9.205   2.329   7.309 -1.2796  0.8657 -0.1010
  172MOL0     H22693   9.119   2.532   7.392 -1.1318 -2.1532 -0.5639
  172MOL0     H22694   9.104   2.725   7.480  0.2268 -0.8235  0.2897
  172MOL0     H22695   9.013   2.782   7.342 -1.3911 -1.2007  2.5752
  172MOL0     H22696   9.202   2.970   7.492 -1.1347  2.8374  0.9756
  172MOL0     H22697   9.077   3.004   7.356 -4.4800 -1.3679 -0.2315
  172MOL0     H22698   9.017   3.075   7.592  4.9503 -0.0022 -0.1998
  172MOL0     H22699   9.008   2.894   7.624  0.3991 -1.6259 -2.1537
  172MOL0     H22700   8.811   2.889   7.459  1.7004  0.3971 -2.9763
  172MOL0     H22701   8.771   3.020   7.562 -2.7332 -0.3351 -3.4124
  172MOL0     H22702   8.791   3.211   7.189 -1.7671 -1.3319 -0.8081
  172MOL0     H22703   9.441   2.738   7.194 -0.2168 -0.1964  1.3075
  172MOL0     H22704   9.514   2.521   7.095 -2.4595  1.1746 -1.5785
  173MOL0     O22705   5.339   6.835   1.780  0.7884 -0.2034  0.3304
  173MOL0     C22706   5.396   6.756   1.710  1.5900  0.1530 -0.0671
  173MOL0     O22707   5.422   6.624   1.744 -0.3751  0.3701 -0.6822
  173MOL0     C22708   5.400   6.586   1.875  0.0937 -0.7913  0.9149
  173MOL0     C22709   5.455   6.649   1.986  0.3014 -0.6320 -0.8143
  173MOL0     C22710   5.429   6.600   2.106 -0.8309  0.7691  0.2930
  173MOL0     C22711   5.356   6.481   2.125 -0.6513  0.2509  0.0639
  173MOL0     O22712   5.364   6.432   2.253  0.0665  0.2136 -0.4145
  173MOL0     C22713   5.292   6.304   2.283  0.0460 -1.1361  0.2607
  173MOL0     C22714   5.322   6.263   2.423  0.2247  0.5249  0.0117
  173MOL0     C22715   5.255   6.131   2.468  0.7654 -0.3938  0.9786
  173MOL0     C22716   5.333   6.068   2.579  0.1946 -0.3381  0.1804
  173MOL0     C22717   5.281   5.920   2.628  1.3816 -0.3001  0.4235
  173MOL0     C22718   5.385   5.849   2.721  0.1360  0.6646  1.2152
  173MOL0     C22719   5.334   5.703   2.742 -0.2354 -0.2554  0.4681
  173MOL0     C22720   5.212   5.704   2.835 -0.6312 -0.5887 -0.0391
  173MOL0     N22721   5.209   5.587   2.904  0.5560  0.5932  0.2839
  173MOL0     C22722   5.132   5.483   2.880  0.3390  0.0035 -0.4862
  173MOL0     C22723   5.166   5.388   2.971  0.4393 -0.1663  0.6650
  173MOL0     C22724   5.088   5.257   3.001 -0.4812  0.0157 -0.0463
  173MOL0     C22725   4.988   5.273   3.116  0.9079  0.1691  0.2130
  173MOL0     C22726   4.907   5.147   3.128 -0.9900  0.8837 -0.3766
  173MOL0     C22727   4.806   5.152   3.246  0.2024 -0.8061  0.3137
  173MOL0     O22728   4.864   5.184   3.377  0.0608 -0.4727 -0.0432
  173MOL0     C22729   4.918   5.088   3.450 -0.0355  0.3344 -0.0795
  173MOL0     C22730   4.903   4.951   3.436 -0.5004  0.2595  0.3193
  173MOL0     C22731   4.989   4.864   3.514 -0.0519  0.1993  0.3242
  173MOL0     C22732   5.084   4.915   3.603  0.1548  0.2458 -0.4676
  173MOL0     C22733   5.179   4.826   3.675  0.2234 -0.5772  0.8150
  173MOL0     O22734   5.255   4.892   3.766 -0.4617  0.7532 -0.1063
  173MOL0     C22735   5.347   4.822   3.849 -0.6899 -0.2884 -0.0378
  173MOL0     C22736   5.445   4.727   3.796  0.2992 -0.0708 -0.4534
  173MOL0     C22737   5.503   4.642   3.890  0.8311  0.5956  0.2692
  173MOL0     C22738   5.490   4.660   4.023 -0.3584  0.6512 -0.2592
  173MOL0     O22739   5.569   4.585   4.108  0.3605 -0.1800 -0.4470
  173MOL0     C22740   5.662   4.667   4.184 -0.2346 -0.3502 -0.2753
  173MOL0     C22741   5.788   4.587   4.206  0.8061  0.0463  0.5866
  173MOL0     C22742   5.838   4.593   4.352 -0.7539 -0.7353 -0.1044
  173MOL0     C22743   5.976   4.517   4.353  0.2501  0.5056  0.6384
  173MOL0     C22744   6.021   4.521   4.508  0.2339 -0.0364  0.1865
  173MOL0     C22745   6.079   4.655   4.551 -0.5561 -0.9141  0.0538
  173MOL0     C22746   6.176   4.654   4.673  1.2065 -0.1824  0.0189
  173MOL0     C22747   6.123   4.591   4.804 -0.9009  1.1406 -1.0886
  173MOL0    Cl22748   6.212   4.677   4.944  0.0684 -0.4550 -0.0692
  173MOL0     C22749   5.402   4.758   4.077  0.1055  0.4894 -0.0042
  173MOL0     C22750   5.327   4.834   3.986 -0.1998 -0.9116  0.2694
  173MOL0     O22751   5.197   4.712   3.641  0.1454 -0.6669 -0.0496
  173MOL0     C22752   5.078   5.054   3.623 -0.7411 -0.6761  0.0155
  173MOL0     C22753   5.003   5.139   3.546  0.9021 -0.1907 -0.3680
  173MOL0     N22754   5.258   5.437   3.061 -0.5830  0.2047 -0.4145
  173MOL0     N22755   5.272   5.563   3.022  0.0301 -0.1544 -0.6544
  173MOL0     C22756   5.298   6.422   2.013 -0.1391  0.7192  0.8996
  173MOL0     C22757   5.314   6.478   1.885 -0.4005 -0.2627 -0.4293
  173MOL0     C22758   5.432   6.810   1.574 -1.1162 -0.7329 -0.5906
  173MOL0     C22759   5.487   6.732   1.479 -0.2156  0.8260  0.3496
  173MOL0     C22760   5.533   6.783   1.358 -0.7293  0.6703 -0.0561
  173MOL0     C22761   5.536   6.916   1.336  0.7252  0.4240 -0.1354
  173MOL0     O22762   5.595   6.962   1.217  0.6471  0.9103  0.3444
  173MOL0     C22763   5.566   7.088   1.165  0.1715  0.0940  0.0283
  173MOL0     C22764   5.621   7.109   1.026  0.1839  0.2872 -0.6519
  173MOL0     C22765   5.650   7.251   0.986  0.3769 -0.8628  0.0640
  173MOL0     C22766   5.667   7.276   0.840 -0.1625  0.0608 -0.1606
  173MOL0     C22767   5.794   7.220   0.786  0.0809 -0.2427 -0.4577
  173MOL0     C22768   5.899   7.170   0.748 -0.3668  0.5434 -0.5390
  173MOL0     C22769   5.495   7.007   1.440  0.4538  1.0819 -0.7746
  173MOL0     C22770   5.435   6.952   1.549  0.2843 -0.1625 -1.0988
  173MOL0     H22771   5.523   6.733   1.969  1.0495 -0.9137  0.6354
  173MOL0     H22772   5.486   6.634   2.192  2.4303  1.5816 -2.0176
  173MOL0     H22773   5.318   6.232   2.204  1.2396  0.5367 -0.9585
  173MOL0     H22774   5.185   6.325   2.272  0.2139  0.5194  1.5071
  173MOL0     H22775   5.297   6.344   2.492  1.1581 -0.5047  1.6348
  173MOL0     H22776   5.429   6.247   2.434 -0.2059 -1.3620  2.3156
  173MOL0     H22777   5.265   6.070   2.378  3.2714 -1.5205  1.8955
  173MOL0     H22778   5.153   6.154   2.499 -0.0577  0.8077 -2.2386
  173MOL0     H22779   5.436   6.058   2.544  0.0699  1.2652 -0.7206
  173MOL0     H22780   5.331   6.131   2.668 -0.7221 -2.4167  1.7114
  173MOL0     H22781   5.263   5.857   2.540 -0.1863  1.7338 -0.7857
  173MOL0     H22782   5.193   5.941   2.689  1.8193  1.3807  0.5214
  173MOL0     H22783   5.399   5.903   2.815  3.3135 -0.1262  1.3030
  173MOL0     H22784   5.479   5.844   2.665 -1.8107  0.0415 -2.3364
  173MOL0     H22785   5.304   5.653   2.649  2.3156 -0.1377 -0.4832
  173MOL0     H22786   5.410   5.641   2.790  0.3579 -1.0700 -1.4165
  173MOL0     H22787   5.122   5.728   2.777 -0.4323  1.4389  0.4193
  173MOL0     H22788   5.226   5.786   2.906 -0.6703 -1.8506  1.4718
  173MOL0     H22789   5.052   5.479   2.806  0.1540  0.6526 -0.3332
  173MOL0     H22790   5.168   5.189   3.033 -2.9577 -2.2946  1.5511
  173MOL0     H22791   5.026   5.206   2.927 -3.4163 -1.4088  3.1336
  173MOL0     H22792   4.916   5.350   3.087 -1.1547 -2.1358 -1.2033
  173MOL0     H22793   5.038   5.296   3.210  1.2452 -0.1571  0.1183
  173MOL0     H22794   4.853   5.127   3.035  0.1234 -2.7065 -0.4391
  173MOL0     H22795   4.971   5.064   3.162 -1.6737  0.5558  0.1406
  173MOL0     H22796   4.743   5.063   3.251 -1.5492  0.4090  0.9802
  173MOL0     H22797   4.724   5.220   3.222  0.6993 -0.3491 -0.1061
  173MOL0     H22798   4.836   4.907   3.363 -3.0974  1.5237  1.7968
  173MOL0     H22799   4.977   4.757   3.501  2.4194 -0.1310  0.2926
  173MOL0     H22800   5.460   4.715   3.689  2.3826  1.2745 -0.3641
  173MOL0     H22801   5.575   4.569   3.854 -4.2572 -5.0640  0.0542
  173MOL0     H22802   5.628   4.699   4.282  2.9085  1.4090  0.3897
  173MOL0     H22803   5.693   4.763   4.140  4.9164  0.2256  3.6922
  173MOL0     H22804   5.865   4.622   4.137  0.1535 -0.5564 -0.4789
  173MOL0     H22805   5.781   4.481   4.181  3.6996 -0.0670 -0.1239
  173MOL0     H22806   5.766   4.555   4.425 -0.5080  1.3052  1.2907
  173MOL0     H22807   5.851   4.701   4.367 -0.5727 -0.3535 -2.6071
  173MOL0     H22808   5.965   4.415   4.317  0.0386  0.2497  1.3917
  173MOL0     H22809   6.048   4.561   4.284 -0.8795  0.3029 -0.6961
  173MOL0     H22810   6.100   4.445   4.516 -1.4538 -1.9554 -0.3875
  173MOL0     H22811   5.942   4.493   4.579  3.0535  0.3671  3.7472
  173MOL0     H22812   6.001   4.729   4.572  2.4625  3.1928 -1.8845
  173MOL0     H22813   6.141   4.697   4.472 -3.4990  1.3173 -1.2770
  173MOL0     H22814   6.267   4.603   4.640  1.7466  0.6983  0.1196
  173MOL0     H22815   6.212   4.753   4.703  0.2626  0.1700 -0.0029
  173MOL0     H22816   6.139   4.483   4.800 -2.4339  0.6901  1.7883
  173MOL0     H22817   6.018   4.617   4.816 -0.7593  0.8135  1.3877
  173MOL0     H22818   5.393   4.766   4.185  0.9863  0.6046  0.0670
  173MOL0     H22819   5.249   4.903   4.017  2.5003  2.7508 -0.3779
  173MOL0     H22820   5.150   5.112   3.680 -2.0741  1.0850  0.0272
  173MOL0     H22821   5.006   5.247   3.554  0.3845 -0.1526 -0.6476
  173MOL0     H22822   5.226   6.340   2.019  1.7157 -1.0422  0.2387
  173MOL0     H22823   5.275   6.432   1.794 -0.8954 -1.0817  0.1903
  173MOL0     H22824   5.473   6.625   1.491  1.2840  0.8345  2.6186
  173MOL0     H22825   5.558   6.714   1.278  0.0449  1.0244 -0.1359
  173MOL0     H22826   5.611   7.154   1.240 -0.0163 -1.4945  1.6093
  173MOL0     H22827   5.457   7.084   1.156  0.2622 -0.5932 -0.9552
  173MOL0     H22828   5.720   7.062   1.022  0.5040  0.6404  1.7897
  173MOL0     H22829   5.563   7.058   0.948 -0.7403  0.2321  0.0607
  173MOL0     H22830   5.736   7.296   1.036 -0.6276  0.5028  0.6488
  173MOL0     H22831   5.570   7.313   1.030 -0.1093  0.2886 -2.2648
  173MOL0     H22832   5.581   7.227   0.793 -0.2326 -2.0166  1.9565
  173MOL0     H22833   5.660   7.384   0.822  0.7746 -0.3494 -3.6001
  173MOL0     H22834   5.994   7.121   0.740  0.8389  1.4156  4.6294
  173MOL0     H22835   5.490   7.113   1.417 -1.8274  0.9898 -0.8476
  173MOL0     H22836   5.395   7.022   1.621  2.8821  1.4238 -1.0647
  174MOL0     O22837   9.028   3.258   0.525 -0.2690 -1.0290 -0.4504
  174MOL0     C22838   8.988   3.368   0.478  0.1560  0.2663 -0.3051
  174MOL0     O22839   9.001   3.407   0.347 -0.1713  0.3610  0.3169
  174MOL0     C22840   9.034   3.312   0.252  0.7000 -0.8118  0.3218
  174MOL0     C22841   9.136   3.337   0.156 -0.2701  0.2781 -0.1272
  174MOL0     C22842   9.175   3.243   0.058  0.5115 -0.1921 -0.9166
  174MOL0     C22843   9.089   3.138   0.036 -0.4812  1.0701  0.0388
  174MOL0     O22844   9.104   3.059  -0.073 -0.5035  0.4784 -0.5322
  174MOL0     C22845   9.212   2.958  -0.067  0.2426  0.5180  0.3578
  174MOL0     C22846   9.178   2.809  -0.092  0.8412  0.3764  0.5026
  174MOL0     C22847   9.100   2.755   0.017 -0.3377  0.0569 -0.3752
  174MOL0     C22848   9.050   2.615   0.005  0.5212 -0.1448 -0.9828
  174MOL0     C22849   9.158   2.514   0.037  0.0532  0.2620 -0.1300
  174MOL0     C22850   9.100   2.377   0.016  0.0894  0.3749 -0.6885
  174MOL0     C22851   9.198   2.272   0.074 -0.4259 -0.6300  0.8267
  174MOL0     C22852   9.130   2.137   0.078 -0.1516  0.2700  0.3178
  174MOL0     N22853   9.215   2.062   0.168 -0.5226  0.9644 -0.3485
  174MOL0     C22854   9.318   1.966   0.131 -0.3421 -0.5661 -0.1370
  174MOL0     C22855   9.372   1.931   0.253 -0.5920 -0.6022  0.0962
  174MOL0     C22856   9.500   1.846   0.268  0.3684  0.1448  0.4373
  174MOL0     C22857   9.473   1.709   0.335 -0.2960 -0.0453 -0.3506
  174MOL0     C22858   9.393   1.609   0.246  0.6674 -0.3607 -0.9669
  174MOL0     C22859   9.413   1.473   0.311  0.3905  0.4712 -0.3420
  174MOL0     O22860   9.334   1.384   0.241 -0.5059  0.1958 -0.5138
  174MOL0     C22861   9.331   1.260   0.300  0.3879  0.4192  0.8875
  174MOL0     C22862   9.429   1.205   0.384  0.3483 -0.0384 -0.0244
  174MOL0     C22863   9.408   1.071   0.433  0.6553  0.3167 -1.5584
  174MOL0     C22864   9.287   1.004   0.408  1.0681  0.6889 -0.8679
  174MOL0     C22865   9.248   0.868   0.465 -0.1751 -0.1932  0.0795
  174MOL0     O22866   9.133   0.808   0.422  0.2040  0.3910 -0.0430
  174MOL0     C22867   9.107   0.672   0.434 -0.7280 -0.1890  0.6469
  174MOL0     C22868   9.201   0.570   0.408 -0.4597  0.3708 -0.3164
  174MOL0     C22869   9.166   0.438   0.406  0.4232  0.2391 -0.3095
  174MOL0     C22870   9.040   0.396   0.447  0.4516  0.8135  0.8091
  174MOL0     O22871   8.995   0.261   0.438  0.5701 -0.3028 -0.5262
  174MOL0     C22872   8.962   0.195   0.568 -0.7872 -0.8081  0.2996
  174MOL0     C22873   9.049   0.072   0.598 -1.1673  0.3356  0.3247
  174MOL0     C22874   9.018  -0.001   0.731  0.2200 -0.2601  0.5825
  174MOL0     C22875   9.055  -0.145   0.710  0.2344  0.0221 -0.3768
  174MOL0     C22876   9.037  -0.241   0.833  0.2982  0.5249  0.9890
  174MOL0     C22877   8.887  -0.267   0.886 -0.5432  0.0712 -0.5098
  174MOL0     C22878   8.889  -0.367   1.001  0.2352  0.7429  0.6258
  174MOL0     C22879   8.758  -0.441   1.029 -0.3070 -0.8544 -0.0214
  174MOL0    Cl22880   8.610  -0.324   1.001 -0.2517 -0.3330 -0.0162
  174MOL0     C22881   8.943   0.484   0.485  0.4682 -1.4171  0.9446
  174MOL0     C22882   8.972   0.626   0.469  0.0585 -0.7623 -0.8020
  174MOL0     O22883   9.330   0.818   0.543 -0.7442 -0.8168 -0.1202
  174MOL0     C22884   9.185   1.062   0.332  0.4353 -0.4570  0.8516
  174MOL0     C22885   9.206   1.190   0.275  0.1891  0.6227  0.2879
  174MOL0     N22886   9.295   1.989   0.357 -0.3681  0.7653  0.4229
  174MOL0     N22887   9.199   2.065   0.301  0.0972 -0.7041 -0.8417
  174MOL0     C22888   8.983   3.114   0.123 -0.4694  0.5838  0.4422
  174MOL0     C22889   8.957   3.197   0.235  0.0084 -0.2099  0.3910
  174MOL0     C22890   8.903   3.465   0.569  0.0246  0.1130  0.5104
  174MOL0     C22891   8.841   3.418   0.682 -0.3017 -0.0416 -0.1714
  174MOL0     C22892   8.771   3.508   0.761  0.2154 -0.3612  0.4015
  174MOL0     C22893   8.749   3.641   0.721  1.0462 -0.6818  0.6608
  174MOL0     O22894   8.703   3.747   0.792  0.8178  0.2518  0.2642
  174MOL0     C22895   8.630   3.724   0.910  0.1459 -0.9769  0.2898
  174MOL0     C22896   8.730   3.735   1.032 -0.4099  0.5453  0.1214
  174MOL0     C22897   8.806   3.871   1.038  0.3646 -0.4657 -0.5079
  174MOL0     C22898   8.889   3.891   1.165 -0.4398  0.6159  0.1984
  174MOL0     C22899   8.940   4.026   1.143  0.0385  0.1912  0.1873
  174MOL0     C22900   8.976   4.139   1.125  0.7114 -0.3404  0.4848
  174MOL0     C22901   8.818   3.682   0.609 -0.0854 -0.1640  0.0813
  174MOL0     C22902   8.895   3.599   0.529  0.2735  0.3399  0.0134
  174MOL0     H22903   9.198   3.426   0.150 -0.6771  0.6553  1.0437
  174MOL0     H22904   9.258   3.257  -0.011  0.1432  1.9394 -1.0009
  174MOL0     H22905   9.265   2.962   0.029 -1.5273 -0.6105  1.4495
  174MOL0     H22906   9.292   2.987  -0.136  2.4944 -2.7261  1.3741
  174MOL0     H22907   9.266   2.748  -0.114 -0.6414 -0.8541 -2.7129
  174MOL0     H22908   9.123   2.800  -0.187 -2.0186 -3.2013  2.2329
  174MOL0     H22909   9.014   2.820   0.036  0.3032  1.0002 -0.6030
  174MOL0     H22910   9.166   2.761   0.103  2.3888  1.3639 -2.4152
  174MOL0     H22911   8.974   2.607   0.083  0.1019 -0.5922 -1.4245
  174MOL0     H22912   9.003   2.587  -0.090 -0.0649 -2.8804  0.0013
  174MOL0     H22913   9.201   2.519   0.137  3.0655 -1.1115 -1.2342
  174MOL0     H22914   9.237   2.527  -0.038 -0.0927 -2.6520 -0.9190
  174MOL0     H22915   9.080   2.351  -0.089 -1.7313 -6.0638  0.8057
  174MOL0     H22916   9.010   2.368   0.078  0.0476  1.3511 -0.5869
  174MOL0     H22917   9.294   2.275   0.022 -0.0685 -1.9430  1.3544
  174MOL0     H22918   9.226   2.296   0.177  3.4915 -1.3921  0.1014
  174MOL0     H22919   9.120   2.091  -0.021 -1.5097  1.9024 -0.3495
  174MOL0     H22920   9.032   2.158   0.123  0.4654  2.3063  0.8204
  174MOL0     H22921   9.362   1.945   0.033  2.4218  0.5533  0.7780
  174MOL0     H22922   9.560   1.916   0.327 -1.1650  1.6245  0.3069
  174MOL0     H22923   9.554   1.830   0.174 -1.0721  2.4092 -0.8814
  174MOL0     H22924   9.426   1.725   0.432  1.6454  0.2011  0.5899
  174MOL0     H22925   9.572   1.670   0.362  1.2633  3.1136 -1.0756
  174MOL0     H22926   9.287   1.635   0.248  0.5362 -0.8699  1.2267
  174MOL0     H22927   9.442   1.608   0.149 -1.3945  2.2389 -2.1503
  174MOL0     H22928   9.389   1.477   0.417  0.3090 -3.2413 -0.1029
  174MOL0     H22929   9.517   1.444   0.300 -0.2769 -2.2020 -0.1920
  174MOL0     H22930   9.515   1.259   0.422  1.1973 -0.9420 -0.6181
  174MOL0     H22931   9.475   1.030   0.508 -0.3181 -1.3086 -1.5546
  174MOL0     H22932   9.308   0.587   0.399  1.0585 -5.3729  2.1489
  174MOL0     H22933   9.251   0.379   0.371  0.6206  0.0698  0.4305
  174MOL0     H22934   8.856   0.173   0.553 -0.7062 -1.0205  0.0140
  174MOL0     H22935   8.985   0.272   0.642 -1.5016  0.4788 -0.7782
  174MOL0     H22936   9.154   0.101   0.594 -1.4672  1.5230  0.8186
  174MOL0     H22937   9.025   0.009   0.511 -0.9484  0.1351  0.4086
  174MOL0     H22938   8.912   0.013   0.755  0.1062  0.1474 -0.1211
  174MOL0     H22939   9.087   0.043   0.803  1.0182  3.4428 -2.1260
  174MOL0     H22940   8.994  -0.183   0.628 -1.2403 -1.0233  1.1260
  174MOL0     H22941   9.159  -0.134   0.678  0.0261 -0.3407 -1.1919
  174MOL0     H22942   9.089  -0.198   0.919 -2.6244  0.9414  2.6605
  174MOL0     H22943   9.085  -0.335   0.804 -1.1835  0.6713 -2.4713
  174MOL0     H22944   8.818  -0.303   0.809 -1.9356  0.6126  0.4596
  174MOL0     H22945   8.855  -0.173   0.930 -1.8441 -0.7762  0.4294
  174MOL0     H22946   8.965  -0.444   0.994 -0.3320  0.3620 -2.7591
  174MOL0     H22947   8.903  -0.294   1.082  0.4460  0.9959  0.3666
  174MOL0     H22948   8.760  -0.475   1.133 -1.8024  0.2695  0.4047
  174MOL0     H22949   8.754  -0.521   0.954  1.2345 -1.5307  0.5719
  174MOL0     H22950   8.840   0.454   0.504 -0.2670 -0.4188 -1.1923
  174MOL0     H22951   8.894   0.699   0.490 -0.0025 -0.8772 -0.6225
  174MOL0     H22952   9.083   1.024   0.324  0.1128 -0.1515  2.9499
  174MOL0     H22953   9.122   1.239   0.227  0.9596  0.9010 -0.8071
  174MOL0     H22954   8.920   3.029   0.100  1.4658 -0.1119 -2.8091
  174MOL0     H22955   8.878   3.167   0.303  0.2286  1.0658  1.2479
  174MOL0     H22956   8.851   3.310   0.697  0.3489 -0.3698 -2.5930
  174MOL0     H22957   8.733   3.466   0.854  3.0880 -1.0141  1.3751
  174MOL0     H22958   8.570   3.633   0.903  0.7341 -1.2539 -2.3392
  174MOL0     H22959   8.565   3.812   0.915 -0.5124 -1.3489 -1.2873
  174MOL0     H22960   8.668   3.723   1.121 -0.2697  1.4904  0.3500
  174MOL0     H22961   8.804   3.655   1.037  0.5378  1.2417 -1.9264
  174MOL0     H22962   8.726   3.946   1.035 -1.6098 -2.4414  0.0463
  174MOL0     H22963   8.879   3.874   0.956  0.3813 -1.7871 -0.5548
  174MOL0     H22964   8.829   3.880   1.256  0.8841  0.9205  1.1392
  174MOL0     H22965   8.980   3.832   1.174  1.0276  2.8213  0.8391
  174MOL0     H22966   9.008   4.238   1.099  0.3495 -0.7874 -1.8391
  174MOL0     H22967   8.821   3.787   0.584  2.5004  0.3254  1.9440
  174MOL0     H22968   8.945   3.628   0.438 -0.5688 -1.3666 -1.0441
  175MOL0     O22969   9.976   7.634   8.478  0.2710 -0.3069  0.3779
  175MOL0     C22970  10.024   7.556   8.555  0.0043  0.0115  0.8859
  175MOL0     O22971   9.988   7.426   8.567  0.6097  0.0704 -0.2006
  175MOL0     C22972   9.886   7.371   8.497  0.7011  0.8775  0.2090
  175MOL0     C22973   9.812   7.267   8.558 -0.7276  0.3595 -0.0187
  175MOL0     C22974   9.709   7.198   8.497  0.1811  0.3035  0.1524
  175MOL0     C22975   9.661   7.240   8.368  0.4032 -0.0508  0.3495
  175MOL0     O22976   9.555   7.172   8.323 -0.3959  0.0138  0.8293
  175MOL0     C22977   9.512   7.210   8.189 -0.2885  0.6689 -0.5524
  175MOL0     C22978   9.419   7.101   8.126 -0.2047 -0.4504  0.2922
  175MOL0     C22979   9.349   7.148   7.992 -0.0884 -0.6006  0.0499
  175MOL0     C22980   9.310   7.016   7.919 -1.2240 -0.1498 -0.4306
  175MOL0     C22981   9.291   7.044   7.772  0.3675 -0.1974  0.3328
  175MOL0     C22982   9.416   7.014   7.692  0.4437  0.5163 -0.1122
  175MOL0     C22983   9.372   7.023   7.535 -0.7422  0.0683  0.6254
  175MOL0     C22984   9.470   6.947   7.447  0.4470  0.6478  1.0366
  175MOL0     N22985   9.422   6.929   7.308 -0.1644  0.5733  1.0941
  175MOL0     C22986   9.423   6.811   7.225 -0.2143  0.2627 -0.5269
  175MOL0     C22987   9.371   6.856   7.111  0.5393  0.1993 -0.6741
  175MOL0     C22988   9.340   6.759   7.007 -0.5147 -0.7792 -0.8477
  175MOL0     C22989   9.190   6.722   7.027  0.2021 -0.5244 -0.1701
  175MOL0     C22990   9.136   6.632   6.915  1.2337  0.5431 -0.4250
  175MOL0     C22991   8.990   6.577   6.946  0.9254 -0.5113 -1.0440
  175MOL0     O22992   8.959   6.471   6.851 -0.4378  0.4484 -0.1138
  175MOL0     C22993   8.825   6.423   6.853  0.3762 -0.3395 -0.4046
  175MOL0     C22994   8.793   6.298   6.793 -0.2626 -0.1351  0.5426
  175MOL0     C22995   8.673   6.237   6.821  0.2947  0.9352  0.1895
  175MOL0     C22996   8.572   6.296   6.898  0.7122 -0.2834  0.7086
  175MOL0     C22997   8.443   6.222   6.926 -0.0636 -0.0151 -1.5825
  175MOL0     O22998   8.362   6.280   7.025 -0.1217 -0.0899  0.2634
  175MOL0     C22999   8.253   6.208   7.070 -0.4298  0.6254  0.2165
  175MOL0     C23000   8.121   6.230   7.031  0.9687 -0.2033 -0.6051
  175MOL0     C23001   8.015   6.160   7.090 -0.1167 -0.7465  0.9129
  175MOL0     C23002   8.044   6.067   7.192  1.0958 -0.3027 -0.0185
  175MOL0     O23003   7.931   5.990   7.241 -0.2098 -0.7061 -0.4198
  175MOL0     C23004   7.971   5.875   7.317 -0.3760 -0.1069 -0.4262
  175MOL0     C23005   7.847   5.811   7.375 -0.1216 -0.2269  0.1335
  175MOL0     C23006   7.789   5.891   7.491  0.5848  0.2100 -0.6686
  175MOL0     C23007   7.842   5.847   7.632  0.9885 -0.8686  0.4218
  175MOL0     C23008   7.751   5.741   7.689 -0.2040  0.4913  0.1631
  175MOL0     C23009   7.800   5.694   7.830  0.2313 -0.1967 -1.0812
  175MOL0     C23010   7.930   5.613   7.822 -0.0828  0.0289  0.4818
  175MOL0     C23011   7.963   5.526   7.942  0.1661  0.6518 -0.0682
  175MOL0    Cl23012   7.844   5.397   7.999 -0.1550 -0.0272 -0.3926
  175MOL0     C23013   8.172   6.055   7.242 -0.5924  0.3333 -1.2056
  175MOL0     C23014   8.282   6.122   7.176 -0.5617 -0.1449 -0.9497
  175MOL0     O23015   8.425   6.118   6.867  0.7738  0.3405  0.3877
  175MOL0     C23016   8.592   6.428   6.941 -0.2119  0.0443  0.5095
  175MOL0     C23017   8.720   6.492   6.922 -0.3504 -0.1483 -0.2025
  175MOL0     N23018   9.348   6.991   7.115 -0.0825 -0.0091 -0.0866
  175MOL0     N23019   9.378   7.031   7.230 -0.1148  0.3152  0.1504
  175MOL0     C23020   9.728   7.353   8.310 -0.0357  0.2088 -0.1002
  175MOL0     C23021   9.846   7.404   8.373  0.4570 -0.0449  0.6531
  175MOL0     C23022  10.135   7.607   8.641 -0.1525 -0.4591 -0.5003
  175MOL0     C23023  10.207   7.521   8.722  0.5338  0.1914 -0.3363
  175MOL0     C23024  10.310   7.563   8.803  0.2863  0.1693  0.2827
  175MOL0     C23025  10.347   7.694   8.803 -0.6566  0.5941 -0.6616
  175MOL0     O23026  10.448   7.730   8.887 -0.0957  0.7373  0.3188
  175MOL0     C23027  10.503   7.859   8.888  0.2624 -0.2970  0.1948
  175MOL0     C23028  10.656   7.845   8.912  0.9654 -0.5895  0.0109
  175MOL0     C23029  10.740   7.801   8.797  0.6112  0.4358 -0.4421
  175MOL0     C23030  10.890   7.775   8.829  0.3829  0.1473  0.7425
  175MOL0     C23031  10.906   7.656   8.916  0.2317 -0.6586  0.9653
  175MOL0     C23032  10.931   7.566   8.988  0.5794  0.0717 -1.1866
  175MOL0     C23033  10.274   7.784   8.722 -0.7214 -0.3654 -0.9438
  175MOL0     C23034  10.169   7.744   8.642  0.0809  0.2074 -0.0787
  175MOL0     H23035   9.842   7.229   8.655 -1.1191  2.9002  1.1651
  175MOL0     H23036   9.658   7.118   8.551  1.8649 -0.0931  1.2349
  175MOL0     H23037   9.598   7.221   8.123  1.1179 -0.0356  1.1058
  175MOL0     H23038   9.460   7.306   8.194  1.2197  1.4728  0.5012
  175MOL0     H23039   9.348   7.067   8.201 -1.5793 -1.5880 -1.4433
  175MOL0     H23040   9.484   7.016   8.104 -1.1132 -0.7064 -1.6618
  175MOL0     H23041   9.423   7.199   7.930 -0.3060 -0.6349 -0.2364
  175MOL0     H23042   9.257   7.207   7.999  1.1721  1.7266 -1.7171
  175MOL0     H23043   9.388   6.941   7.933 -2.7935 -1.4650  2.0405
  175MOL0     H23044   9.218   6.984   7.968  0.1532 -2.4798  0.7674
  175MOL0     H23045   9.264   7.146   7.741  2.0995 -0.5847 -2.7569
  175MOL0     H23046   9.210   6.979   7.739 -0.7776  1.1765  0.3384
  175MOL0     H23047   9.458   6.918   7.724  1.0360  1.9760  4.0017
  175MOL0     H23048   9.497   7.086   7.705  2.0285 -0.6067 -2.9161
  175MOL0     H23049   9.271   6.988   7.511 -0.6590  1.4114 -2.1021
  175MOL0     H23050   9.375   7.129   7.507  1.9324  0.4454  2.0463
  175MOL0     H23051   9.461   6.841   7.472 -1.8962  0.8152  1.0847
  175MOL0     H23052   9.572   6.986   7.457 -0.1164  2.3580  0.4628
  175MOL0     H23053   9.444   6.712   7.262 -0.2790  0.2716 -0.4670
  175MOL0     H23054   9.407   6.673   7.016 -1.2542 -1.7170 -3.5160
  175MOL0     H23055   9.362   6.788   6.904  0.0690  0.0734 -0.4871
  175MOL0     H23056   9.124   6.809   7.035 -1.0020 -1.0403 -3.1758
  175MOL0     H23057   9.184   6.677   7.126 -0.0003  2.6419  1.3759
  175MOL0     H23058   9.137   6.681   6.817 -2.0008 -2.4919 -2.1963
  175MOL0     H23059   9.189   6.536   6.921 -1.3953 -0.8943  2.0680
  175MOL0     H23060   8.925   6.664   6.930 -1.4554 -2.2015 -1.0299
  175MOL0     H23061   8.984   6.549   7.051 -1.0995 -0.9147 -1.2265
  175MOL0     H23062   8.860   6.235   6.736  2.4494  2.1380  0.9604
  175MOL0     H23063   8.663   6.137   6.779 -0.9161  1.0042  0.2996
  175MOL0     H23064   8.091   6.298   6.951 -0.6560 -2.6315 -2.1784
  175MOL0     H23065   7.913   6.159   7.054 -0.5575  1.1863  1.9525
  175MOL0     H23066   8.024   5.892   7.412 -1.6550 -3.1107  0.9718
  175MOL0     H23067   8.027   5.795   7.266  3.4998 -0.2325  3.3957
  175MOL0     H23068   7.864   5.705   7.396 -1.1900 -0.8901 -2.0690
  175MOL0     H23069   7.770   5.804   7.298 -0.9973 -2.0425  1.1157
  175MOL0     H23070   7.681   5.877   7.493  0.7234 -0.9686  1.3263
  175MOL0     H23071   7.815   5.995   7.469  0.9354  0.1875 -0.3762
  175MOL0     H23072   7.946   5.814   7.618  2.2321  1.5848  2.7845
  175MOL0     H23073   7.837   5.940   7.690 -1.7638  0.6811 -2.0361
  175MOL0     H23074   7.750   5.659   7.616  0.7121  0.8194 -0.2285
  175MOL0     H23075   7.649   5.781   7.694 -1.2769 -1.8064 -1.4277
  175MOL0     H23076   7.718   5.637   7.877  2.4937 -2.6842  0.1247
  175MOL0     H23077   7.813   5.790   7.882  0.5164 -0.8543  0.1072
  175MOL0     H23078   7.930   5.552   7.731  2.1001 -1.3267  1.3286
  175MOL0     H23079   8.014   5.682   7.804  1.5511 -2.4479 -2.3263
  175MOL0     H23080   7.976   5.584   8.034 -0.8309 -0.3527  0.7415
  175MOL0     H23081   8.062   5.480   7.932  0.8883  1.6597  1.8736
  175MOL0     H23082   8.191   5.990   7.327 -1.4819  0.4772 -0.8861
  175MOL0     H23083   8.383   6.123   7.216 -1.8768  1.4119  2.7619
  175MOL0     H23084   8.511   6.485   6.985  0.0853  2.4999 -1.8938
  175MOL0     H23085   8.726   6.591   6.966 -0.9697 -1.0088  1.9823
  175MOL0     H23086   9.691   7.412   8.226 -1.5804 -1.8189 -0.9600
  175MOL0     H23087   9.892   7.486   8.318 -0.0784 -2.3448 -3.7123
  175MOL0     H23088  10.196   7.413   8.721 -1.5481  0.3026  1.5797
  175MOL0     H23089  10.357   7.484   8.861 -0.9246 -1.4381 -0.8191
  175MOL0     H23090  10.453   7.923   8.961 -1.0309  1.5668 -2.1604
  175MOL0     H23091  10.490   7.905   8.789  0.3359 -2.8471 -1.0918
  175MOL0     H23092  10.680   7.951   8.929 -1.5144  0.1650 -0.6905
  175MOL0     H23093  10.676   7.812   9.014  2.1437  3.9233  1.4881
  175MOL0     H23094  10.736   7.881   8.723 -0.4241 -0.6413 -1.6187
  175MOL0     H23095  10.692   7.718   8.744  0.4227 -0.2636  0.7884
  175MOL0     H23096  10.948   7.764   8.738  2.7918 -0.1636  2.2344
  175MOL0     H23097  10.926   7.864   8.881  2.0196  1.0017 -1.6777
  175MOL0     H23098  10.937   7.484   9.057 -0.9002  1.3375  0.5295
  175MOL0     H23099  10.301   7.887   8.703  0.6460 -1.2338 -4.3891
  175MOL0     H23100  10.134   7.807   8.561  0.6879  0.8026  0.1124
  176MOL0     O23101   8.257   0.578   6.078 -0.8896  0.2185  0.1796
  176MOL0     C23102   8.327   0.679   6.048 -0.1507 -0.1352 -0.3835
  176MOL0     O23103   8.298   0.813   6.077 -0.0913  0.8202  0.1470
  176MOL0     C23104   8.193   0.848   6.148 -0.6934 -0.4790 -0.8666
  176MOL0     C23105   8.116   0.772   6.241 -0.4572 -0.4796  0.8737
  176MOL0     C23106   8.010   0.820   6.323 -0.1813 -0.1413 -0.1163
  176MOL0     C23107   7.972   0.953   6.311  0.8812  0.8383  0.6725
  176MOL0     O23108   7.861   1.005   6.361  0.4841 -0.5650 -0.2256
  176MOL0     C23109   7.742   0.924   6.390  0.6820  0.5278  0.2955
  176MOL0     C23110   7.611   0.985   6.443  0.1291 -0.2989 -1.0696
  176MOL0     C23111   7.627   1.043   6.584 -0.2547 -0.4006  0.3689
  176MOL0     C23112   7.502   1.104   6.647  0.2946  0.4549 -0.2930
  176MOL0     C23113   7.501   1.088   6.796 -0.5514  0.1623 -0.4247
  176MOL0     C23114   7.359   1.083   6.857  0.5328 -0.2968 -0.6931
  176MOL0     C23115   7.327   1.231   6.887  1.2017 -0.0240  0.5556
  176MOL0     C23116   7.254   1.305   6.775 -0.6093  0.7023  0.3352
  176MOL0     N23117   7.186   1.425   6.825 -0.4299 -0.7839 -0.4553
  176MOL0     C23118   7.047   1.426   6.846 -0.8644 -0.1096  0.1215
  176MOL0     C23119   7.008   1.552   6.866 -0.2304 -0.9489 -0.1793
  176MOL0     C23120   6.879   1.620   6.889  0.1148  0.0572  0.4961
  176MOL0     C23121   6.768   1.512   6.883  0.1513  1.0184 -0.1125
  176MOL0     C23122   6.726   1.475   6.737  0.1890  0.9950  0.0203
  176MOL0     C23123   6.630   1.354   6.733  0.2572 -0.1947  0.3024
  176MOL0     O23124   6.505   1.385   6.803 -0.1892 -0.1193 -0.3291
  176MOL0     C23125   6.403   1.306   6.763  0.1078  0.5611 -0.3892
  176MOL0     C23126   6.293   1.372   6.702 -0.5232  0.2654  0.5743
  176MOL0     C23127   6.207   1.291   6.621  0.7584  0.4760 -0.2028
  176MOL0     C23128   6.203   1.149   6.637 -0.7014 -0.7496  0.4653
  176MOL0     C23129   6.112   1.053   6.570  0.7425  0.1974 -0.1747
  176MOL0     O23130   6.013   1.115   6.501 -0.3137 -0.5586  0.8161
  176MOL0     C23131   5.891   1.044   6.479 -1.1671  0.0582 -0.4755
  176MOL0     C23132   5.844   0.932   6.545 -0.5618  0.3350 -0.6659
  176MOL0     C23133   5.718   0.871   6.516  1.2433  0.1273  0.0912
  176MOL0     C23134   5.635   0.930   6.422  0.3821 -1.0368 -0.5213
  176MOL0     O23135   5.520   0.881   6.385  0.6497 -0.4874 -0.1313
  176MOL0     C23136   5.397   0.959   6.407 -0.1478 -0.1210  0.7380
  176MOL0     C23137   5.275   0.877   6.426  0.7705  0.7504  0.8763
  176MOL0     C23138   5.155   0.979   6.455 -0.0503 -0.1590  0.2933
  176MOL0     C23139   5.016   0.906   6.465  0.7569  0.3073 -0.2565
  176MOL0     C23140   4.915   1.008   6.522  0.2790 -0.9537 -1.4205
  176MOL0     C23141   4.786   0.934   6.568  0.5400  0.0759 -0.7814
  176MOL0     C23142   4.679   1.051   6.612 -0.5309 -0.1811  0.4312
  176MOL0     C23143   4.645   1.156   6.489  0.7462  0.1600 -0.4564
  176MOL0    Cl23144   4.580   1.061   6.359  0.0112 -0.0315 -0.1569
  176MOL0     C23145   5.683   1.036   6.349  0.4419 -0.8287  0.5072
  176MOL0     C23146   5.808   1.093   6.373 -0.1572  0.4893  0.0967
  176MOL0     O23147   6.145   0.932   6.562  0.0756 -0.3102 -0.3642
  176MOL0     C23148   6.301   1.083   6.720 -0.2543 -0.2551  0.4029
  176MOL0     C23149   6.408   1.164   6.761  0.8116 -0.2059  0.5654
  176MOL0     N23150   7.115   1.633   6.844 -0.5672  0.6793  0.8801
  176MOL0     N23151   7.224   1.557   6.826  0.3339 -0.9135 -0.2509
  176MOL0     C23152   8.049   1.039   6.224  0.4334  0.5679  0.2500
  176MOL0     C23153   8.160   0.984   6.148 -0.3042  0.1342 -1.0652
  176MOL0     C23154   8.445   0.669   5.976  0.0065  0.5294  0.5962
  176MOL0     C23155   8.522   0.550   5.989 -0.7982 -0.2697 -0.2360
  176MOL0     C23156   8.648   0.538   5.935 -0.3455  0.4507  0.4239
  176MOL0     C23157   8.695   0.635   5.836 -0.1333  0.9015 -0.9387
  176MOL0     O23158   8.810   0.609   5.771 -0.5765  0.2447  0.7956
  176MOL0     C23159   8.845   0.667   5.638  0.4820 -0.5505  0.3629
  176MOL0     C23160   8.823   0.567   5.520 -0.0204  0.0155 -0.5557
  176MOL0     C23161   8.672   0.554   5.508 -0.5133 -0.0073 -0.0977
  176MOL0     C23162   8.602   0.666   5.439  1.1938 -0.5820 -0.2219
  176MOL0     C23163   8.636   0.660   5.292  0.0867 -0.7105 -0.3997
  176MOL0     C23164   8.645   0.658   5.172 -0.8033  0.3756 -1.0720
  176MOL0     C23165   8.627   0.754   5.819  0.2267  0.5160 -0.0674
  176MOL0     C23166   8.509   0.770   5.897  0.5779  0.4331 -0.1785
  176MOL0     H23167   8.137   0.666   6.251 -3.8169 -1.2373  1.3498
  176MOL0     H23168   7.944   0.755   6.379 -2.8910  0.4175 -2.4054
  176MOL0     H23169   7.770   0.832   6.442 -0.3063  0.0613  0.0171
  176MOL0     H23170   7.708   0.899   6.289 -3.4384 -1.7881  1.9888
  176MOL0     H23171   7.542   0.900   6.438 -0.9548  0.4682  0.2892
  176MOL0     H23172   7.574   1.063   6.376 -0.3891 -0.6686 -1.2273
  176MOL0     H23173   7.716   1.106   6.590  0.6826 -1.7572  1.4650
  176MOL0     H23174   7.655   0.958   6.648 -0.0849 -2.9592 -2.8322
  176MOL0     H23175   7.495   1.208   6.614  4.0627  0.9124 -0.0473
  176MOL0     H23176   7.420   1.035   6.624 -0.0925  0.9005 -0.2536
  176MOL0     H23177   7.574   1.159   6.836 -0.1897  2.4136 -4.5608
  176MOL0     H23178   7.540   0.991   6.828 -1.6387  0.2844  1.4472
  176MOL0     H23179   7.359   1.026   6.950 -2.2822  1.0345  0.2283
  176MOL0     H23180   7.281   1.031   6.799  0.9063  0.1377 -1.6143
  176MOL0     H23181   7.276   1.250   6.982  0.3299  0.3340  0.0313
  176MOL0     H23182   7.418   1.288   6.907  0.4381  1.0352  1.0907
  176MOL0     H23183   7.183   1.236   6.729 -1.9463  1.6580  0.8867
  176MOL0     H23184   7.334   1.328   6.705 -0.6247 -0.7308 -0.1802
  176MOL0     H23185   6.980   1.341   6.855  1.2830 -1.5992  5.5017
  176MOL0     H23186   6.870   1.700   6.814  2.7567  0.7009  0.7501
  176MOL0     H23187   6.879   1.669   6.986  0.8676 -2.1792  1.6953
  176MOL0     H23188   6.680   1.561   6.926 -0.4100  2.1669 -2.3674
  176MOL0     H23189   6.793   1.424   6.942 -1.0981 -0.5700 -1.8184
  176MOL0     H23190   6.675   1.562   6.696 -0.1758  1.0776  0.6308
  176MOL0     H23191   6.818   1.459   6.681  0.4568  1.7520  0.2319
  176MOL0     H23192   6.681   1.263   6.767 -1.2740 -1.0101  0.5174
  176MOL0     H23193   6.614   1.328   6.627 -1.0249 -1.9671  0.8828
  176MOL0     H23194   6.290   1.480   6.709 -0.4484  0.2273  1.2861
  176MOL0     H23195   6.132   1.339   6.559 -0.7890  0.0580  1.2578
  176MOL0     H23196   5.897   0.885   6.627 -1.8159  1.8538  1.0776
  176MOL0     H23197   5.686   0.785   6.574  0.3093 -0.3825 -1.1430
  176MOL0     H23198   5.393   1.022   6.318 -0.5652 -1.2328 -0.0561
  176MOL0     H23199   5.407   1.010   6.503 -1.3955  0.1978  0.7095
  176MOL0     H23200   5.300   0.811   6.509  3.3971 -0.4219 -0.7314
  176MOL0     H23201   5.254   0.817   6.337 -2.8003 -0.8997  2.6522
  176MOL0     H23202   5.142   1.052   6.374 -1.6364  0.3575  0.9606
  176MOL0     H23203   5.182   1.036   6.544  0.4978  1.9412 -1.1524
  176MOL0     H23204   4.977   0.874   6.367  0.4443 -1.3897  0.3873
  176MOL0     H23205   5.031   0.808   6.511 -1.9267  0.1503  0.4339
  176MOL0     H23206   4.898   1.085   6.448  0.8820  0.9040  0.2874
  176MOL0     H23207   4.949   1.065   6.609 -0.3884 -2.8453  0.1745
  176MOL0     H23208   4.805   0.877   6.659 -1.4089  0.7083  0.0927
  176MOL0     H23209   4.737   0.859   6.505  0.2885 -1.6727  1.3670
  176MOL0     H23210   4.586   1.001   6.638 -1.8971  0.4738 -2.6613
  176MOL0     H23211   4.718   1.111   6.695 -2.4521 -1.5984  2.4539
  176MOL0     H23212   4.729   1.220   6.460  1.5088 -1.5499 -2.2586
  176MOL0     H23213   4.566   1.225   6.522  0.7251  0.2531 -0.6960
  176MOL0     H23214   5.629   1.077   6.265 -0.3504  2.4542  2.4160
  176MOL0     H23215   5.836   1.180   6.315 -1.8330 -1.0574 -3.3384
  176MOL0     H23216   6.308   0.975   6.729  2.8892 -0.1284  0.5577
  176MOL0     H23217   6.501   1.126   6.802  0.9431  0.1845  0.6361
  176MOL0     H23218   8.024   1.144   6.216  3.1213  1.4773  2.1740
  176MOL0     H23219   8.218   1.046   6.081 -1.2495  2.7552  0.3899
  176MOL0     H23220   8.478   0.467   6.044  0.4926  0.1276  1.4749
  176MOL0     H23221   8.705   0.447   5.950  0.4855  0.6662 -1.1604
  176MOL0     H23222   8.954   0.681   5.639  0.4295  0.4324 -1.8190
  176MOL0     H23223   8.819   0.770   5.613 -0.3866 -0.9616 -0.5079
  176MOL0     H23224   8.881   0.607   5.437  0.6712  3.0785  1.2511
  176MOL0     H23225   8.849   0.462   5.536 -1.2385 -0.2960 -0.5075
  176MOL0     H23226   8.615   0.535   5.600  0.3705 -0.3632  0.3823
  176MOL0     H23227   8.657   0.468   5.442 -0.3306  1.6215 -2.4052
  176MOL0     H23228   8.494   0.652   5.449  0.5746  3.1101 -0.4397
  176MOL0     H23229   8.625   0.761   5.488  1.4588 -0.8257  0.1275
  176MOL0     H23230   8.665   0.656   5.067  1.8423  2.1235 -0.6919
  176MOL0     H23231   8.656   0.844   5.765 -2.3469  0.2399 -2.0931
  176MOL0     H23232   8.449   0.860   5.892  0.3209  0.2345 -4.0977
  177MOL0     O23233   7.131   0.133   2.177  0.1959  0.0687  0.0789
  177MOL0     C23234   7.125   0.216   2.271 -0.3213  0.4339  0.8589
  177MOL0     O23235   7.051   0.182   2.392  0.4789  0.7317 -0.1836
  177MOL0     C23236   6.967   0.074   2.392 -1.1275 -0.0561  0.4859
  177MOL0     C23237   6.829   0.107   2.390 -0.5807  0.1965 -0.1500
  177MOL0     C23238   6.735   0.004   2.398  0.4398 -0.9276 -0.8112
  177MOL0     C23239   6.773  -0.132   2.415 -0.7428 -0.5272 -0.1673
  177MOL0     O23240   6.675  -0.217   2.414 -0.4523 -0.2496  0.0397
  177MOL0     C23241   6.672  -0.329   2.502 -1.3963  0.3367  0.7686
  177MOL0     C23242   6.534  -0.348   2.568  0.3814  0.3499 -0.4527
  177MOL0     C23243   6.500  -0.238   2.666  0.6308 -0.3237  0.1865
  177MOL0     C23244   6.362  -0.255   2.727  0.2595 -0.5656  0.1729
  177MOL0     C23245   6.342  -0.172   2.851  0.3678  0.3706 -0.3140
  177MOL0     C23246   6.217  -0.215   2.947  0.1258  0.8199  0.6152
  177MOL0     C23247   6.217  -0.133   3.069 -0.0013 -1.1061 -0.6109
  177MOL0     C23248   6.183   0.017   3.036 -0.0286  0.6563 -0.4044
  177MOL0     N23249   6.047   0.024   2.969  0.5899 -0.1486 -0.5602
  177MOL0     C23250   5.922  -0.026   3.010 -1.9568 -0.1617 -0.8318
  177MOL0     C23251   5.847  -0.018   2.901 -0.9614  0.7089  0.6247
  177MOL0     C23252   5.704  -0.069   2.887 -0.2721  0.0812  1.5349
  177MOL0     C23253   5.612   0.023   2.970 -0.4505  1.1665  0.8186
  177MOL0     C23254   5.470   0.013   2.928  0.0823  0.1461  0.1055
  177MOL0     C23255   5.376   0.111   3.003 -0.5417  0.4545  0.0394
  177MOL0     O23256   5.247   0.063   2.995  0.0565 -0.6369 -0.0121
  177MOL0     C23257   5.145   0.153   3.019 -0.2192  0.0124 -0.3018
  177MOL0     C23258   5.161   0.287   3.058 -0.9779  0.1596  0.8844
  177MOL0     C23259   5.053   0.367   3.075  0.0051  0.2639 -0.3631
  177MOL0     C23260   4.925   0.321   3.050  0.3295 -0.3447 -0.4879
  177MOL0     C23261   4.813   0.413   3.083  0.5199  1.5030 -0.1681
  177MOL0     O23262   4.691   0.353   3.092  1.2553 -0.5650 -0.5325
  177MOL0     C23263   4.562   0.405   3.115 -1.1669 -0.3143 -0.2868
  177MOL0     C23264   4.540   0.545   3.137  1.3815  0.4560  0.1199
  177MOL0     C23265   4.408   0.591   3.162  0.4706  0.4597  0.4626
  177MOL0     C23266   4.303   0.502   3.182  0.4441  0.2084 -0.0943
  177MOL0     O23267   4.171   0.554   3.209  0.3146  0.3745 -0.0788
  177MOL0     C23268   4.059   0.462   3.230  0.0613  0.3410  0.3765
  177MOL0     C23269   3.924   0.539   3.255  0.1838  0.6148 -0.7366
  177MOL0     C23270   3.795   0.447   3.254 -1.3217 -0.0085 -0.2870
  177MOL0     C23271   3.784   0.362   3.385  1.3116 -0.3967 -0.0258
  177MOL0     C23272   3.661   0.263   3.369 -0.0106  0.6870  0.4173
  177MOL0     C23273   3.612   0.215   3.508  0.0936  0.2078 -0.0811
  177MOL0     C23274   3.482   0.127   3.505 -0.5955 -0.6373 -0.1201
  177MOL0     C23275   3.501  -0.008   3.434 -0.4359 -0.7247  0.5625
  177MOL0    Cl23276   3.363  -0.099   3.488 -0.0377 -0.1511  0.0913
  177MOL0     C23277   4.325   0.370   3.151 -0.6251  0.3164  0.5113
  177MOL0     C23278   4.452   0.320   3.123  0.7279 -0.5611 -1.4659
  177MOL0     O23279   4.843   0.521   3.126  0.2938 -0.0220 -0.3264
  177MOL0     C23280   4.909   0.185   3.021 -0.6927 -0.0025 -0.1926
  177MOL0     C23281   5.022   0.104   3.001 -0.2837 -0.1241 -0.1432
  177MOL0     N23282   5.909   0.045   2.792  0.2380 -0.2124  0.0145
  177MOL0     N23283   6.033   0.058   2.837 -0.4294  0.8975  0.0316
  177MOL0     C23284   6.909  -0.156   2.426  0.0915  0.1479  0.8614
  177MOL0     C23285   7.004  -0.059   2.410  0.0575  0.8611 -0.2925
  177MOL0     C23286   7.193   0.355   2.275  1.6202  1.0198  0.1183
  177MOL0     C23287   7.262   0.396   2.161  0.3455 -0.1673  1.2758
  177MOL0     C23288   7.330   0.519   2.164 -0.1212  0.4623  0.1359
  177MOL0     C23289   7.315   0.613   2.260  0.0346 -0.5378 -0.2682
  177MOL0     O23290   7.338   0.744   2.245 -0.5364 -1.1036  0.3905
  177MOL0     C23291   7.386   0.786   2.114  1.3336  0.9193  0.6386
  177MOL0     C23292   7.408   0.937   2.102 -1.1337  0.5660  0.3543
  177MOL0     C23293   7.546   0.957   2.037  0.5726 -0.1403  0.0976
  177MOL0     C23294   7.560   1.111   1.980  0.2341  0.8183 -0.4168
  177MOL0     C23295   7.678   1.112   1.903 -0.2916 -0.7949  0.3948
  177MOL0     C23296   7.777   1.116   1.831  0.1429 -0.3893  0.4751
  177MOL0     C23297   7.250   0.564   2.377  0.5418 -0.4594 -0.2138
  177MOL0     C23298   7.193   0.435   2.389  0.6540 -0.1429  0.4985
  177MOL0     H23299   6.803   0.208   2.358  1.6417  1.9651  3.0570
  177MOL0     H23300   6.633   0.023   2.368 -0.3860 -4.2036 -0.4769
  177MOL0     H23301   6.759  -0.337   2.568 -1.9555 -1.8598  1.3220
  177MOL0     H23302   6.682  -0.402   2.421 -1.5162  1.2666 -0.1064
  177MOL0     H23303   6.531  -0.446   2.618 -0.7452  0.4609 -0.2686
  177MOL0     H23304   6.467  -0.344   2.481  3.7295  0.1107 -3.2839
  177MOL0     H23305   6.494  -0.140   2.617  0.0820  0.4721  1.7800
  177MOL0     H23306   6.569  -0.237   2.751  1.5247 -3.5466 -0.3837
  177MOL0     H23307   6.284  -0.221   2.659 -0.1024  2.6861  2.0114
  177MOL0     H23308   6.358  -0.361   2.753  1.4734 -0.0082  2.9499
  177MOL0     H23309   6.346  -0.066   2.828  1.2874  0.5479  0.5571
  177MOL0     H23310   6.431  -0.187   2.913  0.9548 -1.4515 -1.5158
  177MOL0     H23311   6.224  -0.324   2.955 -0.8762  0.7013  0.0693
  177MOL0     H23312   6.125  -0.207   2.888  0.9049  1.2730 -0.5756
  177MOL0     H23313   6.157  -0.179   3.149  2.8819 -3.5363  0.3410
  177MOL0     H23314   6.316  -0.153   3.111  1.0420  0.0296 -2.4237
  177MOL0     H23315   6.252   0.069   2.969 -0.2243 -0.4751 -1.5406
  177MOL0     H23316   6.187   0.072   3.130  1.4763 -0.9942  0.5701
  177MOL0     H23317   5.904  -0.094   3.093  2.4141 -0.3159  0.2318
  177MOL0     H23318   5.711  -0.174   2.917 -1.9217 -1.0498 -1.6227
  177MOL0     H23319   5.668  -0.063   2.784 -1.7011  1.0747  2.0581
  177MOL0     H23320   5.633   0.131   2.962 -0.7574  1.2347  0.9153
  177MOL0     H23321   5.622  -0.004   3.075  0.3583  1.2716  0.7765
  177MOL0     H23322   5.448   0.038   2.824  2.7372  1.5603 -0.1838
  177MOL0     H23323   5.440  -0.091   2.947  1.4312  0.0245  1.7645
  177MOL0     H23324   5.389   0.210   2.959  2.3677 -0.7505 -2.1589
  177MOL0     H23325   5.393   0.126   3.110 -2.1469 -0.1351  0.3960
  177MOL0     H23326   5.257   0.329   3.082 -0.9544  0.1228  0.8548
  177MOL0     H23327   5.077   0.465   3.114 -2.9500  0.7158  0.5626
  177MOL0     H23328   4.630   0.604   3.128  1.3496  0.3415 -1.2626
  177MOL0     H23329   4.392   0.696   3.184  0.5648  0.4230  0.7208
  177MOL0     H23330   4.077   0.401   3.319 -0.6903 -1.1648 -0.4570
  177MOL0     H23331   4.048   0.395   3.144  3.9892 -0.1691  0.0979
  177MOL0     H23332   3.918   0.606   3.169 -1.4125  1.3719 -0.0654
  177MOL0     H23333   3.927   0.589   3.352 -0.4149 -3.3581  1.5450
  177MOL0     H23334   3.807   0.377   3.171  1.7304 -0.0798  0.1024
  177MOL0     H23335   3.708   0.509   3.230  1.2095  3.8190 -0.5188
  177MOL0     H23336   3.874   0.315   3.426  1.7613  0.8778  0.4866
  177MOL0     H23337   3.763   0.444   3.454  1.2956  0.0999 -0.6185
  177MOL0     H23338   3.695   0.176   3.312 -2.2748  0.2005 -0.2913
  177MOL0     H23339   3.582   0.316   3.316 -1.0900  0.3178  1.6209
  177MOL0     H23340   3.592   0.307   3.562  3.8661 -0.0695  2.0923
  177MOL0     H23341   3.687   0.159   3.563 -0.7218  1.7783  2.8003
  177MOL0     H23342   3.439   0.109   3.604  1.5931 -3.8185  0.4256
  177MOL0     H23343   3.410   0.182   3.445 -0.5395 -0.8762 -0.4114
  177MOL0     H23344   3.589  -0.060   3.473  1.3612  1.0055 -0.9664
  177MOL0     H23345   3.502  -0.001   3.325 -2.5559 -1.5387  0.4607
  177MOL0     H23346   4.250   0.300   3.186  0.5885 -0.5673  1.4467
  177MOL0     H23347   4.465   0.214   3.104  0.1463 -1.3527  1.8053
  177MOL0     H23348   4.807   0.150   3.010  0.3300 -2.3990 -3.4456
  177MOL0     H23349   5.010  -0.003   2.991 -0.3465 -0.0449 -1.0205
  177MOL0     H23350   6.945  -0.255   2.450  2.1943  1.1015  1.8825
  177MOL0     H23351   7.109  -0.085   2.406 -0.5795 -1.8683 -0.8558
  177MOL0     H23352   7.263   0.327   2.077 -1.2603  0.5883  0.6066
  177MOL0     H23353   7.398   0.533   2.080  0.6135 -2.4046  0.1494
  177MOL0     H23354   7.302   0.772   2.046  2.2609 -0.3524 -0.2897
  177MOL0     H23355   7.451   0.715   2.062  0.9969 -0.5706  2.1358
  177MOL0     H23356   7.326   0.974   2.040 -2.2997 -1.1857  0.7690
  177MOL0     H23357   7.407   0.979   2.203 -0.0021 -2.0751  1.5493
  177MOL0     H23358   7.569   0.877   1.966 -3.1723 -4.1254  2.8343
  177MOL0     H23359   7.608   0.952   2.127 -3.5832  0.1369  3.2735
  177MOL0     H23360   7.466   1.110   1.924  0.3234 -2.9948 -0.7391
  177MOL0     H23361   7.563   1.172   2.071 -0.2617  0.1778  0.0389
  177MOL0     H23362   7.873   1.120   1.783  0.0585  2.4876  0.4095
  177MOL0     H23363   7.233   0.630   2.461  0.4977 -1.4662  0.5879
  177MOL0     H23364   7.142   0.409   2.481  0.5290 -5.4367 -0.7408
  178MOL0     O23365   7.465   6.198  11.281 -0.1036 -0.7287 -1.2191
  178MOL0     C23366   7.373   6.273  11.324  0.1320 -0.3139  0.5386
  178MOL0     O23367   7.363   6.411  11.296 -0.0829 -0.2084  0.4728
  178MOL0     C23368   7.436   6.466  11.191 -0.3987 -0.7587  0.2454
  178MOL0     C23369   7.519   6.572  11.217 -0.2189 -0.2151  0.0581
  178MOL0     C23370   7.596   6.633  11.114 -0.4888  0.1378 -0.5311
  178MOL0     C23371   7.599   6.592  10.979  0.0612  0.0591 -0.0734
  178MOL0     O23372   7.662   6.643  10.867 -0.8541 -0.4028  0.2450
  178MOL0     C23373   7.807   6.631  10.866 -0.2410  0.2321 -1.2181
  178MOL0     C23374   7.842   6.680  10.736 -0.0219 -0.3720  0.3578
  178MOL0     C23375   7.995   6.709  10.723  0.2202 -0.5982 -0.0446
  178MOL0     C23376   8.037   6.733  10.580 -0.1733 -0.1230  0.3969
  178MOL0     C23377   8.192   6.777  10.564 -0.4014 -0.0527 -0.5494
  178MOL0     C23378   8.271   6.641  10.582  0.5095 -0.9309  0.0119
  178MOL0     C23379   8.408   6.671  10.521  0.1100 -0.4465  0.3111
  178MOL0     C23380   8.502   6.551  10.546 -0.2905  0.5309  0.0996
  178MOL0     N23381   8.639   6.585  10.492 -0.0800  0.2672  0.0525
  178MOL0     C23382   8.686   6.549  10.369 -0.0976 -0.4991  1.0552
  178MOL0     C23383   8.791   6.628  10.347 -0.4965 -1.0662  0.3010
  178MOL0     C23384   8.893   6.592  10.234 -0.2484 -0.5984 -0.7540
  178MOL0     C23385   8.821   6.522  10.116  0.2955 -0.3422 -0.1301
  178MOL0     C23386   8.913   6.494  10.000  0.5734 -0.3353 -0.2467
  178MOL0     C23387   8.836   6.486   9.867 -0.5939 -0.3829 -0.2403
  178MOL0     O23388   8.925   6.493   9.763 -0.1657  0.1759 -0.7418
  178MOL0     C23389   8.872   6.511   9.638 -0.3321 -0.1771  0.0146
  178MOL0     C23390   8.891   6.634   9.570 -0.0477  1.1227  0.2886
  178MOL0     C23391   8.843   6.652   9.438 -0.5818 -1.0053  0.3881
  178MOL0     C23392   8.758   6.556   9.371 -0.0332 -0.7181  0.3994
  178MOL0     C23393   8.707   6.572   9.234 -0.2706  0.5301  0.0697
  178MOL0     O23394   8.760   6.686   9.170 -0.5418 -0.4217  0.0560
  178MOL0     C23395   8.723   6.715   9.039 -1.2998 -0.1635  0.3293
  178MOL0     C23396   8.682   6.842   9.015 -0.8003 -0.0554 -0.8862
  178MOL0     C23397   8.663   6.903   8.894 -0.4810  0.9941  0.2186
  178MOL0     C23398   8.689   6.824   8.782 -0.5155  0.1015  0.3240
  178MOL0     O23399   8.703   6.892   8.660 -0.2491  0.5416 -0.3340
  178MOL0     C23400   8.802   6.996   8.662  0.9032 -0.0538 -0.1342
  178MOL0     C23401   8.813   7.040   8.516  0.8426  0.0459 -0.2574
  178MOL0     C23402   8.897   6.933   8.437  0.0008 -0.5531  0.2882
  178MOL0     C23403   8.896   6.955   8.278  0.0414 -0.3681  0.3727
  178MOL0     C23404   8.766   6.938   8.214  0.0584  0.2645  0.6474
  178MOL0     C23405   8.702   6.792   8.217 -0.7109 -1.3160 -0.4036
  178MOL0     C23406   8.554   6.789   8.239 -0.8351  0.5816  0.5164
  178MOL0     C23407   8.491   6.646   8.211 -0.4219  0.0512  0.3553
  178MOL0    Cl23408   8.600   6.521   8.281 -0.4728  0.9340  0.0273
  178MOL0     C23409   8.715   6.685   8.800  0.7055 -0.2943  0.2171
  178MOL0     C23410   8.732   6.625   8.930 -0.5292  0.5588 -0.3680
  178MOL0     O23411   8.632   6.488   9.187  0.0913  0.6009 -0.3760
  178MOL0     C23412   8.753   6.431   9.439 -0.1725  0.0577  0.5067
  178MOL0     C23413   8.801   6.408   9.568 -1.1027 -0.0278  0.5097
  178MOL0     N23414   8.804   6.708  10.451 -0.8054 -0.6794 -1.0204
  178MOL0     N23415   8.726   6.677  10.550  0.1305  0.3417  0.7400
  178MOL0     C23416   7.516   6.484  10.957  0.6107 -0.1955  0.5606
  178MOL0     C23417   7.442   6.424  11.056 -0.3887 -0.4548  0.2097
  178MOL0     C23418   7.256   6.215  11.389  0.0884  0.6057 -0.2626
  178MOL0     C23419   7.248   6.076  11.398  0.4280  0.4981 -0.2998
  178MOL0     C23420   7.140   6.010  11.452  0.6907  0.5613  0.4071
  178MOL0     C23421   7.034   6.085  11.510 -0.2149 -0.4622 -0.0604
  178MOL0     O23422   6.924   6.034  11.558  0.1560 -0.6430  0.1763
  178MOL0     C23423   6.920   5.893  11.568  0.5742  0.2104  0.3764
  178MOL0     C23424   6.987   5.834  11.687  1.0564  0.4948  0.0552
  178MOL0     C23425   6.943   5.901  11.806  0.4333  1.0088  0.2309
  178MOL0     C23426   7.056   5.910  11.908  0.7591 -0.8940  0.7761
  178MOL0     C23427   7.035   5.988  12.025 -0.5448 -0.2969 -0.3772
  178MOL0     C23428   6.993   6.057  12.121  0.5144 -0.1096  0.3173
  178MOL0     C23429   7.038   6.225  11.506  0.2660 -0.8293  0.5846
  178MOL0     C23430   7.149   6.291  11.436 -1.1151 -1.0086  0.1559
  178MOL0     H23431   7.541   6.611  11.316  1.9497  0.9513 -0.8404
  178MOL0     H23432   7.658   6.713  11.153  1.9220 -2.4637  1.4061
  178MOL0     H23433   7.835   6.526  10.884  0.3256  0.8777  2.7312
  178MOL0     H23434   7.849   6.691  10.947 -2.9613 -0.7253  1.0595
  178MOL0     H23435   7.784   6.765  10.697  1.7180  0.4995 -0.4706
  178MOL0     H23436   7.807   6.607  10.662 -0.7403  0.7145 -0.4284
  178MOL0     H23437   8.055   6.621  10.750 -0.7021 -1.9372 -2.1650
  178MOL0     H23438   8.025   6.795  10.784 -2.0116 -0.1090  0.4347
  178MOL0     H23439   8.014   6.642  10.525  1.4317 -1.3290  1.6411
  178MOL0     H23440   7.982   6.814  10.531  0.8753  0.0492 -0.5387
  178MOL0     H23441   8.223   6.854  10.636  0.4190  0.4723 -1.4333
  178MOL0     H23442   8.205   6.825  10.467  0.8885  1.1593  0.1809
  178MOL0     H23443   8.228   6.557  10.526 -1.3508  0.6941 -1.1161
  178MOL0     H23444   8.265   6.609  10.686 -1.9462 -0.8673 -0.0551
  178MOL0     H23445   8.395   6.692  10.415  1.8871  0.5453  0.2557
  178MOL0     H23446   8.458   6.752  10.576  0.0304 -1.9021  2.6728
  178MOL0     H23447   8.481   6.461  10.488  2.6732  0.4135 -0.9318
  178MOL0     H23448   8.513   6.524  10.651 -0.8404 -3.2408 -0.6790
  178MOL0     H23449   8.653   6.474  10.298  1.3268 -2.3703  2.2831
  178MOL0     H23450   8.974   6.525  10.265 -1.1485 -2.0104 -1.3481
  178MOL0     H23451   8.942   6.686  10.207  2.3777 -1.4672  0.6640
  178MOL0     H23452   8.735   6.578  10.079 -0.3373  0.4818  2.3978
  178MOL0     H23453   8.783   6.423  10.144  0.1915 -0.5391 -0.9427
  178MOL0     H23454   8.985   6.576  10.001  0.6171 -0.3480  1.9771
  178MOL0     H23455   8.976   6.406  10.013  1.4308  0.2251 -0.5420
  178MOL0     H23456   8.761   6.564   9.855  2.3393  2.7202  0.2711
  178MOL0     H23457   8.783   6.390   9.863 -1.8937  0.3370 -3.4539
  178MOL0     H23458   8.940   6.717   9.620  2.3361 -0.5083  0.8525
  178MOL0     H23459   8.882   6.744   9.393 -0.2411 -1.0684  0.5514
  178MOL0     H23460   8.666   6.902   9.104  2.3825 -1.1224  0.5519
  178MOL0     H23461   8.631   7.007   8.894  0.9181  1.4659  1.3946
  178MOL0     H23462   8.901   6.966   8.696  0.8277 -0.2588 -0.0907
  178MOL0     H23463   8.770   7.080   8.725 -1.5132 -0.0657 -1.2062
  178MOL0     H23464   8.862   7.138   8.512 -2.3707  2.0681  3.2514
  178MOL0     H23465   8.709   7.050   8.485  0.4009 -1.7805  0.4894
  178MOL0     H23466   8.859   6.831   8.451 -1.2145 -0.2452 -0.5788
  178MOL0     H23467   8.996   6.917   8.481 -0.0461  0.2088  0.6735
  178MOL0     H23468   8.967   7.036   8.262  0.4507 -0.9331 -0.7166
  178MOL0     H23469   8.953   6.882   8.220  1.3978  3.0544 -3.0403
  178MOL0     H23470   8.776   6.964   8.108  1.7108 -3.3464 -0.2472
  178MOL0     H23471   8.691   7.014   8.237 -1.1977 -0.7704  0.1139
  178MOL0     H23472   8.760   6.746   8.297  0.6939 -0.7250 -1.0496
  178MOL0     H23473   8.711   6.748   8.117 -1.5612 -0.1302 -1.0366
  178MOL0     H23474   8.528   6.831   8.336 -3.8198  1.3483 -0.5150
  178MOL0     H23475   8.518   6.851   8.157 -0.6660 -0.9295 -0.7652
  178MOL0     H23476   8.477   6.635   8.103 -3.3861 -1.1280  0.7543
  178MOL0     H23477   8.392   6.635   8.255 -0.4063  0.0591  0.3930
  178MOL0     H23478   8.721   6.606   8.725  1.5336 -3.2531  3.1293
  178MOL0     H23479   8.757   6.522   8.949 -1.9006 -0.0614 -1.6892
  178MOL0     H23480   8.706   6.353   9.380 -0.3660  0.6747 -0.1756
  178MOL0     H23481   8.794   6.313   9.620 -0.0950 -0.1345  0.4542
  178MOL0     H23482   7.511   6.436  10.859 -1.8603 -1.2965  1.1528
  178MOL0     H23483   7.387   6.334  11.028  0.1530 -0.6196 -0.3443
  178MOL0     H23484   7.332   6.013  11.369  0.7297  0.4290  0.6726
  178MOL0     H23485   7.147   5.902  11.437  2.4574  0.9455 -2.0576
  178MOL0     H23486   6.955   5.852  11.473 -1.4826 -2.0075  0.4746
  178MOL0     H23487   6.812   5.878  11.578  0.7471  0.0894  2.6874
  178MOL0     H23488   6.944   5.734  11.689 -1.7711  1.6053  0.5812
  178MOL0     H23489   7.095   5.843  11.673  1.4498 -1.0063  1.8075
  178MOL0     H23490   6.852   5.850  11.838 -0.3140  2.2137  0.0820
  178MOL0     H23491   6.901   6.001  11.791 -1.4817  1.4251  5.8049
  178MOL0     H23492   7.091   5.809  11.927  1.2951 -0.2612  3.7033
  178MOL0     H23493   7.136   5.971  11.865 -1.4372  1.9344  0.3569
  178MOL0     H23494   6.955   6.129  12.191 -0.8186 -0.5693  0.0941
  178MOL0     H23495   6.951   6.278  11.543  2.4572  2.1629  1.8333
  178MOL0     H23496   7.147   6.399  11.425  1.6493 -0.9968 -1.1143
  179MOL0     O23497   6.529   2.233   1.635 -0.0551 -0.4186 -0.1660
  179MOL0     C23498   6.409   2.223   1.664 -0.1353  0.1439 -0.7201
  179MOL0     O23499   6.356   2.287   1.769  0.6162  0.4397 -0.0049
  179MOL0     C23500   6.427   2.365   1.847  0.0301  0.6206  0.2887
  179MOL0     C23501   6.369   2.486   1.893 -1.0105 -0.4161 -0.0863
  179MOL0     C23502   6.441   2.586   1.974 -0.3136  0.0272 -0.3261
  179MOL0     C23503   6.575   2.564   2.009 -0.8258  0.4752  0.0535
  179MOL0     O23504   6.635   2.660   2.084 -0.6383 -0.3577 -0.9542
  179MOL0     C23505   6.763   2.644   2.144  0.3365  0.3593  0.2173
  179MOL0     C23506   6.800   2.769   2.220 -0.2040  0.0606 -0.2724
  179MOL0     C23507   6.749   2.767   2.372 -0.1176  0.2940  0.2783
  179MOL0     C23508   6.861   2.823   2.452 -0.2144 -0.7022 -0.1496
  179MOL0     C23509   6.808   2.878   2.581  0.1533  0.0498 -0.0184
  179MOL0     C23510   6.906   2.963   2.663  0.7561 -0.8984  0.2657
  179MOL0     C23511   6.860   2.990   2.813  1.2864  0.3972 -0.1975
  179MOL0     C23512   6.813   2.867   2.890 -0.3561 -0.0873  0.1764
  179MOL0     N23513   6.840   2.887   3.034 -0.4613  0.4669 -0.0981
  179MOL0     C23514   6.780   2.992   3.107 -0.1454  0.1628  0.1238
  179MOL0     C23515   6.850   2.988   3.224  0.7908  0.4462  0.4628
  179MOL0     C23516   6.842   3.089   3.342 -0.3030  0.3854  0.5230
  179MOL0     C23517   6.794   3.227   3.314 -0.3801 -0.7144  0.1759
  179MOL0     C23518   6.649   3.230   3.321  0.1368  0.1224  0.1357
  179MOL0     C23519   6.590   3.360   3.265  0.5289 -0.4288  0.3985
  179MOL0     O23520   6.448   3.334   3.243 -0.1886 -0.2290 -1.2090
  179MOL0     C23521   6.392   3.431   3.172  0.3995 -0.8117  1.3328
  179MOL0     C23522   6.255   3.416   3.134  0.3620  0.0967 -0.3717
  179MOL0     C23523   6.188   3.511   3.055  0.5039 -0.7586  0.8173
  179MOL0     C23524   6.257   3.629   3.009  0.0902 -0.0292 -0.2760
  179MOL0     C23525   6.191   3.736   2.925 -0.6106 -0.5344  0.6514
  179MOL0     O23526   6.232   3.863   2.943 -0.2894 -0.2078 -0.8003
  179MOL0     C23527   6.187   3.957   2.859  1.1225 -0.0387 -0.3347
  179MOL0     C23528   6.081   4.044   2.907  0.1942  0.1221  0.4589
  179MOL0     C23529   6.040   4.157   2.840  0.2306  0.4525 -0.0439
  179MOL0     C23530   6.101   4.189   2.714 -0.2503  0.5071 -0.1259
  179MOL0     O23531   6.060   4.289   2.634 -0.2686 -0.5569  0.4884
  179MOL0     C23532   6.015   4.411   2.693  0.1828 -1.2457  0.0333
  179MOL0     C23533   5.985   4.519   2.592 -1.1558 -0.4306  0.1183
  179MOL0     C23534   6.120   4.594   2.545  0.0551  1.0966  0.3355
  179MOL0     C23535   6.083   4.712   2.451 -0.3489  0.5410  0.2697
  179MOL0     C23536   6.205   4.772   2.395  0.4371 -0.0355  0.1547
  179MOL0     C23537   6.184   4.864   2.267 -0.8022 -1.0966 -0.5538
  179MOL0     C23538   6.126   5.004   2.299 -0.1047 -0.4476  0.8073
  179MOL0     C23539   6.118   5.113   2.185  0.5891 -0.7341  0.5235
  179MOL0    Cl23540   6.279   5.182   2.138 -0.3458  0.1127  0.6081
  179MOL0     C23541   6.201   4.095   2.661  0.0779  1.3631 -0.6305
  179MOL0     C23542   6.245   3.983   2.733  0.0338 -0.7476  0.8379
  179MOL0     O23543   6.109   3.700   2.838 -0.3116 -0.2935 -0.6372
  179MOL0     C23544   6.395   3.646   3.037  0.5127  0.2757  0.1142
  179MOL0     C23545   6.454   3.547   3.118 -1.4378  0.2906 -0.2666
  179MOL0     N23546   6.925   2.862   3.226  0.2172  0.7820 -0.1664
  179MOL0     N23547   6.917   2.801   3.109  0.1374 -0.1570 -0.1775
  179MOL0     C23548   6.632   2.439   1.969  0.4946 -0.6066 -0.4950
  179MOL0     C23549   6.552   2.337   1.901 -0.7837  1.0752 -0.8312
  179MOL0     C23550   6.323   2.129   1.590  0.2192 -0.4052 -0.6127
  179MOL0     C23551   6.181   2.126   1.610  0.1070 -0.5702 -0.0366
  179MOL0     C23552   6.108   2.033   1.547 -0.2479 -0.1784  1.1454
  179MOL0     C23553   6.160   1.926   1.468  0.3461  0.0980  0.2755
  179MOL0     O23554   6.065   1.832   1.420  0.6334  0.2618  0.3671
  179MOL0     C23555   6.087   1.800   1.277  0.0534 -0.2241  0.2150
  179MOL0     C23556   5.978   1.719   1.200 -0.4432 -0.0947  0.0521
  179MOL0     C23557   5.938   1.602   1.290 -0.3791  0.1980 -0.2894
  179MOL0     C23558   5.886   1.498   1.204 -0.2180  0.2898  0.2920
  179MOL0     C23559   5.841   1.369   1.269  0.3318 -0.9279  1.0676
  179MOL0     C23560   5.785   1.282   1.334 -0.7511 -0.7529 -0.9678
  179MOL0     C23561   6.300   1.930   1.448 -0.0171 -0.0627 -0.3411
  179MOL0     C23562   6.382   2.028   1.507 -0.9552  0.4053  0.3765
  179MOL0     H23563   6.270   2.509   1.853 -0.1235  1.2126 -1.4994
  179MOL0     H23564   6.400   2.684   1.996  0.7332  1.4358 -3.9761
  179MOL0     H23565   6.845   2.641   2.071 -0.4390  3.6516 -0.9500
  179MOL0     H23566   6.763   2.563   2.218  1.7200  4.4218  5.2315
  179MOL0     H23567   6.751   2.853   2.169  1.0641  0.1442 -1.4070
  179MOL0     H23568   6.908   2.774   2.211 -0.4095  2.2000 -2.5308
  179MOL0     H23569   6.724   2.667   2.409 -2.2511  0.2481 -1.0710
  179MOL0     H23570   6.664   2.834   2.386  3.2642  5.5655 -1.3084
  179MOL0     H23571   6.947   2.757   2.460 -0.9883 -1.4764  4.8712
  179MOL0     H23572   6.897   2.917   2.408 -2.4633  1.3049  1.8974
  179MOL0     H23573   6.770   2.791   2.635 -1.0065 -0.0117 -0.9023
  179MOL0     H23574   6.724   2.945   2.559 -0.1094 -0.1886  0.2503
  179MOL0     H23575   6.900   3.063   2.617 -1.6797 -0.8801  0.4772
  179MOL0     H23576   7.010   2.932   2.661  1.9656  2.6762  0.1322
  179MOL0     H23577   6.949   3.033   2.859  0.4319  3.5677 -1.2537
  179MOL0     H23578   6.778   3.062   2.813  2.9752  2.4414  1.1262
  179MOL0     H23579   6.871   2.780   2.858  0.4301  0.3344  0.4403
  179MOL0     H23580   6.710   2.834   2.873  0.1376 -1.0627 -1.1332
  179MOL0     H23581   6.721   3.072   3.063  2.1591  0.8891 -1.8789
  179MOL0     H23582   6.948   3.099   3.369  0.5206  4.2754 -3.1323
  179MOL0     H23583   6.782   3.049   3.425 -1.4095  2.1359  0.6268
  179MOL0     H23584   6.818   3.243   3.209 -3.6668  0.1328 -0.5850
  179MOL0     H23585   6.840   3.296   3.385 -1.2164  2.7322 -2.3797
  179MOL0     H23586   6.609   3.149   3.259 -2.2112  0.1079  1.5361
  179MOL0     H23587   6.614   3.216   3.424 -1.0361 -1.9431 -0.4793
  179MOL0     H23588   6.639   3.386   3.171  0.5987  1.1844  0.8529
  179MOL0     H23589   6.606   3.440   3.337 -0.3290  1.0466 -0.9715
  179MOL0     H23590   6.203   3.328   3.172 -1.9300  1.4738 -0.1175
  179MOL0     H23591   6.082   3.502   3.032  0.1889  1.3975  1.2325
  179MOL0     H23592   6.032   4.032   3.003 -0.1920  0.6491  0.3336
  179MOL0     H23593   5.967   4.222   2.885  0.8173  0.8761  0.3110
  179MOL0     H23594   6.096   4.452   2.754  0.2462  0.6194 -1.2465
  179MOL0     H23595   5.927   4.392   2.755 -1.7805  1.0475 -1.8868
  179MOL0     H23596   5.925   4.599   2.637 -2.1231  1.8034 -4.5525
  179MOL0     H23597   5.932   4.478   2.505 -3.4316  3.7658 -0.7608
  179MOL0     H23598   6.181   4.523   2.488 -0.5322  3.0413 -2.9386
  179MOL0     H23599   6.175   4.620   2.636 -0.8552  0.0121  1.2381
  179MOL0     H23600   6.021   4.678   2.367  3.5893 -0.5857 -2.4813
  179MOL0     H23601   6.047   4.802   2.502 -1.2256  1.5566 -2.0154
  179MOL0     H23602   6.265   4.681   2.383  0.3625  0.1229 -1.8667
  179MOL0     H23603   6.254   4.830   2.474 -0.4923 -0.6769  1.2234
  179MOL0     H23604   6.116   4.817   2.195 -1.6396 -2.9971  1.3576
  179MOL0     H23605   6.281   4.875   2.216 -0.8569 -1.3380 -0.7125
  179MOL0     H23606   6.023   4.996   2.335 -1.8714  4.8643 -1.9523
  179MOL0     H23607   6.182   5.033   2.388  1.6461 -0.8701 -0.1122
  179MOL0     H23608   6.044   5.188   2.214  1.2157  0.7651 -1.4999
  179MOL0     H23609   6.078   5.064   2.095 -4.2213  1.6673  1.0230
  179MOL0     H23610   6.254   4.103   2.567 -0.1821  1.7233 -0.7480
  179MOL0     H23611   6.339   3.931   2.719  0.2864 -0.1120  0.0872
  179MOL0     H23612   6.450   3.724   2.985 -0.1198 -0.2036 -1.3151
  179MOL0     H23613   6.560   3.570   3.128 -1.4321  1.1552 -1.9992
  179MOL0     H23614   6.722   2.406   2.021 -1.2569 -3.4882  0.9581
  179MOL0     H23615   6.594   2.239   1.877 -0.6137  0.9637 -0.1014
  179MOL0     H23616   6.133   2.203   1.670  0.9945  0.5319 -0.6960
  179MOL0     H23617   5.999   2.040   1.545 -0.2302  1.5744  3.4359
  179MOL0     H23618   6.173   1.733   1.269 -1.3988 -2.0422 -1.4495
  179MOL0     H23619   6.110   1.888   1.217  4.3765  0.9026  3.0944
  179MOL0     H23620   5.887   1.776   1.180 -2.0656 -2.4434  0.2571
  179MOL0     H23621   6.024   1.683   1.107 -2.3160 -0.2018 -0.8737
  179MOL0     H23622   5.863   1.628   1.365  1.3937  2.2669  0.8620
  179MOL0     H23623   6.022   1.560   1.345 -2.4385  0.4338  3.3031
  179MOL0     H23624   5.801   1.529   1.143  0.5107  0.8562 -0.4540
  179MOL0     H23625   5.967   1.466   1.138 -0.0558  1.8190 -0.2752
  179MOL0     H23626   5.745   1.203   1.393 -1.5035  0.0690 -0.3478
  179MOL0     H23627   6.339   1.841   1.398 -0.3880  1.0519 -2.7454
  179MOL0     H23628   6.489   2.041   1.497 -1.2018  1.5760 -1.1394
  180MOL0     O23629   0.786   0.135   2.371 -0.1369 -0.0748 -0.1819
  180MOL0     C23630   0.866   0.158   2.284  0.5822  0.1740  0.9753
  180MOL0     O23631   0.838   0.184   2.144  0.3813  0.6205  0.2286
  180MOL0     C23632   0.717   0.199   2.091  0.0810 -0.4844  0.4333
  180MOL0     C23633   0.705   0.152   1.964 -1.0317 -0.2381  0.2036
  180MOL0     C23634   0.582   0.140   1.899 -0.2150 -0.0591 -1.3459
  180MOL0     C23635   0.467   0.195   1.973  1.0749  0.5388  0.3168
  180MOL0     O23636   0.339   0.200   1.927  0.3155  0.2142  0.2431
  180MOL0     C23637   0.313   0.169   1.785 -0.1518  0.3833  1.1899
  180MOL0     C23638   0.186   0.244   1.743  0.2399  0.1472  0.1371
  180MOL0     C23639   0.208   0.394   1.702 -0.7259  0.4796  1.3936
  180MOL0     C23640   0.074   0.466   1.709 -1.1662 -0.6087 -0.2915
  180MOL0     C23641   0.087   0.614   1.733  0.6982 -0.2628 -0.3541
  180MOL0     C23642  -0.040   0.701   1.740  0.7361  0.8719  0.2377
  180MOL0     C23643  -0.014   0.855   1.736  0.6561 -0.2572  0.0117
  180MOL0     C23644   0.019   0.884   1.587  0.3723  0.2934 -0.3792
  180MOL0     N23645   0.029   1.029   1.569 -0.0135  0.1804 -0.9567
  180MOL0     C23646   0.127   1.110   1.635  0.8667  0.8778  1.1022
  180MOL0     C23647   0.093   1.236   1.592  0.6091  1.1869  0.0268
  180MOL0     C23648   0.147   1.366   1.641  0.0796 -0.6375 -0.1009
  180MOL0     C23649   0.244   1.424   1.539 -0.5134 -0.1096  0.3480
  180MOL0     C23650   0.307   1.557   1.597  0.4737 -0.1310  0.5912
  180MOL0     C23651   0.426   1.607   1.511  0.3707 -0.1045 -0.7638
  180MOL0     O23652   0.533   1.661   1.585 -0.4555  0.9065  0.4133
  180MOL0     C23653   0.637   1.707   1.513 -0.2192 -0.3216 -0.1350
  180MOL0     C23654   0.626   1.810   1.420 -0.3010 -0.2590 -0.0056
  180MOL0     C23655   0.730   1.852   1.330  0.5354  1.4619 -0.1763
  180MOL0     C23656   0.843   1.770   1.329  0.7582 -1.1221  0.3972
  180MOL0     C23657   0.954   1.805   1.242 -1.0361  0.6725 -0.0477
  180MOL0     O23658   1.046   1.703   1.212 -0.4727 -0.3139  0.4797
  180MOL0     C23659   1.166   1.725   1.141  0.4919  0.2386  0.1316
  180MOL0     C23660   1.159   1.737   0.999  0.0747 -0.3896 -0.2735
  180MOL0     C23661   1.271   1.776   0.928  0.9358  0.6614  0.7345
  180MOL0     C23662   1.390   1.804   0.988  0.3240  0.0399 -1.0348
  180MOL0     O23663   1.508   1.833   0.934 -0.7663 -0.1378  0.0224
  180MOL0     C23664   1.504   1.871   0.801 -0.1346 -0.3766  1.3546
  180MOL0     C23665   1.639   1.893   0.733 -0.2221 -0.6489  0.0699
  180MOL0     C23666   1.707   1.762   0.689 -1.2528  0.2614  0.1307
  180MOL0     C23667   1.751   1.673   0.808  0.7335  0.6068 -0.2588
  180MOL0     C23668   1.777   1.533   0.769  0.2746  0.6866 -0.3923
  180MOL0     C23669   1.898   1.517   0.677 -0.6639 -0.2040 -0.2537
  180MOL0     C23670   1.909   1.378   0.614 -1.3863  0.2197 -0.2871
  180MOL0     C23671   2.038   1.359   0.531  0.3724  0.2710 -0.6947
  180MOL0    Cl23672   2.028   1.445   0.377  0.0946 -0.6728  0.2320
  180MOL0     C23673   1.399   1.779   1.132  0.0106 -0.1543  0.6464
  180MOL0     C23674   1.288   1.737   1.201 -0.1984  0.1734 -0.0296
  180MOL0     O23675   0.962   1.920   1.195 -0.5970 -0.7302 -0.6912
  180MOL0     C23676   0.852   1.662   1.423  0.2272 -0.2496 -0.4274
  180MOL0     C23677   0.750   1.632   1.514 -0.9223  0.1167 -0.1912
  180MOL0     N23678  -0.027   1.225   1.525 -0.2287 -0.0419  0.1862
  180MOL0     N23679  -0.056   1.102   1.493 -0.4961  0.4681 -0.9674
  180MOL0     C23680   0.484   0.239   2.103  0.0165  0.3442 -0.2247
  180MOL0     C23681   0.609   0.243   2.161  0.1725 -1.3906 -0.5031
  180MOL0     C23682   0.998   0.152   2.333 -0.3838 -0.6479  0.7432
  180MOL0     C23683   1.027   0.197   2.465  0.2139  1.2357  0.1796
  180MOL0     C23684   1.161   0.197   2.506  0.1182 -0.4355 -0.0627
  180MOL0     C23685   1.262   0.149   2.430 -0.4399 -0.2884  0.6283
  180MOL0     O23686   1.379   0.128   2.487 -0.1553 -0.5029 -0.0915
  180MOL0     C23687   1.480   0.056   2.421  0.2347 -0.4790  0.3852
  180MOL0     C23688   1.595   0.061   2.521 -0.5583  0.2197  0.0123
  180MOL0     C23689   1.566  -0.021   2.645  0.6948  0.0682 -0.7188
  180MOL0     C23690   1.641   0.032   2.771 -0.8635 -0.2911  0.7889
  180MOL0     C23691   1.786   0.033   2.755  0.0014 -0.1911 -0.3165
  180MOL0     C23692   1.905   0.011   2.770  0.5719 -0.4982  0.0410
  180MOL0     C23693   1.236   0.129   2.288 -0.5928  0.6314  0.0450
  180MOL0     C23694   1.107   0.139   2.244 -0.1358  0.4267  0.4822
  180MOL0     H23695   0.798   0.118   1.919  0.5617  4.4366 -0.6082
  180MOL0     H23696   0.568   0.111   1.796 -0.1648 -1.2950 -1.0212
  180MOL0     H23697   0.295   0.062   1.775 -1.8461  0.2407  4.5647
  180MOL0     H23698   0.398   0.198   1.723 -1.9802  0.1781 -1.5916
  180MOL0     H23699   0.115   0.233   1.826 -0.3084  0.5250 -0.2727
  180MOL0     H23700   0.149   0.198   1.651  1.0048  0.5351 -0.3824
  180MOL0     H23701   0.259   0.403   1.606  0.5264  0.7597  2.0556
  180MOL0     H23702   0.281   0.443   1.768 -1.2034  0.8095  1.6857
  180MOL0     H23703   0.015   0.450   1.619  0.1472  1.1966 -1.5469
  180MOL0     H23704   0.022   0.435   1.800 -2.4178  2.4859  0.1830
  180MOL0     H23705   0.147   0.644   1.646 -0.1768  1.0217 -0.5445
  180MOL0     H23706   0.142   0.621   1.828  3.0734 -0.4626 -1.6289
  180MOL0     H23707  -0.103   0.677   1.826  3.2659 -0.9954  1.7204
  180MOL0     H23708  -0.099   0.676   1.652  2.9286 -0.0081 -1.0598
  180MOL0     H23709  -0.110   0.894   1.769 -0.8929 -4.3867  0.9846
  180MOL0     H23710   0.067   0.884   1.804  0.7317  1.0251 -0.5948
  180MOL0     H23711  -0.059   0.851   1.518 -0.0578 -3.4230  1.5948
  180MOL0     H23712   0.107   0.834   1.544  0.8557 -0.5960  1.5360
  180MOL0     H23713   0.205   1.094   1.710  0.6273 -1.6934  0.8999
  180MOL0     H23714   0.207   1.339   1.728  0.0138 -0.9220 -0.1441
  180MOL0     H23715   0.060   1.431   1.655 -0.8662 -0.4349 -5.1860
  180MOL0     H23716   0.195   1.454   1.446  2.0946 -0.0392 -1.0897
  180MOL0     H23717   0.327   1.356   1.524 -0.0264 -0.2684  3.2134
  180MOL0     H23718   0.228   1.632   1.602  2.3421  1.9608  0.1525
  180MOL0     H23719   0.353   1.540   1.695  1.4522 -1.1043 -0.0041
  180MOL0     H23720   0.383   1.681   1.443  0.6730  1.3278  0.5594
  180MOL0     H23721   0.463   1.528   1.445  2.3494  2.0318 -2.4049
  180MOL0     H23722   0.536   1.869   1.407 -1.0513 -1.5488 -1.0528
  180MOL0     H23723   0.709   1.943   1.276  2.3856  2.5049  0.7650
  180MOL0     H23724   1.060   1.719   0.960  1.2183 -1.2611 -3.0135
  180MOL0     H23725   1.268   1.786   0.820  1.6240 -2.1670  0.3805
  180MOL0     H23726   1.442   1.961   0.791  0.8150  0.2574  0.9930
  180MOL0     H23727   1.463   1.792   0.739 -0.9024  1.0093  0.0304
  180MOL0     H23728   1.709   1.954   0.792  0.1744 -0.2822 -0.7580
  180MOL0     H23729   1.623   1.957   0.645 -1.3009  1.3328  1.6226
  180MOL0     H23730   1.809   1.777   0.651 -0.7915 -0.2097  1.1359
  180MOL0     H23731   1.645   1.699   0.625 -2.5060  0.9433  0.6462
  180MOL0     H23732   1.846   1.709   0.851  0.0815  1.0595  0.8500
  180MOL0     H23733   1.674   1.659   0.884  0.3690 -0.8339 -0.8766
  180MOL0     H23734   1.691   1.487   0.719  0.7963  0.4058 -1.0404
  180MOL0     H23735   1.802   1.470   0.855  1.3735  3.6636  1.6085
  180MOL0     H23736   1.984   1.534   0.742  0.1758  0.5627 -1.5244
  180MOL0     H23737   1.885   1.589   0.596 -1.6988 -1.3464 -1.1328
  180MOL0     H23738   1.890   1.302   0.690  0.1204 -2.2324 -2.1965
  180MOL0     H23739   1.819   1.374   0.551 -0.6746  1.0516 -1.4014
  180MOL0     H23740   2.059   1.252   0.529 -1.4486 -0.1517  0.1849
  180MOL0     H23741   2.121   1.408   0.582  1.3871 -0.8669 -1.2227
  180MOL0     H23742   1.501   1.770   1.170  0.6515  1.0122 -0.6876
  180MOL0     H23743   1.291   1.734   1.310  0.6865  1.7872  0.0258
  180MOL0     H23744   0.934   1.592   1.408  0.0888 -1.1710  2.5116
  180MOL0     H23745   0.751   1.542   1.575  2.2164  0.8603  1.0308
  180MOL0     H23746   0.395   0.262   2.160  0.1796  0.6839 -0.1091
  180MOL0     H23747   0.619   0.280   2.263 -1.7035 -0.9713 -0.4452
  180MOL0     H23748   0.942   0.232   2.524  0.1921 -0.6201  1.3209
  180MOL0     H23749   1.180   0.226   2.608 -2.2961  2.4461 -0.2843
  180MOL0     H23750   1.507   0.114   2.332 -2.1541 -0.4824 -0.4023
  180MOL0     H23751   1.447  -0.042   2.387  2.2319 -1.3620  0.8584
  180MOL0     H23752   1.682   0.014   2.475 -0.3314  2.4600 -2.0802
  180MOL0     H23753   1.622   0.166   2.539  2.2024 -0.2065 -1.2370
  180MOL0     H23754   1.588  -0.126   2.625 -4.2895 -1.0037 -1.9100
  180MOL0     H23755   1.458  -0.020   2.664  0.5627 -1.4196 -1.2467
  180MOL0     H23756   1.615   0.133   2.805  4.5248  2.2464 -1.4482
  180MOL0     H23757   1.619  -0.044   2.847 -3.2589  0.1476  0.6103
  180MOL0     H23758   2.011   0.017   2.775  0.7780  2.9158 -3.6687
  180MOL0     H23759   1.317   0.115   2.217  1.2272  2.4542  1.6477
  180MOL0     H23760   1.091   0.129   2.137 -0.9833 -0.7951  0.6998
  181MOL0     O23761   7.148  10.101   5.696 -0.3963 -0.4437  0.8891
  181MOL0     C23762   7.069  10.174   5.638 -0.2210 -0.0614 -0.6719
  181MOL0     O23763   7.081  10.312   5.628 -1.5004 -0.5519 -0.2295
  181MOL0     C23764   7.194  10.376   5.684  0.4053  0.0636 -0.9219
  181MOL0     C23765   7.325  10.352   5.626  0.2404 -0.2983 -1.1543
  181MOL0     C23766   7.428  10.440   5.663  0.2584  0.2315  0.6342
  181MOL0     C23767   7.405  10.557   5.744 -0.3019 -0.2137  0.1572
  181MOL0     O23768   7.520  10.623   5.775 -0.9637  0.5785 -0.9005
  181MOL0     C23769   7.512  10.724   5.877  0.1176  0.7265  0.1175
  181MOL0     C23770   7.652  10.798   5.879 -0.4209 -0.5844  0.0924
  181MOL0     C23771   7.755  10.733   5.974 -0.8041  0.2311  0.1008
  181MOL0     C23772   7.733  10.737   6.127  0.1944 -0.6861 -0.4454
  181MOL0     C23773   7.835  10.830   6.198  0.1529  0.6992  0.1779
  181MOL0     C23774   7.844  10.963   6.117 -0.0591 -0.2766  0.0995
  181MOL0     C23775   7.884  11.068   6.224  0.6622 -0.0392 -0.3467
  181MOL0     C23776   7.896  11.222   6.175 -0.8391  0.1431  0.0058
  181MOL0     N23777   8.019  11.259   6.092 -1.0083 -0.4489 -0.4189
  181MOL0     C23778   8.151  11.229   6.133 -0.4316  0.3233 -0.9079
  181MOL0     C23779   8.224  11.250   6.019  0.1577 -0.3462 -0.9667
  181MOL0     C23780   8.374  11.229   6.018  0.3454  0.0214  0.5065
  181MOL0     C23781   8.448  11.333   6.095 -0.2387 -0.9279 -0.6205
  181MOL0     C23782   8.444  11.470   6.032  0.1603 -0.0699 -0.1860
  181MOL0     C23783   8.489  11.486   5.892 -0.0494  0.5894 -0.1952
  181MOL0     O23784   8.623  11.441   5.890 -0.5806 -0.1565 -0.2463
  181MOL0     C23785   8.691  11.446   5.771  0.0267  0.5425 -0.4389
  181MOL0     C23786   8.650  11.381   5.655 -0.0930 -0.3988 -0.0779
  181MOL0     C23787   8.710  11.403   5.534  0.2767  0.2512  0.8198
  181MOL0     C23788   8.805  11.511   5.524 -0.2401 -0.1250  0.0328
  181MOL0     C23789   8.858  11.571   5.395  0.2482 -0.4389 -0.6195
  181MOL0     O23790   8.906  11.705   5.402  0.1692 -0.4726  0.1156
  181MOL0     C23791   8.956  11.759   5.292 -0.1749  0.6873 -0.4596
  181MOL0     C23792   8.878  11.793   5.184 -0.3592  0.4143  0.4939
  181MOL0     C23793   8.939  11.847   5.069 -0.4497  0.2924 -0.2255
  181MOL0     C23794   9.083  11.849   5.057 -0.4294 -0.1573 -0.3893
  181MOL0     O23795   9.149  11.887   4.943  0.2078 -0.0962  0.8421
  181MOL0     C23796   9.192  12.024   4.934  0.6340  0.0722  0.0283
  181MOL0     C23797   9.294  12.049   4.824  0.5794 -1.1502 -0.5885
  181MOL0     C23798   9.406  11.949   4.821  0.1071  0.0762  0.8349
  181MOL0     C23799   9.379  11.825   4.735  0.8295 -0.7695  0.2387
  181MOL0     C23800   9.492  11.727   4.745  0.2554 -0.2153  0.7487
  181MOL0     C23801   9.448  11.597   4.663 -1.3201 -0.9620  0.5183
  181MOL0     C23802   9.569  11.512   4.654 -0.2257 -0.0674 -0.0681
  181MOL0     C23803   9.647  11.479   4.777  0.7401  0.0799  0.6175
  181MOL0    Cl23804   9.801  11.382   4.739 -0.0424  0.0647  0.2273
  181MOL0     C23805   9.158  11.809   5.175  0.4200 -0.3034  0.7931
  181MOL0     C23806   9.088  11.768   5.288 -0.5906  0.7649 -0.1612
  181MOL0     O23807   8.854  11.503   5.293 -0.0853  0.8997 -0.2660
  181MOL0     C23808   8.860  11.559   5.644 -0.7500  0.3384 -1.1951
  181MOL0     C23809   8.796  11.524   5.767 -0.0129 -0.5557  0.1778
  181MOL0     N23810   8.139  11.306   5.922  0.0699 -0.3923  0.1302
  181MOL0     N23811   8.019  11.313   5.971  0.1286 -1.0499  0.0171
  181MOL0     C23812   7.280  10.576   5.805 -0.8453 -0.8200  0.4290
  181MOL0     C23813   7.172  10.491   5.770 -0.3411  0.4005 -0.0415
  181MOL0     C23814   6.924  10.135   5.598 -0.1518 -0.1246 -0.8055
  181MOL0     C23815   6.843  10.231   5.531 -0.0532  0.9409  0.4060
  181MOL0     C23816   6.706  10.204   5.498 -0.8841  0.4932 -0.2567
  181MOL0     C23817   6.648  10.082   5.539  0.5814 -0.0806 -0.4067
  181MOL0     O23818   6.521  10.070   5.493  1.1852 -0.4546 -0.2707
  181MOL0     C23819   6.444   9.963   5.549  0.3377 -0.3523  0.0477
  181MOL0     C23820   6.306   9.967   5.480  0.8990 -0.5781 -0.3806
  181MOL0     C23821   6.211   9.847   5.511 -0.0931 -0.4118 -0.6038
  181MOL0     C23822   6.252   9.724   5.427  0.7770  0.3488  0.3164
  181MOL0     C23823   6.196   9.595   5.484 -1.2509  0.0324 -0.3128
  181MOL0     C23824   6.155   9.494   5.522  0.7501 -0.0039 -0.9421
  181MOL0     C23825   6.730   9.996   5.622 -0.4805 -0.4564  0.5522
  181MOL0     C23826   6.863  10.024   5.655 -0.3709  0.1024  0.4393
  181MOL0     H23827   7.347  10.274   5.553  0.7625 -0.7905 -0.4872
  181MOL0     H23828   7.528  10.415   5.629 -1.1131  0.5388 -4.3702
  181MOL0     H23829   7.485  10.675   5.971  0.5125 -1.2030 -0.7208
  181MOL0     H23830   7.427  10.791   5.863  2.8006  4.7438  1.3072
  181MOL0     H23831   7.638  10.902   5.912 -4.0830 -1.1559  0.8391
  181MOL0     H23832   7.691  10.810   5.777 -1.8949 -1.4403 -0.6171
  181MOL0     H23833   7.847  10.785   5.947 -1.3539  0.7261 -0.8674
  181MOL0     H23834   7.772  10.630   5.939 -1.2539  0.9401 -2.3934
  181MOL0     H23835   7.636  10.784   6.147 -0.3266 -0.7225 -2.6509
  181MOL0     H23836   7.727  10.635   6.165 -1.3425 -0.7483 -0.7778
  181MOL0     H23837   7.931  10.779   6.210  0.0399  0.8787  2.1345
  181MOL0     H23838   7.799  10.847   6.300 -0.2156  0.5262  0.0808
  181MOL0     H23839   7.750  10.999   6.074 -0.5907  0.4906  1.8381
  181MOL0     H23840   7.915  10.948   6.036 -1.1712 -0.6242 -0.8423
  181MOL0     H23841   7.809  11.063   6.304  1.4211 -2.8702  0.2845
  181MOL0     H23842   7.970  11.049   6.289  0.0889 -0.3726  0.3266
  181MOL0     H23843   7.901  11.281   6.267  0.6621 -2.4086  1.7183
  181MOL0     H23844   7.814  11.241   6.106 -1.3786  1.1663  0.9130
  181MOL0     H23845   8.162  11.186   6.232  0.7688  1.6704 -0.4256
  181MOL0     H23846   8.419  11.214   5.919 -1.1470  6.1237 -1.5386
  181MOL0     H23847   8.384  11.141   6.081 -1.8895 -0.5166  0.1825
  181MOL0     H23848   8.552  11.301   6.107 -0.4605 -1.9600 -1.3254
  181MOL0     H23849   8.413  11.331   6.198 -0.3067  0.9162 -0.5794
  181MOL0     H23850   8.336  11.490   6.029 -0.4846 -2.7611  1.2796
  181MOL0     H23851   8.497  11.538   6.099 -0.5507 -1.0499  1.4402
  181MOL0     H23852   8.486  11.589   5.857 -1.1086  0.5650 -0.2045
  181MOL0     H23853   8.425  11.427   5.825 -2.5703  1.7892  1.0319
  181MOL0     H23854   8.554  11.331   5.661 -0.9122  1.2931  2.3226
  181MOL0     H23855   8.673  11.346   5.449 -2.6677 -1.7127  3.1865
  181MOL0     H23856   8.771  11.781   5.188 -0.5900  2.0948  0.3607
  181MOL0     H23857   8.883  11.876   4.981 -2.2093 -0.5781  0.5610
  181MOL0     H23858   9.239  12.047   5.029  2.6242 -4.4779  0.3918
  181MOL0     H23859   9.108  12.089   4.905  1.3544  1.6602  1.3521
  181MOL0     H23860   9.330  12.151   4.814 -1.1565 -0.3048  1.2243
  181MOL0     H23861   9.233  12.041   4.733 -0.9706  2.0799  0.0362
  181MOL0     H23862   9.439  11.913   4.919  0.7683 -2.3425 -0.1938
  181MOL0     H23863   9.493  12.001   4.779 -1.0268  1.9862  0.7234
  181MOL0     H23864   9.280  11.780   4.746 -0.2273  1.0592 -1.3204
  181MOL0     H23865   9.389  11.868   4.635  4.1610  2.5368  1.7615
  181MOL0     H23866   9.511  11.706   4.850 -1.1634 -0.1736  1.0312
  181MOL0     H23867   9.573  11.784   4.699  0.3520 -1.0763 -0.1805
  181MOL0     H23868   9.413  11.640   4.568  2.1989  3.2783  0.8273
  181MOL0     H23869   9.368  11.539   4.710 -1.5539 -1.8021 -0.8457
  181MOL0     H23870   9.539  11.419   4.605 -3.0757 -0.2279  1.7488
  181MOL0     H23871   9.645  11.559   4.591 -1.1191  1.2183 -0.2113
  181MOL0     H23872   9.577  11.418   4.836 -1.4230 -1.0129 -2.7713
  181MOL0     H23873   9.664  11.568   4.837 -0.6132  1.0443 -0.3711
  181MOL0     H23874   9.265  11.828   5.171  0.2036  1.0404  0.8310
  181MOL0     H23875   9.136  11.736   5.380 -0.0201  1.4115 -0.2152
  181MOL0     H23876   8.934  11.639   5.644 -1.0428  0.8137  2.7550
  181MOL0     H23877   8.824  11.571   5.860 -0.7286 -2.1818  1.2610
  181MOL0     H23878   7.272  10.656   5.879  2.0776  1.1282 -1.1508
  181MOL0     H23879   7.073  10.513   5.808 -0.8198  1.5502 -1.8105
  181MOL0     H23880   6.893  10.324   5.507  2.7300 -0.0560  1.9018
  181MOL0     H23881   6.655  10.274   5.432  0.8027  1.4013 -0.6494
  181MOL0     H23882   6.435   9.966   5.658  0.7487 -0.5663  0.0917
  181MOL0     H23883   6.487   9.866   5.523 -3.2628 -1.8589 -0.8793
  181MOL0     H23884   6.272  10.061   5.526  0.8921 -0.0924 -1.3520
  181MOL0     H23885   6.319   9.977   5.372  0.7458 -0.7220 -0.4119
  181MOL0     H23886   6.108   9.876   5.487 -1.1116 -4.2749 -1.4921
  181MOL0     H23887   6.225   9.803   5.610 -2.4756 -1.8027 -0.7936
  181MOL0     H23888   6.208   9.718   5.327 -0.0602 -2.5899  0.7490
  181MOL0     H23889   6.361   9.718   5.419  1.0110  4.2980 -1.5445
  181MOL0     H23890   6.121   9.397   5.553 -1.9027  1.1472  0.0411
  181MOL0     H23891   6.700   9.900   5.663 -1.9462 -0.0728  0.4585
  181MOL0     H23892   6.918   9.958   5.723  3.3929 -1.0694 -3.2685
  182MOL0     O23893   6.371   3.998   7.842 -0.3596 -0.3540  0.1405
  182MOL0     C23894   6.275   4.060   7.880  0.8292  0.0545 -0.4172
  182MOL0     O23895   6.145   4.027   7.875  0.0242 -0.5084 -0.2035
  182MOL0     C23896   6.106   3.899   7.836 -0.0744  0.0241 -0.3651
  182MOL0     C23897   6.183   3.779   7.865 -0.2341 -0.6001  0.1391
  182MOL0     C23898   6.140   3.652   7.838  0.6140 -1.2325  0.3700
  182MOL0     C23899   6.015   3.645   7.775  0.0350  0.5981  0.2293
  182MOL0     O23900   5.960   3.515   7.764 -0.6097  0.6643  0.1812
  182MOL0     C23901   5.953   3.475   7.632 -0.2775 -0.4957 -0.0245
  182MOL0     C23902   5.806   3.477   7.580  0.5435 -0.4143 -0.5350
  182MOL0     C23903   5.786   3.383   7.456  0.7004  0.3981 -0.3664
  182MOL0     C23904   5.658   3.411   7.383 -0.2304  0.1455  0.0630
  182MOL0     C23905   5.517   3.425   7.452  0.5132 -0.8708  0.3233
  182MOL0     C23906   5.482   3.297   7.530 -0.3849 -0.5312 -0.1895
  182MOL0     C23907   5.367   3.309   7.624 -0.6343  0.7838  0.3884
  182MOL0     C23908   5.234   3.318   7.540  0.2762  0.8312  0.0766
  182MOL0     N23909   5.115   3.328   7.626 -0.4346  0.1837  0.1310
  182MOL0     C23910   4.996   3.389   7.588 -0.3037 -0.2348  0.0468
  182MOL0     C23911   4.909   3.366   7.687  0.4365 -1.2088  0.1043
  182MOL0     C23912   4.773   3.439   7.697 -0.1871 -0.7720  0.1270
  182MOL0     C23913   4.687   3.393   7.585  0.6762 -1.4355 -0.1280
  182MOL0     C23914   4.536   3.459   7.603 -0.2122 -0.3219  0.3102
  182MOL0     C23915   4.523   3.612   7.585  0.4572 -0.7279  0.2315
  182MOL0     O23916   4.597   3.645   7.470 -0.2711 -0.8620  0.1504
  182MOL0     C23917   4.540   3.640   7.340  0.1936 -0.2349 -0.5804
  182MOL0     C23918   4.629   3.688   7.243  0.2814 -0.5244 -0.2477
  182MOL0     C23919   4.607   3.695   7.105 -0.9481  0.9860  0.3653
  182MOL0     C23920   4.482   3.648   7.060  1.5583 -1.1190 -0.4438
  182MOL0     C23921   4.453   3.651   6.916  0.0176 -0.0887 -0.0783
  182MOL0     O23922   4.320   3.611   6.884 -0.2600 -0.0220  0.3030
  182MOL0     C23923   4.265   3.648   6.764 -0.1952 -0.4078 -0.8275
  182MOL0     C23924   4.337   3.688   6.651  0.6900 -0.5080  1.2878
  182MOL0     C23925   4.261   3.707   6.535  0.8548 -1.2949  0.4052
  182MOL0     C23926   4.120   3.705   6.529 -0.5666  0.4615  0.0293
  182MOL0     O23927   4.042   3.743   6.428  0.7139 -0.6910  0.0160
  182MOL0     C23928   4.093   3.773   6.301 -0.9394  0.2541  1.6730
  182MOL0     C23929   3.986   3.815   6.206 -0.7769 -0.6148 -0.1699
  182MOL0     C23930   3.912   3.944   6.262 -0.2364  0.6578 -0.0904
  182MOL0     C23931   3.822   4.003   6.151  0.3652 -0.0853 -0.2378
  182MOL0     C23932   3.707   3.913   6.143  0.6620  0.3708 -0.9653
  182MOL0     C23933   3.639   3.910   6.008  0.7032  1.2636  0.9993
  182MOL0     C23934   3.610   4.044   5.930 -0.8509  0.7140 -0.0314
  182MOL0     C23935   3.494   4.017   5.829  0.6800 -0.0325 -0.0593
  182MOL0    Cl23936   3.551   3.878   5.719 -0.0276 -0.3615 -0.2067
  182MOL0     C23937   4.060   3.669   6.652 -0.4385 -0.4097 -0.6415
  182MOL0     C23938   4.130   3.643   6.767  0.2048  0.2008  0.4566
  182MOL0     O23939   4.543   3.681   6.831  0.5354 -0.6478 -0.2772
  182MOL0     C23940   4.386   3.605   7.165 -1.2697  0.3845  0.4951
  182MOL0     C23941   4.416   3.596   7.304  0.0482  0.2212  0.2765
  182MOL0     N23942   4.969   3.280   7.774 -0.3293  0.2811 -0.4206
  182MOL0     N23943   5.085   3.250   7.737  0.7015 -0.3026 -0.0586
  182MOL0     C23944   5.941   3.752   7.736  0.1397 -0.4458  0.5872
  182MOL0     C23945   5.990   3.883   7.770 -0.4498  0.9710  0.5441
  182MOL0     C23946   6.304   4.191   7.928  0.3392 -0.3437 -0.2452
  182MOL0     C23947   6.246   4.298   7.865  0.1017  0.3746 -0.1978
  182MOL0     C23948   6.260   4.426   7.918 -1.4997 -0.6869 -0.7183
  182MOL0     C23949   6.336   4.446   8.037 -0.0027 -0.0394  0.1312
  182MOL0     O23950   6.345   4.565   8.111  0.4403  0.1986 -0.0935
  182MOL0     C23951   6.293   4.682   8.050  0.4434  0.3970 -0.2045
  182MOL0     C23952   6.383   4.731   7.942  0.2932  0.1772  0.1677
  182MOL0     C23953   6.360   4.872   7.896  0.7178  0.0510 -0.4331
  182MOL0     C23954   6.454   4.888   7.776 -0.2676  0.5693  0.4255
  182MOL0     C23955   6.451   5.023   7.720 -0.5962  0.6637  0.6202
  182MOL0     C23956   6.458   5.140   7.690 -0.1034 -0.4125 -0.6474
  182MOL0     C23957   6.402   4.334   8.091  0.4898  0.7580  0.9262
  182MOL0     C23958   6.385   4.209   8.039  0.7389  0.3013  0.3542
  182MOL0     H23959   6.268   3.772   7.932  0.5233  1.3520 -0.5455
  182MOL0     H23960   6.180   3.556   7.870 -0.1876 -0.9906  2.2110
  182MOL0     H23961   5.986   3.371   7.628  3.0380  0.4798 -1.0324
  182MOL0     H23962   6.021   3.530   7.566  0.8877  1.1589  2.3962
  182MOL0     H23963   5.778   3.581   7.564 -2.9623 -1.0848  0.3628
  182MOL0     H23964   5.734   3.446   7.656  0.0934 -0.1827 -0.8591
  182MOL0     H23965   5.784   3.279   7.490 -4.1594  0.0611 -1.0493
  182MOL0     H23966   5.869   3.390   7.386 -0.6378 -2.1549 -2.3552
  182MOL0     H23967   5.674   3.513   7.346  0.9208  0.3732  1.1332
  182MOL0     H23968   5.651   3.337   7.302  3.8195 -2.6329  1.9179
  182MOL0     H23969   5.447   3.457   7.374  0.8757 -1.2106 -0.1487
  182MOL0     H23970   5.515   3.515   7.514 -0.1640  2.2104 -3.7378
  182MOL0     H23971   5.559   3.259   7.597 -2.3002  0.7011  2.9535
  182MOL0     H23972   5.472   3.222   7.451  2.9040  1.3673 -2.7031
  182MOL0     H23973   5.362   3.216   7.681  0.6474  0.6550  0.3028
  182MOL0     H23974   5.387   3.391   7.694 -1.0154 -0.3933  1.9290
  182MOL0     H23975   5.222   3.230   7.476 -0.4631  0.8056  0.2465
  182MOL0     H23976   5.227   3.401   7.470 -2.7599  1.3729  0.9122
  182MOL0     H23977   4.984   3.454   7.502  1.3658  0.0462 -0.0180
  182MOL0     H23978   4.799   3.544   7.682  1.3415 -1.0486  0.5985
  182MOL0     H23979   4.727   3.418   7.794 -0.7657 -1.8122 -0.3585
  182MOL0     H23980   4.676   3.285   7.597 -2.2571 -1.1543  0.5787
  182MOL0     H23981   4.716   3.421   7.483 -1.3198  1.3898 -0.0476
  182MOL0     H23982   4.466   3.404   7.540 -0.9012  2.1129 -1.2147
  182MOL0     H23983   4.496   3.441   7.704 -1.5377  1.5205  0.1753
  182MOL0     H23984   4.559   3.669   7.671  0.3124  2.0552 -1.4217
  182MOL0     H23985   4.417   3.637   7.573  0.5180  0.6056  2.0205
  182MOL0     H23986   4.717   3.741   7.279 -1.2579  2.0922 -0.1177
  182MOL0     H23987   4.681   3.741   7.040 -1.2213  0.7219 -0.1464
  182MOL0     H23988   4.443   3.711   6.638 -0.2403  4.8853  1.0308
  182MOL0     H23989   4.321   3.723   6.446  3.6675  1.6531  2.5895
  182MOL0     H23990   4.143   3.686   6.257 -0.5516 -0.4632  3.4034
  182MOL0     H23991   4.181   3.837   6.290 -0.0450 -1.2136 -0.5343
  182MOL0     H23992   3.923   3.726   6.194  0.2309 -1.6839  2.0036
  182MOL0     H23993   4.036   3.844   6.112  1.7153 -1.2827  0.8584
  182MOL0     H23994   3.975   4.023   6.304 -1.1362  0.7764  1.0836
  182MOL0     H23995   3.849   3.906   6.343  2.5544 -1.3616  1.2952
  182MOL0     H23996   3.780   4.100   6.181  1.6315 -0.4151  3.0763
  182MOL0     H23997   3.877   4.009   6.057 -1.9554 -1.3965 -1.7908
  182MOL0     H23998   3.631   3.954   6.210  3.6163  1.6013  1.8832
  182MOL0     H23999   3.733   3.812   6.176  0.7422  0.8951  0.6618
  182MOL0     H24000   3.539   3.871   6.030  1.9699 -2.9450  0.2455
  182MOL0     H24001   3.691   3.833   5.951 -0.8039 -0.2765  1.6106
  182MOL0     H24002   3.601   4.121   6.007  0.6103  2.5190 -1.5869
  182MOL0     H24003   3.697   4.080   5.875  0.4348 -2.6535 -0.4755
  182MOL0     H24004   3.470   4.103   5.766 -2.9762 -1.7535 -1.2910
  182MOL0     H24005   3.399   3.995   5.879 -1.6291  1.5686 -3.3679
  182MOL0     H24006   3.952   3.674   6.647 -0.5212 -1.1921  0.1820
  182MOL0     H24007   4.081   3.632   6.863  0.9869 -1.0688  0.7344
  182MOL0     H24008   4.285   3.582   7.132 -0.3501 -3.5728 -0.0617
  182MOL0     H24009   4.343   3.558   7.375  0.6931  0.3244  1.0040
  182MOL0     H24010   5.846   3.741   7.684 -0.4050 -2.9858  1.9503
  182MOL0     H24011   5.919   3.963   7.747 -2.4974 -0.1808  2.4356
  182MOL0     H24012   6.189   4.281   7.774  2.1362  2.0211 -1.8777
  182MOL0     H24013   6.211   4.512   7.875 -0.4029  0.6532  0.5909
  182MOL0     H24014   6.314   4.763   8.121  0.8698 -0.3830  0.5796
  182MOL0     H24015   6.184   4.674   8.037  0.5345 -0.8355 -0.3476
  182MOL0     H24016   6.482   4.718   7.986 -0.2271  1.8532  1.9024
  182MOL0     H24017   6.367   4.671   7.851 -3.3550  1.3126 -0.0772
  182MOL0     H24018   6.370   4.945   7.976 -2.2790 -0.9690  1.0276
  182MOL0     H24019   6.254   4.875   7.867  1.0967  3.8651 -2.0051
  182MOL0     H24020   6.556   4.861   7.805 -0.5165 -0.3195  0.5080
  182MOL0     H24021   6.434   4.821   7.692 -2.1425  0.4829  0.8985
  182MOL0     H24022   6.456   5.242   7.658 -2.3393  0.1237  0.9746
  182MOL0     H24023   6.473   4.346   8.173  1.7160 -0.1777  0.0307
  182MOL0     H24024   6.421   4.121   8.093 -0.0701 -0.9848 -1.1143
  183MOL0     O24025   5.474   2.537   7.162 -0.6745  0.1513 -0.1496
  183MOL0     C24026   5.529   2.585   7.258 -0.8387 -0.0492  0.4956
  183MOL0     O24027   5.494   2.697   7.331 -0.5918  0.7981  0.3579
  183MOL0     C24028   5.387   2.774   7.285 -0.3293  0.1986 -1.0584
  183MOL0     C24029   5.396   2.910   7.318  0.3508  1.0630 -0.0072
  183MOL0     C24030   5.296   2.998   7.293  0.4946  0.7063 -0.3957
  183MOL0     C24031   5.183   2.957   7.224 -1.6840  0.1307 -0.1496
  183MOL0     O24032   5.077   3.040   7.187  0.8223  0.3188  0.4440
  183MOL0     C24033   5.087   3.183   7.161  0.2214  0.7208  0.1199
  183MOL0     C24034   4.952   3.260   7.188  0.4733 -0.8154  0.2776
  183MOL0     C24035   4.859   3.256   7.072 -0.5012  1.0300 -0.3545
  183MOL0     C24036   4.719   3.308   7.099 -1.0184 -0.5946 -0.3985
  183MOL0     C24037   4.647   3.350   6.972 -0.2511 -0.3086 -0.4181
  183MOL0     C24038   4.593   3.239   6.878  0.3320 -0.4547 -0.1536
  183MOL0     C24039   4.465   3.271   6.793 -0.2142  0.4480 -0.3770
  183MOL0     C24040   4.482   3.366   6.668 -0.2151  0.0114 -0.7943
  183MOL0     N24041   4.571   3.299   6.571  0.1069 -0.7880  0.7445
  183MOL0     C24042   4.710   3.310   6.548  0.1654  0.0762 -0.5843
  183MOL0     C24043   4.737   3.215   6.455  0.2758 -0.5514 -0.5902
  183MOL0     C24044   4.865   3.191   6.376 -0.9234 -0.2294  0.7107
  183MOL0     C24045   4.968   3.105   6.458 -0.3833 -0.3461  1.3391
  183MOL0     C24046   5.038   3.179   6.578  0.5896  1.3676 -0.7294
  183MOL0     C24047   5.130   3.096   6.662 -0.6196  0.2062  0.1830
  183MOL0     O24048   5.214   3.180   6.742  0.1041 -0.7623 -0.3338
  183MOL0     C24049   5.305   3.114   6.826 -0.7975 -0.7753 -0.0595
  183MOL0     C24050   5.384   3.190   6.909 -0.3606 -0.8569 -0.4227
  183MOL0     C24051   5.472   3.134   7.008 -0.7356 -0.8687 -0.5084
  183MOL0     C24052   5.494   2.995   7.011 -0.1911  0.2656 -0.0507
  183MOL0     C24053   5.600   2.943   7.095 -0.5914 -0.0033  0.8890
  183MOL0     O24054   5.667   3.027   7.188  0.6129 -0.0763 -0.2393
  183MOL0     C24055   5.762   2.960   7.268 -0.0243 -0.4771 -0.9617
  183MOL0     C24056   5.879   2.895   7.215 -0.0185 -0.1514 -0.1750
  183MOL0     C24057   5.966   2.826   7.297 -0.0349  0.0978  0.3087
  183MOL0     C24058   5.938   2.835   7.440 -0.3361  0.4720 -0.2585
  183MOL0     O24059   6.028   2.762   7.517  0.1386 -0.1482  0.4433
  183MOL0     C24060   6.000   2.747   7.658 -0.4134 -1.0618 -0.1590
  183MOL0     C24061   6.111   2.670   7.723 -0.5216 -0.2562 -0.5984
  183MOL0     C24062   6.139   2.539   7.641 -0.0488  0.5925 -0.2728
  183MOL0     C24063   6.245   2.455   7.715  0.1523 -0.7675  0.7520
  183MOL0     C24064   6.234   2.310   7.677 -0.2462 -0.0206 -0.7867
  183MOL0     C24065   6.322   2.219   7.761 -0.2890 -0.4741 -0.2965
  183MOL0     C24066   6.291   2.071   7.728 -0.7411 -0.0830 -0.6143
  183MOL0     C24067   6.364   1.977   7.807 -0.5537 -0.6416  0.3705
  183MOL0    Cl24068   6.404   1.838   7.693  0.2481  0.3626  0.3081
  183MOL0     C24069   5.833   2.913   7.489 -0.1116 -0.4524  0.4283
  183MOL0     C24070   5.742   2.977   7.401 -0.4404  0.1705  0.5586
  183MOL0     O24071   5.628   2.826   7.068 -0.5566  0.1971  0.4840
  183MOL0     C24072   5.416   2.920   6.923 -0.0113  1.2970  0.2193
  183MOL0     C24073   5.325   2.974   6.832 -0.8495  0.3492  0.1820
  183MOL0     N24074   4.619   3.150   6.428  0.8292  0.1083 -0.8533
  183MOL0     N24075   4.519   3.204   6.494 -0.4672 -0.1733  0.2045
  183MOL0     C24076   5.169   2.824   7.186 -0.2031 -0.9804  0.0052
  183MOL0     C24077   5.268   2.726   7.224  0.3839 -0.4798 -0.4331
  183MOL0     C24078   5.637   2.497   7.310  0.1460  0.5101  0.4960
  183MOL0     C24079   5.680   2.524   7.440  0.6454 -0.0643  0.3879
  183MOL0     C24080   5.778   2.451   7.497  0.8436 -0.7966 -0.1535
  183MOL0     C24081   5.833   2.333   7.440 -0.5486 -1.0760 -0.3687
  183MOL0     O24082   5.924   2.266   7.516  0.4437 -0.0318 -0.1828
  183MOL0     C24083   5.937   2.125   7.491 -0.7937  0.7617  0.5858
  183MOL0     C24084   5.850   2.054   7.589 -0.6399 -0.2972 -0.2530
  183MOL0     C24085   5.915   1.911   7.639 -1.1984 -0.0480 -0.1417
  183MOL0     C24086   5.881   1.896   7.789 -0.6096 -0.8122  0.3466
  183MOL0     C24087   5.979   1.804   7.850  0.2276 -0.6601 -0.3500
  183MOL0     C24088   6.074   1.747   7.902 -0.1120  1.4294  0.2035
  183MOL0     C24089   5.792   2.312   7.309  0.2167 -0.0004  0.0196
  183MOL0     C24090   5.693   2.387   7.244  1.1678  1.0344 -0.3250
  183MOL0     H24091   5.488   2.945   7.365  2.4350 -4.5982  0.9538
  183MOL0     H24092   5.298   3.105   7.310  1.3517  0.7015 -0.4418
  183MOL0     H24093   5.117   3.186   7.056  0.3184 -3.0029 -0.0688
  183MOL0     H24094   5.166   3.231   7.219  2.9236 -0.8910 -1.9831
  183MOL0     H24095   4.978   3.365   7.207 -1.1796 -0.8648  3.3917
  183MOL0     H24096   4.897   3.222   7.274 -0.0235 -0.6959  0.0174
  183MOL0     H24097   4.861   3.148   7.051 -0.2715  0.5464  1.8790
  183MOL0     H24098   4.894   3.316   6.988  2.1490 -1.7212 -1.3973
  183MOL0     H24099   4.666   3.224   7.145 -3.1069 -0.8831 -3.1253
  183MOL0     H24100   4.715   3.387   7.175  1.1879 -0.5656 -0.2435
  183MOL0     H24101   4.724   3.410   6.922  1.0639  2.0552  3.9058
  183MOL0     H24102   4.568   3.421   6.997 -0.7101 -1.0065  0.1567
  183MOL0     H24103   4.586   3.146   6.934  2.1569  0.1048  1.1204
  183MOL0     H24104   4.672   3.228   6.804  0.4244  2.9504 -0.7383
  183MOL0     H24105   4.443   3.177   6.741  3.9891  0.5182 -2.7284
  183MOL0     H24106   4.386   3.314   6.855 -0.7624  1.7348 -1.9096
  183MOL0     H24107   4.513   3.465   6.704 -2.6735  0.0951  1.4135
  183MOL0     H24108   4.380   3.383   6.632 -1.1567  1.4553  2.1984
  183MOL0     H24109   4.780   3.383   6.587  0.7660 -0.4705 -0.6150
  183MOL0     H24110   4.935   3.274   6.363  0.5542 -1.4591  0.6551
  183MOL0     H24111   4.841   3.146   6.280  3.4159 -0.7124 -0.3451
  183MOL0     H24112   5.049   3.073   6.392 -0.9248  2.4517 -0.8798
  183MOL0     H24113   4.911   3.024   6.505 -1.6357  0.1600  0.7383
  183MOL0     H24114   5.091   3.261   6.529  0.3583  1.2493 -1.1899
  183MOL0     H24115   4.952   3.220   6.632  1.1047 -2.0269  3.0715
  183MOL0     H24116   5.192   3.033   6.597 -0.9345  1.8456 -1.8412
  183MOL0     H24117   5.063   3.035   6.722  0.7773 -1.2885  0.2906
  183MOL0     H24118   5.372   3.296   6.891 -0.3288 -0.8279 -0.2730
  183MOL0     H24119   5.528   3.196   7.076 -1.2047 -1.6400  0.6061
  183MOL0     H24120   5.892   2.905   7.108  1.0585  2.1460  0.1077
  183MOL0     H24121   6.059   2.781   7.264  0.4854  0.6545  0.9900
  183MOL0     H24122   5.904   2.695   7.667 -0.8109 -0.0116  2.4006
  183MOL0     H24123   6.003   2.840   7.716  4.1753 -1.2886  0.3365
  183MOL0     H24124   6.073   2.641   7.821  0.1173  1.0929  0.0685
  183MOL0     H24125   6.201   2.732   7.736 -1.3126  0.8129 -0.0323
  183MOL0     H24126   6.163   2.560   7.536 -0.5742  2.8778 -0.0062
  183MOL0     H24127   6.049   2.477   7.645  1.8784 -2.3381 -0.0172
  183MOL0     H24128   6.344   2.495   7.691 -0.9282  0.0660 -3.0920
  183MOL0     H24129   6.223   2.477   7.819 -0.4439  1.0655  0.2701
  183MOL0     H24130   6.261   2.288   7.573 -4.9440 -1.1952 -1.9665
  183MOL0     H24131   6.127   2.287   7.681 -1.0395  3.1846 -1.1811
  183MOL0     H24132   6.297   2.223   7.868 -1.5784 -2.6437 -0.4619
  183MOL0     H24133   6.423   2.254   7.736  0.2617 -0.4379  1.7740
  183MOL0     H24134   6.187   2.040   7.728 -0.8440  0.2252  0.5098
  183MOL0     H24135   6.329   2.053   7.627 -1.2763 -1.8182 -0.5318
  183MOL0     H24136   6.325   1.941   7.903  1.0736  0.5917  1.5449
  183MOL0     H24137   6.456   2.027   7.839 -2.5780  1.5474  3.3516
  183MOL0     H24138   5.805   2.925   7.593 -2.1673  0.5663 -0.1790
  183MOL0     H24139   5.672   3.056   7.426  2.4367  2.7064  1.2619
  183MOL0     H24140   5.433   2.814   6.905 -1.0368  1.5777 -3.0684
  183MOL0     H24141   5.265   2.919   6.761 -0.9388  0.0474  0.4855
  183MOL0     H24142   5.088   2.792   7.121  1.8600 -3.4914 -1.5431
  183MOL0     H24143   5.266   2.630   7.174 -0.3697 -0.2766 -0.8033
  183MOL0     H24144   5.644   2.608   7.499  0.5358 -0.8828  1.5065
  183MOL0     H24145   5.811   2.486   7.594 -0.7065  0.8404 -0.1669
  183MOL0     H24146   6.040   2.095   7.514 -1.5499 -1.3972  1.4047
  183MOL0     H24147   5.918   2.106   7.385 -0.6483  1.8976  0.3426
  183MOL0     H24148   5.819   2.119   7.671 -2.5916  0.5970 -1.6253
  183MOL0     H24149   5.756   2.042   7.534  0.0406  0.7757 -1.7407
  183MOL0     H24150   6.024   1.910   7.626 -1.0534  1.2913  0.7496
  183MOL0     H24151   5.861   1.834   7.584 -0.2586 -1.4685  0.8737
  183MOL0     H24152   5.897   1.991   7.841  1.2919 -0.1313 -1.3130
  183MOL0     H24153   5.779   1.858   7.801  0.0172 -3.3432 -1.4900
  183MOL0     H24154   6.162   1.691   7.928 -0.6118  1.2018  1.4441
  183MOL0     H24155   5.837   2.229   7.255 -0.3806 -0.3562  0.0635
  183MOL0     H24156   5.670   2.381   7.138 -2.0984 -1.0293  0.3938
  184MOL0     O24157  10.815  11.183   2.613  0.3657  0.0982  0.0749
  184MOL0     C24158  10.756  11.288   2.583 -0.7642  0.0221  0.3911
  184MOL0     O24159  10.753  11.407   2.657 -0.5835 -0.3009 -0.0915
  184MOL0     C24160  10.821  11.421   2.777  1.0643  0.1490  0.0176
  184MOL0     C24161  10.740  11.473   2.886 -0.4041  0.2206  0.7434
  184MOL0     C24162  10.795  11.509   3.005 -0.8328 -0.0958 -0.8057
  184MOL0     C24163  10.928  11.475   3.025 -0.5653 -0.3739  0.4516
  184MOL0     O24164  10.998  11.497   3.149  0.7463  0.4489  0.3501
  184MOL0     C24165  11.059  11.629   3.168  0.8744  0.8450 -0.6364
  184MOL0     C24166  11.092  11.651   3.317 -0.2703 -0.4146  1.3038
  184MOL0     C24167  11.151  11.795   3.330  1.4004 -0.0889  0.3527
  184MOL0     C24168  11.208  11.811   3.465  0.0371 -0.0083  0.3521
  184MOL0     C24169  11.283  11.944   3.478  0.8399  0.7053  1.3996
  184MOL0     C24170  11.338  11.959   3.616  0.1325  0.2323  0.3059
  184MOL0     C24171  11.383  12.110   3.639  0.2983  0.2234 -0.0535
  184MOL0     C24172  11.412  12.136   3.785 -0.2355 -0.9146 -0.1428
  184MOL0     N24173  11.495  12.257   3.802  0.4932 -0.8605 -0.5534
  184MOL0     C24174  11.441  12.378   3.849  0.7035 -0.3232  0.2272
  184MOL0     C24175  11.544  12.461   3.870 -0.5842 -0.1988  0.0383
  184MOL0     C24176  11.527  12.591   3.939 -0.1159 -0.3171  0.9357
  184MOL0     C24177  11.622  12.614   4.052  1.0375 -0.1057 -0.0632
  184MOL0     C24178  11.753  12.674   3.989  0.3114 -0.7552  0.1554
  184MOL0     C24179  11.857  12.679   4.100 -0.4395  0.2724 -0.2250
  184MOL0     O24180  11.830  12.768   4.206  0.5787  0.3057  0.5160
  184MOL0     C24181  11.924  12.823   4.281 -0.3879  0.0797  0.1010
  184MOL0     C24182  11.887  12.899   4.390 -0.4519  0.1063  0.3893
  184MOL0     C24183  11.985  12.967   4.474  0.4103  0.1172  0.9820
  184MOL0     C24184  12.121  12.946   4.449 -0.1857 -0.1718 -0.3889
  184MOL0     C24185  12.224  13.012   4.521  0.2689 -0.7096 -0.2410
  184MOL0     O24186  12.352  12.963   4.491 -0.6234 -0.8388  0.1017
  184MOL0     C24187  12.472  13.013   4.541 -0.6892  0.0093 -0.2277
  184MOL0     C24188  12.505  13.147   4.523 -0.1323  0.2349 -0.2296
  184MOL0     C24189  12.623  13.200   4.572 -0.1736  0.1977  0.7280
  184MOL0     C24190  12.712  13.120   4.640 -0.7974  1.0347  0.5273
  184MOL0     O24191  12.830  13.173   4.688 -0.9557  0.5764 -0.4999
  184MOL0     C24192  12.904  13.289   4.638  0.9852 -0.5682  0.0979
  184MOL0     C24193  13.050  13.274   4.669 -0.7329  0.9417  0.4208
  184MOL0     C24194  13.144  13.366   4.573 -0.1438  0.0091  0.2546
  184MOL0     C24195  13.303  13.348   4.613 -0.1739 -0.3355 -0.8082
  184MOL0     C24196  13.341  13.365   4.765 -0.6811  0.2103  1.0386
  184MOL0     C24197  13.502  13.380   4.770  0.1876  0.1286  0.7647
  184MOL0     C24198  13.580  13.249   4.727 -0.9843 -0.0672  0.7109
  184MOL0     C24199  13.730  13.261   4.761  0.3056 -0.6186 -0.9436
  184MOL0    Cl24200  13.817  13.110   4.805  0.1124  0.3655 -0.5938
  184MOL0     C24201  12.671  12.986   4.666 -0.4878 -0.0126  0.6667
  184MOL0     C24202  12.556  12.930   4.615  1.1745  0.8169  0.3242
  184MOL0     O24203  12.201  13.120   4.591 -0.8107  0.1423 -0.2412
  184MOL0     C24204  12.157  12.870   4.344  0.2886 -0.1987  0.2644
  184MOL0     C24205  12.066  12.808   4.257  0.5412  0.0747 -0.2548
  184MOL0     N24206  11.661  12.389   3.840 -0.1325  0.3252  0.5505
  184MOL0     N24207  11.628  12.264   3.822 -0.2673  0.7403  0.1414
  184MOL0     C24208  11.005  11.412   2.920  0.3697 -0.0153  0.1997
  184MOL0     C24209  10.957  11.386   2.794  0.3036 -0.8308 -0.2143
  184MOL0     C24210  10.692  11.274   2.452 -0.0968 -0.1448 -0.0419
  184MOL0     C24211  10.662  11.153   2.400 -0.0448  0.0518 -0.3374
  184MOL0     C24212  10.601  11.144   2.277  0.0070  0.1768  0.8562
  184MOL0     C24213  10.560  11.257   2.210 -1.1312  0.0526 -0.3671
  184MOL0     O24214  10.497  11.254   2.084 -0.5328  0.5294 -0.8784
  184MOL0     C24215  10.499  11.141   1.997  0.4586 -0.7872 -0.9329
  184MOL0     C24216  10.385  11.048   2.037  0.4591  0.4432  0.6802
  184MOL0     C24217  10.255  11.060   1.957  0.6931  0.9093 -0.6087
  184MOL0     C24218  10.137  10.991   2.023 -0.3161 -1.0354 -0.1753
  184MOL0     C24219  10.138  10.847   2.025  0.0853 -0.1447  0.0070
  184MOL0     C24220  10.166  10.729   2.051  0.0361 -0.9736 -0.9909
  184MOL0     C24221  10.593  11.379   2.265  0.8490 -0.5869  0.2886
  184MOL0     C24222  10.658  11.391   2.381 -0.6184  0.2582 -0.2267
  184MOL0     H24223  10.632  11.480   2.876 -0.6471 -4.0936 -2.3241
  184MOL0     H24224  10.748  11.548   3.094  2.7887 -0.1204  1.3414
  184MOL0     H24225  10.975  11.691   3.137 -0.3269 -1.6391 -2.6624
  184MOL0     H24226  11.149  11.646   3.108  0.5276  2.5687 -0.7280
  184MOL0     H24227  11.161  11.582   3.368  0.8045  1.0396  1.8851
  184MOL0     H24228  11.000  11.635   3.375 -0.4888 -0.4460  0.9494
  184MOL0     H24229  11.079  11.877   3.322  3.1735  1.3842 -1.6911
  184MOL0     H24230  11.228  11.822   3.257  1.3557 -0.3675  0.2016
  184MOL0     H24231  11.129  11.813   3.541  1.1388  2.3779  1.5368
  184MOL0     H24232  11.266  11.722   3.490  1.9953  1.0243 -0.3028
  184MOL0     H24233  11.203  12.015   3.452  0.1390 -1.2138 -2.5390
  184MOL0     H24234  11.362  11.954   3.402  0.5797 -3.2617  0.4209
  184MOL0     H24235  11.416  11.886   3.637  0.1373 -0.5303 -2.0260
  184MOL0     H24236  11.255  11.941   3.686  0.6183  0.3442  0.9140
  184MOL0     H24237  11.469  12.126   3.573  1.1337  0.2147  1.0152
  184MOL0     H24238  11.307  12.183   3.610  3.1658  3.0324 -1.1499
  184MOL0     H24239  11.462  12.052   3.835 -0.7449 -0.8935  0.4126
  184MOL0     H24240  11.317  12.159   3.835  0.9924 -1.6304  2.7216
  184MOL0     H24241  11.339  12.393   3.883  0.2811  1.5701 -1.6161
  184MOL0     H24242  11.423  12.597   3.974 -0.7357  0.9094 -0.9041
  184MOL0     H24243  11.535  12.671   3.864  3.4819 -1.1796  0.2473
  184MOL0     H24244  11.628  12.518   4.105  0.3512  0.8757  1.8950
  184MOL0     H24245  11.571  12.672   4.129  1.5525  0.0028  0.2054
  184MOL0     H24246  11.792  12.615   3.906  2.6798 -1.6065  1.7622
  184MOL0     H24247  11.732  12.772   3.946 -3.0840 -2.9273 -3.8739
  184MOL0     H24248  11.953  12.697   4.051 -1.0047 -0.9581 -1.8843
  184MOL0     H24249  11.860  12.576   4.137 -2.5504  0.4489  0.6029
  184MOL0     H24250  11.782  12.914   4.412 -0.1339  3.3686  0.2410
  184MOL0     H24251  11.943  13.036   4.547 -1.9469 -0.9947  0.7556
  184MOL0     H24252  12.444  13.203   4.454 -1.9722 -3.5360 -1.9145
  184MOL0     H24253  12.645  13.305   4.557  0.9944 -0.0056  0.9190
  184MOL0     H24254  12.864  13.372   4.698 -0.4393 -1.4059  0.3640
  184MOL0     H24255  12.872  13.315   4.536 -2.6311 -0.5309  1.1084
  184MOL0     H24256  13.073  13.168   4.656  0.8271  1.3480 -0.4228
  184MOL0     H24257  13.073  13.289   4.775  0.4407 -1.9108  0.6634
  184MOL0     H24258  13.130  13.475   4.578  4.5134  0.7824  1.6804
  184MOL0     H24259  13.133  13.340   4.467 -1.1346  0.7798  0.1479
  184MOL0     H24260  13.325  13.244   4.589  1.3514 -0.0346 -0.8009
  184MOL0     H24261  13.365  13.414   4.551  0.3653  0.9010  0.9631
  184MOL0     H24262  13.292  13.280   4.814 -0.0314 -1.1893 -0.6280
  184MOL0     H24263  13.300  13.459   4.805 -1.4876 -1.7763  5.4370
  184MOL0     H24264  13.529  13.410   4.871  0.2152 -0.0175  0.8003
  184MOL0     H24265  13.538  13.465   4.711  2.2441 -0.3622  1.2256
  184MOL0     H24266  13.538  13.172   4.793  0.6335 -0.5157  1.2729
  184MOL0     H24267  13.564  13.235   4.620  1.4554 -0.4377  0.3428
  184MOL0     H24268  13.737  13.330   4.846  0.0887 -2.7204  0.8771
  184MOL0     H24269  13.775  13.316   4.677 -1.6520 -1.8399 -2.8912
  184MOL0     H24270  12.741  12.927   4.725  4.2283 -0.1421 -4.1958
  184MOL0     H24271  12.528  12.825   4.618  3.5124  0.0130 -1.7049
  184MOL0     H24272  12.259  12.850   4.312  0.3852 -1.1695  1.1213
  184MOL0     H24273  12.106  12.745   4.178  2.3100  3.8796 -2.7362
  184MOL0     H24274  11.107  11.386   2.947 -0.1885 -1.5764  0.9065
  184MOL0     H24275  11.014  11.339   2.714 -0.6168 -1.8075 -0.3120
  184MOL0     H24276  10.690  11.061   2.451 -0.7465  0.5219  0.9391
  184MOL0     H24277  10.589  11.050   2.224 -1.8880  1.6765 -1.6214
  184MOL0     H24278  10.594  11.087   1.992  0.0627 -1.6106  0.0526
  184MOL0     H24279  10.472  11.176   1.897  1.6536 -0.0371 -1.0018
  184MOL0     H24280  10.426  10.947   2.028  3.7080  1.5191  1.9838
  184MOL0     H24281  10.351  11.058   2.141  1.6395  0.5520  1.0642
  184MOL0     H24282  10.270  11.006   1.863 -1.0264 -1.2098  0.2502
  184MOL0     H24283  10.235  11.167   1.943  1.7269  0.9185 -2.2606
  184MOL0     H24284  10.125  11.035   2.122  3.1724  0.3743 -0.2617
  184MOL0     H24285  10.059  11.031   1.957 -0.0821  1.2695  0.8637
  184MOL0     H24286  10.204  10.633   2.082  0.3699 -0.7107 -0.5745
  184MOL0     H24287  10.562  11.468   2.211  0.9800 -1.5117 -1.3774
  184MOL0     H24288  10.672  11.494   2.412 -3.3572  0.7423 -0.3597
  185MOL0     O24289  10.726   2.649   6.868  0.0997  0.2972  0.0374
  185MOL0     C24290  10.774   2.702   6.766 -0.5315 -0.1099  0.7661
  185MOL0     O24291  10.723   2.708   6.639  1.0687  0.0089  0.2946
  185MOL0     C24292  10.603   2.650   6.601 -0.3293  0.9473 -1.3107
  185MOL0     C24293  10.539   2.720   6.506 -0.2340  0.0904  0.4772
  185MOL0     C24294  10.406   2.711   6.479  1.0335 -1.1425 -0.7403
  185MOL0     C24295  10.332   2.616   6.556 -0.3155  1.2967 -0.2743
  185MOL0     O24296  10.196   2.610   6.543  0.0447 -0.7443 -0.0982
  185MOL0     C24297  10.124   2.516   6.612 -0.2850 -0.4487  0.2279
  185MOL0     C24298   9.987   2.516   6.549  0.0548 -0.5073 -0.0649
  185MOL0     C24299   9.887   2.420   6.621 -0.9083  0.2922 -0.3370
  185MOL0     C24300   9.743   2.422   6.554 -0.8104 -0.3868  0.0511
  185MOL0     C24301   9.661   2.311   6.619  0.4079  0.3069 -1.0008
  185MOL0     C24302   9.524   2.298   6.544 -0.5280  0.0025 -0.1655
  185MOL0     C24303   9.424   2.221   6.638 -0.6664 -0.4616  0.5657
  185MOL0     C24304   9.447   2.071   6.664 -0.5360  1.1739  0.7871
  185MOL0     N24305   9.337   2.001   6.729 -0.1333 -0.7515 -0.2619
  185MOL0     C24306   9.352   1.912   6.833  0.2873 -0.5287 -0.2207
  185MOL0     C24307   9.219   1.886   6.863 -0.8470  0.4493  0.5390
  185MOL0     C24308   9.169   1.804   6.978  0.9503 -0.3286 -0.1471
  185MOL0     C24309   9.202   1.647   6.962  0.0021  0.7542  1.2529
  185MOL0     C24310   9.100   1.568   6.878 -0.5093 -0.0641 -0.4603
  185MOL0     C24311   9.077   1.442   6.961 -0.4460 -0.6738 -0.0293
  185MOL0     O24312   9.196   1.361   6.954  0.4354 -1.0568 -0.4731
  185MOL0     C24313   9.180   1.228   6.979 -0.4403  1.0712  0.2044
  185MOL0     C24314   9.211   1.138   6.871  0.1631 -0.1225 -0.0653
  185MOL0     C24315   9.204   0.999   6.894  0.4280 -0.0175 -0.5466
  185MOL0     C24316   9.169   0.960   7.023 -0.0173 -0.1623  0.2166
  185MOL0     C24317   9.169   0.811   7.053 -0.0246 -0.7140 -0.1429
  185MOL0     O24318   9.145   0.774   7.188  0.3785 -0.2106  0.4155
  185MOL0     C24319   9.147   0.638   7.221  0.5542  0.5406  0.7975
  185MOL0     C24320   9.055   0.548   7.172  0.4660 -0.3902  0.0637
  185MOL0     C24321   9.058   0.414   7.210  0.6601 -0.8740 -0.1532
  185MOL0     C24322   9.148   0.368   7.305 -0.0419  0.7331  0.0072
  185MOL0     O24323   9.150   0.244   7.355  0.0104  0.9304  0.3541
  185MOL0     C24324   9.067   0.134   7.319  1.0238 -0.4223 -0.1806
  185MOL0     C24325   9.083   0.016   7.414 -0.2768 -0.1045 -0.2171
  185MOL0     C24326   9.214  -0.058   7.369 -0.3373 -0.1402  0.0193
  185MOL0     C24327   9.249  -0.166   7.471 -1.3680 -0.1612 -0.1500
  185MOL0     C24328   9.145  -0.277   7.473 -0.7659  0.3353 -0.2913
  185MOL0     C24329   9.109  -0.340   7.336  0.9328 -0.3379 -0.2928
  185MOL0     C24330   9.000  -0.451   7.339 -0.2459  0.4595  0.5359
  185MOL0     C24331   8.863  -0.400   7.374  0.2038  0.2181  1.2231
  185MOL0    Cl24332   8.813  -0.295   7.242  0.1570  0.0328 -0.1850
  185MOL0     C24333   9.244   0.458   7.366  1.2270 -0.0597 -0.1029
  185MOL0     C24334   9.241   0.599   7.317 -1.1596 -0.0578 -0.4649
  185MOL0     O24335   9.188   0.724   6.963 -0.2636  0.0231 -1.0068
  185MOL0     C24336   9.140   1.045   7.134  0.3045 -0.5617  0.2812
  185MOL0     C24337   9.151   1.180   7.102 -0.7293  0.5648 -0.6736
  185MOL0     N24338   9.134   1.949   6.781 -0.1157  0.3623 -0.1197
  185MOL0     N24339   9.204   2.016   6.699  0.2661  0.6457 -0.4739
  185MOL0     C24340  10.400   2.530   6.647  0.2678  0.9248 -0.1849
  185MOL0     C24341  10.534   2.545   6.670  0.1849 -0.3578 -0.1899
  185MOL0     C24342  10.909   2.750   6.780 -0.5608 -0.5788 -0.6330
  185MOL0     C24343  10.998   2.715   6.885 -0.9330  0.3253  0.7088
  185MOL0     C24344  11.134   2.763   6.895  1.2805 -0.2666 -0.6463
  185MOL0     C24345  11.179   2.853   6.799 -0.4716  0.1014  0.4361
  185MOL0     O24346  11.308   2.909   6.809 -0.5790 -0.3664  0.1452
  185MOL0     C24347  11.381   2.900   6.691  0.2075 -0.5573  0.3337
  185MOL0     C24348  11.526   2.894   6.733  0.4489 -0.1143  0.1708
  185MOL0     C24349  11.609   2.888   6.612 -0.6392 -0.9819 -0.0465
  185MOL0     C24350  11.758   2.862   6.644  0.3196 -0.0186  1.5861
  185MOL0     C24351  11.832   2.809   6.521 -0.0596 -0.2454 -0.9196
  185MOL0     C24352  11.884   2.752   6.429 -0.7927  1.0362 -0.4447
  185MOL0     C24353  11.099   2.881   6.685  0.7713  0.0247 -0.8424
  185MOL0     C24354  10.962   2.845   6.684  0.6585  0.2851  0.0127
  185MOL0     H24355  10.591   2.796   6.449 -1.4824 -0.0380 -0.8856
  185MOL0     H24356  10.354   2.772   6.406  0.1172 -3.9550 -2.6208
  185MOL0     H24357  10.109   2.562   6.710 -1.1679  0.5331 -0.3468
  185MOL0     H24358  10.160   2.413   6.622 -1.9590 -0.9677  1.2582
  185MOL0     H24359  10.006   2.505   6.442 -0.3382 -0.3947 -0.1490
  185MOL0     H24360   9.965   2.621   6.574  1.5050 -0.3708  0.7436
  185MOL0     H24361   9.878   2.443   6.727 -0.2503 -2.4698  0.4052
  185MOL0     H24362   9.934   2.322   6.605 -0.2856  0.3667  0.9569
  185MOL0     H24363   9.695   2.521   6.554 -0.9381 -0.4076 -1.6784
  185MOL0     H24364   9.759   2.398   6.448 -1.1351  1.1061 -0.3677
  185MOL0     H24365   9.648   2.346   6.722 -0.2898  2.7524 -1.8549
  185MOL0     H24366   9.706   2.211   6.618 -1.6531 -0.6982 -2.9082
  185MOL0     H24367   9.540   2.245   6.449  3.9713  6.4258 -3.7862
  185MOL0     H24368   9.493   2.400   6.522  1.1443  0.7631  0.8550
  185MOL0     H24369   9.432   2.269   6.736  1.5357  1.7202 -0.5764
  185MOL0     H24370   9.323   2.232   6.596 -1.5070 -0.8636  2.3913
  185MOL0     H24371   9.530   2.049   6.731 -2.0454 -1.6643  1.9029
  185MOL0     H24372   9.464   2.031   6.563 -0.3243  0.6744  1.0206
  185MOL0     H24373   9.444   1.868   6.870  0.8517  0.9506  0.1948
  185MOL0     H24374   9.062   1.823   6.988  0.7039 -1.8664  0.4925
  185MOL0     H24375   9.199   1.839   7.078  1.2215 -2.9115  0.7660
  185MOL0     H24376   9.211   1.599   7.060  3.4877  0.2309  0.7957
  185MOL0     H24377   9.297   1.637   6.910  1.1087  5.1637  2.0047
  185MOL0     H24378   9.003   1.619   6.873  1.1230  3.1711 -3.3556
  185MOL0     H24379   9.131   1.529   6.781 -0.6198 -0.9521 -0.1469
  185MOL0     H24380   8.992   1.381   6.926 -0.8965 -0.6278  0.9457
  185MOL0     H24381   9.051   1.474   7.062 -0.5611  3.3399 -1.1761
  185MOL0     H24382   9.244   1.192   6.783 -1.1562  1.3737  0.3134
  185MOL0     H24383   9.228   0.924   6.820 -0.9439 -0.4182 -0.6165
  185MOL0     H24384   8.983   0.577   7.097  0.8992 -3.4321 -1.6751
  185MOL0     H24385   8.990   0.346   7.160  0.8165  0.1444 -1.8241
  185MOL0     H24386   9.093   0.094   7.221  1.1740  0.0209 -0.3219
  185MOL0     H24387   8.968   0.179   7.314  0.1412 -2.2552  0.0996
  185MOL0     H24388   8.997  -0.049   7.398  1.1554 -2.2059  0.0876
  185MOL0     H24389   9.079   0.049   7.518  0.1572 -1.7391  0.3551
  185MOL0     H24390   9.299   0.011   7.367  0.3794 -0.9835  0.3811
  185MOL0     H24391   9.206  -0.100   7.269  3.4598  1.3755 -1.1170
  185MOL0     H24392   9.344  -0.202   7.428 -0.3359  0.6746  1.3629
  185MOL0     H24393   9.273  -0.122   7.568 -0.8865  1.1512 -0.8426
  185MOL0     H24394   9.061  -0.241   7.534  0.4064 -1.5524  2.6958
  185MOL0     H24395   9.194  -0.355   7.532 -1.4954 -0.6994 -1.0144
  185MOL0     H24396   9.203  -0.384   7.300  1.0579  0.5451 -1.0966
  185MOL0     H24397   9.069  -0.265   7.266 -0.0651  0.6003  1.2336
  185MOL0     H24398   8.998  -0.484   7.235 -0.7703  3.8760 -0.6707
  185MOL0     H24399   9.032  -0.534   7.403  1.3517  1.3913  1.0137
  185MOL0     H24400   8.870  -0.343   7.467  0.9291 -0.4448  1.5859
  185MOL0     H24401   8.784  -0.475   7.388  1.3352 -1.8043 -1.9440
  185MOL0     H24402   9.300   0.419   7.450 -2.0313 -0.9954  1.8125
  185MOL0     H24403   9.317   0.668   7.353 -1.8907  1.7392 -2.2036
  185MOL0     H24404   9.136   1.011   7.238  2.2438 -1.1220  0.2186
  185MOL0     H24405   9.126   1.246   7.185 -0.8690 -0.3175  0.0031
  185MOL0     H24406  10.357   2.450   6.706  2.2952 -0.3086 -0.2867
  185MOL0     H24407  10.594   2.475   6.728 -0.2741  0.9116  1.9517
  185MOL0     H24408  10.965   2.651   6.965  2.3654  0.9075  2.7277
  185MOL0     H24409  11.201   2.733   6.975 -0.0417  2.0324  1.4555
  185MOL0     H24410  11.359   2.987   6.628 -2.4219 -2.4278 -1.5590
  185MOL0     H24411  11.358   2.814   6.627  3.2100  0.1782 -1.9933
  185MOL0     H24412  11.537   2.982   6.796 -0.6564  0.5371 -0.5061
  185MOL0     H24413  11.549   2.809   6.797  4.9064  0.8516  0.1981
  185MOL0     H24414  11.611   2.976   6.548 -2.1547 -2.2654 -1.9596
  185MOL0     H24415  11.571   2.807   6.549  0.2107 -1.4791  0.0543
  185MOL0     H24416  11.811   2.957   6.661  1.4441 -0.3576  0.1796
  185MOL0     H24417  11.764   2.806   6.738 -2.1506  2.0549  3.1235
  185MOL0     H24418  11.960   2.709   6.366 -1.8463  1.0567 -1.7771
  185MOL0     H24419  11.135   2.940   6.601  2.3637  1.8129  0.9895
  185MOL0     H24420  10.910   2.886   6.598  3.0197  2.7382 -0.3957
  186MOL0     O24421   9.333   4.056   2.906 -0.2943  0.2473  0.4730
  186MOL0     C24422   9.416   4.056   2.811  0.0788  0.7432  0.4457
  186MOL0     O24423   9.473   4.156   2.751  0.3871  0.2134 -0.2548
  186MOL0     C24424   9.453   4.293   2.795  0.2839 -0.1275 -0.4664
  186MOL0     C24425   9.461   4.393   2.703  0.1598  0.4584  1.0324
  186MOL0     C24426   9.438   4.525   2.738  0.2158  0.1119 -0.3165
  186MOL0     C24427   9.424   4.557   2.880 -0.1800 -0.9891  0.0061
  186MOL0     O24428   9.404   4.680   2.933 -0.3068  0.1941 -0.5371
  186MOL0     C24429   9.383   4.795   2.848  0.5678 -0.0448  0.0243
  186MOL0     C24430   9.372   4.927   2.923  0.2988  0.3035  0.0581
  186MOL0     C24431   9.508   4.984   2.969 -0.7752 -0.2536 -1.0846
  186MOL0     C24432   9.561   5.065   2.850  0.2469 -0.6927 -0.0992
  186MOL0     C24433   9.692   5.149   2.891 -0.0311 -1.1787  0.0038
  186MOL0     C24434   9.788   5.073   2.964 -1.2580  0.4849 -0.4186
  186MOL0     C24435   9.929   5.136   2.984  0.7290  0.4232  0.8128
  186MOL0     C24436   9.997   5.063   3.106 -0.2539  0.2546 -0.4958
  186MOL0     N24437  10.048   4.937   3.063 -0.2953  0.6541 -0.3898
  186MOL0     C24438  10.145   4.924   2.968 -0.2978  0.1679  0.4912
  186MOL0     C24439  10.147   4.791   2.941  0.8038  0.1031  0.6711
  186MOL0     C24440  10.258   4.724   2.864  0.8640  0.2584  0.2927
  186MOL0     C24441  10.392   4.753   2.926 -0.0577 -0.2387 -0.9358
  186MOL0     C24442  10.506   4.669   2.895 -0.0452  0.4687  0.7207
  186MOL0     C24443  10.523   4.619   2.739  0.3814 -1.1042 -0.1752
  186MOL0     O24444  10.403   4.552   2.694 -0.1125  0.0875  0.5035
  186MOL0     C24445  10.388   4.515   2.562  0.5482  0.3705  1.1001
  186MOL0     C24446  10.470   4.554   2.461  1.4425 -1.4725 -0.1286
  186MOL0     C24447  10.454   4.514   2.330  0.1563  1.4551 -0.3081
  186MOL0     C24448  10.345   4.430   2.294  0.5046  0.3591 -0.4931
  186MOL0     C24449  10.363   4.355   2.169 -0.8511 -0.3958  0.0562
  186MOL0     O24450  10.262   4.279   2.134  0.5883  0.0129  0.6361
  186MOL0     C24451  10.292   4.187   2.034  0.1067 -0.3081 -1.0717
  186MOL0     C24452  10.303   4.221   1.897 -0.4576  0.3063  0.3350
  186MOL0     C24453  10.310   4.124   1.794 -0.5878  0.3195  0.5063
  186MOL0     C24454  10.317   3.986   1.831  0.8895  0.1370 -0.6443
  186MOL0     O24455  10.324   3.879   1.749 -0.3902  0.4989  0.0945
  186MOL0     C24456  10.238   3.855   1.642 -0.5883 -0.2278  0.5047
  186MOL0     C24457  10.331   3.780   1.540 -0.2217 -0.3771 -0.3255
  186MOL0     C24458  10.369   3.643   1.593 -0.2646 -0.9035  0.7721
  186MOL0     C24459  10.261   3.538   1.560  1.0877 -0.0137 -0.6223
  186MOL0     C24460  10.263   3.506   1.409 -0.5495  0.7624  0.5935
  186MOL0     C24461  10.388   3.411   1.364 -0.3929 -0.3383 -0.6497
  186MOL0     C24462  10.402   3.285   1.443 -0.5078  0.7695 -0.7235
  186MOL0     C24463  10.399   3.157   1.371 -0.2489  0.5384  0.9775
  186MOL0    Cl24464  10.423   3.022   1.485  0.4636  0.0829 -0.3333
  186MOL0     C24465  10.314   3.954   1.970  0.3951 -0.1982  0.5995
  186MOL0     C24466  10.298   4.053   2.066 -0.7733  0.5051 -0.5000
  186MOL0     O24467  10.474   4.365   2.103 -0.4655  0.4870  1.2068
  186MOL0     C24468  10.250   4.396   2.396 -0.3074  0.4422  0.2757
  186MOL0     C24469  10.274   4.437   2.529  0.3755 -0.1937  0.2804
  186MOL0     N24470  10.056   4.723   3.025  0.2355  1.1171  0.5828
  186MOL0     N24471  10.003   4.818   3.098 -0.3480  0.9363  0.3542
  186MOL0     C24472   9.425   4.458   2.975  0.9489  0.3122 -0.0047
  186MOL0     C24473   9.434   4.328   2.928  0.5684  0.9201  0.2937
  186MOL0     C24474   9.441   3.928   2.747 -0.5894 -0.0762 -0.7859
  186MOL0     C24475   9.535   3.904   2.649 -0.4204  0.8708  1.0491
  186MOL0     C24476   9.550   3.775   2.583 -0.1088  0.2828  0.3290
  186MOL0     C24477   9.479   3.661   2.635  0.4894  0.2961  0.0928
  186MOL0     O24478   9.471   3.528   2.594 -0.2824  0.0132  0.9408
  186MOL0     C24479   9.569   3.476   2.506 -0.2556 -0.6790  0.3148
  186MOL0     C24480   9.503   3.346   2.453  0.7447 -0.5724 -1.1056
  186MOL0     C24481   9.584   3.219   2.476  0.1672  0.1740 -0.2331
  186MOL0     C24482   9.543   3.118   2.359  0.1028 -0.0267 -0.1170
  186MOL0     C24483   9.635   3.121   2.248 -0.2352 -1.3932  0.1646
  186MOL0     C24484   9.705   3.131   2.146  0.1658  0.5690 -0.1678
  186MOL0     C24485   9.400   3.688   2.743 -0.1052 -0.5510 -0.4286
  186MOL0     C24486   9.382   3.814   2.801  0.8449  0.1947  0.1880
  186MOL0     H24487   9.470   4.357   2.601 -2.1018 -2.6440  1.7645
  186MOL0     H24488   9.463   4.599   2.663  2.6067 -0.6403 -0.3633
  186MOL0     H24489   9.286   4.774   2.801  0.2466  0.7152  0.3465
  186MOL0     H24490   9.468   4.804   2.779  1.1735  1.9388  0.9563
  186MOL0     H24491   9.326   4.905   3.020  1.6750  0.8507  0.8528
  186MOL0     H24492   9.304   4.994   2.869  0.8748 -0.0026 -1.0726
  186MOL0     H24493   9.571   4.909   3.018 -0.4845  2.1339  2.6620
  186MOL0     H24494   9.480   5.056   3.047 -2.6529  1.1489 -2.9419
  186MOL0     H24495   9.580   4.992   2.771 -0.4520  1.0826 -2.0148
  186MOL0     H24496   9.488   5.136   2.810  0.0518 -0.7674  0.1244
  186MOL0     H24497   9.660   5.229   2.959 -3.3107 -1.7210 -0.6969
  186MOL0     H24498   9.739   5.186   2.799  1.0163 -4.3999 -0.8811
  186MOL0     H24499   9.811   4.972   2.928  2.1842  0.4537  1.3810
  186MOL0     H24500   9.747   5.055   3.064  2.4811  3.3380  1.9342
  186MOL0     H24501   9.984   5.119   2.891  0.2471  0.9426  0.4254
  186MOL0     H24502   9.906   5.242   2.996  0.7547  0.8891 -2.3966
  186MOL0     H24503   9.924   5.052   3.187 -0.3158 -0.5049 -0.6515
  186MOL0     H24504  10.078   5.125   3.145  1.6346 -2.5598  0.3065
  186MOL0     H24505  10.203   5.003   2.920  0.6864  0.5979  2.2863
  186MOL0     H24506  10.266   4.762   2.762  3.4486 -3.7682 -1.2422
  186MOL0     H24507  10.235   4.618   2.864 -0.0209  0.4399 -0.7055
  186MOL0     H24508  10.373   4.746   3.034  2.5580  1.2355 -0.2947
  186MOL0     H24509  10.423   4.855   2.906  2.0177 -1.0376 -2.1108
  186MOL0     H24510  10.593   4.718   2.940  1.9295 -2.8854  0.8995
  186MOL0     H24511  10.506   4.585   2.966  2.6305 -0.3881 -0.1679
  186MOL0     H24512  10.615   4.560   2.738 -0.0463 -1.8584 -3.1937
  186MOL0     H24513  10.531   4.714   2.685 -1.1118  0.6342  2.4083
  186MOL0     H24514  10.555   4.618   2.480 -1.5788  2.3496  2.0896
  186MOL0     H24515  10.533   4.549   2.266  1.3587  1.5285  1.1694
  186MOL0     H24516  10.301   4.322   1.857 -1.2037  0.1207 -0.0991
  186MOL0     H24517  10.320   4.140   1.687 -3.3299 -1.0183 -0.0324
  186MOL0     H24518  10.220   3.952   1.594 -0.4376 -1.3282 -1.9628
  186MOL0     H24519  10.147   3.798   1.662 -0.4081 -1.6835 -2.2820
  186MOL0     H24520  10.419   3.844   1.538  0.7555 -1.5425  1.5851
  186MOL0     H24521  10.286   3.789   1.441 -0.4137  0.0864 -0.1984
  186MOL0     H24522  10.394   3.652   1.699  1.1283  0.3426  0.3724
  186MOL0     H24523  10.467   3.619   1.551 -0.5711  1.9873 -2.0324
  186MOL0     H24524  10.276   3.454   1.627 -2.0477 -1.0256 -1.0157
  186MOL0     H24525  10.164   3.584   1.583  0.4035 -1.8123  0.2392
  186MOL0     H24526  10.258   3.600   1.353 -0.5829  1.3251  1.5125
  186MOL0     H24527  10.167   3.457   1.389 -0.1293 -0.3578  1.2087
  186MOL0     H24528  10.480   3.470   1.359  1.7159 -3.2876  0.6065
  186MOL0     H24529  10.372   3.372   1.263  1.0714  0.1103 -1.0753
  186MOL0     H24530  10.490   3.307   1.504  0.9786 -1.0070 -2.1040
  186MOL0     H24531  10.319   3.272   1.513 -1.0602  1.7194 -1.1884
  186MOL0     H24532  10.474   3.161   1.292 -0.2499  2.8743  1.0399
  186MOL0     H24533  10.302   3.136   1.325 -1.4398 -0.3781  3.7050
  186MOL0     H24534  10.316   3.849   1.999 -0.5291 -0.6077 -0.7110
  186MOL0     H24535  10.294   4.014   2.168  3.7395  0.5335 -0.1127
  186MOL0     H24536  10.169   4.328   2.372  0.4887 -0.2506 -0.5372
  186MOL0     H24537  10.198   4.397   2.596  0.1269 -1.1847 -0.5723
  186MOL0     H24538   9.399   4.496   3.073 -0.0522 -0.7223  0.1551
  186MOL0     H24539   9.429   4.242   2.994  1.6582 -1.4186 -2.4579
  186MOL0     H24540   9.591   3.979   2.594 -1.8494  1.0384 -0.2554
  186MOL0     H24541   9.604   3.763   2.490  3.1532  2.0562  1.8320
  186MOL0     H24542   9.650   3.456   2.576 -1.3556 -2.7910  1.0742
  186MOL0     H24543   9.592   3.553   2.432  5.7525 -0.4000  1.9709
  186MOL0     H24544   9.398   3.341   2.483  1.1169 -1.3926  0.1091
  186MOL0     H24545   9.498   3.357   2.344  3.9245 -0.8434 -1.3659
  186MOL0     H24546   9.556   3.179   2.574  1.2211  0.4807  0.2071
  186MOL0     H24547   9.690   3.247   2.483 -0.1813  1.0763  2.9889
  186MOL0     H24548   9.557   3.020   2.405  2.1121  0.7548  1.0688
  186MOL0     H24549   9.439   3.126   2.326 -0.0355 -0.1640  0.2767
  186MOL0     H24550   9.754   3.122   2.051  0.7034 -0.3984  0.1905
  186MOL0     H24551   9.346   3.607   2.790 -2.1686  1.2958  0.5593
  186MOL0     H24552   9.312   3.822   2.884  3.4434  1.8157  2.3690
  187MOL0     O24553   7.978   6.920   2.430 -0.3463  0.0016  0.7573
  187MOL0     C24554   7.962   7.038   2.423 -0.4900 -0.3029 -0.0079
  187MOL0     O24555   7.942   7.125   2.533 -0.7421 -0.0353 -0.2315
  187MOL0     C24556   7.972   7.078   2.664 -0.3868 -0.4735  1.0239
  187MOL0     C24557   8.098   7.009   2.696 -0.0649 -0.7313  0.1772
  187MOL0     C24558   8.130   6.977   2.828  0.5708  0.1660 -0.6261
  187MOL0     C24559   8.041   7.023   2.931  0.6350 -0.3621  0.1139
  187MOL0     O24560   8.056   6.996   3.063 -0.0212  0.0176 -0.1724
  187MOL0     C24561   8.181   7.051   3.121  0.3422 -0.9760  0.1792
  187MOL0     C24562   8.142   7.162   3.223  0.7334 -0.8367 -0.1333
  187MOL0     C24563   8.057   7.115   3.342 -0.3293  1.6337 -0.4580
  187MOL0     C24564   7.986   7.223   3.417 -0.0329 -1.2400 -0.1399
  187MOL0     C24565   7.871   7.176   3.509  1.0475  0.9052  0.3779
  187MOL0     C24566   7.922   7.057   3.602 -0.4647 -0.3741  0.5783
  187MOL0     C24567   7.831   7.024   3.717  0.4542  0.8668 -0.2318
  187MOL0     C24568   7.872   7.107   3.842  0.5401  0.6421 -0.6230
  187MOL0     N24569   7.791   7.064   3.951 -0.3207  0.8478 -1.1243
  187MOL0     C24570   7.672   7.111   3.985 -0.0136  0.4252 -0.8559
  187MOL0     C24571   7.646   7.064   4.114 -0.0268 -0.4819  0.0160
  187MOL0     C24572   7.531   7.096   4.209 -0.5131 -0.5738  0.8264
  187MOL0     C24573   7.567   7.210   4.304  0.2103 -0.5200  0.2325
  187MOL0     C24574   7.614   7.335   4.224  0.2585  0.9163  0.7639
  187MOL0     C24575   7.664   7.444   4.312  0.1418 -0.6843  0.3898
  187MOL0     O24576   7.661   7.561   4.228 -0.5363  0.1922  0.3264
  187MOL0     C24577   7.776   7.612   4.169  0.0540  0.9549  0.7033
  187MOL0     C24578   7.909   7.553   4.166 -0.8888 -0.2881 -0.5806
  187MOL0     C24579   8.016   7.609   4.087 -0.1757  0.5188 -0.1064
  187MOL0     C24580   7.986   7.720   4.004  0.0694  0.0241 -0.4278
  187MOL0     C24581   8.088   7.783   3.917  0.0578 -0.3318  0.8226
  187MOL0     O24582   8.051   7.908   3.862  0.7811 -0.3461 -0.7857
  187MOL0     C24583   8.134   7.967   3.773 -0.2353 -0.0815  0.7799
  187MOL0     C24584   8.198   8.073   3.824  0.0383 -0.3801  0.8458
  187MOL0     C24585   8.292   8.145   3.747  1.0845  0.6343  0.2188
  187MOL0     C24586   8.315   8.105   3.622 -0.9236  0.1607  0.2571
  187MOL0     O24587   8.395   8.188   3.545  0.3382  0.1817  0.0750
  187MOL0     C24588   8.467   8.124   3.436 -1.0705 -0.9773  1.5221
  187MOL0     C24589   8.569   8.227   3.378 -0.0187  0.5797 -0.0777
  187MOL0     C24590   8.707   8.215   3.448 -1.1771  1.1934  1.0925
  187MOL0     C24591   8.810   8.312   3.397 -0.0994  0.3267 -0.5076
  187MOL0     C24592   8.886   8.280   3.273  0.0220  1.0409 -0.3836
  187MOL0     C24593   8.841   8.345   3.145  0.0914 -0.0707  0.1174
  187MOL0     C24594   8.935   8.311   3.024 -0.1021  0.0646 -0.6694
  187MOL0     C24595   8.879   8.365   2.882  0.0869  0.8768  0.0236
  187MOL0    Cl24596   8.949   8.524   2.837  0.0176  0.1315 -0.0862
  187MOL0     C24597   8.272   7.977   3.571  0.6860  0.5336  0.5009
  187MOL0     C24598   8.182   7.915   3.652 -0.0182  0.1339  0.3764
  187MOL0     O24599   8.203   7.732   3.907  0.2903  0.1222 -0.5123
  187MOL0     C24600   7.855   7.784   4.010 -0.1772 -0.9999  0.2556
  187MOL0     C24601   7.753   7.729   4.087  0.6402  0.8264 -0.4083
  187MOL0     N24602   7.745   6.984   4.143  0.9772 -0.4809 -0.4485
  187MOL0     N24603   7.826   6.982   4.051  0.1319  0.5448 -0.4890
  187MOL0     C24604   7.915   7.089   2.893 -1.1906  0.7862  0.8867
  187MOL0     C24605   7.881   7.093   2.768  0.5816  0.5702  0.0637
  187MOL0     C24606   7.941   7.091   2.285  0.6693  0.3020  0.6865
  187MOL0     C24607   7.955   7.224   2.257 -1.0649 -0.1220  0.2416
  187MOL0     C24608   7.943   7.266   2.125 -0.3969 -0.3540  0.4586
  187MOL0     C24609   7.902   7.184   2.022 -0.3951  1.3566  0.2331
  187MOL0     O24610   7.859   7.247   1.913  0.3433  0.5062 -0.0497
  187MOL0     C24611   7.780   7.177   1.816 -0.2202 -0.1172  0.4035
  187MOL0     C24612   7.636   7.167   1.876  0.1762 -0.6005  0.6345
  187MOL0     C24613   7.569   7.309   1.872 -0.4107  0.8278  0.3494
  187MOL0     C24614   7.422   7.312   1.923 -0.0117  0.3827  1.2645
  187MOL0     C24615   7.341   7.194   1.885 -0.2341  0.6335  0.3688
  187MOL0     C24616   7.278   7.091   1.867  0.6046 -0.7266  0.0815
  187MOL0     C24617   7.889   7.048   2.048  0.4108 -0.2017  0.7379
  187MOL0     C24618   7.904   7.001   2.181 -0.3636  0.4733  0.0887
  187MOL0     H24619   8.169   6.989   2.616 -0.5189  4.4274 -1.9070
  187MOL0     H24620   8.220   6.925   2.859 -0.3182 -0.2545  1.4790
  187MOL0     H24621   8.248   7.088   3.043 -0.0121  1.0579  0.7961
  187MOL0     H24622   8.244   6.976   3.170  1.4037 -1.2303 -1.5290
  187MOL0     H24623   8.082   7.234   3.168 -2.7187 -3.9164 -0.7469
  187MOL0     H24624   8.233   7.197   3.272  1.1781 -2.6152  0.3948
  187MOL0     H24625   8.127   7.058   3.403  0.3981  3.3520  0.3735
  187MOL0     H24626   7.978   7.047   3.308  1.3067  1.6054 -4.9354
  187MOL0     H24627   8.046   7.289   3.481  1.3928 -1.3973 -1.2541
  187MOL0     H24628   7.952   7.297   3.344  0.1098 -1.0927 -0.0592
  187MOL0     H24629   7.796   7.123   3.449  1.5534 -2.5782  2.5592
  187MOL0     H24630   7.821   7.257   3.563 -0.1625  2.3559 -2.6930
  187MOL0     H24631   8.017   7.096   3.640  0.7768 -2.3320 -0.3211
  187MOL0     H24632   7.948   6.963   3.552  1.1274 -3.1211  5.8658
  187MOL0     H24633   7.734   7.045   3.669  1.6080  0.1850 -3.0558
  187MOL0     H24634   7.841   6.915   3.723 -2.1471  0.4772 -1.3651
  187MOL0     H24635   7.859   7.214   3.823  1.1310  0.2109 -4.1744
  187MOL0     H24636   7.974   7.085   3.875 -0.3465 -0.1892  1.7536
  187MOL0     H24637   7.618   7.188   3.930 -2.4286 -1.1918 -0.8647
  187MOL0     H24638   7.504   7.002   4.258 -0.8572 -1.8441 -1.6654
  187MOL0     H24639   7.447   7.129   4.148  0.3286  0.3106  0.1228
  187MOL0     H24640   7.653   7.169   4.358 -0.1412 -1.9076 -0.1999
  187MOL0     H24641   7.486   7.245   4.368  0.9722  2.9198 -0.4955
  187MOL0     H24642   7.697   7.305   4.160 -1.8105  0.4533 -1.8854
  187MOL0     H24643   7.527   7.355   4.160  0.9441 -3.4260 -1.9900
  187MOL0     H24644   7.753   7.433   4.375  0.4340 -1.3442 -0.1259
  187MOL0     H24645   7.582   7.459   4.383 -0.3364 -2.5797  0.2825
  187MOL0     H24646   7.922   7.454   4.207 -1.5245  0.2326  0.9694
  187MOL0     H24647   8.110   7.555   4.094  0.3932  1.5177  0.1164
  187MOL0     H24648   8.185   8.105   3.927 -2.9162 -1.5957  0.9540
  187MOL0     H24649   8.344   8.234   3.780  0.7215  1.3784 -1.1498
  187MOL0     H24650   8.393   8.105   3.358 -1.0961  0.1053  1.2721
  187MOL0     H24651   8.514   8.028   3.458  0.6973 -0.5563 -0.1574
  187MOL0     H24652   8.526   8.327   3.392  0.1379  0.2218  4.6265
  187MOL0     H24653   8.580   8.206   3.271 -0.0774 -2.6261  0.4556
  187MOL0     H24654   8.751   8.117   3.431  0.6487  1.9471  1.2603
  187MOL0     H24655   8.702   8.219   3.557 -1.5883 -0.3812  1.1519
  187MOL0     H24656   8.770   8.414   3.399 -0.4588  0.2037  2.1513
  187MOL0     H24657   8.881   8.306   3.479 -0.4243  1.0516 -0.1702
  187MOL0     H24658   8.875   8.173   3.253  1.3218  0.7604  0.3292
  187MOL0     H24659   8.990   8.310   3.288 -0.0563  0.5213  1.4666
  187MOL0     H24660   8.835   8.454   3.145 -0.1791 -0.0572 -1.6263
  187MOL0     H24661   8.743   8.311   3.111 -2.0752  4.5875  0.9563
  187MOL0     H24662   9.038   8.347   3.025 -0.4709  1.1549  0.2929
  187MOL0     H24663   8.941   8.202   3.019  3.1512 -0.0940  2.8031
  187MOL0     H24664   8.772   8.387   2.891 -0.2776 -0.2267 -1.2413
  187MOL0     H24665   8.895   8.291   2.803  0.5130 -1.3455  2.0803
  187MOL0     H24666   8.299   7.927   3.479 -0.2348  1.1402 -0.1183
  187MOL0     H24667   8.148   7.813   3.635  0.6977 -0.0268 -0.1340
  187MOL0     H24668   7.839   7.887   3.980  1.4219 -0.8079 -0.0380
  187MOL0     H24669   7.655   7.774   4.093 -0.2936 -1.2182  1.0675
  187MOL0     H24670   7.851   7.125   2.973 -2.1144  0.4740  0.2983
  187MOL0     H24671   7.783   7.128   2.737 -0.8628 -2.9434  0.2277
  187MOL0     H24672   7.981   7.288   2.340 -1.7282 -1.0354  1.1757
  187MOL0     H24673   7.951   7.373   2.107 -2.3364 -0.1210  0.7258
  187MOL0     H24674   7.818   7.077   1.797  0.0368 -0.1300  0.9558
  187MOL0     H24675   7.764   7.233   1.723  1.6013  0.0996  0.1904
  187MOL0     H24676   7.580   7.098   1.812 -2.5785 -0.1059  2.3329
  187MOL0     H24677   7.631   7.134   1.980 -1.7020 -2.0860  0.1340
  187MOL0     H24678   7.550   7.354   1.774 -1.8309  1.0951  0.7104
  187MOL0     H24679   7.638   7.375   1.926  0.8619 -0.5094  0.3913
  187MOL0     H24680   7.424   7.320   2.032  0.2132 -2.4376  1.5312
  187MOL0     H24681   7.382   7.406   1.882  2.0127  1.5546  1.8764
  187MOL0     H24682   7.225   6.999   1.858 -1.9528  0.5875  0.8593
  187MOL0     H24683   7.853   6.973   1.978 -2.3711  0.3928  1.4115
  187MOL0     H24684   7.894   6.899   2.217  1.8213  0.6498  1.3466
  188MOL0     O24685  10.014   6.307   0.618  0.5895 -0.1314 -0.5662
  188MOL0     C24686  10.099   6.383   0.573  0.5581  0.6797 -0.0545
  188MOL0     O24687  10.192   6.357   0.472 -0.2425 -0.5575 -0.6476
  188MOL0     C24688  10.187   6.242   0.399 -0.8089  0.1156  0.2149
  188MOL0     C24689  10.148   6.115   0.443  0.1048 -0.6989 -1.0874
  188MOL0     C24690  10.144   6.007   0.357 -0.3594 -0.2932 -0.3070
  188MOL0     C24691  10.192   6.017   0.227 -0.4258  0.8463 -0.9484
  188MOL0     O24692  10.178   5.912   0.147 -0.3253  0.0017  0.2017
  188MOL0     C24693  10.235   5.920   0.022  0.4611  0.6094 -0.8159
  188MOL0     C24694  10.216   5.777  -0.032  0.2992 -0.2783 -0.1985
  188MOL0     C24695  10.076   5.757  -0.083 -0.2444 -0.7126  0.8068
  188MOL0     C24696  10.062   5.614  -0.153  0.3781 -0.2841 -0.4236
  188MOL0     C24697  10.103   5.622  -0.301  0.2183  0.1631  0.0333
  188MOL0     C24698  10.033   5.727  -0.394 -0.0861  1.4888  0.4417
  188MOL0     C24699  10.034   5.680  -0.547  0.4858 -0.6822  0.6912
  188MOL0     C24700  10.003   5.784  -0.661  0.1594  0.1285  0.3265
  188MOL0     N24701   9.989   5.699  -0.788 -0.8294 -0.1296 -0.1644
  188MOL0     C24702  10.096   5.673  -0.869 -0.1506 -0.3965  0.3533
  188MOL0     C24703  10.062   5.577  -0.956 -0.5436  0.4082  0.1281
  188MOL0     C24704  10.137   5.517  -1.076  0.2609 -0.9650 -0.9085
  188MOL0     C24705  10.086   5.395  -1.145  0.0065  1.0088  0.3557
  188MOL0     C24706   9.974   5.421  -1.252 -0.7139 -0.1034  0.1202
  188MOL0     C24707  10.005   5.498  -1.376  0.4814  0.0496  0.4348
  188MOL0     O24708  10.142   5.487  -1.415 -0.8222 -0.0686 -0.0113
  188MOL0     C24709  10.181   5.570  -1.516 -1.0569 -0.0159  0.0366
  188MOL0     C24710  10.320   5.555  -1.546  0.1702 -0.6118 -0.8075
  188MOL0     C24711  10.378   5.618  -1.653  0.6723 -0.2082  0.6277
  188MOL0     C24712  10.300   5.685  -1.745  0.2829 -0.6307 -0.8312
  188MOL0     C24713  10.367   5.750  -1.856 -0.6531  0.4724 -0.7776
  188MOL0     O24714  10.309   5.865  -1.911  1.1397  0.9852 -0.0582
  188MOL0     C24715  10.381   5.942  -2.001 -0.0419  0.7474 -1.0197
  188MOL0     C24716  10.477   6.026  -1.944  0.1676  0.1124 -0.1287
  188MOL0     C24717  10.550   6.109  -2.028  0.2166 -0.4678  0.7029
  188MOL0     C24718  10.507   6.126  -2.170 -0.6143 -0.5797 -0.3083
  188MOL0     O24719  10.547   6.227  -2.249  0.2179  0.3343 -0.0102
  188MOL0     C24720  10.647   6.328  -2.211  0.7730 -0.5451  0.0911
  188MOL0     C24721  10.572   6.442  -2.145 -0.0564 -0.2248  0.8605
  188MOL0     C24722  10.656   6.524  -2.050  0.0135 -0.6026  0.5483
  188MOL0     C24723  10.576   6.599  -1.942  0.7037  0.7393  1.0216
  188MOL0     C24724  10.475   6.509  -1.866 -0.1391  0.4462 -0.2575
  188MOL0     C24725  10.527   6.473  -1.724 -0.2302 -0.0503  0.1744
  188MOL0     C24726  10.632   6.369  -1.724 -0.8186 -0.9488  0.4277
  188MOL0     C24727  10.687   6.338  -1.584 -1.0122 -0.6139  1.3187
  188MOL0    Cl24728  10.806   6.212  -1.607 -0.0095  0.2981 -0.1434
  188MOL0     C24729  10.417   6.043  -2.223  0.1875  0.1994 -0.4162
  188MOL0     C24730  10.351   5.953  -2.139 -0.5907  0.7980  0.0238
  188MOL0     O24731  10.483   5.712  -1.883  0.5850  0.2882 -0.1259
  188MOL0     C24732  10.167   5.698  -1.721  0.5961  0.3766 -1.0658
  188MOL0     C24733  10.104   5.636  -1.611  0.8706 -0.3670 -0.3363
  188MOL0     N24734   9.930   5.545  -0.924  0.3638 -1.9242  0.5915
  188MOL0     N24735   9.882   5.626  -0.826 -0.9122  0.8381 -0.2564
  188MOL0     C24736  10.238   6.141   0.184 -0.5079 -0.7521  0.5261
  188MOL0     C24737  10.234   6.254   0.269 -0.0158 -0.9535 -0.9239
  188MOL0     C24738  10.106   6.517   0.632  0.4275 -1.0149 -0.0545
  188MOL0     C24739  10.213   6.611   0.605  0.2495 -0.3240  1.0020
  188MOL0     C24740  10.224   6.725   0.683 -0.5525  0.8145 -0.2686
  188MOL0     C24741  10.130   6.761   0.775  0.9578  0.4791 -0.9124
  188MOL0     O24742  10.143   6.870   0.853 -0.2394  0.4598 -0.0626
  188MOL0     C24743  10.259   6.956   0.835 -0.7298 -0.3503 -0.0475
  188MOL0     C24744  10.259   7.068   0.950  0.0923  0.2963 -0.4151
  188MOL0     C24745  10.243   7.204   0.877 -0.1897  0.2837 -0.1752
  188MOL0     C24746  10.193   7.311   0.983 -0.0262 -0.1021  0.4894
  188MOL0     C24747  10.294   7.339   1.089 -0.1267  0.0567 -0.6527
  188MOL0     C24748  10.374   7.329   1.177 -0.2670 -0.4366 -0.1212
  188MOL0     C24749  10.018   6.681   0.792 -1.0483 -0.8102 -0.1356
  188MOL0     C24750  10.010   6.557   0.731 -0.1284  0.1620  0.2278
  188MOL0     H24751  10.118   6.114   0.547  3.2193  0.8995 -0.0325
  188MOL0     H24752  10.119   5.906   0.386  2.0350 -1.2342 -1.2670
  188MOL0     H24753  10.340   5.948   0.014  0.3940  0.3316 -3.7082
  188MOL0     H24754  10.182   5.992  -0.042  1.8844  1.9790 -0.5021
  188MOL0     H24755  10.216   5.717   0.060 -1.6390  1.4436  1.0134
  188MOL0     H24756  10.299   5.744  -0.095  2.9278  3.0191  1.2388
  188MOL0     H24757  10.057   5.839  -0.154  1.5323  0.8523  2.0304
  188MOL0     H24758   9.998   5.762  -0.007 -3.8506  0.8188 -2.6119
  188MOL0     H24759  10.127   5.539  -0.105 -3.1634 -2.8462  0.7803
  188MOL0     H24760   9.964   5.566  -0.149  1.8149 -3.4352  0.6434
  188MOL0     H24761  10.087   5.523  -0.346  0.4766  0.2039 -0.1477
  188MOL0     H24762  10.211   5.631  -0.313  0.9992 -4.3377  1.5846
  188MOL0     H24763  10.084   5.822  -0.377  2.1737  0.0679  2.2737
  188MOL0     H24764   9.927   5.732  -0.369 -0.4548 -2.6408  0.4071
  188MOL0     H24765  10.130   5.631  -0.565 -0.4659 -2.8148  1.1495
  188MOL0     H24766   9.964   5.596  -0.554 -1.5428  1.0350 -1.1229
  188MOL0     H24767  10.087   5.851  -0.679  0.2024  0.6324  2.2323
  188MOL0     H24768   9.918   5.846  -0.633 -0.5719 -1.1107  0.9717
  188MOL0     H24769  10.198   5.709  -0.862 -0.5190  0.4816  1.7238
  188MOL0     H24770  10.242   5.508  -1.046  0.4201  0.4833 -0.9562
  188MOL0     H24771  10.144   5.599  -1.148 -2.7152  1.1938  1.0200
  188MOL0     H24772  10.053   5.319  -1.073  2.1242  1.8812  2.3899
  188MOL0     H24773  10.170   5.354  -1.203  0.7729  0.1439  2.0173
  188MOL0     H24774   9.936   5.326  -1.290 -3.9551  1.4543 -0.8608
  188MOL0     H24775   9.887   5.459  -1.199 -1.9465 -1.1153 -1.0840
  188MOL0     H24776   9.984   5.603  -1.355 -2.0789  0.1576 -2.0410
  188MOL0     H24777   9.938   5.469  -1.458  1.2168  0.6558 -0.3919
  188MOL0     H24778  10.386   5.501  -1.478  3.5182 -0.4054 -3.6165
  188MOL0     H24779  10.483   5.596  -1.671  0.2572 -0.2669 -2.1172
  188MOL0     H24780  10.501   6.030  -1.838  3.0865  1.4899 -0.7358
  188MOL0     H24781  10.629   6.173  -1.989  0.4090  0.9826 -1.8758
  188MOL0     H24782  10.703   6.364  -2.298  3.3459  0.2236  1.9702
  188MOL0     H24783  10.720   6.278  -2.147  2.9440  2.8913  0.5391
  188MOL0     H24784  10.477   6.409  -2.101 -1.1716  2.5636  0.7197
  188MOL0     H24785  10.543   6.508  -2.226  0.2999 -0.7061  0.3275
  188MOL0     H24786  10.707   6.607  -2.100  1.6334 -1.6780  0.3413
  188MOL0     H24787  10.740   6.470  -2.003 -1.2441  1.1210  5.4217
  188MOL0     H24788  10.652   6.633  -1.873  1.9452 -0.9951  0.5902
  188MOL0     H24789  10.515   6.677  -1.989 -3.9148 -2.1665  1.4931
  188MOL0     H24790  10.449   6.416  -1.917  0.7841  1.3542 -2.5624
  188MOL0     H24791  10.381   6.562  -1.847  0.2618  0.4124  2.1437
  188MOL0     H24792  10.438   6.438  -1.672 -2.5957  2.3426 -1.9694
  188MOL0     H24793  10.562   6.560  -1.667 -1.0738  0.9628 -0.8088
  188MOL0     H24794  10.595   6.279  -1.775  1.0316 -1.3471 -0.3179
  188MOL0     H24795  10.712   6.414  -1.785 -1.6312  2.3574  1.6288
  188MOL0     H24796  10.602   6.303  -1.525 -3.0418  1.9269  0.1137
  188MOL0     H24797  10.743   6.421  -1.540  0.4494 -0.9708  0.2385
  188MOL0     H24798  10.392   6.063  -2.327  0.0176  1.9732 -0.0511
  188MOL0     H24799  10.285   5.874  -2.175  0.9485 -0.4734 -0.1100
  188MOL0     H24800  10.104   5.745  -1.795 -0.6052 -2.6801 -2.1558
  188MOL0     H24801   9.996   5.639  -1.604  0.7851 -1.3044 -1.0330
  188MOL0     H24802  10.267   6.169   0.083 -0.6231  0.6426  0.8565
  188MOL0     H24803  10.262   6.348   0.222 -2.5243  0.0615 -0.5845
  188MOL0     H24804  10.291   6.595   0.532 -2.2592 -0.3359 -1.8773
  188MOL0     H24805  10.303   6.791   0.648 -0.7689 -0.4491 -3.5060
  188MOL0     H24806  10.256   7.005   0.737 -0.4873  0.8742  0.5409
  188MOL0     H24807  10.355   6.904   0.840 -0.5875 -0.1085 -0.2501
  188MOL0     H24808  10.170   7.043   1.009 -4.0252  5.3951 -3.6097
  188MOL0     H24809  10.346   7.067   1.016 -0.8156 -0.5658  0.8143
  188MOL0     H24810  10.183   7.196   0.786  1.8857  0.2406 -1.5980
  188MOL0     H24811  10.342   7.231   0.839  0.2068 -1.9526 -0.8806
  188MOL0     H24812  10.161   7.401   0.930 -3.5083 -1.0198  0.7929
  188MOL0     H24813  10.097   7.279   1.025 -1.2194 -1.1779 -2.7095
  188MOL0     H24814  10.446   7.315   1.255  1.2559  2.1094 -0.9392
  188MOL0     H24815   9.938   6.720   0.855 -1.0365 -3.1359  1.4278
  188MOL0     H24816   9.925   6.498   0.763 -2.7249  4.5144  2.1660
  189MOL0     O24817   7.677  10.452   6.641  0.2546 -0.3350 -0.2883
  189MOL0     C24818   7.665  10.570   6.622 -0.3834 -0.4149 -0.1509
  189MOL0     O24819   7.572  10.629   6.535 -0.4431 -0.1324  0.0496
  189MOL0     C24820   7.471  10.555   6.484  0.0054 -0.4433  0.4609
  189MOL0     C24821   7.430  10.588   6.348  0.6592 -0.0095  0.4298
  189MOL0     C24822   7.312  10.530   6.286  0.0537 -0.6734 -0.9498
  189MOL0     C24823   7.249  10.423   6.355  0.9764  0.8996  0.4687
  189MOL0     O24824   7.131  10.361   6.305  0.4924 -0.2193 -0.1036
  189MOL0     C24825   7.086  10.385   6.176  0.3777  0.9654  0.6412
  189MOL0     C24826   6.951  10.319   6.137 -0.3756  0.1525  0.3362
  189MOL0     C24827   6.909  10.354   5.993  0.3817 -0.2951  1.7759
  189MOL0     C24828   6.781  10.273   5.949 -0.4594 -0.7258 -0.6856
  189MOL0     C24829   6.655  10.342   6.002  0.5420 -0.3826 -0.3491
  189MOL0     C24830   6.538  10.244   6.025 -0.0660 -0.3492 -0.7737
  189MOL0     C24831   6.487  10.183   5.904  0.4605  0.9408  0.1089
  189MOL0     C24832   6.351  10.107   5.937 -0.1050  0.0214  0.7119
  189MOL0     N24833   6.232  10.185   5.887  0.1927  0.6823 -0.0162
  189MOL0     C24834   6.150  10.272   5.953 -0.2245 -0.6033  0.2850
  189MOL0     C24835   6.064  10.317   5.853 -0.2469 -0.7777 -0.3775
  189MOL0     C24836   5.944  10.402   5.880  0.2317  0.1288 -0.3281
  189MOL0     C24837   5.955  10.544   5.815 -0.8940  1.8117  0.0661
  189MOL0     C24838   5.847  10.640   5.863 -0.1071  0.0928 -0.4358
  189MOL0     C24839   5.778  10.719   5.756 -0.6867 -0.5295 -0.1120
  189MOL0     O24840   5.856  10.842   5.737 -0.1851  0.6336  0.0854
  189MOL0     C24841   5.791  10.955   5.736  0.2844 -0.4332 -0.3110
  189MOL0     C24842   5.686  10.995   5.823  0.5205  0.2019  1.3056
  189MOL0     C24843   5.625  11.125   5.814 -0.7456  0.1939 -0.2552
  189MOL0     C24844   5.666  11.222   5.723 -0.6952 -0.1790  0.7610
  189MOL0     C24845   5.608  11.356   5.707  0.2273  0.7918 -0.1278
  189MOL0     O24846   5.531  11.396   5.808 -0.7098  0.6176 -0.2572
  189MOL0     C24847   5.480  11.521   5.811  0.3447 -0.3046 -1.0930
  189MOL0     C24848   5.562  11.636   5.818 -0.6098  0.4084 -0.2234
  189MOL0     C24849   5.509  11.757   5.869 -0.0417  0.4713 -1.0574
  189MOL0     C24850   5.376  11.762   5.913 -0.3900  0.9092 -0.9415
  189MOL0     O24851   5.344  11.895   5.949 -0.5536 -0.5166 -0.5357
  189MOL0     C24852   5.202  11.908   5.956  0.5840 -0.2910 -1.6588
  189MOL0     C24853   5.173  12.058   5.952  0.0903 -0.4575 -0.4852
  189MOL0     C24854   5.224  12.137   6.075  0.6185  0.7997  0.5431
  189MOL0     C24855   5.237  12.284   6.027 -0.5297 -0.7367 -0.3996
  189MOL0     C24856   5.117  12.370   6.065  0.3185 -1.4316 -0.7528
  189MOL0     C24857   5.127  12.511   6.006  0.0156  0.7832  0.0349
  189MOL0     C24858   5.257  12.573   6.018  0.6199 -1.2426 -0.4404
  189MOL0     C24859   5.269  12.701   5.941  0.7775  0.1672 -0.2926
  189MOL0    Cl24860   5.301  12.671   5.764 -0.0528  0.0450  0.1133
  189MOL0     C24861   5.295  11.647   5.910  0.3243  0.2552 -0.1852
  189MOL0     C24862   5.348  11.525   5.861  0.2464 -0.1065 -0.4195
  189MOL0     O24863   5.629  11.414   5.600  0.2188 -0.9928  0.4730
  189MOL0     C24864   5.776  11.189   5.646  0.1369  0.4591 -0.7141
  189MOL0     C24865   5.831  11.066   5.657 -0.1023  0.4546  0.8051
  189MOL0     N24866   6.101  10.263   5.740 -0.1245 -0.1672 -0.0939
  189MOL0     N24867   6.197  10.185   5.760  0.7538  0.1062 -0.1044
  189MOL0     C24868   7.294  10.378   6.479 -0.3560  0.2092 -0.5460
  189MOL0     C24869   7.406  10.443   6.540  0.4194  0.2614 -0.2535
  189MOL0     C24870   7.756  10.663   6.685 -1.1934  0.7034 -0.8497
  189MOL0     C24871   7.762  10.797   6.652  0.2378  0.0786 -0.1715
  189MOL0     C24872   7.845  10.890   6.710 -0.7649  0.7270  0.3727
  189MOL0     C24873   7.929  10.846   6.809 -1.1164 -0.1032  0.2936
  189MOL0     O24874   8.008  10.929   6.883  0.0746 -0.8586  0.9893
  189MOL0     C24875   7.954  11.060   6.935 -0.6930 -0.9425 -0.0540
  189MOL0     C24876   7.813  11.057   7.007  0.4549 -0.0313  0.2738
  189MOL0     C24877   7.760  11.191   7.060 -0.0604 -1.0408 -0.4762
  189MOL0     C24878   7.868  11.254   7.152 -0.0271 -0.0502  0.5647
  189MOL0     C24879   7.809  11.362   7.239  0.6013 -0.8157 -0.4861
  189MOL0     C24880   7.757  11.433   7.324  0.4653  0.2603 -0.1792
  189MOL0     C24881   7.942  10.703   6.843  0.2221 -1.0467 -0.0614
  189MOL0     C24882   7.852  10.616   6.781 -0.2268 -0.0369 -0.8818
  189MOL0     H24883   7.479  10.660   6.283 -0.3687 -0.6777 -1.1427
  189MOL0     H24884   7.271  10.556   6.189 -4.2014  0.3503  0.8896
  189MOL0     H24885   7.162  10.364   6.099  0.9594 -0.6129  1.6017
  189MOL0     H24886   7.059  10.491   6.179 -4.5416 -0.0960  1.1446
  189MOL0     H24887   6.871  10.337   6.210  1.3833  2.3430  1.8898
  189MOL0     H24888   6.959  10.211   6.157  0.1881  0.4446  1.8485
  189MOL0     H24889   6.991  10.327   5.925 -0.2381 -0.0786  0.9223
  189MOL0     H24890   6.882  10.459   5.983 -4.6910 -1.5691 -2.0576
  189MOL0     H24891   6.781  10.292   5.841  0.1438  1.3999 -0.3574
  189MOL0     H24892   6.780  10.168   5.980 -0.0144 -0.8764 -1.1628
  189MOL0     H24893   6.629  10.432   5.945 -1.8567  0.1317  1.4152
  189MOL0     H24894   6.680  10.387   6.098 -1.0721  2.2678 -1.0631
  189MOL0     H24895   6.457  10.294   6.080 -0.0647 -0.2701 -0.8425
  189MOL0     H24896   6.568  10.159   6.086 -2.9067 -1.7457 -1.1317
  189MOL0     H24897   6.463  10.254   5.824 -2.1903 -1.9808 -1.9447
  189MOL0     H24898   6.562  10.114   5.865 -0.6923 -0.6050  0.5262
  189MOL0     H24899   6.348  10.090   6.045  0.8736  3.0744  1.2961
  189MOL0     H24900   6.333  10.011   5.886 -2.1307  0.7572 -0.0875
  189MOL0     H24901   6.134  10.296   6.058 -2.3507  0.8094 -0.3072
  189MOL0     H24902   5.939  10.407   5.989  0.2507 -2.0301 -0.1859
  189MOL0     H24903   5.849  10.360   5.847 -1.2549 -0.8483  4.4376
  189MOL0     H24904   5.947  10.521   5.708 -0.0269 -0.7566  0.4818
  189MOL0     H24905   6.056  10.585   5.831  0.2523 -0.4597 -0.9537
  189MOL0     H24906   5.765  10.577   5.901 -0.4259 -1.5766 -3.5666
  189MOL0     H24907   5.876  10.705   5.946 -0.5558 -0.5874  0.2679
  189MOL0     H24908   5.671  10.730   5.773 -0.9818  0.0267 -2.0192
  189MOL0     H24909   5.782  10.668   5.659 -3.2802 -1.0956 -0.0005
  189MOL0     H24910   5.640  10.920   5.886 -0.4886 -2.4130 -2.2096
  189MOL0     H24911   5.535  11.130   5.874 -0.5324 -2.0284  0.3737
  189MOL0     H24912   5.668  11.624   5.799 -0.9039  1.2504 -2.7045
  189MOL0     H24913   5.562  11.851   5.882  1.5934 -0.7654  2.3184
  189MOL0     H24914   5.165  11.869   6.051 -0.5852 -0.9067 -2.3450
  189MOL0     H24915   5.142  11.865   5.875  0.7116  0.6309 -2.2636
  189MOL0     H24916   5.065  12.072   5.942  0.3512  2.6927  0.0588
  189MOL0     H24917   5.215  12.101   5.861 -0.0869 -0.1920 -0.4429
  189MOL0     H24918   5.316  12.099   6.120  1.4133  0.4722 -1.2850
  189MOL0     H24919   5.138  12.134   6.143 -0.4635  4.1420 -0.4834
  189MOL0     H24920   5.323  12.334   6.073  0.8743 -0.0304 -3.5681
  189MOL0     H24921   5.251  12.301   5.920 -1.6358  3.9516 -0.0229
  189MOL0     H24922   5.107  12.381   6.174 -1.5995  3.3399 -1.1734
  189MOL0     H24923   5.030  12.333   6.010 -0.0083 -0.7039 -0.7277
  189MOL0     H24924   5.054  12.580   6.049 -0.3476 -0.2070  1.0511
  189MOL0     H24925   5.125  12.499   5.897  2.6874 -0.1462  0.0235
  189MOL0     H24926   5.275  12.585   6.125 -0.1979  0.0387 -0.4355
  189MOL0     H24927   5.336  12.509   5.977 -0.4169 -2.5584 -0.4449
  189MOL0     H24928   5.351  12.754   5.990  0.8861 -0.3858  0.1361
  189MOL0     H24929   5.183  12.768   5.950  2.6854  2.6984  0.5761
  189MOL0     H24930   5.196  11.650   5.954  0.6330 -1.5786  0.7391
  189MOL0     H24931   5.291  11.434   5.848  1.1358 -0.8376  0.6262
  189MOL0     H24932   5.827  11.268   5.593  1.4823 -0.6952 -1.2319
  189MOL0     H24933   5.923  11.056   5.600  0.9040 -0.9740  2.5786
  189MOL0     H24934   7.247  10.296   6.532  0.2541  0.4743  0.4354
  189MOL0     H24935   7.431  10.413   6.642 -1.0945  1.4667  0.5260
  189MOL0     H24936   7.691  10.829   6.577 -2.1624 -5.1835 -0.5310
  189MOL0     H24937   7.848  10.993   6.677  0.9283  0.8215  0.7174
  189MOL0     H24938   7.947  11.125   6.848 -0.2649  0.1574  0.7069
  189MOL0     H24939   8.030  11.104   7.001 -2.2954  0.7170  0.7921
  189MOL0     H24940   7.731  11.032   6.938 -1.9029  4.1346  1.2430
  189MOL0     H24941   7.817  10.980   7.085 -1.8569 -0.4196  0.0992
  189MOL0     H24942   7.665  11.195   7.114  0.0572  2.3109 -0.3454
  189MOL0     H24943   7.748  11.260   6.976  0.8408 -0.3604 -0.0677
  189MOL0     H24944   7.907  11.181   7.224 -0.7372 -0.7541  0.2503
  189MOL0     H24945   7.954  11.280   7.090 -0.3995 -1.5034 -0.6035
  189MOL0     H24946   7.696  11.497   7.383 -0.7540 -0.2957 -0.8010
  189MOL0     H24947   8.011  10.672   6.921 -1.0278  1.3518  2.1643
  189MOL0     H24948   7.869  10.511   6.805  1.4005  0.2946 -0.4817
  190MOL0     O24949   4.644   4.976   3.739  0.4617  0.7732 -0.4679
  190MOL0     C24950   4.639   4.880   3.657  0.0703  0.3280 -0.2493
  190MOL0     O24951   4.711   4.763   3.664 -0.3908 -0.2110  0.1382
  190MOL0     C24952   4.782   4.718   3.771 -0.4416  0.7795 -0.7526
  190MOL0     C24953   4.773   4.761   3.907 -0.3768  0.2484  0.5619
  190MOL0     C24954   4.857   4.714   4.011  0.4294 -0.1267  0.3861
  190MOL0     C24955   4.933   4.603   3.984  0.4339  0.8481 -0.1470
  190MOL0     O24956   4.978   4.532   4.095  0.0631 -0.5943 -0.3280
  190MOL0     C24957   5.100   4.458   4.092 -0.5160  0.1813  0.8599
  190MOL0     C24958   5.144   4.492   4.235 -0.6875  0.8339 -0.0245
  190MOL0     C24959   5.273   4.414   4.266  0.2886  0.0118 -0.7193
  190MOL0     C24960   5.321   4.438   4.405 -0.8310  0.0008  0.1381
  190MOL0     C24961   5.476   4.418   4.423  0.4380  0.4090  0.8397
  190MOL0     C24962   5.510   4.277   4.387 -0.4686  0.4450  0.4758
  190MOL0     C24963   5.667   4.257   4.386 -0.6222  0.3070  0.2619
  190MOL0     C24964   5.721   4.121   4.329  0.6578  0.3572 -0.1449
  190MOL0     N24965   5.798   4.132   4.207  1.2974  0.3955 -0.2354
  190MOL0     C24966   5.755   4.173   4.082 -0.0831  0.0933 -0.2461
  190MOL0     C24967   5.868   4.168   4.014  0.0862 -0.7896  0.0558
  190MOL0     C24968   5.866   4.192   3.863 -0.5108  0.3795 -0.2515
  190MOL0     C24969   5.797   4.314   3.802  0.0938 -0.2589  0.3506
  190MOL0     C24970   5.866   4.445   3.850  0.2427 -1.2036 -0.4443
  190MOL0     C24971   5.875   4.545   3.739  0.6094 -0.2831  1.2052
  190MOL0     O24972   5.748   4.564   3.672  0.2664  0.2792 -0.2540
  190MOL0     C24973   5.733   4.543   3.540  0.1719  0.5511 -0.3350
  190MOL0     C24974   5.618   4.482   3.501 -0.6664 -0.0381  0.1144
  190MOL0     C24975   5.593   4.452   3.372 -0.0613  1.0040 -0.2804
  190MOL0     C24976   5.690   4.467   3.273  0.0514 -0.0516 -0.1675
  190MOL0     C24977   5.649   4.432   3.136 -1.2456 -0.4844 -0.3872
  190MOL0     O24978   5.520   4.392   3.114  0.6613  0.9855  0.4909
  190MOL0     C24979   5.467   4.372   2.992  0.5017 -0.3430  0.4853
  190MOL0     C24980   5.353   4.303   2.986  0.3814  0.2905 -0.3451
  190MOL0     C24981   5.278   4.288   2.861 -0.8652 -0.1328  0.7551
  190MOL0     C24982   5.332   4.333   2.735 -0.7668 -0.2707 -0.1064
  190MOL0     O24983   5.269   4.315   2.613  0.2459 -0.1574  0.1171
  190MOL0     C24984   5.306   4.364   2.485 -0.3762 -0.9040 -0.0970
  190MOL0     C24985   5.183   4.433   2.424 -0.2106 -0.5382 -0.5282
  190MOL0     C24986   5.172   4.406   2.269  0.3570 -0.7049  0.5048
  190MOL0     C24987   5.108   4.273   2.236 -0.2234 -0.3335  0.1705
  190MOL0     C24988   5.125   4.237   2.084  0.0069 -0.5265 -0.1111
  190MOL0     C24989   5.027   4.321   2.004 -0.8560  0.0987 -0.6120
  190MOL0     C24990   5.034   4.287   1.860  0.3673  0.2958  0.1059
  190MOL0     C24991   4.952   4.368   1.763 -1.2676 -0.7369 -0.5712
  190MOL0    Cl24992   4.766   4.335   1.780 -0.2834 -0.1481 -0.2227
  190MOL0     C24993   5.452   4.406   2.746 -0.4500 -0.4763  0.2247
  190MOL0     C24994   5.512   4.435   2.873  0.0029 -0.5345 -0.0666
  190MOL0     O24995   5.738   4.449   3.051  0.3838  0.3547 -0.0842
  190MOL0     C24996   5.816   4.524   3.307  0.7720  0.3171  0.4691
  190MOL0     C24997   5.830   4.566   3.438 -0.5370  0.6472 -1.1323
  190MOL0     N24998   5.980   4.152   4.085 -0.7238  0.8452 -0.6257
  190MOL0     N24999   5.936   4.126   4.205 -0.0409  0.1410  0.5432
  190MOL0     C25000   4.951   4.555   3.854 -0.0328 -0.4718  0.3221
  190MOL0     C25001   4.869   4.608   3.751 -0.3971  1.1352 -0.0782
  190MOL0     C25002   4.561   4.892   3.539  0.0998 -0.0890  0.1570
  190MOL0     C25003   4.536   5.024   3.489  0.0052 -0.5116  0.1260
  190MOL0     C25004   4.444   5.035   3.379  0.1600  0.6494  0.2033
  190MOL0     C25005   4.375   4.918   3.324 -0.1143 -0.1958  0.2849
  190MOL0     O25006   4.269   4.937   3.232 -0.5095 -0.9048  0.0251
  190MOL0     C25007   4.294   5.025   3.122 -0.8572  0.4878  0.0326
  190MOL0     C25008   4.188   5.000   3.003 -0.8868 -0.3398 -0.7760
  190MOL0     C25009   4.235   5.055   2.874  0.2289  0.2802 -0.2343
  190MOL0     C25010   4.241   5.205   2.881  0.3763 -0.2991 -0.1618
  190MOL0     C25011   4.225   5.269   2.752 -0.1904 -0.0046  0.3805
  190MOL0     C25012   4.198   5.332   2.643  0.7226 -0.0281 -0.0833
  190MOL0     C25013   4.394   4.797   3.386  0.5422 -0.1337  0.1266
  190MOL0     C25014   4.482   4.785   3.489 -0.7733  0.8654  0.1402
  190MOL0     H25015   4.704   4.839   3.939  0.3652  0.4449  1.7463
  190MOL0     H25016   4.849   4.763   4.108  1.3666  2.5106 -0.7718
  190MOL0     H25017   5.173   4.484   4.015  0.6300 -2.8450  0.7835
  190MOL0     H25018   5.076   4.352   4.083 -0.3125  0.3174 -1.8496
  190MOL0     H25019   5.074   4.455   4.311  0.8337 -1.7731  0.2187
  190MOL0     H25020   5.144   4.596   4.270 -0.9352  0.6676  0.4898
  190MOL0     H25021   5.359   4.441   4.204  0.7263 -2.4591 -1.3014
  190MOL0     H25022   5.246   4.309   4.254 -1.1085 -0.0037  1.7886
  190MOL0     H25023   5.299   4.544   4.421 -0.5466  0.3178 -1.4367
  190MOL0     H25024   5.264   4.377   4.475  0.0765  0.1728  1.0532
  190MOL0     H25025   5.504   4.440   4.526  0.6001  0.0694  0.8686
  190MOL0     H25026   5.516   4.491   4.352 -1.1843 -0.0832 -0.6466
  190MOL0     H25027   5.473   4.259   4.286  0.0231 -0.4669  0.4410
  190MOL0     H25028   5.471   4.202   4.457 -0.8643  1.4545  1.3635
  190MOL0     H25029   5.709   4.339   4.328  3.2899 -0.2155  2.0299
  190MOL0     H25030   5.707   4.278   4.486  3.8690 -1.0761 -1.0229
  190MOL0     H25031   5.635   4.056   4.314 -1.1390  2.6303 -0.2573
  190MOL0     H25032   5.772   4.068   4.410 -1.4747 -1.4139  0.1111
  190MOL0     H25033   5.656   4.203   4.049  0.2577  1.7782  0.1990
  190MOL0     H25034   5.807   4.108   3.827  0.8913 -0.7637  0.0217
  190MOL0     H25035   5.966   4.189   3.819 -0.6625 -1.9700 -0.5543
  190MOL0     H25036   5.691   4.323   3.827 -0.6006 -1.3618 -1.9430
  190MOL0     H25037   5.798   4.302   3.694 -0.3913 -1.3906  0.4585
  190MOL0     H25038   5.821   4.482   3.943  2.2134  0.4488 -0.1026
  190MOL0     H25039   5.969   4.421   3.876  0.5942 -2.5192 -2.7617
  190MOL0     H25040   5.948   4.524   3.660 -0.9565 -1.6291  0.0443
  190MOL0     H25041   5.918   4.632   3.790  0.5627  1.4907 -1.5968
  190MOL0     H25042   5.535   4.467   3.569 -2.5223 -0.8088 -2.1804
  190MOL0     H25043   5.492   4.422   3.346 -0.6828  1.2086  1.7024
  190MOL0     H25044   5.309   4.269   3.079 -0.7785 -1.4476 -1.4736
  190MOL0     H25045   5.188   4.229   2.859 -0.3369 -0.9511  0.6516
  190MOL0     H25046   5.332   4.282   2.417 -1.8409 -3.1784  1.9220
  190MOL0     H25047   5.394   4.429   2.481  0.0425 -1.5011 -1.6778
  190MOL0     H25048   5.175   4.537   2.456 -2.7424 -0.0352 -2.5388
  190MOL0     H25049   5.094   4.388   2.469  0.9570 -1.2802  1.1427
  190MOL0     H25050   5.272   4.413   2.226  0.2418  1.5166  0.4722
  190MOL0     H25051   5.118   4.484   2.214 -1.9233 -0.5264  2.7694
  190MOL0     H25052   5.161   4.205   2.304  1.3216  1.2246  0.5893
  190MOL0     H25053   5.004   4.264   2.269  0.8155 -2.4526  3.2667
  190MOL0     H25054   5.103   4.132   2.066 -2.3154  0.2555 -2.4737
  190MOL0     H25055   5.226   4.262   2.050  0.7436  0.9033  2.8071
  190MOL0     H25056   5.062   4.424   2.016 -2.1535  0.3469  1.5545
  190MOL0     H25057   4.922   4.311   2.033 -1.1295  2.1820 -0.7312
  190MOL0     H25058   5.132   4.322   1.828  0.1622 -0.6819 -1.7155
  190MOL0     H25059   5.026   4.180   1.841  3.7422 -0.0088 -0.0934
  190MOL0     H25060   4.986   4.347   1.662  0.9163  0.7557 -0.2147
  190MOL0     H25061   4.982   4.473   1.771 -0.6160 -0.7392 -2.5281
  190MOL0     H25062   5.505   4.441   2.659 -0.1770  0.1532  0.6316
  190MOL0     H25063   5.594   4.506   2.879 -0.5996  0.0427  3.0155
  190MOL0     H25064   5.879   4.545   3.221 -0.9624  0.1315 -0.9170
  190MOL0     H25065   5.922   4.607   3.480 -1.4106 -0.6193  2.3605
  190MOL0     H25066   5.008   4.468   3.824  2.0288  1.4966 -1.8198
  190MOL0     H25067   4.876   4.563   3.652  3.0090  2.5293 -0.6152
  190MOL0     H25068   4.583   5.113   3.529 -1.4109 -0.2661  1.3078
  190MOL0     H25069   4.418   5.132   3.336  1.9623  0.1743 -2.1431
  190MOL0     H25070   4.396   5.015   3.084 -0.2050 -0.5500  1.9109
  190MOL0     H25071   4.293   5.132   3.146  0.9248  0.3963  0.6792
  190MOL0     H25072   4.190   4.891   3.005  0.6065 -0.3248  0.2546
  190MOL0     H25073   4.097   5.043   3.046 -0.3177 -0.8100  0.9624
  190MOL0     H25074   4.180   5.011   2.790  0.3344 -0.2915 -0.0094
  190MOL0     H25075   4.335   5.011   2.862 -1.1872 -3.3037 -0.2758
  190MOL0     H25076   4.164   5.249   2.945  2.1496  1.9319  0.5803
  190MOL0     H25077   4.338   5.237   2.920  2.1427 -2.9000 -2.1245
  190MOL0     H25078   4.169   5.394   2.560  0.9198  2.5045  1.6275
  190MOL0     H25079   4.326   4.718   3.356  0.0327  0.0495  0.7895
  190MOL0     H25080   4.492   4.686   3.534  1.0221  1.3580  0.9066
  191MOL0     O25081   6.292   8.478   9.640 -0.0644 -0.5118 -0.2626
  191MOL0     C25082   6.317   8.599   9.654 -0.9414  1.1386  0.5142
  191MOL0     O25083   6.306   8.688   9.553 -0.7921  0.0719  0.0900
  191MOL0     C25084   6.264   8.642   9.430  0.6024 -0.9636 -0.0595
  191MOL0     C25085   6.134   8.601   9.416 -0.7848  0.7869 -0.4705
  191MOL0     C25086   6.093   8.540   9.299  0.4062 -0.3304 -0.3644
  191MOL0     C25087   6.168   8.558   9.187  0.0934  0.1454  0.1067
  191MOL0     O25088   6.127   8.520   9.063 -0.1595  0.3870 -0.7333
  191MOL0     C25089   6.018   8.435   9.045  0.2272  0.2860  0.1551
  191MOL0     C25090   6.001   8.407   8.896 -1.0711 -0.6982  0.0984
  191MOL0     C25091   5.986   8.537   8.803  0.4434  0.3388 -0.1283
  191MOL0     C25092   5.945   8.509   8.659 -0.1660  0.6028 -0.3880
  191MOL0     C25093   5.978   8.628   8.559 -0.3701 -0.5889  0.8724
  191MOL0     C25094   5.895   8.757   8.583  0.6997 -0.4427 -1.0977
  191MOL0     C25095   5.902   8.876   8.488  0.5027 -0.8348 -0.1442
  191MOL0     C25096   5.827   8.998   8.537  0.3021  0.2326  0.3299
  191MOL0     N25097   5.683   8.968   8.570 -0.3185  0.0900  0.2374
  191MOL0     C25098   5.628   8.931   8.697 -1.3270  0.0145 -0.0769
  191MOL0     C25099   5.502   8.893   8.681 -0.5686 -0.1780  1.1253
  191MOL0     C25100   5.424   8.836   8.794  0.6175 -0.6537  0.6422
  191MOL0     C25101   5.397   8.681   8.781  0.0433  0.0237 -0.4523
  191MOL0     C25102   5.534   8.600   8.810 -0.8720  0.1822  0.4723
  191MOL0     C25103   5.603   8.625   8.950  0.0510  0.5340 -0.5552
  191MOL0     O25104   5.513   8.670   9.050 -0.1088 -0.0990 -0.0043
  191MOL0     C25105   5.573   8.654   9.175  0.0996  0.1690 -0.4909
  191MOL0     C25106   5.710   8.677   9.207 -0.1026  0.1063  0.9802
  191MOL0     C25107   5.755   8.677   9.336  0.0098 -0.1283 -0.3750
  191MOL0     C25108   5.664   8.651   9.447  0.1280 -0.4968 -0.3728
  191MOL0     C25109   5.705   8.664   9.593  0.1777  0.3855  0.1806
  191MOL0     O25110   5.843   8.641   9.618  0.5004 -0.2205 -0.3947
  191MOL0     C25111   5.896   8.655   9.748 -0.2767 -0.0326 -0.4123
  191MOL0     C25112   6.006   8.738   9.755 -0.7624  0.3263 -0.2802
  191MOL0     C25113   6.066   8.772   9.876 -0.1470  0.0197 -0.2173
  191MOL0     C25114   6.036   8.700  10.001  0.1570 -0.3857 -0.0306
  191MOL0     O25115   6.109   8.724  10.119 -0.5090  0.3868 -0.3232
  191MOL0     C25116   6.082   8.654  10.238  0.0758 -0.5463 -0.8529
  191MOL0     C25117   5.988   8.745  10.320 -0.0369  0.2371 -1.0658
  191MOL0     C25118   6.058   8.870  10.379 -0.7862  0.2395 -0.1206
  191MOL0     C25119   5.944   8.968  10.432 -0.7015  0.0233 -1.3250
  191MOL0     C25120   5.995   9.079  10.510 -0.7936 -0.7887  0.1737
  191MOL0     C25121   5.892   9.174  10.557  0.0593 -0.7566  0.3821
  191MOL0     C25122   5.942   9.261  10.674 -0.0859 -0.3019 -0.7749
  191MOL0     C25123   5.865   9.220  10.800 -0.8351 -0.6877 -1.3849
  191MOL0    Cl25124   5.922   9.064  10.859 -0.4718  0.5681 -0.2044
  191MOL0     C25125   5.911   8.633   9.990  0.3771 -0.6957 -0.0050
  191MOL0     C25126   5.841   8.612   9.871 -0.2641 -0.3320  0.3478
  191MOL0     O25127   5.618   8.686   9.679 -0.2787 -0.0270 -0.3569
  191MOL0     C25128   5.537   8.625   9.410 -0.0586 -0.0903  0.2379
  191MOL0     C25129   5.484   8.631   9.278  0.1089  0.9456 -0.5851
  191MOL0     N25130   5.481   8.903   8.543  0.3767  0.0843 -0.7221
  191MOL0     N25131   5.588   8.947   8.483  0.0663 -0.2254 -0.2743
  191MOL0     C25132   6.297   8.607   9.192  0.8107 -0.3939 -0.6963
  191MOL0     C25133   6.346   8.645   9.321  0.6177  0.4516 -0.0121
  191MOL0     C25134   6.377   8.640   9.784 -0.0195  0.4013 -0.0581
  191MOL0     C25135   6.431   8.546   9.882  0.1047 -0.6755 -0.7232
  191MOL0     C25136   6.498   8.601   9.989 -0.6012 -0.2637 -0.1314
  191MOL0     C25137   6.497   8.738  10.014  0.2886  2.0205  0.2015
  191MOL0     O25138   6.560   8.795  10.120 -0.8678 -0.4879  0.0365
  191MOL0     C25139   6.692   8.743  10.152  0.0745 -0.5990  0.2452
  191MOL0     C25140   6.802   8.764  10.040 -0.1655  1.0560 -0.8326
  191MOL0     C25141   6.825   8.909   9.982  0.3493  0.3339 -0.0840
  191MOL0     C25142   6.885   8.999  10.089 -0.5143 -0.5528 -0.2934
  191MOL0     C25143   7.021   8.985  10.126  0.3843  1.1592  0.4692
  191MOL0     C25144   7.133   8.973  10.175 -0.4182 -0.6085 -0.3426
  191MOL0     C25145   6.426   8.822   9.936 -0.0113 -0.0536 -0.1509
  191MOL0     C25146   6.393   8.778   9.806 -0.0113 -0.8188 -0.3750
  191MOL0     H25147   6.075   8.595   9.507 -1.3306 -0.1200 -0.8774
  191MOL0     H25148   5.989   8.512   9.287  0.6120 -0.4687 -1.9658
  191MOL0     H25149   5.933   8.499   9.071  0.9411  2.0382 -1.6209
  191MOL0     H25150   6.026   8.342   9.102  0.2631 -0.1499 -0.5559
  191MOL0     H25151   5.917   8.339   8.879 -2.1912  0.8368 -0.7574
  191MOL0     H25152   6.092   8.353   8.868  0.8087  2.8569 -1.3906
  191MOL0     H25153   6.078   8.595   8.799  0.4994  0.2467 -0.1782
  191MOL0     H25154   5.904   8.595   8.845 -1.5134 -0.5771 -2.4688
  191MOL0     H25155   5.995   8.418   8.625 -0.1736  0.7761 -0.8617
  191MOL0     H25156   5.836   8.500   8.646 -0.3175  2.7626 -0.9844
  191MOL0     H25157   5.956   8.596   8.457  1.8169 -1.5276  0.6539
  191MOL0     H25158   6.083   8.656   8.566  0.6302 -2.8064 -2.6351
  191MOL0     H25159   5.913   8.797   8.683 -1.2122  3.4891 -2.1451
  191MOL0     H25160   5.792   8.718   8.581  1.9954 -4.7653  1.2914
  191MOL0     H25161   6.003   8.907   8.462 -0.5636 -0.1158 -4.0682
  191MOL0     H25162   5.851   8.853   8.394  1.1634  1.4301 -1.1157
  191MOL0     H25163   5.825   9.064   8.450 -4.7949  0.5205  0.3408
  191MOL0     H25164   5.880   9.047   8.619  0.6475  0.4666 -0.0309
  191MOL0     H25165   5.688   8.933   8.788  0.4196 -0.1505 -1.1613
  191MOL0     H25166   5.327   8.883   8.776  1.9686  0.8000 -4.4750
  191MOL0     H25167   5.463   8.865   8.892 -0.4327 -0.3033  0.9692
  191MOL0     H25168   5.358   8.648   8.684  1.5503 -2.5347 -0.2657
  191MOL0     H25169   5.323   8.651   8.855 -1.0606 -0.1976 -1.6151
  191MOL0     H25170   5.511   8.493   8.809  0.4123 -0.1017  0.3945
  191MOL0     H25171   5.604   8.602   8.727  1.9913 -0.8602  2.6846
  191MOL0     H25172   5.675   8.707   8.948 -2.0863  2.6138  1.3277
  191MOL0     H25173   5.652   8.534   8.986 -0.0875 -0.2346 -2.2049
  191MOL0     H25174   5.783   8.702   9.132  2.4739 -1.9885  2.6152
  191MOL0     H25175   5.858   8.701   9.356  0.6540  0.7802 -4.0896
  191MOL0     H25176   6.042   8.773   9.659  0.7144  0.4249  0.2808
  191MOL0     H25177   6.145   8.846   9.878 -0.1894  0.0513  1.4358
  191MOL0     H25178   6.172   8.634  10.296  1.0783 -0.2241 -2.2544
  191MOL0     H25179   6.048   8.551  10.225 -2.0571 -0.1858  1.0987
  191MOL0     H25180   5.952   8.682  10.402 -2.0801  0.9608 -1.3385
  191MOL0     H25181   5.897   8.771  10.265 -1.2588  2.3920  1.6808
  191MOL0     H25182   6.115   8.918  10.300 -0.7551  0.6732  0.1658
  191MOL0     H25183   6.128   8.838  10.457  0.4448  1.4190 -0.6992
  191MOL0     H25184   5.886   9.013  10.350 -3.6005  1.8824  1.4681
  191MOL0     H25185   5.869   8.909  10.487 -1.3445  0.4577 -1.7117
  191MOL0     H25186   6.074   9.129  10.453  1.7512 -3.6006  0.9497
  191MOL0     H25187   6.049   9.035  10.594 -1.2264 -1.0922  0.2903
  191MOL0     H25188   5.803   9.116  10.582  0.3919 -1.3459  0.2223
  191MOL0     H25189   5.868   9.233  10.468 -0.5725 -1.2655  0.2072
  191MOL0     H25190   6.049   9.250  10.695  0.1874 -0.7691 -2.3378
  191MOL0     H25191   5.941   9.370  10.667  2.0060 -0.2859 -1.4761
  191MOL0     H25192   5.757   9.210  10.782 -0.9713  0.5205 -1.2905
  191MOL0     H25193   5.881   9.287  10.885 -0.7853 -1.2197 -0.9725
  191MOL0     H25194   5.868   8.598  10.083  2.2643 -0.2095  1.0968
  191MOL0     H25195   5.747   8.558   9.868 -0.5215 -0.4756  4.5962
  191MOL0     H25196   5.460   8.590   9.478 -1.1545 -2.2148 -1.9233
  191MOL0     H25197   5.377   8.619   9.263 -0.8505  3.5762  2.9211
  191MOL0     H25198   6.352   8.609   9.098  0.7378 -1.7670 -0.7968
  191MOL0     H25199   6.450   8.674   9.330  0.5809  0.5903 -0.0269
  191MOL0     H25200   6.427   8.438   9.878 -1.4130 -0.8033  1.9885
  191MOL0     H25201   6.559   8.534  10.049 -0.2868  1.6922  1.8782
  191MOL0     H25202   6.696   8.634  10.164 -2.5432 -1.0466 -2.1352
  191MOL0     H25203   6.725   8.780  10.250  0.0117 -3.2462  1.3511
  191MOL0     H25204   6.897   8.737  10.087 -1.7919  0.6858  2.5180
  191MOL0     H25205   6.789   8.694   9.957 -0.3291  0.3172 -0.1906
  191MOL0     H25206   6.728   8.942   9.945 -0.9525 -2.5941  0.3651
  191MOL0     H25207   6.894   8.914   9.897 -1.1007  0.2920 -1.2994
  191MOL0     H25208   6.873   9.103  10.057  0.7406  1.1758  4.1300
  191MOL0     H25209   6.826   8.983  10.179  0.2293  1.9739  0.7332
  191MOL0     H25210   7.226   8.992  10.226 -0.8721  2.4791 -0.5008
  191MOL0     H25211   6.412   8.926   9.964 -0.2686 -0.8843  3.2630
  191MOL0     H25212   6.359   8.852   9.735 -1.3958 -1.7934 -0.7731
  192MOL0     O25213   2.915   3.170   3.391 -0.5317 -0.3864  0.1582
  192MOL0     C25214   2.960   3.072   3.336 -0.6181  0.5220 -0.4270
  192MOL0     O25215   3.096   3.049   3.308  0.4197 -0.6110  0.5564
  192MOL0     C25216   3.186   3.134   3.368  0.1606  0.0540  0.3381
  192MOL0     C25217   3.241   3.116   3.496  0.3099 -0.8742  0.0716
  192MOL0     C25218   3.340   3.205   3.541 -0.1244 -0.5267  0.6249
  192MOL0     C25219   3.397   3.305   3.466  0.9115 -0.9309 -0.4114
  192MOL0     O25220   3.503   3.372   3.511 -0.1179 -0.7032 -0.4368
  192MOL0     C25221   3.523   3.494   3.444  0.2341  0.4238  0.7396
  192MOL0     C25222   3.630   3.583   3.517  0.0661 -0.4182 -0.8266
  192MOL0     C25223   3.662   3.707   3.428  0.3148 -0.0471  0.1369
  192MOL0     C25224   3.671   3.827   3.522 -0.2121  0.5722 -0.1000
  192MOL0     C25225   3.699   3.955   3.446  0.3340 -0.4157 -0.6795
  192MOL0     C25226   3.733   4.077   3.539 -0.4313 -0.6252  0.3139
  192MOL0     C25227   3.598   4.142   3.583 -0.1660 -0.1537 -0.4354
  192MOL0     C25228   3.628   4.229   3.703  0.4013  0.8156  0.7689
  192MOL0     N25229   3.518   4.330   3.717 -0.0547 -0.1640 -0.6925
  192MOL0     C25230   3.388   4.299   3.757 -1.4352 -0.1720 -0.0185
  192MOL0     C25231   3.326   4.418   3.756 -0.2943  1.0015  0.5648
  192MOL0     C25232   3.180   4.427   3.793 -0.0057  0.1990  0.4921
  192MOL0     C25233   3.161   4.512   3.915 -0.5577 -0.5218  0.3165
  192MOL0     C25234   3.128   4.660   3.861 -1.2382 -0.0644  0.3155
  192MOL0     C25235   3.114   4.766   3.970  0.1892  0.5891  0.3390
  192MOL0     O25236   3.218   4.769   4.075 -0.0896 -0.6745 -0.3099
  192MOL0     C25237   3.203   4.880   4.152  0.1107  0.1689 -0.4149
  192MOL0     C25238   3.086   4.911   4.223 -0.3316  0.8782  0.6021
  192MOL0     C25239   3.074   5.033   4.293  0.6646  0.4872 -1.0789
  192MOL0     C25240   3.166   5.139   4.292 -0.1127 -0.0500 -0.1538
  192MOL0     C25241   3.142   5.267   4.360 -0.0061  0.8160  1.3475
  192MOL0     O25242   3.057   5.271   4.463 -0.9166 -0.8551  0.3003
  192MOL0     C25243   3.086   5.377   4.546  0.0223 -1.1107  0.1785
  192MOL0     C25244   3.212   5.433   4.592 -0.2300  0.0492 -0.7992
  192MOL0     C25245   3.213   5.539   4.680  0.0369 -0.7179  0.0999
  192MOL0     C25246   3.100   5.608   4.714 -0.7925 -0.2592 -0.2179
  192MOL0     O25247   3.091   5.716   4.798  0.4308  0.7527  0.6929
  192MOL0     C25248   3.160   5.694   4.926  0.5963 -0.3144 -0.7150
  192MOL0     C25249   3.150   5.807   5.029 -0.1097 -0.3286 -0.2410
  192MOL0     C25250   3.227   5.771   5.165 -0.3170  0.0731  1.0311
  192MOL0     C25251   3.367   5.829   5.155 -0.9434 -0.7954 -0.8321
  192MOL0     C25252   3.443   5.770   5.261 -0.7726  0.8076  0.0240
  192MOL0     C25253   3.474   5.622   5.247 -0.3278  0.7608 -0.2068
  192MOL0     C25254   3.573   5.576   5.352 -0.6842  0.6590 -0.3964
  192MOL0     C25255   3.624   5.439   5.317  0.6796  0.1106 -0.2355
  192MOL0    Cl25256   3.756   5.397   5.432 -0.0771 -0.0952 -0.4228
  192MOL0     C25257   2.983   5.562   4.671 -0.5264  0.4822  0.9374
  192MOL0     C25258   2.976   5.448   4.593  0.1273  0.4459  0.0115
  192MOL0     O25259   3.223   5.350   4.319  0.9503 -0.1848 -0.6819
  192MOL0     C25260   3.286   5.109   4.220  1.1476 -0.0488  1.0997
  192MOL0     C25261   3.300   4.983   4.153 -0.1453 -0.1483 -0.6505
  192MOL0     N25262   3.420   4.505   3.710  0.5804 -0.6753 -0.2147
  192MOL0     N25263   3.529   4.457   3.680  0.2858 -0.1913  0.8176
  192MOL0     C25264   3.350   3.314   3.335  0.2795 -0.1552  0.8646
  192MOL0     C25265   3.246   3.233   3.286 -0.0699  0.8161  0.1144
  192MOL0     C25266   2.852   2.979   3.282  0.6235 -0.2924 -0.7545
  192MOL0     C25267   2.900   2.857   3.232  0.2454 -0.0819 -0.2743
  192MOL0     C25268   2.807   2.772   3.181 -1.0427  1.8521  0.0033
  192MOL0     C25269   2.665   2.781   3.179  0.0452 -0.8184  0.4315
  192MOL0     O25270   2.580   2.687   3.130  0.7371  0.1865  1.0543
  192MOL0     C25271   2.620   2.548   3.124  0.1000  0.3362  0.3951
  192MOL0     C25272   2.491   2.459   3.139 -0.3130  0.0096 -1.1831
  192MOL0     C25273   2.401   2.463   3.020 -0.6160  0.2898  0.4538
  192MOL0     C25274   2.299   2.354   2.999  0.2221  0.1743  0.1893
  192MOL0     C25275   2.382   2.233   2.977  0.5297  0.1086 -0.6552
  192MOL0     C25276   2.442   2.126   2.950 -0.0370  0.5091 -0.6416
  192MOL0     C25277   2.617   2.903   3.225 -0.0275 -0.1347 -0.4983
  192MOL0     C25278   2.709   3.002   3.276 -0.8794  0.3238  0.4761
  192MOL0     H25279   3.203   3.036   3.560  0.6760 -4.0389 -3.3491
  192MOL0     H25280   3.376   3.209   3.643  0.1319  3.2361  0.5283
  192MOL0     H25281   3.432   3.554   3.429  1.0630  1.1968 -1.6062
  192MOL0     H25282   3.551   3.459   3.344 -1.7100 -1.3589  0.7416
  192MOL0     H25283   3.719   3.520   3.525  1.2955  0.9749 -2.7547
  192MOL0     H25284   3.591   3.607   3.616  0.2303 -1.6696 -0.4402
  192MOL0     H25285   3.581   3.724   3.357 -0.0572 -4.2412 -0.6489
  192MOL0     H25286   3.757   3.699   3.373  0.1001  0.5185 -0.3318
  192MOL0     H25287   3.585   3.848   3.586 -1.3137 -0.9407 -1.0223
  192MOL0     H25288   3.756   3.811   3.589 -1.2038  3.4441  2.0245
  192MOL0     H25289   3.609   3.981   3.390  1.9771  1.5247 -2.5847
  192MOL0     H25290   3.783   3.934   3.379  0.5753  0.3303 -0.6096
  192MOL0     H25291   3.781   4.155   3.479 -4.2251  1.2148 -0.6234
  192MOL0     H25292   3.801   4.055   3.622 -0.5396 -1.0097  0.3048
  192MOL0     H25293   3.574   4.198   3.493  3.6917 -1.9346 -2.8442
  192MOL0     H25294   3.528   4.064   3.612  0.1272 -0.4285 -0.4569
  192MOL0     H25295   3.724   4.277   3.679  0.7821 -0.9073 -1.5096
  192MOL0     H25296   3.628   4.167   3.794  0.0373  0.3325  0.4441
  192MOL0     H25297   3.337   4.205   3.769 -5.6260  1.9425  0.6801
  192MOL0     H25298   3.136   4.329   3.811 -1.6570  0.9298  0.6368
  192MOL0     H25299   3.126   4.470   3.708 -0.9981 -4.2563 -1.3813
  192MOL0     H25300   3.251   4.511   3.977 -0.4324  1.4304  0.2221
  192MOL0     H25301   3.075   4.482   3.976 -0.6569  1.7139  1.3819
  192MOL0     H25302   3.208   4.695   3.795  1.2453 -0.2655  3.0307
  192MOL0     H25303   3.036   4.654   3.801 -1.9479  1.3039  1.2315
  192MOL0     H25304   3.019   4.756   4.023  0.8146 -0.0326  1.3780
  192MOL0     H25305   3.124   4.857   3.909 -0.2540 -0.0564 -0.7123
  192MOL0     H25306   3.002   4.842   4.222  1.7134 -1.9207  3.6064
  192MOL0     H25307   2.985   5.058   4.350  1.2251  0.7374 -0.2875
  192MOL0     H25308   3.302   5.383   4.558  1.0023 -1.2470  3.7103
  192MOL0     H25309   3.306   5.584   4.713 -0.3262  2.4354 -2.5684
  192MOL0     H25310   3.268   5.690   4.905  1.0049  2.5547  0.4149
  192MOL0     H25311   3.114   5.609   4.976 -3.8473  2.1936 -0.0980
  192MOL0     H25312   3.046   5.833   5.047  0.5981  2.5359  0.2437
  192MOL0     H25313   3.187   5.900   4.984 -1.8716  1.3769  1.6456
  192MOL0     H25314   3.222   5.663   5.181  0.0074  0.1327  1.5822
  192MOL0     H25315   3.177   5.814   5.252 -3.4750 -0.9607 -0.1399
  192MOL0     H25316   3.411   5.810   5.057 -2.8465 -2.5841 -1.4302
  192MOL0     H25317   3.368   5.936   5.174 -1.2898 -1.1875  1.7227
  192MOL0     H25318   3.403   5.784   5.362 -0.9797  2.9514 -0.2979
  192MOL0     H25319   3.538   5.823   5.256 -1.0054  1.1663 -0.7317
  192MOL0     H25320   3.528   5.610   5.153  2.3541  2.2024  1.0365
  192MOL0     H25321   3.387   5.557   5.255 -0.1663  0.7598  4.1974
  192MOL0     H25322   3.656   5.645   5.372 -1.4372  1.6051 -0.4300
  192MOL0     H25323   3.531   5.567   5.453  1.7434 -0.9552  0.5565
  192MOL0     H25324   3.669   5.439   5.217  0.9520  0.5096 -0.1172
  192MOL0     H25325   3.544   5.365   5.308  2.0047 -1.3062 -0.8368
  192MOL0     H25326   2.891   5.616   4.690 -0.9140 -0.4468  1.7869
  192MOL0     H25327   2.887   5.405   4.548  0.0045  1.5988 -0.8964
  192MOL0     H25328   3.367   5.181   4.220  2.0071 -0.9740 -0.0461
  192MOL0     H25329   3.388   4.968   4.091 -0.8347 -0.3128 -1.6248
  192MOL0     H25330   3.407   3.357   3.254  0.6036 -5.0391 -1.8913
  192MOL0     H25331   3.194   3.252   3.192  0.8596  0.8809 -0.4030
  192MOL0     H25332   3.003   2.822   3.228 -0.6178 -2.8029 -0.7637
  192MOL0     H25333   2.845   2.677   3.145 -4.8646  0.1364 -0.0128
  192MOL0     H25334   2.691   2.514   3.200  2.9402  1.1926 -1.6834
  192MOL0     H25335   2.674   2.541   3.029  1.1257  0.9088  0.9154
  192MOL0     H25336   2.515   2.359   3.175 -0.6672  0.3570  0.0677
  192MOL0     H25337   2.429   2.502   3.218  1.0568  0.8347 -0.5134
  192MOL0     H25338   2.462   2.458   2.930  0.4680  0.3765  1.1636
  192MOL0     H25339   2.367   2.566   3.006  2.0747  1.1348 -0.5645
  192MOL0     H25340   2.238   2.348   3.090  0.5546 -3.6406  0.3009
  192MOL0     H25341   2.242   2.370   2.908 -1.4369 -1.9330  0.7709
  192MOL0     H25342   2.502   2.038   2.945 -0.5826  0.1026 -0.2150
  192MOL0     H25343   2.511   2.924   3.227 -0.0280 -0.1486 -0.3239
  192MOL0     H25344   2.674   3.093   3.324 -2.3733 -0.8542  1.7426
  193MOL0     O25345  10.879   3.511   9.381  0.2557 -0.6256 -0.7215
  193MOL0     C25346  10.758   3.515   9.374 -0.2807  0.2260  0.4060
  193MOL0     O25347  10.669   3.416   9.401  0.9754  1.0845 -0.2309
  193MOL0     C25348  10.699   3.287   9.427 -0.9829  0.4855  0.0276
  193MOL0     C25349  10.821   3.227   9.382 -0.3563 -0.1140  0.1962
  193MOL0     C25350  10.842   3.093   9.399  0.8688  0.4217 -0.0228
  193MOL0     C25351  10.754   3.016   9.475  0.5341  0.2745  0.3268
  193MOL0     O25352  10.770   2.881   9.467  0.1962 -0.8732 -0.3616
  193MOL0     C25353  10.749   2.807   9.586  0.1519 -0.1268 -0.8733
  193MOL0     C25354  10.793   2.663   9.569 -0.0996  0.6441 -0.2439
  193MOL0     C25355  10.941   2.649   9.517 -0.9713  0.6228 -0.1430
  193MOL0     C25356  10.963   2.496   9.487  0.0558  0.2620  0.9439
  193MOL0     C25357  10.991   2.415   9.624  0.9899 -0.4493  0.3794
  193MOL0     C25358  11.044   2.273   9.605  0.1147 -0.4229  0.3173
  193MOL0     C25359  10.929   2.193   9.534  0.2288 -0.2041  0.1821
  193MOL0     C25360  10.968   2.037   9.513  0.8426 -1.0170 -0.6017
  193MOL0     N25361  10.958   1.961   9.635  0.8163  0.7193  0.1901
  193MOL0     C25362  10.849   1.898   9.679 -0.6264 -0.3453 -0.1937
  193MOL0     C25363  10.904   1.821   9.778 -0.0050 -0.3356  0.0677
  193MOL0     C25364  10.835   1.723   9.863 -0.1383  0.0162 -0.1253
  193MOL0     C25365  10.767   1.611   9.788  0.8365  1.0976 -0.3835
  193MOL0     C25366  10.669   1.537   9.873  0.5315  0.4852 -0.1904
  193MOL0     C25367  10.571   1.445   9.805 -0.7238 -0.4206  0.4546
  193MOL0     O25368  10.472   1.400   9.892  0.1236 -0.1992  0.1187
  193MOL0     C25369  10.509   1.312   9.992  0.2789 -0.3701 -0.4266
  193MOL0     C25370  10.617   1.223   9.982 -0.0635 -0.2108 -0.7244
  193MOL0     C25371  10.645   1.146  10.094 -0.4376 -0.6903 -0.0110
  193MOL0     C25372  10.553   1.122  10.195  0.3234  0.8012 -0.6472
  193MOL0     C25373  10.577   1.039  10.317 -0.1144 -0.4547 -0.2009
  193MOL0     O25374  10.664   0.928  10.310 -0.3633 -0.3687  0.5894
  193MOL0     C25375  10.687   0.838  10.413 -0.3548  0.2952  0.1191
  193MOL0     C25376  10.602   0.827  10.518 -0.9626 -0.4492  0.3030
  193MOL0     C25377  10.640   0.747  10.627 -0.6425  0.4097 -0.9456
  193MOL0     C25378  10.767   0.682  10.632 -0.2804  0.1780 -0.8261
  193MOL0     O25379  10.803   0.607  10.744  0.1888  0.3481 -0.0233
  193MOL0     C25380  10.860   0.476  10.722  0.9957  0.3939 -0.5706
  193MOL0     C25381  10.871   0.382  10.841  1.2692  1.1561  1.3127
  193MOL0     C25382  10.956   0.446  10.949 -0.6060  0.5964 -1.0355
  193MOL0     C25383  10.967   0.356  11.068  0.6569 -0.5700 -0.0854
  193MOL0     C25384  10.992   0.437  11.197 -0.2232  0.4992  0.0738
  193MOL0     C25385  10.991   0.328  11.317  0.7261 -1.4538  0.6612
  193MOL0     C25386  11.023   0.391  11.459  0.9306  1.3250  0.9560
  193MOL0     C25387  11.039   0.284  11.572 -0.0104 -0.4716  0.5482
  193MOL0    Cl25388  10.892   0.179  11.582 -0.4707  0.1668  0.0834
  193MOL0     C25389  10.847   0.684  10.518  0.3529  0.5279 -0.2564
  193MOL0     C25390  10.804   0.764  10.417  0.5484 -1.3462  0.5458
  193MOL0     O25391  10.534   1.084  10.425 -0.3744 -0.1069  1.1646
  193MOL0     C25392  10.446   1.213  10.204 -0.1017  0.7104 -0.0597
  193MOL0     C25393  10.428   1.307  10.106  1.0747  0.6283  0.0487
  193MOL0     N25394  11.040   1.845   9.783 -0.2450  0.2829 -0.5381
  193MOL0     N25395  11.068   1.938   9.706 -0.0604  0.4263  0.0487
  193MOL0     C25396  10.634   3.075   9.523  0.1593  1.2403  0.7496
  193MOL0     C25397  10.610   3.206   9.498  0.5184  0.6184  0.3302
  193MOL0     C25398  10.701   3.655   9.356  0.1660  1.2970 -0.5168
  193MOL0     C25399  10.770   3.772   9.353 -0.3158 -0.7380 -0.1475
  193MOL0     C25400  10.710   3.900   9.343 -0.1826  1.2177  0.5635
  193MOL0     C25401  10.579   3.914   9.320 -0.5985  0.7119  0.6588
  193MOL0     O25402  10.527   4.043   9.312 -0.6014 -0.3990  0.5224
  193MOL0     C25403  10.392   4.074   9.279 -0.1147  0.2392  0.4824
  193MOL0     C25404  10.385   4.225   9.272  0.1290  0.6515  0.2566
  193MOL0     C25405  10.251   4.293   9.299  0.7892  0.7224 -0.5451
  193MOL0     C25406  10.219   4.322   9.452 -0.2237  0.8503  0.9795
  193MOL0     C25407  10.316   4.413   9.513  1.6698 -0.8894  0.9325
  193MOL0     C25408  10.383   4.497   9.574 -0.2473 -0.7047  0.3101
  193MOL0     C25409  10.502   3.794   9.316  0.7571  0.6942 -0.3020
  193MOL0     C25410  10.562   3.663   9.334  0.0723 -0.1994 -0.8323
  193MOL0     H25411  10.896   3.284   9.328  1.2563  2.6914  4.8704
  193MOL0     H25412  10.927   3.045   9.350 -2.9011 -1.6021 -5.6757
  193MOL0     H25413  10.642   2.805   9.607  0.2516 -0.7061 -0.3622
  193MOL0     H25414  10.805   2.847   9.671 -1.7247 -3.9966  2.5552
  193MOL0     H25415  10.719   2.607   9.511  2.0564 -0.8827 -1.7127
  193MOL0     H25416  10.779   2.619   9.668  2.5772  1.6680  0.6693
  193MOL0     H25417  11.008   2.682   9.596 -2.4246  0.8796  1.0247
  193MOL0     H25418  10.968   2.703   9.425  1.7989  2.7077  1.7236
  193MOL0     H25419  10.873   2.459   9.437  1.6853 -0.1266 -1.9281
  193MOL0     H25420  11.044   2.487   9.414 -1.3552 -3.6185 -0.4011
  193MOL0     H25421  10.890   2.417   9.665  0.5292  2.5850 -0.6553
  193MOL0     H25422  11.060   2.478   9.681 -0.5963  5.0583 -3.0863
  193MOL0     H25423  11.071   2.245   9.707 -0.3698  1.2357  0.9352
  193MOL0     H25424  11.132   2.267   9.540 -1.6165  3.3929 -2.8121
  193MOL0     H25425  10.835   2.220   9.584  0.0144 -1.2815  0.3895
  193MOL0     H25426  10.920   2.244   9.437 -1.7766 -0.8895 -0.0412
  193MOL0     H25427  11.070   2.012   9.483  0.6605 -0.8287 -1.4020
  193MOL0     H25428  10.911   2.003   9.426 -0.1344  0.9474 -0.7835
  193MOL0     H25429  10.752   1.902   9.630  0.2727 -1.2139 -2.1133
  193MOL0     H25430  10.761   1.794   9.900  1.4807  0.8484  1.6891
  193MOL0     H25431  10.888   1.684   9.950 -1.1711 -3.5243 -0.9183
  193MOL0     H25432  10.843   1.538   9.760  0.2800  0.5589 -0.5247
  193MOL0     H25433  10.726   1.651   9.694 -0.1170  0.1782 -0.3840
  193MOL0     H25434  10.714   1.477   9.952 -1.9927 -0.7682  0.3934
  193MOL0     H25435  10.607   1.604   9.934  3.0983  0.6467  2.4252
  193MOL0     H25436  10.626   1.362   9.759  0.0627  1.3011 -1.9261
  193MOL0     H25437  10.523   1.501   9.725  1.0781  1.7298  0.7849
  193MOL0     H25438  10.683   1.215   9.896  1.1687  3.3350 -0.2822
  193MOL0     H25439  10.737   1.088  10.097 -0.6113 -0.9165  1.3372
  193MOL0     H25440  10.509   0.882  10.524 -0.6694 -0.0873  2.4024
  193MOL0     H25441  10.587   0.745  10.721  0.0659 -1.2839 -0.5432
  193MOL0     H25442  10.958   0.477  10.674  0.0560  1.8174 -2.6184
  193MOL0     H25443  10.789   0.426  10.655 -2.0637  3.0152  0.4826
  193MOL0     H25444  10.904   0.284  10.805 -0.5811  0.6998  0.7723
  193MOL0     H25445  10.769   0.364  10.876  0.5214  2.7655  0.1046
  193MOL0     H25446  10.895   0.533  10.975 -3.1188 -1.1369 -0.7206
  193MOL0     H25447  11.054   0.473  10.910  1.3183 -1.8669  1.6953
  193MOL0     H25448  10.885   0.284  11.077 -1.2617  1.7343  3.1226
  193MOL0     H25449  11.053   0.290  11.057  1.6022  0.1788  2.2931
  193MOL0     H25450  10.921   0.519  11.214 -0.1290  0.9358 -1.4779
  193MOL0     H25451  11.084   0.495  11.189  1.6441 -2.0443  1.6091
  193MOL0     H25452  11.061   0.250  11.287  3.2403  0.7946  0.3127
  193MOL0     H25453  10.888   0.292  11.330  0.1924 -0.2485 -0.0074
  193MOL0     H25454  11.117   0.445  11.449  1.7623 -0.3189 -0.7339
  193MOL0     H25455  10.940   0.459  11.481  0.9687  1.2357  1.3828
  193MOL0     H25456  11.075   0.331  11.663 -4.2264  2.4226  0.9754
  193MOL0     H25457  11.122   0.220  11.541  1.0090 -0.5439  3.1917
  193MOL0     H25458  10.946   0.641  10.525 -0.8733 -2.2504  2.4245
  193MOL0     H25459  10.877   0.781  10.337 -0.3987  1.9338  0.2461
  193MOL0     H25460  10.385   1.213  10.293  0.5848  3.1080  0.4793
  193MOL0     H25461  10.351   1.384  10.110  1.1764  1.1624 -4.1590
  193MOL0     H25462  10.559   3.023   9.583 -1.4632 -1.4135 -3.1739
  193MOL0     H25463  10.510   3.243   9.514  0.2431  0.4108 -0.7775
  193MOL0     H25464  10.878   3.780   9.346 -0.4316  0.5763 -0.6269
  193MOL0     H25465  10.779   3.983   9.347 -0.8200  1.7444  0.7325
  193MOL0     H25466  10.341   4.028   9.364  4.5263  1.5363  4.4083
  193MOL0     H25467  10.364   4.026   9.184 -1.1369 -1.2924  1.5079
  193MOL0     H25468  10.469   4.263   9.330  0.2431  1.1566 -0.2344
  193MOL0     H25469  10.416   4.252   9.171 -0.5361  0.4054 -0.0229
  193MOL0     H25470  10.185   4.222   9.249 -0.6072  0.5423  1.4186
  193MOL0     H25471  10.250   4.388   9.244  3.3415 -0.3629 -2.6827
  193MOL0     H25472  10.117   4.357   9.473 -0.7990  0.0426 -0.3693
  193MOL0     H25473  10.235   4.225   9.501 -0.4675  0.5063  0.3899
  193MOL0     H25474  10.441   4.556   9.642 -0.9035 -0.5764  0.7712
  193MOL0     H25475  10.395   3.788   9.303  0.8402  2.4387 -2.3672
  193MOL0     H25476  10.514   3.566   9.349  0.7440 -0.3290  0.6803
  194MOL0     O25477  11.322   9.088   2.963  0.0381 -0.7680  0.4456
  194MOL0     C25478  11.433   9.068   2.908 -0.9609  0.1038 -0.2298
  194MOL0     O25479  11.556   9.117   2.950  0.4500 -0.2270  0.4934
  194MOL0     C25480  11.571   9.190   3.069  0.0644 -0.4910 -0.0199
  194MOL0     C25481  11.506   9.315   3.090  0.1720  0.3716 -0.9329
  194MOL0     C25482  11.523   9.393   3.207  0.9950 -0.7338 -0.3753
  194MOL0     C25483  11.610   9.348   3.301 -0.3152  0.2875  0.8383
  194MOL0     O25484  11.635   9.425   3.411 -0.3972 -0.0305 -0.6615
  194MOL0     C25485  11.533   9.460   3.505  0.2606  0.3885  0.3912
  194MOL0     C25486  11.528   9.371   3.632 -0.6803 -0.1644  0.0485
  194MOL0     C25487  11.655   9.414   3.715  0.2764  1.3188 -0.0645
  194MOL0     C25488  11.649   9.336   3.847  0.6618  0.5223 -0.2395
  194MOL0     C25489  11.721   9.410   3.958 -0.3509 -0.1978 -1.0297
  194MOL0     C25490  11.747   9.342   4.094 -0.2548 -0.1334  0.2806
  194MOL0     C25491  11.838   9.429   4.183  0.6354 -0.3072 -0.9968
  194MOL0     C25492  11.882   9.356   4.308 -0.8756  0.1775  0.3399
  194MOL0     N25493  11.974   9.256   4.267 -0.2285  0.1575 -0.7199
  194MOL0     C25494  12.094   9.271   4.193  1.0467 -0.4925 -0.1178
  194MOL0     C25495  12.150   9.149   4.200  0.0272 -0.4064 -0.4269
  194MOL0     C25496  12.283   9.109   4.136 -0.0428 -0.2228 -0.1645
  194MOL0     C25497  12.280   9.136   3.979  0.3107  0.6985  0.3704
  194MOL0     C25498  12.169   9.063   3.900 -0.8067  0.6772  0.6167
  194MOL0     C25499  12.052   9.152   3.859 -0.4740  0.3438 -0.4180
  194MOL0     O25500  11.962   9.085   3.774 -0.0123  0.3618 -0.3757
  194MOL0     C25501  11.991   9.067   3.636  1.1229  0.5972  0.1785
  194MOL0     C25502  12.102   9.109   3.568 -0.1430  0.8176 -0.9224
  194MOL0     C25503  12.116   9.083   3.437  0.3079 -0.3217 -0.2417
  194MOL0     C25504  12.016   9.022   3.358  0.2012 -0.2690 -0.8734
  194MOL0     C25505  12.021   9.026   3.206  0.3403  0.6355 -0.8288
  194MOL0     O25506  12.104   9.121   3.142 -0.2212 -0.6266 -0.1265
  194MOL0     C25507  12.178   9.092   3.027  0.3893  0.3723  0.9088
  194MOL0     C25508  12.182   8.950   2.974  0.1789  0.7397  0.7178
  194MOL0     C25509  12.254   8.925   2.861  0.5093  0.4109 -0.8917
  194MOL0     C25510  12.333   9.017   2.800  1.1199  1.0405 -0.5047
  194MOL0     O25511  12.404   8.981   2.681 -0.0987 -0.7641 -0.1958
  194MOL0     C25512  12.493   9.069   2.623  0.3484 -0.6735 -0.1038
  194MOL0     C25513  12.562   9.008   2.501  0.5777  0.1158 -0.1046
  194MOL0     C25514  12.634   9.128   2.427 -0.5403  0.7627 -0.7806
  194MOL0     C25515  12.748   9.080   2.355 -0.7074  0.1114  0.4525
  194MOL0     C25516  12.807   9.169   2.246  0.2213  0.1785 -0.1705
  194MOL0     C25517  12.942   9.113   2.190  0.7581 -0.4202  0.0602
  194MOL0     C25518  13.055   9.064   2.291  0.4716  0.5532  0.0869
  194MOL0     C25519  13.115   8.923   2.258 -0.1821  0.7352 -0.7851
  194MOL0    Cl25520  12.981   8.809   2.247  0.3632  0.0910  0.1872
  194MOL0     C25521  12.347   9.145   2.859 -0.5822  0.9313  0.5013
  194MOL0     C25522  12.269   9.179   2.974  0.8499 -0.1551  0.8616
  194MOL0     O25523  11.949   8.946   3.154 -0.4334 -0.8623  0.7881
  194MOL0     C25524  11.906   8.968   3.430  0.3414 -0.0285  0.2517
  194MOL0     C25525  11.888   8.989   3.573 -0.1419  0.4815  0.0942
  194MOL0     N25526  12.069   9.061   4.277  0.5934  0.6116  0.8360
  194MOL0     N25527  11.954   9.126   4.294  0.4645  0.6909 -0.3400
  194MOL0     C25528  11.687   9.232   3.275 -0.0796  0.5994 -0.6023
  194MOL0     C25529  11.666   9.153   3.160 -0.4189  0.8006  0.6428
  194MOL0     C25530  11.442   8.974   2.801 -0.3676  0.1547 -0.4708
  194MOL0     C25531  11.334   8.900   2.755  0.4184  0.1589  0.1583
  194MOL0     C25532  11.351   8.794   2.662  0.8011  0.6259 -1.2501
  194MOL0     C25533  11.472   8.777   2.594  0.1263 -0.4997  0.4652
  194MOL0     O25534  11.497   8.693   2.486  0.0203 -0.8774  0.6665
  194MOL0     C25535  11.409   8.580   2.450 -0.0305 -0.3407  0.2580
  194MOL0     C25536  11.422   8.473   2.560  0.5451  0.0736  0.2646
  194MOL0     C25537  11.550   8.400   2.540  0.0166  0.6004  0.9729
  194MOL0     C25538  11.588   8.301   2.654 -0.6067  0.6778  0.6019
  194MOL0     C25539  11.480   8.210   2.655 -0.2895  0.3316 -0.9020
  194MOL0     C25540  11.386   8.129   2.663 -0.1888  0.3293 -0.6206
  194MOL0     C25541  11.580   8.856   2.637  0.7212 -0.3401 -0.9434
  194MOL0     C25542  11.564   8.955   2.738  0.3774  0.5317  0.3403
  194MOL0     H25543  11.447   9.353   3.008 -2.0440  2.1936  1.3575
  194MOL0     H25544  11.464   9.480   3.233  0.9117 -0.6502 -0.8485
  194MOL0     H25545  11.433   9.455   3.459  0.1104 -2.4547  0.8320
  194MOL0     H25546  11.534   9.563   3.541 -2.8828  0.6465  0.0271
  194MOL0     H25547  11.539   9.267   3.598  0.2860 -0.7957  2.0852
  194MOL0     H25548  11.431   9.375   3.683 -1.1784 -2.3051 -0.5977
  194MOL0     H25549  11.657   9.523   3.716 -0.2362  1.3299  0.4188
  194MOL0     H25550  11.741   9.378   3.657  2.2144  3.0597  1.5567
  194MOL0     H25551  11.545   9.338   3.879  0.5149 -0.4216 -0.6387
  194MOL0     H25552  11.691   9.236   3.830 -0.1779  0.3945 -1.7313
  194MOL0     H25553  11.673   9.506   3.980  1.8648  0.1615  3.2177
  194MOL0     H25554  11.818   9.444   3.920 -0.4776  1.3307 -0.0579
  194MOL0     H25555  11.795   9.244   4.083 -1.4585 -0.8769  1.3472
  194MOL0     H25556  11.653   9.315   4.144  0.6782 -0.3440  1.9735
  194MOL0     H25557  11.920   9.465   4.119 -2.9795  2.1270 -4.7370
  194MOL0     H25558  11.779   9.515   4.212  1.1592 -0.0587 -0.6494
  194MOL0     H25559  11.808   9.301   4.367  0.2172 -1.2914  0.4096
  194MOL0     H25560  11.921   9.419   4.388  2.0313  0.6182 -1.2638
  194MOL0     H25561  12.128   9.357   4.136 -2.2155  0.7303 -0.4469
  194MOL0     H25562  12.303   9.002   4.149  0.4505 -0.2130 -0.8181
  194MOL0     H25563  12.365   9.159   4.188 -0.2686 -0.4173  0.3998
  194MOL0     H25564  12.382   9.116   3.944  0.7853 -0.9782  2.5048
  194MOL0     H25565  12.261   9.244   3.975  4.0541  1.5031  0.4691
  194MOL0     H25566  12.209   9.022   3.807 -0.6819  1.0688  0.4984
  194MOL0     H25567  12.118   8.985   3.958  1.1853 -1.6717 -0.6076
  194MOL0     H25568  12.100   9.238   3.810  3.0604 -0.8078  0.7520
  194MOL0     H25569  11.992   9.206   3.933  0.6528  2.4289 -0.9386
  194MOL0     H25570  12.184   9.162   3.615 -0.6895 -0.1233  1.2153
  194MOL0     H25571  12.212   9.116   3.400 -0.1528  1.1244 -0.2170
  194MOL0     H25572  12.117   8.871   3.009 -1.5155  0.3776 -2.8322
  194MOL0     H25573  12.243   8.819   2.836 -0.6486 -0.0967  1.5057
  194MOL0     H25574  12.571   9.103   2.691  1.9390 -1.5820 -1.3873
  194MOL0     H25575  12.449   9.157   2.576 -1.7755 -2.5324 -1.8939
  194MOL0     H25576  12.488   8.965   2.433 -1.6301  1.9540  1.0006
  194MOL0     H25577  12.624   8.922   2.528  0.5723  0.1514  0.0241
  194MOL0     H25578  12.667   9.204   2.499  0.5745  0.3938 -0.8894
  194MOL0     H25579  12.560   9.175   2.361 -0.3417 -1.6567 -2.8988
  194MOL0     H25580  12.824   9.054   2.430  1.9520  1.6649 -1.5423
  194MOL0     H25581  12.706   8.990   2.309 -0.2596 -0.9695  2.0639
  194MOL0     H25582  12.823   9.268   2.291 -1.0796 -0.1154  0.9824
  194MOL0     H25583  12.738   9.183   2.162  1.4800  0.7102 -1.1716
  194MOL0     H25584  12.988   9.188   2.125  0.1759 -0.6906 -0.6780
  194MOL0     H25585  12.910   9.030   2.127 -2.3022 -0.5517  1.6084
  194MOL0     H25586  13.130   9.144   2.296 -1.3096  2.4214 -0.9999
  194MOL0     H25587  13.012   9.057   2.391 -0.7581 -1.8258 -0.5423
  194MOL0     H25588  13.194   8.892   2.327 -1.1637 -2.6032 -1.0118
  194MOL0     H25589  13.157   8.932   2.157  1.8299 -1.6243 -0.2496
  194MOL0     H25590  12.419   9.216   2.821  1.1903 -0.5557  0.8890
  194MOL0     H25591  12.273   9.282   3.007  1.3209 -0.2023  0.9536
  194MOL0     H25592  11.825   8.924   3.373  1.9902  0.3094 -2.5869
  194MOL0     H25593  11.795   8.973   3.627 -2.1900  2.0395 -2.6906
  194MOL0     H25594  11.762   9.213   3.351 -1.5286  0.7042  0.9108
  194MOL0     H25595  11.738   9.074   3.143 -0.9372 -0.7523  4.7358
  194MOL0     H25596  11.242   8.912   2.810 -0.3341 -3.7691  0.0899
  194MOL0     H25597  11.262   8.735   2.642 -1.1791  1.4216  3.8414
  194MOL0     H25598  11.428   8.535   2.352 -3.4578 -2.9693  0.6056
  194MOL0     H25599  11.302   8.602   2.453 -1.2095 -5.0145 -0.2992
  194MOL0     H25600  11.414   8.513   2.661  1.3221  0.9828 -0.0200
  194MOL0     H25601  11.345   8.395   2.560 -0.6788  1.1453 -2.5440
  194MOL0     H25602  11.641   8.454   2.511 -0.2803  0.9881  0.7643
  194MOL0     H25603  11.530   8.340   2.450  1.5782 -0.1284  1.0595
  194MOL0     H25604  11.683   8.251   2.634 -0.8791 -0.2382  1.5062
  194MOL0     H25605  11.613   8.351   2.748  1.9529  2.7230 -1.0607
  194MOL0     H25606  11.303   8.061   2.655 -0.1365  0.0842  0.6142
  194MOL0     H25607  11.673   8.837   2.584  1.7522 -2.2017  1.3176
  194MOL0     H25608  11.651   9.012   2.772 -0.3162  0.7674  1.7586
  195MOL0     O25609   6.288   9.728   0.391  0.3444  0.0515 -0.0034
  195MOL0     C25610   6.226   9.674   0.293 -0.7338  0.1785  0.2182
  195MOL0     O25611   6.200   9.741   0.176  0.4646 -0.3973 -1.3729
  195MOL0     C25612   6.273   9.848   0.141 -0.0294 -0.3908  0.1931
  195MOL0     C25613   6.325   9.858   0.012  0.4086 -0.1335  0.0521
  195MOL0     C25614   6.381   9.973  -0.031 -1.2323  1.3179  1.0089
  195MOL0     C25615   6.386  10.090   0.045 -0.1157 -0.0289  0.3228
  195MOL0     O25616   6.443  10.210   0.010  0.5803  0.1025  0.5647
  195MOL0     C25617   6.562  10.201  -0.067 -1.0755  0.1698  0.5072
  195MOL0     C25618   6.662  10.122   0.015 -0.2021  0.4409  1.0090
  195MOL0     C25619   6.796  10.113  -0.048 -0.2019  0.7835 -0.1521
  195MOL0     C25620   6.902  10.047   0.042 -0.3254  0.2092  0.3005
  195MOL0     C25621   7.022  10.010  -0.035 -0.3772  0.3118 -0.2335
  195MOL0     C25622   7.121  10.124  -0.065 -0.0189  0.5532  0.0765
  195MOL0     C25623   7.102  10.197  -0.198  0.7788 -0.2114  1.0872
  195MOL0     C25624   7.210  10.295  -0.236 -0.0272 -0.3251  0.1079
  195MOL0     N25625   7.236  10.398  -0.126 -0.6436 -0.8860  0.2174
  195MOL0     C25626   7.337  10.383  -0.032  0.0708  0.3089  0.2987
  195MOL0     C25627   7.319  10.487   0.051  1.0773 -0.3585 -0.2436
  195MOL0     C25628   7.383  10.496   0.180  0.5195 -0.3785  0.1315
  195MOL0     C25629   7.322  10.406   0.286 -0.0954 -0.6299  0.2202
  195MOL0     C25630   7.440  10.333   0.360  0.0588  0.4538  0.7464
  195MOL0     C25631   7.372  10.225   0.445 -0.4581 -0.2919 -0.2467
  195MOL0     O25632   7.378  10.105   0.360 -0.1064 -0.0989  0.6236
  195MOL0     C25633   7.322   9.998   0.422  1.0628 -0.1894 -0.4007
  195MOL0     C25634   7.276   9.995   0.560 -0.7355  1.1371 -1.0372
  195MOL0     C25635   7.221   9.884   0.619  0.0031  0.4276 -0.1580
  195MOL0     C25636   7.201   9.767   0.549  0.8058 -0.6574  1.5462
  195MOL0     C25637   7.122   9.654   0.606  0.3840  0.3989  0.2582
  195MOL0     O25638   7.098   9.661   0.732 -0.0423  0.2170 -0.5493
  195MOL0     C25639   7.021   9.566   0.796  0.0816  0.2964  0.0219
  195MOL0     C25640   6.882   9.523   0.768  0.0561  0.8090  0.0444
  195MOL0     C25641   6.824   9.415   0.833  0.5604 -0.7128 -0.0262
  195MOL0     C25642   6.879   9.364   0.950  0.0952  0.5791  0.1707
  195MOL0     O25643   6.809   9.262   1.022 -0.6219 -1.0830  0.6035
  195MOL0     C25644   6.871   9.194   1.125 -0.5118  0.0505  0.2036
  195MOL0     C25645   6.764   9.106   1.190  0.0542  0.5473 -0.6077
  195MOL0     C25646   6.685   9.008   1.100 -0.7021  0.0981 -0.4688
  195MOL0     C25647   6.562   8.956   1.181  0.1021 -1.3713  1.0872
  195MOL0     C25648   6.457   9.060   1.225 -0.5558 -0.4658 -0.4941
  195MOL0     C25649   6.332   8.980   1.283 -0.3630 -0.4736 -0.1819
  195MOL0     C25650   6.285   9.068   1.403 -0.7551  1.1049 -0.9359
  195MOL0     C25651   6.156   9.006   1.465  1.1274  0.0456  0.1498
  195MOL0    Cl25652   6.182   8.857   1.561  0.4287  0.3850  0.1414
  195MOL0     C25653   7.005   9.422   0.983 -0.5471  0.4921  0.7835
  195MOL0     C25654   7.078   9.509   0.901 -1.0310  0.7331 -0.3300
  195MOL0     O25655   7.091   9.566   0.527 -0.5553  0.5434  0.2802
  195MOL0     C25656   7.232   9.770   0.412 -0.5538 -0.2292  0.0922
  195MOL0     C25657   7.299   9.877   0.355 -0.4136 -0.8433 -0.8273
  195MOL0     N25658   7.203  10.553   0.003 -0.7257 -0.6531 -0.3327
  195MOL0     N25659   7.161  10.510  -0.106  0.3529  0.0964 -0.6627
  195MOL0     C25660   6.329  10.085   0.171  0.1178 -0.6352 -0.6161
  195MOL0     C25661   6.265   9.968   0.215 -0.0661  1.3572 -0.7116
  195MOL0     C25662   6.184   9.537   0.315 -0.1175 -0.7754 -0.2320
  195MOL0     C25663   6.266   9.444   0.375  0.2225  0.0937  0.5884
  195MOL0     C25664   6.232   9.310   0.405  0.6989  0.2529 -0.0506
  195MOL0     C25665   6.097   9.281   0.374 -0.3799 -0.4367  0.0286
  195MOL0     O25666   6.057   9.158   0.412 -0.5498  0.6087  1.0209
  195MOL0     C25667   5.926   9.103   0.378  0.2171  0.4011  0.2657
  195MOL0     C25668   5.909   8.967   0.435 -0.4238  0.1070  0.1362
  195MOL0     C25669   6.018   8.866   0.374 -0.3796 -0.5443 -1.2783
  195MOL0     C25670   5.955   8.723   0.373 -0.4938 -0.2574 -0.2566
  195MOL0     C25671   5.904   8.674   0.505  0.6189 -0.3539 -0.2301
  195MOL0     C25672   5.866   8.626   0.608 -0.1397 -0.4786 -0.4007
  195MOL0     C25673   6.010   9.365   0.300 -1.0484 -0.4154  0.5140
  195MOL0     C25674   6.056   9.498   0.276 -0.0374  1.0282 -0.0746
  195MOL0     H25675   6.335   9.763  -0.039  1.8614 -0.6000  1.1340
  195MOL0     H25676   6.436   9.980  -0.124  0.8811 -1.3413  1.9300
  195MOL0     H25677   6.609  10.298  -0.084  1.9770 -1.4608 -1.1794
  195MOL0     H25678   6.544  10.157  -0.166 -2.5924 -0.6384  1.1033
  195MOL0     H25679   6.627  10.019   0.029 -2.4874  1.1214  0.8244
  195MOL0     H25680   6.671  10.172   0.112  0.4076  3.8494 -0.6558
  195MOL0     H25681   6.823  10.214  -0.080 -0.9523  0.1778 -2.9667
  195MOL0     H25682   6.788  10.072  -0.149 -0.8468  2.4138 -0.7998
  195MOL0     H25683   6.927  10.114   0.125 -0.0006  0.2985  0.1317
  195MOL0     H25684   6.863   9.952   0.081  1.7332 -0.5690  0.6210
  195MOL0     H25685   6.993   9.959  -0.127 -1.1317 -2.8337  1.5815
  195MOL0     H25686   7.089   9.942   0.020  0.3544  1.0554 -0.1876
  195MOL0     H25687   7.225  10.090  -0.070 -0.3730 -0.5351 -0.1079
  195MOL0     H25688   7.117  10.200   0.013 -0.4506  2.5586 -1.7932
  195MOL0     H25689   7.078  10.125  -0.277  0.2748  0.6710  0.4265
  195MOL0     H25690   7.008  10.253  -0.197  0.6630 -0.4118  1.7162
  195MOL0     H25691   7.179  10.351  -0.324  5.1419  1.5429 -0.8048
  195MOL0     H25692   7.301  10.243  -0.267  0.4798 -0.1709  1.2823
  195MOL0     H25693   7.412  10.304  -0.032  1.0316  1.1409 -1.8002
  195MOL0     H25694   7.370  10.597   0.220  0.0161  0.0038 -0.9500
  195MOL0     H25695   7.492  10.498   0.171  0.4084  0.3436 -1.4805
  195MOL0     H25696   7.253  10.335   0.238  0.0268 -0.4093 -0.2851
  195MOL0     H25697   7.266  10.468   0.356  1.2852 -1.3356  2.0104
  195MOL0     H25698   7.502  10.272   0.294 -3.9859 -3.5358  0.1873
  195MOL0     H25699   7.501  10.404   0.417  0.5904  1.2990 -0.8154
  195MOL0     H25700   7.271  10.252   0.479 -1.8855 -3.6252 -1.4361
  195MOL0     H25701   7.428  10.222   0.539  0.7524  3.5041 -0.6699
  195MOL0     H25702   7.283  10.078   0.630  1.9076 -0.3145  0.6013
  195MOL0     H25703   7.197   9.880   0.725  0.0628 -1.3734 -0.1832
  195MOL0     H25704   6.824   9.571   0.690 -3.0235  1.6018  2.6441
  195MOL0     H25705   6.719   9.393   0.815  0.5134 -0.0916 -0.5762
  195MOL0     H25706   6.921   9.258   1.198 -1.3976 -0.0495  0.9158
  195MOL0     H25707   6.941   9.121   1.083 -0.1391 -0.8843  2.3292
  195MOL0     H25708   6.695   9.180   1.231  0.0457  1.8699 -2.8581
  195MOL0     H25709   6.814   9.045   1.266 -1.6840 -0.4825 -0.2335
  195MOL0     H25710   6.746   8.923   1.069 -0.4134 -0.2993  1.1315
  195MOL0     H25711   6.649   9.065   1.013  1.9996  1.1442 -1.0056
  195MOL0     H25712   6.509   8.888   1.114 -1.4568  2.6810 -2.2410
  195MOL0     H25713   6.591   8.907   1.274  0.7106  1.6058  2.6068
  195MOL0     H25714   6.414   9.111   1.138 -0.8199 -0.6690 -0.4872
  195MOL0     H25715   6.497   9.133   1.296 -2.0388  0.3451 -0.4486
  195MOL0     H25716   6.371   8.882   1.311  4.3798  0.3221 -2.8799
  195MOL0     H25717   6.251   8.962   1.211 -0.3812  1.0792 -0.5873
  195MOL0     H25718   6.360   9.069   1.482 -0.6661  2.5582 -1.0109
  195MOL0     H25719   6.271   9.162   1.349  0.1776 -0.8501 -5.0336
  195MOL0     H25720   6.088   8.978   1.385 -0.2640  0.1380  1.2675
  195MOL0     H25721   6.100   9.078   1.525 -2.5879 -2.5623  0.1130
  195MOL0     H25722   7.053   9.385   1.073  1.4372  1.8411  0.3672
  195MOL0     H25723   7.174   9.539   0.941 -0.4985 -0.6992 -0.4583
  195MOL0     H25724   7.200   9.687   0.351 -1.4683  0.1685  0.0183
  195MOL0     H25725   7.325   9.863   0.251  0.9330 -0.3033 -0.5818
  195MOL0     H25726   6.349  10.172   0.232  0.4804 -0.6066 -0.7750
  195MOL0     H25727   6.224   9.962   0.315 -0.6181 -1.1979 -1.0347
  195MOL0     H25728   6.366   9.467   0.409  0.9681 -0.2288 -1.3094
  195MOL0     H25729   6.298   9.240   0.455  0.6962  2.1386  2.8373
  195MOL0     H25730   5.912   9.094   0.270 -2.0517 -1.5505  0.6408
  195MOL0     H25731   5.843   9.159   0.423 -1.2398 -2.6881  1.7226
  195MOL0     H25732   5.920   8.966   0.544  0.6324  0.4244  0.0377
  195MOL0     H25733   5.810   8.922   0.424 -3.8690  5.4786  3.7700
  195MOL0     H25734   6.111   8.861   0.431 -0.9500 -1.1360 -0.3730
  195MOL0     H25735   6.040   8.890   0.270  1.3281 -0.2850 -0.8930
  195MOL0     H25736   5.876   8.716   0.298  0.3764  1.0267 -1.3524
  195MOL0     H25737   6.019   8.642   0.337 -0.9460 -1.4660  1.5356
  195MOL0     H25738   5.829   8.571   0.692 -0.6711 -1.5176 -1.2917
  195MOL0     H25739   5.906   9.339   0.282 -1.1462 -0.4412  1.0890
  195MOL0     H25740   5.987   9.565   0.225 -0.5838 -0.8526 -1.9156
  196MOL0     O25741   4.459   4.175   6.951  0.6923 -0.6553  0.6804
  196MOL0     C25742   4.570   4.117   6.939  0.2938  0.1672 -0.5540
  196MOL0     O25743   4.634   4.072   6.817  0.2278 -0.6963 -0.9361
  196MOL0     C25744   4.572   4.109   6.701  0.0148 -0.2718  0.2249
  196MOL0     C25745   4.656   4.148   6.607 -0.1892  0.2673 -0.9064
  196MOL0     C25746   4.620   4.167   6.473 -0.5390  0.3499 -0.4586
  196MOL0     C25747   4.489   4.162   6.431  0.9143  1.1590 -0.0150
  196MOL0     O25748   4.473   4.172   6.296  0.2347  0.3799  0.5032
  196MOL0     C25749   4.337   4.169   6.245  0.3329 -0.8106 -0.4463
  196MOL0     C25750   4.341   4.180   6.093 -0.5508 -1.0084  0.0511
  196MOL0     C25751   4.419   4.076   6.025  0.5741  1.6941  0.1679
  196MOL0     C25752   4.327   3.953   5.992  0.1971 -0.1850 -0.2918
  196MOL0     C25753   4.377   3.829   5.920  0.2215 -0.2397 -0.8725
  196MOL0     C25754   4.421   3.859   5.778 -0.1535 -0.4464  0.2596
  196MOL0     C25755   4.424   3.719   5.694 -0.4204 -0.0908 -0.3797
  196MOL0     C25756   4.501   3.590   5.750  0.3243  0.1469  0.3876
  196MOL0     N25757   4.650   3.591   5.751 -0.2283  0.1897 -0.2064
  196MOL0     C25758   4.734   3.699   5.726  0.2838 -0.6090  1.0383
  196MOL0     C25759   4.867   3.656   5.740  1.0190  0.2509  0.2662
  196MOL0     C25760   4.989   3.746   5.728  0.0102  0.2285 -0.2792
  196MOL0     C25761   5.039   3.801   5.866 -0.0513  0.8040  0.1328
  196MOL0     C25762   4.932   3.844   5.960  0.1660 -0.8579 -0.1255
  196MOL0     C25763   4.982   3.922   6.085  0.4727 -0.0333 -0.1621
  196MOL0     O25764   5.036   4.045   6.043  0.5834 -0.1800  0.0485
  196MOL0     C25765   4.945   4.151   6.034 -1.0462 -0.7237 -0.6336
  196MOL0     C25766   4.828   4.170   6.115 -0.2651 -0.6047  0.5206
  196MOL0     C25767   4.745   4.283   6.098  0.2404 -0.0550  0.3172
  196MOL0     C25768   4.778   4.386   6.005 -0.3056 -0.2011 -0.6706
  196MOL0     C25769   4.694   4.495   5.975 -0.9978 -0.0506  0.7737
  196MOL0     O25770   4.567   4.499   6.039  0.3729  0.0253  0.3456
  196MOL0     C25771   4.478   4.612   6.035  0.1097 -0.4222 -0.2602
  196MOL0     C25772   4.342   4.583   6.052  0.0424  0.8665 -0.2704
  196MOL0     C25773   4.249   4.683   6.064  0.9455 -0.0458  0.3009
  196MOL0     C25774   4.286   4.816   6.056  0.7023 -0.3859  0.1069
  196MOL0     O25775   4.182   4.912   6.046 -0.1271  0.4921 -0.4093
  196MOL0     C25776   4.216   5.049   6.007 -0.4785 -0.5148  1.0413
  196MOL0     C25777   4.096   5.136   5.969 -0.2733  0.1638 -0.7634
  196MOL0     C25778   4.014   5.059   5.863 -0.3543 -0.2136 -0.6098
  196MOL0     C25779   3.884   5.131   5.828 -0.5710  0.7415 -0.6965
  196MOL0     C25780   3.809   5.064   5.716  0.7431 -0.1076 -0.6326
  196MOL0     C25781   3.677   5.149   5.683 -0.5960  0.0348 -0.9780
  196MOL0     C25782   3.569   5.141   5.795  0.4909 -0.2480 -0.1972
  196MOL0     C25783   3.434   5.103   5.748 -0.3058  0.0422  0.5155
  196MOL0    Cl25784   3.437   4.927   5.707 -0.0124  0.1769  0.4300
  196MOL0     C25785   4.419   4.848   6.046 -0.5704  0.4261  0.6877
  196MOL0     C25786   4.516   4.750   6.039  0.6663  1.1026  0.6004
  196MOL0     O25787   4.737   4.569   5.883  0.2976 -0.1008 -0.7908
  196MOL0     C25788   4.905   4.364   5.941  0.9395 -0.0932  0.1662
  196MOL0     C25789   4.975   4.250   5.947 -0.3127  1.1849 -0.3540
  196MOL0     N25790   4.862   3.523   5.794 -0.2189 -0.7773 -0.0188
  196MOL0     N25791   4.739   3.486   5.787 -0.3442  0.1524  0.1827
  196MOL0     C25792   4.391   4.136   6.526  0.0164 -0.0362  0.1199
  196MOL0     C25793   4.438   4.112   6.660 -0.1296  0.0595  1.1953
  196MOL0     C25794   4.646   4.097   7.062  0.4395  0.2258  0.6373
  196MOL0     C25795   4.621   4.176   7.176 -0.0976  0.1796 -0.5571
  196MOL0     C25796   4.700   4.157   7.294 -0.6001 -0.9916  1.2185
  196MOL0     C25797   4.803   4.070   7.298 -0.5213 -0.3696  0.3865
  196MOL0     O25798   4.880   4.036   7.409  0.4130 -0.1503 -0.1971
  196MOL0     C25799   4.905   4.141   7.504 -0.0929  0.6461 -0.6466
  196MOL0     C25800   4.960   4.085   7.639 -0.0463  0.7761 -0.1934
  196MOL0     C25801   5.063   4.183   7.702  0.4456  0.2715  0.3202
  196MOL0     C25802   5.137   4.123   7.824 -0.4829 -0.3253  0.4576
  196MOL0     C25803   5.248   4.203   7.862 -0.6041 -0.5624 -1.2034
  196MOL0     C25804   5.342   4.269   7.896 -0.4447 -0.8261  0.7062
  196MOL0     C25805   4.828   3.999   7.180  0.6248 -0.5065  0.3559
  196MOL0     C25806   4.757   4.011   7.063 -0.0912 -0.1312  0.0191
  196MOL0     H25807   4.759   4.136   6.637  0.4193  1.2019 -2.5010
  196MOL0     H25808   4.704   4.170   6.405 -0.3883 -0.8391 -0.3433
  196MOL0     H25809   4.272   4.246   6.287  1.6776 -0.0086  0.2187
  196MOL0     H25810   4.282   4.078   6.270 -2.2076  0.2710 -1.7065
  196MOL0     H25811   4.385   4.279   6.079 -1.0934 -0.8598 -0.6256
  196MOL0     H25812   4.238   4.190   6.059 -1.1159  3.6235  2.3407
  196MOL0     H25813   4.502   4.038   6.085  0.4887  0.2173 -0.6090
  196MOL0     H25814   4.472   4.120   5.940 -1.7830  1.7457 -1.3693
  196MOL0     H25815   4.286   3.923   6.089  1.8294  1.3999  0.9552
  196MOL0     H25816   4.243   3.993   5.935  0.6980 -0.7562 -1.4539
  196MOL0     H25817   4.302   3.750   5.921 -2.8266  2.2942 -3.9705
  196MOL0     H25818   4.468   3.802   5.974 -0.2859 -0.6674 -0.2148
  196MOL0     H25819   4.518   3.909   5.775 -0.1723 -0.4408 -2.1136
  196MOL0     H25820   4.359   3.929   5.722  0.6929 -1.1227 -1.6121
  196MOL0     H25821   4.330   3.685   5.649  0.5017  0.0344 -2.4828
  196MOL0     H25822   4.487   3.747   5.609 -0.5799 -0.3055 -0.5708
  196MOL0     H25823   4.480   3.516   5.672 -0.7172  0.6726  0.1500
  196MOL0     H25824   4.467   3.546   5.845 -1.4202  0.3806 -0.0909
  196MOL0     H25825   4.711   3.803   5.702 -0.5835 -0.9251  0.4671
  196MOL0     H25826   4.961   3.828   5.660 -3.4931 -1.5438 -1.2574
  196MOL0     H25827   5.074   3.696   5.681 -0.2526 -0.4921  0.0142
  196MOL0     H25828   5.108   3.884   5.847 -2.2050  2.6824  0.0883
  196MOL0     H25829   5.085   3.715   5.917 -3.2599 -0.2102  1.5628
  196MOL0     H25830   4.865   3.908   5.902  2.8408  0.4070 -2.0662
  196MOL0     H25831   4.862   3.768   5.995 -1.3494  1.6541  2.7628
  196MOL0     H25832   5.062   3.875   6.143 -0.4869 -0.9103  0.4650
  196MOL0     H25833   4.897   3.928   6.153 -1.7880 -1.2449 -2.7091
  196MOL0     H25834   4.800   4.105   6.197  1.1773  1.4376  2.7904
  196MOL0     H25835   4.653   4.290   6.155  1.1669  2.9615  1.6307
  196MOL0     H25836   4.305   4.484   6.075 -0.8449  1.0124 -1.0280
  196MOL0     H25837   4.145   4.656   6.074  1.0246 -0.1624  0.8734
  196MOL0     H25838   4.279   5.045   5.917 -2.3917  1.6572 -0.5304
  196MOL0     H25839   4.268   5.104   6.086  1.7902  0.5459 -1.0500
  196MOL0     H25840   4.119   5.230   5.919 -0.3444 -0.8684 -2.8464
  196MOL0     H25841   4.024   5.153   6.050  2.0298 -1.9342  1.9051
  196MOL0     H25842   3.992   4.955   5.891  0.5651 -0.2208  0.1612
  196MOL0     H25843   4.077   5.054   5.774  2.3248 -0.6572  1.2066
  196MOL0     H25844   3.819   5.135   5.915  0.2548  1.7521 -0.0992
  196MOL0     H25845   3.912   5.229   5.787  2.4379 -0.6393 -2.2637
  196MOL0     H25846   3.776   4.963   5.742  0.1074 -0.0395 -1.1417
  196MOL0     H25847   3.866   5.055   5.624 -1.0206 -0.4342 -1.7428
  196MOL0     H25848   3.632   5.125   5.586  0.8269 -1.9949 -1.2081
  196MOL0     H25849   3.706   5.253   5.667  1.5544  0.1297  2.5098
  196MOL0     H25850   3.589   5.070   5.877 -0.7887 -3.0772 -2.1757
  196MOL0     H25851   3.572   5.243   5.833 -0.3307  0.1741 -1.2338
  196MOL0     H25852   3.413   5.167   5.662  0.3505  0.2672  0.5152
  196MOL0     H25853   3.372   5.114   5.838 -0.9203 -0.3018  0.1407
  196MOL0     H25854   4.441   4.954   6.047 -0.2516  0.3639  1.9084
  196MOL0     H25855   4.621   4.775   6.037  1.7659 -2.9109 -0.3456
  196MOL0     H25856   4.943   4.442   5.876  0.6617 -1.2365 -1.4430
  196MOL0     H25857   5.065   4.228   5.889  0.1020  3.5064 -0.6802
  196MOL0     H25858   4.284   4.117   6.526 -0.1474  0.7992  0.8418
  196MOL0     H25859   4.367   4.091   6.739 -0.7677  2.1561  1.2552
  196MOL0     H25860   4.537   4.244   7.173 -0.9660 -0.8484 -0.3641
  196MOL0     H25861   4.671   4.222   7.376  0.4608 -0.8028  1.4605
  196MOL0     H25862   4.818   4.207   7.514  1.3897  3.3730 -3.8295
  196MOL0     H25863   4.979   4.205   7.456  0.5135 -2.4277 -4.3201
  196MOL0     H25864   4.880   4.042   7.701 -1.1270  2.6031 -0.2526
  196MOL0     H25865   5.026   4.003   7.609 -0.2963  1.0054 -1.4069
  196MOL0     H25866   5.008   4.271   7.736 -0.0063  0.9692 -2.0240
  196MOL0     H25867   5.141   4.207   7.629  0.3838  1.0887  0.5162
  196MOL0     H25868   5.061   4.099   7.899 -0.7534 -0.2932  0.1941
  196MOL0     H25869   5.177   4.025   7.795 -0.8917 -0.4786  0.3982
  196MOL0     H25870   5.425   4.333   7.919 -0.0031 -1.4344  0.8273
  196MOL0     H25871   4.911   3.930   7.190  2.2156  1.2788  0.0900
  196MOL0     H25872   4.778   3.945   6.980 -0.8036 -1.3369  0.7639
  197MOL0     O25873   4.203  11.054  10.195 -0.3876  0.2697 -0.5111
  197MOL0     C25874   4.138  11.148  10.176  1.0640  0.4803 -0.9905
  197MOL0     O25875   4.052  11.202  10.264  0.0457 -0.1731  0.4374
  197MOL0     C25876   4.037  11.168  10.399  0.1698  0.7519  0.3394
  197MOL0     C25877   4.063  11.039  10.448 -0.1813  1.2029 -0.7868
  197MOL0     C25878   4.036  11.014  10.584 -1.9410  0.4677  0.0566
  197MOL0     C25879   3.996  11.113  10.668 -0.2602  0.5942 -0.1495
  197MOL0     O25880   3.968  11.073  10.797 -0.3106 -0.4859  0.8860
  197MOL0     C25881   4.072  11.057  10.897  0.5852  0.2718 -1.0312
  197MOL0     C25882   4.007  11.052  11.043  0.3910 -0.5469  0.1617
  197MOL0     C25883   3.904  10.940  11.051 -0.2625 -0.0639  0.9598
  197MOL0     C25884   3.848  10.939  11.202 -0.9736  1.3620  0.1408
  197MOL0     C25885   3.719  10.869  11.219  0.0072  0.1811  1.0083
  197MOL0     C25886   3.710  10.733  11.147 -0.7699  0.4373 -0.8856
  197MOL0     C25887   3.815  10.620  11.180 -0.1454  0.4775 -0.2474
  197MOL0     C25888   3.824  10.574  11.318  1.2928  1.2612 -0.2327
  197MOL0     N25889   3.699  10.509  11.363  0.1142 -1.0183  0.2731
  197MOL0     C25890   3.643  10.399  11.299 -0.2300  0.1498  0.2877
  197MOL0     C25891   3.511  10.403  11.344 -0.2739 -0.3102  0.2904
  197MOL0     C25892   3.392  10.311  11.307 -0.4939 -0.1956  0.0889
  197MOL0     C25893   3.337  10.357  11.173  0.2460  0.1092  0.2494
  197MOL0     C25894   3.188  10.303  11.151 -0.1057  0.0918 -1.4198
  197MOL0     C25895   3.150  10.306  11.007 -0.4950  0.1288  0.0670
  197MOL0     O25896   3.103  10.433  10.965 -0.1512 -0.0094 -0.8165
  197MOL0     C25897   3.129  10.474  10.833 -0.0371  0.3370 -0.4369
  197MOL0     C25898   3.124  10.382  10.730  0.0335 -0.5944  0.2136
  197MOL0     C25899   3.142  10.423  10.598 -0.5903 -0.2520 -0.0656
  197MOL0     C25900   3.161  10.558  10.560 -0.4159  1.0143 -0.6256
  197MOL0     C25901   3.173  10.610  10.418  0.5239 -0.3417  0.0238
  197MOL0     O25902   3.197  10.509  10.336 -0.4742 -0.4449  1.0672
  197MOL0     C25903   3.219  10.541  10.199 -0.5015 -0.1625 -0.4555
  197MOL0     C25904   3.302  10.645  10.158 -0.2518 -0.5035  0.2400
  197MOL0     C25905   3.331  10.654  10.016 -0.3913  0.1910 -0.6558
  197MOL0     C25906   3.278  10.568   9.923 -0.0836  1.2628 -0.6203
  197MOL0     O25907   3.317  10.599   9.798 -0.2164  0.7900  0.2228
  197MOL0     C25908   3.319  10.491   9.690 -0.0326 -0.4330 -0.9539
  197MOL0     C25909   3.450  10.408   9.695  0.4499  0.1672  0.1930
  197MOL0     C25910   3.462  10.300   9.573 -0.4129 -0.8865 -0.7704
  197MOL0     C25911   3.603  10.249   9.575  0.5273  0.6293 -0.0811
  197MOL0     C25912   3.609  10.133   9.466  1.7348  0.1986 -0.3935
  197MOL0     C25913   3.742  10.055   9.463  0.5902  0.3411  0.5342
  197MOL0     C25914   3.751   9.969   9.326 -0.0460 -0.2931 -0.3676
  197MOL0     C25915   3.672   9.844   9.322 -0.5380  0.0781  0.0673
  197MOL0    Cl25916   3.506   9.877   9.293 -0.0916  0.1751 -0.3846
  197MOL0     C25917   3.181  10.477   9.958  0.6143  0.5570 -0.2357
  197MOL0     C25918   3.158  10.457  10.103 -0.0681 -0.4984 -0.0084
  197MOL0     O25919   3.157  10.728  10.394  0.4511  0.0384  0.1504
  197MOL0     C25920   3.133  10.654  10.659 -0.0806  1.1127 -0.5726
  197MOL0     C25921   3.122  10.605  10.795 -0.1283 -0.6890  0.7729
  197MOL0     N25922   3.490  10.516  11.423 -0.5642  0.1344 -0.1562
  197MOL0     N25923   3.606  10.559  11.449  0.3586 -0.4438 -0.5121
  197MOL0     C25924   3.981  11.245  10.620  0.2645 -0.3116 -0.3959
  197MOL0     C25925   3.994  11.264  10.480 -0.0856  0.1255  0.5159
  197MOL0     C25926   4.156  11.206  10.050 -0.5541 -0.2093 -0.9103
  197MOL0     C25927   4.085  11.329  10.022 -0.8892 -0.1593  0.1075
  197MOL0     C25928   4.113  11.395   9.899  0.2658 -0.4099 -0.0912
  197MOL0     C25929   4.185  11.332   9.801 -0.5056  0.3130 -0.0969
  197MOL0     O25930   4.204  11.378   9.673 -0.1170 -0.3270  0.8604
  197MOL0     C25931   4.192  11.523   9.664 -0.0231  0.4921 -0.8711
  197MOL0     C25932   4.230  11.588   9.533 -0.0615 -0.6452 -0.6251
  197MOL0     C25933   4.372  11.536   9.496  0.8873 -0.5219  0.1961
  197MOL0     C25934   4.443  11.582   9.371  0.4239  0.4233  0.4739
  197MOL0     C25935   4.372  11.536   9.242  0.3609  0.0073  0.1667
  197MOL0     C25936   4.295  11.522   9.155 -0.7803  0.9939  0.2569
  197MOL0     C25937   4.238  11.206   9.819 -0.1044  0.2205  0.6916
  197MOL0     C25938   4.220  11.144   9.943  0.1567 -0.4678  0.5469
  197MOL0     H25939   4.099  10.966  10.377 -1.0032  0.6160 -0.6085
  197MOL0     H25940   4.028  10.909  10.611 -2.6614  0.9234  1.7907
  197MOL0     H25941   4.139  11.144  10.903 -2.2050  2.4630  0.4909
  197MOL0     H25942   4.128  10.964  10.879 -0.3807 -0.5188 -0.1155
  197MOL0     H25943   3.954  11.148  11.049  1.8436  0.8546 -4.7670
  197MOL0     H25944   4.071  11.038  11.131 -1.7738 -1.4255  1.6907
  197MOL0     H25945   3.952  10.843  11.036  0.3208 -0.0987  2.7957
  197MOL0     H25946   3.819  10.955  10.984 -0.2773  0.6033  1.1193
  197MOL0     H25947   3.929  10.880  11.246 -1.9812 -3.5111 -3.6032
  197MOL0     H25948   3.844  11.039  11.246 -1.4680  0.5266  2.1142
  197MOL0     H25949   3.634  10.922  11.175  1.3301 -0.4307 -2.5391
  197MOL0     H25950   3.703  10.851  11.326  1.2102  2.1721  1.5824
  197MOL0     H25951   3.712  10.761  11.042  0.1804  3.9510 -0.0587
  197MOL0     H25952   3.615  10.681  11.160  0.3893 -1.6441 -0.2404
  197MOL0     H25953   3.786  10.539  11.113 -1.0903 -2.0502  2.9618
  197MOL0     H25954   3.915  10.654  11.153 -0.6282  2.0394 -0.1983
  197MOL0     H25955   3.829  10.665  11.380 -0.2877  0.9451  0.3993
  197MOL0     H25956   3.912  10.509  11.314  1.0222  0.9720 -1.8733
  197MOL0     H25957   3.690  10.321  11.239  0.4718  2.2723 -2.0869
  197MOL0     H25958   3.318  10.313  11.388 -2.3540 -3.9554 -1.2986
  197MOL0     H25959   3.430  10.209  11.301  0.9382  0.3203  0.0007
  197MOL0     H25960   3.400  10.323  11.091  0.4689  2.3835 -0.5722
  197MOL0     H25961   3.323  10.465  11.168  3.2127  0.8989  3.9749
  197MOL0     H25962   3.171  10.202  11.191 -0.9731  0.4763 -0.7687
  197MOL0     H25963   3.116  10.358  11.212  1.3795 -1.4946  2.0513
  197MOL0     H25964   3.067  10.237  10.990 -0.2112 -0.1573 -0.1930
  197MOL0     H25965   3.226  10.259  10.943 -0.4090  2.7115 -1.8918
  197MOL0     H25966   3.114  10.277  10.758 -0.9469 -0.4035  0.6050
  197MOL0     H25967   3.119  10.351  10.520 -2.0292  0.3919 -0.2769
  197MOL0     H25968   3.346  10.719  10.225 -0.2745  0.6327 -0.9419
  197MOL0     H25969   3.412  10.722   9.989  0.0116 -0.9552 -2.4888
  197MOL0     H25970   3.321  10.548   9.597  3.2957 -2.4565 -2.2946
  197MOL0     H25971   3.228  10.430   9.694 -1.4688  1.5816 -1.1495
  197MOL0     H25972   3.447  10.354   9.790  1.0822  1.2192  0.8262
  197MOL0     H25973   3.528  10.485   9.695 -0.3771  1.0310 -0.5774
  197MOL0     H25974   3.433  10.349   9.480 -3.1126 -1.4235 -0.2944
  197MOL0     H25975   3.390  10.218   9.581 -1.7041  0.3816  1.8817
  197MOL0     H25976   3.675  10.331   9.561  2.3592 -0.1247  3.7461
  197MOL0     H25977   3.625  10.208   9.674 -1.8940 -2.5551 -0.7048
  197MOL0     H25978   3.588  10.185   9.372 -0.6056  0.9664  0.4987
  197MOL0     H25979   3.531  10.061   9.491  2.1884  0.0884  0.7785
  197MOL0     H25980   3.767  10.000   9.554  4.0239  1.8733  0.6701
  197MOL0     H25981   3.819  10.131   9.447 -0.6064  0.8687 -5.0780
  197MOL0     H25982   3.726  10.031   9.239 -2.8937 -1.6303 -0.5950
  197MOL0     H25983   3.857   9.940   9.329 -0.6076 -2.7655 -1.8306
  197MOL0     H25984   3.679   9.788   9.415 -0.6082  2.2850  1.4867
  197MOL0     H25985   3.705   9.783   9.238  0.5946 -2.6272  2.3315
  197MOL0     H25986   3.144  10.411   9.879  1.9813  1.4122 -1.6513
  197MOL0     H25987   3.094  10.374  10.131 -0.8201 -0.0542 -0.3699
  197MOL0     H25988   3.126  10.762  10.646 -0.4330  0.9385 -1.9629
  197MOL0     H25989   3.109  10.684  10.868 -0.8039 -1.8902  2.0104
  197MOL0     H25990   3.937  11.317  10.688  0.1285 -0.3635 -0.4280
  197MOL0     H25991   3.992  11.360  10.429 -0.4047  0.1381  0.5519
  197MOL0     H25992   4.016  11.373  10.094 -2.1590  1.8090 -2.1481
  197MOL0     H25993   4.068  11.493   9.885  0.4546 -0.1631  0.9258
  197MOL0     H25994   4.244  11.571   9.747  2.1451 -1.6507 -0.8731
  197MOL0     H25995   4.085  11.539   9.682 -0.2061 -1.9004  0.6537
  197MOL0     H25996   4.156  11.568   9.455 -4.4106  0.2521  2.9177
  197MOL0     H25997   4.246  11.696   9.540 -0.0859 -0.6773 -0.0932
  197MOL0     H25998   4.374  11.427   9.495 -2.7284 -0.7224  1.1194
  197MOL0     H25999   4.434  11.562   9.582  1.6311  1.0176 -0.7552
  197MOL0     H26000   4.436  11.692   9.371  1.8329  0.5342  0.2176
  197MOL0     H26001   4.550  11.565   9.357  0.9920  2.3528  1.9577
  197MOL0     H26002   4.243  11.511   9.062 -1.7369  1.6605  0.6989
  197MOL0     H26003   4.307  11.163   9.748  0.7965 -4.1948  3.7963
  197MOL0     H26004   4.275  11.051   9.950  1.5615  0.2314 -0.7472
  198MOL0     O26005   9.721   5.186   3.482 -0.3171 -0.4123 -0.1848
  198MOL0     C26006   9.668   5.104   3.554 -0.1106 -0.0252  0.4002
  198MOL0     O26007   9.603   5.130   3.663 -0.3259  0.1106 -0.3430
  198MOL0     C26008   9.635   5.241   3.733 -0.5184  0.4195  0.5143
  198MOL0     C26009   9.750   5.256   3.798 -0.4734 -0.4311 -0.0637
  198MOL0     C26010   9.766   5.373   3.875  0.0340  0.4072  0.6674
  198MOL0     C26011   9.665   5.467   3.882  0.6660 -0.7133 -0.6060
  198MOL0     O26012   9.666   5.591   3.951  0.0982  0.7184 -0.0759
  198MOL0     C26013   9.767   5.604   4.052 -0.8728 -0.4278 -0.7678
  198MOL0     C26014   9.891   5.700   4.006  0.3353  1.2983 -0.3356
  198MOL0     C26015   9.956   5.672   3.867  0.1325  0.9468 -0.5445
  198MOL0     C26016  10.068   5.762   3.837 -0.6086  0.2177 -0.1258
  198MOL0     C26017  10.144   5.766   3.697  0.3909 -0.5793 -0.4153
  198MOL0     C26018  10.249   5.888   3.688 -0.3825  1.0468 -0.0438
  198MOL0     C26019  10.341   5.881   3.566 -0.7286  0.0391  0.8891
  198MOL0     C26020  10.447   5.998   3.552  0.0170  0.4885  0.0746
  198MOL0     N26021  10.375   6.128   3.560  0.3686  0.4023  0.1045
  198MOL0     C26022  10.310   6.195   3.666  1.0601 -0.5007  0.2185
  198MOL0     C26023  10.270   6.318   3.612  0.1949 -0.1077 -0.0768
  198MOL0     C26024  10.188   6.436   3.678  0.1850 -0.1430 -0.7449
  198MOL0     C26025  10.051   6.387   3.734 -0.5327  0.0689  0.8690
  198MOL0     C26026   9.970   6.332   3.618  0.7355 -0.2901  0.8747
  198MOL0     C26027   9.828   6.293   3.661  0.8397 -0.2143  0.3529
  198MOL0     O26028   9.822   6.212   3.779 -0.2295 -0.4010 -0.2853
  198MOL0     C26029   9.717   6.128   3.792 -0.5767 -0.9302 -0.6591
  198MOL0     C26030   9.588   6.174   3.769  0.5500 -0.6366  0.4753
  198MOL0     C26031   9.481   6.100   3.811  0.0347  0.4677 -0.8609
  198MOL0     C26032   9.504   5.977   3.878  0.4687  0.2343  0.5576
  198MOL0     C26033   9.397   5.895   3.940  0.5017  0.2876  0.6114
  198MOL0     O26034   9.305   5.960   4.016 -0.1155 -0.8709 -0.6964
  198MOL0     C26035   9.207   5.877   4.075 -0.0926 -1.5194  0.3217
  198MOL0     C26036   9.097   5.823   4.003 -0.0571  0.9805 -0.4619
  198MOL0     C26037   8.995   5.766   4.088 -0.5675 -1.5674  0.0134
  198MOL0     C26038   9.004   5.748   4.227 -0.1126  0.1641 -0.8915
  198MOL0     O26039   8.914   5.680   4.308  0.7753 -0.2117  0.1386
  198MOL0     C26040   8.822   5.584   4.246  0.6447  0.3066  0.4348
  198MOL0     C26041   8.874   5.450   4.289  0.1634 -0.2557 -0.0449
  198MOL0     C26042   8.768   5.339   4.249  0.0414  0.3532 -0.1860
  198MOL0     C26043   8.800   5.198   4.292 -0.7467  0.5145  1.0538
  198MOL0     C26044   8.722   5.096   4.219 -0.7803  0.8794  0.5309
  198MOL0     C26045   8.774   4.950   4.237 -0.3072 -0.5663 -0.2468
  198MOL0     C26046   8.700   4.846   4.150 -0.6285 -0.0523 -0.8389
  198MOL0     C26047   8.553   4.874   4.167  1.0062  0.3740  0.3097
  198MOL0    Cl26048   8.451   4.741   4.108  0.3662 -0.1494  0.1139
  198MOL0     C26049   9.111   5.813   4.282  0.2663 -0.2107 -0.0122
  198MOL0     C26050   9.209   5.879   4.211  0.2269  0.2334 -0.1702
  198MOL0     O26051   9.404   5.772   3.913  0.1053  0.0269 -0.8175
  198MOL0     C26052   9.630   5.924   3.890 -0.5244 -0.6119 -0.0568
  198MOL0     C26053   9.735   6.003   3.844 -0.0133 -0.2492 -0.1001
  198MOL0     N26054  10.305   6.308   3.479  0.4911 -0.4646  0.1908
  198MOL0     N26055  10.355   6.200   3.448 -0.3412 -0.5803 -0.2625
  198MOL0     C26056   9.551   5.455   3.804 -0.4590  0.2119 -0.0434
  198MOL0     C26057   9.535   5.338   3.737  0.4232 -0.5167 -0.7687
  198MOL0     C26058   9.664   4.973   3.495 -0.5352  0.1440 -0.8248
  198MOL0     C26059   9.643   4.858   3.575 -0.9529  1.7123  0.1324
  198MOL0     C26060   9.641   4.726   3.516 -0.1406  0.3806 -0.5617
  198MOL0     C26061   9.692   4.708   3.386 -0.0510 -0.0210  0.0718
  198MOL0     O26062   9.719   4.580   3.351 -0.6877 -0.0884 -0.2766
  198MOL0     C26063   9.710   4.549   3.217  0.8293  0.0319 -0.4314
  198MOL0     C26064   9.684   4.397   3.201 -0.7589 -0.9115 -0.2395
  198MOL0     C26065   9.795   4.302   3.263  0.5313 -0.5664  0.8689
  198MOL0     C26066   9.725   4.185   3.316  0.8684  0.4140  0.6206
  198MOL0     C26067   9.690   4.097   3.198  0.2110  0.5927  0.4819
  198MOL0     C26068   9.643   4.045   3.095 -1.4906  0.4910 -0.5583
  198MOL0     C26069   9.707   4.817   3.300 -0.2712 -0.4461  0.2761
  198MOL0     C26070   9.693   4.947   3.361  1.1169  0.2903 -0.4486
  198MOL0     H26071   9.830   5.183   3.802  0.1735  0.3033  0.7792
  198MOL0     H26072   9.868   5.381   3.910  1.4799 -0.8164 -2.8032
  198MOL0     H26073   9.808   5.507   4.081 -1.3873 -2.1002 -4.9453
  198MOL0     H26074   9.714   5.643   4.140  1.0818  4.1785 -1.3900
  198MOL0     H26075   9.969   5.681   4.081  1.0771  2.1073 -0.8968
  198MOL0     H26076   9.848   5.797   4.031  0.9772  1.3499  0.6460
  198MOL0     H26077   9.888   5.677   3.781 -0.5829 -1.6616 -0.2168
  198MOL0     H26078   9.992   5.569   3.879 -0.8207  0.9249  3.2322
  198MOL0     H26079  10.043   5.866   3.860 -1.3270 -0.1633  0.8593
  198MOL0     H26080  10.142   5.730   3.912 -0.3795  1.9869  0.4544
  198MOL0     H26081  10.081   5.767   3.607 -2.0291  1.8670  1.1477
  198MOL0     H26082  10.197   5.671   3.687  3.1302  0.9788 -1.9345
  198MOL0     H26083  10.322   5.880   3.769  0.6851 -1.9684 -1.1346
  198MOL0     H26084  10.186   5.977   3.681 -0.0573  1.2779 -0.0749
  198MOL0     H26085  10.387   5.782   3.559  1.3285  0.9681  0.6977
  198MOL0     H26086  10.279   5.891   3.477  1.6900 -1.3324 -1.0765
  198MOL0     H26087  10.497   5.978   3.457  2.0599  1.1562  0.9407
  198MOL0     H26088  10.521   6.000   3.633 -0.0561 -1.5035  0.2323
  198MOL0     H26089  10.283   6.167   3.767 -2.3425 -3.5171 -1.3193
  198MOL0     H26090  10.157   6.514   3.609 -0.5705  0.7516  0.5546
  198MOL0     H26091  10.255   6.477   3.755 -0.6981 -1.1281  0.5978
  198MOL0     H26092  10.015   6.481   3.778  2.6106  0.9465  1.8575
  198MOL0     H26093  10.074   6.308   3.807  1.5301 -1.4362 -1.2905
  198MOL0     H26094   9.967   6.415   3.547  0.4395 -0.2302  0.9559
  198MOL0     H26095  10.017   6.242   3.577 -0.3165  0.1116 -1.3322
  198MOL0     H26096   9.790   6.237   3.575  3.7366 -2.0794  0.1843
  198MOL0     H26097   9.765   6.382   3.672 -0.0856 -1.0689  2.4565
  198MOL0     H26098   9.557   6.272   3.734 -0.0815 -1.0354 -0.1005
  198MOL0     H26099   9.381   6.144   3.809 -0.6894 -1.0896 -0.6988
  198MOL0     H26100   9.091   5.820   3.895 -1.0141 -2.0820 -0.4122
  198MOL0     H26101   8.907   5.732   4.034 -0.3588 -0.3201 -1.1431
  198MOL0     H26102   8.828   5.568   4.138  0.8074  1.5463  0.2423
  198MOL0     H26103   8.718   5.599   4.277  0.3203 -2.7248  1.1094
  198MOL0     H26104   8.897   5.449   4.396 -0.5213 -2.3612  0.1313
  198MOL0     H26105   8.969   5.432   4.238  0.0732  1.8900 -1.1000
  198MOL0     H26106   8.765   5.340   4.140  0.1614 -0.2084 -0.1978
  198MOL0     H26107   8.666   5.355   4.286 -1.4902  1.2145 -4.2770
  198MOL0     H26108   8.903   5.190   4.258 -0.8434  3.5447 -0.3411
  198MOL0     H26109   8.790   5.181   4.399  0.1668 -2.4972  0.7401
  198MOL0     H26110   8.725   5.123   4.113  0.6538  0.2497  0.3919
  198MOL0     H26111   8.622   5.099   4.263 -0.5574 -0.5538  1.2002
  198MOL0     H26112   8.762   4.923   4.343  2.3440 -1.8646 -0.1988
  198MOL0     H26113   8.877   4.954   4.201 -0.9164  1.7701 -1.9668
  198MOL0     H26114   8.721   4.857   4.043  1.5409  4.4543 -0.1689
  198MOL0     H26115   8.733   4.750   4.189 -0.9197  0.7376  1.4736
  198MOL0     H26116   8.526   4.965   4.113 -2.2707 -0.7936 -0.2556
  198MOL0     H26117   8.533   4.879   4.275  3.0280 -2.5105  0.9441
  198MOL0     H26118   9.139   5.811   4.387  4.1867 -0.3065 -0.9196
  198MOL0     H26119   9.292   5.920   4.268  0.2016  2.3894 -1.5501
  198MOL0     H26120   9.632   5.836   3.953  0.1691 -1.9481 -1.8976
  198MOL0     H26121   9.835   5.961   3.847  0.5098  0.6095 -2.6416
  198MOL0     H26122   9.472   5.529   3.811  0.0691  0.6635  1.8266
  198MOL0     H26123   9.443   5.305   3.691  0.7661  0.0911 -1.9239
  198MOL0     H26124   9.618   4.859   3.681 -0.9334  1.8403  0.1361
  198MOL0     H26125   9.619   4.638   3.577  0.0446  1.9879  1.9997
  198MOL0     H26126   9.795   4.580   3.156  1.1504  1.8848  0.8675
  198MOL0     H26127   9.630   4.602   3.166  0.7319 -0.1165 -0.4337
  198MOL0     H26128   9.579   4.386   3.232 -1.4035  2.0803 -1.0686
  198MOL0     H26129   9.690   4.388   3.092 -1.8618  1.7516 -0.6018
  198MOL0     H26130   9.845   4.353   3.346  0.7121 -0.8870  0.9592
  198MOL0     H26131   9.867   4.280   3.184  0.6182  1.2335  0.3917
  198MOL0     H26132   9.792   4.133   3.385 -0.7641  0.9854  2.7542
  198MOL0     H26133   9.641   4.210   3.382  1.3197  4.8524 -0.2082
  198MOL0     H26134   9.618   4.000   3.001 -1.0887 -2.1923  0.5323
  198MOL0     H26135   9.731   4.802   3.195  6.3631 -1.8421  1.5832
  198MOL0     H26136   9.703   5.037   3.301 -1.6801  2.1429  1.5765
  199MOL0     O26137   5.121  10.426  10.366 -0.1572 -0.4089 -0.0502
  199MOL0     C26138   5.244  10.397  10.354  0.6679  0.3282  0.2841
  199MOL0     O26139   5.335  10.373  10.460  0.0285 -0.0664 -0.1219
  199MOL0     C26140   5.292  10.353  10.581  0.6720  1.2551  0.2504
  199MOL0     C26141   5.164  10.391  10.635 -0.9705  0.0065  0.3277
  199MOL0     C26142   5.132  10.365  10.767  1.1218  1.1437 -0.7208
  199MOL0     C26143   5.217  10.290  10.853 -0.1581 -0.7874  0.2155
  199MOL0     O26144   5.204  10.295  10.985  0.0963 -0.4246  0.5176
  199MOL0     C26145   5.233  10.167  11.050  0.2853 -1.4056  0.3258
  199MOL0     C26146   5.194  10.182  11.193  0.6020  0.2806  0.1941
  199MOL0     C26147   5.211  10.042  11.254 -0.9884 -0.8973 -0.0734
  199MOL0     C26148   5.142  10.040  11.399 -0.6147  0.0588  0.4082
  199MOL0     C26149   5.146   9.904  11.474 -0.1172  0.8636  0.3955
  199MOL0     C26150   5.030   9.813  11.426  0.1238 -0.8327 -0.2037
  199MOL0     C26151   5.028   9.693  11.521  0.4152 -0.2032  1.1609
  199MOL0     C26152   4.927   9.586  11.483 -0.0817  0.6055 -0.5434
  199MOL0     N26153   4.952   9.465  11.567  0.5464  0.5709 -0.2427
  199MOL0     C26154   4.889   9.445  11.686 -0.3405  0.1849  0.2495
  199MOL0     C26155   4.914   9.315  11.729 -0.2742 -0.7544 -0.8859
  199MOL0     C26156   4.832   9.247  11.836 -0.4929 -0.7799 -0.1070
  199MOL0     C26157   4.754   9.128  11.766 -0.2299 -0.1773 -0.1875
  199MOL0     C26158   4.622   9.167  11.698 -0.2572  0.0042 -0.3197
  199MOL0     C26159   4.580   9.051  11.599  0.1929 -0.1774 -0.6829
  199MOL0     O26160   4.562   8.926  11.668 -0.6065  0.6745  0.3457
  199MOL0     C26161   4.551   8.802  11.609  0.2176  0.0453  0.1300
  199MOL0     C26162   4.564   8.784  11.471 -1.1669 -1.3614 -0.6731
  199MOL0     C26163   4.556   8.663  11.413  0.1216  0.0389 -0.3691
  199MOL0     C26164   4.544   8.549  11.487  0.3305  0.4538  0.8618
  199MOL0     C26165   4.537   8.426  11.409  0.0501 -0.4779 -1.0791
  199MOL0     O26166   4.486   8.425  11.285 -0.4751  0.3069  0.9863
  199MOL0     C26167   4.471   8.309  11.221 -0.8496  0.6104 -0.7185
  199MOL0     C26168   4.554   8.286  11.112  0.2055 -0.1472  0.1163
  199MOL0     C26169   4.537   8.174  11.032 -1.5619 -0.0789 -0.0770
  199MOL0     C26170   4.450   8.071  11.070  0.3048 -0.6591 -0.4844
  199MOL0     O26171   4.412   7.967  10.985 -0.5323 -0.7618 -0.0733
  199MOL0     C26172   4.412   8.004  10.847 -0.0292  0.8285 -0.3228
  199MOL0     C26173   4.357   7.896  10.752  0.2633 -0.7380 -0.3671
  199MOL0     C26174   4.238   7.825  10.811  0.6800 -0.3056 -0.4695
  199MOL0     C26175   4.112   7.920  10.835  0.2914  0.6416 -0.1477
  199MOL0     C26176   4.023   7.924  10.721 -0.1454 -0.2420  0.4331
  199MOL0     C26177   3.912   8.021  10.748  0.6691  0.0769 -0.3651
  199MOL0     C26178   3.788   7.999  10.655 -0.4101 -0.3378  0.4063
  199MOL0     C26179   3.678   8.106  10.670 -0.0416 -0.0732  0.6784
  199MOL0    Cl26180   3.739   8.282  10.639  0.3411 -0.2084 -0.1965
  199MOL0     C26181   4.365   8.089  11.185  0.7071 -0.4666 -0.6535
  199MOL0     C26182   4.374   8.210  11.262  0.4875  0.2134 -0.1375
  199MOL0     O26183   4.580   8.328  11.472  0.4679 -0.2591 -0.2386
  199MOL0     C26184   4.535   8.556  11.628 -0.4085  0.4425 -0.0884
  199MOL0     C26185   4.543   8.684  11.685 -0.1724 -0.3512  0.2732
  199MOL0     N26186   5.009   9.267  11.646 -0.0675 -0.3147 -0.3270
  199MOL0     N26187   5.031   9.357  11.553  0.3510 -0.6309  0.1854
  199MOL0     C26188   5.341  10.253  10.802 -0.1282 -0.2106  0.0020
  199MOL0     C26189   5.382  10.292  10.673 -0.2410  0.6700  0.7973
  199MOL0     C26190   5.312  10.389  10.218  0.4083  0.2793  0.0076
  199MOL0     C26191   5.250  10.445  10.097  0.4288  0.2775 -0.4056
  199MOL0     C26192   5.315  10.453   9.973  1.3945 -0.4196 -0.7743
  199MOL0     C26193   5.435  10.381   9.960 -0.9264 -0.1473 -0.5144
  199MOL0     O26194   5.482  10.378   9.833 -0.1719  0.4019  0.2749
  199MOL0     C26195   5.607  10.313   9.806  0.3359  1.1409 -0.1975
  199MOL0     C26196   5.720  10.423   9.790  0.0796 -0.1497  0.5244
  199MOL0     C26197   5.737  10.513   9.916 -0.2301 -0.6980 -0.4025
  199MOL0     C26198   5.882  10.581   9.902  0.6514 -0.2424  0.1919
  199MOL0     C26199   5.901  10.695   9.992  0.1858 -0.5122 -0.5148
  199MOL0     C26200   5.911  10.800  10.046 -0.3962 -1.5946  0.0544
  199MOL0     C26201   5.486  10.318  10.073 -0.9581  0.0409 -0.2196
  199MOL0     C26202   5.432  10.321  10.200 -0.1672 -0.0310  0.0496
  199MOL0     H26203   5.091  10.447  10.578  0.6512  0.0285 -1.8430
  199MOL0     H26204   5.032  10.395  10.796  1.0109 -0.6603  0.9805
  199MOL0     H26205   5.342  10.165  11.064  0.3791  1.9555  0.9514
  199MOL0     H26206   5.187  10.082  11.000 -0.4672 -2.3415  2.4991
  199MOL0     H26207   5.088  10.209  11.192  0.5370  0.2008  2.0454
  199MOL0     H26208   5.245  10.264  11.245  0.7787 -0.6045  1.4599
  199MOL0     H26209   5.318  10.021  11.268 -0.7311  1.3880  1.9722
  199MOL0     H26210   5.161   9.970  11.188  1.1863 -3.4599  0.8685
  199MOL0     H26211   5.213  10.104  11.452  1.8634 -1.1885 -1.1757
  199MOL0     H26212   5.044  10.088  11.399  0.0504  1.5013  0.4993
  199MOL0     H26213   5.123   9.931  11.578 -2.7690 -1.3245  0.5053
  199MOL0     H26214   5.238   9.845  11.467 -1.5849 -1.5665  0.4356
  199MOL0     H26215   5.053   9.774  11.326  0.4962  2.1104 -1.3760
  199MOL0     H26216   4.935   9.866  11.430 -0.7322 -2.2832 -0.7686
  199MOL0     H26217   5.125   9.644  11.533  0.8229  0.2312 -0.1782
  199MOL0     H26218   4.994   9.738  11.614  1.3278 -1.2405  2.0228
  199MOL0     H26219   4.937   9.579  11.374  3.2553 -0.4354 -0.2969
  199MOL0     H26220   4.829   9.630  11.502  0.0440  0.5470  0.2659
  199MOL0     H26221   4.816   9.511  11.730 -0.4651 -0.2624  0.7240
  199MOL0     H26222   4.750   9.311  11.868  0.7428 -0.1479  1.9857
  199MOL0     H26223   4.890   9.225  11.926  3.7890  1.0096 -2.1551
  199MOL0     H26224   4.733   9.051  11.840 -1.4806  0.4213  0.1221
  199MOL0     H26225   4.816   9.086  11.686 -0.5155 -1.7343  0.3889
  199MOL0     H26226   4.541   9.185  11.769  0.4245  3.3856 -0.2546
  199MOL0     H26227   4.639   9.255  11.635 -0.9726  0.9715  0.8060
  199MOL0     H26228   4.666   9.044  11.532 -0.4097  0.9537 -1.6038
  199MOL0     H26229   4.482   9.072  11.556  0.3447 -0.9305 -1.4304
  199MOL0     H26230   4.569   8.868  11.403 -2.1398 -1.6076 -1.0679
  199MOL0     H26231   4.556   8.663  11.305  0.0712 -2.6310 -0.4152
  199MOL0     H26232   4.635   8.356  11.090  2.1207 -2.5194 -0.9082
  199MOL0     H26233   4.614   8.151  10.960 -2.0502  2.9880 -1.7611
  199MOL0     H26234   4.518   8.013  10.821  1.2519 -1.1733  3.4714
  199MOL0     H26235   4.366   8.101  10.827  1.0754  1.6821  1.1522
  199MOL0     H26236   4.427   7.816  10.725 -0.5531 -0.9797 -1.8935
  199MOL0     H26237   4.323   7.945  10.660 -2.7323  1.3112  1.6268
  199MOL0     H26238   4.257   7.769  10.903  0.0402 -0.0137 -0.1539
  199MOL0     H26239   4.200   7.745  10.746 -1.5930  0.6042 -0.3420
  199MOL0     H26240   4.065   7.879  10.925 -2.2539  0.1754 -1.6064
  199MOL0     H26241   4.144   8.025  10.838  1.8211  0.2993 -2.4130
  199MOL0     H26242   3.971   7.828  10.709 -0.0019 -0.1334 -1.2641
  199MOL0     H26243   4.081   7.950  10.632  0.4193 -4.4040 -0.6497
  199MOL0     H26244   3.947   8.121  10.720 -0.4935  0.1047 -1.8711
  199MOL0     H26245   3.874   8.017  10.850  0.1624 -1.2469 -0.5889
  199MOL0     H26246   3.825   7.992  10.552 -1.2076 -0.4252  0.1230
  199MOL0     H26247   3.748   7.901  10.682  1.8380 -0.8656  2.1471
  199MOL0     H26248   3.624   8.095  10.765 -3.2664  0.1519 -1.0103
  199MOL0     H26249   3.597   8.071  10.606  2.2390 -3.8530 -0.4946
  199MOL0     H26250   4.289   8.014  11.206  0.0523  0.2900 -0.2083
  199MOL0     H26251   4.319   8.220  11.355 -1.2932 -4.2754 -0.4508
  199MOL0     H26252   4.532   8.473  11.698  1.5937  0.6247  0.2561
  199MOL0     H26253   4.541   8.705  11.792  0.3387  1.1082  0.0266
  199MOL0     H26254   5.420  10.215  10.866  0.4354  1.8008  0.5912
  199MOL0     H26255   5.484  10.268  10.646 -0.8802  0.3347 -1.5878
  199MOL0     H26256   5.155  10.493  10.120  1.0165  0.3609  2.0362
  199MOL0     H26257   5.260  10.491   9.887 -0.2014 -2.0432 -0.5476
  199MOL0     H26258   5.599  10.270   9.705 -1.8070  2.1546 -0.5169
  199MOL0     H26259   5.640  10.227   9.866  0.3438  0.2262 -1.4546
  199MOL0     H26260   5.813  10.371   9.765 -0.1552 -1.3534  2.0204
  199MOL0     H26261   5.701  10.482   9.700  2.8293  1.9885  1.1729
  199MOL0     H26262   5.734  10.447  10.003  2.7779 -1.1982 -0.5475
  199MOL0     H26263   5.656  10.585   9.929 -0.4479 -1.2173  1.2863
  199MOL0     H26264   5.958  10.506   9.929  0.6001 -1.6080 -2.9373
  199MOL0     H26265   5.913  10.613   9.802  1.5840  0.4648  0.6969
  199MOL0     H26266   5.930  10.897  10.087 -1.5907 -0.5218 -1.7483
  199MOL0     H26267   5.577  10.260  10.072 -1.5673 -1.2160  3.1723
  199MOL0     H26268   5.477  10.267  10.283 -0.8516 -2.8255 -1.2885
  200MOL0     O26269   5.711   3.573   2.375  0.2521  0.3619 -0.7278
  200MOL0     C26270   5.772   3.591   2.485  0.1376  0.2724  0.2538
  200MOL0     O26271   5.850   3.701   2.514 -0.1032  0.1290 -0.4745
  200MOL0     C26272   5.888   3.781   2.414 -0.2518 -0.1391  0.9810
  200MOL0     C26273   5.817   3.823   2.298 -0.9569  0.3986 -0.0202
  200MOL0     C26274   5.865   3.918   2.205 -0.4632  0.4926  0.5638
  200MOL0     C26275   5.990   3.971   2.216  0.8743 -0.1519 -0.2394
  200MOL0     O26276   6.036   4.076   2.141  1.6183 -1.0861  0.3657
  200MOL0     C26277   5.979   4.205   2.186 -0.0865  0.1190  0.2175
  200MOL0     C26278   6.071   4.320   2.154 -0.2106 -0.6774 -0.0068
  200MOL0     C26279   6.194   4.309   2.252  0.0693  0.5160 -1.2811
  200MOL0     C26280   6.296   4.415   2.221  0.7124 -0.3987 -0.8980
  200MOL0     C26281   6.413   4.405   2.324  1.0072 -0.2266  0.9161
  200MOL0     C26282   6.467   4.261   2.366  0.8040 -1.0075 -0.6225
  200MOL0     C26283   6.518   4.175   2.256 -0.1553 -0.2295 -0.3076
  200MOL0     C26284   6.596   4.054   2.303  0.5485 -0.2141  0.3425
  200MOL0     N26285   6.498   3.956   2.346  0.8853  0.7264  1.4655
  200MOL0     C26286   6.459   3.845   2.279  0.2049  0.3214 -0.1558
  200MOL0     C26287   6.407   3.761   2.375  0.3656 -0.0696  0.8152
  200MOL0     C26288   6.381   3.613   2.351  0.2106  0.4893  0.5224
  200MOL0     C26289   6.256   3.606   2.257 -0.1569  0.5249  0.0953
  200MOL0     C26290   6.301   3.602   2.110 -0.1418  0.6361  0.9950
  200MOL0     C26291   6.164   3.583   2.027 -0.0390  0.6375  0.2964
  200MOL0     O26292   6.109   3.455   2.055  0.0772 -0.1461 -0.7821
  200MOL0     C26293   6.177   3.358   1.995 -0.3378  0.9207  0.2277
  200MOL0     C26294   6.236   3.271   2.077  0.4392 -0.5857  0.2492
  200MOL0     C26295   6.281   3.145   2.021  0.6102 -0.2662 -0.3659
  200MOL0     C26296   6.260   3.117   1.889  1.0252 -0.2305 -0.4376
  200MOL0     C26297   6.304   2.994   1.820  0.0722 -0.0051  0.2309
  200MOL0     O26298   6.333   2.997   1.679 -0.0612 -0.2449 -0.6445
  200MOL0     C26299   6.335   2.871   1.615  0.1629  0.0259  0.3832
  200MOL0     C26300   6.429   2.765   1.650  1.3824 -0.4337 -0.4760
  200MOL0     C26301   6.408   2.636   1.599  0.1836  0.2406  0.2098
  200MOL0     C26302   6.299   2.610   1.504  0.5891 -0.1083  0.1845
  200MOL0     O26303   6.271   2.485   1.456  0.4588  0.1197 -0.3251
  200MOL0     C26304   6.250   2.468   1.318  0.3932 -0.6387  0.5731
  200MOL0     C26305   6.190   2.334   1.295  0.0644  0.0304 -0.1953
  200MOL0     C26306   6.114   2.320   1.171  0.7674  0.5775  0.2673
  200MOL0     C26307   6.035   2.191   1.155  0.1205 -0.0974  0.6800
  200MOL0     C26308   5.950   2.176   1.032  0.7484  0.0853  0.7309
  200MOL0     C26309   5.843   2.281   1.032 -1.0729 -0.1728 -0.0417
  200MOL0     C26310   5.733   2.245   0.926 -0.0463 -0.9659  0.2978
  200MOL0     C26311   5.671   2.368   0.864  0.1050 -0.9461  0.1548
  200MOL0    Cl26312   5.582   2.466   0.993  0.4077 -0.5771  0.0503
  200MOL0     C26313   6.211   2.718   1.485 -0.3842  0.5667  0.1312
  200MOL0     C26314   6.237   2.842   1.521  0.8236 -0.4213  0.1482
  200MOL0     O26315   6.326   2.901   1.897 -1.0077 -0.0813 -0.1815
  200MOL0     C26316   6.203   3.213   1.806 -0.1417 -0.8273  0.0452
  200MOL0     C26317   6.159   3.334   1.851 -0.4278  0.5645 -0.5773
  200MOL0     N26318   6.396   3.822   2.496 -0.0387 -0.0736  0.2247
  200MOL0     N26319   6.465   3.928   2.480  0.0396 -0.7804  0.3030
  200MOL0     C26320   6.062   3.937   2.324  0.8696  0.4171 -1.2083
  200MOL0     C26321   6.006   3.851   2.428  0.2876  0.0044  0.6522
  200MOL0     C26322   5.729   3.511   2.608  0.7028 -0.2439  1.2779
  200MOL0     C26323   5.661   3.398   2.589  0.5251  0.8253 -1.7599
  200MOL0     C26324   5.605   3.333   2.695  1.1921  0.0489 -1.5254
  200MOL0     C26325   5.624   3.376   2.830 -0.7306  0.1176  0.6313
  200MOL0     O26326   5.576   3.304   2.938 -0.3509 -0.3192  0.2109
  200MOL0     C26327   5.451   3.359   2.995  0.7523  0.3984 -0.5940
  200MOL0     C26328   5.452   3.405   3.142  0.2541  1.0291 -0.8893
  200MOL0     C26329   5.466   3.291   3.247 -0.5635 -0.2572 -0.4736
  200MOL0     C26330   5.505   3.338   3.387 -0.5696 -0.3858  0.2955
  200MOL0     C26331   5.481   3.238   3.495 -0.7783 -0.2038 -0.4289
  200MOL0     C26332   5.466   3.149   3.575  0.0480  0.2232 -0.3521
  200MOL0     C26333   5.706   3.490   2.847  0.4539 -0.0946  0.4916
  200MOL0     C26334   5.751   3.569   2.738 -0.2630  0.2408 -0.1082
  200MOL0     H26335   5.715   3.786   2.295  0.2105 -3.4057  1.3182
  200MOL0     H26336   5.797   3.940   2.123 -1.0007  0.0055  0.8677
  200MOL0     H26337   5.958   4.199   2.294  2.3506  0.4448  0.7639
  200MOL0     H26338   5.884   4.216   2.134  1.6077  3.3083 -2.5805
  200MOL0     H26339   6.031   4.418   2.183 -1.7909 -0.9758 -1.0608
  200MOL0     H26340   6.111   4.311   2.053  0.8554  0.2287  0.3184
  200MOL0     H26341   6.225   4.204   2.260 -3.4911 -0.5268  1.6780
  200MOL0     H26342   6.150   4.321   2.352  1.7781 -2.0059 -0.1164
  200MOL0     H26343   6.329   4.393   2.119 -0.3711  2.4185 -1.9572
  200MOL0     H26344   6.264   4.520   2.219  1.8911  0.2647  3.5991
  200MOL0     H26345   6.379   4.437   2.422  1.2904 -2.3534  1.7572
  200MOL0     H26346   6.483   4.479   2.285  0.3669 -0.5989 -1.0587
  200MOL0     H26347   6.389   4.205   2.420 -0.1756 -1.2529 -2.2133
  200MOL0     H26348   6.550   4.284   2.433  0.8682  1.3048 -1.4136
  200MOL0     H26349   6.434   4.155   2.188  1.2890 -0.4524 -2.1124
  200MOL0     H26350   6.589   4.238   2.201  1.4936 -0.7243  1.1747
  200MOL0     H26351   6.658   4.076   2.390  0.5329  0.3085  0.2244
  200MOL0     H26352   6.658   4.005   2.228 -0.2089 -0.5617 -0.0698
  200MOL0     H26353   6.493   3.813   2.181  2.2224  2.7386 -0.3295
  200MOL0     H26354   6.332   3.569   2.438  1.3141 -0.5871  0.6190
  200MOL0     H26355   6.474   3.571   2.313  0.8523  1.6374  0.7708
  200MOL0     H26356   6.175   3.675   2.284  0.3773  1.1950  0.0040
  200MOL0     H26357   6.216   3.505   2.265 -0.9102  0.7198 -1.0468
  200MOL0     H26358   6.360   3.685   2.070 -2.7316  0.7136 -3.3351
  200MOL0     H26359   6.364   3.513   2.101  2.6307  2.5548 -0.1025
  200MOL0     H26360   6.196   3.592   1.923  2.9226 -1.1581  0.9352
  200MOL0     H26361   6.077   3.649   2.038 -3.0764 -2.9982  0.2344
  200MOL0     H26362   6.228   3.293   2.183  0.8807  0.1574  0.1345
  200MOL0     H26363   6.329   3.073   2.085 -1.3430  0.2352  1.8003
  200MOL0     H26364   6.501   2.793   1.725 -0.1910 -1.1651  1.3823
  200MOL0     H26365   6.471   2.550   1.613 -0.5186 -0.3661 -0.2910
  200MOL0     H26366   6.342   2.463   1.259 -0.7605 -0.0448 -1.3985
  200MOL0     H26367   6.190   2.551   1.280  3.1698  0.7475 -1.0970
  200MOL0     H26368   6.118   2.324   1.378  2.2442  2.5008  2.1718
  200MOL0     H26369   6.274   2.264   1.304  1.5292  0.9893 -4.4559
  200MOL0     H26370   6.184   2.334   1.088  0.8414 -0.9121  0.0517
  200MOL0     H26371   6.044   2.404   1.178  3.5100  3.0298  0.3959
  200MOL0     H26372   6.106   2.108   1.152  0.6665  0.3513  0.8430
  200MOL0     H26373   5.969   2.165   1.238  0.7067 -3.7446  0.1487
  200MOL0     H26374   5.909   2.075   1.035  1.4882 -0.8811 -6.0864
  200MOL0     H26375   6.017   2.173   0.945  2.3346  0.1554  1.9073
  200MOL0     H26376   5.897   2.373   1.005  0.1165 -0.2840  1.7785
  200MOL0     H26377   5.812   2.301   1.135 -0.0146 -0.4214  0.3400
  200MOL0     H26378   5.775   2.179   0.849  0.4287 -2.3049  1.6526
  200MOL0     H26379   5.645   2.198   0.969 -1.2781  2.2793  1.6573
  200MOL0     H26380   5.594   2.351   0.788  0.1455  0.0693 -0.1293
  200MOL0     H26381   5.744   2.433   0.815 -0.2239  1.2385  2.3150
  200MOL0     H26382   6.114   2.702   1.438 -1.2387 -2.9976  2.6090
  200MOL0     H26383   6.154   2.908   1.499 -0.1761 -1.5479  0.4400
  200MOL0     H26384   6.168   3.166   1.714 -1.7166  1.3900 -0.5798
  200MOL0     H26385   6.100   3.401   1.789 -1.5293  0.1284 -0.0374
  200MOL0     H26386   6.157   3.986   2.342  2.0875 -2.8063  2.6150
  200MOL0     H26387   6.055   3.841   2.524 -1.3629  0.0135  1.5190
  200MOL0     H26388   5.658   3.350   2.492 -1.1968  1.8198 -2.2448
  200MOL0     H26389   5.567   3.232   2.691 -2.7762  1.2320  0.4475
  200MOL0     H26390   5.377   3.279   2.984  1.6616 -0.5044 -0.3466
  200MOL0     H26391   5.419   3.446   2.937 -2.1790  0.1782  0.5322
  200MOL0     H26392   5.536   3.475   3.151  1.3562 -0.1013 -1.9630
  200MOL0     H26393   5.359   3.457   3.167  0.8285  2.0479 -0.8193
  200MOL0     H26394   5.538   3.217   3.211 -2.2804 -1.8085 -0.8378
  200MOL0     H26395   5.364   3.252   3.240 -1.1414  1.2762 -1.0172
  200MOL0     H26396   5.604   3.385   3.385 -0.1908 -1.1458  0.9621
  200MOL0     H26397   5.450   3.429   3.415  1.7308  1.1856 -0.0053
  200MOL0     H26398   5.451   3.068   3.644  0.3975  0.4712  0.0190
  200MOL0     H26399   5.716   3.533   2.946  2.0146 -0.2398  0.4188
  200MOL0     H26400   5.804   3.663   2.750 -2.3071  1.3865  0.4179
  201MOL0     O26401   7.996   5.252   2.863 -0.1093  0.1019 -0.5814
  201MOL0     C26402   8.094   5.178   2.888 -0.8622  0.0196 -0.2301
  201MOL0     O26403   8.229   5.214   2.889 -0.3908  0.0846  0.3290
  201MOL0     C26404   8.266   5.341   2.927  0.2221 -0.0713 -0.6554
  201MOL0     C26405   8.380   5.405   2.867 -0.3452  0.2071 -0.0722
  201MOL0     C26406   8.429   5.529   2.910  0.6326 -0.5173 -1.5507
  201MOL0     C26407   8.349   5.601   3.001  0.6169 -0.0614  0.4427
  201MOL0     O26408   8.375   5.727   3.046  0.1883  0.2802 -0.6627
  201MOL0     C26409   8.390   5.817   2.942 -0.7191 -1.1584 -0.1190
  201MOL0     C26410   8.442   5.952   3.002  0.6664 -0.2068  0.1555
  201MOL0     C26411   8.505   6.041   2.901  0.4537 -0.4377  0.6524
  201MOL0     C26412   8.523   6.186   2.962 -0.2372  0.2950  0.0289
  201MOL0     C26413   8.573   6.278   2.845  0.0342  0.2900 -0.0434
  201MOL0     C26414   8.463   6.326   2.762 -0.3850  0.1160  0.6431
  201MOL0     C26415   8.505   6.470   2.700  0.1985 -0.4450 -0.1404
  201MOL0     C26416   8.646   6.472   2.629  0.1997  0.0501 -0.7931
  201MOL0     N26417   8.711   6.597   2.668 -0.4391 -0.0329  0.3701
  201MOL0     C26418   8.686   6.728   2.624  0.4083  0.9242  0.8894
  201MOL0     C26419   8.788   6.796   2.670  0.0519  0.4322 -0.3255
  201MOL0     C26420   8.810   6.943   2.654  0.3489 -1.2770 -0.1987
  201MOL0     C26421   8.933   6.987   2.575 -0.5570 -0.5434 -0.5105
  201MOL0     C26422   9.057   6.967   2.659 -0.2803  0.2994 -0.1775
  201MOL0     C26423   9.192   7.036   2.607  1.7409  0.8302 -0.2384
  201MOL0     O26424   9.162   7.169   2.584  0.8807 -0.2042  0.0285
  201MOL0     C26425   9.155   7.250   2.692  1.0155  0.3761  0.0611
  201MOL0     C26426   9.098   7.371   2.663  0.1526  0.5646 -0.5189
  201MOL0     C26427   9.052   7.466   2.760  0.8045 -0.0490  0.5002
  201MOL0     C26428   9.054   7.428   2.897  0.2791  0.2565  0.1354
  201MOL0     C26429   8.997   7.516   2.992  0.5363  0.0417  0.4624
  201MOL0     O26430   8.980   7.461   3.108 -0.1138 -0.4676 -0.4280
  201MOL0     C26431   8.980   7.540   3.219 -0.2012 -0.5372 -0.7846
  201MOL0     C26432   8.891   7.492   3.321  0.6138 -0.3554 -0.0321
  201MOL0     C26433   8.867   7.570   3.438  1.5049  0.3098 -0.5578
  201MOL0     C26434   8.940   7.687   3.458 -0.0454  0.1074  0.8327
  201MOL0     O26435   8.916   7.763   3.561 -0.1054  0.1090 -0.0146
  201MOL0     C26436   8.815   7.854   3.537  0.3655  0.0694 -0.3870
  201MOL0     C26437   8.780   7.945   3.660  0.1629 -0.1772 -0.3329
  201MOL0     C26438   8.739   7.878   3.791  0.1593  1.1876  0.6727
  201MOL0     C26439   8.600   7.817   3.788 -0.5711 -0.0888 -0.0124
  201MOL0     C26440   8.537   7.838   3.930 -0.7687  0.5834  0.9458
  201MOL0     C26441   8.603   7.758   4.034 -0.1459  0.3479  0.0785
  201MOL0     C26442   8.602   7.604   3.989 -0.8953 -0.2202 -0.1570
  201MOL0     C26443   8.625   7.506   4.103 -0.1426  0.1020  0.4933
  201MOL0    Cl26444   8.785   7.544   4.172  0.0341 -0.0123 -0.1576
  201MOL0     C26445   9.041   7.729   3.370  0.9620  0.0721 -0.0703
  201MOL0     C26446   9.067   7.651   3.255  0.3432  0.4108 -0.1382
  201MOL0     O26447   8.999   7.635   2.969  0.7300  0.1937  0.2547
  201MOL0     C26448   9.119   7.307   2.927 -0.8221  1.8377  0.7021
  201MOL0     C26449   9.166   7.213   2.825  0.4764 -0.6544  0.1346
  201MOL0     N26450   8.864   6.720   2.760 -0.3988 -0.7693  0.6219
  201MOL0     N26451   8.821   6.602   2.755  0.5153  1.2937 -0.7742
  201MOL0     C26452   8.238   5.533   3.065 -0.0070  0.2995  0.0931
  201MOL0     C26453   8.194   5.415   3.024 -0.2209  0.3985 -0.2434
  201MOL0     C26454   8.058   5.036   2.912 -0.3377 -0.6001 -0.0528
  201MOL0     C26455   8.146   4.938   2.877 -0.2707  0.9884 -1.2079
  201MOL0     C26456   8.106   4.803   2.876  0.2909 -0.1360  0.2229
  201MOL0     C26457   7.984   4.762   2.916  0.2730  0.3127  0.2994
  201MOL0     O26458   7.948   4.629   2.920 -0.9016 -0.0334 -0.1601
  201MOL0     C26459   7.810   4.602   2.908  0.5564 -0.5614  0.2017
  201MOL0     C26460   7.752   4.571   3.047 -0.3093 -0.5026  0.1154
  201MOL0     C26461   7.596   4.552   3.029  0.3742  0.6377 -1.1107
  201MOL0     C26462   7.532   4.438   2.955 -0.3601  1.0098  0.8040
  201MOL0     C26463   7.569   4.311   3.022  0.0582 -0.2272 -0.0600
  201MOL0     C26464   7.602   4.201   3.056  0.0888  0.0527 -0.6628
  201MOL0     C26465   7.896   4.865   2.959  0.8904 -0.1112 -0.7018
  201MOL0     C26466   7.930   4.999   2.955  0.2322  0.2007 -0.0282
  201MOL0     H26467   8.427   5.363   2.779  1.3747  0.6809  0.5790
  201MOL0     H26468   8.509   5.583   2.861  3.0126  0.2881  2.7082
  201MOL0     H26469   8.295   5.812   2.887 -0.8090 -1.8834  0.0994
  201MOL0     H26470   8.465   5.786   2.869 -1.1416  0.8592 -1.4992
  201MOL0     H26471   8.508   5.927   3.086  0.8202 -1.8726 -0.4231
  201MOL0     H26472   8.351   6.004   3.034  1.0924  0.2583  0.6356
  201MOL0     H26473   8.440   6.042   2.813  2.5843  0.3765 -0.9985
  201MOL0     H26474   8.593   5.994   2.857 -1.0670 -0.5808 -2.5345
  201MOL0     H26475   8.428   6.232   2.989 -0.2176  1.4100 -1.6737
  201MOL0     H26476   8.587   6.174   3.050 -0.0370 -0.6109 -0.2336
  201MOL0     H26477   8.656   6.228   2.794  2.1765  1.3059  2.2587
  201MOL0     H26478   8.607   6.365   2.902 -2.7303  1.5229 -0.0933
  201MOL0     H26479   8.363   6.324   2.807 -1.0707 -3.4559 -0.7628
  201MOL0     H26480   8.457   6.256   2.679  0.9864  0.1106  0.5276
  201MOL0     H26481   8.443   6.509   2.619  1.7823 -0.1866 -1.2553
  201MOL0     H26482   8.516   6.541   2.783  0.9722  0.2069 -0.7803
  201MOL0     H26483   8.641   6.464   2.520  3.1415 -2.0070 -0.8827
  201MOL0     H26484   8.707   6.395   2.676 -2.6723 -1.7030  0.2739
  201MOL0     H26485   8.603   6.749   2.557 -0.8312 -2.7978  0.9761
  201MOL0     H26486   8.807   6.994   2.751 -2.6735 -0.7761 -0.4833
  201MOL0     H26487   8.720   6.983   2.608  0.0242 -0.7009  0.9020
  201MOL0     H26488   8.930   7.088   2.533 -1.0422 -0.4220 -0.1924
  201MOL0     H26489   8.948   6.923   2.487 -1.4455  0.6151 -1.5277
  201MOL0     H26490   9.024   6.983   2.762 -3.7702 -3.3649 -0.4854
  201MOL0     H26491   9.084   6.861   2.656  1.1619  0.4661  3.1657
  201MOL0     H26492   9.217   6.986   2.513  2.2223 -1.9104  1.2442
  201MOL0     H26493   9.275   7.018   2.676 -0.2617 -1.4130  1.7798
  201MOL0     H26494   9.106   7.391   2.557 -0.1807 -0.8746 -0.8365
  201MOL0     H26495   9.000   7.556   2.727 -0.0509  0.1294  2.2466
  201MOL0     H26496   8.829   7.403   3.310  2.0638 -1.4766  0.5548
  201MOL0     H26497   8.780   7.544   3.497  1.0120  1.2694 -0.8393
  201MOL0     H26498   8.723   7.799   3.516  1.2009 -1.6095  0.2115
  201MOL0     H26499   8.847   7.906   3.446 -1.0741 -0.4496 -1.2376
  201MOL0     H26500   8.700   8.017   3.640  0.3522  0.2908  0.5934
  201MOL0     H26501   8.865   8.007   3.688 -0.3245  1.8629 -2.9758
  201MOL0     H26502   8.750   7.951   3.872  2.4974 -1.2483  2.7190
  201MOL0     H26503   8.814   7.801   3.808  0.0240  0.9135  0.0762
  201MOL0     H26504   8.547   7.879   3.716 -1.7950  0.0641  0.9869
  201MOL0     H26505   8.603   7.713   3.753  3.9865  0.5829 -2.4150
  201MOL0     H26506   8.429   7.824   3.928 -0.7623  0.1483 -2.3693
  201MOL0     H26507   8.532   7.946   3.948 -2.8618  0.8663 -0.8923
  201MOL0     H26508   8.546   7.772   4.127  0.5700  0.7140  0.4738
  201MOL0     H26509   8.707   7.782   4.058  0.5252 -3.4682  1.9017
  201MOL0     H26510   8.508   7.577   3.940 -0.5137 -1.1067 -0.4301
  201MOL0     H26511   8.679   7.587   3.912 -0.2425  0.8054  0.2532
  201MOL0     H26512   8.619   7.407   4.056  3.3640 -1.0801  2.1842
  201MOL0     H26513   8.551   7.512   4.184 -0.5767 -1.0472  0.2083
  201MOL0     H26514   9.107   7.815   3.376 -2.0193  2.6827 -1.3568
  201MOL0     H26515   9.136   7.695   3.184 -0.5114  5.2119  1.6308
  201MOL0     H26516   9.138   7.266   3.026  0.5929  1.3957  0.2750
  201MOL0     H26517   9.198   7.115   2.859  0.4564 -1.0266 -0.8833
  201MOL0     H26518   8.183   5.579   3.147 -0.7815  1.0526 -0.8352
  201MOL0     H26519   8.116   5.370   3.083  0.2299 -1.5157 -1.0203
  201MOL0     H26520   8.251   4.951   2.853  0.9330 -0.8104  2.2970
  201MOL0     H26521   8.171   4.718   2.861  1.1324  0.1571  1.9700
  201MOL0     H26522   7.793   4.508   2.855  0.2096 -0.7838  0.6987
  201MOL0     H26523   7.760   4.677   2.846 -1.7647 -2.5073 -0.4346
  201MOL0     H26524   7.808   4.485   3.085  1.4927 -0.6780 -2.6518
  201MOL0     H26525   7.746   4.658   3.113 -0.1662 -0.0800 -0.4332
  201MOL0     H26526   7.551   4.644   2.991  1.1684  2.0173  1.0946
  201MOL0     H26527   7.567   4.549   3.135 -1.7849  2.9226 -1.5579
  201MOL0     H26528   7.426   4.462   2.951 -0.3897  0.7786  0.0889
  201MOL0     H26529   7.568   4.435   2.852  1.1086 -2.7954  1.2669
  201MOL0     H26530   7.639   4.118   3.113 -0.1195 -0.5416 -1.3768
  201MOL0     H26531   7.791   4.846   2.978  1.0392  0.6781  1.1524
  201MOL0     H26532   7.850   5.071   2.968  2.5313  2.4351  3.5543
  202MOL0     O26533   9.352   7.483   0.690 -0.7350 -0.2404  0.3270
  202MOL0     C26534   9.334   7.402   0.601 -0.0022  0.0899 -0.1072
  202MOL0     O26535   9.253   7.291   0.603  0.8918 -0.7553  0.2789
  202MOL0     C26536   9.158   7.257   0.696 -0.1693  1.4680  0.5742
  202MOL0     C26537   9.096   7.336   0.788 -0.3928 -0.4702 -0.2000
  202MOL0     C26538   8.995   7.292   0.880 -0.3985 -1.6105  0.4503
  202MOL0     C26539   8.959   7.162   0.886 -0.4749 -0.0947 -0.1701
  202MOL0     O26540   8.860   7.117   0.968  0.6937  0.2043 -0.0963
  202MOL0     C26541   8.734   7.191   0.949 -0.0126 -0.1858 -0.0422
  202MOL0     C26542   8.631   7.126   1.045  0.0935 -0.5516  1.0996
  202MOL0     C26543   8.656   7.184   1.183  0.0222  0.8814 -0.1431
  202MOL0     C26544   8.563   7.103   1.281  1.5782 -0.0581  0.1529
  202MOL0     C26545   8.567   7.163   1.418 -0.2865 -0.4319  0.1619
  202MOL0     C26546   8.452   7.088   1.497  0.1009 -0.3574  1.0609
  202MOL0     C26547   8.487   7.053   1.639 -0.2136 -0.2211  0.8704
  202MOL0     C26548   8.564   7.162   1.706  0.2284 -0.9280  0.6495
  202MOL0     N26549   8.586   7.144   1.854 -0.5477  0.1599 -0.5955
  202MOL0     C26550   8.679   7.066   1.918 -1.2816  0.6425  0.3000
  202MOL0     C26551   8.658   7.085   2.053 -0.3959  0.1024  0.0202
  202MOL0     C26552   8.731   7.012   2.171 -0.0217  0.0876  0.3270
  202MOL0     C26553   8.725   6.858   2.160  0.1972 -0.1414  0.1472
  202MOL0     C26554   8.604   6.790   2.212 -0.5714  0.2145  0.1171
  202MOL0     C26555   8.473   6.826   2.136  0.0376  0.2621 -0.0353
  202MOL0     O26556   8.475   6.758   2.007 -0.0087  0.4983 -0.6702
  202MOL0     C26557   8.384   6.792   1.918 -0.9735  0.0117  0.2535
  202MOL0     C26558   8.398   6.717   1.803 -0.3145  1.1059  0.1179
  202MOL0     C26559   8.315   6.725   1.692  0.8524  0.4472 -0.6330
  202MOL0     C26560   8.200   6.797   1.702  0.7137 -1.0211 -0.1036
  202MOL0     C26561   8.105   6.822   1.591 -0.0007 -0.2408 -0.3814
  202MOL0     O26562   8.113   6.735   1.489 -0.1597 -0.4451 -0.1088
  202MOL0     C26563   8.030   6.749   1.372 -0.2519 -0.5032 -1.0205
  202MOL0     C26564   7.923   6.670   1.344 -0.6116  0.2491 -0.7920
  202MOL0     C26565   7.843   6.695   1.230  0.1924  0.2715 -0.7547
  202MOL0     C26566   7.874   6.806   1.144 -0.3182 -1.0344  0.2075
  202MOL0     O26567   7.797   6.840   1.035 -0.0264 -0.3085 -0.2701
  202MOL0     C26568   7.855   6.895   0.914 -0.1915  0.4806 -0.3142
  202MOL0     C26569   7.747   6.905   0.805 -0.3500 -0.0251  0.4188
  202MOL0     C26570   7.673   7.032   0.800  0.4266 -0.6436 -0.5013
  202MOL0     C26571   7.629   7.088   0.939  0.3513  0.0110  0.5355
  202MOL0     C26572   7.531   7.210   0.928  0.8866 -0.4759  0.3270
  202MOL0     C26573   7.504   7.280   1.053  0.3214 -1.2592  0.2900
  202MOL0     C26574   7.408   7.218   1.153  0.1537 -1.4540 -0.8440
  202MOL0     C26575   7.263   7.208   1.096 -1.2216 -0.1359  0.5941
  202MOL0    Cl26576   7.154   7.208   1.241 -0.0177  0.5043  0.3494
  202MOL0     C26577   7.988   6.876   1.175  0.6492  0.7939 -0.4382
  202MOL0     C26578   8.061   6.852   1.284  0.4942 -1.5054 -1.1024
  202MOL0     O26579   8.029   6.917   1.588 -0.1303  0.0611 -0.8876
  202MOL0     C26580   8.179   6.870   1.823  0.4351  0.3415  0.9551
  202MOL0     C26581   8.272   6.871   1.928  0.3067  0.1239  0.7060
  202MOL0     N26582   8.550   7.160   2.067 -0.2284  0.6443  0.2872
  202MOL0     N26583   8.511   7.191   1.947  0.2711 -0.5932  0.3876
  202MOL0     C26584   9.029   7.072   0.809 -0.3000 -0.1733 -0.6016
  202MOL0     C26585   9.123   7.118   0.709  0.6015  0.5146 -1.2267
  202MOL0     C26586   9.390   7.435   0.466 -0.1285 -0.1429 -0.2689
  202MOL0     C26587   9.300   7.443   0.359 -1.0086  0.1991  0.2096
  202MOL0     C26588   9.347   7.500   0.241 -0.0100  0.3462 -0.1125
  202MOL0     C26589   9.481   7.536   0.222 -0.5096 -0.4186 -0.2324
  202MOL0     O26590   9.523   7.607   0.110  0.2574  0.2673 -0.1900
  202MOL0     C26591   9.486   7.533  -0.012 -0.0833 -0.6259  0.5919
  202MOL0     C26592   9.571   7.410  -0.043 -0.7450 -0.5413 -0.9718
  202MOL0     C26593   9.509   7.288   0.025  0.1398  0.6440  0.1154
  202MOL0     C26594   9.553   7.145  -0.031 -0.0821  0.1321 -0.6567
  202MOL0     C26595   9.475   7.043   0.040  0.3787  0.7374  0.4582
  202MOL0     C26596   9.407   6.974   0.109  0.5412  1.5031 -0.5391
  202MOL0     C26597   9.568   7.534   0.334  0.5481 -0.0519 -0.5109
  202MOL0     C26598   9.522   7.485   0.456 -0.8831 -0.1392 -0.5245
  202MOL0     H26599   9.112   7.443   0.778 -0.5551 -0.3291  0.9654
  202MOL0     H26600   8.932   7.349   0.947 -1.4976 -2.4565  0.1739
  202MOL0     H26601   8.685   7.182   0.851  1.9158  1.9745 -1.2975
  202MOL0     H26602   8.748   7.293   0.985 -0.3335 -1.0040  2.6752
  202MOL0     H26603   8.641   7.017   1.037 -1.2003 -0.6628  0.7772
  202MOL0     H26604   8.526   7.144   1.021  0.2482 -1.0100 -0.0009
  202MOL0     H26605   8.635   7.292   1.181  0.5133  0.9674 -1.1808
  202MOL0     H26606   8.758   7.161   1.214  0.9711 -0.2932 -3.6540
  202MOL0     H26607   8.462   7.105   1.239  1.2517  0.0991  0.9486
  202MOL0     H26608   8.587   6.996   1.292  0.2402 -0.3734  0.0922
  202MOL0     H26609   8.553   7.272   1.422  0.1084 -0.3882  0.4700
  202MOL0     H26610   8.656   7.134   1.474 -0.0687  0.6210  0.3939
  202MOL0     H26611   8.427   7.000   1.438  1.2331  1.8283 -3.0643
  202MOL0     H26612   8.360   7.146   1.485 -1.3319 -2.6930  0.0643
  202MOL0     H26613   8.389   7.041   1.686 -1.4457  3.2487 -0.5742
  202MOL0     H26614   8.542   6.958   1.635 -1.3661 -0.8768 -0.2353
  202MOL0     H26615   8.518   7.259   1.682  3.2203 -0.1683 -2.9145
  202MOL0     H26616   8.668   7.177   1.674  0.7120 -0.6441  2.2326
  202MOL0     H26617   8.754   6.999   1.878 -0.2718  1.8886  0.0528
  202MOL0     H26618   8.694   7.040   2.270 -1.3514 -2.0265  0.4815
  202MOL0     H26619   8.838   7.026   2.150  0.3127  1.0222  2.3923
  202MOL0     H26620   8.813   6.809   2.203  0.2160 -0.1549  0.0940
  202MOL0     H26621   8.725   6.833   2.053 -3.3752 -0.9292  0.1898
  202MOL0     H26622   8.620   6.683   2.199 -1.8886  0.3515 -3.8097
  202MOL0     H26623   8.593   6.811   2.319 -0.1597 -0.1836  0.2428
  202MOL0     H26624   8.466   6.934   2.122  4.7541  0.7308 -0.2551
  202MOL0     H26625   8.392   6.779   2.193 -0.2409  0.1623 -0.5064
  202MOL0     H26626   8.469   6.635   1.799  3.1036  3.8910 -0.7009
  202MOL0     H26627   8.332   6.658   1.609  0.6651  0.4805 -0.6996
  202MOL0     H26628   7.911   6.586   1.411  1.1597  0.6448  0.1013
  202MOL0     H26629   7.749   6.646   1.211 -0.0978  0.2491  0.6696
  202MOL0     H26630   7.940   6.833   0.885 -1.1286  0.3500 -3.0004
  202MOL0     H26631   7.903   6.990   0.937  1.7515 -0.0881 -1.7621
  202MOL0     H26632   7.683   6.817   0.815  0.9238 -0.9702  0.5928
  202MOL0     H26633   7.785   6.899   0.703 -2.7049  0.3940 -0.5471
  202MOL0     H26634   7.590   7.018   0.731  2.3152 -6.0170 -2.1304
  202MOL0     H26635   7.740   7.108   0.757 -2.0242  1.6409 -0.5140
  202MOL0     H26636   7.570   7.008   0.985 -1.3004  0.9973  0.2264
  202MOL0     H26637   7.712   7.106   1.007 -1.5676 -3.4334  4.2506
  202MOL0     H26638   7.437   7.182   0.879  1.5823  0.9274 -1.9136
  202MOL0     H26639   7.582   7.282   0.864  0.0346 -2.2009 -2.4715
  202MOL0     H26640   7.460   7.376   1.027  0.6734 -0.9914  0.6649
  202MOL0     H26641   7.599   7.306   1.100 -0.2965  1.6646  0.1039
  202MOL0     H26642   7.443   7.120   1.187 -1.0425 -1.4343  0.5251
  202MOL0     H26643   7.406   7.289   1.236  0.8048 -0.4459 -1.6680
  202MOL0     H26644   7.247   7.120   1.033  1.4790  0.3373 -0.8765
  202MOL0     H26645   7.244   7.296   1.034  1.7374  0.3299  0.2337
  202MOL0     H26646   8.017   6.960   1.113  1.0371  0.0396 -1.2980
  202MOL0     H26647   8.144   6.920   1.295  0.3927 -1.5095 -0.1980
  202MOL0     H26648   8.089   6.929   1.837 -0.7229 -0.7074 -1.4681
  202MOL0     H26649   8.261   6.920   2.024  2.1303 -2.8785  2.6307
  202MOL0     H26650   8.995   6.969   0.816 -2.7084  0.6147  0.5391
  202MOL0     H26651   9.160   7.032   0.654  0.2542  1.4151 -2.9140
  202MOL0     H26652   9.198   7.406   0.357 -0.8858 -0.1426  0.2513
  202MOL0     H26653   9.269   7.513   0.167 -2.5217 -2.9594  1.6764
  202MOL0     H26654   9.506   7.596  -0.099 -0.8239 -0.5140  0.5011
  202MOL0     H26655   9.381   7.510  -0.029 -1.1978  4.4815 -1.4784
  202MOL0     H26656   9.579   7.391  -0.151  1.4426 -2.6869 -0.5271
  202MOL0     H26657   9.669   7.434  -0.002 -1.2403  2.2730 -1.1887
  202MOL0     H26658   9.402   7.301   0.004  0.0989  2.0143  1.0076
  202MOL0     H26659   9.527   7.279   0.132  1.4838 -0.0558 -0.1477
  202MOL0     H26660   9.543   7.146  -0.140  0.7845  0.9986 -0.7470
  202MOL0     H26661   9.661   7.130  -0.017 -0.2647 -3.9149 -2.1974
  202MOL0     H26662   9.345   6.900   0.157  0.1999  0.8469 -1.9254
  202MOL0     H26663   9.673   7.564   0.331  0.7027 -0.5817 -0.5147
  202MOL0     H26664   9.578   7.489   0.549 -3.1278 -1.5894  0.9865
  203MOL0     O26665   0.822   6.634   1.640 -0.3956  0.5025 -0.0798
  203MOL0     C26666   0.882   6.541   1.589 -0.3221  0.4085 -0.2641
  203MOL0     O26667   0.879   6.415   1.638 -0.1273  0.1352  0.3766
  203MOL0     C26668   0.774   6.372   1.716 -0.4621 -0.5490  0.1071
  203MOL0     C26669   0.657   6.337   1.652 -0.5172 -0.3836  0.4470
  203MOL0     C26670   0.567   6.271   1.730  0.7255 -0.5486 -0.0148
  203MOL0     C26671   0.588   6.249   1.874  0.4436  0.6373  1.1709
  203MOL0     O26672   0.510   6.156   1.950  0.0556  0.3958  0.5145
  203MOL0     C26673   0.503   6.022   1.892  0.0107 -0.2672 -0.3250
  203MOL0     C26674   0.411   5.944   1.978 -0.1999  0.1670 -0.1415
  203MOL0     C26675   0.493   5.902   2.104  0.6725 -0.3317 -0.0362
  203MOL0     C26676   0.518   6.017   2.203  1.1002 -0.1696 -0.8812
  203MOL0     C26677   0.511   5.970   2.352 -0.0668 -0.0624 -0.1988
  203MOL0     C26678   0.622   5.867   2.379  0.1950 -0.5462 -1.0344
  203MOL0     C26679   0.664   5.840   2.525 -0.1274 -0.1400  0.3024
  203MOL0     C26680   0.553   5.764   2.608 -0.2881 -0.0940  0.0943
  203MOL0     N26681   0.521   5.621   2.580 -0.4426 -0.6175 -0.5875
  203MOL0     C26682   0.427   5.585   2.485 -0.1140 -0.1699  0.0339
  203MOL0     C26683   0.436   5.452   2.489  0.3889  0.6287 -0.9483
  203MOL0     C26684   0.352   5.355   2.402  0.0140  0.8050  0.4025
  203MOL0     C26685   0.272   5.249   2.478  0.6387  0.7348  0.9253
  203MOL0     C26686   0.261   5.125   2.390  0.4678 -0.0001  0.1816
  203MOL0     C26687   0.195   5.010   2.462  0.1230  0.1241 -0.8925
  203MOL0     O26688   0.063   5.065   2.504 -0.3616  0.1276  0.2956
  203MOL0     C26689   0.041   5.070   2.636  0.9802  0.1281  0.0751
  203MOL0     C26690   0.060   4.967   2.725  0.8744 -0.2449 -0.5099
  203MOL0     C26691   0.029   4.983   2.864  0.3426  0.1858 -0.7866
  203MOL0     C26692  -0.031   5.092   2.917 -0.5486 -0.9607 -0.3009
  203MOL0     C26693  -0.055   5.112   3.064 -1.0675  0.4012  0.2898
  203MOL0     O26694   0.030   5.035   3.147 -0.3173  0.0878  0.3695
  203MOL0     C26695   0.011   4.999   3.280 -0.4566  0.3889  0.4714
  203MOL0     C26696  -0.104   5.029   3.360 -0.4082  0.0855 -0.4191
  203MOL0     C26697  -0.120   4.985   3.491  0.0435 -0.3096  0.1816
  203MOL0     C26698  -0.023   4.904   3.546  0.6481 -0.1121  0.1398
  203MOL0     O26699  -0.046   4.856   3.671 -0.2148  0.1790 -0.5472
  203MOL0     C26700   0.033   4.757   3.734 -0.1580 -0.2640  0.3270
  203MOL0     C26701  -0.007   4.733   3.875 -0.1361  0.1613 -0.2641
  203MOL0     C26702  -0.149   4.671   3.886 -0.3393  0.1243 -0.9765
  203MOL0     C26703  -0.181   4.635   4.040 -0.0448 -0.7880  0.2937
  203MOL0     C26704  -0.148   4.492   4.060 -0.9852 -0.3134  0.1421
  203MOL0     C26705  -0.168   4.441   4.203  0.0960 -0.1772  0.5113
  203MOL0     C26706  -0.157   4.289   4.208  0.9042 -0.2903  0.8117
  203MOL0     C26707  -0.161   4.242   4.354  0.5872 -0.4262 -0.5669
  203MOL0    Cl26708  -0.012   4.308   4.443 -0.1901 -0.2994 -0.4270
  203MOL0     C26709   0.080   4.856   3.468 -0.4708  0.2794  0.0948
  203MOL0     C26710   0.110   4.918   3.342  0.5845 -0.0686 -0.7739
  203MOL0     O26711  -0.158   5.177   3.089 -0.6189  0.5051 -1.7071
  203MOL0     C26712  -0.069   5.188   2.825 -0.6922 -0.5250  0.3979
  203MOL0     C26713  -0.025   5.188   2.691  0.8584 -0.6041 -0.0203
  203MOL0     N26714   0.533   5.417   2.588  0.0490  0.0578  0.0307
  203MOL0     N26715   0.586   5.525   2.636  0.6053  0.3214 -0.1743
  203MOL0     C26716   0.700   6.309   1.931 -0.7589  1.3422 -0.6581
  203MOL0     C26717   0.793   6.375   1.854  0.3559 -0.1378 -0.5915
  203MOL0     C26718   1.001   6.569   1.497 -0.0721  0.2615  0.3606
  203MOL0     C26719   1.051   6.699   1.474  0.8650  0.2702 -0.5361
  203MOL0     C26720   1.168   6.723   1.408 -0.3513  0.9971  0.0941
  203MOL0     C26721   1.240   6.614   1.345  0.0954 -0.3481 -0.0484
  203MOL0     O26722   1.364   6.627   1.280 -0.2609 -0.1029  0.4292
  203MOL0     C26723   1.373   6.755   1.205  0.3884  0.7975  1.0807
  203MOL0     C26724   1.442   6.722   1.069  0.3532  0.5645 -0.4501
  203MOL0     C26725   1.592   6.697   1.095  0.4710 -0.9194  0.4304
  203MOL0     C26726   1.670   6.643   0.972  0.1295 -0.7813 -1.2142
  203MOL0     C26727   1.679   6.504   0.954 -0.4724  0.2680 -0.5914
  203MOL0     C26728   1.697   6.382   0.964 -0.5438  0.2595 -0.2302
  203MOL0     C26729   1.187   6.488   1.356 -0.0131 -0.5930 -0.3865
  203MOL0     C26730   1.074   6.460   1.433  0.0811  0.4458 -0.3589
  203MOL0     H26731   0.640   6.355   1.547 -0.0366  0.6492  0.5324
  203MOL0     H26732   0.470   6.243   1.688  1.4919 -2.8216 -0.3909
  203MOL0     H26733   0.608   5.990   1.895  0.6825  1.7595 -0.1342
  203MOL0     H26734   0.462   6.041   1.793  0.1607  3.7858  0.2071
  203MOL0     H26735   0.375   5.863   1.913 -0.2814  0.9234 -1.0615
  203MOL0     H26736   0.319   5.990   2.014 -0.9802 -1.1024 -0.4581
  203MOL0     H26737   0.588   5.851   2.085  1.0174 -1.0451  3.0600
  203MOL0     H26738   0.429   5.826   2.149 -1.3786  0.5487 -1.2961
  203MOL0     H26739   0.617   6.059   2.183  2.8771 -2.9283  1.3748
  203MOL0     H26740   0.447   6.101   2.197  1.5124  0.2447 -0.1356
  203MOL0     H26741   0.415   5.918   2.356 -2.7593  4.1748 -2.9305
  203MOL0     H26742   0.499   6.054   2.421  2.0278 -1.1973  1.6935
  203MOL0     H26743   0.716   5.909   2.342  0.6816  0.0633  0.7969
  203MOL0     H26744   0.611   5.771   2.328  2.2376 -1.0518 -0.5902
  203MOL0     H26745   0.755   5.780   2.526 -1.0705 -1.7411 -1.7880
  203MOL0     H26746   0.689   5.932   2.579 -1.0436  0.2108  0.1668
  203MOL0     H26747   0.470   5.835   2.601  0.7483  1.1961  0.4080
  203MOL0     H26748   0.586   5.765   2.712  0.2135  3.1575  0.0128
  203MOL0     H26749   0.359   5.639   2.421 -0.4467 -0.6470 -0.0276
  203MOL0     H26750   0.421   5.306   2.332 -0.2757  2.2707 -0.9638
  203MOL0     H26751   0.280   5.408   2.339 -2.0019  0.7995  2.5929
  203MOL0     H26752   0.177   5.289   2.513  0.1731 -0.0040  0.5251
  203MOL0     H26753   0.323   5.213   2.568  2.3666  1.5161  0.3145
  203MOL0     H26754   0.198   5.143   2.302 -1.0220 -0.3195  1.1397
  203MOL0     H26755   0.358   5.086   2.360 -0.4469 -0.7198 -1.9921
  203MOL0     H26756   0.254   4.975   2.547  0.5138  2.2037 -0.2454
  203MOL0     H26757   0.192   4.918   2.403  2.1743 -0.2557 -0.4647
  203MOL0     H26758   0.107   4.873   2.697  2.6027 -0.5937  3.0140
  203MOL0     H26759   0.065   4.904   2.928  0.4862  0.1322 -0.9316
  203MOL0     H26760  -0.188   5.086   3.321  1.3025  1.3273 -2.5374
  203MOL0     H26761  -0.218   4.998   3.536 -1.0828  0.0721 -2.2157
  203MOL0     H26762   0.137   4.789   3.733  0.1971 -1.3631 -0.6910
  203MOL0     H26763   0.025   4.661   3.681  2.2547 -1.0159  1.2054
  203MOL0     H26764  -0.003   4.835   3.915 -1.1197  0.4090 -0.7564
  203MOL0     H26765   0.069   4.674   3.926 -0.9548 -0.8745 -0.2170
  203MOL0     H26766  -0.144   4.580   3.825 -0.2590  0.4967 -1.5400
  203MOL0     H26767  -0.224   4.741   3.847 -0.5482  1.0361  0.9899
  203MOL0     H26768  -0.131   4.706   4.106 -0.9606  3.1784 -2.9058
  203MOL0     H26769  -0.289   4.642   4.057 -0.1388  1.4057 -0.8322
  203MOL0     H26770  -0.042   4.480   4.036 -1.0285 -3.6511  1.0748
  203MOL0     H26771  -0.193   4.421   3.990 -0.7518 -1.9042  1.5591
  203MOL0     H26772  -0.274   4.458   4.225 -0.9093 -0.3327 -3.3826
  203MOL0     H26773  -0.105   4.500   4.270  2.2781  1.5537 -2.7380
  203MOL0     H26774  -0.246   4.247   4.161  1.3757  0.4641 -0.8301
  203MOL0     H26775  -0.067   4.260   4.153 -0.2814 -0.4485 -1.1325
  203MOL0     H26776  -0.158   4.133   4.362 -0.6334 -0.6247 -2.2656
  203MOL0     H26777  -0.258   4.261   4.403 -1.3292 -4.2418 -2.4814
  203MOL0     H26778   0.145   4.779   3.508 -1.4343 -0.2922  0.6140
  203MOL0     H26779   0.201   4.898   3.286  0.8079  0.5016 -0.6184
  203MOL0     H26780  -0.122   5.276   2.860 -0.7736  0.1046 -1.2439
  203MOL0     H26781  -0.033   5.277   2.629  0.6961 -1.5367 -1.3946
  203MOL0     H26782   0.717   6.283   2.035 -1.0869 -1.8085 -1.2890
  203MOL0     H26783   0.890   6.406   1.890  1.0227  0.1080 -2.5270
  203MOL0     H26784   0.994   6.774   1.527  0.2658 -2.1094  2.5027
  203MOL0     H26785   1.187   6.829   1.389  2.7135  0.8404  1.5859
  203MOL0     H26786   1.406   6.838   1.268 -2.6046  1.3870  2.0391
  203MOL0     H26787   1.271   6.781   1.177  0.0999 -1.4183 -0.1166
  203MOL0     H26788   1.398   6.627   1.039 -2.2844  1.4539  0.3488
  203MOL0     H26789   1.425   6.797   0.992  1.0587  1.6810  0.4547
  203MOL0     H26790   1.610   6.621   1.172 -0.4869  1.1431  2.7930
  203MOL0     H26791   1.631   6.796   1.120 -1.9160  0.6699 -1.6382
  203MOL0     H26792   1.621   6.678   0.881  1.4532  0.3943 -1.5226
  203MOL0     H26793   1.777   6.661   0.987  0.4213 -3.3806  0.4626
  203MOL0     H26794   1.703   6.275   0.975  0.7290  0.0743 -2.1759
  203MOL0     H26795   1.235   6.402   1.312  1.2754  1.0676 -2.3571
  203MOL0     H26796   1.039   6.358   1.449 -1.0404  1.2656  3.5527
  204MOL0     O26797   4.056   9.895   0.197  0.3458 -0.4066  0.0204
  204MOL0     C26798   4.169   9.853   0.236  0.1165  0.4941  0.0860
  204MOL0     O26799   4.198   9.803   0.364 -0.2893 -0.9151  0.0317
  204MOL0     C26800   4.097   9.827   0.451 -0.2105  0.0734 -0.5727
  204MOL0     C26801   4.024   9.715   0.486 -0.1751  0.1311 -0.7753
  204MOL0     C26802   3.927   9.717   0.585 -0.1409  0.4195  0.4957
  204MOL0     C26803   3.897   9.835   0.650 -0.3002 -0.3494 -0.1610
  204MOL0     O26804   3.801   9.833   0.746 -0.3775 -0.0216 -0.1012
  204MOL0     C26805   3.716   9.944   0.751  0.1924 -0.4139 -0.1025
  204MOL0     C26806   3.592   9.906   0.830 -0.3568  0.4238 -0.6972
  204MOL0     C26807   3.492  10.010   0.800  1.1921  0.4863 -1.3357
  204MOL0     C26808   3.377  10.010   0.910  0.2939 -0.1101  0.6767
  204MOL0     C26809   3.238  10.013   0.840 -0.7332 -0.2052 -0.8756
  204MOL0     C26810   3.205   9.897   0.737 -0.2618  0.4255 -0.0481
  204MOL0     C26811   3.057   9.873   0.721 -0.4074  0.6985 -0.8603
  204MOL0     C26812   3.042   9.748   0.635  0.6549  0.7685 -0.3077
  204MOL0     N26813   2.904   9.712   0.600 -1.2721 -0.0828  1.2406
  204MOL0     C26814   2.807   9.790   0.551  0.2935 -1.7989 -0.1137
  204MOL0     C26815   2.704   9.710   0.519 -0.7996  0.4487  1.0486
  204MOL0     C26816   2.557   9.749   0.478  0.3470  0.3031  0.3069
  204MOL0     C26817   2.471   9.781   0.597 -0.2306  0.6840 -0.3923
  204MOL0     C26818   2.329   9.830   0.546 -0.1993 -0.1903 -1.0797
  204MOL0     C26819   2.246   9.877   0.663 -0.1087  1.7423  0.3229
  204MOL0     O26820   2.290  10.007   0.705  1.0632  0.0027 -0.5747
  204MOL0     C26821   2.237  10.122   0.639 -0.1467  0.4486  0.1041
  204MOL0     C26822   2.167  10.128   0.515  0.2345  0.9331  0.3228
  204MOL0     C26823   2.108  10.245   0.458 -0.9459 -0.5429 -0.7950
  204MOL0     C26824   2.125  10.365   0.516  0.1258  0.5418  0.4504
  204MOL0     C26825   2.078  10.483   0.455 -0.1997 -0.4616  0.1942
  204MOL0     O26826   2.102  10.600   0.519 -0.0238 -0.1477 -0.0390
  204MOL0     C26827   2.019  10.713   0.499 -0.9997 -0.6997  0.5059
  204MOL0     C26828   2.078  10.839   0.529 -0.2520 -0.4876 -1.2018
  204MOL0     C26829   2.005  10.954   0.514  0.4962  0.6590  0.4960
  204MOL0     C26830   1.876  10.948   0.459 -0.3077  0.6401  0.4146
  204MOL0     O26831   1.803  11.063   0.444  0.5806  0.1813 -0.2432
  204MOL0     C26832   1.681  11.072   0.528  0.1504 -0.3993 -1.0649
  204MOL0     C26833   1.558  11.066   0.439  0.1934  0.1630 -0.2693
  204MOL0     C26834   1.430  11.052   0.530  0.8674  0.2164  0.4364
  204MOL0     C26835   1.304  11.095   0.451  0.2380  0.4313 -0.2221
  204MOL0     C26836   1.297  11.017   0.319 -0.0983  0.2885 -0.4131
  204MOL0     C26837   1.154  11.010   0.267 -0.2029 -0.5205  0.3583
  204MOL0     C26838   1.093  11.147   0.221  0.9590  0.4461  0.3201
  204MOL0     C26839   0.946  11.128   0.168  0.5375  0.3921 -0.2153
  204MOL0    Cl26840   0.940  11.086  -0.013  0.0913 -0.2536  0.1742
  204MOL0     C26841   1.816  10.826   0.437  0.5696 -0.3562  0.2301
  204MOL0     C26842   1.885  10.709   0.465 -0.3433 -0.7216 -0.5022
  204MOL0     O26843   1.999  10.474   0.361  0.6457 -0.5663  0.4704
  204MOL0     C26844   2.209  10.362   0.631 -0.2067  0.5552  0.6481
  204MOL0     C26845   2.251  10.247   0.701  0.6930  0.0232 -0.3160
  204MOL0     N26846   2.744   9.581   0.532  0.1098  0.7764  0.7152
  204MOL0     N26847   2.861   9.581   0.586  0.0192 -0.1354 -0.3707
  204MOL0     C26848   3.968   9.958   0.607 -0.2117 -0.4270 -0.8008
  204MOL0     C26849   4.059   9.957   0.501  0.6851  0.7113 -0.2941
  204MOL0     C26850   4.285   9.887   0.160  0.5369 -0.2559 -0.3370
  204MOL0     C26851   4.406   9.898   0.235 -0.0860 -1.1514  0.2371
  204MOL0     C26852   4.524   9.941   0.161  0.3693 -0.6405  0.5591
  204MOL0     C26853   4.519   9.968   0.022 -0.0682  0.1033  0.1311
  204MOL0     O26854   4.641   9.975  -0.049  0.2057  0.0158  0.3538
  204MOL0     C26855   4.646  10.058  -0.162 -0.5258 -0.1343 -0.0428
  204MOL0     C26856   4.782  10.070  -0.230 -0.1139 -0.2348 -0.4291
  204MOL0     C26857   4.796  10.191  -0.329 -0.1493 -0.7122 -0.0304
  204MOL0     C26858   4.705  10.156  -0.450 -0.3826  0.0508 -1.1828
  204MOL0     C26859   4.728  10.243  -0.558 -0.0050  0.3836  0.4577
  204MOL0     C26860   4.730  10.337  -0.636  0.7682 -0.2809 -0.2772
  204MOL0     C26861   4.399   9.954  -0.049  0.3696  0.5941 -0.4289
  204MOL0     C26862   4.283   9.929   0.022  0.3606 -0.6524 -0.9535
  204MOL0     H26863   4.050   9.617   0.445 -0.2733 -0.7552  1.1764
  204MOL0     H26864   3.868   9.629   0.609 -0.5809  1.1089  2.0649
  204MOL0     H26865   3.690   9.968   0.648  3.4219  2.1236 -0.4864
  204MOL0     H26866   3.756  10.035   0.796 -4.2581 -0.0290  3.8842
  204MOL0     H26867   3.603   9.893   0.938 -3.0844  0.4291 -0.3553
  204MOL0     H26868   3.549   9.814   0.789 -2.7439 -0.3440  3.0293
  204MOL0     H26869   3.457   9.981   0.701  1.3739 -2.3159 -0.6765
  204MOL0     H26870   3.535  10.110   0.791  1.8221  0.3508 -0.0158
  204MOL0     H26871   3.379   9.920   0.973 -0.1879  0.8232  2.0807
  204MOL0     H26872   3.378  10.097   0.976 -0.7861 -0.0057  0.5842
  204MOL0     H26873   3.252  10.109   0.789 -0.4904 -1.7070 -3.8277
  204MOL0     H26874   3.157  10.017   0.913 -0.5383  0.4392 -0.6839
  204MOL0     H26875   3.239   9.797   0.763  1.8940  0.9087 -0.7727
  204MOL0     H26876   3.260   9.930   0.648  2.7702 -1.0547  1.1106
  204MOL0     H26877   2.998   9.862   0.813 -0.3300  1.2314 -0.7427
  204MOL0     H26878   3.007   9.950   0.662 -2.3406 -0.1215 -0.3550
  204MOL0     H26879   3.092   9.664   0.683  0.2190  0.6041 -0.1337
  204MOL0     H26880   3.089   9.772   0.539  2.4974  1.6830  0.7690
  204MOL0     H26881   2.803   9.899   0.546  2.9018 -1.6886 -4.0171
  204MOL0     H26882   2.517   9.662   0.425  0.4958 -0.4210  1.3532
  204MOL0     H26883   2.571   9.826   0.402 -1.1314 -0.0841 -0.3867
  204MOL0     H26884   2.517   9.861   0.657 -1.9108 -1.1073  3.6846
  204MOL0     H26885   2.462   9.690   0.657  4.5967  0.5064  0.4980
  204MOL0     H26886   2.336   9.908   0.470  0.9194  2.4427  1.5534
  204MOL0     H26887   2.273   9.744   0.506 -0.3136 -0.2011 -0.8962
  204MOL0     H26888   2.259   9.798   0.738  1.4736 -0.2233 -1.8726
  204MOL0     H26889   2.140   9.873   0.637  0.0930  0.0796 -0.4039
  204MOL0     H26890   2.150  10.036   0.461 -1.0157  2.2394 -1.6421
  204MOL0     H26891   2.051  10.242   0.366  0.6383  0.1217 -1.8279
  204MOL0     H26892   2.176  10.845   0.575 -1.7080  0.8744  2.0540
  204MOL0     H26893   2.030  11.056   0.540 -0.9666  1.1468  0.0929
  204MOL0     H26894   1.687  11.168   0.580  3.1003  0.6851 -3.1715
  204MOL0     H26895   1.669  10.988   0.597 -1.1680  0.3709 -0.3115
  204MOL0     H26896   1.557  10.980   0.371 -1.6754  0.0687 -0.1702
  204MOL0     H26897   1.561  11.154   0.373  1.7244 -0.7157 -1.4449
  204MOL0     H26898   1.432  11.121   0.615  0.8049 -0.1444  0.7363
  204MOL0     H26899   1.430  10.952   0.575 -1.2545 -0.3459 -0.6812
  204MOL0     H26900   1.217  11.078   0.515  1.5817 -0.6264  1.4269
  204MOL0     H26901   1.311  11.203   0.441 -0.3688  0.8121  2.6856
  204MOL0     H26902   1.333  10.916   0.340 -0.7202  0.7570  3.8101
  204MOL0     H26903   1.366  11.052   0.242  2.5268 -2.8257  0.2837
  204MOL0     H26904   1.097  10.961   0.347 -0.7011  1.5059  1.3127
  204MOL0     H26905   1.160  10.947   0.177  0.1590 -0.7638  0.5473
  204MOL0     H26906   1.089  11.205   0.313 -1.6293 -0.4774  0.8937
  204MOL0     H26907   1.155  11.195   0.145  0.2898 -0.3175 -0.7574
  204MOL0     H26908   0.901  11.228   0.163  0.7639  0.6334  1.8696
  204MOL0     H26909   0.879  11.066   0.228  1.1658 -1.1436 -1.0522
  204MOL0     H26910   1.711  10.815   0.412  0.4556  1.0475  0.0076
  204MOL0     H26911   1.823  10.620   0.465 -1.5148  0.0439 -2.2091
  204MOL0     H26912   2.253  10.453   0.672 -1.4241  0.8021  1.5089
  204MOL0     H26913   2.289  10.248   0.802 -0.7884  0.9199  0.2632
  204MOL0     H26914   3.943  10.053   0.655  0.7879 -0.6328  0.1736
  204MOL0     H26915   4.108  10.038   0.448  0.5034  0.0070 -1.5734
  204MOL0     H26916   4.412   9.864   0.338  0.2767 -0.8643  0.3157
  204MOL0     H26917   4.609   9.961   0.225 -1.7068  0.7496  3.1090
  204MOL0     H26918   4.620  10.160  -0.133  0.2987  0.0839 -0.0396
  204MOL0     H26919   4.576  10.024  -0.239  0.7733  1.6705 -2.1433
  204MOL0     H26920   4.853  10.081  -0.148 -0.2857 -4.1663  0.4489
  204MOL0     H26921   4.801   9.978  -0.286 -2.6363 -0.6421 -0.7583
  204MOL0     H26922   4.899  10.208  -0.358  0.0533 -2.9842 -0.8731
  204MOL0     H26923   4.763  10.281  -0.276  1.1046 -1.3070  1.8792
  204MOL0     H26924   4.730  10.056  -0.488  0.6295  0.4031 -1.4749
  204MOL0     H26925   4.600  10.139  -0.423 -0.7897 -1.6190 -3.4773
  204MOL0     H26926   4.733  10.408  -0.716  2.7332 -0.3698 -0.3356
  204MOL0     H26927   4.389   9.967  -0.157  0.0690 -2.0856 -0.7947
  204MOL0     H26928   4.189   9.945  -0.030 -1.2902 -1.6696  1.4921
  205MOL0     O26929   4.336   1.477   4.486 -0.0115  0.1977  0.1484
  205MOL0     C26930   4.266   1.381   4.453  0.5282 -0.1248 -0.8981
  205MOL0     O26931   4.149   1.377   4.386 -0.5067 -0.2042  0.1015
  205MOL0     C26932   4.100   1.487   4.318 -0.1531 -0.2450 -0.5190
  205MOL0     C26933   3.963   1.480   4.284  0.3647 -0.4988 -0.1012
  205MOL0     C26934   3.916   1.582   4.193  0.3271 -0.1360  0.4479
  205MOL0     C26935   3.990   1.696   4.158 -1.2643  0.4475  0.9887
  205MOL0     O26936   3.968   1.783   4.055 -0.0520  0.2503  0.3148
  205MOL0     C26937   3.834   1.828   4.046 -0.4596 -0.4781  0.8154
  205MOL0     C26938   3.837   1.974   4.016  0.1780  0.7017 -0.3219
  205MOL0     C26939   3.938   2.055   4.096 -0.3298  0.3796  0.2015
  205MOL0     C26940   3.947   2.194   4.030 -0.8175  1.4068  0.7922
  205MOL0     C26941   4.075   2.269   4.072  0.3223 -0.1479 -0.0620
  205MOL0     C26942   4.117   2.386   3.970  0.1362  0.5067  0.3868
  205MOL0     C26943   4.216   2.356   3.861 -0.5551 -0.2735 -0.1406
  205MOL0     C26944   4.224   2.462   3.752  0.0250 -0.2012 -0.1247
  205MOL0     N26945   4.310   2.574   3.789 -0.8602 -0.1122  1.2341
  205MOL0     C26946   4.448   2.583   3.792  0.4053 -0.4347  0.1682
  205MOL0     C26947   4.469   2.708   3.833 -1.3146  0.3390  0.1440
  205MOL0     C26948   4.606   2.765   3.866  0.3373 -0.1171 -0.0023
  205MOL0     C26949   4.589   2.880   3.961  0.3170 -0.8855 -0.0096
  205MOL0     C26950   4.731   2.926   4.004  0.7206 -0.6373  0.1770
  205MOL0     C26951   4.735   3.069   4.061 -0.2735 -0.4127 -0.2008
  205MOL0     O26952   4.851   3.074   4.139 -0.6548 -0.8825  0.8290
  205MOL0     C26953   4.886   3.186   4.197 -0.1808 -0.1970 -0.2049
  205MOL0     C26954   5.009   3.172   4.256 -0.1029  0.2811 -0.6562
  205MOL0     C26955   5.075   3.283   4.313 -0.5952  0.6574  0.1509
  205MOL0     C26956   5.019   3.406   4.317  0.0445 -0.7510  0.0104
  205MOL0     C26957   5.096   3.525   4.363 -1.0369 -0.0544  1.1638
  205MOL0     O26958   5.176   3.516   4.479  0.8602 -0.6218 -0.3967
  205MOL0     C26959   5.255   3.624   4.511  0.1203 -0.3050  0.8058
  205MOL0     C26960   5.308   3.734   4.433 -0.0421  0.3811  0.4203
  205MOL0     C26961   5.409   3.824   4.476  0.4183  0.5027 -0.2171
  205MOL0     C26962   5.453   3.812   4.608  0.0486 -0.5236  0.2086
  205MOL0     O26963   5.548   3.900   4.653 -0.4757 -0.0981 -0.1168
  205MOL0     C26964   5.684   3.838   4.661 -0.2473 -0.9079  0.3334
  205MOL0     C26965   5.728   3.781   4.795  0.1024 -0.1121  0.2011
  205MOL0     C26966   5.753   3.883   4.910 -0.2061  0.1143 -0.8469
  205MOL0     C26967   5.782   3.812   5.038 -0.4475 -0.1337 -0.2303
  205MOL0     C26968   5.797   3.914   5.153 -1.6477  0.6837  0.0341
  205MOL0     C26969   5.804   3.837   5.295  0.0794 -0.1909 -0.0336
  205MOL0     C26970   5.673   3.762   5.334  1.0201  0.2589 -0.1294
  205MOL0     C26971   5.670   3.693   5.472  0.2496 -0.5780  0.1446
  205MOL0    Cl26972   5.705   3.804   5.597 -0.1534  0.4594 -0.1841
  205MOL0     C26973   5.394   3.717   4.695 -0.0130 -0.4692 -0.4812
  205MOL0     C26974   5.296   3.634   4.641  0.1231  0.0626  0.6040
  205MOL0     O26975   5.078   3.627   4.295  0.0364 -0.0445 -0.7516
  205MOL0     C26976   4.893   3.415   4.257 -0.3082 -0.4126 -0.2995
  205MOL0     C26977   4.822   3.311   4.192 -0.2805 -0.2990 -0.5739
  205MOL0     N26978   4.346   2.759   3.865 -0.1097 -0.0962 -0.3773
  205MOL0     N26979   4.250   2.682   3.853  0.0926 -0.4657 -0.5844
  205MOL0     C26980   4.127   1.696   4.184  0.6753  0.2562 -0.3789
  205MOL0     C26981   4.179   1.592   4.265  0.7199  0.1087  0.1631
  205MOL0     C26982   4.328   1.250   4.474 -0.6367  0.2585 -0.4613
  205MOL0     C26983   4.467   1.235   4.506  0.0978 -0.4729  0.0938
  205MOL0     C26984   4.535   1.121   4.514  0.4272  0.1531  0.3184
  205MOL0     C26985   4.467   1.013   4.462 -0.5675  0.1374  0.2437
  205MOL0     O26986   4.537   0.897   4.443 -0.1515 -0.5664 -0.5853
  205MOL0     C26987   4.494   0.802   4.351 -0.5597  0.8354  0.1927
  205MOL0     C26988   4.635   0.762   4.279 -0.4074 -0.0174  0.1406
  205MOL0     C26989   4.690   0.888   4.206 -0.9707 -0.9221  0.2429
  205MOL0     C26990   4.782   0.857   4.093 -0.3243  0.3104  0.6924
  205MOL0     C26991   4.721   0.797   3.971  0.1031  1.1530 -0.8717
  205MOL0     C26992   4.651   0.748   3.890 -1.5471  0.3726  0.1296
  205MOL0     C26993   4.332   1.020   4.442 -0.8544 -0.3106  0.0834
  205MOL0     C26994   4.266   1.140   4.442  0.5590  0.0534 -0.1911
  205MOL0     H26995   3.899   1.398   4.316  3.8181 -3.1848  0.5575
  205MOL0     H26996   3.814   1.587   4.156 -0.4681 -3.0022  1.9244
  205MOL0     H26997   3.790   1.820   4.146  1.7572  0.9826  2.0033
  205MOL0     H26998   3.780   1.779   3.965 -1.4425 -0.0723  1.2079
  205MOL0     H26999   3.733   2.006   4.026 -0.4956 -1.9027  3.2390
  205MOL0     H27000   3.873   1.984   3.913  2.8628  0.2924  0.4990
  205MOL0     H27001   4.037   2.008   4.099 -0.7369 -0.7210 -1.7712
  205MOL0     H27002   3.901   2.081   4.195  3.2443 -1.5267  2.2371
  205MOL0     H27003   3.953   2.188   3.921 -0.2981 -1.5905  0.8926
  205MOL0     H27004   3.863   2.259   4.057 -1.0064  1.3368  0.3792
  205MOL0     H27005   4.155   2.194   4.073 -1.5944 -2.3694  2.1262
  205MOL0     H27006   4.049   2.305   4.172 -0.4923 -1.8318  0.3643
  205MOL0     H27007   4.153   2.472   4.028  0.6120  1.8575 -1.8114
  205MOL0     H27008   4.026   2.417   3.917  2.1169  3.3861 -1.6731
  205MOL0     H27009   4.315   2.332   3.901 -2.1179 -2.0294  3.0814
  205MOL0     H27010   4.175   2.267   3.811 -1.6203  1.1777 -2.0020
  205MOL0     H27011   4.122   2.482   3.720 -0.3685 -4.3348 -2.1804
  205MOL0     H27012   4.279   2.418   3.668  4.6009  1.0083  1.9021
  205MOL0     H27013   4.519   2.504   3.769  2.0005  1.4473 -1.8273
  205MOL0     H27014   4.648   2.803   3.772 -0.3901  0.2561 -0.1858
  205MOL0     H27015   4.664   2.685   3.912 -0.9873 -1.0916  0.0439
  205MOL0     H27016   4.523   2.842   4.039 -2.3313  2.1525 -0.5519
  205MOL0     H27017   4.535   2.963   3.914  0.7911  2.1223  4.2110
  205MOL0     H27018   4.755   2.864   4.091 -0.1755  0.5529  1.3148
  205MOL0     H27019   4.800   2.916   3.920 -0.0120 -1.5068 -0.3486
  205MOL0     H27020   4.648   3.098   4.120  2.2810  2.4573  2.4728
  205MOL0     H27021   4.743   3.143   3.982 -3.3149 -0.2161 -0.4504
  205MOL0     H27022   5.044   3.070   4.247 -1.8250 -0.7980  2.9023
  205MOL0     H27023   5.177   3.271   4.346  0.5946  0.0789 -3.2766
  205MOL0     H27024   5.283   3.749   4.329  0.8723  0.9966  0.2795
  205MOL0     H27025   5.427   3.908   4.410 -1.3463  0.6459 -0.5630
  205MOL0     H27026   5.765   3.906   4.635 -0.9505 -0.1408  0.1099
  205MOL0     H27027   5.679   3.767   4.578 -1.2560  0.5724 -0.9087
  205MOL0     H27028   5.822   3.734   4.767 -0.1031  0.2415 -1.1530
  205MOL0     H27029   5.655   3.702   4.816  0.8861 -0.6279  1.0242
  205MOL0     H27030   5.656   3.934   4.915 -0.7128 -0.9407  1.5010
  205MOL0     H27031   5.831   3.958   4.895  0.4918 -0.0542  1.5881
  205MOL0     H27032   5.699   3.749   5.070  0.8946 -0.7196  2.3681
  205MOL0     H27033   5.871   3.749   5.031 -0.4540 -0.1557 -0.1131
  205MOL0     H27034   5.706   3.974   5.160 -0.2132  2.9205  0.7247
  205MOL0     H27035   5.883   3.982   5.141 -0.7129 -0.6971 -1.4492
  205MOL0     H27036   5.831   3.902   5.379  1.7157  0.0372 -0.6894
  205MOL0     H27037   5.884   3.763   5.295 -0.6834 -1.0345 -0.8266
  205MOL0     H27038   5.600   3.843   5.339  2.2179  1.3515  0.2870
  205MOL0     H27039   5.656   3.689   5.255  3.9367 -0.1833 -0.4572
  205MOL0     H27040   5.737   3.608   5.481  0.8494 -0.3104 -1.4500
  205MOL0     H27041   5.578   3.640   5.500  1.1573 -1.5354  1.4189
  205MOL0     H27042   5.421   3.738   4.797 -2.2395  0.5595 -0.0387
  205MOL0     H27043   5.254   3.555   4.704  1.7782 -0.9602  0.4807
  205MOL0     H27044   4.851   3.515   4.252  0.4370  0.0957  2.0344
  205MOL0     H27045   4.719   3.325   4.159 -0.4153 -1.3265 -0.6123
  205MOL0     H27046   4.200   1.764   4.141  1.6197 -1.3928 -1.4810
  205MOL0     H27047   4.283   1.572   4.287  0.3599  1.1979  3.3424
  205MOL0     H27048   4.532   1.322   4.510 -0.0048 -0.2575 -1.8456
  205MOL0     H27049   4.640   1.115   4.541  0.0557  2.8037  2.9059
  205MOL0     H27050   4.424   0.838   4.276  0.3818 -0.6454 -1.4684
  205MOL0     H27051   4.451   0.714   4.401  0.5021  0.0785 -0.2003
  205MOL0     H27052   4.705   0.720   4.352 -0.5951  1.3884  1.1738
  205MOL0     H27053   4.613   0.683   4.206 -0.8163 -1.3913  1.6768
  205MOL0     H27054   4.742   0.951   4.278  0.6643 -1.1196 -0.7093
  205MOL0     H27055   4.600   0.937   4.168 -0.6282 -0.9461 -0.6115
  205MOL0     H27056   4.828   0.947   4.051  2.6962 -1.7200 -0.7227
  205MOL0     H27057   4.859   0.789   4.130  0.3390 -0.1216 -1.3477
  205MOL0     H27058   4.573   0.735   3.817  0.2604  0.8148 -1.9937
  205MOL0     H27059   4.268   0.937   4.414  0.8806 -2.0356  1.0238
  205MOL0     H27060   4.160   1.139   4.417  0.2534 -0.1286  1.0509
  206MOL0     O27061   8.686   0.210   0.718  1.3944  0.5197 -0.1482
  206MOL0     C27062   8.676   0.330   0.734  0.0014  0.0074 -0.1696
  206MOL0     O27063   8.767   0.408   0.806  0.0788 -0.1567 -0.4582
  206MOL0     C27064   8.896   0.372   0.852 -0.2803  0.2987  0.0553
  206MOL0     C27065   8.920   0.257   0.932 -0.6659  0.4368 -0.4558
  206MOL0     C27066   9.033   0.255   1.016 -0.3086  0.2191 -0.2479
  206MOL0     C27067   9.127   0.352   1.015 -1.0341 -0.3376 -0.3695
  206MOL0     O27068   9.229   0.346   1.112  0.1142 -0.2192  0.1654
  206MOL0     C27069   9.278   0.472   1.166 -0.5813 -0.0817  0.4033
  206MOL0     C27070   9.163   0.552   1.233 -0.0635  0.5526 -0.1868
  206MOL0     C27071   9.120   0.516   1.375  1.2382  0.4288 -0.9941
  206MOL0     C27072   9.078   0.367   1.388 -0.3444  0.2818 -0.4617
  206MOL0     C27073   9.044   0.323   1.536  0.1686  0.0307 -1.0131
  206MOL0     C27074   8.914   0.373   1.592  0.9395  0.5938  0.6377
  206MOL0     C27075   8.899   0.341   1.743 -0.5084 -0.6894 -0.5368
  206MOL0     C27076   8.890   0.190   1.767  0.3817  1.3007 -0.4895
  206MOL0     N27077   8.758   0.150   1.820 -0.5382 -0.3553  0.0936
  206MOL0     C27078   8.736   0.128   1.953 -0.3356 -0.0512 -0.6270
  206MOL0     C27079   8.609   0.094   1.956  0.3078  0.7370 -0.4135
  206MOL0     C27080   8.530   0.057   2.081  0.1862  0.6435  0.7241
  206MOL0     C27081   8.529  -0.101   2.098 -0.9441  0.7417 -0.7086
  206MOL0     C27082   8.484  -0.117   2.245 -0.0906 -0.1834  0.9028
  206MOL0     C27083   8.493  -0.267   2.288 -0.3663 -0.1504 -0.2200
  206MOL0     O27084   8.630  -0.308   2.280  0.6924 -0.5761  0.5380
  206MOL0     C27085   8.662  -0.431   2.225 -0.1094  0.0145  0.2162
  206MOL0     C27086   8.729  -0.529   2.298 -0.5647  0.0679 -0.2380
  206MOL0     C27087   8.770  -0.650   2.233  0.6202  0.4253  1.3818
  206MOL0     C27088   8.756  -0.674   2.088 -0.3955  0.7818 -0.5114
  206MOL0     C27089   8.820  -0.791   2.027  0.1736  0.1749  0.4180
  206MOL0     O27090   8.867  -0.779   1.898  0.2950  0.9001 -0.4305
  206MOL0     C27091   8.943  -0.865   1.829  0.5616 -0.3926 -0.6128
  206MOL0     C27092   8.886  -0.983   1.778  0.1208  0.4714 -0.6654
  206MOL0     C27093   8.968  -1.073   1.714 -0.1213 -0.0642 -0.0924
  206MOL0     C27094   9.104  -1.046   1.685 -1.3491  0.3517  0.2638
  206MOL0     O27095   9.180  -1.122   1.607  0.7361  0.5379 -0.5154
  206MOL0     C27096   9.143  -1.254   1.573  0.7099 -1.0888  0.2490
  206MOL0     C27097   9.227  -1.306   1.454 -0.2081  0.6360  0.9899
  206MOL0     C27098   9.190  -1.217   1.328 -0.1014 -0.7726 -0.1528
  206MOL0     C27099   9.242  -1.271   1.199 -0.4170 -0.4740  0.1920
  206MOL0     C27100   9.282  -1.164   1.094 -0.1306  0.1905 -0.3066
  206MOL0     C27101   9.160  -1.130   1.004 -0.1203  0.5188 -0.3190
  206MOL0     C27102   9.202  -1.000   0.933  0.0918 -0.1442 -0.4321
  206MOL0     C27103   9.106  -0.967   0.809  0.0658  0.6263  0.0155
  206MOL0    Cl27104   8.923  -0.923   0.840 -0.7977 -0.2694 -0.6356
  206MOL0     C27105   9.155  -0.929   1.733  0.7241 -0.2325  0.2667
  206MOL0     C27106   9.078  -0.837   1.804 -0.0924 -0.1757 -0.2366
  206MOL0     O27107   8.825  -0.892   2.091 -0.8660 -0.0555  0.2265
  206MOL0     C27108   8.685  -0.569   2.024 -1.0214  0.4214  0.6648
  206MOL0     C27109   8.639  -0.453   2.094  0.0752 -0.5667 -0.0920
  206MOL0     N27110   8.543   0.113   1.834 -0.6249 -0.9061 -0.2315
  206MOL0     N27111   8.641   0.146   1.754  0.8054  0.1283 -0.8062
  206MOL0     C27112   9.121   0.451   0.905 -0.3196 -0.2720 -0.5157
  206MOL0     C27113   8.998   0.458   0.839  0.0533 -0.7675  0.1602
  206MOL0     C27114   8.563   0.403   0.674  0.6864 -0.4034  0.4246
  206MOL0     C27115   8.549   0.548   0.672  0.4815  0.9728 -0.1708
  206MOL0     C27116   8.424   0.613   0.657  0.2286 -0.3897 -0.4043
  206MOL0     C27117   8.312   0.545   0.626  0.3307  0.0779 -0.7436
  206MOL0     O27118   8.194   0.608   0.631  1.0069  0.1988  0.5627
  206MOL0     C27119   8.065   0.559   0.601 -0.0620  0.6297  0.1667
  206MOL0     C27120   7.958   0.651   0.575 -0.5214 -0.0128  0.0997
  206MOL0     C27121   7.936   0.755   0.688 -0.4511 -0.5047 -0.1902
  206MOL0     C27122   7.935   0.899   0.635  0.4504 -0.0034  0.4830
  206MOL0     C27123   7.878   0.987   0.738 -0.0820  1.0672 -0.1614
  206MOL0     C27124   7.830   1.045   0.839 -0.5558 -0.6318 -0.4592
  206MOL0     C27125   8.330   0.406   0.609  0.1365  0.0742  1.2570
  206MOL0     C27126   8.448   0.335   0.628  0.6512 -0.1873 -0.2657
  206MOL0     H27127   8.841   0.184   0.941 -2.7588  2.1561 -3.3415
  206MOL0     H27128   9.048   0.185   1.098  2.1769 -0.2035 -0.9647
  206MOL0     H27129   9.326   0.517   1.078  2.7258  0.8258  2.5125
  206MOL0     H27130   9.361   0.449   1.233 -0.6917 -3.4539 -0.4734
  206MOL0     H27131   9.082   0.551   1.159  0.5744 -1.0434 -0.9220
  206MOL0     H27132   9.179   0.660   1.238  0.0852  0.8021 -3.5135
  206MOL0     H27133   9.029   0.573   1.393  0.8260 -0.3744 -0.4705
  206MOL0     H27134   9.193   0.534   1.454  2.0817  2.8406 -2.2134
  206MOL0     H27135   8.986   0.362   1.329 -0.2883  1.3478 -0.6622
  206MOL0     H27136   9.149   0.292   1.353 -0.2530  0.8677 -1.5756
  206MOL0     H27137   9.120   0.353   1.609 -1.7174  0.8810  0.6867
  206MOL0     H27138   9.041   0.214   1.542 -2.4801  0.1282  2.4510
  206MOL0     H27139   8.827   0.327   1.544  1.0403  1.6340 -0.6112
  206MOL0     H27140   8.912   0.481   1.574 -0.7778  0.4512 -0.1511
  206MOL0     H27141   8.973   0.394   1.804 -2.4168  1.0987  0.3719
  206MOL0     H27142   8.800   0.383   1.763  0.6489  2.9581 -1.6398
  206MOL0     H27143   8.963   0.168   1.846 -0.1942 -0.6646 -0.4687
  206MOL0     H27144   8.906   0.128   1.678 -1.6224  0.4094 -0.2750
  206MOL0     H27145   8.796   0.150   2.040 -2.7908  0.5590  0.9974
  206MOL0     H27146   8.427   0.090   2.066 -0.6375 -1.6615  0.8714
  206MOL0     H27147   8.571   0.103   2.171  0.0569  0.9609  0.6198
  206MOL0     H27148   8.632  -0.137   2.092  0.3837  3.5815  2.0695
  206MOL0     H27149   8.473  -0.154   2.020  1.2498  2.4746 -3.6522
  206MOL0     H27150   8.534  -0.054   2.319 -1.3001 -2.2786  3.7148
  206MOL0     H27151   8.376  -0.098   2.235  0.0893 -0.3244 -4.5721
  206MOL0     H27152   8.446  -0.334   2.217 -2.0409 -0.2217  0.8926
  206MOL0     H27153   8.437  -0.276   2.382 -2.0984  0.6696 -1.1315
  206MOL0     H27154   8.752  -0.511   2.402 -2.5683 -0.2115  0.3067
  206MOL0     H27155   8.793  -0.739   2.290 -3.2377 -0.3697  1.9218
  206MOL0     H27156   8.785  -1.018   1.794  0.1771  0.7132  0.3208
  206MOL0     H27157   8.925  -1.161   1.667 -0.6884  0.7017 -1.0385
  206MOL0     H27158   9.035  -1.256   1.551  0.3374  4.3688  0.2121
  206MOL0     H27159   9.156  -1.312   1.664 -0.0500  0.2945  1.2847
  206MOL0     H27160   9.212  -1.413   1.435  2.8018  0.4325 -0.9479
  206MOL0     H27161   9.334  -1.309   1.476  0.3168 -1.1406 -1.3544
  206MOL0     H27162   9.214  -1.112   1.346  0.4431 -1.0390  0.7166
  206MOL0     H27163   9.081  -1.210   1.319 -0.2022  0.3345  1.6092
  206MOL0     H27164   9.334  -1.327   1.221 -0.5582  0.2953  3.1290
  206MOL0     H27165   9.167  -1.345   1.168 -0.8208 -0.6272  1.4826
  206MOL0     H27166   9.368  -1.208   1.042  0.6056 -0.2261  1.2133
  206MOL0     H27167   9.328  -1.076   1.139 -0.9186  0.6878 -0.4476
  206MOL0     H27168   9.065  -1.117   1.057 -0.9699 -0.1296 -1.6420
  206MOL0     H27169   9.149  -1.215   0.936 -1.4951 -2.3915  3.1743
  206MOL0     H27170   9.185  -0.927   1.012 -0.7840  0.1376 -0.8696
  206MOL0     H27171   9.304  -1.015   0.897  0.3636  0.4801  0.0639
  206MOL0     H27172   9.113  -1.061   0.754  0.3454 -0.5956  2.0583
  206MOL0     H27173   9.152  -0.886   0.752 -3.1760  2.0004 -0.9078
  206MOL0     H27174   9.253  -0.898   1.699 -0.2479  1.4898 -1.1465
  206MOL0     H27175   9.137  -0.750   1.832  1.4491 -0.4471 -2.4458
  206MOL0     H27176   8.679  -0.597   1.919  2.1851 -0.4696  0.6188
  206MOL0     H27177   8.598  -0.378   2.028 -0.2312 -0.5436  0.1227
  206MOL0     H27178   9.198   0.526   0.895 -0.5639 -0.3119 -4.1305
  206MOL0     H27179   8.993   0.547   0.777  1.3730 -0.6888  0.1397
  206MOL0     H27180   8.640   0.604   0.692 -0.1455  1.1321  2.6815
  206MOL0     H27181   8.414   0.720   0.665 -1.1311 -0.5983  1.7262
  206MOL0     H27182   8.030   0.500   0.686 -0.7694 -0.0953 -0.6046
  206MOL0     H27183   8.067   0.489   0.517  0.3299  0.6693  0.1416
  206MOL0     H27184   7.995   0.709   0.490  0.0440 -1.6002 -0.7756
  206MOL0     H27185   7.863   0.605   0.545 -0.9949  0.8264  0.2805
  206MOL0     H27186   8.014   0.753   0.764 -1.3293 -0.7888  0.7191
  206MOL0     H27187   7.837   0.735   0.730 -0.7734  0.8576 -0.2449
  206MOL0     H27188   8.037   0.935   0.620 -0.3720  1.7884 -1.1687
  206MOL0     H27189   7.881   0.903   0.540 -1.0547 -0.0216  1.3052
  206MOL0     H27190   7.798   1.085   0.933  1.2780  0.4757 -0.2686
  206MOL0     H27191   8.245   0.346   0.579  0.8251 -2.9577  4.6936
  206MOL0     H27192   8.446   0.227   0.621 -0.1770 -0.0447 -3.8926
  207MOL0     O27193   2.059   1.664   1.541  0.0578 -0.3064  0.3282
  207MOL0     C27194   2.039   1.542   1.516 -0.3631 -0.0431  0.0511
  207MOL0     O27195   2.124   1.453   1.548  0.9786  0.4503  0.6117
  207MOL0     C27196   2.239   1.481   1.624 -0.3533 -0.2989 -0.2943
  207MOL0     C27197   2.236   1.514   1.756  0.1820 -0.0342 -0.7089
  207MOL0     C27198   2.349   1.530   1.839  0.2536 -0.7971 -0.0341
  207MOL0     C27199   2.474   1.530   1.775 -0.8691 -0.7462  0.2044
  207MOL0     O27200   2.602   1.548   1.833  0.7681  0.0418  0.3920
  207MOL0     C27201   2.621   1.518   1.971 -0.2266  0.9911 -0.3662
  207MOL0     C27202   2.775   1.510   1.984 -0.3905  0.2556  0.2840
  207MOL0     C27203   2.813   1.467   2.129  0.3350 -0.2429 -0.2939
  207MOL0     C27204   2.778   1.580   2.231  0.5426  0.3052  0.6947
  207MOL0     C27205   2.813   1.541   2.372  0.8488  0.9131  1.1882
  207MOL0     C27206   2.801   1.654   2.470 -0.2278  0.4028 -0.4307
  207MOL0     C27207   2.914   1.756   2.455  0.1975 -1.0771 -0.6823
  207MOL0     C27208   2.975   1.775   2.597 -0.8437  0.0658 -0.5753
  207MOL0     N27209   2.913   1.879   2.674  0.4461  0.2847  0.1008
  207MOL0     C27210   2.974   1.993   2.706 -1.1897 -0.4884  1.0038
  207MOL0     C27211   2.893   2.045   2.795  0.2445 -0.3292  0.1572
  207MOL0     C27212   2.920   2.166   2.871  0.0024  0.5202  0.8620
  207MOL0     C27213   2.932   2.299   2.783 -0.2662 -0.0457 -0.6811
  207MOL0     C27214   2.968   2.414   2.865 -0.2911 -0.5945 -0.1403
  207MOL0     C27215   2.998   2.527   2.780  0.3860 -0.8373 -0.2384
  207MOL0     O27216   3.042   2.653   2.844 -0.3383  0.2869  0.9790
  207MOL0     C27217   3.044   2.770   2.772  0.3083  0.4116 -0.8954
  207MOL0     C27218   3.083   2.768   2.642  0.1792  1.0619  0.5223
  207MOL0     C27219   3.115   2.879   2.574 -0.1875 -0.6615 -0.4220
  207MOL0     C27220   3.115   3.001   2.641  0.1581 -0.1818 -0.1238
  207MOL0     C27221   3.171   3.124   2.578 -0.3057 -0.1747 -0.3251
  207MOL0     O27222   3.139   3.244   2.639 -0.3506  0.5556  0.3905
  207MOL0     C27223   3.168   3.357   2.568 -0.0961  0.5192 -0.3696
  207MOL0     C27224   3.077   3.408   2.481  0.1459 -0.4350  0.1615
  207MOL0     C27225   3.100   3.526   2.418 -0.0042 -0.1747 -0.3712
  207MOL0     C27226   3.218   3.594   2.442  0.2120  0.4671  0.1419
  207MOL0     O27227   3.226   3.705   2.366  0.1643 -0.3035  0.3226
  207MOL0     C27228   3.319   3.812   2.398 -0.1118  0.5163  0.4634
  207MOL0     C27229   3.280   3.941   2.331 -0.1081  1.2429  0.4309
  207MOL0     C27230   3.280   3.942   2.181 -0.1894  0.2462  0.8010
  207MOL0     C27231   3.410   3.992   2.121  0.8294 -0.4409  0.3332
  207MOL0     C27232   3.505   3.868   2.110  0.3070  0.0786  0.1354
  207MOL0     C27233   3.609   3.903   2.009 -0.5335  0.3773  0.6263
  207MOL0     C27234   3.550   3.880   1.862  0.1155  0.1735 -0.7660
  207MOL0     C27235   3.635   3.970   1.761 -0.1391  0.2755 -0.2203
  207MOL0    Cl27236   3.614   4.145   1.807 -0.3946 -0.0557  0.1215
  207MOL0     C27237   3.310   3.541   2.533 -0.0207 -0.4163  0.5298
  207MOL0     C27238   3.287   3.423   2.599  0.3321  0.6030 -0.3117
  207MOL0     O27239   3.254   3.109   2.494 -0.0459 -0.8815 -0.1797
  207MOL0     C27240   3.078   3.002   2.775 -0.0586 -0.2386 -0.0520
  207MOL0     C27241   3.031   2.890   2.839  0.6180 -0.6300  0.1238
  207MOL0     N27242   2.780   1.970   2.811  0.1626  1.1382  0.0156
  207MOL0     N27243   2.795   1.870   2.739  0.2217  0.7637 -0.3993
  207MOL0     C27244   2.474   1.509   1.634 -0.5670  0.0932 -0.3418
  207MOL0     C27245   2.362   1.477   1.557 -0.5360  0.8668  0.8431
  207MOL0     C27246   1.941   1.510   1.411  1.0618 -0.4040  0.1877
  207MOL0     C27247   1.936   1.375   1.375 -0.0899  0.5820  1.4006
  207MOL0     C27248   1.851   1.333   1.282  1.5243  1.4742  1.6423
  207MOL0     C27249   1.756   1.414   1.222  1.3307 -0.1390  0.2963
  207MOL0     O27250   1.637   1.375   1.160  1.0315 -0.2576  0.6114
  207MOL0     C27251   1.641   1.273   1.056  0.3937  0.6915 -0.2856
  207MOL0     C27252   1.537   1.306   0.954  0.2255 -0.0546 -0.3684
  207MOL0     C27253   1.396   1.262   1.001 -0.6032  0.1072 -0.4325
  207MOL0     C27254   1.299   1.369   1.004  0.5148  0.1634 -0.1597
  207MOL0     C27255   1.270   1.424   0.873  0.4309  0.6963  0.4155
  207MOL0     C27256   1.252   1.472   0.763 -0.1408  0.9540  0.4732
  207MOL0     C27257   1.764   1.551   1.249  0.6872 -0.2169  0.5878
  207MOL0     C27258   1.848   1.599   1.348 -0.1114 -1.2199  0.8489
  207MOL0     H27259   2.136   1.517   1.800  0.7279 -1.5684  0.7626
  207MOL0     H27260   2.338   1.556   1.944 -1.0997  0.4602 -0.4423
  207MOL0     H27261   2.574   1.423   1.999 -0.7365  0.5512 -2.5448
  207MOL0     H27262   2.577   1.597   2.033  3.7574  1.4018  2.2927
  207MOL0     H27263   2.823   1.604   1.955  0.3543 -0.6865 -1.7601
  207MOL0     H27264   2.812   1.437   1.912  1.0431  0.4055  0.8394
  207MOL0     H27265   2.920   1.444   2.138 -0.1826 -2.5388  0.9843
  207MOL0     H27266   2.764   1.374   2.160 -1.5027  1.0866  0.9674
  207MOL0     H27267   2.833   1.673   2.209  3.2767 -1.6801 -1.5692
  207MOL0     H27268   2.674   1.615   2.238  0.4436  0.3978 -0.8376
  207MOL0     H27269   2.912   1.495   2.372  0.5535  0.2255  2.3986
  207MOL0     H27270   2.734   1.470   2.398 -0.9620  2.9192  1.4570
  207MOL0     H27271   2.793   1.593   2.560 -1.3665 -0.2246 -0.9306
  207MOL0     H27272   2.711   1.716   2.459  0.2762  1.0905 -0.7927
  207MOL0     H27273   2.996   1.725   2.390  2.2218 -0.3643  1.3714
  207MOL0     H27274   2.873   1.854   2.427  0.7845  0.3421  2.8214
  207MOL0     H27275   3.082   1.793   2.589 -0.7862 -0.5187 -1.2523
  207MOL0     H27276   2.966   1.675   2.641  0.6209 -0.4963 -1.4866
  207MOL0     H27277   3.073   2.027   2.678 -1.6430  1.2763  1.4711
  207MOL0     H27278   3.003   2.144   2.939  0.5754  1.5543  0.5153
  207MOL0     H27279   2.838   2.183   2.941  1.7502  1.9098  2.6856
  207MOL0     H27280   2.840   2.326   2.730 -0.9810  0.1261  0.6088
  207MOL0     H27281   3.006   2.281   2.705  1.2543  0.0433  0.6946
  207MOL0     H27282   2.880   2.440   2.924 -0.0730 -0.4643  0.1331
  207MOL0     H27283   3.052   2.387   2.931  0.4957 -0.7624 -1.1860
  207MOL0     H27284   2.905   2.547   2.726 -0.0345 -0.2047  0.6900
  207MOL0     H27285   3.078   2.491   2.716  0.6857 -0.9806  0.2169
  207MOL0     H27286   3.090   2.669   2.598  0.5139  0.2959  2.2168
  207MOL0     H27287   3.156   2.868   2.474 -4.2561  2.6059 -2.7447
  207MOL0     H27288   2.993   3.344   2.457 -0.1577  0.8774 -2.6267
  207MOL0     H27289   3.031   3.560   2.342  0.3095  0.8282 -0.2240
  207MOL0     H27290   3.419   3.786   2.363 -0.7682 -1.9707  0.2263
  207MOL0     H27291   3.316   3.831   2.506 -2.5901  0.5387  0.4530
  207MOL0     H27292   3.341   4.024   2.368  0.6123  0.4154  1.1429
  207MOL0     H27293   3.181   3.963   2.371 -0.2634  0.5384  0.4497
  207MOL0     H27294   3.199   4.013   2.163 -0.0987  0.1086 -0.2171
  207MOL0     H27295   3.265   3.840   2.145  1.6521  0.1317  0.2783
  207MOL0     H27296   3.389   4.035   2.022  3.8151  3.1083  1.0251
  207MOL0     H27297   3.462   4.068   2.180  1.3805  0.7231 -1.5713
  207MOL0     H27298   3.450   3.776   2.086  2.7211 -1.7892  1.3487
  207MOL0     H27299   3.559   3.845   2.203 -1.1681 -0.7659  0.8266
  207MOL0     H27300   3.690   3.832   2.026 -0.6868  0.2045  0.6338
  207MOL0     H27301   3.645   4.004   2.033  1.1656  0.2867 -1.2765
  207MOL0     H27302   3.560   3.775   1.835  0.2232 -0.5091  1.6669
  207MOL0     H27303   3.441   3.895   1.857 -0.1884 -2.0756 -1.6115
  207MOL0     H27304   3.592   3.947   1.663 -1.5058  1.9044 -0.0631
  207MOL0     H27305   3.740   3.940   1.754 -0.3214  0.0028 -2.8577
  207MOL0     H27306   3.393   3.610   2.545 -2.0327  2.6550 -1.6771
  207MOL0     H27307   3.356   3.383   2.673  0.3423  0.6918 -0.2739
  207MOL0     H27308   3.062   3.093   2.832  1.3108 -1.5680  2.6299
  207MOL0     H27309   2.986   2.894   2.938  0.4929 -2.2857  0.1567
  207MOL0     H27310   2.565   1.498   1.576 -0.6294 -2.7917 -0.0232
  207MOL0     H27311   2.371   1.447   1.453 -0.5645  1.7021  0.5993
  207MOL0     H27312   2.007   1.308   1.422  1.1395  1.0234  0.2577
  207MOL0     H27313   1.857   1.231   1.246  0.7231  2.2748 -1.0415
  207MOL0     H27314   1.632   1.173   1.098  2.8561  0.5135 -0.0461
  207MOL0     H27315   1.739   1.288   1.008  1.8623  0.0990  2.3671
  207MOL0     H27316   1.543   1.408   0.916  0.5048 -0.0961 -0.4440
  207MOL0     H27317   1.559   1.243   0.868  0.2226 -2.0616  1.0259
  207MOL0     H27318   1.395   1.205   1.094  0.0278 -0.5352 -0.8098
  207MOL0     H27319   1.364   1.187   0.928 -1.1384  0.3548 -0.4595
  207MOL0     H27320   1.209   1.333   1.056 -1.2667  1.5050 -2.1461
  207MOL0     H27321   1.324   1.458   1.063 -1.7025  0.5725  0.2618
  207MOL0     H27322   1.240   1.537   0.679  5.0123  2.3654  0.4721
  207MOL0     H27323   1.700   1.628   1.207  1.4089  0.5225  0.8168
  207MOL0     H27324   1.852   1.705   1.370  1.1281 -0.9051 -0.7577
  208MOL0     O27325   1.663   8.183  11.426 -0.3490 -0.0014  0.5752
  208MOL0     C27326   1.548   8.143  11.434 -0.1419 -1.1392  0.2847
  208MOL0     O27327   1.458   8.180  11.536 -0.8979  0.0021  0.5012
  208MOL0     C27328   1.480   8.251  11.655 -0.1104  0.5609  0.5621
  208MOL0     C27329   1.379   8.316  11.723  0.5131  0.8895  1.1578
  208MOL0     C27330   1.397   8.377  11.839  0.1556  0.6254  1.0492
  208MOL0     C27331   1.519   8.396  11.904  0.2577  0.3412  0.0721
  208MOL0     O27332   1.523   8.473  12.014 -0.2186 -0.1639 -0.1829
  208MOL0     C27333   1.608   8.423  12.115 -1.0651 -0.7093 -1.2462
  208MOL0     C27334   1.548   8.428  12.251 -0.2646 -0.0242 -0.2220
  208MOL0     C27335   1.587   8.301  12.336  0.0916  0.5346  0.1761
  208MOL0     C27336   1.740   8.275  12.366  0.9205  0.9997  0.2489
  208MOL0     C27337   1.800   8.355  12.481  0.5214  0.7169  0.2569
  208MOL0     C27338   1.763   8.315  12.630  0.8514  0.0249  0.7548
  208MOL0     C27339   1.706   8.450  12.687 -0.2009  0.5972  0.0286
  208MOL0     C27340   1.660   8.450  12.832  0.0147  0.2448  0.2776
  208MOL0     N27341   1.530   8.384  12.861  0.0440 -1.2105 -0.2057
  208MOL0     C27342   1.411   8.411  12.798  0.0457 -1.5132 -0.8019
  208MOL0     C27343   1.317   8.333  12.857 -0.0154 -0.5221  0.1312
  208MOL0     C27344   1.170   8.318  12.822 -0.8300  0.1155  0.9026
  208MOL0     C27345   1.139   8.196  12.724 -0.7603  0.5122 -0.6369
  208MOL0     C27346   1.142   8.074  12.810  0.6831 -0.1804 -0.4595
  208MOL0     C27347   1.153   7.948  12.726 -0.2395  0.9057 -1.1691
  208MOL0     O27348   1.083   7.954  12.601 -0.9416  0.0838 -0.3372
  208MOL0     C27349   1.036   7.844  12.542 -0.2598 -0.2408 -0.4846
  208MOL0     C27350   1.107   7.727  12.520  0.0833  0.8510 -0.4356
  208MOL0     C27351   1.057   7.603  12.465  0.7009  0.1905  0.4562
  208MOL0     C27352   0.918   7.610  12.416 -0.2041 -0.3553  0.2597
  208MOL0     C27353   0.864   7.494  12.338 -0.4632  0.2336  0.2851
  208MOL0     O27354   0.917   7.368  12.358 -0.1951 -0.3656  0.4364
  208MOL0     C27355   0.867   7.255  12.293 -0.5001 -1.1397  0.5196
  208MOL0     C27356   0.960   7.167  12.234 -0.3183 -0.0167 -0.1435
  208MOL0     C27357   0.920   7.056  12.154  0.1440  0.7300 -0.5572
  208MOL0     C27358   0.782   7.020  12.146 -0.5800  0.2213 -0.2324
  208MOL0     O27359   0.751   6.912  12.077  0.3367 -0.5206  0.5337
  208MOL0     C27360   0.618   6.892  12.019  1.0734  0.1932 -0.0213
  208MOL0     C27361   0.605   6.754  11.953 -0.3674  0.2027 -0.2098
  208MOL0     C27362   0.668   6.748  11.818 -0.4932  0.5701 -1.3731
  208MOL0     C27363   0.654   6.615  11.735 -0.8255  0.6877  0.4675
  208MOL0     C27364   0.509   6.586  11.686 -0.0032  1.4983 -0.7761
  208MOL0     C27365   0.499   6.434  11.647  0.3498 -0.5385  0.3409
  208MOL0     C27366   0.370   6.414  11.569 -0.0222 -0.9524 -0.3711
  208MOL0     C27367   0.357   6.462  11.429  0.3075 -0.0978  0.0512
  208MOL0    Cl27368   0.183   6.433  11.374 -0.2292  0.2293  0.4205
  208MOL0     C27369   0.688   7.096  12.212  0.4677  0.1068  0.3906
  208MOL0     C27370   0.730   7.223  12.275  1.1878 -0.6150 -0.4195
  208MOL0     O27371   0.758   7.518  12.288  0.0013  0.1022 -0.1748
  208MOL0     C27372   0.858   7.736  12.416  0.3095 -0.1643 -0.4515
  208MOL0     C27373   0.915   7.847  12.485  0.2176 -0.6348  0.0947
  208MOL0     N27374   1.391   8.262  12.953 -0.0642  0.0055  0.3709
  208MOL0     N27375   1.516   8.305  12.968  0.0920 -0.8039  0.1694
  208MOL0     C27376   1.626   8.317  11.844  0.7133 -0.8026  1.1019
  208MOL0     C27377   1.601   8.248  11.722 -1.0131  0.0452  0.8745
  208MOL0     C27378   1.513   8.028  11.342  0.1951  0.8413  0.1334
  208MOL0     C27379   1.381   7.975  11.337 -1.0341 -0.5903  0.2292
  208MOL0     C27380   1.351   7.873  11.252  0.3715  0.1545 -0.6056
  208MOL0     C27381   1.455   7.802  11.183  1.0265 -0.3491 -0.6607
  208MOL0     O27382   1.429   7.697  11.100  0.0335  0.1916  0.7280
  208MOL0     C27383   1.297   7.679  11.039 -0.1404 -0.1956 -0.1415
  208MOL0     C27384   1.257   7.785  10.934  0.0642  0.3331  0.1869
  208MOL0     C27385   1.293   7.733  10.796 -0.3319 -0.5929  0.5612
  208MOL0     C27386   1.251   7.838  10.691  0.4457  0.7518 -0.9786
  208MOL0     C27387   1.320   7.815  10.569 -1.0195  0.1144 -0.8676
  208MOL0     C27388   1.354   7.775  10.458  0.3732 -0.1390 -0.1514
  208MOL0     C27389   1.586   7.833  11.205 -0.2947 -0.2653 -0.1524
  208MOL0     C27390   1.617   7.956  11.269  0.3481  0.8401 -0.4736
  208MOL0     H27391   1.277   8.320  11.686  0.8328 -0.9095 -0.0671
  208MOL0     H27392   1.310   8.429  11.877 -2.0589  1.0445 -3.8232
  208MOL0     H27393   1.698   8.486  12.120 -1.9874  0.5514  0.5761
  208MOL0     H27394   1.662   8.328  12.103  1.1197 -0.1176  2.4703
  208MOL0     H27395   1.442   8.441  12.227  0.0566  4.5846 -0.1009
  208MOL0     H27396   1.570   8.521  12.304 -1.4294 -0.5570  1.2806
  208MOL0     H27397   1.542   8.209  12.298  2.3358  0.0779 -1.6328
  208MOL0     H27398   1.545   8.310  12.437  2.9088 -0.7014  1.5911
  208MOL0     H27399   1.765   8.172  12.389  0.9706  0.5353 -1.7254
  208MOL0     H27400   1.793   8.278  12.270  0.3898  1.1644 -0.0416
  208MOL0     H27401   1.776   8.456  12.446  1.0787  1.0716  0.8623
  208MOL0     H27402   1.909   8.345  12.479  0.8589  3.0940  2.1473
  208MOL0     H27403   1.854   8.277  12.676  2.4155 -1.4849 -3.1486
  208MOL0     H27404   1.684   8.241  12.646 -0.8193  1.5808  0.1575
  208MOL0     H27405   1.796   8.510  12.670  1.5032 -2.3705 -2.7163
  208MOL0     H27406   1.633   8.495  12.619 -1.6085 -0.9576  0.4520
  208MOL0     H27407   1.654   8.555  12.860  1.0067  1.2307 -2.7397
  208MOL0     H27408   1.744   8.399  12.879 -0.2607 -1.6344 -1.1401
  208MOL0     H27409   1.396   8.477  12.714 -0.0836 -2.2103 -1.3391
  208MOL0     H27410   1.135   8.416  12.789  1.8885  1.9275  2.9531
  208MOL0     H27411   1.120   8.297  12.918  0.4358 -0.6536  1.4171
  208MOL0     H27412   1.214   8.196  12.644  0.3077  0.5251  0.3374
  208MOL0     H27413   1.046   8.199  12.667 -1.9535 -2.9234  0.8892
  208MOL0     H27414   1.219   8.071  12.887  1.9917  0.6410 -1.6937
  208MOL0     H27415   1.046   8.056  12.859  0.7219  0.8271  0.0084
  208MOL0     H27416   1.107   7.871  12.788  0.6561  1.7874  0.6486
  208MOL0     H27417   1.258   7.926  12.702 -0.0995  0.5618 -0.2873
  208MOL0     H27418   1.213   7.728  12.544  0.2208  0.6503 -1.0134
  208MOL0     H27419   1.115   7.515  12.442  3.2948  2.1638 -1.1591
  208MOL0     H27420   1.068   7.181  12.239  0.3547 -3.6388 -1.2540
  208MOL0     H27421   0.991   6.995  12.099 -1.7574  0.5837 -3.0067
  208MOL0     H27422   0.592   6.972  11.949 -1.1763  0.3118  0.8577
  208MOL0     H27423   0.541   6.899  12.097 -0.4318  4.4909 -1.5827
  208MOL0     H27424   0.497   6.737  11.952 -1.0767  3.7870 -0.5412
  208MOL0     H27425   0.639   6.672  12.016  1.8369 -1.0504 -2.8146
  208MOL0     H27426   0.773   6.765  11.844 -1.0418 -1.9130  3.4719
  208MOL0     H27427   0.636   6.834  11.758  0.3006  1.0913 -1.0772
  208MOL0     H27428   0.711   6.620  11.641  0.9045 -0.1549  1.4104
  208MOL0     H27429   0.692   6.535  11.800 -0.1221 -0.0986 -0.8592
  208MOL0     H27430   0.475   6.639  11.596  1.6263  0.6877 -1.9080
  208MOL0     H27431   0.439   6.610  11.767  1.0630 -1.9037  1.3978
  208MOL0     H27432   0.502   6.365  11.732  0.2027 -1.9535 -0.7573
  208MOL0     H27433   0.582   6.421  11.577 -0.7543 -1.5196 -0.8260
  208MOL0     H27434   0.342   6.309  11.558 -1.7042 -0.3988 -1.9022
  208MOL0     H27435   0.291   6.466  11.624  1.4694 -0.1352  1.0690
  208MOL0     H27436   0.423   6.417  11.354 -0.8332 -0.0512 -0.9936
  208MOL0     H27437   0.360   6.571  11.420 -3.2522  0.0313 -1.0842
  208MOL0     H27438   0.582   7.077  12.220  0.7420 -1.6027  0.2090
  208MOL0     H27439   0.655   7.285  12.323  1.7306 -0.8090  0.7041
  208MOL0     H27440   0.755   7.756  12.387  0.2049  1.7963  1.0274
  208MOL0     H27441   0.870   7.946  12.476 -0.5371 -1.1593 -2.8574
  208MOL0     H27442   1.729   8.324  11.876  1.6569 -0.6370 -1.6825
  208MOL0     H27443   1.679   8.184  11.682 -0.7269  2.5907 -3.2393
  208MOL0     H27444   1.305   8.027  11.395  0.2340  2.6182 -0.7397
  208MOL0     H27445   1.248   7.839  11.242  1.0701 -1.2953 -4.1701
  208MOL0     H27446   1.219   7.691  11.115  0.3578  3.4453 -0.0276
  208MOL0     H27447   1.293   7.578  10.996 -2.9244  0.6587 -2.1946
  208MOL0     H27448   1.149   7.796  10.943  0.1882  1.2117  0.6571
  208MOL0     H27449   1.303   7.884  10.943  0.6897  0.1864 -1.1086
  208MOL0     H27450   1.246   7.634  10.788 -1.9262 -0.1341  3.1391
  208MOL0     H27451   1.402   7.734  10.797 -0.3251 -0.5398  2.3278
  208MOL0     H27452   1.142   7.837  10.676  0.3386  0.6429 -0.2652
  208MOL0     H27453   1.269   7.937  10.734 -3.7075  0.1082  3.1313
  208MOL0     H27454   1.389   7.737  10.364  0.1069 -0.1731 -0.2374
  208MOL0     H27455   1.656   7.773  11.148 -0.6112  0.1046 -0.9497
  208MOL0     H27456   1.720   7.990  11.280  0.2490  1.8759 -2.3194
  209MOL0     O27457   5.120   4.996   7.823  0.0105  0.5446 -0.6273
  209MOL0     C27458   5.075   5.100   7.859  0.5004  0.0906  0.1984
  209MOL0     O27459   5.107   5.163   7.981 -0.2102  0.5689 -0.4160
  209MOL0     C27460   5.209   5.123   8.064 -0.2514 -0.7584 -0.1604
  209MOL0     C27461   5.184   5.150   8.192  0.2342 -0.8178  1.6281
  209MOL0     C27462   5.268   5.116   8.293 -0.3618 -0.7017  0.6632
  209MOL0     C27463   5.392   5.058   8.261 -0.3615 -0.8695 -0.5403
  209MOL0     O27464   5.464   5.035   8.375  0.6253  0.0014  0.6087
  209MOL0     C27465   5.557   4.927   8.391  0.2117 -0.8601  0.4954
  209MOL0     C27466   5.602   4.919   8.536  0.2655  0.6857 -0.0025
  209MOL0     C27467   5.682   5.042   8.590 -0.0386 -0.1423  0.6192
  209MOL0     C27468   5.682   5.035   8.744  0.4458 -0.0458  0.1224
  209MOL0     C27469   5.811   5.111   8.782  0.6925  0.3668 -0.3126
  209MOL0     C27470   5.782   5.216   8.888  0.8620  0.7277  0.3608
  209MOL0     C27471   5.780   5.148   9.019 -0.9493  0.4236  0.2207
  209MOL0     C27472   5.764   5.247   9.143 -0.8377 -1.0281  0.0525
  209MOL0     N27473   5.627   5.267   9.186  0.3226  0.3931 -0.2896
  209MOL0     C27474   5.555   5.201   9.283 -0.1091  0.5620 -0.0429
  209MOL0     C27475   5.441   5.269   9.280  0.2410  0.2821 -0.0749
  209MOL0     C27476   5.323   5.236   9.355 -0.1140 -1.2094  1.1531
  209MOL0     C27477   5.236   5.134   9.273  0.5772 -0.1963  0.0571
  209MOL0     C27478   5.123   5.091   9.360 -0.0663  0.6050  0.4236
  209MOL0     C27479   5.042   5.186   9.452  0.1585 -0.7441  0.6467
  209MOL0     O27480   4.940   5.115   9.528 -0.3114  0.1728 -0.0749
  209MOL0     C27481   4.874   5.191   9.618  0.0518 -0.5286 -0.5632
  209MOL0     C27482   4.857   5.127   9.741  0.3374 -0.0768 -0.2925
  209MOL0     C27483   4.779   5.186   9.839  0.0557 -0.6319  0.2438
  209MOL0     C27484   4.705   5.308   9.813  0.6651 -0.2103  0.5433
  209MOL0     C27485   4.622   5.358   9.928  1.3446  0.2733 -0.3208
  209MOL0     O27486   4.533   5.452   9.906  0.0065  1.2030  0.3329
  209MOL0     C27487   4.443   5.493  10.003  0.5075  0.7441  1.2389
  209MOL0     C27488   4.309   5.497   9.969 -1.3739  0.6422  0.4393
  209MOL0     C27489   4.214   5.550  10.057  0.9356 -0.6200  0.1213
  209MOL0     C27490   4.249   5.589  10.183 -0.1251  0.7482  0.2661
  209MOL0     O27491   4.157   5.657  10.258  0.4547  0.0686 -0.1902
  209MOL0     C27492   4.115   5.777  10.198  0.9173  0.4989 -0.5680
  209MOL0     C27493   4.031   5.869  10.291 -0.4802  0.1184  0.4890
  209MOL0     C27494   4.079   6.012  10.261 -0.1200 -1.0957 -0.2805
  209MOL0     C27495   3.963   6.113  10.309  0.3200  0.3165 -0.3770
  209MOL0     C27496   3.981   6.248  10.260 -0.1103  0.9847  0.8041
  209MOL0     C27497   4.119   6.306  10.296 -0.2875 -0.8720  0.2427
  209MOL0     C27498   4.148   6.444  10.235  0.1849  1.0784 -0.3397
  209MOL0     C27499   4.285   6.495  10.277  0.2474  0.0836  0.9256
  209MOL0    Cl27500   4.305   6.672  10.228  0.2214 -0.6839  0.2368
  209MOL0     C27501   4.384   5.580  10.224 -0.2613 -0.7304 -0.6068
  209MOL0     C27502   4.480   5.542  10.131 -0.0118  0.2933  0.0535
  209MOL0     O27503   4.631   5.292  10.031  0.0729 -0.1760  0.2049
  209MOL0     C27504   4.724   5.371   9.684  0.3502 -0.0139 -0.9830
  209MOL0     C27505   4.808   5.315   9.587  0.5335  0.5325  0.1976
  209MOL0     N27506   5.447   5.373   9.187 -0.1821 -0.0749  0.2785
  209MOL0     N27507   5.564   5.381   9.144  0.4922 -0.6859  0.4633
  209MOL0     C27508   5.429   5.025   8.134 -0.3455 -0.2200  0.4347
  209MOL0     C27509   5.334   5.057   8.037 -0.7064 -0.0161  0.5801
  209MOL0     C27510   4.972   5.159   7.782 -0.3708  0.3298  1.2179
  209MOL0     C27511   4.935   5.295   7.803  0.3759 -0.3859  0.6623
  209MOL0     C27512   4.849   5.355   7.718 -0.4225 -0.5097  0.0584
  209MOL0     C27513   4.806   5.290   7.602 -0.3321 -0.4869  0.3120
  209MOL0     O27514   4.713   5.362   7.534  0.3752 -0.3696 -0.3598
  209MOL0     C27515   4.667   5.312   7.413 -0.4591 -0.4365  0.3245
  209MOL0     C27516   4.563   5.420   7.365 -0.2521 -1.1512  0.3864
  209MOL0     C27517   4.483   5.409   7.241  0.9922  1.0114  0.2099
  209MOL0     C27518   4.571   5.414   7.113 -0.5317  0.7479  0.5425
  209MOL0     C27519   4.629   5.275   7.084  0.5049 -0.2125  0.0289
  209MOL0     C27520   4.693   5.173   7.056  0.7143 -0.5988 -1.9351
  209MOL0     C27521   4.857   5.158   7.569  1.4644 -0.2440  0.2565
  209MOL0     C27522   4.934   5.091   7.669 -0.1670  0.2938  0.6904
  209MOL0     H27523   5.093   5.204   8.217 -0.1611 -0.0618 -1.0803
  209MOL0     H27524   5.248   5.129   8.399  1.8130  0.8510  0.9517
  209MOL0     H27525   5.644   4.958   8.332  1.8086  2.1545  4.0392
  209MOL0     H27526   5.498   4.844   8.351 -2.9926  3.1330 -4.2534
  209MOL0     H27527   5.664   4.831   8.555 -3.0969 -1.3342  3.0931
  209MOL0     H27528   5.510   4.903   8.595 -1.3166 -0.9271 -2.7029
  209MOL0     H27529   5.631   5.126   8.544 -2.0109 -1.8914 -0.5791
  209MOL0     H27530   5.783   5.045   8.548  0.0981  1.5463  0.9866
  209MOL0     H27531   5.592   5.092   8.771  1.7251  2.8573 -1.3487
  209MOL0     H27532   5.680   4.935   8.789  1.3165 -0.5790 -0.9687
  209MOL0     H27533   5.867   5.144   8.694 -1.3241  0.6478 -1.5662
  209MOL0     H27534   5.877   5.037   8.827 -1.7430 -2.8730 -1.7033
  209MOL0     H27535   5.682   5.254   8.866  1.3434  0.3410 -3.1081
  209MOL0     H27536   5.848   5.303   8.877  0.8188  0.9997  2.0415
  209MOL0     H27537   5.695   5.079   9.025 -1.1399  0.5896 -0.4371
  209MOL0     H27538   5.870   5.087   9.032  0.4732  1.8268 -2.1668
  209MOL0     H27539   5.821   5.338   9.123  0.7684 -1.7667  1.1123
  209MOL0     H27540   5.818   5.198   9.224 -1.6831 -1.2063  0.5185
  209MOL0     H27541   5.592   5.121   9.345  0.8407  1.3790  0.4827
  209MOL0     H27542   5.274   5.329   9.381 -0.7816 -0.5046 -2.1903
  209MOL0     H27543   5.347   5.182   9.447 -2.9190 -1.6981  1.6720
  209MOL0     H27544   5.299   5.047   9.254 -0.9106 -0.6871 -3.4654
  209MOL0     H27545   5.203   5.174   9.177  0.8692  0.5292  0.2516
  209MOL0     H27546   5.046   5.033   9.308  0.1090 -0.4702  1.3145
  209MOL0     H27547   5.170   5.018   9.427  1.5727  0.4318 -0.8324
  209MOL0     H27548   4.991   5.257   9.385 -0.3534 -3.3411 -1.8855
  209MOL0     H27549   5.102   5.239   9.527 -0.6931 -1.0327  1.5675
  209MOL0     H27550   4.900   5.031   9.769 -0.1035 -0.2203 -0.0993
  209MOL0     H27551   4.809   5.155   9.939  0.2019  2.5685  1.3050
  209MOL0     H27552   4.280   5.488   9.865  0.1774  1.2491 -0.0815
  209MOL0     H27553   4.111   5.560  10.023 -0.3593 -4.2056  2.3944
  209MOL0     H27554   4.054   5.771  10.107 -3.4798  1.5629  1.9900
  209MOL0     H27555   4.212   5.826  10.185  0.2064  2.6679  1.4494
  209MOL0     H27556   4.058   5.853  10.396 -1.5119 -0.6532  0.6529
  209MOL0     H27557   3.925   5.844  10.287 -0.2960 -0.5247 -1.3744
  209MOL0     H27558   4.085   6.027  10.153 -0.8495  1.7162  0.0049
  209MOL0     H27559   4.177   6.030  10.306  0.2063 -2.1025 -0.5556
  209MOL0     H27560   3.872   6.079  10.258  1.0667  1.5275 -2.6467
  209MOL0     H27561   3.954   6.114  10.418 -0.6537 -0.6905 -0.4269
  209MOL0     H27562   3.894   6.302  10.297 -0.9370 -1.5638  2.8554
  209MOL0     H27563   3.970   6.242  10.151  4.3971  0.6452  0.1779
  209MOL0     H27564   4.203   6.246  10.260  0.8296  0.3057  0.8285
  209MOL0     H27565   4.131   6.317  10.404  0.7549 -0.0187  0.0604
  209MOL0     H27566   4.151   6.434  10.127 -0.5190 -3.3744 -0.1423
  209MOL0     H27567   4.071   6.520  10.246 -0.0906  0.6944  0.4507
  209MOL0     H27568   4.365   6.433  10.236  1.1040  3.1836 -2.6114
  209MOL0     H27569   4.295   6.496  10.386  1.9300 -0.3817  0.7979
  209MOL0     H27570   4.431   5.616  10.314 -1.7275  1.2815 -0.5693
  209MOL0     H27571   4.586   5.544  10.154 -0.2186 -1.6618  1.4715
  209MOL0     H27572   4.688   5.470   9.656  0.7877 -0.1481 -2.0931
  209MOL0     H27573   4.830   5.371   9.497 -3.6847  0.0739 -1.3449
  209MOL0     H27574   5.522   4.971   8.122 -0.1237 -0.2440  2.0610
  209MOL0     H27575   5.352   5.031   7.933  0.6101  0.9541  0.5375
  209MOL0     H27576   4.975   5.355   7.884  0.4428 -1.4493  1.4217
  209MOL0     H27577   4.801   5.451   7.733 -5.7068 -2.6468 -0.9774
  209MOL0     H27578   4.622   5.213   7.419 -2.0490  0.3045  1.3736
  209MOL0     H27579   4.750   5.294   7.344 -2.0950 -0.8782 -1.5868
  209MOL0     H27580   4.497   5.433   7.451 -3.4971  0.4952 -2.1377
  209MOL0     H27581   4.614   5.514   7.343 -0.9869 -1.0919 -1.1981
  209MOL0     H27582   4.408   5.488   7.240 -2.1238 -1.6345  2.3043
  209MOL0     H27583   4.440   5.309   7.256  1.4364  0.4300 -1.9413
  209MOL0     H27584   4.513   5.436   7.022 -1.0723 -3.7044 -0.4662
  209MOL0     H27585   4.651   5.487   7.121  0.0877  0.1077  0.3167
  209MOL0     H27586   4.759   5.091   7.036 -0.7828 -2.4363  0.2865
  209MOL0     H27587   4.833   5.109   7.475  0.2956 -0.4282  0.6406
  209MOL0     H27588   4.969   4.990   7.651  1.6849  1.2780 -1.8574
  210MOL0     O27589   8.050   5.693   4.379 -0.2558  0.4441  0.0311
  210MOL0     C27590   8.107   5.772   4.306 -1.2546  0.1804  0.3419
  210MOL0     O27591   8.067   5.807   4.184  0.5597 -0.2401  0.2240
  210MOL0     C27592   7.950   5.764   4.122 -0.7284  0.8718 -0.2863
  210MOL0     C27593   7.904   5.627   4.120 -0.8725 -1.2560 -0.5664
  210MOL0     C27594   7.781   5.593   4.066  0.0114  0.2493 -0.1170
  210MOL0     C27595   7.706   5.680   3.984  0.8006 -0.6862 -0.1480
  210MOL0     O27596   7.586   5.654   3.913 -0.1347  0.5815 -0.6715
  210MOL0     C27597   7.584   5.546   3.814  0.0371 -0.1174 -0.0359
  210MOL0     C27598   7.468   5.455   3.839  0.3477  0.7706 -0.1694
  210MOL0     C27599   7.483   5.313   3.767 -0.2834 -0.6147 -0.1478
  210MOL0     C27600   7.359   5.229   3.782  0.8078 -0.5168  0.1339
  210MOL0     C27601   7.331   5.139   3.659 -0.0507 -0.1887 -0.6125
  210MOL0     C27602   7.316   4.990   3.701 -0.2234 -0.6458 -0.5866
  210MOL0     C27603   7.183   4.966   3.764  0.7850 -0.1385 -0.5563
  210MOL0     C27604   7.153   4.819   3.804  0.1180  0.3750  1.0643
  210MOL0     N27605   7.153   4.729   3.685 -0.7595  0.0033 -0.3254
  210MOL0     C27606   7.064   4.728   3.585 -0.2346  0.2549 -0.3077
  210MOL0     C27607   7.098   4.619   3.509 -0.1219  0.3363  0.1763
  210MOL0     C27608   7.025   4.586   3.387  0.8455  0.3435  0.3622
  210MOL0     C27609   6.878   4.547   3.420  0.2320  0.4186  0.0998
  210MOL0     C27610   6.864   4.436   3.529  1.1572  0.5137 -0.3298
  210MOL0     C27611   6.734   4.356   3.513  0.1522 -0.9298  0.2517
  210MOL0     O27612   6.756   4.255   3.415  0.0288 -0.2630 -0.2003
  210MOL0     C27613   6.763   4.130   3.455 -0.1051  0.5319  0.0503
  210MOL0     C27614   6.780   4.080   3.585 -0.8738  0.1254 -0.2399
  210MOL0     C27615   6.796   3.944   3.602 -0.3161  0.2667  0.4903
  210MOL0     C27616   6.802   3.857   3.494  0.5550  0.1714 -0.2051
  210MOL0     C27617   6.814   3.709   3.518 -0.3811  0.0055 -1.8122
  210MOL0     O27618   6.873   3.657   3.640  0.0738 -0.6788  0.1013
  210MOL0     C27619   6.844   3.527   3.663 -0.5545  0.0540 -0.9588
  210MOL0     C27620   6.951   3.434   3.658 -0.2834 -0.0838  0.2834
  210MOL0     C27621   6.934   3.298   3.684 -1.3452  0.3107 -0.7457
  210MOL0     C27622   6.800   3.253   3.693 -0.3151 -0.1121 -0.8861
  210MOL0     O27623   6.788   3.125   3.714  0.6109  0.5255  0.4460
  210MOL0     C27624   6.706   3.083   3.822 -0.8474  0.6755  0.4900
  210MOL0     C27625   6.780   3.026   3.940 -0.0500 -0.2771 -0.3481
  210MOL0     C27626   6.886   2.919   3.911 -0.2454  0.3021  0.0089
  210MOL0     C27627   6.980   2.916   4.025 -0.9476  0.0001  0.3304
  210MOL0     C27628   7.099   2.826   3.999 -0.4272 -0.5518 -0.4226
  210MOL0     C27629   7.054   2.675   3.977  0.4162  0.5398 -0.5946
  210MOL0     C27630   7.177   2.589   3.973  0.4363 -0.2436  0.1385
  210MOL0     C27631   7.150   2.440   3.960 -0.8979  0.2904 -0.4305
  210MOL0    Cl27632   7.301   2.356   3.940 -0.3439 -0.2398  0.0718
  210MOL0     C27633   6.687   3.342   3.685  0.6161  0.9316 -0.5164
  210MOL0     C27634   6.714   3.479   3.668  0.1848  1.0985 -0.6688
  210MOL0     O27635   6.777   3.637   3.432 -0.0206 -0.6912  0.3959
  210MOL0     C27636   6.791   3.909   3.368 -0.1340  0.6757 -0.0765
  210MOL0     C27637   6.774   4.046   3.350  0.2575 -0.0667  0.4395
  210MOL0     N27638   7.206   4.563   3.566 -0.6211 -0.2697  0.1163
  210MOL0     N27639   7.234   4.627   3.676  0.4965  0.1314  0.7168
  210MOL0     C27640   7.754   5.813   3.985 -0.1665 -0.5997 -0.2306
  210MOL0     C27641   7.870   5.857   4.057  1.0241  0.4963 -0.1824
  210MOL0     C27642   8.203   5.862   4.367  0.4703  0.0004  0.5547
  210MOL0     C27643   8.232   5.862   4.501 -0.4928 -0.6842 -0.9522
  210MOL0     C27644   8.339   5.927   4.563  0.3683 -0.4562  0.1550
  210MOL0     C27645   8.423   6.009   4.481  0.4482  0.1054 -0.0339
  210MOL0     O27646   8.529   6.093   4.529  0.4833  0.2649 -0.2918
  210MOL0     C27647   8.559   6.094   4.668  0.5315  0.3790 -0.5185
  210MOL0     C27648   8.644   5.980   4.704  0.4764  0.2243  0.1427
  210MOL0     C27649   8.676   5.972   4.851  0.1243  0.5676  0.0300
  210MOL0     C27650   8.565   5.898   4.937  0.4312 -0.0450 -1.0779
  210MOL0     C27651   8.496   5.790   4.865 -0.0209 -0.4980  0.3255
  210MOL0     C27652   8.453   5.690   4.808 -0.1876 -0.1629 -0.5422
  210MOL0     C27653   8.390   6.015   4.341  0.8762  0.2307 -0.2846
  210MOL0     C27654   8.288   5.944   4.282 -0.2093  0.0472 -0.2320
  210MOL0     H27655   7.967   5.560   4.178 -1.2068 -0.8704  0.2591
  210MOL0     H27656   7.735   5.496   4.082 -2.1591  0.4893 -3.7739
  210MOL0     H27657   7.682   5.498   3.824  0.3202  0.3386 -0.5676
  210MOL0     H27658   7.591   5.600   3.719  2.7794 -2.6711 -1.4835
  210MOL0     H27659   7.380   5.513   3.809  0.0037  0.9268  1.0827
  210MOL0     H27660   7.469   5.430   3.945  1.8379  0.4561 -0.2395
  210MOL0     H27661   7.572   5.257   3.799 -1.0147 -1.4086  0.5316
  210MOL0     H27662   7.511   5.330   3.662  1.3521 -2.0558  0.0078
  210MOL0     H27663   7.371   5.170   3.873 -0.8576 -1.1275 -0.0107
  210MOL0     H27664   7.271   5.293   3.801 -0.6871 -2.4876  0.1190
  210MOL0     H27665   7.409   5.143   3.583 -1.7785  1.3328 -2.4392
  210MOL0     H27666   7.242   5.173   3.606  0.6438 -0.6051 -2.0909
  210MOL0     H27667   7.397   4.952   3.764  0.7241  1.4880 -0.4319
  210MOL0     H27668   7.325   4.928   3.612 -1.5183 -0.4148 -0.9019
  210MOL0     H27669   7.173   5.022   3.858  2.8217  2.1448 -1.5989
  210MOL0     H27670   7.111   5.012   3.696  0.7078  0.5776 -0.0113
  210MOL0     H27671   7.057   4.813   3.855 -1.2264 -1.3414 -1.4563
  210MOL0     H27672   7.238   4.785   3.864  0.0662 -1.1868  0.2982
  210MOL0     H27673   6.990   4.804   3.562  0.1095  1.5971  2.5740
  210MOL0     H27674   7.076   4.505   3.335 -1.2150 -1.3872  0.8858
  210MOL0     H27675   7.056   4.678   3.336  2.8334 -1.3169 -1.6469
  210MOL0     H27676   6.835   4.496   3.334 -1.9435 -0.5727  1.6824
  210MOL0     H27677   6.816   4.636   3.434  1.9935  1.7687 -0.3368
  210MOL0     H27678   6.946   4.364   3.523  1.6644  1.0773 -0.2766
  210MOL0     H27679   6.879   4.480   3.628  0.1111  0.3783 -0.1031
  210MOL0     H27680   6.666   4.426   3.463  0.3141 -0.2021  1.0141
  210MOL0     H27681   6.683   4.323   3.604 -0.3248  2.9782  1.6072
  210MOL0     H27682   6.789   4.145   3.672  0.5644 -1.6735  1.0409
  210MOL0     H27683   6.805   3.907   3.704  0.0671  2.0288  1.1355
  210MOL0     H27684   7.050   3.452   3.617  0.1517 -2.3683  0.2060
  210MOL0     H27685   7.024   3.238   3.691 -1.0796  0.7344 -0.4400
  210MOL0     H27686   6.643   3.010   3.772  1.9878 -0.4431 -1.7108
  210MOL0     H27687   6.653   3.169   3.865 -1.5669 -0.2919  1.6083
  210MOL0     H27688   6.711   2.999   4.020  1.0308  3.9354  2.3575
  210MOL0     H27689   6.835   3.111   3.983  3.6410 -2.3456 -0.5250
  210MOL0     H27690   6.944   2.955   3.826 -1.1502  3.8582  0.7348
  210MOL0     H27691   6.841   2.819   3.903 -0.6474  0.5133 -0.4169
  210MOL0     H27692   7.002   3.021   4.048  1.7260 -0.0953 -1.4022
  210MOL0     H27693   6.930   2.874   4.112 -1.2016  0.9669  0.6659
  210MOL0     H27694   7.172   2.834   4.080  2.9080  2.3798 -3.3656
  210MOL0     H27695   7.152   2.857   3.908  0.0736 -0.6934 -0.1862
  210MOL0     H27696   6.988   2.654   3.893 -1.0130 -1.1009  0.8757
  210MOL0     H27697   7.009   2.643   4.071  2.5115 -3.1632 -0.6236
  210MOL0     H27698   7.231   2.626   3.886 -0.8519  1.4755  0.0092
  210MOL0     H27699   7.240   2.594   4.062 -1.1851  2.7251  1.2831
  210MOL0     H27700   7.081   2.422   3.876 -1.4388  2.0857 -0.4184
  210MOL0     H27701   7.097   2.402   4.047 -0.8965  2.2817  0.5072
  210MOL0     H27702   6.583   3.313   3.698  0.8140  0.8956  1.2079
  210MOL0     H27703   6.629   3.540   3.639 -0.2952 -0.4039 -2.6392
  210MOL0     H27704   6.790   3.844   3.282 -0.6321  0.3502  0.1707
  210MOL0     H27705   6.781   4.089   3.251  1.6648  0.6557  0.8231
  210MOL0     H27706   7.699   5.893   3.937 -0.9148 -1.6232 -1.1329
  210MOL0     H27707   7.905   5.960   4.064 -0.0459  0.9620 -1.2342
  210MOL0     H27708   8.179   5.792   4.565  1.1083 -1.1922 -0.1259
  210MOL0     H27709   8.340   5.925   4.672 -2.0031 -0.6840  0.2279
  210MOL0     H27710   8.471   6.097   4.734  0.7572 -1.5958 -0.0549
  210MOL0     H27711   8.621   6.181   4.691 -2.3742  2.1501  1.2707
  210MOL0     H27712   8.625   5.883   4.658  3.7298 -0.6529  0.4542
  210MOL0     H27713   8.733   6.015   4.652  0.3737 -0.1085 -0.2660
  210MOL0     H27714   8.718   6.059   4.901 -1.0989  0.3249  1.5417
  210MOL0     H27715   8.757   5.898   4.857 -0.7337 -0.5040 -0.9899
  210MOL0     H27716   8.624   5.858   5.020  1.3157  1.0117 -1.1833
  210MOL0     H27717   8.491   5.966   4.978  2.6257  0.4716  2.4541
  210MOL0     H27718   8.398   5.608   4.767 -0.4103  1.8819 -4.8461
  210MOL0     H27719   8.439   6.093   4.283 -0.4310  1.0782 -0.2729
  210MOL0     H27720   8.285   5.968   4.176  2.5713 -0.8178 -0.6121
  211MOL0     O27721  10.836   8.734   6.968  0.9938  0.4450  0.3245
  211MOL0     C27722  10.896   8.631   6.958 -0.1160  0.5599  0.1854
  211MOL0     O27723  10.922   8.561   6.838  0.2521  0.1108 -0.1329
  211MOL0     C27724  10.867   8.593   6.716  0.9126 -1.2516  0.5066
  211MOL0     C27725  10.925   8.553   6.599 -0.1627 -0.3512  0.4245
  211MOL0     C27726  10.881   8.584   6.476  0.3106  0.4864 -0.3973
  211MOL0     C27727  10.759   8.656   6.462 -0.7371  0.9257 -0.8547
  211MOL0     O27728  10.716   8.676   6.335 -0.1477  0.4092 -0.3531
  211MOL0     C27729  10.608   8.772   6.317 -0.7904  0.0521 -0.4792
  211MOL0     C27730  10.597   8.807   6.169 -0.0897  0.4440  0.0286
  211MOL0     C27731  10.700   8.901   6.100  0.4467  0.5811  0.0965
  211MOL0     C27732  10.649   8.952   5.965 -0.3515 -0.6250 -1.0607
  211MOL0     C27733  10.748   9.062   5.907 -0.3941 -0.6976 -0.5604
  211MOL0     C27734  10.895   9.025   5.873  0.7688 -0.1128 -0.0155
  211MOL0     C27735  10.898   8.908   5.770 -0.2484  0.7067  0.3510
  211MOL0     C27736  10.870   8.969   5.625  0.7986 -0.6360 -0.4695
  211MOL0     N27737  10.877   8.870   5.509  0.2313  0.2255  0.6209
  211MOL0     C27738  10.952   8.895   5.396 -0.7880  0.6335  0.7547
  211MOL0     C27739  10.967   8.772   5.341  0.1003  0.1682  0.5656
  211MOL0     C27740  11.029   8.738   5.206 -0.2269 -0.2571  0.0585
  211MOL0     C27741  11.169   8.673   5.230 -0.5804  0.7537  0.5097
  211MOL0     C27742  11.270   8.767   5.305  0.5403 -0.1188  0.3601
  211MOL0     C27743  11.410   8.730   5.273  0.1138 -1.2640 -0.1852
  211MOL0     O27744  11.500   8.823   5.331 -0.3711 -0.7117  0.4446
  211MOL0     C27745  11.609   8.838   5.264 -1.3956  0.0484  1.1344
  211MOL0     C27746  11.672   8.738   5.185 -0.1662  0.1112 -0.4066
  211MOL0     C27747  11.783   8.766   5.101  1.3445  0.1924 -0.5170
  211MOL0     C27748  11.833   8.901   5.099 -0.6430  0.7061  0.6227
  211MOL0     C27749  11.938   8.936   4.996  0.9195 -0.3756  1.0307
  211MOL0     O27750  12.011   8.836   4.952  1.0345 -0.2592 -0.5989
  211MOL0     C27751  12.097   8.847   4.849  0.0158 -0.2601 -0.2876
  211MOL0     C27752  12.223   8.810   4.891 -0.2646  0.4510 -0.0927
  211MOL0     C27753  12.330   8.794   4.799  0.2831  0.4328 -0.0130
  211MOL0     C27754  12.322   8.839   4.658 -0.5723  0.2972 -1.0447
  211MOL0     O27755  12.441   8.832   4.581  0.6788  0.7932 -0.2675
  211MOL0     C27756  12.434   8.905   4.456  0.0659  0.3981 -1.0045
  211MOL0     C27757  12.575   8.944   4.432  0.8943 -0.2108  0.0340
  211MOL0     C27758  12.590   9.056   4.325  0.4979 -0.9905  1.3405
  211MOL0     C27759  12.737   9.105   4.309 -0.7116  0.7564 -0.0352
  211MOL0     C27760  12.756   9.220   4.218  0.1490  0.5984  0.3964
  211MOL0     C27761  12.756   9.182   4.065 -0.4458 -0.0485  0.3540
  211MOL0     C27762  12.817   9.296   3.978 -0.5098 -0.4899 -1.4432
  211MOL0     C27763  12.708   9.390   3.933  1.1089 -0.3520  0.1729
  211MOL0    Cl27764  12.596   9.303   3.811 -0.0654 -0.1745 -0.5150
  211MOL0     C27765  12.197   8.900   4.627  0.3504  0.1747  0.6312
  211MOL0     C27766  12.086   8.895   4.717 -0.0409  0.0507  0.2433
  211MOL0     O27767  11.940   9.053   4.952 -0.2191 -0.5057  0.8402
  211MOL0     C27768  11.762   8.999   5.176 -0.1238  0.1655 -0.2432
  211MOL0     C27769  11.663   8.964   5.268  0.0971 -0.2810 -0.4862
  211MOL0     N27770  10.888   8.685   5.413  0.9400  0.2402 -0.2244
  211MOL0     N27771  10.840   8.742   5.519  0.2683  0.2417  0.0593
  211MOL0     C27772  10.694   8.696   6.576  0.4407 -0.4133 -0.2703
  211MOL0     C27773  10.750   8.677   6.699 -0.1276  0.2254 -0.3494
  211MOL0     C27774  10.941   8.574   7.087 -0.1467  0.9208  0.4392
  211MOL0     C27775  10.993   8.449   7.096 -0.2810 -0.6285 -0.1434
  211MOL0     C27776  11.061   8.408   7.217 -0.0793  0.8378 -0.7329
  211MOL0     C27777  11.075   8.504   7.316 -0.4685 -0.9253  0.0427
  211MOL0     O27778  11.147   8.485   7.433 -0.9208 -0.0558  0.6617
  211MOL0     C27779  11.222   8.370   7.448 -0.5708  0.1161  0.7256
  211MOL0     C27780  11.248   8.365   7.594 -0.5763  0.2977 -0.4315
  211MOL0     C27781  11.332   8.250   7.631 -1.0362  0.6270 -0.2521
  211MOL0     C27782  11.461   8.298   7.708 -0.7525 -0.2041 -0.7643
  211MOL0     C27783  11.455   8.267   7.852 -0.0169  0.5526  1.2487
  211MOL0     C27784  11.455   8.245   7.972  0.7410  0.5906  0.2861
  211MOL0     C27785  11.029   8.631   7.303  0.1053 -0.6677  1.3250
  211MOL0     C27786  10.951   8.664   7.190 -0.3548 -0.2901  1.3165
  211MOL0     H27787  11.010   8.493   6.632  2.6832  3.2942  0.4269
  211MOL0     H27788  10.925   8.548   6.384 -0.9471 -1.6636 -0.2096
  211MOL0     H27789  10.636   8.866   6.366 -0.7749 -0.5805  0.7627
  211MOL0     H27790  10.514   8.732   6.357  0.8901 -3.9842 -0.1113
  211MOL0     H27791  10.498   8.850   6.152 -0.4449 -0.9458 -1.7311
  211MOL0     H27792  10.595   8.708   6.123  1.4759 -1.6108  3.9109
  211MOL0     H27793  10.789   8.843   6.074 -1.0992 -0.9983 -2.0300
  211MOL0     H27794  10.727   8.984   6.166 -0.4912  0.8943  0.1131
  211MOL0     H27795  10.620   8.881   5.887 -4.1470 -1.8860  1.2284
  211MOL0     H27796  10.566   9.019   5.991  0.4191 -0.9443  2.7723
  211MOL0     H27797  10.767   9.135   5.986  3.3256 -3.6865  1.6802
  211MOL0     H27798  10.686   9.094   5.823 -0.4617  1.1498  0.1574
  211MOL0     H27799  10.952   8.984   5.957 -0.5577 -0.9568  0.4995
  211MOL0     H27800  10.943   9.114   5.832 -2.3230  2.5032  1.6228
  211MOL0     H27801  10.995   8.858   5.767 -1.0709 -0.8963 -0.2545
  211MOL0     H27802  10.831   8.828   5.801  3.3545 -2.1982  1.3419
  211MOL0     H27803  10.946   9.046   5.612  1.1588 -0.6025  1.6323
  211MOL0     H27804  10.778   9.028   5.629  1.1182  0.1750 -2.9431
  211MOL0     H27805  10.995   8.987   5.359  2.1233 -0.7032  0.5500
  211MOL0     H27806  11.039   8.829   5.145  0.0420  0.9049  1.7720
  211MOL0     H27807  10.970   8.664   5.151 -1.0020 -0.3821  1.0362
  211MOL0     H27808  11.208   8.643   5.133 -0.3219  0.5103  0.6864
  211MOL0     H27809  11.158   8.580   5.287 -0.6431  1.6798  2.0751
  211MOL0     H27810  11.248   8.873   5.292 -2.2332 -0.6479  0.0960
  211MOL0     H27811  11.255   8.738   5.410 -0.8490 -0.7943 -0.0052
  211MOL0     H27812  11.419   8.730   5.164  1.2895  1.2075 -0.1486
  211MOL0     H27813  11.425   8.628   5.310 -0.8076 -0.8292  1.4923
  211MOL0     H27814  11.641   8.634   5.187 -0.3556  0.1773  0.0457
  211MOL0     H27815  11.815   8.685   5.037 -2.9344 -0.8187 -1.6750
  211MOL0     H27816  12.230   8.782   4.996 -0.6846  4.3674  1.1533
  211MOL0     H27817  12.426   8.760   4.836  0.5462  1.4898  0.3053
  211MOL0     H27818  12.379   8.999   4.465  0.0501  0.3768 -0.8789
  211MOL0     H27819  12.386   8.850   4.375  3.0748 -0.6400 -2.2362
  211MOL0     H27820  12.620   8.849   4.403 -1.2958 -2.2239  2.6913
  211MOL0     H27821  12.606   8.983   4.529 -2.6751 -3.0612  2.6073
  211MOL0     H27822  12.528   9.145   4.341 -0.4238 -0.6470 -2.8775
  211MOL0     H27823  12.552   9.014   4.232  1.4100 -0.3271  0.6456
  211MOL0     H27824  12.776   9.129   4.409 -1.0824 -2.0675  0.8697
  211MOL0     H27825  12.796   9.022   4.269 -0.5398  0.7146  0.2998
  211MOL0     H27826  12.858   9.252   4.242  0.5948 -1.2252  1.0730
  211MOL0     H27827  12.686   9.302   4.239 -0.2076  0.2518  0.5749
  211MOL0     H27828  12.658   9.153   4.026 -0.7110 -3.5968  3.1383
  211MOL0     H27829  12.821   9.095   4.057  1.7355  1.4285  1.1507
  211MOL0     H27830  12.867   9.368   4.044 -2.0622  1.1572 -1.9910
  211MOL0     H27831  12.886   9.271   3.897 -0.2724 -2.0601 -0.7992
  211MOL0     H27832  12.746   9.470   3.867 -0.7382 -0.8429 -1.5626
  211MOL0     H27833  12.652   9.432   4.017 -0.0869 -2.5722  0.5541
  211MOL0     H27834  12.184   8.945   4.529  2.2144  0.8142  0.6230
  211MOL0     H27835  11.989   8.938   4.694 -0.1485 -0.9071 -1.2546
  211MOL0     H27836  11.794   9.102   5.173  0.2634  0.0153 -1.7242
  211MOL0     H27837  11.602   9.038   5.319  0.0356 -0.5459 -0.1751
  211MOL0     H27838  10.600   8.750   6.567  0.7205  0.8529  2.9716
  211MOL0     H27839  10.692   8.710   6.785 -1.3942 -3.5990  0.4420
  211MOL0     H27840  10.976   8.374   7.019  1.6516 -1.9682  0.6544
  211MOL0     H27841  11.091   8.305   7.231 -0.0480  0.8501 -0.7103
  211MOL0     H27842  11.314   8.372   7.389  0.0774 -1.2469  1.6521
  211MOL0     H27843  11.170   8.277   7.421  1.1702 -0.0638 -2.4735
  211MOL0     H27844  11.282   8.464   7.627 -1.6928  1.1818 -1.8314
  211MOL0     H27845  11.147   8.352   7.634 -0.2393 -1.3509 -0.0278
  211MOL0     H27846  11.364   8.200   7.539  3.5042  1.2045  0.8080
  211MOL0     H27847  11.268   8.190   7.697 -1.3034  3.5828  2.4110
  211MOL0     H27848  11.551   8.247   7.674 -0.5033 -1.2824  1.3680
  211MOL0     H27849  11.483   8.404   7.692  3.9999 -0.6126  1.3478
  211MOL0     H27850  11.452   8.202   8.071 -0.4436 -1.2973 -0.5052
  211MOL0     H27851  11.046   8.702   7.384  2.6050  0.0272  0.2981
  211MOL0     H27852  10.915   8.766   7.198 -0.2056 -0.0209 -0.8243
  212MOL0     O27853   7.284  10.689   9.617 -0.0173 -0.1006 -0.0202
  212MOL0     C27854   7.320  10.581   9.559 -0.1119 -0.1403 -0.3383
  212MOL0     O27855   7.406  10.577   9.451 -0.0232 -0.0021 -0.0148
  212MOL0     C27856   7.479  10.692   9.434 -0.8199  0.1204 -0.0093
  212MOL0     C27857   7.614  10.692   9.469  1.3389  1.0153 -0.4609
  212MOL0     C27858   7.691  10.812   9.453 -0.5421 -0.3540 -0.1929
  212MOL0     C27859   7.633  10.928   9.397  0.4959  0.8805  1.0010
  212MOL0     O27860   7.711  11.038   9.376  0.7689  0.8516 -0.4091
  212MOL0     C27861   7.672  11.126   9.271  0.2006  0.0660  0.2747
  212MOL0     C27862   7.809  11.201   9.226  0.7005  0.3489 -1.0044
  212MOL0     C27863   7.880  11.267   9.345  0.3275  0.4315 -0.3016
  212MOL0     C27864   7.975  11.366   9.294 -0.3462  0.1737 -0.4937
  212MOL0     C27865   8.103  11.306   9.238  0.3220  0.1104 -0.6657
  212MOL0     C27866   8.218  11.302   9.330  0.3884 -0.0238 -0.4281
  212MOL0     C27867   8.342  11.230   9.274  0.0828 -1.0035 -0.7326
  212MOL0     C27868   8.311  11.089   9.227 -0.3209 -0.0283  0.0793
  212MOL0     N27869   8.242  11.007   9.332  0.4783 -0.5934  0.9816
  212MOL0     C27870   8.304  10.948   9.436  0.0744  0.5161  0.4370
  212MOL0     C27871   8.204  10.910   9.520  0.9195  0.0583 -0.5114
  212MOL0     C27872   8.222  10.852   9.661 -0.4203 -0.7608 -0.3182
  212MOL0     C27873   8.267  10.947   9.778  0.4725  0.4382  0.1067
  212MOL0     C27874   8.326  10.881   9.899  0.3674  0.3012 -0.1874
  212MOL0     C27875   8.238  10.767   9.962 -0.7669 -0.0029  0.0761
  212MOL0     O27876   8.105  10.820   9.998  0.4722  0.1308 -0.6372
  212MOL0     C27877   8.011  10.726  10.030 -0.1200 -0.1815  0.8077
  212MOL0     C27878   7.892  10.781  10.071  0.0670  0.2580  0.2402
  212MOL0     C27879   7.786  10.698  10.118 -0.7147 -0.8928 -0.3796
  212MOL0     C27880   7.798  10.566  10.124 -0.2180  0.3535  0.5595
  212MOL0     C27881   7.693  10.479  10.176  0.9102 -0.4493  0.6616
  212MOL0     O27882   7.571  10.517  10.142 -0.1651  0.3378  0.4973
  212MOL0     C27883   7.468  10.436  10.181 -0.5018  1.0146 -0.4605
  212MOL0     C27884   7.396  10.390  10.074 -0.5270  0.6659  0.2673
  212MOL0     C27885   7.284  10.311  10.101  0.4425  0.0421 -0.0780
  212MOL0     C27886   7.248  10.273  10.222 -0.7606 -0.0782 -0.1583
  212MOL0     O27887   7.141  10.184  10.251 -0.4284  0.4267  0.1351
  212MOL0     C27888   7.040  10.148  10.150  0.1268  0.2504  0.4478
  212MOL0     C27889   6.922  10.062  10.213 -1.4897 -0.6146 -0.3343
  212MOL0     C27890   6.988   9.957  10.290 -0.1042  0.6288 -0.1189
  212MOL0     C27891   6.876   9.856  10.340 -0.5153 -0.1975  1.1294
  212MOL0     C27892   6.934   9.738  10.423  0.7782  0.9044  1.0687
  212MOL0     C27893   6.990   9.772  10.551 -0.4337 -0.2105 -0.5281
  212MOL0     C27894   7.057   9.649  10.623  0.2931 -0.0566 -0.5890
  212MOL0     C27895   6.954   9.545  10.673  0.2189  0.2541 -0.6196
  212MOL0    Cl27896   6.833   9.611  10.791  0.1600 -0.2265 -0.2168
  212MOL0     C27897   7.322  10.325  10.333 -0.7182  0.6112  0.5605
  212MOL0     C27898   7.433  10.408  10.312 -0.0240 -0.3828 -0.4062
  212MOL0     O27899   7.726  10.408  10.272  0.7441 -0.2059  0.2379
  212MOL0     C27900   7.914  10.516  10.079 -0.4421 -0.4419  0.4978
  212MOL0     C27901   8.024  10.586  10.043 -0.2255  0.1583  0.2607
  212MOL0     N27902   8.092  10.956   9.467 -0.8150 -0.5113 -0.1698
  212MOL0     N27903   8.111  10.996   9.353  0.3941 -0.5113 -0.2956
  212MOL0     C27904   7.493  10.928   9.370 -0.2810 -0.1325  1.2407
  212MOL0     C27905   7.421  10.807   9.374 -1.0160  0.0961 -0.7215
  212MOL0     C27906   7.284  10.442   9.608 -0.5369  0.1330  0.3202
  212MOL0     C27907   7.337  10.328   9.534  0.2706  0.9893  0.8362
  212MOL0     C27908   7.309  10.193   9.572  0.6209 -0.4975 -0.3230
  212MOL0     C27909   7.217  10.162   9.678  0.0211  0.0385 -0.2927
  212MOL0     O27910   7.156  10.041   9.709 -0.0335  0.4286  0.3076
  212MOL0     C27911   7.212   9.923   9.657 -0.7741 -0.2135  0.1324
  212MOL0     C27912   7.317   9.877   9.763  0.2170  0.2671  0.4255
  212MOL0     C27913   7.254   9.862   9.908 -0.3207  0.9157 -0.0100
  212MOL0     C27914   7.182   9.732   9.914 -0.6454 -0.2845  0.3154
  212MOL0     C27915   7.241   9.641  10.010 -0.2263 -0.3961 -0.1294
  212MOL0     C27916   7.288   9.558  10.079  0.7199  0.0980 -0.1730
  212MOL0     C27917   7.157  10.276   9.743  0.1605  0.7418 -0.0750
  212MOL0     C27918   7.198  10.402   9.709  0.0111 -0.0824  0.0924
  212MOL0     H27919   7.666  10.609   9.517 -0.2307  2.2227  3.7146
  212MOL0     H27920   7.795  10.812   9.483 -0.5636  0.1612 -0.1128
  212MOL0     H27921   7.598  11.201   9.299  0.5324  1.0538 -1.3922
  212MOL0     H27922   7.633  11.073   9.183  0.4569 -1.0410  0.8069
  212MOL0     H27923   7.787  11.278   9.151  0.0236  1.8957  0.7107
  212MOL0     H27924   7.873  11.127   9.177  0.5873  0.5083 -1.3926
  212MOL0     H27925   7.922  11.195   9.415 -2.6317  0.1722  1.3717
  212MOL0     H27926   7.806  11.323   9.403 -0.2249 -1.8840  1.3507
  212MOL0     H27927   7.927  11.418   9.211  0.1723  1.0069 -0.2835
  212MOL0     H27928   8.006  11.439   9.369  1.0970  1.2444 -2.0584
  212MOL0     H27929   8.133  11.386   9.170 -1.7012  0.9692 -0.6074
  212MOL0     H27930   8.071  11.213   9.191 -3.2250  0.1458  1.3037
  212MOL0     H27931   8.181  11.265   9.426 -1.9422  0.0929 -1.2053
  212MOL0     H27932   8.235  11.409   9.344 -0.1886  0.5586 -3.3868
  212MOL0     H27933   8.374  11.284   9.184 -0.7133  1.1210  0.1784
  212MOL0     H27934   8.417  11.225   9.354 -1.4944 -2.1031  0.7401
  212MOL0     H27935   8.406  11.042   9.201 -0.6362  0.0703 -1.3426
  212MOL0     H27936   8.247  11.098   9.139  1.2646  2.8767 -0.9021
  212MOL0     H27937   8.409  10.947   9.463  0.2297  0.8719 -0.1425
  212MOL0     H27938   8.303  10.779   9.651 -0.5330 -0.6838 -2.0756
  212MOL0     H27939   8.140  10.790   9.698 -0.1425  1.1771  4.2300
  212MOL0     H27940   8.178  10.989   9.825  0.7021  0.9014  0.1326
  212MOL0     H27941   8.329  11.030   9.742  4.4742 -1.8723  1.0047
  212MOL0     H27942   8.423  10.840   9.870 -0.1970 -1.0141 -0.3264
  212MOL0     H27943   8.338  10.957   9.976  0.1624 -0.1309  0.2837
  212MOL0     H27944   8.274  10.708  10.047 -1.9721  0.9797  1.3199
  212MOL0     H27945   8.216  10.692   9.886 -0.3000  0.3386 -0.4020
  212MOL0     H27946   7.895  10.889  10.061  0.6573  0.1227 -1.3434
  212MOL0     H27947   7.698  10.750  10.154 -1.3935 -3.2770  1.7165
  212MOL0     H27948   7.422  10.413   9.971  2.2620  2.9801  1.3720
  212MOL0     H27949   7.211  10.292  10.023 -0.2686  1.6943  0.1426
  212MOL0     H27950   7.094  10.096  10.071 -0.6604 -0.4423  0.3493
  212MOL0     H27951   7.006  10.249  10.127 -0.9964 -0.0434  0.7763
  212MOL0     H27952   6.869   9.999  10.141 -1.7074  1.9220 -2.5390
  212MOL0     H27953   6.865  10.116  10.289  0.3726 -1.7617  1.9953
  212MOL0     H27954   7.035  10.005  10.377  0.1716  2.7408 -1.3628
  212MOL0     H27955   7.065   9.907  10.231  0.4858 -1.0507  1.9421
  212MOL0     H27956   6.807   9.911  10.405 -1.5570 -1.4258  1.0979
  212MOL0     H27957   6.814   9.813  10.261 -1.4411 -0.2766  1.8703
  212MOL0     H27958   7.009   9.694  10.355 -1.3559  0.1472 -0.9437
  212MOL0     H27959   6.850   9.674  10.449  0.5823  1.2781  1.3627
  212MOL0     H27960   6.912   9.807  10.620 -0.5022  0.0144 -0.7183
  212MOL0     H27961   7.069   9.845  10.531 -0.7012 -0.0169 -0.8908
  212MOL0     H27962   7.136   9.603  10.563  0.9440 -0.3063  0.4249
  212MOL0     H27963   7.088   9.692  10.719 -2.5490 -0.1525  0.4502
  212MOL0     H27964   7.011   9.462  10.716 -1.4582 -0.5319  0.1767
  212MOL0     H27965   6.893   9.508  10.589 -0.6493 -1.7169  0.8050
  212MOL0     H27966   7.290  10.294  10.432  1.9113 -3.1510  0.4519
  212MOL0     H27967   7.492  10.456  10.390  0.6953  0.6751 -1.5608
  212MOL0     H27968   7.913  10.408  10.090  1.0450 -0.4128  1.1343
  212MOL0     H27969   8.110  10.524  10.021 -0.8709 -1.0336  0.9890
  212MOL0     H27970   7.432  11.012   9.338 -0.1484 -1.2137 -2.3585
  212MOL0     H27971   7.314  10.801   9.357 -0.9454  1.0816 -1.5995
  212MOL0     H27972   7.403  10.338   9.448 -2.6375 -2.8014 -2.2175
  212MOL0     H27973   7.340  10.108   9.512 -0.2928 -1.5266  0.6212
  212MOL0     H27974   7.264   9.941   9.562 -2.4286  4.6332 -0.1756
  212MOL0     H27975   7.138   9.843   9.649 -1.2690  0.4153 -2.8301
  212MOL0     H27976   7.355   9.776   9.749 -3.2247 -1.3403  1.5783
  212MOL0     H27977   7.398   9.951   9.760 -1.5081  2.2003 -0.7040
  212MOL0     H27978   7.178   9.939   9.927 -0.5530  0.7793 -0.3937
  212MOL0     H27979   7.336   9.875   9.980  0.3425 -1.2803 -0.3078
  212MOL0     H27980   7.076   9.752   9.932 -0.5851  0.2342  0.1131
  212MOL0     H27981   7.196   9.682   9.817  1.3059  0.7835 -0.0120
  212MOL0     H27982   7.339   9.488  10.143  3.3377  2.6951  0.8452
  212MOL0     H27983   7.083  10.244   9.816 -0.7510 -1.8143 -1.9518
  212MOL0     H27984   7.152  10.479   9.770 -0.3091  0.2964 -0.6206
  213MOL0     O27985  10.353   5.267   9.785 -0.4417  0.4628  0.1882
  213MOL0     C27986  10.242   5.250   9.724  0.1650  1.2005  0.6457
  213MOL0     O27987  10.138   5.170   9.767 -0.4532 -0.1073  0.7343
  213MOL0     C27988  10.134   5.108   9.892 -0.3515  0.3399  0.0637
  213MOL0     C27989  10.018   5.042   9.909 -0.6368  0.3308  0.4082
  213MOL0     C27990   9.979   4.998  10.033  0.4156  0.1295  0.0334
  213MOL0     C27991  10.056   5.007  10.143 -0.8609 -1.0619  0.3069
  213MOL0     O27992  10.004   4.970  10.263  0.2257  0.6580  1.0438
  213MOL0     C27993  10.061   4.982  10.395 -0.3953 -0.8515 -1.2112
  213MOL0     C27994   9.995   4.892  10.484  0.2960 -0.2944  0.3877
  213MOL0     C27995   9.847   4.932  10.516  0.5967  0.4948 -0.4556
  213MOL0     C27996   9.770   4.810  10.566  0.4919 -0.0069 -0.6205
  213MOL0     C27997   9.813   4.772  10.708  0.4929  0.4522  0.0348
  213MOL0     C27998   9.695   4.686  10.782 -0.7659  0.3074 -0.6140
  213MOL0     C27999   9.633   4.572  10.698 -0.1281 -0.0816  0.0911
  213MOL0     C28000   9.724   4.442  10.721 -0.8120  1.0191  0.8859
  213MOL0     N28001   9.857   4.460  10.652  1.0983  0.6293  0.1020
  213MOL0     C28002   9.982   4.442  10.699 -0.3140 -0.6999  0.8840
  213MOL0     C28003  10.063   4.488  10.599  0.2573  0.7104  0.0362
  213MOL0     C28004  10.216   4.501  10.616 -0.0417  1.3986  0.3880
  213MOL0     C28005  10.248   4.635  10.679 -0.4927 -0.2735 -0.8493
  213MOL0     C28006  10.406   4.686  10.662  0.3946 -0.0337 -0.7736
  213MOL0     C28007  10.401   4.837  10.657  0.7832 -0.7683 -0.4183
  213MOL0     O28008  10.537   4.873  10.669  0.0570 -0.0890 -0.0893
  213MOL0     C28009  10.594   4.922  10.791 -0.7947  0.5552  0.3014
  213MOL0     C28010  10.707   5.008  10.790 -0.1362  0.1150 -0.1767
  213MOL0     C28011  10.775   5.051  10.905  0.2300 -0.5967 -0.0878
  213MOL0     C28012  10.729   5.006  11.029 -1.4323 -0.5844 -0.4786
  213MOL0     C28013  10.794   5.047  11.165 -0.6288  0.0090  0.3276
  213MOL0     O28014  10.880   5.165  11.159 -0.0136  0.9431  0.2630
  213MOL0     C28015  10.933   5.216  11.276 -0.1890 -0.0676  0.2532
  213MOL0     C28016  10.929   5.163  11.399  0.1507 -0.4809 -0.8559
  213MOL0     C28017  10.978   5.251  11.507  0.5006 -0.0049  0.4598
  213MOL0     C28018  11.032   5.383  11.479 -0.4153  0.5392  0.5139
  213MOL0     O28019  11.078   5.477  11.567  0.2198  0.2238  0.0559
  213MOL0     C28020  11.184   5.424  11.657 -0.2495 -0.0665 -0.7126
  213MOL0     C28021  11.201   5.538  11.764 -0.7144  1.1854 -0.5333
  213MOL0     C28022  11.324   5.511  11.863  0.3106 -0.2104  0.6048
  213MOL0     C28023  11.325   5.614  11.966 -0.7540  0.3256 -0.8741
  213MOL0     C28024  11.445   5.589  12.055 -0.8823 -0.5614 -0.3311
  213MOL0     C28025  11.459   5.698  12.165  0.6416  0.0165 -0.2599
  213MOL0     C28026  11.337   5.722  12.255 -0.2754 -0.7966  1.6740
  213MOL0     C28027  11.383   5.828  12.359 -0.1502  0.3395  0.3454
  213MOL0    Cl28028  11.359   5.989  12.291 -0.3907 -0.3614  0.0982
  213MOL0     C28029  11.047   5.417  11.342  0.6855 -0.2953  0.1968
  213MOL0     C28030  11.003   5.334  11.249 -0.5239  1.4115  1.4304
  213MOL0     O28031  10.759   4.989  11.264  0.3326  1.5184  0.2600
  213MOL0     C28032  10.618   4.921  11.029 -0.3045  0.1267 -0.4274
  213MOL0     C28033  10.545   4.880  10.911 -1.0903  0.3165  0.1718
  213MOL0     N28034   9.985   4.514  10.490  0.5656  0.5473 -0.2862
  213MOL0     N28035   9.861   4.498  10.517 -0.2675 -0.0774 -0.2922
  213MOL0     C28036  10.183   5.077  10.134  0.4130  0.4678 -0.6544
  213MOL0     C28037  10.212   5.132  10.010 -0.3507 -0.8612  0.8155
  213MOL0     C28038  10.234   5.311   9.593 -0.4595  1.8763 -0.0438
  213MOL0     C28039  10.121   5.279   9.512  0.0190 -0.3019 -0.7135
  213MOL0     C28040  10.097   5.331   9.387 -0.0392 -0.5630  0.2379
  213MOL0     C28041  10.188   5.421   9.329  1.0278  0.3554 -0.9182
  213MOL0     O28042  10.145   5.494   9.229  0.0439 -0.2726 -0.1892
  213MOL0     C28043  10.233   5.582   9.150  0.0996  0.2752 -0.3453
  213MOL0     C28044  10.171   5.633   9.022  0.3592  0.2122 -0.5249
  213MOL0     C28045  10.264   5.728   8.949  0.0029 -0.2632 -0.2059
  213MOL0     C28046  10.204   5.788   8.817 -0.1999 -0.2721 -0.3005
  213MOL0     C28047  10.147   5.681   8.732 -0.2822 -0.7601 -0.1264
  213MOL0     C28048  10.093   5.597   8.664 -0.2730 -0.0028 -0.0064
  213MOL0     C28049  10.302   5.446   9.411 -0.4126  0.2037  1.0660
  213MOL0     C28050  10.325   5.395   9.544 -0.2228  0.1129  0.1298
  213MOL0     H28051   9.954   5.022   9.823 -0.8008 -0.5283  0.7222
  213MOL0     H28052   9.896   4.929  10.044  1.8088 -1.9038 -1.4696
  213MOL0     H28053  10.049   5.079  10.445 -0.0128 -0.8080 -1.1978
  213MOL0     H28054  10.166   4.951  10.396 -0.1942 -0.1937 -0.5278
  213MOL0     H28055  10.039   4.888  10.585 -1.5913  3.1229  1.5204
  213MOL0     H28056  10.004   4.793  10.438  0.0770 -0.9681  1.7345
  213MOL0     H28057   9.801   4.980  10.429 -1.5075  1.7767  1.2678
  213MOL0     H28058   9.853   5.013  10.589  3.6476  0.7050 -0.8169
  213MOL0     H28059   9.663   4.831  10.559  0.6574  0.9833 -0.3529
  213MOL0     H28060   9.768   4.742  10.481 -3.5904  1.5234 -1.9735
  213MOL0     H28061   9.826   4.859  10.773 -1.2017 -1.6688  3.5276
  213MOL0     H28062   9.907   4.718  10.720  1.1042  1.3140 -0.7730
  213MOL0     H28063   9.614   4.756  10.804 -2.9461 -2.1560 -0.4930
  213MOL0     H28064   9.730   4.657  10.881 -2.2107 -0.7004 -0.3747
  213MOL0     H28065   9.527   4.554  10.722 -0.9944  0.6849 -2.7153
  213MOL0     H28066   9.632   4.606  10.594  1.6017  0.1604  0.1302
  213MOL0     H28067   9.666   4.360  10.677  1.0859 -0.2188  0.6063
  213MOL0     H28068   9.739   4.434  10.829  0.0696 -1.7395  0.6176
  213MOL0     H28069  10.007   4.414  10.801 -3.5979 -0.0257  1.9817
  213MOL0     H28070  10.271   4.491  10.521 -0.7517  0.4168  0.0542
  213MOL0     H28071  10.243   4.418  10.681 -4.5468  0.0909  0.9263
  213MOL0     H28072  10.227   4.636  10.786  3.9539 -0.2817  0.2310
  213MOL0     H28073  10.181   4.708  10.631  0.2476  0.4598 -0.8034
  213MOL0     H28074  10.470   4.649  10.743  0.9913  1.1834 -0.6803
  213MOL0     H28075  10.457   4.661  10.568 -0.3596  3.1406 -2.1498
  213MOL0     H28076  10.341   4.875  10.741  0.8695 -1.2684 -0.1280
  213MOL0     H28077  10.361   4.874  10.562  1.8363  2.7273  0.3733
  213MOL0     H28078  10.724   5.049  10.691 -3.5558  3.5825  0.4014
  213MOL0     H28079  10.858   5.119  10.893  0.1181 -0.6402 -1.2636
  213MOL0     H28080  10.885   5.071  11.436 -1.3318  0.9012  1.0596
  213MOL0     H28081  10.975   5.199  11.602  0.4049 -1.6348 -0.3959
  213MOL0     H28082  11.282   5.411  11.609 -0.1937  2.6193 -1.4833
  213MOL0     H28083  11.151   5.330  11.702  0.1965  0.2545  0.3187
  213MOL0     H28084  11.114   5.553  11.829 -1.0147 -1.0689 -0.3553
  213MOL0     H28085  11.228   5.632  11.714 -0.1254  1.2185 -0.1542
  213MOL0     H28086  11.416   5.504  11.803 -1.0325 -3.1744 -1.3445
  213MOL0     H28087  11.330   5.411  11.908 -0.8107 -0.0814  1.0729
  213MOL0     H28088  11.331   5.718  11.933  1.6258  1.1701  1.7991
  213MOL0     H28089  11.230   5.590  12.014 -1.1500 -1.6238 -2.5341
  213MOL0     H28090  11.533   5.580  11.991  0.7882  1.9556  1.3946
  213MOL0     H28091  11.441   5.492  12.105 -0.2493  0.9840  3.0177
  213MOL0     H28092  11.498   5.794  12.127  0.1976  0.9286  1.4906
  213MOL0     H28093  11.541   5.668  12.231 -1.9898 -3.8009  1.6186
  213MOL0     H28094  11.253   5.754  12.192  1.7172  0.0407 -0.7546
  213MOL0     H28095  11.316   5.629  12.307  0.6253 -0.9717  1.7420
  213MOL0     H28096  11.489   5.810  12.380  1.2466  2.5745 -3.6584
  213MOL0     H28097  11.333   5.807  12.454  1.1367 -2.2412  0.5440
  213MOL0     H28098  11.091   5.507  11.302 -1.5520  1.6748  1.8848
  213MOL0     H28099  11.021   5.349  11.143  1.9005 -0.9895  1.3865
  213MOL0     H28100  10.576   4.900  11.127 -0.7484  1.5669 -0.2811
  213MOL0     H28101  10.452   4.829  10.934  0.0913 -2.5115 -0.8975
  213MOL0     H28102  10.237   5.097  10.226  1.8892 -4.4170 -0.1859
  213MOL0     H28103  10.299   5.197  10.007 -0.5671 -0.5647 -2.0960
  213MOL0     H28104  10.058   5.195   9.539  0.4454 -1.3428 -2.6992
  213MOL0     H28105  10.006   5.297   9.338 -1.0558 -0.1268  1.7352
  213MOL0     H28106  10.328   5.530   9.134 -0.6582 -0.7645 -1.6084
  213MOL0     H28107  10.260   5.671   9.208 -0.5875 -0.8539  1.8156
  213MOL0     H28108  10.151   5.551   8.952  3.0117 -1.2575  0.3095
  213MOL0     H28109  10.077   5.684   9.043  1.2668  1.5040  0.5719
  213MOL0     H28110  10.362   5.684   8.930 -0.1742 -1.4023  1.3262
  213MOL0     H28111  10.274   5.810   9.022 -0.1877 -0.4339  0.0122
  213MOL0     H28112  10.126   5.854   8.854 -1.1116 -1.6903  0.3676
  213MOL0     H28113  10.279   5.852   8.769  0.2086  1.2721  2.2264
  213MOL0     H28114  10.049   5.531   8.591 -1.1576  0.1767  0.3550
  213MOL0     H28115  10.384   5.509   9.377  0.6683 -0.0679  3.0307
  213MOL0     H28116  10.425   5.418   9.578  0.6353 -1.0927 -1.4539
  214MOL0     O28117   9.081   9.635   4.368  0.1548  0.0790  0.3571
  214MOL0     C28118   9.193   9.647   4.402 -1.0570 -0.1845 -0.0168
  214MOL0     O28119   9.247   9.608   4.524 -1.0612  0.0851 -0.3079
  214MOL0     C28120   9.175   9.533   4.609  0.0400  0.1326  0.1931
  214MOL0     C28121   9.091   9.585   4.705  0.1831 -0.5478 -0.1913
  214MOL0     C28122   9.015   9.504   4.788 -0.3243  0.4701  0.4174
  214MOL0     C28123   9.012   9.363   4.762  0.5509  0.1426 -0.0025
  214MOL0     O28124   8.927   9.276   4.836 -0.5294  0.2453  1.0470
  214MOL0     C28125   8.910   9.143   4.793 -0.7594  0.1755  0.7263
  214MOL0     C28126   8.808   9.147   4.678  0.3797  0.9717 -0.2801
  214MOL0     C28127   8.796   9.017   4.593 -0.7291 -0.3290  0.0014
  214MOL0     C28128   8.757   8.903   4.687  0.6245  0.2388 -0.4103
  214MOL0     C28129   8.863   8.800   4.732  0.6687  0.1532  0.2352
  214MOL0     C28130   8.906   8.708   4.611 -0.4857 -0.7258  0.5638
  214MOL0     C28131   9.003   8.599   4.668 -0.0196 -0.4432  1.2528
  214MOL0     C28132   9.009   8.496   4.569  0.1913  1.1874  0.8839
  214MOL0     N28133   9.107   8.393   4.599 -0.4020  0.0425 -0.4331
  214MOL0     C28134   9.222   8.409   4.676 -1.2098 -0.6300 -0.6508
  214MOL0     C28135   9.252   8.285   4.717 -0.0434  0.1875  0.4666
  214MOL0     C28136   9.371   8.235   4.808  0.0887  0.3919  0.5216
  214MOL0     C28137   9.361   8.286   4.946  0.0905 -1.9601 -0.4612
  214MOL0     C28138   9.253   8.200   5.018  0.5709  0.6177 -0.1772
  214MOL0     C28139   9.125   8.261   5.006 -0.1876 -0.1122  0.2436
  214MOL0     O28140   9.090   8.377   5.087  0.1443  0.4519  0.0821
  214MOL0     C28141   9.064   8.361   5.218 -0.1799 -0.6116 -0.5510
  214MOL0     C28142   9.103   8.459   5.309 -0.4896  0.3084 -0.0472
  214MOL0     C28143   9.092   8.460   5.446 -0.3295  0.9718 -0.4878
  214MOL0     C28144   9.009   8.364   5.495  0.3464 -0.7238 -0.1428
  214MOL0     C28145   8.995   8.344   5.642  0.3326 -0.2774 -0.8578
  214MOL0     O28146   8.912   8.242   5.687  0.0064  0.7748 -0.3155
  214MOL0     C28147   8.895   8.218   5.824  0.5361  0.0823  0.4669
  214MOL0     C28148   8.884   8.314   5.928  0.5852 -0.8827  0.0325
  214MOL0     C28149   8.886   8.280   6.061  0.5761 -0.7353 -0.5608
  214MOL0     C28150   8.878   8.147   6.110 -0.6166 -0.4959 -0.2769
  214MOL0     O28151   8.883   8.125   6.241  0.1715  0.1913 -0.5454
  214MOL0     C28152   8.883   7.993   6.295 -0.9732 -0.8682 -0.0057
  214MOL0     C28153   8.918   8.015   6.446 -0.4227 -0.2385  0.1101
  214MOL0     C28154   8.939   7.879   6.526 -0.2977 -0.2307 -0.1165
  214MOL0     C28155   8.810   7.809   6.529 -1.1540  0.0968 -0.5595
  214MOL0     C28156   8.811   7.700   6.630 -0.1216 -0.1671 -0.0184
  214MOL0     C28157   8.899   7.582   6.594  0.2322  0.6044 -0.6182
  214MOL0     C28158   8.919   7.479   6.707  0.0280  0.3291  1.3753
  214MOL0     C28159   8.978   7.357   6.658 -0.3166  0.8286 -0.3819
  214MOL0    Cl28160   9.162   7.365   6.652  0.1147 -0.4425 -0.0709
  214MOL0     C28161   8.853   8.057   6.003  0.0056  0.4374  0.0190
  214MOL0     C28162   8.875   8.085   5.867  0.2028  0.2316  0.1236
  214MOL0     O28163   9.060   8.418   5.720 -0.4270 -0.1101 -0.0679
  214MOL0     C28164   8.945   8.273   5.408 -0.3044  0.1147 -0.5059
  214MOL0     C28165   8.978   8.259   5.275 -0.4565 -0.9148 -0.4708
  214MOL0     N28166   9.156   8.193   4.667 -0.1524 -0.0959  0.3216
  214MOL0     N28167   9.070   8.262   4.605 -0.0226 -0.8381  0.1705
  214MOL0     C28168   9.091   9.304   4.659 -0.5887 -0.5127 -0.1022
  214MOL0     C28169   9.178   9.395   4.590  0.1726  0.7905 -0.2169
  214MOL0     C28170   9.289   9.713   4.304  0.0098  0.3549 -1.5228
  214MOL0     C28171   9.243   9.759   4.180 -0.2051  0.1563 -0.4515
  214MOL0     C28172   9.335   9.845   4.103 -0.5363  0.0357 -1.1296
  214MOL0     C28173   9.461   9.874   4.149 -0.2077 -0.1597 -0.2839
  214MOL0     O28174   9.548   9.955   4.071  0.4032 -0.7351  0.6643
  214MOL0     C28175   9.523  10.028   3.950  0.7422  0.5750 -0.5278
  214MOL0     C28176   9.661  10.090   3.904  0.5728 -0.1794  1.2229
  214MOL0     C28177   9.710  10.186   4.006  0.7322 -0.8821 -0.7057
  214MOL0     C28178   9.828  10.281   3.950 -0.0250 -0.5335 -1.6006
  214MOL0     C28179   9.789  10.361   3.832  0.7051 -0.5553  0.3128
  214MOL0     C28180   9.754  10.443   3.743  0.2577  0.2331  0.1495
  214MOL0     C28181   9.507   9.816   4.277 -0.3299  0.2745  0.1064
  214MOL0     C28182   9.417   9.739   4.346  0.5202  1.0181 -0.6577
  214MOL0     H28183   9.073   9.692   4.716  0.8715 -0.6076  2.2794
  214MOL0     H28184   8.953   9.543   4.868 -0.4270  0.0816  0.5308
  214MOL0     H28185   8.865   9.088   4.877 -0.4554  0.4918  1.0995
  214MOL0     H28186   9.005   9.095   4.769 -0.9280 -0.5509  1.4382
  214MOL0     H28187   8.850   9.226   4.616  0.3417  1.3285  0.1448
  214MOL0     H28188   8.714   9.189   4.714  1.9253  2.1268  2.8207
  214MOL0     H28189   8.888   8.990   4.542 -0.4634 -1.4412  1.0050
  214MOL0     H28190   8.726   9.018   4.509 -1.7716  0.3456  0.8429
  214MOL0     H28191   8.709   8.945   4.776 -0.7622 -0.2384 -0.9076
  214MOL0     H28192   8.678   8.846   4.636  0.6472 -0.7903  0.6540
  214MOL0     H28193   8.814   8.734   4.804  0.5540  0.6934  0.6609
  214MOL0     H28194   8.947   8.852   4.779  0.5498 -1.6190  2.5550
  214MOL0     H28195   8.955   8.766   4.533 -0.8387 -0.6358  0.4086
  214MOL0     H28196   8.835   8.660   4.544 -0.0259  1.7233 -1.8315
  214MOL0     H28197   9.103   8.638   4.685  0.4471 -0.9661 -0.1411
  214MOL0     H28198   8.967   8.552   4.760 -1.3144 -0.4688  0.7652
  214MOL0     H28199   9.028   8.535   4.468 -0.8294  0.9080  0.5692
  214MOL0     H28200   8.912   8.447   4.565  0.8589 -0.2157  1.3710
  214MOL0     H28201   9.273   8.500   4.709  2.5863 -2.7418 -0.0876
  214MOL0     H28202   9.461   8.280   4.766  1.0168  0.1024  2.0975
  214MOL0     H28203   9.392   8.128   4.808  2.1443  0.7092  2.4236
  214MOL0     H28204   9.339   8.393   4.947  1.4799 -1.6324  0.9417
  214MOL0     H28205   9.455   8.285   5.002 -0.8667  0.3565  1.3434
  214MOL0     H28206   9.258   8.096   4.984 -0.6398  0.6662 -0.5449
  214MOL0     H28207   9.276   8.180   5.123 -0.6879 -1.5640 -0.2476
  214MOL0     H28208   9.048   8.184   5.021  0.1309 -0.8872 -1.7467
  214MOL0     H28209   9.114   8.299   4.903  2.0631 -1.4903 -0.5775
  214MOL0     H28210   9.172   8.529   5.263  3.5626 -1.9635  2.0275
  214MOL0     H28211   9.121   8.541   5.512  0.0026 -0.1357  0.7469
  214MOL0     H28212   8.870   8.416   5.893  1.4096 -0.4197  1.0195
  214MOL0     H28213   8.880   8.365   6.128  2.2263 -0.0100 -1.2847
  214MOL0     H28214   8.963   7.931   6.253  0.3415  0.1594  0.9078
  214MOL0     H28215   8.788   7.941   6.278 -1.7669  0.4596  0.2623
  214MOL0     H28216   8.839   8.074   6.493 -0.4643 -0.8047  0.7496
  214MOL0     H28217   9.011   8.070   6.466 -1.6492  2.6420 -1.5163
  214MOL0     H28218   8.983   7.894   6.625  0.3825 -3.7249  0.2284
  214MOL0     H28219   9.008   7.813   6.472  0.6310 -0.0075  0.7785
  214MOL0     H28220   8.740   7.883   6.569  2.4963  2.5352  2.0997
  214MOL0     H28221   8.781   7.779   6.428  2.1379 -3.6970 -0.6243
  214MOL0     H28222   8.705   7.673   6.637 -0.5607  1.5602  0.8672
  214MOL0     H28223   8.838   7.746   6.726  0.8842 -1.0645  0.1368
  214MOL0     H28224   9.002   7.611   6.570  1.3283  0.5656  3.3530
  214MOL0     H28225   8.853   7.530   6.510 -0.6009 -1.5269  1.0578
  214MOL0     H28226   8.977   7.527   6.786  1.3312  1.9035 -0.4331
  214MOL0     H28227   8.818   7.451   6.737 -1.2150 -1.1072 -3.2582
  214MOL0     H28228   8.932   7.318   6.566 -2.0237 -0.4138  0.9467
  214MOL0     H28229   8.952   7.290   6.740  2.3728 -2.8354 -2.1962
  214MOL0     H28230   8.825   7.956   6.028 -1.1283  0.6676 -0.2926
  214MOL0     H28231   8.877   8.010   5.789  0.1051  0.4499 -0.0889
  214MOL0     H28232   8.885   8.195   5.455  2.1569 -0.6917  1.5128
  214MOL0     H28233   8.929   8.186   5.212 -0.8632 -1.3804  0.3701
  214MOL0     H28234   9.096   9.201   4.627  0.6722 -0.4623 -0.1172
  214MOL0     H28235   9.236   9.357   4.506 -0.0351 -4.7189  1.7033
  214MOL0     H28236   9.142   9.742   4.147 -1.0211 -0.9943  2.3049
  214MOL0     H28237   9.287   9.876   4.011 -3.1598 -1.5738 -0.3967
  214MOL0     H28238   9.445  10.099   3.978  1.7113  0.5707  2.5125
  214MOL0     H28239   9.490   9.962   3.869 -0.7238 -0.8365  1.1380
  214MOL0     H28240   9.731  10.013   3.871  2.5724  2.0551 -0.0169
  214MOL0     H28241   9.634  10.154   3.820 -3.9544  2.8783  4.5057
  214MOL0     H28242   9.738  10.123   4.090  0.7742 -2.3880 -1.8162
  214MOL0     H28243   9.636  10.256   4.048  0.4384 -3.4892  3.7051
  214MOL0     H28244   9.869  10.335   4.036 -3.9258 -1.4899  1.1480
  214MOL0     H28245   9.909  10.227   3.899  0.5038 -0.9722 -0.3548
  214MOL0     H28246   9.722  10.485   3.650  0.8404 -3.0097 -1.6634
  214MOL0     H28247   9.610   9.843   4.297 -0.4354  2.3394 -1.7379
  214MOL0     H28248   9.465   9.702   4.436 -0.7356  1.6103  0.2801
  215MOL0     O28249   3.095   4.532  10.891  0.8466  0.1544 -0.3408
  215MOL0     C28250   3.001   4.548  10.967 -0.8412 -0.5402 -0.3958
  215MOL0     O28251   3.017   4.618  11.081 -0.5205 -0.2192  0.2951
  215MOL0     C28252   3.138   4.691  11.102 -0.1866  0.5091  0.9796
  215MOL0     C28253   3.263   4.628  11.115  0.0433  0.3614 -0.1661
  215MOL0     C28254   3.382   4.690  11.121  0.4065 -0.7320  0.4229
  215MOL0     C28255   3.386   4.828  11.118  0.6697 -0.2393  0.0237
  215MOL0     O28256   3.505   4.887  11.114  0.1969  0.1210 -0.1524
  215MOL0     C28257   3.519   5.029  11.096  0.0692  0.1654  0.6228
  215MOL0     C28258   3.663   5.075  11.133 -0.8329  0.4261  0.0639
  215MOL0     C28259   3.714   5.068  11.276 -0.0658 -0.3662  0.7536
  215MOL0     C28260   3.871   5.094  11.271  0.0135 -0.5950  0.0421
  215MOL0     C28261   3.916   5.148  11.406 -0.1257  0.1079 -1.1533
  215MOL0     C28262   4.040   5.244  11.387 -0.4905  0.5800  0.5230
  215MOL0     C28263   4.061   5.347  11.489  0.1162 -1.1674 -0.4882
  215MOL0     C28264   4.050   5.298  11.636  0.1985 -0.2863  0.6245
  215MOL0     N28265   4.069   5.402  11.731 -0.0645 -0.2503  0.1971
  215MOL0     C28266   3.986   5.430  11.837  0.2638  0.7175  0.5357
  215MOL0     C28267   4.064   5.510  11.922  0.5659  0.7168 -0.4176
  215MOL0     C28268   4.041   5.598  12.037  0.3566 -0.5104 -0.5672
  215MOL0     C28269   3.951   5.716  12.012 -0.1503 -0.6451  0.9542
  215MOL0     C28270   3.816   5.672  11.962 -0.1733 -0.0541 -0.1700
  215MOL0     C28271   3.720   5.789  11.972  0.2207 -0.0491 -0.7867
  215MOL0     O28272   3.696   5.848  12.105 -0.0336 -0.1019  0.1135
  215MOL0     C28273   3.767   5.966  12.131 -0.6343 -0.1839 -0.2692
  215MOL0     C28274   3.727   6.034  12.246  0.2359 -0.1369  0.2931
  215MOL0     C28275   3.794   6.149  12.294  0.0766  0.0569 -0.3601
  215MOL0     C28276   3.920   6.181  12.245  0.2436  0.3781  0.2403
  215MOL0     C28277   3.993   6.303  12.301  0.1896  0.0524  0.3132
  215MOL0     O28278   3.932   6.392  12.379  0.1657  0.0002  0.6041
  215MOL0     C28279   3.995   6.510  12.427  0.7959  0.5935  0.4284
  215MOL0     C28280   4.094   6.572  12.360  0.4480 -0.2409  0.5672
  215MOL0     C28281   4.139   6.694  12.411 -0.7945  0.4627 -0.8578
  215MOL0     C28282   4.099   6.754  12.532  0.2236 -0.0207 -0.1263
  215MOL0     O28283   4.169   6.865  12.575  0.1936  0.1230 -0.7870
  215MOL0     C28284   4.137   6.922  12.706  0.7662 -0.9009 -0.1887
  215MOL0     C28285   4.258   6.981  12.767 -0.8513 -0.3876 -0.4889
  215MOL0     C28286   4.375   6.889  12.817 -0.5601  0.5581 -0.0668
  215MOL0     C28287   4.417   6.774  12.718  0.4893 -0.3067 -0.4850
  215MOL0     C28288   4.536   6.679  12.753  0.7627  0.3210  0.8091
  215MOL0     C28289   4.529   6.592  12.883  1.6917 -0.6419 -0.0401
  215MOL0     C28290   4.632   6.484  12.894 -0.5107  1.0948  0.5244
  215MOL0     C28291   4.598   6.393  13.016 -0.6922 -0.0065  0.0506
  215MOL0    Cl28292   4.710   6.250  13.023 -0.2684 -0.1289  0.0858
  215MOL0     C28293   3.990   6.694  12.589  0.1239 -0.4359 -0.7154
  215MOL0     C28294   3.948   6.566  12.551 -0.8294 -1.2801  0.0524
  215MOL0     O28295   4.103   6.304  12.256 -1.4210  0.0927 -0.7081
  215MOL0     C28296   3.951   6.121  12.122 -0.6242  0.2953  0.3441
  215MOL0     C28297   3.880   6.018  12.063  0.0440 -1.0599 -0.5272
  215MOL0     N28298   4.170   5.551  11.847 -0.4509  0.7016 -0.1008
  215MOL0     N28299   4.175   5.492  11.735 -0.5606  0.2019 -0.4774
  215MOL0     C28300   3.265   4.899  11.113 -0.5815 -0.2215 -0.3909
  215MOL0     C28301   3.144   4.832  11.096  0.0216  0.9747 -0.0618
  215MOL0     C28302   2.891   4.454  10.963  0.7538  0.4727 -0.8506
  215MOL0     C28303   2.910   4.339  10.881 -0.5247  0.2416 -0.2151
  215MOL0     C28304   2.814   4.239  10.884 -0.2955  0.8377  0.0431
  215MOL0     C28305   2.697   4.259  10.962 -0.0116  0.2322 -0.0485
  215MOL0     O28306   2.622   4.148  10.970  0.4704  0.5863 -0.1543
  215MOL0     C28307   2.484   4.168  11.007 -0.1425 -0.5399 -0.5990
  215MOL0     C28308   2.466   4.169  11.158 -0.5524  0.4030 -0.2495
  215MOL0     C28309   2.338   4.247  11.205  0.9720  0.2457 -0.6539
  215MOL0     C28310   2.198   4.205  11.150  0.4935 -0.0771  0.6028
  215MOL0     C28311   2.143   4.093  11.221  0.0801  0.5865 -1.6492
  215MOL0     C28312   2.100   4.007  11.298 -0.4223  0.0381  0.4216
  215MOL0     C28313   2.671   4.375  11.037  0.6909 -0.4106 -0.1989
  215MOL0     C28314   2.773   4.470  11.035  0.0107 -0.0469  0.3732
  215MOL0     H28315   3.265   4.519  11.114  0.6318  0.3400  0.8887
  215MOL0     H28316   3.474   4.633  11.125  1.2089  0.5236  0.4370
  215MOL0     H28317   3.449   5.096  11.146 -2.2910 -2.2785  0.8524
  215MOL0     H28318   3.502   5.046  10.989  3.3066 -2.6735 -0.5612
  215MOL0     H28319   3.669   5.178  11.097  0.1533 -1.6096 -6.9201
  215MOL0     H28320   3.726   5.013  11.069  0.2026  2.3321 -0.8422
  215MOL0     H28321   3.697   4.969  11.319  0.4060  0.4942  3.0552
  215MOL0     H28322   3.658   5.142  11.334 -1.6006 -1.2632  0.4770
  215MOL0     H28323   3.930   5.007  11.240 -0.7500 -1.0707 -0.0899
  215MOL0     H28324   3.880   5.180  11.204 -1.8779 -0.5339 -0.1907
  215MOL0     H28325   3.940   5.076  11.484  1.7116  1.4983 -0.3591
  215MOL0     H28326   3.833   5.207  11.445 -1.4628 -1.6773 -1.1882
  215MOL0     H28327   4.024   5.303  11.295 -0.3600 -1.4187 -0.8431
  215MOL0     H28328   4.123   5.174  11.375 -0.3558  0.8396 -0.1131
  215MOL0     H28329   4.162   5.384  11.474  0.1547 -1.3412 -0.6574
  215MOL0     H28330   3.986   5.427  11.484  0.2726 -0.9372  0.5874
  215MOL0     H28331   4.136   5.234  11.658  0.8041  0.0938 -0.5248
  215MOL0     H28332   3.963   5.235  11.654 -1.3906  0.2969 -3.7261
  215MOL0     H28333   3.883   5.398  11.843  0.2789  0.6663  0.5256
  215MOL0     H28334   4.134   5.649  12.062 -0.1993 -0.0308  0.6235
  215MOL0     H28335   4.006   5.545  12.126  0.0169  0.2836 -0.2173
  215MOL0     H28336   3.996   5.791  11.947  0.6350 -0.1974  1.9997
  215MOL0     H28337   3.953   5.783  12.098  0.7850 -0.7585  1.0390
  215MOL0     H28338   3.811   5.628  11.861 -1.3313  0.1804 -0.2276
  215MOL0     H28339   3.791   5.589  12.028  0.7461  0.0768  0.3479
  215MOL0     H28340   3.618   5.764  11.941 -0.4292  2.6683 -1.1482
  215MOL0     H28341   3.756   5.860  11.897  0.9797 -0.2750 -0.6380
  215MOL0     H28342   3.641   5.999  12.303 -0.1639 -2.0638 -1.3717
  215MOL0     H28343   3.744   6.221  12.358 -0.0703  1.6864 -2.1849
  215MOL0     H28344   4.145   6.537  12.271  0.8812 -3.3870  1.9107
  215MOL0     H28345   4.231   6.725  12.362 -0.1031 -2.1751 -1.3887
  215MOL0     H28346   4.081   6.857  12.774 -3.7290  2.6239 -0.0374
  215MOL0     H28347   4.069   7.007  12.691  1.1023 -0.0909  2.3200
  215MOL0     H28348   4.243   7.055  12.846  2.2175  1.0918 -1.1475
  215MOL0     H28349   4.304   7.043  12.690  3.0408 -1.0330  1.0624
  215MOL0     H28350   4.369   6.846  12.918  1.7130  0.6528  0.1568
  215MOL0     H28351   4.458   6.958  12.832 -0.1679  0.3579 -1.2145
  215MOL0     H28352   4.323   6.717  12.715  1.4383 -1.9580 -0.1839
  215MOL0     H28353   4.432   6.829  12.624  0.4498  0.0631 -0.2762
  215MOL0     H28354   4.634   6.727  12.752  1.0030 -0.1640  0.6679
  215MOL0     H28355   4.547   6.617  12.663  3.7306  1.7835  0.0234
  215MOL0     H28356   4.427   6.552  12.887  1.9035 -1.3760 -1.4516
  215MOL0     H28357   4.547   6.652  12.973  0.7401 -1.1754  0.5260
  215MOL0     H28358   4.639   6.425  12.802  0.1067  1.9191  0.0375
  215MOL0     H28359   4.729   6.529  12.917  1.3997 -1.9068 -0.9105
  215MOL0     H28360   4.495   6.367  12.989 -1.0518  1.6986 -0.3680
  215MOL0     H28361   4.593   6.440  13.114  1.6818  0.8496 -0.1663
  215MOL0     H28362   3.948   6.733  12.681 -0.9064  4.6200 -2.9968
  215MOL0     H28363   3.868   6.516  12.606  1.2648 -1.7269  2.8965
  215MOL0     H28364   4.038   6.167  12.076  0.1828 -0.1755  1.3436
  215MOL0     H28365   3.914   5.997  11.963 -0.0300  4.6984 -2.1337
  215MOL0     H28366   3.255   5.007  11.106 -4.6912  0.0034  3.6416
  215MOL0     H28367   3.049   4.886  11.096  0.4671  1.8468 -1.5027
  215MOL0     H28368   3.009   4.316  10.845  1.6125  1.1076  4.3681
  215MOL0     H28369   2.822   4.143  10.835  0.3050  1.9633 -2.2325
  215MOL0     H28370   2.424   4.088  10.963 -0.7849  0.2045 -1.0998
  215MOL0     H28371   2.441   4.260  10.967 -1.4973 -1.3127 -0.9863
  215MOL0     H28372   2.468   4.067  11.199  2.3230  0.2851 -0.5103
  215MOL0     H28373   2.535   4.229  11.217  0.3462  1.8811 -2.6534
  215MOL0     H28374   2.357   4.345  11.161  0.1201 -0.1493 -1.9686
  215MOL0     H28375   2.331   4.253  11.314 -2.9543  0.0040 -0.7454
  215MOL0     H28376   2.130   4.286  11.178  1.0317  0.7695 -0.4313
  215MOL0     H28377   2.203   4.181  11.043  3.0612 -3.0618  1.2735
  215MOL0     H28378   2.053   3.934  11.361 -3.1485  0.4203 -0.9896
  215MOL0     H28379   2.588   4.398  11.102  0.9906  0.8116 -0.2319
  215MOL0     H28380   2.754   4.560  11.094  1.4006  1.6777 -1.6718
  216MOL0     O28381   7.339   2.287   9.079  0.0061  0.0699 -1.0630
  216MOL0     C28382   7.371   2.406   9.064 -0.7492  0.2478 -0.1721
  216MOL0     O28383   7.492   2.453   9.002  0.2772 -0.8618 -0.3567
  216MOL0     C28384   7.557   2.368   8.925 -0.2924  0.8109 -0.4135
  216MOL0     C28385   7.685   2.324   8.959  0.0366 -0.8952 -0.3537
  216MOL0     C28386   7.751   2.236   8.869 -1.2445  0.5256  0.3202
  216MOL0     C28387   7.686   2.176   8.764 -0.0660  0.9739  0.2270
  216MOL0     O28388   7.761   2.077   8.698  0.1260 -0.0550  0.5413
  216MOL0     C28389   7.707   1.994   8.590 -0.3946 -0.3922 -0.6769
  216MOL0     C28390   7.820   1.889   8.545 -0.3449  0.0121  0.0558
  216MOL0     C28391   7.836   1.784   8.655 -0.0418 -0.6556  0.9019
  216MOL0     C28392   7.933   1.682   8.614 -0.4672 -0.5041 -0.2188
  216MOL0     C28393   7.941   1.571   8.712  0.2055  0.4385 -0.6780
  216MOL0     C28394   8.027   1.456   8.664  0.3641  0.9335 -0.5479
  216MOL0     C28395   8.131   1.420   8.770  0.6061  0.0260  0.1537
  216MOL0     C28396   8.232   1.318   8.713  0.9318  0.2855 -0.3561
  216MOL0     N28397   8.372   1.348   8.699 -0.3556  0.4305 -0.2782
  216MOL0     C28398   8.414   1.459   8.645 -0.3714 -0.8673  0.6769
  216MOL0     C28399   8.551   1.447   8.643 -0.5659  0.0661 -0.0120
  216MOL0     C28400   8.640   1.563   8.594  0.1227  0.5426 -0.4163
  216MOL0     C28401   8.702   1.526   8.463 -0.2126  1.9962 -0.3103
  216MOL0     C28402   8.599   1.494   8.358 -0.3456  1.1664 -0.2541
  216MOL0     C28403   8.659   1.508   8.209 -0.1489  0.7591  0.0829
  216MOL0     O28404   8.681   1.650   8.182 -0.4528  0.3360 -0.0737
  216MOL0     C28405   8.678   1.686   8.048 -0.6162  0.2276 -0.5795
  216MOL0     C28406   8.690   1.812   8.013  0.5924 -0.0667  0.6566
  216MOL0     C28407   8.708   1.856   7.882  0.6615  0.3445 -1.1003
  216MOL0     C28408   8.713   1.774   7.765  0.4058 -0.3472 -0.1241
  216MOL0     C28409   8.728   1.818   7.619  0.5958 -0.5855 -0.7130
  216MOL0     O28410   8.768   1.950   7.602  0.2996  0.2640 -0.5319
  216MOL0     C28411   8.838   1.998   7.489  0.5376  0.5418 -0.7190
  216MOL0     C28412   8.893   2.122   7.518 -0.5508  0.9667  0.1317
  216MOL0     C28413   8.975   2.171   7.414  0.3909 -0.5869  0.1077
  216MOL0     C28414   9.001   2.102   7.288  0.4643 -0.5776 -0.3796
  216MOL0     O28415   9.092   2.153   7.202 -0.4457  0.1669 -0.0901
  216MOL0     C28416   9.055   2.147   7.062 -1.3862  0.2171 -0.8449
  216MOL0     C28417   9.014   2.295   7.045  0.2234  0.4974  0.2242
  216MOL0     C28418   8.978   2.326   6.898 -1.3117 -1.2240  0.7340
  216MOL0     C28419   9.029   2.463   6.860 -0.7100 -0.1291  0.0879
  216MOL0     C28420   9.175   2.461   6.827  0.5643  0.4605  0.4251
  216MOL0     C28421   9.214   2.601   6.767 -0.3787 -0.2443  0.0021
  216MOL0     C28422   9.346   2.594   6.698  0.2538  0.2832  0.0783
  216MOL0     C28423   9.464   2.601   6.796  0.6926 -0.2285  0.4606
  216MOL0    Cl28424   9.469   2.765   6.863 -0.0230  0.4115  0.1183
  216MOL0     C28425   8.939   1.975   7.275  0.0333  0.4728 -0.5702
  216MOL0     C28426   8.853   1.933   7.371  0.1757 -0.3603  0.1850
  216MOL0     O28427   8.701   1.736   7.534 -0.7059 -0.2214  0.2472
  216MOL0     C28428   8.700   1.642   7.802  0.2311  0.2319 -0.0130
  216MOL0     C28429   8.679   1.603   7.935  0.1045 -0.7739  0.2139
  216MOL0     N28430   8.588   1.327   8.704  0.3515 -1.0277 -0.2842
  216MOL0     N28431   8.481   1.274   8.739  0.0642  0.3872  0.9423
  216MOL0     C28432   7.562   2.230   8.720 -0.6032 -0.2687 -1.0123
  216MOL0     C28433   7.500   2.321   8.803  0.1354  0.4710 -0.3796
  216MOL0     C28434   7.275   2.504   9.105 -0.3215 -0.2080 -0.5491
  216MOL0     C28435   7.317   2.642   9.117 -0.0910 -0.1396  0.1756
  216MOL0     C28436   7.225   2.742   9.132 -0.1065 -1.1071 -0.9949
  216MOL0     C28437   7.098   2.720   9.154  0.0464  0.1988 -0.0880
  216MOL0     O28438   6.998   2.803   9.164  0.1063 -0.2630 -0.0028
  216MOL0     C28439   6.972   2.889   9.054  0.0163  0.7263  0.2805
  216MOL0     C28440   6.853   2.830   8.972 -0.3776 -0.7151 -0.4474
  216MOL0     C28441   6.714   2.832   9.039  0.0104  0.4847  0.2520
  216MOL0     C28442   6.632   2.712   8.986  0.1866 -0.9227  1.0330
  216MOL0     C28443   6.663   2.584   9.046  0.2093 -0.3927  0.3409
  216MOL0     C28444   6.682   2.477   9.096 -0.5832  0.2979 -0.6192
  216MOL0     C28445   7.057   2.577   9.146  0.0610 -0.1758  0.4136
  216MOL0     C28446   7.142   2.479   9.111  0.0476 -0.7621 -0.3851
  216MOL0     H28447   7.733   2.383   9.037 -0.9176  1.7767 -1.6295
  216MOL0     H28448   7.847   2.198   8.902 -0.9565 -1.3389 -2.3392
  216MOL0     H28449   7.685   2.055   8.503 -1.5626  0.0238 -0.1045
  216MOL0     H28450   7.619   1.938   8.622  1.6588 -1.9536  2.9166
  216MOL0     H28451   7.915   1.941   8.527 -1.1693  0.7368 -2.5930
  216MOL0     H28452   7.786   1.841   8.452  0.3179  0.4491 -0.4290
  216MOL0     H28453   7.737   1.740   8.665 -0.4873 -0.8901 -2.9699
  216MOL0     H28454   7.863   1.825   8.753  0.3551  1.3948 -0.0043
  216MOL0     H28455   7.893   1.648   8.518  2.5594 -0.2606 -1.6755
  216MOL0     H28456   8.033   1.726   8.620  0.5338 -2.7877  3.3942
  216MOL0     H28457   7.846   1.517   8.715  0.9062 -0.8600 -1.1290
  216MOL0     H28458   7.954   1.615   8.811 -0.6351 -0.7687 -0.0078
  216MOL0     H28459   8.081   1.481   8.572 -0.1566 -0.2125 -1.1876
  216MOL0     H28460   7.968   1.366   8.646  1.3969 -0.7737  3.5683
  216MOL0     H28461   8.186   1.513   8.789 -2.6114  2.8061 -2.8216
  216MOL0     H28462   8.087   1.396   8.867  0.2619 -0.4290 -0.1097
  216MOL0     H28463   8.191   1.296   8.615  0.3245  0.6692 -0.1890
  216MOL0     H28464   8.212   1.227   8.771 -4.1486  0.7502 -0.9625
  216MOL0     H28465   8.365   1.548   8.609 -1.4759 -1.8697 -0.4050
  216MOL0     H28466   8.710   1.586   8.675  0.2151  0.0418 -0.3503
  216MOL0     H28467   8.584   1.657   8.578  0.7393  1.5182  2.5353
  216MOL0     H28468   8.773   1.443   8.473 -0.1679  1.7921 -2.0592
  216MOL0     H28469   8.765   1.604   8.422  2.7845 -1.8224 -3.8854
  216MOL0     H28470   8.566   1.390   8.357 -0.4453  1.1719  0.9711
  216MOL0     H28471   8.510   1.557   8.369 -2.1182 -1.2875  0.2678
  216MOL0     H28472   8.580   1.480   8.139  0.4826 -0.1731 -0.2756
  216MOL0     H28473   8.754   1.453   8.199  1.6318  3.6419  0.1980
  216MOL0     H28474   8.700   1.888   8.090 -1.4270  1.3524 -0.4114
  216MOL0     H28475   8.710   1.965   7.890 -2.1661  0.3455  1.9277
  216MOL0     H28476   8.866   2.178   7.607 -3.7364  0.3804 -0.3252
  216MOL0     H28477   9.037   2.260   7.424 -2.1133  1.6239 -2.4077
  216MOL0     H28478   8.967   2.090   7.030 -1.3825  0.6601 -1.6799
  216MOL0     H28479   9.147   2.121   7.010 -0.6823  2.7523 -1.0055
  216MOL0     H28480   9.097   2.355   7.083  0.4476  0.4326 -0.1684
  216MOL0     H28481   8.917   2.313   7.092 -2.1588 -2.0727 -3.1807
  216MOL0     H28482   8.869   2.326   6.891 -1.4098  0.0106  1.7264
  216MOL0     H28483   9.022   2.252   6.832 -3.4206 -0.6215 -1.4917
  216MOL0     H28484   8.978   2.488   6.766  2.8083 -0.8997 -2.2639
  216MOL0     H28485   9.015   2.537   6.939 -0.8385 -0.5958  0.5019
  216MOL0     H28486   9.207   2.380   6.761 -0.2657 -3.0234  3.9280
  216MOL0     H28487   9.215   2.451   6.928 -2.1956 -2.7654  1.3683
  216MOL0     H28488   9.211   2.672   6.849 -2.4333 -1.8806  1.4629
  216MOL0     H28489   9.130   2.622   6.700  0.6442 -0.8815 -1.5313
  216MOL0     H28490   9.348   2.509   6.629  0.2572 -1.2170  1.8556
  216MOL0     H28491   9.354   2.686   6.638 -0.1158  0.2326 -0.0491
  216MOL0     H28492   9.555   2.592   6.736  0.4002 -0.3306  0.0212
  216MOL0     H28493   9.455   2.527   6.876  1.4924  0.1453  0.9097
  216MOL0     H28494   8.977   1.912   7.195  0.1608  0.4434 -0.4861
  216MOL0     H28495   8.825   1.828   7.371  1.0361 -0.6733 -2.5000
  216MOL0     H28496   8.714   1.561   7.732 -0.2004  0.3102 -0.1946
  216MOL0     H28497   8.677   1.497   7.957  0.2783 -1.3920 -2.4840
  216MOL0     H28498   7.515   2.203   8.625  1.2088 -2.3331 -1.4159
  216MOL0     H28499   7.412   2.372   8.764  0.0649 -1.5609 -3.1892
  216MOL0     H28500   7.420   2.674   9.108 -0.6047  0.9430 -2.7279
  216MOL0     H28501   7.250   2.844   9.105  1.6727 -1.5585 -1.2016
  216MOL0     H28502   7.054   2.919   8.988  1.6597 -0.1173  1.8397
  216MOL0     H28503   6.946   2.984   9.100 -1.1296  0.0559  1.0724
  216MOL0     H28504   6.845   2.892   8.882  1.0083  0.4610  0.2007
  216MOL0     H28505   6.873   2.727   8.939 -1.1723 -0.6649 -1.1211
  216MOL0     H28506   6.655   2.920   9.016  0.4427  0.8239  0.4136
  216MOL0     H28507   6.729   2.834   9.148  1.1251 -0.7962  0.1556
  216MOL0     H28508   6.524   2.717   9.002  0.3037 -2.2160  2.3488
  216MOL0     H28509   6.639   2.702   8.877 -4.1077  0.0971  0.4439
  216MOL0     H28510   6.704   2.380   9.136  0.6231  0.9078  0.2829
  216MOL0     H28511   6.950   2.564   9.152 -0.0980 -1.2239 -2.6288
  216MOL0     H28512   7.108   2.377   9.096  3.6217 -1.8518 -2.1311
  217MOL0     O28513   7.143   9.119   3.676 -0.1878  0.2093  0.4246
  217MOL0     C28514   7.122   9.236   3.661 -0.0892  0.8830 -0.3399
  217MOL0     O28515   7.208   9.341   3.684 -0.0845 -0.8652  0.8371
  217MOL0     C28516   7.338   9.331   3.714  0.3145 -0.5699  0.3601
  217MOL0     C28517   7.399   9.431   3.797  0.9874 -0.2433 -0.1552
  217MOL0     C28518   7.534   9.425   3.825 -0.2153  0.4114  0.5630
  217MOL0     C28519   7.602   9.321   3.780 -0.2120 -0.2106  1.1273
  217MOL0     O28520   7.729   9.325   3.821 -0.1234  0.4982 -0.1589
  217MOL0     C28521   7.812   9.205   3.800 -0.3624 -0.5850  0.2442
  217MOL0     C28522   7.950   9.241   3.844  1.2267  0.7295  0.2979
  217MOL0     C28523   8.048   9.152   3.772  0.2974 -0.9444 -1.4217
  217MOL0     C28524   8.202   9.198   3.783  0.0666  0.5055  0.5956
  217MOL0     C28525   8.300   9.118   3.707 -0.5216 -0.4045  0.8035
  217MOL0     C28526   8.446   9.119   3.750  0.4770  0.9897 -0.4024
  217MOL0     C28527   8.534   8.996   3.702  0.0421  0.1568  0.0164
  217MOL0     C28528   8.657   8.983   3.794 -1.0270 -0.0792  0.0163
  217MOL0     N28529   8.756   8.891   3.741 -0.7104  1.1894  0.1583
  217MOL0     C28530   8.750   8.807   3.636  0.3043 -0.2968 -0.5003
  217MOL0     C28531   8.860   8.741   3.638  0.1271  0.5632 -0.2434
  217MOL0     C28532   8.896   8.616   3.555 -0.0886 -0.7405  1.0456
  217MOL0     C28533   8.979   8.647   3.425 -0.0210 -0.1138 -0.0632
  217MOL0     C28534   9.127   8.702   3.463 -0.0218 -0.2418 -0.6272
  217MOL0     C28535   9.193   8.791   3.353 -0.9250  0.1023 -1.3121
  217MOL0     O28536   9.257   8.707   3.250  0.8165 -0.5462 -0.3260
  217MOL0     C28537   9.370   8.627   3.277 -0.4902 -0.3997 -0.2217
  217MOL0     C28538   9.408   8.539   3.180 -0.3046 -1.5510  0.4540
  217MOL0     C28539   9.502   8.444   3.207  0.5646 -0.4787  0.9757
  217MOL0     C28540   9.570   8.426   3.321 -0.2424 -0.4799 -1.8370
  217MOL0     C28541   9.662   8.310   3.347  0.4878 -0.8181 -0.6661
  217MOL0     O28542   9.659   8.209   3.257  0.4965  0.5817  0.0075
  217MOL0     C28543   9.741   8.104   3.287  1.4341 -0.0391  0.3775
  217MOL0     C28544   9.879   8.113   3.311 -0.5899  0.2463 -0.2378
  217MOL0     C28545   9.951   8.000   3.350  0.5898 -0.1152 -0.5319
  217MOL0     C28546   9.882   7.879   3.384  1.0270 -0.6925  0.3308
  217MOL0     O28547   9.937   7.762   3.407 -0.2990 -1.0696 -0.1148
  217MOL0     C28548  10.071   7.752   3.450 -0.2143  1.0267 -0.0178
  217MOL0     C28549  10.104   7.597   3.489  0.1167  0.9429 -0.2370
  217MOL0     C28550  10.253   7.587   3.529  1.1321  0.0663  0.4800
  217MOL0     C28551  10.365   7.574   3.422  0.0291 -0.5090  0.2777
  217MOL0     C28552  10.332   7.466   3.319 -0.3060 -0.3381  0.2404
  217MOL0     C28553  10.448   7.447   3.217  0.3451 -0.0249  0.1837
  217MOL0     C28554  10.449   7.299   3.169  0.7602  0.4178  0.2239
  217MOL0     C28555  10.540   7.213   3.255  0.3427 -0.3366 -0.6692
  217MOL0    Cl28556  10.705   7.245   3.258 -0.2835 -0.0920 -0.2626
  217MOL0     C28557   9.747   7.878   3.368 -0.0070  0.5374 -0.1202
  217MOL0     C28558   9.676   7.988   3.325 -0.3674 -0.3790  0.2300
  217MOL0     O28559   9.725   8.313   3.454  0.7391  0.1605  0.3621
  217MOL0     C28560   9.551   8.531   3.413 -0.6676  0.0614  0.4672
  217MOL0     C28561   9.446   8.625   3.397 -0.7610 -0.6251  0.0412
  217MOL0     N28562   8.942   8.803   3.730 -0.2318  0.4339  0.1923
  217MOL0     N28563   8.880   8.901   3.786 -0.1181  0.0557 -0.3653
  217MOL0     C28564   7.546   9.213   3.710  0.0120 -0.2095  0.9834
  217MOL0     C28565   7.413   9.219   3.679  0.6041 -0.2867  0.2600
  217MOL0     C28566   6.980   9.277   3.632  0.2191 -0.4055  0.6086
  217MOL0     C28567   6.890   9.201   3.554 -0.2161  0.1108  1.0140
  217MOL0     C28568   6.757   9.246   3.537 -0.6089  0.5054  0.6559
  217MOL0     C28569   6.709   9.369   3.584 -1.1115 -1.2542 -0.3310
  217MOL0     O28570   6.581   9.428   3.576 -0.2416 -0.5958  0.1857
  217MOL0     C28571   6.519   9.418   3.443 -0.6074  0.5382 -0.4023
  217MOL0     C28572   6.378   9.442   3.454 -0.1824  0.1885 -0.6109
  217MOL0     C28573   6.313   9.322   3.517  1.0145  1.0266 -0.8563
  217MOL0     C28574   6.164   9.337   3.523 -0.7558 -0.1208 -0.3051
  217MOL0     C28575   6.103   9.212   3.575 -0.6653 -0.0542  0.5980
  217MOL0     C28576   6.029   9.115   3.602  0.5525 -0.5596 -0.4980
  217MOL0     C28577   6.796   9.441   3.666 -0.2972 -0.0332  1.2185
  217MOL0     C28578   6.930   9.392   3.692  0.0617 -0.5445  0.2870
  217MOL0     H28579   7.338   9.512   3.835  0.6881 -1.1238  1.2786
  217MOL0     H28580   7.569   9.511   3.881 -0.9536  0.0850  1.5751
  217MOL0     H28581   7.811   9.181   3.694 -2.5867  0.2166  0.0398
  217MOL0     H28582   7.783   9.111   3.848 -0.0988 -0.5678  0.4403
  217MOL0     H28583   7.957   9.231   3.953 -1.3107  2.6867  0.7124
  217MOL0     H28584   7.950   9.347   3.819 -2.1132  1.2580  2.0457
  217MOL0     H28585   8.019   9.173   3.668  1.1025 -2.8748 -2.0822
  217MOL0     H28586   8.031   9.046   3.795  2.6786 -1.1835 -0.5452
  217MOL0     H28587   8.223   9.302   3.755  3.4237 -0.0914  0.4359
  217MOL0     H28588   8.234   9.199   3.888  1.0995 -0.3384  0.3135
  217MOL0     H28589   8.306   9.135   3.599  1.3180  1.5488  1.1566
  217MOL0     H28590   8.261   9.017   3.722  1.2171 -0.8649  2.5390
  217MOL0     H28591   8.455   9.138   3.858  2.0702  1.3590 -0.5735
  217MOL0     H28592   8.504   9.208   3.722  3.4788 -0.8364 -0.4232
  217MOL0     H28593   8.480   8.902   3.705 -0.1854  0.3025  1.8469
  217MOL0     H28594   8.574   8.997   3.600  0.9474 -2.8026  0.2539
  217MOL0     H28595   8.645   8.967   3.902 -0.6464 -0.2375  0.0363
  217MOL0     H28596   8.701   9.082   3.783 -3.2939  1.0033  0.1061
  217MOL0     H28597   8.659   8.786   3.580  0.6838 -3.0831 -0.2288
  217MOL0     H28598   8.809   8.554   3.531 -0.3961 -0.3625  1.1783
  217MOL0     H28599   8.967   8.569   3.624  3.6731  0.2331 -1.8272
  217MOL0     H28600   8.935   8.718   3.355  3.5720  1.4545 -0.9671
  217MOL0     H28601   8.987   8.548   3.380  0.0902 -0.5607  0.9214
  217MOL0     H28602   9.130   8.754   3.559  0.3327  0.0035 -0.7709
  217MOL0     H28603   9.184   8.609   3.475 -1.1079 -0.7044  1.5339
  217MOL0     H28604   9.274   8.841   3.407 -1.9619  0.0542  0.3573
  217MOL0     H28605   9.119   8.864   3.321  1.5037  1.8640 -3.3306
  217MOL0     H28606   9.365   8.545   3.080  1.3083  4.1181 -0.2135
  217MOL0     H28607   9.537   8.383   3.125  0.8029 -0.2024  0.8722
  217MOL0     H28608   9.930   8.208   3.295 -0.0010  0.0471  0.3837
  217MOL0     H28609  10.059   8.010   3.338  0.5663 -0.8920 -1.4890
  217MOL0     H28610  10.084   7.805   3.545 -1.2033  0.0992  0.6596
  217MOL0     H28611  10.144   7.781   3.374  1.2918 -1.3730  0.3875
  217MOL0     H28612  10.074   7.541   3.400  2.0524 -0.5650 -0.0107
  217MOL0     H28613  10.046   7.546   3.566  2.0091  0.0036  0.6226
  217MOL0     H28614  10.263   7.500   3.595  0.9588 -2.4507 -2.5901
  217MOL0     H28615  10.274   7.678   3.585  0.9494  0.9922 -0.9204
  217MOL0     H28616  10.368   7.668   3.367  0.6760  0.7507  2.3243
  217MOL0     H28617  10.458   7.565   3.479  1.3536  2.7557 -1.1689
  217MOL0     H28618  10.241   7.495   3.265 -0.1799  0.0126  0.2147
  217MOL0     H28619  10.316   7.374   3.375 -1.4254  1.1130  2.4635
  217MOL0     H28620  10.540   7.479   3.267 -0.3193  1.4892  0.4863
  217MOL0     H28621  10.432   7.512   3.131  1.3893  0.2402  0.1698
  217MOL0     H28622  10.343   7.270   3.172  0.3493  1.4722 -1.8820
  217MOL0     H28623  10.492   7.277   3.071  4.7093 -0.2730  1.9383
  217MOL0     H28624  10.523   7.109   3.225 -1.3747 -0.5155  0.8277
  217MOL0     H28625  10.506   7.217   3.358 -0.6027  1.6397 -1.0140
  217MOL0     H28626   9.688   7.787   3.382 -0.1193  0.9653  2.9412
  217MOL0     H28627   9.571   7.979   3.299  0.1943 -0.1518 -2.3911
  217MOL0     H28628   9.614   8.525   3.501 -0.1259  0.3440  0.0963
  217MOL0     H28629   9.427   8.700   3.473 -1.2023 -0.9285  0.2341
  217MOL0     H28630   7.604   9.128   3.676 -0.8395 -0.8517  1.1124
  217MOL0     H28631   7.365   9.160   3.602 -2.8961  1.0619  1.2206
  217MOL0     H28632   6.938   9.115   3.508 -0.7294  1.0397 -1.3643
  217MOL0     H28633   6.699   9.180   3.474 -0.9174 -0.5162  1.9655
  217MOL0     H28634   6.541   9.321   3.396 -1.2396  0.9107 -1.5155
  217MOL0     H28635   6.564   9.494   3.378  0.9919  0.6468  0.7752
  217MOL0     H28636   6.352   9.534   3.507  1.9356 -0.2596  1.3790
  217MOL0     H28637   6.344   9.458   3.352 -0.4752  1.3634 -0.3497
  217MOL0     H28638   6.332   9.300   3.622 -1.3350 -2.5928 -1.0291
  217MOL0     H28639   6.352   9.241   3.454  0.4713  1.9442 -2.4383
  217MOL0     H28640   6.126   9.423   3.580 -0.1543 -0.7341  1.0551
  217MOL0     H28641   6.127   9.352   3.421  0.8937 -1.8883 -1.2184
  217MOL0     H28642   5.964   9.036   3.634  0.2850 -0.5193 -0.9247
  217MOL0     H28643   6.760   9.535   3.708 -0.8604 -0.8740  2.7090
  217MOL0     H28644   6.987   9.453   3.761 -1.9252 -1.4918  2.9081
  218MOL0     O28645   1.035  10.029   1.008  0.0785 -0.8352  0.6368
  218MOL0     C28646   0.938  10.094   1.055  0.2027  0.5057  0.2111
  218MOL0     O28647   0.931  10.178   1.161 -0.0232  0.1029 -1.3793
  218MOL0     C28648   1.041  10.205   1.234 -0.5341 -0.8784 -0.4231
  218MOL0     C28649   1.059  10.182   1.367 -0.4671 -0.2747 -0.7344
  218MOL0     C28650   1.172  10.213   1.440  0.3755 -0.0775 -0.0426
  218MOL0     C28651   1.285  10.269   1.373  0.1172  0.7005 -0.2902
  218MOL0     O28652   1.401  10.292   1.442 -0.8890 -0.2524  0.3991
  218MOL0     C28653   1.526  10.234   1.393 -0.2638  0.3962 -0.1691
  218MOL0     C28654   1.626  10.224   1.495 -0.7909  0.0687 -1.0150
  218MOL0     C28655   1.636  10.104   1.590  0.1202  0.3376  0.2464
  218MOL0     C28656   1.778  10.085   1.647  0.0734  0.3226 -0.3415
  218MOL0     C28657   1.777  10.001   1.778 -0.1062 -0.5944 -0.0859
  218MOL0     C28658   1.914  10.016   1.838 -0.4131 -0.0149  0.8480
  218MOL0     C28659   1.924   9.918   1.952  0.5198 -1.2072 -0.1664
  218MOL0     C28660   1.960   9.781   1.910  0.2236  1.0053 -0.6617
  218MOL0     N28661   2.097   9.741   1.926 -0.1208 -0.9771 -0.8406
  218MOL0     C28662   2.139   9.626   1.993  0.6734 -0.5693 -0.7101
  218MOL0     C28663   2.277   9.631   1.991  0.3587 -1.7273  0.5845
  218MOL0     C28664   2.366   9.539   2.048  0.3696  0.2941 -0.0775
  218MOL0     C28665   2.355   9.389   2.022  0.2940 -0.1538  0.6547
  218MOL0     C28666   2.314   9.345   1.878  0.0670 -0.1543  0.2212
  218MOL0     C28667   2.415   9.391   1.766  0.1801  0.8935 -0.0690
  218MOL0     O28668   2.382   9.347   1.638  0.5736  0.3696  0.0374
  218MOL0     C28669   2.286   9.414   1.569 -0.4817  0.1729  0.7575
  218MOL0     C28670   2.257   9.345   1.451 -0.8422 -0.0653 -0.7951
  218MOL0     C28671   2.164   9.392   1.362 -0.7190  0.4619  1.0464
  218MOL0     C28672   2.107   9.514   1.386 -0.2286  0.3188  0.3986
  218MOL0     C28673   1.995   9.561   1.291 -0.0587 -0.6093 -0.3137
  218MOL0     O28674   1.911   9.655   1.344  0.3393  0.9349 -0.2488
  218MOL0     C28675   1.805   9.701   1.272 -0.4335 -0.3983  0.1086
  218MOL0     C28676   1.792   9.709   1.129 -0.7733  0.4189 -0.1026
  218MOL0     C28677   1.681   9.772   1.066 -0.3795  0.1816 -0.1067
  218MOL0     C28678   1.582   9.838   1.146  0.5385  0.9345 -0.1278
  218MOL0     O28679   1.489   9.918   1.093  0.3101 -0.0161 -0.7092
  218MOL0     C28680   1.359   9.901   1.153  0.7078 -0.1641  0.8839
  218MOL0     C28681   1.319   9.750   1.129 -0.5746  0.3988  1.1574
  218MOL0     C28682   1.171   9.726   1.110  0.5769 -0.2480 -0.7538
  218MOL0     C28683   1.148   9.580   1.072 -0.3873  0.3334  1.4636
  218MOL0     C28684   1.004   9.543   1.051  0.1668  0.0279  0.1512
  218MOL0     C28685   0.998   9.396   1.003 -0.0388 -0.2497 -0.0774
  218MOL0     C28686   0.852   9.353   0.990  0.4785  0.1709  0.3130
  218MOL0     C28687   0.840   9.198   0.997  0.3240  0.9398  0.2507
  218MOL0    Cl28688   0.874   9.105   0.843 -0.2415 -0.2258 -0.4396
  218MOL0     C28689   1.601   9.840   1.279  0.6766  0.5700  0.4086
  218MOL0     C28690   1.717   9.782   1.335  0.2286  0.2371 -0.5207
  218MOL0     O28691   1.977   9.499   1.192 -0.9715 -0.0709  0.9444
  218MOL0     C28692   2.139   9.589   1.502  0.4720  0.1342 -0.6166
  218MOL0     C28693   2.221   9.529   1.595  0.1409 -0.3800 -0.4648
  218MOL0     N28694   2.322   9.741   1.921  0.3880 -0.4782  0.4172
  218MOL0     N28695   2.211   9.798   1.865 -0.4447  0.4300  0.4425
  218MOL0     C28696   1.268  10.301   1.235 -0.5506 -0.6440 -0.4903
  218MOL0     C28697   1.150  10.258   1.167 -0.2600 -0.6581  0.0884
  218MOL0     C28698   0.807  10.062   0.989 -0.8800 -0.5206 -0.4820
  218MOL0     C28699   0.803   9.972   0.883 -0.0481 -0.0218  0.0178
  218MOL0     C28700   0.689   9.943   0.811 -0.5847  0.2802 -0.4298
  218MOL0     C28701   0.571  10.007   0.841  0.0452  0.0050  0.8911
  218MOL0     O28702   0.453   9.979   0.771  0.3107  0.0123  0.1045
  218MOL0     C28703   0.327  10.041   0.808 -0.1126 -0.2959 -0.3408
  218MOL0     C28704   0.254   9.985   0.928 -0.0009  0.5609  0.7600
  218MOL0     C28705   0.115  10.058   0.953  0.3601 -0.2392 -0.1752
  218MOL0     C28706   0.016  10.000   1.055  0.3813 -0.8036  0.8555
  218MOL0     C28707  -0.126  10.031   1.028 -0.3718 -0.0557 -0.2497
  218MOL0     C28708  -0.236  10.057   0.973 -0.1189  0.0843  0.7810
  218MOL0     C28709   0.576  10.105   0.940  0.9700  0.2560 -0.3049
  218MOL0     C28710   0.687  10.126   1.016 -0.6753 -0.6948 -0.1825
  218MOL0     H28711   0.974  10.156   1.428  0.5852 -0.0644  0.8964
  218MOL0     H28712   1.173  10.183   1.544 -0.6278  1.6876  0.5259
  218MOL0     H28713   1.559  10.308   1.319  3.2123  1.7756  2.4462
  218MOL0     H28714   1.520  10.137   1.343 -0.3272 -0.0837  0.7520
  218MOL0     H28715   1.617  10.306   1.568 -0.3386 -0.7678 -0.0029
  218MOL0     H28716   1.723  10.219   1.445 -0.1939  0.6603  0.0277
  218MOL0     H28717   1.601  10.023   1.526  0.0993  0.5486 -0.0088
  218MOL0     H28718   1.564  10.121   1.671 -2.3044 -1.1307 -1.4733
  218MOL0     H28719   1.851  10.048   1.574 -1.1487  1.0200 -1.9733
  218MOL0     H28720   1.810  10.186   1.674 -3.0810  0.7335  2.5438
  218MOL0     H28721   1.761   9.900   1.739  1.6101 -0.9889  0.1900
  218MOL0     H28722   1.691  10.030   1.840  2.8692  0.0137  4.2069
  218MOL0     H28723   1.921  10.121   1.865  0.3234  0.5357 -1.3045
  218MOL0     H28724   1.993   9.982   1.771 -0.6019 -0.4201  0.8263
  218MOL0     H28725   2.003   9.950   2.020 -0.1302 -0.4374  0.2517
  218MOL0     H28726   1.829   9.929   2.005  1.4486 -0.5376  1.4187
  218MOL0     H28727   1.937   9.770   1.804  2.6368 -0.7886 -1.0932
  218MOL0     H28728   1.894   9.714   1.966  0.7023  0.4235 -0.7888
  218MOL0     H28729   2.080   9.546   2.036 -0.0365 -0.1656 -0.9285
  218MOL0     H28730   2.379   9.554   2.156  1.6493  1.1157 -0.3274
  218MOL0     H28731   2.463   9.576   2.013 -0.9155  3.6406 -0.4149
  218MOL0     H28732   2.263   9.359   2.074 -0.8161  0.3261 -0.9399
  218MOL0     H28733   2.445   9.336   2.053  0.1870 -0.2117  0.8640
  218MOL0     H28734   2.309   9.235   1.879  0.2599 -0.2107  3.5694
  218MOL0     H28735   2.217   9.385   1.849  1.7597  1.4329 -4.0646
  218MOL0     H28736   2.511   9.349   1.799 -1.1181 -1.0136  1.5011
  218MOL0     H28737   2.426   9.500   1.765 -0.1206  0.9288 -1.9351
  218MOL0     H28738   2.307   9.252   1.426  1.0507  0.5053  0.6387
  218MOL0     H28739   2.144   9.325   1.279 -0.0142 -1.2945  2.2224
  218MOL0     H28740   1.857   9.652   1.064  0.3954  0.6956  0.7735
  218MOL0     H28741   1.679   9.784   0.958  1.3766  2.3282  0.0486
  218MOL0     H28742   1.297   9.966   1.090  2.2140 -0.8282 -1.4073
  218MOL0     H28743   1.351   9.933   1.257 -0.2303  0.8860  0.5170
  218MOL0     H28744   1.365   9.688   1.206  1.9531  0.2618 -0.3832
  218MOL0     H28745   1.367   9.723   1.035 -0.1627  4.8512 -0.1667
  218MOL0     H28746   1.111   9.800   1.057 -3.4850  0.3404  3.9190
  218MOL0     H28747   1.124   9.742   1.208  0.7614  3.9154 -1.1555
  218MOL0     H28748   1.204   9.567   0.979  0.5635  1.1099  1.9186
  218MOL0     H28749   1.192   9.517   1.150 -1.3081  0.0472  1.7719
  218MOL0     H28750   0.966   9.609   0.973  1.0071  3.5189  2.4642
  218MOL0     H28751   0.953   9.562   1.146  2.0015  1.9430  0.8193
  218MOL0     H28752   1.053   9.335   1.076 -2.3170  1.5284  3.4181
  218MOL0     H28753   1.066   9.386   0.918  3.2896  4.7281  1.5389
  218MOL0     H28754   0.800   9.386   1.081  0.6966  1.0222  0.1395
  218MOL0     H28755   0.801   9.385   0.899 -1.3486  2.2088  1.9229
  218MOL0     H28756   0.739   9.174   1.031 -1.0119  2.9350 -1.9325
  218MOL0     H28757   0.908   9.153   1.070  0.1777  0.0170 -0.1683
  218MOL0     H28758   1.536   9.895   1.347 -0.5384 -0.4437  0.1181
  218MOL0     H28759   1.727   9.793   1.443  1.9396  0.8263 -0.7023
  218MOL0     H28760   2.094   9.682   1.534 -0.7850 -0.7589  0.2878
  218MOL0     H28761   2.234   9.594   1.681 -2.1357 -0.8619  0.2976
  218MOL0     H28762   1.356  10.334   1.181 -0.2573 -0.9194 -0.1888
  218MOL0     H28763   1.134  10.291   1.065 -1.3455  0.8561  0.7043
  218MOL0     H28764   0.894   9.917   0.858 -0.1706 -1.7005  2.7769
  218MOL0     H28765   0.685   9.879   0.724 -1.8537 -0.2761  0.0111
  218MOL0     H28766   0.250  10.023   0.733 -0.8479 -2.3628  0.8082
  218MOL0     H28767   0.347  10.148   0.811 -0.1666 -0.1985 -2.3147
  218MOL0     H28768   0.238   9.877   0.915  0.8870  0.4357  0.6128
  218MOL0     H28769   0.315   9.998   1.018  0.8504  1.8248  0.0333
  218MOL0     H28770   0.069  10.048   0.854 -1.2274 -2.3387  0.6940
  218MOL0     H28771   0.140  10.164   0.966  2.2145  0.2745 -5.4200
  218MOL0     H28772   0.019   9.892   1.039  0.6121 -0.5262 -1.2056
  218MOL0     H28773   0.046  10.039   1.153 -0.2445  1.3830  0.2173
  218MOL0     H28774  -0.331  10.082   0.930 -0.4980  1.8827  2.5437
  218MOL0     H28775   0.486  10.156   0.974  0.2539  1.8244 -4.0469
  218MOL0     H28776   0.696  10.199   1.096  5.5248 -1.0588 -0.0787
  219MOL0     O28777   7.331   1.329   4.527 -0.6287 -0.1286 -0.3311
  219MOL0     C28778   7.324   1.226   4.462 -0.0919  0.0490  0.7809
  219MOL0     O28779   7.351   1.214   4.323  0.2631  0.4726  0.0440
  219MOL0     C28780   7.386   1.330   4.252  0.4075 -0.4176 -0.6265
  219MOL0     C28781   7.309   1.363   4.144 -0.0337 -0.0183  0.0661
  219MOL0     C28782   7.334   1.482   4.073 -0.7006  0.8802 -0.1659
  219MOL0     C28783   7.456   1.558   4.097  0.5703 -1.3334 -0.5196
  219MOL0     O28784   7.496   1.663   4.016 -0.5755 -0.5778  0.3780
  219MOL0     C28785   7.621   1.722   4.047  0.6718 -0.2450  0.5654
  219MOL0     C28786   7.620   1.862   3.980 -0.5804  0.0510  0.2214
  219MOL0     C28787   7.613   1.864   3.832  0.1562  0.9761  0.9185
  219MOL0     C28788   7.716   1.788   3.750  1.2243 -1.2152 -0.2086
  219MOL0     C28789   7.664   1.762   3.602 -0.0552  0.3493 -0.7278
  219MOL0     C28790   7.657   1.895   3.523 -0.9098  0.2754 -0.0163
  219MOL0     C28791   7.631   1.854   3.374  0.5263  0.4019 -0.4528
  219MOL0     C28792   7.639   1.961   3.263 -1.0171  0.9611 -0.3837
  219MOL0     N28793   7.772   1.968   3.211 -0.6363  0.4400 -0.8461
  219MOL0     C28794   7.863   2.057   3.272  0.9338 -0.7113  0.2686
  219MOL0     C28795   7.950   2.075   3.168 -0.3540  0.5551  0.1233
  219MOL0     C28796   8.056   2.189   3.169 -0.0560  0.9953  0.1600
  219MOL0     C28797   8.192   2.147   3.221  0.0585  0.1450  0.5898
  219MOL0     C28798   8.253   2.030   3.138 -0.9032 -0.0744  0.0381
  219MOL0     C28799   8.398   1.974   3.183  1.5237  0.9043 -0.2956
  219MOL0     O28800   8.491   2.078   3.199  0.4822  0.0991 -0.4704
  219MOL0     C28801   8.603   2.051   3.271  0.3801 -1.2969 -0.2509
  219MOL0     C28802   8.692   2.165   3.272  0.4461  0.0568 -0.1518
  219MOL0     C28803   8.814   2.161   3.328 -0.2610 -0.3314  0.2925
  219MOL0     C28804   8.848   2.047   3.398 -0.4149 -0.4584 -0.3414
  219MOL0     C28805   8.980   2.045   3.472  0.0465  0.2092 -0.0760
  219MOL0     O28806   8.999   2.148   3.561  0.5816 -0.1203  0.2559
  219MOL0     C28807   9.121   2.153   3.622  0.2872 -0.5988 -0.0862
  219MOL0     C28808   9.139   2.083   3.736 -0.1151  0.6078  0.4345
  219MOL0     C28809   9.265   2.078   3.799  0.2855 -0.6911 -0.6041
  219MOL0     C28810   9.370   2.151   3.747 -0.4469 -0.1000 -0.4142
  219MOL0     O28811   9.483   2.154   3.829 -0.5676  0.2898  0.0153
  219MOL0     C28812   9.558   2.284   3.836 -0.7604  0.1840  0.2641
  219MOL0     C28813   9.496   2.394   3.924  0.2305  0.3315  0.7751
  219MOL0     C28814   9.528   2.539   3.879 -1.3999  0.0447 -0.1616
  219MOL0     C28815   9.474   2.637   3.989 -0.0946 -0.7581  0.6814
  219MOL0     C28816   9.503   2.775   3.942  0.0412 -0.6935  0.2871
  219MOL0     C28817   9.433   2.890   4.004  0.4971  0.1342  0.0548
  219MOL0     C28818   9.492   3.019   3.958  0.4901  0.2285  0.0510
  219MOL0     C28819   9.394   3.133   3.977 -0.9655 -0.0770  0.1878
  219MOL0    Cl28820   9.270   3.131   3.862 -0.1931 -0.1992 -0.0862
  219MOL0     C28821   9.352   2.222   3.634  0.0273 -0.3096  1.0154
  219MOL0     C28822   9.227   2.224   3.570  0.0366 -1.4537  0.4045
  219MOL0     O28823   9.044   1.947   3.452 -0.1097  0.0041  0.5224
  219MOL0     C28824   8.756   1.933   3.408  0.2204 -0.4639  0.1739
  219MOL0     C28825   8.640   1.943   3.339 -0.1416 -0.3192  0.2128
  219MOL0     N28826   7.915   1.995   3.056  0.4229 -1.0499 -0.1528
  219MOL0     N28827   7.805   1.938   3.079  0.3780  0.1578 -0.1809
  219MOL0     C28828   7.522   1.517   4.214  0.2602  0.0886 -0.9181
  219MOL0     C28829   7.492   1.407   4.284 -0.1115  0.4415  0.1590
  219MOL0     C28830   7.283   1.104   4.536  0.2441 -1.1320 -0.3608
  219MOL0     C28831   7.281   1.118   4.673  0.1135  0.8002  0.5695
  219MOL0     C28832   7.246   1.008   4.754  0.7080  0.8258  0.1957
  219MOL0     C28833   7.232   0.879   4.702  0.7057 -0.4364  0.0317
  219MOL0     O28834   7.179   0.786   4.783 -0.2536 -0.2773 -0.6610
  219MOL0     C28835   7.139   0.653   4.730  0.5816  0.8804 -0.1391
  219MOL0     C28836   7.099   0.547   4.839 -1.0019  0.8642 -0.4896
  219MOL0     C28837   7.222   0.479   4.909  0.0857  0.3050 -0.6140
  219MOL0     C28838   7.190   0.441   5.057 -0.6842 -0.0399 -0.0729
  219MOL0     C28839   7.306   0.373   5.115 -0.3554  0.5667 -0.9250
  219MOL0     C28840   7.401   0.318   5.165  0.0018  0.4320  0.4324
  219MOL0     C28841   7.237   0.864   4.560 -0.5299 -0.1232  0.8113
  219MOL0     C28842   7.262   0.975   4.483  0.0080  0.0951  0.1223
  219MOL0     H28843   7.227   1.302   4.106  1.5202 -1.7427 -0.6889
  219MOL0     H28844   7.266   1.508   3.993  0.2825  1.4852 -0.8257
  219MOL0     H28845   7.691   1.654   3.998 -0.2523 -0.7542 -0.0902
  219MOL0     H28846   7.641   1.746   4.151  2.7419  5.2044 -0.7548
  219MOL0     H28847   7.722   1.895   4.001  1.8615 -6.2468  0.1226
  219MOL0     H28848   7.561   1.942   4.026  0.8605  0.9179  0.6237
  219MOL0     H28849   7.626   1.966   3.796 -0.7082  0.4330 -1.1198
  219MOL0     H28850   7.512   1.829   3.808  0.9549 -1.4285  0.7340
  219MOL0     H28851   7.796   1.860   3.734  0.9882 -1.1091 -0.9574
  219MOL0     H28852   7.757   1.700   3.801  1.0697  0.1782  2.4883
  219MOL0     H28853   7.564   1.721   3.587 -0.6744  1.4136  0.3198
  219MOL0     H28854   7.748   1.704   3.560  0.0151  0.7018 -1.0761
  219MOL0     H28855   7.761   1.931   3.517  0.6706 -3.7163  0.0695
  219MOL0     H28856   7.588   1.968   3.565 -1.2306  2.4340 -3.8097
  219MOL0     H28857   7.700   1.772   3.351 -0.5117 -0.1877 -1.5789
  219MOL0     H28858   7.536   1.800   3.364  0.5085  0.4433 -0.5064
  219MOL0     H28859   7.598   2.056   3.299 -0.0860  2.1494 -2.3230
  219MOL0     H28860   7.587   1.930   3.172  0.5955 -0.6847 -0.8023
  219MOL0     H28861   7.852   2.108   3.367  1.9845  0.0919 -0.0310
  219MOL0     H28862   8.017   2.272   3.229 -2.8055 -0.0380 -0.0470
  219MOL0     H28863   8.058   2.212   3.062  1.7553 -2.5080 -0.7094
  219MOL0     H28864   8.161   2.119   3.322 -1.0499  0.1574  0.2679
  219MOL0     H28865   8.258   2.233   3.235 -1.6225  1.2281  2.3767
  219MOL0     H28866   8.187   1.943   3.135 -0.0843 -0.7036 -0.5114
  219MOL0     H28867   8.264   2.067   3.035 -4.8495 -1.4480 -1.0504
  219MOL0     H28868   8.435   1.888   3.126  2.6226  1.8226 -0.9915
  219MOL0     H28869   8.377   1.942   3.286 -1.9509  0.6086 -0.9540
  219MOL0     H28870   8.651   2.252   3.222  0.4412 -0.2237 -0.6374
  219MOL0     H28871   8.872   2.253   3.323  1.2021 -1.2220  0.4280
  219MOL0     H28872   9.052   2.028   3.770 -1.9242  0.8209 -3.3524
  219MOL0     H28873   9.261   2.013   3.886 -3.3440  2.0491  1.6081
  219MOL0     H28874   9.571   2.331   3.738 -0.7894  0.6094  0.4634
  219MOL0     H28875   9.656   2.273   3.883 -1.2447  0.3645  1.3389
  219MOL0     H28876   9.523   2.369   4.026  1.9046 -1.6437 -0.0853
  219MOL0     H28877   9.387   2.389   3.929  0.2110  0.9596  1.0782
  219MOL0     H28878   9.484   2.562   3.781 -2.9372 -1.0431  0.2262
  219MOL0     H28879   9.634   2.564   3.880 -1.2137 -0.7232  0.1970
  219MOL0     H28880   9.365   2.627   3.997 -0.5434  2.2572 -0.3928
  219MOL0     H28881   9.527   2.625   4.084 -0.2928  1.9575  1.2043
  219MOL0     H28882   9.477   2.778   3.835  0.4122 -0.8106  0.1943
  219MOL0     H28883   9.610   2.790   3.951  0.1704  2.1254 -3.3277
  219MOL0     H28884   9.434   2.885   4.113  1.6075 -3.1396 -0.0114
  219MOL0     H28885   9.330   2.877   3.969  0.6894  1.1438 -0.9565
  219MOL0     H28886   9.588   3.044   4.003 -0.1695  2.0351  0.5396
  219MOL0     H28887   9.494   3.024   3.849  1.5385  2.7794  0.1154
  219MOL0     H28888   9.442   3.230   3.966 -3.0358  0.7979 -1.8936
  219MOL0     H28889   9.354   3.139   4.078  0.7546  0.8225  0.8440
  219MOL0     H28890   9.428   2.282   3.584 -0.4532  1.8627  2.7395
  219MOL0     H28891   9.211   2.283   3.481  2.0536 -2.7866 -0.9238
  219MOL0     H28892   8.792   1.843   3.457  0.8666 -1.5445 -2.1116
  219MOL0     H28893   8.585   1.851   3.323 -0.1402 -0.0323 -1.6644
  219MOL0     H28894   7.600   1.581   4.253  1.7414 -0.0565 -3.4485
  219MOL0     H28895   7.562   1.386   4.365  0.0487 -4.0568 -0.8978
  219MOL0     H28896   7.286   1.212   4.728 -0.7333  1.9668 -1.2603
  219MOL0     H28897   7.215   1.016   4.858  1.3109  2.9872  0.2577
  219MOL0     H28898   7.217   0.611   4.666  1.7297  2.7871 -0.0524
  219MOL0     H28899   7.049   0.664   4.668  0.9623  0.8342 -0.7072
  219MOL0     H28900   7.033   0.592   4.913 -0.8037  0.6793 -0.1984
  219MOL0     H28901   7.037   0.472   4.790 -1.9965  1.1391  0.3089
  219MOL0     H28902   7.297   0.557   4.921 -0.6080  1.1996 -1.8854
  219MOL0     H28903   7.252   0.392   4.850  0.9435 -0.2500  0.5941
  219MOL0     H28904   7.196   0.538   5.108  0.2309 -0.1474  0.0377
  219MOL0     H28905   7.090   0.399   5.071 -1.1347  1.6728  2.5616
  219MOL0     H28906   7.488   0.274   5.208  1.6598  2.8746 -0.1883
  219MOL0     H28907   7.227   0.765   4.516  2.2874  0.4803 -1.4612
  219MOL0     H28908   7.273   0.969   4.375  2.5755 -2.0177  0.4067
  220MOL0     O28909   2.681   9.520   4.138 -0.3179  0.2375 -0.0140
  220MOL0     C28910   2.738   9.411   4.155 -1.1788 -0.3603  0.1049
  220MOL0     O28911   2.692   9.292   4.110  0.6048 -0.5398 -0.2050
  220MOL0     C28912   2.563   9.297   4.063  0.1992  0.1924 -0.3900
  220MOL0     C28913   2.536   9.297   3.924  0.3233  0.1580  0.2866
  220MOL0     C28914   2.403   9.280   3.873  0.4109 -0.5489  0.1291
  220MOL0     C28915   2.294   9.267   3.956  0.3371  0.0523  0.0256
  220MOL0     O28916   2.169   9.240   3.904 -0.8074 -0.4277 -0.7752
  220MOL0     C28917   2.080   9.346   3.884  0.0787  0.5627 -0.6693
  220MOL0     C28918   2.000   9.372   4.012 -0.4684 -0.8267  0.7252
  220MOL0     C28919   1.913   9.252   4.062 -0.6741  0.3865  0.2087
  220MOL0     C28920   1.823   9.306   4.180 -0.6553 -0.0804  0.1336
  220MOL0     C28921   1.724   9.198   4.238  0.1341 -0.7657 -0.5444
  220MOL0     C28922   1.780   9.071   4.303  0.2296 -1.6622 -0.3380
  220MOL0     C28923   1.678   8.987   4.393  0.5926  0.4647 -0.1028
  220MOL0     C28924   1.759   8.866   4.450  0.4811  0.1908 -0.7476
  220MOL0     N28925   1.670   8.774   4.529  0.4534 -0.1692  0.5208
  220MOL0     C28926   1.592   8.803   4.640 -1.1845 -0.0989  1.3364
  220MOL0     C28927   1.530   8.688   4.669 -0.1022 -0.4286  0.4671
  220MOL0     C28928   1.449   8.664   4.796  0.7594  0.4055  0.3531
  220MOL0     C28929   1.370   8.536   4.780  0.7950 -0.9626  0.7612
  220MOL0     C28930   1.238   8.546   4.699  0.4401 -0.4593 -0.3664
  220MOL0     C28931   1.168   8.415   4.698 -0.0805 -0.5221  0.7867
  220MOL0     O28932   1.056   8.419   4.606 -0.6483  0.1532  0.7169
  220MOL0     C28933   0.921   8.443   4.653 -0.6338 -0.2845 -0.4282
  220MOL0     C28934   0.873   8.404   4.785 -0.2513 -0.5992 -0.7298
  220MOL0     C28935   0.751   8.438   4.834 -0.0822  0.0539  0.1941
  220MOL0     C28936   0.658   8.503   4.741 -0.3479  0.9840 -0.4732
  220MOL0     C28937   0.520   8.549   4.783 -0.4632  0.2143 -0.4737
  220MOL0     O28938   0.436   8.615   4.693  0.8311 -0.2759  1.1361
  220MOL0     C28939   0.317   8.655   4.747 -1.2407 -0.5914 -0.2792
  220MOL0     C28940   0.275   8.786   4.725  1.2047  0.4306  0.0720
  220MOL0     C28941   0.160   8.836   4.792  0.9357  0.3958 -0.3806
  220MOL0     C28942   0.079   8.753   4.863 -0.4364 -0.2782 -0.5245
  220MOL0     O28943  -0.035   8.788   4.928  0.6063  1.0731  0.1298
  220MOL0     C28944  -0.099   8.913   4.921 -0.0546 -0.7735  0.4751
  220MOL0     C28945  -0.016   9.023   4.989  0.0298 -0.1487 -0.1332
  220MOL0     C28946  -0.071   9.119   5.094 -0.0233  0.7490 -0.0675
  220MOL0     C28947  -0.161   9.228   5.025  0.3839 -0.2333 -0.2223
  220MOL0     C28948  -0.207   9.342   5.122  0.8595 -0.3873 -0.0284
  220MOL0     C28949  -0.253   9.469   5.043  0.8275  0.4341  0.3539
  220MOL0     C28950  -0.298   9.569   5.146 -0.0202  0.6207  0.7512
  220MOL0     C28951  -0.318   9.696   5.065 -0.3568  0.1930 -0.3830
  220MOL0    Cl28952  -0.163   9.785   5.063  0.0589  0.6044  0.3856
  220MOL0     C28953   0.120   8.623   4.875 -0.3035  0.8778 -0.0674
  220MOL0     C28954   0.238   8.574   4.825 -0.5044  0.1192  0.4900
  220MOL0     O28955   0.496   8.513   4.898  0.6915  1.2901  0.0467
  220MOL0     C28956   0.700   8.534   4.615  0.1736  0.4317  0.0022
  220MOL0     C28957   0.835   8.508   4.572 -0.3785  0.1087  1.1118
  220MOL0     N28958   1.574   8.588   4.582 -0.1406  0.0295 -0.6801
  220MOL0     N28959   1.643   8.646   4.487  0.7572 -0.3752  0.1598
  220MOL0     C28960   2.323   9.267   4.088  0.0913  0.1097  0.0370
  220MOL0     C28961   2.453   9.292   4.143 -0.2854  0.5988 -0.1399
  220MOL0     C28962   2.876   9.407   4.227  0.7500  0.5490  1.5644
  220MOL0     C28963   2.943   9.283   4.235 -0.6943  0.6474  0.6409
  220MOL0     C28964   3.058   9.268   4.308  1.3623  0.4965  0.6222
  220MOL0     C28965   3.111   9.376   4.377 -0.7182 -0.5603  0.2357
  220MOL0     O28966   3.234   9.373   4.443  0.4317 -0.4238 -0.7320
  220MOL0     C28967   3.344   9.345   4.358 -0.6245  0.2602 -1.4054
  220MOL0     C28968   3.425   9.226   4.412 -0.1559  0.3762  0.5141
  220MOL0     C28969   3.490   9.261   4.542 -0.2466  0.1480 -0.9012
  220MOL0     C28970   3.551   9.131   4.594 -0.4902  1.1151  0.4345
  220MOL0     C28971   3.685   9.140   4.649 -1.1501  0.3892 -1.3171
  220MOL0     C28972   3.796   9.160   4.693 -0.2605 -0.3660 -0.2486
  220MOL0     C28973   3.044   9.507   4.369  0.0461 -0.0874  0.3876
  220MOL0     C28974   2.923   9.515   4.311  0.1436  1.1168  0.7101
  220MOL0     H28975   2.611   9.316   3.848 -0.7991 -1.9965 -1.4492
  220MOL0     H28976   2.368   9.285   3.770 -1.1048 -1.1364  0.5880
  220MOL0     H28977   2.013   9.326   3.799  2.9516  0.8165 -3.1976
  220MOL0     H28978   2.126   9.433   3.837 -1.4467  0.7792 -1.8470
  220MOL0     H28979   1.927   9.454   4.004  0.0247 -0.4248  0.2784
  220MOL0     H28980   2.066   9.408   4.091  0.0321  0.2962 -0.1745
  220MOL0     H28981   1.968   9.160   4.087 -0.4940 -0.5066 -3.0080
  220MOL0     H28982   1.864   9.218   3.970 -1.3160 -0.7398  0.9500
  220MOL0     H28983   1.870   9.360   4.263  0.0159  0.3114 -0.4866
  220MOL0     H28984   1.761   9.386   4.140 -2.0100 -0.3138  1.6814
  220MOL0     H28985   1.651   9.185   4.157 -1.6234  0.4469  0.7563
  220MOL0     H28986   1.675   9.249   4.322  2.6372  4.6046 -1.9546
  220MOL0     H28987   1.851   9.110   4.376 -0.4796  1.2446 -1.0649
  220MOL0     H28988   1.821   9.008   4.224  1.5734  0.6526 -1.5629
  220MOL0     H28989   1.620   9.032   4.474 -2.1384 -0.8238 -1.1747
  220MOL0     H28990   1.616   8.950   4.310  1.4370  4.6029 -2.8946
  220MOL0     H28991   1.837   8.910   4.513  1.6826  0.7358 -2.5373
  220MOL0     H28992   1.797   8.803   4.369 -0.4391 -0.6265 -0.5632
  220MOL0     H28993   1.590   8.893   4.699 -4.7383  1.4887 -0.8790
  220MOL0     H28994   1.386   8.751   4.819 -0.6520  0.0809 -1.9543
  220MOL0     H28995   1.522   8.652   4.876  1.5006 -0.1927 -0.3950
  220MOL0     H28996   1.342   8.507   4.881 -5.3658  0.2409 -0.2013
  220MOL0     H28997   1.423   8.450   4.737 -1.0895 -0.4776 -2.9415
  220MOL0     H28998   1.166   8.624   4.726 -1.7099 -2.4195 -0.2021
  220MOL0     H28999   1.253   8.567   4.593  0.5214  1.3855 -0.0247
  220MOL0     H29000   1.144   8.389   4.801  1.9280 -1.6752  1.0023
  220MOL0     H29001   1.232   8.336   4.659  1.3530  2.7293 -4.5552
  220MOL0     H29002   0.936   8.352   4.857  1.4610  3.4099  0.9465
  220MOL0     H29003   0.724   8.416   4.937  4.4212  2.1567  2.0931
  220MOL0     H29004   0.338   8.855   4.669  1.5405  3.5226  3.7819
  220MOL0     H29005   0.114   8.934   4.784 -0.3714  0.4167  4.3093
  220MOL0     H29006  -0.189   8.897   4.982 -1.6090 -4.2115 -2.3585
  220MOL0     H29007  -0.123   8.928   4.815  2.0821 -0.3975  0.0070
  220MOL0     H29008   0.030   9.086   4.912  0.7661  0.1422  0.5388
  220MOL0     H29009   0.072   8.972   5.029 -1.1710 -5.8301 -3.5654
  220MOL0     H29010   0.014   9.168   5.143 -1.6300  1.6452  1.9479
  220MOL0     H29011  -0.124   9.058   5.168 -1.8739  2.2556 -0.0900
  220MOL0     H29012  -0.101   9.284   4.953  1.0265 -1.1043 -0.3717
  220MOL0     H29013  -0.248   9.173   4.987 -1.2669 -1.0609  4.0424
  220MOL0     H29014  -0.112   9.380   5.162 -0.1623  1.6026  0.6570
  220MOL0     H29015  -0.268   9.322   5.211  2.8112 -2.1796  1.0104
  220MOL0     H29016  -0.333   9.426   4.981  3.1484 -2.5202 -0.8043
  220MOL0     H29017  -0.172   9.493   4.974  0.9135  0.6551  0.5287
  220MOL0     H29018  -0.389   9.525   5.187 -2.1156 -0.5051 -4.3232
  220MOL0     H29019  -0.233   9.597   5.230  0.4164  2.0069 -0.0147
  220MOL0     H29020  -0.386   9.755   5.127  0.9167  2.2511 -0.8461
  220MOL0     H29021  -0.335   9.688   4.957  1.4034 -0.1010 -0.6652
  220MOL0     H29022   0.056   8.550   4.923  1.1897  1.3790  2.9621
  220MOL0     H29023   0.259   8.467   4.826 -1.4123 -0.1419 -1.9628
  220MOL0     H29024   0.636   8.582   4.541 -0.5355 -1.5193 -0.7289
  220MOL0     H29025   0.860   8.549   4.474  1.6394 -0.0976  1.4840
  220MOL0     H29026   2.239   9.248   4.154 -0.6102 -0.1072 -0.8996
  220MOL0     H29027   2.473   9.289   4.250  0.0389  0.2803 -0.2090
  220MOL0     H29028   2.922   9.186   4.191  2.7874  0.2343 -0.3805
  220MOL0     H29029   3.115   9.176   4.300 -0.1777 -0.3579 -1.7871
  220MOL0     H29030   3.407   9.434   4.357  0.5800 -0.5579 -2.6735
  220MOL0     H29031   3.318   9.314   4.256  1.5076 -1.9681 -1.3616
  220MOL0     H29032   3.355   9.143   4.428 -1.6792  1.1294 -1.7396
  220MOL0     H29033   3.493   9.199   4.330 -0.9039  1.1404 -0.3724
  220MOL0     H29034   3.437   9.318   4.619 -0.2076  1.7857 -2.0298
  220MOL0     H29035   3.570   9.330   4.511 -1.6990  1.5349 -1.7445
  220MOL0     H29036   3.481   9.080   4.661 -1.1837  0.2053 -0.9162
  220MOL0     H29037   3.553   9.054   4.516  1.1735  3.7375 -2.3500
  220MOL0     H29038   3.898   9.189   4.700  0.2523 -2.3697  1.4869
  220MOL0     H29039   3.074   9.600   4.418  0.0070  0.3375 -0.3725
  220MOL0     H29040   2.866   9.607   4.316  4.7606  4.3173  1.4252
  221MOL0     O29041   2.549   9.594   6.541  0.2281  0.8096  0.5029
  221MOL0     C29042   2.539   9.482   6.500  0.7108  0.6705 -0.2963
  221MOL0     O29043   2.545   9.366   6.574  1.1997  0.2282  0.0207
  221MOL0     C29044   2.567   9.354   6.707  0.6487  0.5460  0.1164
  221MOL0     C29045   2.548   9.449   6.805 -1.1230 -0.3403  1.1897
  221MOL0     C29046   2.571   9.408   6.934 -0.1919 -0.2450 -0.2173
  221MOL0     C29047   2.593   9.277   6.974 -0.2022 -0.0582  0.5053
  221MOL0     O29048   2.596   9.244   7.107 -0.0816  0.8851  0.2313
  221MOL0     C29049   2.656   9.124   7.149  0.1036 -0.6824 -0.5343
  221MOL0     C29050   2.671   9.134   7.299  0.0650  0.2759  0.4072
  221MOL0     C29051   2.710   8.999   7.362  0.5711  0.5121  0.2887
  221MOL0     C29052   2.764   9.022   7.499  0.3456  0.6024 -0.5432
  221MOL0     C29053   2.671   9.093   7.606 -0.5147 -0.1002  0.3848
  221MOL0     C29054   2.753   9.117   7.732 -0.6559  0.4809  0.3267
  221MOL0     C29055   2.693   9.217   7.827  0.8106  0.0850  0.4962
  221MOL0     C29056   2.798   9.294   7.914  0.2965 -0.4015  0.0098
  221MOL0     N29057   2.848   9.212   8.029  0.6346  0.1318 -0.2918
  221MOL0     C29058   2.888   9.260   8.146  0.0420 -0.4782  0.0938
  221MOL0     C29059   2.932   9.150   8.217 -0.1606  0.4478  0.1278
  221MOL0     C29060   2.984   9.136   8.350  0.0391 -0.8118 -0.3370
  221MOL0     C29061   3.135   9.175   8.337  0.7070  0.0402  0.6936
  221MOL0     C29062   3.218   9.146   8.458 -0.3225  0.0218 -0.6827
  221MOL0     C29063   3.364   9.174   8.438  0.4711  0.3301  1.0159
  221MOL0     O29064   3.403   9.304   8.493  0.1572  0.7631  0.7990
  221MOL0     C29065   3.523   9.299   8.551 -0.2647  0.0341 -0.6392
  221MOL0     C29066   3.637   9.295   8.482 -0.2195  0.3541  0.7751
  221MOL0     C29067   3.760   9.258   8.537 -0.1598  0.0280  0.1303
  221MOL0     C29068   3.775   9.243   8.678  0.3424  0.5906  0.5147
  221MOL0     C29069   3.901   9.208   8.747  0.2370  0.7118  0.1892
  221MOL0     O29070   3.905   9.176   8.882  0.8727 -0.1335  0.1870
  221MOL0     C29071   4.027   9.159   8.941 -0.1486 -0.9193  0.9153
  221MOL0     C29072   4.081   9.280   9.007 -1.2520  1.5767 -0.1165
  221MOL0     C29073   4.208   9.265   9.081  1.0459  0.1041 -0.8488
  221MOL0     C29074   4.263   9.139   9.079  0.7601  0.5627  0.5105
  221MOL0     O29075   4.381   9.136   9.142  0.2912  0.1890 -0.2389
  221MOL0     C29076   4.389   9.039   9.250 -0.8967  0.3690  0.2190
  221MOL0     C29077   4.530   9.005   9.298  1.3253 -0.5792 -0.3499
  221MOL0     C29078   4.620   8.942   9.188  0.6768  0.2804  0.2820
  221MOL0     C29079   4.711   8.833   9.259  1.0937  0.6857  1.1147
  221MOL0     C29080   4.800   8.750   9.156  0.4342 -0.2980 -0.1230
  221MOL0     C29081   4.875   8.818   9.040  0.7272  0.3827  0.7473
  221MOL0     C29082   4.977   8.716   8.993 -0.4472 -0.9566  0.2653
  221MOL0     C29083   5.109   8.751   9.051 -0.0337  0.6319  0.0532
  221MOL0    Cl29084   5.135   8.692   9.214  0.1086 -0.3755  0.1119
  221MOL0     C29085   4.203   9.024   9.026  0.3662 -0.5692 -1.2948
  221MOL0     C29086   4.082   9.034   8.964 -0.8561 -0.1262 -0.5024
  221MOL0     O29087   4.005   9.211   8.680  0.5931 -0.5967  0.1749
  221MOL0     C29088   3.658   9.248   8.750 -0.7145 -0.2617 -0.4121
  221MOL0     C29089   3.534   9.263   8.684  0.1420  0.1371  0.1033
  221MOL0     N29090   2.926   9.039   8.128 -0.4915  0.3112  0.5539
  221MOL0     N29091   2.863   9.080   8.017  0.7034 -0.0155 -0.2188
  221MOL0     C29092   2.618   9.179   6.870 -0.1338 -0.2194  0.5882
  221MOL0     C29093   2.600   9.219   6.738  0.0784 -0.5731 -0.2772
  221MOL0     C29094   2.510   9.455   6.353  0.8333 -0.5729  0.0439
  221MOL0     C29095   2.542   9.546   6.253 -0.1204 -0.4114 -0.4840
  221MOL0     C29096   2.518   9.535   6.122  0.0629  0.3812  0.7140
  221MOL0     C29097   2.468   9.408   6.077  0.1857 -0.3148  1.0095
  221MOL0     O29098   2.461   9.358   5.954  0.3304  0.1166 -0.7292
  221MOL0     C29099   2.488   9.442   5.840 -0.0365  0.6227 -0.7335
  221MOL0     C29100   2.640   9.424   5.812 -0.2774  0.0533  0.3609
  221MOL0     C29101   2.680   9.507   5.694 -0.7104 -0.7883 -0.2460
  221MOL0     C29102   2.827   9.482   5.656 -0.0199 -0.1101 -0.0940
  221MOL0     C29103   2.852   9.343   5.610 -0.8836 -0.2013  0.2651
  221MOL0     C29104   2.861   9.231   5.581  0.2849  0.1464 -0.1594
  221MOL0     C29105   2.417   9.324   6.174 -0.2506 -0.4856 -0.2391
  221MOL0     C29106   2.441   9.339   6.310 -0.8523  0.5379  0.3439
  221MOL0     H29107   2.513   9.550   6.787 -1.6212 -0.5420  1.0164
  221MOL0     H29108   2.565   9.479   7.016 -3.6228 -0.1096 -0.4553
  221MOL0     H29109   2.759   9.113   7.115  2.2269  0.9902  4.4446
  221MOL0     H29110   2.588   9.041   7.127  3.1047 -3.4102 -0.2626
  221MOL0     H29111   2.575   9.167   7.339 -0.0261  0.7978 -0.2160
  221MOL0     H29112   2.757   9.200   7.312  0.3755  0.4542 -2.0697
  221MOL0     H29113   2.786   8.951   7.300  0.2712  1.7624 -1.0954
  221MOL0     H29114   2.638   8.917   7.360  1.7423 -0.5393 -1.5556
  221MOL0     H29115   2.796   8.925   7.537 -2.3610 -0.8207 -1.5760
  221MOL0     H29116   2.855   9.081   7.492  1.0432 -0.0557  1.9727
  221MOL0     H29117   2.581   9.034   7.625 -0.2134 -0.6315  0.1921
  221MOL0     H29118   2.652   9.189   7.556 -0.3341 -0.2822 -0.0369
  221MOL0     H29119   2.854   9.147   7.699 -0.1563  0.1743  1.5517
  221MOL0     H29120   2.768   9.021   7.780 -0.6223  0.4726  0.2985
  221MOL0     H29121   2.643   9.288   7.760  1.0494 -1.5067 -1.4711
  221MOL0     H29122   2.609   9.177   7.885 -0.6826  2.3115 -0.0197
  221MOL0     H29123   2.746   9.385   7.947 -0.6918 -1.0680  0.3426
  221MOL0     H29124   2.872   9.319   7.838 -0.1072 -0.2159 -0.3289
  221MOL0     H29125   2.875   9.364   8.175 -1.5185  0.1051 -2.3898
  221MOL0     H29126   2.964   9.034   8.385 -0.8007 -0.2750  0.7956
  221MOL0     H29127   2.939   9.210   8.417  1.6884 -1.0110  1.0705
  221MOL0     H29128   3.151   9.279   8.306  1.9459 -0.0042  1.1211
  221MOL0     H29129   3.169   9.104   8.262 -0.3750  0.9291 -0.6989
  221MOL0     H29130   3.186   9.214   8.537  1.5668 -1.6943  1.6825
  221MOL0     H29131   3.209   9.040   8.486  2.0551  0.2967  1.3675
  221MOL0     H29132   3.402   9.160   8.336  0.6021  2.2870  0.7670
  221MOL0     H29133   3.430   9.100   8.485  0.6060  0.0914  0.4690
  221MOL0     H29134   3.632   9.316   8.376 -1.5268  2.3969  1.1866
  221MOL0     H29135   3.844   9.267   8.470  0.4312  0.6264  0.9292
  221MOL0     H29136   4.031   9.376   9.001 -0.8544  2.0805  2.9116
  221MOL0     H29137   4.257   9.352   9.124  2.3323 -0.3247 -1.4068
  221MOL0     H29138   4.362   8.940   9.213 -0.3973  0.0695  0.6349
  221MOL0     H29139   4.314   9.065   9.326 -4.1797 -4.2621 -1.0287
  221MOL0     H29140   4.537   8.945   9.389  2.1916 -0.4876 -0.3474
  221MOL0     H29141   4.562   9.107   9.324  1.4728 -0.0537 -2.3806
  221MOL0     H29142   4.689   9.012   9.140  2.8039 -1.8648  0.0293
  221MOL0     H29143   4.560   8.895   9.109 -3.4401 -1.9065  4.2572
  221MOL0     H29144   4.783   8.875   9.329  0.5004  0.6443  1.7616
  221MOL0     H29145   4.644   8.768   9.317 -1.2335 -1.1348 -3.1005
  221MOL0     H29146   4.730   8.682   9.107 -1.1709  0.3156  1.2423
  221MOL0     H29147   4.870   8.687   9.213  1.8001  1.7063  0.5125
  221MOL0     H29148   4.919   8.909   9.082 -2.1046  1.0184  2.6041
  221MOL0     H29149   4.821   8.856   8.954 -1.3472  1.2126  2.3322
  221MOL0     H29150   4.963   8.610   9.017 -2.6646 -0.5433  0.9983
  221MOL0     H29151   4.991   8.724   8.885  2.0444  1.7202  0.6425
  221MOL0     H29152   5.131   8.858   9.055  3.8783  0.0636 -1.5611
  221MOL0     H29153   5.196   8.710   8.998 -0.1582  0.0954  0.2608
  221MOL0     H29154   4.254   8.928   9.033  2.5308  0.5839 -0.4234
  221MOL0     H29155   4.026   8.945   8.938 -0.2014 -1.2911  1.7914
  221MOL0     H29156   3.649   9.243   8.858 -0.2624  1.9400 -0.2259
  221MOL0     H29157   3.449   9.247   8.750 -2.1100 -0.6337 -2.7409
  221MOL0     H29158   2.631   9.074   6.894 -4.5579 -1.2122 -0.3950
  221MOL0     H29159   2.605   9.155   6.651  0.7271  2.6092 -2.7276
  221MOL0     H29160   2.581   9.639   6.293 -0.7970  0.2831 -1.4018
  221MOL0     H29161   2.544   9.614   6.052  0.7877 -0.8714 -0.4922
  221MOL0     H29162   2.464   9.546   5.865 -1.0314  0.4559 -0.9616
  221MOL0     H29163   2.417   9.420   5.761 -0.4951  0.7704 -0.3656
  221MOL0     H29164   2.696   9.458   5.899 -1.6912 -0.4585  1.4987
  221MOL0     H29165   2.666   9.318   5.809 -2.0743 -0.5226  2.5298
  221MOL0     H29166   2.683   9.615   5.713  1.6788 -1.1084  1.5795
  221MOL0     H29167   2.611   9.493   5.610  2.1146 -0.4976 -2.7899
  221MOL0     H29168   2.842   9.548   5.570 -2.1777 -1.0288 -1.2667
  221MOL0     H29169   2.901   9.505   5.733  1.7361 -0.0051 -1.7337
  221MOL0     H29170   2.847   9.128   5.555 -4.1377  1.0264 -2.2392
  221MOL0     H29171   2.374   9.227   6.150 -1.7622  1.0555 -4.8081
  221MOL0     H29172   2.419   9.258   6.378 -1.0786 -0.0886 -0.4678
  222MOL0     O29173   7.482   6.297   8.140  0.3239 -0.1441  0.1812
  222MOL0     C29174   7.492   6.194   8.074 -1.5858  0.6031  0.1868
  222MOL0     O29175   7.571   6.177   7.959 -0.1019  0.1761  0.2151
  222MOL0     C29176   7.659   6.286   7.921 -0.2619  0.6762 -0.4738
  222MOL0     C29177   7.706   6.400   7.994 -0.3712  0.5866  0.2294
  222MOL0     C29178   7.793   6.490   7.921 -0.0164 -0.0034 -0.3581
  222MOL0     C29179   7.836   6.475   7.798 -0.5197  0.9173 -0.5685
  222MOL0     O29180   7.905   6.577   7.733 -0.2647  0.1779  0.1181
  222MOL0     C29181   7.839   6.704   7.720  0.1217 -0.1565  0.1378
  222MOL0     C29182   7.932   6.821   7.752  0.4156  0.3109  0.6546
  222MOL0     C29183   7.854   6.955   7.751  0.5725  0.5972  0.4359
  222MOL0     C29184   7.956   7.061   7.779 -0.2769 -0.4607 -0.8082
  222MOL0     C29185   7.900   7.198   7.779 -0.0831 -1.2128  0.6783
  222MOL0     C29186   7.871   7.249   7.644  0.3144 -0.8162 -0.1652
  222MOL0     C29187   7.866   7.394   7.630 -0.3659 -0.7596  0.0808
  222MOL0     C29188   7.755   7.453   7.535 -0.2421  0.0335 -0.8565
  222MOL0     N29189   7.774   7.399   7.399 -0.1535 -0.4853 -0.0220
  222MOL0     C29190   7.891   7.374   7.330  0.4813 -0.8002  1.1914
  222MOL0     C29191   7.850   7.296   7.223 -0.8177  0.0254 -0.0387
  222MOL0     C29192   7.944   7.258   7.101 -0.2768  0.0743 -0.6868
  222MOL0     C29193   8.019   7.391   7.056 -0.5049  0.8979  0.0335
  222MOL0     C29194   8.079   7.383   6.913  0.7243  0.5269  0.8501
  222MOL0     C29195   8.135   7.519   6.879 -0.0413  0.1190  0.6073
  222MOL0     O29196   8.026   7.600   6.822  0.9965 -0.0174  0.0287
  222MOL0     C29197   8.032   7.742   6.785  0.5721 -0.0801 -0.1824
  222MOL0     C29198   8.152   7.810   6.754  0.0264 -0.5217 -1.1157
  222MOL0     C29199   8.146   7.947   6.731 -0.0984  0.7961 -0.3150
  222MOL0     C29200   8.031   8.022   6.725 -0.2311  0.7648 -0.3368
  222MOL0     C29201   8.034   8.172   6.690 -0.1247 -0.7805 -0.1567
  222MOL0     O29202   7.915   8.233   6.671  0.1653  0.1366  0.7773
  222MOL0     C29203   7.884   8.363   6.628  0.2938 -0.1839 -0.3938
  222MOL0     C29204   7.984   8.457   6.589  0.4942  0.3745 -0.4051
  222MOL0     C29205   7.946   8.583   6.537  0.4537  0.8638 -1.3939
  222MOL0     C29206   7.819   8.619   6.525  0.4732  0.3685 -1.5088
  222MOL0     O29207   7.800   8.744   6.483 -0.3361 -0.1844 -0.5407
  222MOL0     C29208   7.660   8.789   6.489  0.6015 -0.4096 -0.4077
  222MOL0     C29209   7.642   8.931   6.436 -0.6772 -0.2448 -0.1299
  222MOL0     C29210   7.708   9.041   6.523 -1.0112  0.5554  0.2282
  222MOL0     C29211   7.684   9.187   6.467  0.0141  0.0545  0.5962
  222MOL0     C29212   7.757   9.225   6.339  0.2587  0.6120  0.7429
  222MOL0     C29213   7.914   9.200   6.342  0.7691 -0.2570  1.4059
  222MOL0     C29214   8.001   9.210   6.217  0.5653 -0.8271 -0.6418
  222MOL0     C29215   7.957   9.122   6.103  0.1084  1.1237  0.2702
  222MOL0    Cl29216   7.822   9.190   5.999  0.0392  0.0329 -0.2754
  222MOL0     C29217   7.711   8.531   6.567 -0.9367 -0.5817 -0.4903
  222MOL0     C29218   7.752   8.405   6.617  0.1600 -0.2654  0.0890
  222MOL0     O29219   8.145   8.231   6.686  0.0271  0.4389  0.9348
  222MOL0     C29220   7.906   7.949   6.723 -0.2396  0.3873  0.0591
  222MOL0     C29221   7.912   7.813   6.761  0.7931  0.7663  0.5659
  222MOL0     N29222   7.716   7.277   7.226 -0.7668 -0.1002 -0.0780
  222MOL0     N29223   7.673   7.334   7.336 -0.5040  0.2145  0.4023
  222MOL0     C29224   7.799   6.357   7.734 -0.7809  0.1009  0.6677
  222MOL0     C29225   7.713   6.265   7.792 -0.2157  0.1331 -0.5882
  222MOL0     C29226   7.418   6.069   8.120  0.4235 -0.6293  0.4464
  222MOL0     C29227   7.393   6.053   8.261  0.3178  0.0644 -0.8383
  222MOL0     C29228   7.341   5.939   8.321  0.3290 -0.1312  0.5297
  222MOL0     C29229   7.316   5.827   8.239  1.1190 -0.0742 -0.1549
  222MOL0     O29230   7.254   5.711   8.276  0.6050  0.0961  0.2949
  222MOL0     C29231   7.239   5.679   8.412 -1.0209  0.5604 -0.7906
  222MOL0     C29232   7.368   5.629   8.485  0.4036  0.5342  0.2626
  222MOL0     C29233   7.441   5.516   8.408 -0.5154 -0.3694 -0.2944
  222MOL0     C29234   7.594   5.544   8.389 -0.8367  0.2093  0.1721
  222MOL0     C29235   7.617   5.647   8.281  0.2989 -0.0092  0.4645
  222MOL0     C29236   7.643   5.736   8.205  0.2999 -0.2730  1.0369
  222MOL0     C29237   7.331   5.844   8.099  0.4595  0.0835 -0.5903
  222MOL0     C29238   7.381   5.961   8.038 -0.1578  1.3424  0.2341
  222MOL0     H29239   7.665   6.429   8.090  1.0120  0.6998  0.8080
  222MOL0     H29240   7.823   6.580   7.974 -3.3584  2.1805 -1.8475
  222MOL0     H29241   7.757   6.711   7.793  1.0917  1.6051  1.1263
  222MOL0     H29242   7.814   6.719   7.615  4.1519  3.3630 -0.6175
  222MOL0     H29243   8.004   6.816   7.670 -2.4220 -3.7307 -1.9575
  222MOL0     H29244   7.983   6.816   7.849 -0.2611  3.2358  1.2404
  222MOL0     H29245   7.775   6.944   7.826 -0.2554 -2.1217 -0.7114
  222MOL0     H29246   7.808   6.970   7.652  2.7056  0.5641 -0.6054
  222MOL0     H29247   7.999   7.047   7.879  0.6698  2.3974 -0.7242
  222MOL0     H29248   8.036   7.068   7.705 -1.4026  0.9422 -1.9402
  222MOL0     H29249   7.987   7.247   7.824  0.0635  0.1882 -1.0597
  222MOL0     H29250   7.809   7.202   7.840 -1.8192 -2.6401 -1.6354
  222MOL0     H29251   7.774   7.215   7.605  0.5959  1.6742 -3.4561
  222MOL0     H29252   7.942   7.200   7.576  2.3483  1.1566  0.3974
  222MOL0     H29253   7.858   7.432   7.732 -1.3896 -1.7675  0.3935
  222MOL0     H29254   7.961   7.421   7.583 -0.8192 -3.3998 -2.6359
  222MOL0     H29255   7.744   7.562   7.538 -0.8714 -0.0319  1.7029
  222MOL0     H29256   7.661   7.408   7.569  0.3253  0.8016  1.9897
  222MOL0     H29257   7.990   7.414   7.342 -0.0627  0.9876  0.0726
  222MOL0     H29258   7.876   7.220   7.024  0.8833 -0.7176 -1.3394
  222MOL0     H29259   8.028   7.192   7.120 -0.9227 -0.5068  0.2218
  222MOL0     H29260   8.098   7.401   7.131  0.3758 -1.0773 -0.5635
  222MOL0     H29261   7.957   7.481   7.058 -0.0919  1.1739  0.6732
  222MOL0     H29262   8.155   7.305   6.900 -0.0962  0.2238 -3.8967
  222MOL0     H29263   8.004   7.361   6.837  1.7035 -2.3220  0.5866
  222MOL0     H29264   8.206   7.525   6.795  1.2153 -2.4472  1.3707
  222MOL0     H29265   8.174   7.563   6.971 -1.5416  1.7818  0.5044
  222MOL0     H29266   8.241   7.749   6.751  0.1716 -0.2664 -2.2371
  222MOL0     H29267   8.245   7.989   6.715  1.2350 -1.9501  0.1902
  222MOL0     H29268   8.089   8.444   6.614 -0.0473  1.4893  3.0719
  222MOL0     H29269   8.015   8.650   6.488  1.3920  0.1408 -1.0857
  222MOL0     H29270   7.629   8.776   6.593  0.6340 -2.0841 -0.5700
  222MOL0     H29271   7.601   8.720   6.428  4.6717 -3.9819 -0.8214
  222MOL0     H29272   7.534   8.949   6.440 -0.2423  2.8266  1.5998
  222MOL0     H29273   7.695   8.947   6.342 -0.4704  0.7914  0.1480
  222MOL0     H29274   7.816   9.025   6.527 -0.7783  1.8258 -0.3769
  222MOL0     H29275   7.677   9.020   6.626  3.1805 -2.1058  1.1991
  222MOL0     H29276   7.577   9.189   6.448 -0.4945 -2.9876  2.4115
  222MOL0     H29277   7.705   9.260   6.545  0.5771  2.9995 -2.1149
  222MOL0     H29278   7.743   9.333   6.323 -2.9375  0.2793  0.6760
  222MOL0     H29279   7.697   9.181   6.260  1.1193 -1.4790  1.1974
  222MOL0     H29280   7.929   9.097   6.375  0.8674  0.3611  3.3911
  222MOL0     H29281   7.958   9.258   6.423  2.5053  1.1889 -0.4558
  222MOL0     H29282   8.008   9.315   6.186  1.9038 -0.8273 -0.4001
  222MOL0     H29283   8.101   9.184   6.253  0.2160 -0.3797  0.7390
  222MOL0     H29284   7.925   9.026   6.144  0.1437 -1.3449 -4.6701
  222MOL0     H29285   8.046   9.094   6.045 -0.2006  1.4827 -0.3983
  222MOL0     H29286   7.605   8.550   6.552 -0.9422  0.6620  0.8538
  222MOL0     H29287   7.665   8.350   6.652 -2.1549  0.5104 -3.8565
  222MOL0     H29288   7.807   7.988   6.702  0.2501  1.1328 -0.9221
  222MOL0     H29289   7.821   7.757   6.783 -0.3209  2.1361 -0.3801
  222MOL0     H29290   7.833   6.325   7.635  1.5965 -1.0314  1.7573
  222MOL0     H29291   7.680   6.176   7.739  0.0916 -0.4524  0.1916
  222MOL0     H29292   7.415   6.135   8.329 -0.7740 -0.6485  0.4107
  222MOL0     H29293   7.319   5.946   8.427 -1.3441  0.7080  0.1517
  222MOL0     H29294   7.164   5.602   8.432  0.9577 -0.8181  1.9091
  222MOL0     H29295   7.217   5.767   8.473  5.6001  0.5201  2.5265
  222MOL0     H29296   7.426   5.720   8.504 -0.1786  0.2510  4.4409
  222MOL0     H29297   7.329   5.593   8.581 -2.3717 -3.0693 -1.9546
  222MOL0     H29298   7.394   5.492   8.312  0.0256  2.0066 -1.2354
  222MOL0     H29299   7.441   5.429   8.474 -1.1812 -0.4144 -0.3440
  222MOL0     H29300   7.643   5.565   8.484 -0.6809  0.8252 -0.0413
  222MOL0     H29301   7.647   5.462   8.339 -2.4874 -1.2664  0.7052
  222MOL0     H29302   7.675   5.799   8.124  1.1332  1.3425  2.5617
  222MOL0     H29303   7.308   5.758   8.037 -0.8594 -0.1716  0.2152
  222MOL0     H29304   7.415   5.958   7.935  3.1915 -1.0718  1.2179
  223MOL0     O29305   8.245  10.925   5.947  0.4455 -0.2619 -0.4056
  223MOL0     C29306   8.182  10.838   5.878  0.7892  0.6287 -0.1253
  223MOL0     O29307   8.204  10.702   5.897 -0.3965 -0.3545  0.5128
  223MOL0     C29308   8.293  10.652   5.985 -0.5397  0.8765  0.6133
  223MOL0     C29309   8.376  10.551   5.950 -0.9192  0.5613 -0.5943
  223MOL0     C29310   8.476  10.510   6.043 -0.5118  0.7768  0.2675
  223MOL0     C29311   8.490  10.567   6.165 -0.4775  0.3473 -0.2444
  223MOL0     O29312   8.589  10.523   6.248  0.0838 -0.0582  0.4799
  223MOL0     C29313   8.537  10.438   6.343 -0.6868 -0.3169 -1.3918
  223MOL0     C29314   8.640  10.323   6.380 -0.8695 -0.8044  0.2611
  223MOL0     C29315   8.608  10.258   6.510  0.0876  0.7941 -0.9570
  223MOL0     C29316   8.485  10.167   6.511  0.0137  0.1177  0.5567
  223MOL0     C29317   8.469  10.094   6.644  0.2980  0.2403  0.4448
  223MOL0     C29318   8.521   9.954   6.637  0.2763  0.0511  0.3300
  223MOL0     C29319   8.503   9.880   6.780  0.1824 -0.4405  0.0617
  223MOL0     C29320   8.558   9.745   6.772 -0.4248  0.8096 -0.5016
  223MOL0     N29321   8.694   9.742   6.729  0.0750 -0.3233  0.1525
  223MOL0     C29322   8.765   9.651   6.664  0.3406 -0.5036  0.5530
  223MOL0     C29323   8.899   9.684   6.670  0.2546  0.5974  0.3350
  223MOL0     C29324   9.014   9.586   6.629 -0.5818 -0.1526 -0.7829
  223MOL0     C29325   9.140   9.603   6.711  0.5789  0.5157  0.0126
  223MOL0     C29326   9.251   9.510   6.671  0.4656  0.7245  1.1665
  223MOL0     C29327   9.349   9.475   6.780 -0.4851  1.2205  0.0016
  223MOL0     O29328   9.295   9.416   6.909  0.0055 -0.7109  0.3058
  223MOL0     C29329   9.388   9.372   7.001  0.6110 -0.2604  0.4778
  223MOL0     C29330   9.528   9.375   6.977  0.6380  0.0712  0.0308
  223MOL0     C29331   9.606   9.317   7.078  0.4020  0.6398  0.0234
  223MOL0     C29332   9.558   9.271   7.197  0.2433  0.2742 -0.1055
  223MOL0     C29333   9.651   9.217   7.306 -0.6093  0.4484  0.5469
  223MOL0     O29334   9.596   9.205   7.426  0.2582  0.4935  0.4468
  223MOL0     C29335   9.651   9.148   7.536 -0.0082 -0.0805  0.7098
  223MOL0     C29336   9.562   9.116   7.638 -0.7522  0.6386 -0.0221
  223MOL0     C29337   9.598   9.073   7.769  0.0061 -0.1961 -0.0180
  223MOL0     C29338   9.734   9.033   7.782  0.2086  0.4620 -0.8375
  223MOL0     O29339   9.767   9.010   7.918  0.5377 -0.0168 -0.5544
  223MOL0     C29340   9.891   8.933   7.949  0.1459 -0.3422 -0.2719
  223MOL0     C29341   9.873   8.860   8.070 -0.1933 -0.1554  0.0727
  223MOL0     C29342   9.921   8.951   8.189 -0.5352  0.0156  0.2492
  223MOL0     C29343   9.910   8.871   8.317 -0.3210  0.9613 -0.4179
  223MOL0     C29344   9.985   8.918   8.447  0.1940 -0.0683 -0.4770
  223MOL0     C29345   9.950   9.064   8.490 -1.1282  0.7340 -0.8569
  223MOL0     C29346  10.006   9.176   8.407  0.7566 -0.1905  0.6483
  223MOL0     C29347  10.150   9.191   8.438 -0.6725  0.2110  0.0755
  223MOL0    Cl29348  10.222   9.344   8.378 -1.1419 -0.3981  0.6665
  223MOL0     C29349   9.826   9.053   7.672  0.2747 -0.6343 -0.0828
  223MOL0     C29350   9.787   9.109   7.543  0.4811  0.1401 -1.6845
  223MOL0     O29351   9.770   9.197   7.276 -0.2975  0.6039 -0.0574
  223MOL0     C29352   9.420   9.269   7.216 -0.0038 -0.2407  0.5492
  223MOL0     C29353   9.337   9.333   7.118 -0.5356 -0.0557 -0.2573
  223MOL0     N29354   8.904   9.804   6.733  0.2862 -0.3673  0.2442
  223MOL0     N29355   8.784   9.828   6.785  0.6286 -0.6213  0.3904
  223MOL0     C29356   8.393  10.667   6.205 -0.0200  0.1389  0.2397
  223MOL0     C29357   8.293  10.699   6.116  0.4946  0.2290 -0.0576
  223MOL0     C29358   8.084  10.888   5.772 -0.4831  0.2024 -0.9700
  223MOL0     C29359   8.039  11.019   5.778 -0.4535 -0.1510 -0.4479
  223MOL0     C29360   7.949  11.068   5.684 -0.3058 -0.2223  0.5822
  223MOL0     C29361   7.896  10.981   5.596  0.5011  0.4547  1.0439
  223MOL0     O29362   7.790  11.046   5.533 -0.7503 -0.6267  0.3752
  223MOL0     C29363   7.820  11.093   5.399 -0.3506 -0.7314  0.2038
  223MOL0     C29364   7.739  11.216   5.382  0.3309 -0.2762  0.2397
  223MOL0     C29365   7.756  11.307   5.264 -0.1788  0.4443  0.7725
  223MOL0     C29366   7.653  11.281   5.145  0.3998  0.4071 -0.6564
  223MOL0     C29367   7.674  11.145   5.094 -0.5627 -0.1459 -0.1925
  223MOL0     C29368   7.706  11.031   5.066  0.3025 -0.1081  0.7633
  223MOL0     C29369   7.929  10.848   5.592 -1.1036  0.1476 -0.3007
  223MOL0     C29370   8.029  10.804   5.677  0.1283 -0.2418  0.2175
  223MOL0     H29371   8.373  10.494   5.858  3.0257 -0.9043 -0.0374
  223MOL0     H29372   8.530  10.421   6.014 -0.8089  0.3196  1.0919
  223MOL0     H29373   8.448  10.390   6.301 -2.4715  1.5997 -0.0343
  223MOL0     H29374   8.515  10.493   6.435  1.4107  1.8400 -2.0792
  223MOL0     H29375   8.746  10.351   6.381 -1.8790  3.6733  0.6402
  223MOL0     H29376   8.635  10.248   6.300  2.8070  0.1531 -1.0922
  223MOL0     H29377   8.596  10.339   6.584  0.2902  2.0988 -2.2966
  223MOL0     H29378   8.695  10.202   6.545  1.2140  1.9337 -1.8111
  223MOL0     H29379   8.399  10.226   6.478  0.2653 -0.0650 -0.4391
  223MOL0     H29380   8.506  10.100   6.428 -0.7094 -0.3843  0.7714
  223MOL0     H29381   8.363  10.086   6.667  0.4071  1.7503  1.6647
  223MOL0     H29382   8.501  10.166   6.721  1.8931  2.0039 -1.7420
  223MOL0     H29383   8.627   9.968   6.614  0.6698  0.3533  2.1881
  223MOL0     H29384   8.472   9.889   6.564  3.0649 -3.3462  1.1941
  223MOL0     H29385   8.533   9.945   6.862 -4.1162  1.4429  0.4434
  223MOL0     H29386   8.397   9.880   6.808 -0.1471  4.5561 -0.1846
  223MOL0     H29387   8.502   9.687   6.698  0.1378  1.3458 -1.3621
  223MOL0     H29388   8.549   9.706   6.874  0.8168  2.3996  0.2515
  223MOL0     H29389   8.726   9.563   6.614 -0.6033 -0.0877  0.5453
  223MOL0     H29390   9.036   9.593   6.522  2.5612 -1.9730 -0.3877
  223MOL0     H29391   8.977   9.483   6.636 -0.2017 -0.2579 -0.1774
  223MOL0     H29392   9.103   9.583   6.812 -0.6336 -2.3098 -0.8698
  223MOL0     H29393   9.171   9.706   6.692  0.1022  1.0571  1.9911
  223MOL0     H29394   9.213   9.413   6.636  2.1137 -0.1623  1.7435
  223MOL0     H29395   9.304   9.551   6.584 -2.6074  0.7616 -0.8679
  223MOL0     H29396   9.407   9.567   6.792 -2.3104  2.2555  1.6305
  223MOL0     H29397   9.404   9.396   6.729 -1.0412  0.8215 -0.0013
  223MOL0     H29398   9.577   9.410   6.887 -0.6817 -2.0254 -1.6214
  223MOL0     H29399   9.713   9.310   7.059  0.4506 -0.2692  0.6087
  223MOL0     H29400   9.465   9.147   7.600  0.2985  1.3455 -2.3261
  223MOL0     H29401   9.519   9.067   7.844  1.3900  0.0177  1.5128
  223MOL0     H29402   9.978   8.998   7.961  0.6668 -1.0243 -0.3562
  223MOL0     H29403   9.909   8.866   7.865 -2.0297 -0.0763 -1.0151
  223MOL0     H29404   9.932   8.768   8.059  2.8566  1.8696 -1.8475
  223MOL0     H29405   9.767   8.832   8.077 -0.6347  1.6344  1.2982
  223MOL0     H29406   9.854   9.037   8.197  1.3866  1.6528 -0.4454
  223MOL0     H29407  10.027   8.976   8.174 -0.1668 -1.1626  0.7275
  223MOL0     H29408   9.806   8.845   8.341 -0.8174  2.1228 -1.2192
  223MOL0     H29409   9.963   8.776   8.308  2.7965  2.0903  3.4884
  223MOL0     H29410  10.093   8.905   8.435  0.0080 -0.2283 -2.2791
  223MOL0     H29411   9.950   8.856   8.530  1.8267  0.3327  0.5627
  223MOL0     H29412   9.989   9.074   8.592  2.5221  1.0164 -2.1263
  223MOL0     H29413   9.844   9.082   8.511 -0.6260  0.5051  2.4945
  223MOL0     H29414   9.987   9.157   8.301  1.4081 -1.9143  0.8159
  223MOL0     H29415   9.957   9.270   8.437 -0.1925 -0.5056  0.1427
  223MOL0     H29416  10.206   9.108   8.395  4.9471  2.7681  1.4668
  223MOL0     H29417  10.170   9.187   8.546 -0.4427  1.6698  0.1021
  223MOL0     H29418   9.931   9.038   7.696 -0.4627 -0.2347  4.2083
  223MOL0     H29419   9.860   9.139   7.469  2.8817  0.3582  0.6566
  223MOL0     H29420   9.382   9.254   7.317  1.3088  2.3048  1.5142
  223MOL0     H29421   9.230   9.336   7.139 -1.0852  1.4546 -2.7811
  223MOL0     H29422   8.406  10.708   6.305  0.0151  0.5048  0.0877
  223MOL0     H29423   8.216  10.771   6.144 -1.0344  0.0179 -3.3081
  223MOL0     H29424   8.078  11.086   5.854  0.6495  0.6142 -1.6449
  223MOL0     H29425   7.906  11.168   5.684 -1.6921 -0.8082  0.5534
  223MOL0     H29426   7.803  11.006   5.336 -0.8803 -1.7851  1.7312
  223MOL0     H29427   7.925  11.122   5.388  0.0490 -2.0261  0.4553
  223MOL0     H29428   7.633  11.189   5.380 -0.0817  1.3053 -0.4739
  223MOL0     H29429   7.751  11.284   5.466 -0.5771 -1.7922  1.6614
  223MOL0     H29430   7.852  11.290   5.214 -0.1383  0.1588  0.9440
  223MOL0     H29431   7.746  11.411   5.296 -0.2344  0.6469  0.1174
  223MOL0     H29432   7.552  11.308   5.177  0.2623 -0.6315 -0.1700
  223MOL0     H29433   7.689  11.360   5.078 -0.0168  1.3604  0.2164
  223MOL0     H29434   7.719  10.927   5.044  4.0924 -0.4082  3.4034
  223MOL0     H29435   7.873  10.771   5.539 -2.5946 -1.1825  2.9347
  223MOL0     H29436   8.058  10.700   5.685 -1.6564 -0.8101 -0.2542
  224MOL0     O29437   3.642   8.657   1.202  0.8336 -0.3579 -0.0735
  224MOL0     C29438   3.734   8.592   1.259  0.1533  0.2155 -0.0593
  224MOL0     O29439   3.774   8.464   1.226 -0.6347  0.6407 -0.4335
  224MOL0     C29440   3.699   8.388   1.140 -0.1211 -0.1268 -0.5732
  224MOL0     C29441   3.563   8.370   1.162  0.4215  0.9267 -0.1633
  224MOL0     C29442   3.492   8.319   1.061 -0.4599 -0.2007  1.0418
  224MOL0     C29443   3.552   8.279   0.939 -0.5513 -0.6267 -0.1968
  224MOL0     O29444   3.483   8.223   0.835 -0.3220 -0.9763  0.0500
  224MOL0     C29445   3.342   8.233   0.829 -0.0037  0.4376  0.4722
  224MOL0     C29446   3.296   8.189   0.691 -0.6581 -0.7370  0.0690
  224MOL0     C29447   3.141   8.178   0.671  1.2021  0.3479  0.2056
  224MOL0     C29448   3.117   8.124   0.533  0.5482  0.1479 -1.0526
  224MOL0     C29449   2.971   8.096   0.502 -0.3185 -0.8914 -0.8375
  224MOL0     C29450   2.915   7.967   0.556 -0.4639 -0.6734  0.3997
  224MOL0     C29451   2.970   7.834   0.510  0.7418  0.0835 -0.4916
  224MOL0     C29452   2.960   7.824   0.356 -0.6828  0.7186  0.0423
  224MOL0     N29453   2.972   7.681   0.335 -0.0921  0.0599  0.3447
  224MOL0     C29454   2.880   7.579   0.353 -0.0705  0.7059 -0.4481
  224MOL0     C29455   2.917   7.474   0.279 -0.3507  0.7557 -0.6464
  224MOL0     C29456   2.852   7.337   0.266  1.2365 -0.1267 -0.7710
  224MOL0     C29457   2.782   7.319   0.125 -0.6056  0.2796  0.7436
  224MOL0     C29458   2.700   7.192   0.135  0.0923 -0.2371 -0.4124
  224MOL0     C29459   2.651   7.143   0.007 -0.6387  0.4642  0.2911
  224MOL0     O29460   2.761   7.109  -0.077 -0.2540 -0.0247  0.0062
  224MOL0     C29461   2.730   7.038  -0.190  0.3816 -1.2199 -0.0284
  224MOL0     C29462   2.647   7.099  -0.276 -0.2699  0.2869 -0.2139
  224MOL0     C29463   2.612   7.045  -0.405 -0.6313 -0.5006  0.4908
  224MOL0     C29464   2.679   6.927  -0.449  0.1125  0.3309  0.5954
  224MOL0     C29465   2.652   6.865  -0.576  0.2315 -0.5336  0.2195
  224MOL0     O29466   2.698   6.734  -0.592  0.1301  0.4195 -0.4625
  224MOL0     C29467   2.655   6.662  -0.705  0.9964 -0.7005 -0.4433
  224MOL0     C29468   2.760   6.598  -0.767  0.2642 -0.3321  0.1293
  224MOL0     C29469   2.737   6.529  -0.881  0.2749 -0.5112  0.2529
  224MOL0     C29470   2.611   6.510  -0.934 -0.5265  0.2471 -0.5890
  224MOL0     O29471   2.609   6.424  -1.038  0.3499  0.4819  0.1989
  224MOL0     C29472   2.507   6.441  -1.131  0.9440  0.5022 -0.1388
  224MOL0     C29473   2.549   6.366  -1.253 -0.6081 -0.9710 -0.0496
  224MOL0     C29474   2.666   6.425  -1.332  0.5221 -0.4845 -0.9462
  224MOL0     C29475   2.680   6.357  -1.468  0.3949  0.0129 -0.0443
  224MOL0     C29476   2.681   6.453  -1.585  0.6537 -0.9901  0.4887
  224MOL0     C29477   2.551   6.520  -1.635 -0.8352  0.6459  0.3233
  224MOL0     C29478   2.467   6.414  -1.708  0.1684  0.6871 -0.0238
  224MOL0     C29479   2.495   6.413  -1.860  0.5950 -0.1488  0.0141
  224MOL0    Cl29480   2.408   6.274  -1.911 -0.2163  0.0732  0.4576
  224MOL0     C29481   2.496   6.582  -0.873  0.4373  1.1903  0.6825
  224MOL0     C29482   2.517   6.659  -0.756 -1.0795 -0.2967 -0.3438
  224MOL0     O29483   2.603   6.938  -0.658  0.1700  0.3236 -0.2976
  224MOL0     C29484   2.765   6.864  -0.358 -0.3681 -0.2442  0.9883
  224MOL0     C29485   2.795   6.925  -0.236 -0.5197  0.4163  0.0428
  224MOL0     N29486   3.042   7.509   0.225  0.5070  0.8538 -0.4305
  224MOL0     N29487   3.081   7.624   0.273  0.1334 -0.6508 -0.2123
  224MOL0     C29488   3.686   8.305   0.916 -1.1266 -0.6716  0.3596
  224MOL0     C29489   3.756   8.360   1.021 -0.0694 -0.2436 -0.6512
  224MOL0     C29490   3.805   8.658   1.376 -0.8580 -0.4094  0.3092
  224MOL0     C29491   3.894   8.581   1.464  0.0632 -0.7508 -0.1673
  224MOL0     C29492   3.942   8.636   1.592  0.8731 -0.3748 -0.4133
  224MOL0     C29493   3.929   8.776   1.619  0.6237  0.5672 -0.5561
  224MOL0     O29494   3.964   8.838   1.725 -1.0906 -0.0860  0.2544
  224MOL0     C29495   4.086   8.803   1.789  0.4250  0.0560  0.0725
  224MOL0     C29496   4.080   8.889   1.905 -0.7553 -0.1986 -0.6585
  224MOL0     C29497   4.087   9.034   1.868  0.4109 -0.2153  0.1508
  224MOL0     C29498   4.230   9.091   1.857  0.1550 -0.1746 -0.0121
  224MOL0     C29499   4.225   9.236   1.815  0.5390  0.0910 -0.4327
  224MOL0     C29500   4.229   9.354   1.786 -0.0838  0.2936  0.6036
  224MOL0     C29501   3.830   8.834   1.544  0.6254 -0.8075 -0.7457
  224MOL0     C29502   3.769   8.783   1.421 -0.1309 -0.4243 -0.3045
  224MOL0     H29503   3.511   8.408   1.250  0.5553  2.9992 -0.9216
  224MOL0     H29504   3.387   8.295   1.074 -2.0248  0.3153 -6.3299
  224MOL0     H29505   3.302   8.329   0.862  0.9446 -0.2206  4.0260
  224MOL0     H29506   3.320   8.150   0.897  3.0785 -0.4867  0.5114
  224MOL0     H29507   3.349   8.095   0.673 -2.0822 -1.9221  1.7651
  224MOL0     H29508   3.342   8.256   0.618  1.8562 -1.3274  1.0294
  224MOL0     H29509   3.101   8.279   0.679  3.2703  1.1498  1.3214
  224MOL0     H29510   3.092   8.119   0.749  1.3989 -1.7404 -1.1662
  224MOL0     H29511   3.150   8.200   0.462  1.0389  2.3159  1.3469
  224MOL0     H29512   3.173   8.032   0.516  1.2754  0.6121 -1.2254
  224MOL0     H29513   2.958   8.095   0.393  1.0866 -1.8754 -1.0188
  224MOL0     H29514   2.911   8.182   0.533  0.2235  0.0943 -2.3690
  224MOL0     H29515   2.809   7.972   0.528 -0.4146  1.0721  0.4163
  224MOL0     H29516   2.917   7.984   0.664  0.4251  1.4660  0.0970
  224MOL0     H29517   3.074   7.822   0.540  1.4660  1.2761 -2.3168
  224MOL0     H29518   2.913   7.753   0.555  2.1569 -0.0141  1.2035
  224MOL0     H29519   3.037   7.882   0.305 -1.4334  2.4605  0.7947
  224MOL0     H29520   2.867   7.873   0.325  0.0880  1.9279 -0.4160
  224MOL0     H29521   2.775   7.584   0.378 -0.9342 -0.8614 -3.3160
  224MOL0     H29522   2.769   7.325   0.336  2.3861  2.5083  1.2486
  224MOL0     H29523   2.928   7.261   0.284  0.0456 -0.7083  2.5197
  224MOL0     H29524   2.851   7.303   0.042 -2.0175  2.1047 -0.8765
  224MOL0     H29525   2.725   7.410   0.106 -1.3804 -0.5289 -1.0342
  224MOL0     H29526   2.764   7.110   0.169 -2.4630 -2.2697 -0.2128
  224MOL0     H29527   2.613   7.199   0.200 -0.6653 -3.8394 -0.8621
  224MOL0     H29528   2.585   7.220  -0.035 -0.1335  0.2155 -0.9931
  224MOL0     H29529   2.592   7.056   0.035  1.2317  0.6080  5.8400
  224MOL0     H29530   2.610   7.191  -0.233  0.8625  0.3739  0.6157
  224MOL0     H29531   2.533   7.093  -0.461  0.3795  0.1364 -0.4066
  224MOL0     H29532   2.856   6.592  -0.717 -0.6383 -0.6083  1.8788
  224MOL0     H29533   2.818   6.474  -0.928 -0.1032 -0.0702 -0.9540
  224MOL0     H29534   2.496   6.548  -1.151  3.4319  0.5623 -1.6015
  224MOL0     H29535   2.413   6.399  -1.094  0.3688 -1.4571 -3.3730
  224MOL0     H29536   2.456   6.368  -1.310 -0.6588  0.0850  0.0515
  224MOL0     H29537   2.554   6.260  -1.226 -0.6644 -1.8379 -2.9762
  224MOL0     H29538   2.759   6.417  -1.275  1.6901  6.2354 -1.1375
  224MOL0     H29539   2.652   6.531  -1.356 -0.8667 -1.0614 -3.0092
  224MOL0     H29540   2.778   6.308  -1.475  0.3044  0.0690 -2.7232
  224MOL0     H29541   2.601   6.283  -1.484 -0.7431  0.7409  1.8516
  224MOL0     H29542   2.727   6.411  -1.674 -1.2379 -0.6740 -0.7084
  224MOL0     H29543   2.746   6.537  -1.560  0.6679 -1.4073  1.9410
  224MOL0     H29544   2.578   6.592  -1.712  2.0073 -0.9912 -0.3494
  224MOL0     H29545   2.490   6.570  -1.559 -0.8827 -1.0606  1.4626
  224MOL0     H29546   2.500   6.321  -1.659  0.0890  1.6068  1.8840
  224MOL0     H29547   2.361   6.440  -1.704  0.6857  3.2193 -0.9588
  224MOL0     H29548   2.604   6.409  -1.872  0.5939 -0.0916 -0.0152
  224MOL0     H29549   2.449   6.501  -1.906 -1.0597 -0.6999  0.5446
  224MOL0     H29550   2.393   6.570  -0.904  0.2777  0.8434  1.3250
  224MOL0     H29551   2.445   6.727  -0.710 -3.1978 -2.0940 -0.8138
  224MOL0     H29552   2.822   6.779  -0.395  2.4005  1.7348  0.3972
  224MOL0     H29553   2.873   6.886  -0.171 -0.2479 -0.0226 -0.5363
  224MOL0     H29554   3.720   8.292   0.814 -2.7589 -1.3279 -0.1369
  224MOL0     H29555   3.863   8.378   1.009 -0.0492  0.5428  0.5656
  224MOL0     H29556   3.912   8.480   1.430  0.1508 -1.2479  1.3042
  224MOL0     H29557   4.002   8.572   1.657 -1.4877 -1.1146  1.1428
  224MOL0     H29558   4.181   8.829   1.743  1.2508  0.1910  1.7717
  224MOL0     H29559   4.090   8.694   1.802  1.2755  0.0939  0.1659
  224MOL0     H29560   3.992   8.866   1.967  1.0944  1.2275  2.7995
  224MOL0     H29561   4.164   8.861   1.970 -2.2271 -3.1847  0.1565
  224MOL0     H29562   4.028   9.087   1.943  0.0864 -0.0925 -0.1891
  224MOL0     H29563   4.037   9.054   1.772 -1.4329  0.7532  1.2562
  224MOL0     H29564   4.288   9.085   1.950  0.4135  3.1860  0.1710
  224MOL0     H29565   4.282   9.027   1.785  0.6884 -0.2996  0.4704
  224MOL0     H29566   4.206   9.455   1.760 -1.1253 -0.0671  0.0787
  224MOL0     H29567   3.792   8.934   1.562 -0.2487 -1.4300  1.1324
  224MOL0     H29568   3.685   8.841   1.384  0.3854  1.0637  0.7798
  225MOL0     O29569   1.307   5.728   9.320  0.2360 -0.1844 -0.2640
  225MOL0     C29570   1.204   5.789   9.298  1.7637 -0.8024  0.3373
  225MOL0     O29571   1.134   5.790   9.177  0.4571  0.4894  0.1828
  225MOL0     C29572   1.145   5.672   9.106 -0.1185  0.2690  0.4614
  225MOL0     C29573   1.114   5.684   8.972  0.0980 -0.2325  0.4957
  225MOL0     C29574   1.109   5.566   8.891  0.6986 -0.2185 -0.0008
  225MOL0     C29575   1.136   5.441   8.937  1.2096  0.5937 -0.1334
  225MOL0     O29576   1.115   5.333   8.858  0.2658  0.3635 -0.1347
  225MOL0     C29577   0.980   5.300   8.821 -0.2228 -0.3481 -0.5185
  225MOL0     C29578   0.959   5.160   8.768 -0.1689  0.1857  0.6890
  225MOL0     C29579   1.048   5.135   8.649 -0.2227  0.2062 -0.0683
  225MOL0     C29580   1.016   5.007   8.574 -0.2484  0.1559 -0.4173
  225MOL0     C29581   1.040   4.879   8.652  0.6142  0.4193 -0.4386
  225MOL0     C29582   0.949   4.769   8.607 -1.2940 -0.7480 -0.8882
  225MOL0     C29583   0.802   4.789   8.655  0.9081  0.4287 -0.2975
  225MOL0     C29584   0.715   4.672   8.611  0.6240 -0.1389  0.0538
  225MOL0     N29585   0.574   4.689   8.624 -0.0627  0.0639  0.5292
  225MOL0     C29586   0.470   4.586   8.613 -0.7457 -0.3043  0.3604
  225MOL0     C29587   0.352   4.655   8.603  0.1272  0.2959  0.0836
  225MOL0     C29588   0.218   4.593   8.589 -1.6391  0.1706  0.1215
  225MOL0     C29589   0.185   4.529   8.454 -0.1922  0.0833  0.3641
  225MOL0     C29590   0.052   4.457   8.440 -0.5086 -0.4328 -0.7956
  225MOL0     C29591   0.042   4.322   8.512 -0.4744  0.0698 -0.1489
  225MOL0     O29592   0.154   4.246   8.454 -0.3345 -0.2988 -0.7430
  225MOL0     C29593   0.170   4.116   8.501 -0.5487  0.0676  0.8296
  225MOL0     C29594   0.094   4.061   8.604  0.9393  0.4140  0.2162
  225MOL0     C29595   0.120   3.929   8.651 -0.1695 -0.5343  0.3284
  225MOL0     C29596   0.204   3.846   8.581  0.5483  0.0089  0.2080
  225MOL0     C29597   0.222   3.703   8.620  0.1234  0.4191  0.2664
  225MOL0     O29598   0.314   3.640   8.531 -0.3503 -0.9297 -1.6682
  225MOL0     C29599   0.309   3.508   8.518  0.0955 -0.9237  0.0365
  225MOL0     C29600   0.194   3.446   8.458 -0.0567  0.7848  0.2227
  225MOL0     C29601   0.191   3.302   8.439  0.5210 -0.9548  0.5569
  225MOL0     C29602   0.304   3.222   8.464 -0.0020  0.4952  0.0941
  225MOL0     O29603   0.298   3.088   8.416  0.4120  0.5993 -0.2227
  225MOL0     C29604   0.433   3.030   8.380 -0.4537 -0.7477  0.1742
  225MOL0     C29605   0.437   2.880   8.336  0.1949  0.0873 -0.3486
  225MOL0     C29606   0.312   2.825   8.258  0.2686 -0.0864 -0.5881
  225MOL0     C29607   0.318   2.687   8.223 -0.1640  0.7832 -0.7924
  225MOL0     C29608   0.183   2.644   8.156 -0.7250 -0.2229  0.0387
  225MOL0     C29609   0.168   2.491   8.146  0.8430 -0.4359  1.2603
  225MOL0     C29610   0.041   2.443   8.060  0.2044 -0.4536 -0.0735
  225MOL0     C29611   0.016   2.299   8.046  0.0780  0.1943 -0.2055
  225MOL0    Cl29612  -0.105   2.257   7.929  0.1135 -0.0658  0.4165
  225MOL0     C29613   0.416   3.294   8.512  0.8220 -0.6540  0.0218
  225MOL0     C29614   0.417   3.431   8.552  1.0390  0.0342 -0.4087
  225MOL0     O29615   0.167   3.652   8.719 -0.2235 -0.5854 -0.1021
  225MOL0     C29616   0.279   3.904   8.477  1.0115  0.6491 -0.5322
  225MOL0     C29617   0.264   4.033   8.440 -0.4698 -0.4896  0.4278
  225MOL0     N29618   0.385   4.799   8.600  0.0572  0.7107  0.3864
  225MOL0     N29619   0.517   4.813   8.622 -0.2185 -0.2477  0.2613
  225MOL0     C29620   1.174   5.430   9.063  0.5406  1.1770 -1.0005
  225MOL0     C29621   1.177   5.548   9.149 -0.6896  0.8249  0.7720
  225MOL0     C29622   1.158   5.894   9.401 -0.3714  0.2965 -0.7845
  225MOL0     C29623   1.245   5.914   9.506 -1.7861  0.8651  0.7793
  225MOL0     C29624   1.227   6.028   9.586  0.5055 -0.9167  0.3938
  225MOL0     C29625   1.110   6.110   9.576 -0.2286  0.6585 -0.6783
  225MOL0     O29626   1.108   6.222   9.659 -0.0973  0.4600 -0.0479
  225MOL0     C29627   1.026   6.337   9.626 -0.9269 -0.0141  0.5463
  225MOL0     C29628   1.106   6.457   9.672 -0.1096  0.1366 -0.9985
  225MOL0     C29629   1.245   6.469   9.616 -0.0354  0.3407  0.1048
  225MOL0     C29630   1.279   6.408   9.482 -0.2107 -0.5298  0.1422
  225MOL0     C29631   1.186   6.470   9.380 -0.6533  0.3226  0.3530
  225MOL0     C29632   1.114   6.525   9.297 -0.1923 -0.3767 -0.3099
  225MOL0     C29633   1.016   6.070   9.479  1.0950 -0.3991  0.3350
  225MOL0     C29634   1.038   5.968   9.389  0.8468  0.3312  0.7998
  225MOL0     H29635   1.095   5.781   8.927  0.1613 -1.6963 -3.0707
  225MOL0     H29636   1.096   5.580   8.784 -1.9024 -1.4757  0.0753
  225MOL0     H29637   0.957   5.368   8.738 -1.6411 -2.6378 -2.0921
  225MOL0     H29638   0.923   5.318   8.913  1.3819 -0.0959  0.4778
  225MOL0     H29639   0.850   5.149   8.761 -0.3853  2.4794 -0.9137
  225MOL0     H29640   0.992   5.085   8.840 -0.9834 -1.9329 -1.0499
  225MOL0     H29641   1.149   5.128   8.689  0.6011  2.6093 -1.5050
  225MOL0     H29642   1.051   5.214   8.573 -0.4433 -1.4458 -1.8565
  225MOL0     H29643   0.912   5.012   8.541 -0.3681 -1.9259 -0.4809
  225MOL0     H29644   1.063   4.999   8.475 -1.8116  0.6878 -1.2308
  225MOL0     H29645   1.027   4.895   8.760  2.0121 -0.9527 -0.0341
  225MOL0     H29646   1.143   4.844   8.642  1.1097  0.6541  2.7440
  225MOL0     H29647   0.980   4.676   8.655 -0.2978 -0.3687 -0.7566
  225MOL0     H29648   0.965   4.757   8.500  3.1958 -0.3198 -0.4577
  225MOL0     H29649   0.795   4.803   8.763 -1.7361  1.3356 -0.5112
  225MOL0     H29650   0.764   4.881   8.610 -3.5619 -0.5174  1.0663
  225MOL0     H29651   0.743   4.580   8.663 -2.9182 -0.7278  1.1588
  225MOL0     H29652   0.738   4.647   8.507  1.5952 -3.7268  1.0132
  225MOL0     H29653   0.486   4.478   8.609 -1.0466 -0.3120 -1.3633
  225MOL0     H29654   0.146   4.675   8.597 -1.1458  0.6768 -0.6186
  225MOL0     H29655   0.206   4.515   8.666  0.3590 -2.9300 -2.4422
  225MOL0     H29656   0.267   4.469   8.416 -0.8654  1.4211 -3.7483
  225MOL0     H29657   0.177   4.614   8.384  1.1832  0.2383  0.3785
  225MOL0     H29658  -0.016   4.530   8.486  3.2214  3.5036 -0.8263
  225MOL0     H29659   0.034   4.444   8.333 -3.3382  0.2361 -0.5025
  225MOL0     H29660  -0.055   4.272   8.502 -2.1910  3.1373 -0.1384
  225MOL0     H29661   0.064   4.330   8.619  0.8099  1.8565 -0.4993
  225MOL0     H29662   0.025   4.113   8.669 -1.1856 -0.1811 -1.4404
  225MOL0     H29663   0.083   3.884   8.742  0.9729 -0.4389  0.8562
  225MOL0     H29664   0.102   3.499   8.439 -1.0219 -0.5163  1.1054
  225MOL0     H29665   0.104   3.246   8.406  1.7815 -2.2480 -0.7346
  225MOL0     H29666   0.501   3.046   8.464  0.8698  2.3028 -1.3233
  225MOL0     H29667   0.468   3.089   8.294 -4.1913  2.8364  0.8191
  225MOL0     H29668   0.444   2.819   8.426  1.6414 -1.2990 -1.3318
  225MOL0     H29669   0.527   2.854   8.279  2.9850  1.2343  3.1642
  225MOL0     H29670   0.297   2.884   8.167 -1.4270 -0.7506 -0.7696
  225MOL0     H29671   0.221   2.844   8.315  0.7477 -0.5063  0.3330
  225MOL0     H29672   0.405   2.692   8.157 -0.0584  0.9004 -0.6447
  225MOL0     H29673   0.336   2.626   8.312 -2.2314  1.7076  0.3112
  225MOL0     H29674   0.178   2.677   8.052 -2.8915  2.0564  0.7731
  225MOL0     H29675   0.099   2.686   8.212  0.9084 -1.1593  3.4951
  225MOL0     H29676   0.177   2.437   8.241  3.0309 -1.2022  0.6730
  225MOL0     H29677   0.253   2.449   8.092  0.1789  1.9292 -1.9101
  225MOL0     H29678  -0.049   2.494   8.096  0.8957  0.5458  0.2982
  225MOL0     H29679   0.065   2.482   7.961  1.4127  0.0534  0.4038
  225MOL0     H29680  -0.016   2.262   8.144  1.8450 -1.6229 -0.2590
  225MOL0     H29681   0.104   2.237   8.025  3.0438  3.8564  0.5362
  225MOL0     H29682   0.522   3.268   8.511  1.0887  0.3683  0.1721
  225MOL0     H29683   0.495   3.468   8.618 -1.9091  0.4547  3.1748
  225MOL0     H29684   0.358   3.846   8.430  0.0951 -0.0404 -1.2703
  225MOL0     H29685   0.335   4.052   8.361  0.9292 -0.8586  1.5515
  225MOL0     H29686   1.190   5.334   9.112  0.1700  0.1206 -2.8684
  225MOL0     H29687   1.193   5.522   9.253 -2.7672 -1.9573  0.4986
  225MOL0     H29688   1.336   5.856   9.505 -0.7694  2.3855  1.5644
  225MOL0     H29689   1.300   6.062   9.658  1.4254  2.1689 -1.7728
  225MOL0     H29690   0.932   6.325   9.680 -1.2910  0.9410  0.1625
  225MOL0     H29691   1.003   6.346   9.519  1.7294  1.4275 -0.0015
  225MOL0     H29692   1.067   6.554   9.639 -0.0761 -0.4260 -2.8060
  225MOL0     H29693   1.112   6.461   9.781  2.0186  1.0934 -1.0929
  225MOL0     H29694   1.312   6.422   9.688 -1.2197 -2.3973 -0.4622
  225MOL0     H29695   1.276   6.574   9.610 -0.9368  0.5527 -1.2311
  225MOL0     H29696   1.379   6.442   9.454 -0.7865 -1.1375 -2.9548
  225MOL0     H29697   1.275   6.298   9.486  1.8827 -0.6229  1.3558
  225MOL0     H29698   1.061   6.554   9.208 -1.7904 -3.2399 -0.4181
  225MOL0     H29699   0.930   6.130   9.451  2.0905  1.5639  1.2768
  225MOL0     H29700   0.982   5.942   9.299  5.3846 -1.1424 -1.9679
  226MOL0     O29701   4.092   1.210   7.977  0.4602  0.8940 -0.6910
  226MOL0     C29702   4.155   1.107   8.014 -0.8345  0.4780 -0.2208
  226MOL0     O29703   4.165   1.064   8.142 -0.1850 -0.5028 -0.3489
  226MOL0     C29704   4.099   1.150   8.225  1.5323  0.7313 -0.4291
  226MOL0     C29705   3.959   1.129   8.235 -0.5417  0.7452 -0.3027
  226MOL0     C29706   3.881   1.211   8.319 -0.4149 -0.3394 -0.4036
  226MOL0     C29707   3.942   1.309   8.395 -1.3515  0.7615 -0.0818
  226MOL0     O29708   3.881   1.373   8.498  0.2193 -0.1042 -0.3168
  226MOL0     C29709   3.770   1.450   8.452  1.3355 -0.1910 -0.2891
  226MOL0     C29710   3.799   1.555   8.336  0.4440 -0.7236 -0.3722
  226MOL0     C29711   3.894   1.654   8.396  0.5076 -0.0641 -0.9013
  226MOL0     C29712   3.933   1.755   8.292 -0.8863  0.1667  0.2991
  226MOL0     C29713   3.995   1.888   8.336 -0.4821  0.2921  0.3049
  226MOL0     C29714   3.895   1.967   8.418  0.4941 -0.9184 -0.2834
  226MOL0     C29715   3.950   2.070   8.518 -0.2738  0.2709  0.3769
  226MOL0     C29716   3.854   2.128   8.613  0.6455 -0.5633  0.6292
  226MOL0     N29717   3.914   2.227   8.708  0.0311 -0.1717 -0.8440
  226MOL0     C29718   3.929   2.366   8.700  0.1416 -0.5461 -0.2713
  226MOL0     C29719   3.980   2.410   8.816  0.0339 -0.8033  0.5863
  226MOL0     C29720   4.000   2.550   8.855  0.6539  0.2436  0.0657
  226MOL0     C29721   4.082   2.639   8.759 -0.4430  0.7075 -0.4483
  226MOL0     C29722   4.182   2.731   8.828 -0.0971 -0.4619 -0.7076
  226MOL0     C29723   4.283   2.679   8.928  0.0321 -0.0660 -0.1879
  226MOL0     O29724   4.339   2.796   8.990 -0.6702  0.4943  0.2146
  226MOL0     C29725   4.280   2.848   9.104  0.3984  0.2822  0.7981
  226MOL0     C29726   4.149   2.818   9.146  0.0164  0.0439  0.7267
  226MOL0     C29727   4.108   2.880   9.270 -0.8061  0.7567  0.7911
  226MOL0     C29728   4.190   2.956   9.359 -0.0965  0.6309 -0.4921
  226MOL0     C29729   4.149   3.022   9.486 -0.3071 -0.5392  0.5186
  226MOL0     O29730   4.244   3.028   9.583 -0.0082 -0.2914  0.2650
  226MOL0     C29731   4.200   3.052   9.708  0.7881  0.9377 -0.5926
  226MOL0     C29732   4.130   2.949   9.774  0.0093 -0.7021  0.4851
  226MOL0     C29733   4.112   2.952   9.919  0.6672  0.1222 -0.4508
  226MOL0     C29734   4.155   3.073   9.986  0.0051  0.4756 -0.8929
  226MOL0     O29735   4.149   3.102  10.118 -1.1907 -0.5844  0.7012
  226MOL0     C29736   4.080   3.014  10.207  0.3156 -0.7207 -0.3253
  226MOL0     C29737   4.078   3.071  10.341 -0.6260 -1.4091  0.7518
  226MOL0     C29738   4.017   2.981  10.452  0.2634  0.0011 -0.1595
  226MOL0     C29739   4.026   3.062  10.587  0.3169 -0.1661 -1.1404
  226MOL0     C29740   3.923   3.054  10.695  0.6906  0.7382  0.4894
  226MOL0     C29741   3.897   2.911  10.750 -0.3405 -0.1683  0.5423
  226MOL0     C29742   3.826   2.919  10.888  1.1038  0.7396 -0.2010
  226MOL0     C29743   3.705   2.815  10.892  0.4914  0.8926  1.1289
  226MOL0    Cl29744   3.609   2.859  11.033  0.1529  0.1103  0.3229
  226MOL0     C29745   4.227   3.169   9.920  0.8831  0.5801 -0.3296
  226MOL0     C29746   4.237   3.162   9.781  0.4949 -0.5000  0.1218
  226MOL0     O29747   4.023   3.028   9.500  0.4747 -0.2092  0.0018
  226MOL0     C29748   4.315   2.980   9.307 -0.1837 -0.6004  0.6063
  226MOL0     C29749   4.364   2.925   9.184  0.6487  0.4472 -0.7883
  226MOL0     N29750   3.991   2.301   8.902 -0.1100  0.1868  0.2884
  226MOL0     N29751   3.957   2.195   8.835  0.1073  0.2394  0.2237
  226MOL0     C29752   4.080   1.330   8.394  0.3866 -0.6470 -0.2066
  226MOL0     C29753   4.148   1.255   8.297  0.3450  0.5046  0.9218
  226MOL0     C29754   4.236   1.046   7.907  0.0239  0.1383  0.7171
  226MOL0     C29755   4.330   0.940   7.938 -0.6091 -0.3163  0.7515
  226MOL0     C29756   4.404   0.871   7.833 -0.4209 -0.2922 -0.5092
  226MOL0     C29757   4.382   0.913   7.700 -0.1237  0.1114  0.1313
  226MOL0     O29758   4.458   0.864   7.597  0.2549  0.0119  0.5916
  226MOL0     C29759   4.436   0.731   7.555  0.7253  0.2271  0.6426
  226MOL0     C29760   4.499   0.708   7.419 -0.0967  0.8240  0.3519
  226MOL0     C29761   4.430   0.788   7.307  1.3456  1.9822 -0.1986
  226MOL0     C29762   4.508   0.755   7.182  0.6275  0.5610  0.2026
  226MOL0     C29763   4.518   0.614   7.144 -0.2011 -0.9784 -0.4222
  226MOL0     C29764   4.518   0.498   7.109  0.5429  0.5805  0.2680
  226MOL0     C29765   4.286   1.013   7.670 -0.0623 -0.2551 -0.1632
  226MOL0     C29766   4.208   1.072   7.771 -0.1088 -0.8709  0.8838
  226MOL0     H29767   3.910   1.050   8.179 -1.5467  1.9819 -1.2404
  226MOL0     H29768   3.776   1.182   8.321 -0.1787 -1.2070  0.1110
  226MOL0     H29769   3.716   1.499   8.533  2.5533  1.7879 -0.5816
  226MOL0     H29770   3.694   1.378   8.421  1.5451 -1.5479  2.1277
  226MOL0     H29771   3.709   1.603   8.299  1.1888 -1.1381 -2.9387
  226MOL0     H29772   3.839   1.514   8.243 -2.6659 -0.6480 -1.8511
  226MOL0     H29773   3.979   1.597   8.432  0.5948 -0.5468 -1.8471
  226MOL0     H29774   3.834   1.697   8.477 -0.8015 -0.0612 -1.8356
  226MOL0     H29775   4.007   1.696   8.236 -0.8387 -0.5458  1.0895
  226MOL0     H29776   3.850   1.786   8.228  2.4663  2.2957 -3.5395
  226MOL0     H29777   4.001   1.953   8.248 -0.5040  0.6764  0.5902
  226MOL0     H29778   4.095   1.874   8.376  0.7696  1.6309 -2.0758
  226MOL0     H29779   3.848   1.894   8.485 -2.4824  0.1540 -1.0569
  226MOL0     H29780   3.819   2.009   8.352 -1.2860  1.0943  2.8181
  226MOL0     H29781   4.025   2.021   8.582  0.5826  0.4025 -0.5007
  226MOL0     H29782   4.011   2.148   8.472 -0.1620  1.9976  3.1904
  226MOL0     H29783   3.802   2.052   8.671 -1.5627  2.4454  2.9060
  226MOL0     H29784   3.786   2.177   8.543  1.3702  0.3209  0.5224
  226MOL0     H29785   3.910   2.426   8.612 -0.3325  0.8690  0.7517
  226MOL0     H29786   4.057   2.549   8.948  1.2184  1.1217 -0.2680
  226MOL0     H29787   3.899   2.592   8.863  0.7567  2.0318 -4.8573
  226MOL0     H29788   4.020   2.694   8.687  0.8757  2.6265 -0.2029
  226MOL0     H29789   4.134   2.566   8.698 -1.6998  0.2446 -0.9974
  226MOL0     H29790   4.237   2.782   8.748 -2.8578 -0.4858 -2.7922
  226MOL0     H29791   4.126   2.809   8.882  1.7862 -0.5410  1.5195
  226MOL0     H29792   4.360   2.628   8.870  0.1600  1.9767 -1.9884
  226MOL0     H29793   4.236   2.607   8.995  0.3222  0.9403  1.1467
  226MOL0     H29794   4.078   2.766   9.082 -0.7128  2.9412 -1.0068
  226MOL0     H29795   4.015   2.846   9.314 -0.4129 -0.1169  0.9615
  226MOL0     H29796   4.100   2.859   9.722  1.1420 -0.1555 -1.2111
  226MOL0     H29797   4.067   2.878   9.985 -1.7471  0.8386 -1.1693
  226MOL0     H29798   4.134   2.919  10.217  1.2970 -0.1352  0.0569
  226MOL0     H29799   3.977   3.005  10.172 -0.0360  1.6206 -0.0403
  226MOL0     H29800   4.026   3.167  10.333 -1.0067 -1.4928  2.0191
  226MOL0     H29801   4.182   3.103  10.356  0.6029 -2.9281 -3.2562
  226MOL0     H29802   4.076   2.891  10.472 -0.9363 -0.4643  1.4655
  226MOL0     H29803   3.913   2.951  10.437  0.0964  0.1521  0.5995
  226MOL0     H29804   4.115   3.041  10.647  0.3095  0.9333 -0.7054
  226MOL0     H29805   4.041   3.169  10.567 -1.0724  1.0594  3.0617
  226MOL0     H29806   3.831   3.096  10.653  2.4631  1.7758 -2.6424
  226MOL0     H29807   3.946   3.124  10.776  0.5489  2.5155 -0.9509
  226MOL0     H29808   3.989   2.854  10.761 -1.3596 -2.5895 -2.2455
  226MOL0     H29809   3.847   2.853  10.672  1.4028 -0.4457 -0.4022
  226MOL0     H29810   3.891   2.898  10.973 -1.9154 -1.7251  1.6925
  226MOL0     H29811   3.786   3.019  10.909  1.9892  0.8433  1.1328
  226MOL0     H29812   3.755   2.719  10.905 -1.5133 -0.6544 -1.5386
  226MOL0     H29813   3.646   2.804  10.800  2.3543 -1.8395  0.1466
  226MOL0     H29814   4.279   3.237   9.988  2.5473 -1.2562  0.3222
  226MOL0     H29815   4.294   3.241   9.733 -0.5942  1.2182  1.5210
  226MOL0     H29816   4.369   3.068   9.340 -3.3075  1.8672 -0.3085
  226MOL0     H29817   4.467   2.948   9.162  2.2995 -1.0261  4.1023
  226MOL0     H29818   4.124   1.417   8.443 -1.1660 -1.6743  3.3658
  226MOL0     H29819   4.254   1.277   8.293  0.3309  0.4696  0.2070
  226MOL0     H29820   4.355   0.931   8.044 -0.4866 -1.7451  0.6247
  226MOL0     H29821   4.484   0.804   7.861 -0.8140 -1.0126 -1.0662
  226MOL0     H29822   4.333   0.696   7.566  1.1500 -0.7227  1.8552
  226MOL0     H29823   4.492   0.669   7.626  2.5449 -0.5655 -1.3588
  226MOL0     H29824   4.607   0.717   7.426 -0.1662  0.9832  1.3184
  226MOL0     H29825   4.472   0.603   7.402  1.4976  0.6165 -1.2209
  226MOL0     H29826   4.443   0.893   7.333 -0.0945  2.7062 -2.1202
  226MOL0     H29827   4.322   0.767   7.302  1.8386 -0.7600 -1.5864
  226MOL0     H29828   4.475   0.819   7.099 -0.5127 -0.2440  0.0101
  226MOL0     H29829   4.613   0.784   7.194  1.7260 -2.8667  0.1828
  226MOL0     H29830   4.497   0.397   7.083  0.2118  0.1045  2.1729
  226MOL0     H29831   4.282   1.045   7.566  2.4782 -1.2743 -0.6454
  226MOL0     H29832   4.140   1.152   7.745  2.7132  1.5202  0.2719
  227MOL0     O29833   0.528   0.211   0.422 -0.6702 -1.2916 -0.9182
  227MOL0     C29834   0.425   0.177   0.362 -0.5768 -0.9093 -0.0255
  227MOL0     O29835   0.296   0.227   0.377 -0.1334  0.3535  0.5992
  227MOL0     C29836   0.273   0.295   0.488  0.2343 -0.4325  0.5622
  227MOL0     C29837   0.214   0.233   0.602  0.0154 -0.0109 -0.3050
  227MOL0     C29838   0.189   0.313   0.717 -0.7037  0.4689 -1.2179
  227MOL0     C29839   0.214   0.448   0.716 -0.9331  0.3131 -0.0721
  227MOL0     O29840   0.206   0.529   0.823 -0.0439 -0.4796 -0.0990
  227MOL0     C29841   0.135   0.498   0.942  0.1096 -0.2044  0.2974
  227MOL0     C29842  -0.021   0.508   0.908 -0.2753  0.8391  0.1334
  227MOL0     C29843  -0.054   0.639   0.824 -0.4817 -0.2374  0.4768
  227MOL0     C29844  -0.198   0.682   0.789  0.9083 -0.6075 -0.3245
  227MOL0     C29845  -0.208   0.835   0.746 -0.6153 -0.5921  1.4407
  227MOL0     C29846  -0.192   0.836   0.599  0.0483 -0.1285  0.7510
  227MOL0     C29847  -0.164   0.977   0.552  0.5747 -0.0761  0.1844
  227MOL0     C29848  -0.156   0.982   0.401  1.3770 -0.3176  0.3528
  227MOL0     N29849  -0.083   1.100   0.350  0.6253  0.2889  0.2978
  227MOL0     C29850   0.052   1.083   0.325 -0.0930 -0.2039  1.3006
  227MOL0     C29851   0.093   1.205   0.279 -0.0734  0.3983  0.0316
  227MOL0     C29852   0.233   1.229   0.237 -0.8726  0.1349  1.0092
  227MOL0     C29853   0.232   1.273   0.087 -0.8951 -0.8639 -0.8193
  227MOL0     C29854   0.374   1.302   0.056  0.1235 -0.0308  0.4164
  227MOL0     C29855   0.377   1.412  -0.061  0.0279  0.0791  0.7224
  227MOL0     O29856   0.292   1.379  -0.165  0.7104 -0.3420  0.2989
  227MOL0     C29857   0.316   1.430  -0.292 -0.0192 -0.1518  0.6359
  227MOL0     C29858   0.425   1.531  -0.309 -0.3111  0.5337  0.5548
  227MOL0     C29859   0.452   1.574  -0.435  0.0600 -0.5914  0.1489
  227MOL0     C29860   0.379   1.529  -0.546 -0.0510  0.6140 -0.0946
  227MOL0     C29861   0.406   1.591  -0.681 -0.6720  0.3234 -1.3312
  227MOL0     O29862   0.508   1.686  -0.693  0.1632 -0.5388 -0.3001
  227MOL0     C29863   0.522   1.760  -0.808  1.2712 -0.1999 -0.3501
  227MOL0     C29864   0.633   1.837  -0.809  0.3668 -0.3055  0.7987
  227MOL0     C29865   0.664   1.912  -0.924  0.3415  0.2810  0.6243
  227MOL0     C29866   0.575   1.931  -1.034 -0.1219 -0.5322  0.7677
  227MOL0     O29867   0.609   2.007  -1.141 -0.2345  0.6667 -0.4493
  227MOL0     C29868   0.745   2.026  -1.178  0.1866 -0.7607  0.2745
  227MOL0     C29869   0.751   2.150  -1.276 -0.3464 -1.1332  0.2309
  227MOL0     C29870   0.690   2.139  -1.418 -1.3316 -0.2597 -0.8058
  227MOL0     C29871   0.755   2.253  -1.506 -0.0956 -0.1889 -0.7453
  227MOL0     C29872   0.675   2.273  -1.634  0.1135  0.6070 -0.8676
  227MOL0     C29873   0.733   2.371  -1.744 -0.1422  0.3503 -0.6840
  227MOL0     C29874   0.706   2.518  -1.709 -0.8789 -0.2336 -0.5569
  227MOL0     C29875   0.770   2.605  -1.821  0.5649  0.3619  0.1835
  227MOL0    Cl29876   0.945   2.569  -1.822 -0.0945  0.2445  0.0425
  227MOL0     C29877   0.455   1.858  -1.030  0.6097 -0.6080 -0.1697
  227MOL0     C29878   0.432   1.769  -0.919  0.2494  0.2628 -0.6043
  227MOL0     O29879   0.350   1.536  -0.776 -0.2613 -0.7256  0.4462
  227MOL0     C29880   0.280   1.430  -0.533 -0.4353  0.4010  0.3770
  227MOL0     C29881   0.255   1.377  -0.405  0.5199 -0.8228 -0.6626
  227MOL0     N29882  -0.016   1.293   0.281 -1.0365 -0.7994  0.5848
  227MOL0     N29883  -0.121   1.221   0.311  0.2089 -0.8741  0.0092
  227MOL0     C29884   0.272   0.511   0.601 -0.4402  0.1106 -0.3502
  227MOL0     C29885   0.301   0.432   0.483 -0.3739 -0.6259 -1.0165
  227MOL0     C29886   0.446   0.076   0.248 -0.0193 -0.3952 -0.8088
  227MOL0     C29887   0.334   0.027   0.179 -0.1654 -0.0836 -0.7239
  227MOL0     C29888   0.345  -0.049   0.058 -0.0639  1.0299 -0.5872
  227MOL0     C29889   0.466  -0.093   0.017  0.3158 -0.4067 -0.0111
  227MOL0     O29890   0.463  -0.178  -0.081  0.4952 -0.0357 -0.4069
  227MOL0     C29891   0.578  -0.254  -0.104  0.2402  0.1569 -0.1170
  227MOL0     C29892   0.568  -0.313  -0.239  0.1735  1.1282 -0.6989
  227MOL0     C29893   0.470  -0.428  -0.250  0.1175 -0.0771  0.0608
  227MOL0     C29894   0.450  -0.496  -0.384 -0.4523  1.2440  0.5169
  227MOL0     C29895   0.559  -0.589  -0.416  0.1023 -0.6214 -0.4359
  227MOL0     C29896   0.648  -0.680  -0.434 -1.0592 -0.0203  0.1108
  227MOL0     C29897   0.582  -0.058   0.089 -0.5414 -0.6403  0.0915
  227MOL0     C29898   0.572   0.019   0.205 -0.1562 -0.2119  0.1303
  227MOL0     H29899   0.205   0.125   0.599 -1.3859  0.1167 -1.2495
  227MOL0     H29900   0.148   0.254   0.798 -2.4348 -0.2581 -2.5702
  227MOL0     H29901   0.166   0.577   1.011 -0.7449 -0.3176  0.8276
  227MOL0     H29902   0.145   0.395   0.979 -2.7291 -1.6113 -2.4061
  227MOL0     H29903  -0.081   0.487   0.998 -0.5222 -0.0233 -0.2238
  227MOL0     H29904  -0.042   0.429   0.836  0.9318  0.4208  0.2091
  227MOL0     H29905  -0.005   0.623   0.728 -3.2011 -1.3251 -0.8388
  227MOL0     H29906  -0.008   0.716   0.887  0.2159 -1.7328  1.8516
  227MOL0     H29907  -0.253   0.609   0.729 -2.6385 -2.1133  4.1754
  227MOL0     H29908  -0.247   0.683   0.886 -1.2041 -0.5185 -1.3433
  227MOL0     H29909  -0.124   0.893   0.783 -0.6099  1.0305 -0.8425
  227MOL0     H29910  -0.300   0.878   0.788 -2.1811 -2.4350  0.0876
  227MOL0     H29911  -0.278   0.788   0.551  0.5058 -2.0993  1.7959
  227MOL0     H29912  -0.104   0.771   0.587 -0.8185 -1.1715 -0.1739
  227MOL0     H29913  -0.232   1.053   0.593  1.4675 -0.0138  1.6209
  227MOL0     H29914  -0.065   1.010   0.587  0.2830  3.0933 -1.5534
  227MOL0     H29915  -0.259   0.976   0.365  0.7996 -2.9328  2.2000
  227MOL0     H29916  -0.108   0.895   0.355 -0.5651 -1.3200  0.1265
  227MOL0     H29917   0.110   0.991   0.329  1.5737  0.8453  2.0217
  227MOL0     H29918   0.304   1.150   0.263  0.4674  1.9108  3.0637
  227MOL0     H29919   0.276   1.306   0.301 -0.2331  1.1092 -0.5282
  227MOL0     H29920   0.155   1.351   0.094 -0.0086  0.0920 -1.4938
  227MOL0     H29921   0.180   1.205   0.018 -3.5621  1.2117 -1.0330
  227MOL0     H29922   0.430   1.336   0.145  0.4357  0.6205 -0.0162
  227MOL0     H29923   0.429   1.212   0.028  1.1577 -0.6163  3.7862
  227MOL0     H29924   0.480   1.400  -0.096 -1.0725 -0.9953 -2.5819
  227MOL0     H29925   0.354   1.513  -0.026  0.9298  1.8362 -3.1509
  227MOL0     H29926   0.489   1.567  -0.229 -0.6323  0.3542  0.8992
  227MOL0     H29927   0.527   1.653  -0.444 -1.5902  1.7443  3.9812
  227MOL0     H29928   0.701   1.832  -0.724  1.9580  2.3897 -0.2029
  227MOL0     H29929   0.762   1.958  -0.932  0.5468 -0.4874 -5.1153
  227MOL0     H29930   0.792   1.941  -1.228 -0.1357 -3.2404  3.7974
  227MOL0     H29931   0.812   2.064  -1.100  2.2332 -0.0843 -1.6963
  227MOL0     H29932   0.858   2.171  -1.291 -0.8262  0.0168 -1.9491
  227MOL0     H29933   0.719   2.232  -1.210  1.9421  0.7716 -0.8517
  227MOL0     H29934   0.581   2.148  -1.410 -1.3638 -0.6790 -0.7213
  227MOL0     H29935   0.717   2.040  -1.457 -3.6148 -1.7221  1.0249
  227MOL0     H29936   0.750   2.348  -1.453  3.8182  0.0372 -0.4992
  227MOL0     H29937   0.857   2.222  -1.531  0.6492  0.8068  0.9256
  227MOL0     H29938   0.567   2.288  -1.620  0.4905  1.9833  0.9202
  227MOL0     H29939   0.694   2.177  -1.682  1.8323  0.6704 -0.3608
  227MOL0     H29940   0.693   2.343  -1.842 -0.5720 -1.4538 -0.0404
  227MOL0     H29941   0.839   2.345  -1.739 -0.4123 -0.6635  0.4648
  227MOL0     H29942   0.598   2.538  -1.706 -0.4563  2.6156 -1.0730
  227MOL0     H29943   0.758   2.553  -1.620  0.8265 -1.9908 -0.8135
  227MOL0     H29944   0.746   2.711  -1.806  3.8680  1.4135 -0.9994
  227MOL0     H29945   0.733   2.563  -1.915  2.8783  0.8158 -1.0117
  227MOL0     H29946   0.374   1.881  -1.099 -0.7557  1.4698  2.0033
  227MOL0     H29947   0.333   1.726  -0.909  0.7923 -1.0510 -0.6460
  227MOL0     H29948   0.224   1.392  -0.618  0.5582 -1.9465  0.6956
  227MOL0     H29949   0.179   1.301  -0.396  2.0839 -2.5373 -1.3958
  227MOL0     H29950   0.286   0.618   0.592 -2.0545  0.5194  1.3461
  227MOL0     H29951   0.342   0.488   0.400 -3.1787  0.8555 -1.5206
  227MOL0     H29952   0.237   0.057   0.217  0.8939  3.0657 -0.2095
  227MOL0     H29953   0.252  -0.086   0.015  1.5916 -1.6195 -2.1242
  227MOL0     H29954   0.598  -0.325  -0.023 -3.9461 -0.8494  0.2476
  227MOL0     H29955   0.668  -0.196  -0.129  0.8399 -1.1245 -1.0012
  227MOL0     H29956   0.528  -0.237  -0.307 -1.6152 -0.7479 -1.8197
  227MOL0     H29957   0.663  -0.347  -0.282  0.2326  1.5635 -0.9235
  227MOL0     H29958   0.369  -0.392  -0.231 -0.8437 -0.5121 -3.5576
  227MOL0     H29959   0.504  -0.504  -0.179  2.9256 -3.3766 -4.3333
  227MOL0     H29960   0.354  -0.548  -0.384  1.0224 -1.7119  0.9466
  227MOL0     H29961   0.441  -0.425  -0.466 -0.9110  0.1514 -0.4072
  227MOL0     H29962   0.718  -0.759  -0.453 -1.0251 -0.3822  1.6117
  227MOL0     H29963   0.679  -0.098   0.059 -0.6629  1.1129 -3.1113
  227MOL0     H29964   0.661   0.044   0.261  0.4083 -2.1522  0.1610
  228MOL0     O29965   4.729   9.238   7.453  0.1189  0.1726 -0.7737
  228MOL0     C29966   4.609   9.264   7.453 -0.2856 -1.2337  0.4439
  228MOL0     O29967   4.528   9.313   7.553 -0.2680  0.2136  0.3153
  228MOL0     C29968   4.577   9.359   7.670  0.3660  0.6492  0.0262
  228MOL0     C29969   4.704   9.406   7.695 -0.0898  0.6141  0.6238
  228MOL0     C29970   4.731   9.470   7.810  0.0796 -0.2469 -0.1305
  228MOL0     C29971   4.637   9.497   7.908 -0.0517 -0.4437  0.0671
  228MOL0     O29972   4.669   9.573   8.018 -0.6782 -0.3883 -0.2808
  228MOL0     C29973   4.783   9.528   8.086  0.2694 -0.5167 -1.0303
  228MOL0     C29974   4.801   9.613   8.212  0.6914  0.7216 -0.0702
  228MOL0     C29975   4.921   9.580   8.307  0.0539  0.3674 -0.3608
  228MOL0     C29976   4.928   9.434   8.365  1.1021 -0.7242 -0.1337
  228MOL0     C29977   5.067   9.421   8.427 -0.4988 -1.1176 -0.1079
  228MOL0     C29978   5.086   9.286   8.499  0.7710  0.4523 -0.1375
  228MOL0     C29979   5.228   9.284   8.574 -0.1527 -1.8445  0.1629
  228MOL0     C29980   5.250   9.175   8.682 -0.4656  0.4444 -0.0190
  228MOL0     N29981   5.187   9.216   8.811  0.0987 -0.4076  0.5659
  228MOL0     C29982   5.054   9.213   8.844  0.7362  1.0329 -0.9483
  228MOL0     C29983   5.059   9.293   8.952  0.3436  0.3126 -0.3258
  228MOL0     C29984   4.935   9.340   9.029 -1.2220 -0.2824  0.1992
  228MOL0     C29985   4.797   9.318   8.966  0.5418 -0.2561 -0.1229
  228MOL0     C29986   4.770   9.430   8.859 -0.2502  0.2342  0.2428
  228MOL0     C29987   4.622   9.425   8.816 -0.1151 -0.3626  0.1154
  228MOL0     O29988   4.599   9.526   8.725  0.3372 -0.9658 -0.4821
  228MOL0     C29989   4.489   9.519   8.652  0.4111 -0.6940  0.0797
  228MOL0     C29990   4.374   9.442   8.671  0.0336  0.1592  0.5034
  228MOL0     C29991   4.264   9.446   8.576  0.0792 -0.2691 -0.2374
  228MOL0     C29992   4.270   9.529   8.463 -0.6265  0.0398 -0.0590
  228MOL0     C29993   4.159   9.527   8.355  0.7477  0.1542 -0.6716
  228MOL0     O29994   4.039   9.472   8.396 -0.2659  0.1214 -0.2030
  228MOL0     C29995   3.927   9.513   8.324 -0.4694  0.7550  0.7428
  228MOL0     C29996   3.880   9.421   8.224  0.1818  1.0779 -0.3657
  228MOL0     C29997   3.770   9.458   8.152 -0.0625 -0.1931  0.3071
  228MOL0     C29998   3.701   9.578   8.166  1.1546 -0.4274  0.4454
  228MOL0     O29999   3.593   9.619   8.089  0.0312 -0.4677  0.4722
  228MOL0     C30000   3.518   9.525   8.018 -0.9758 -1.1035  0.2289
  228MOL0     C30001   3.445   9.428   8.109  0.5134  0.6215 -0.3318
  228MOL0     C30002   3.324   9.362   8.037  0.8132 -0.0424 -0.7110
  228MOL0     C30003   3.351   9.289   7.907  0.5253  0.6638  0.3646
  228MOL0     C30004   3.231   9.251   7.827 -0.4553 -0.0433  0.5843
  228MOL0     C30005   3.264   9.169   7.715  0.2930  0.1734 -0.6554
  228MOL0     C30006   3.316   9.240   7.598 -0.0941  0.1412  0.5646
  228MOL0     C30007   3.324   9.138   7.474  0.2824 -0.3834  0.0347
  228MOL0    Cl30008   3.159   9.086   7.430  0.2691 -0.6307  0.4109
  228MOL0     C30009   3.754   9.675   8.255  0.2978 -0.0254 -0.1203
  228MOL0     C30010   3.866   9.641   8.327  0.3988  0.3389 -0.3245
  228MOL0     O30011   4.182   9.576   8.246  0.0684 -0.6237  0.2675
  228MOL0     C30012   4.394   9.602   8.438 -0.4876 -0.0190 -0.4863
  228MOL0     C30013   4.493   9.598   8.537 -0.2547  0.7047 -0.2098
  228MOL0     N30014   5.189   9.317   9.000  0.5445  0.0177 -0.3993
  228MOL0     N30015   5.258   9.290   8.902 -0.8856  0.2583  0.4392
  228MOL0     C30016   4.502   9.447   7.887  0.5844 -0.2725  0.2497
  228MOL0     C30017   4.475   9.368   7.775  0.7140 -0.4534  0.2338
  228MOL0     C30018   4.542   9.217   7.330 -0.2057 -0.6403  0.3417
  228MOL0     C30019   4.402   9.209   7.321  0.1275  0.1157 -0.6912
  228MOL0     C30020   4.335   9.157   7.204 -0.3437  0.4057  0.6917
  228MOL0     C30021   4.414   9.138   7.092  0.4448 -0.1216  0.0454
  228MOL0     O30022   4.347   9.071   6.987  0.2714  0.7622 -0.2133
  228MOL0     C30023   4.409   9.043   6.859  0.4775  0.1739 -1.0247
  228MOL0     C30024   4.403   9.178   6.775  0.0829 -0.2920 -0.8466
  228MOL0     C30025   4.463   9.135   6.631 -0.0917 -0.2170  1.0399
  228MOL0     C30026   4.563   9.232   6.573 -0.2434 -0.0770 -0.6274
  228MOL0     C30027   4.687   9.221   6.647 -0.3750  0.4074 -0.4919
  228MOL0     C30028   4.802   9.216   6.692  0.1647 -0.7249 -0.5314
  228MOL0     C30029   4.552   9.150   7.096 -0.1415 -0.0112 -0.5444
  228MOL0     C30030   4.618   9.191   7.211 -0.0926 -0.2527 -0.3294
  228MOL0     H30031   4.762   9.406   7.603 -0.6675 -1.8422  0.1836
  228MOL0     H30032   4.830   9.511   7.826 -0.4134  0.5343  0.9959
  228MOL0     H30033   4.867   9.547   8.018  3.1366 -1.7575  1.8727
  228MOL0     H30034   4.777   9.422   8.113  3.6774 -0.1842  1.7925
  228MOL0     H30035   4.712   9.601   8.275  1.5443 -1.0125  0.8667
  228MOL0     H30036   4.804   9.717   8.179  2.1944  0.5176 -0.6501
  228MOL0     H30037   4.932   9.645   8.394 -1.9749  0.0329  0.1843
  228MOL0     H30038   5.012   9.599   8.249  1.2253 -1.0520  0.8985
  228MOL0     H30039   4.849   9.420   8.440  2.3314  2.5107  1.9953
  228MOL0     H30040   4.934   9.365   8.281 -2.4050 -0.3337 -0.8567
  228MOL0     H30041   5.089   9.498   8.503  0.3722 -2.3511  0.9461
  228MOL0     H30042   5.145   9.418   8.350 -0.2094 -2.2341  0.2018
  228MOL0     H30043   5.086   9.205   8.426 -3.6576  1.5497 -1.6808
  228MOL0     H30044   5.007   9.278   8.574  1.3734  2.0640  0.7349
  228MOL0     H30045   5.309   9.278   8.500  1.1700  2.7204  0.9021
  228MOL0     H30046   5.226   9.390   8.602 -1.5316  0.2229 -6.1090
  228MOL0     H30047   5.357   9.156   8.690  0.4242 -0.7515 -7.4127
  228MOL0     H30048   5.217   9.079   8.641  1.8859 -0.5793  0.3686
  228MOL0     H30049   4.967   9.183   8.786 -1.4350 -0.5216  2.7399
  228MOL0     H30050   4.945   9.446   9.055  1.1718 -0.0060 -1.5219
  228MOL0     H30051   4.933   9.286   9.124  1.8770  1.5035  1.4415
  228MOL0     H30052   4.735   9.314   9.056  0.5951 -2.3248 -0.1197
  228MOL0     H30053   4.792   9.214   8.933  0.2710 -0.1961 -0.2736
  228MOL0     H30054   4.797   9.532   8.885 -1.4240  0.7679 -0.5286
  228MOL0     H30055   4.844   9.409   8.781  2.6744  0.2786  2.7950
  228MOL0     H30056   4.559   9.436   8.904 -0.7536 -0.6712 -0.2922
  228MOL0     H30057   4.599   9.326   8.774  1.0390 -0.6453  0.1194
  228MOL0     H30058   4.358   9.382   8.761 -1.3102 -1.5582 -0.8092
  228MOL0     H30059   4.171   9.394   8.597 -1.4016  0.4836 -4.1014
  228MOL0     H30060   3.918   9.320   8.219 -1.9189  0.1817  0.4796
  228MOL0     H30061   3.725   9.386   8.084 -3.6826  2.4712 -0.3808
  228MOL0     H30062   3.582   9.483   7.939  2.5601  3.2750  0.3592
  228MOL0     H30063   3.451   9.592   7.963 -0.6908  0.1723  1.4018
  228MOL0     H30064   3.419   9.479   8.202  2.8227  0.2627  0.5816
  228MOL0     H30065   3.511   9.345   8.136  1.9735  0.8242 -2.9593
  228MOL0     H30066   3.257   9.448   8.024 -1.0887 -0.8895  2.4839
  228MOL0     H30067   3.272   9.292   8.102  0.5396  0.5540 -0.2801
  228MOL0     H30068   3.399   9.358   7.838  2.6917 -0.9039  0.1998
  228MOL0     H30069   3.419   9.205   7.923 -1.1583 -0.6841  0.6871
  228MOL0     H30070   3.166   9.337   7.806 -0.3288 -0.4934 -1.9408
  228MOL0     H30071   3.172   9.183   7.889 -3.2462  0.0424 -1.7722
  228MOL0     H30072   3.168   9.129   7.681  0.9381 -1.7950 -0.2974
  228MOL0     H30073   3.332   9.092   7.752  0.5628  2.3852  4.1587
  228MOL0     H30074   3.239   9.317   7.585 -1.8058 -1.7050 -0.7628
  228MOL0     H30075   3.415   9.280   7.620 -0.0485 -0.6897  1.9800
  228MOL0     H30076   3.383   9.047   7.491  1.6284  0.5170  0.3286
  228MOL0     H30077   3.371   9.192   7.391 -0.0642  0.8756  0.6343
  228MOL0     H30078   3.694   9.765   8.267 -0.0369  0.0542 -2.0010
  228MOL0     H30079   3.907   9.713   8.397 -2.5285  0.0769  1.8305
  228MOL0     H30080   4.403   9.670   8.354 -0.5851 -0.0183 -0.4962
  228MOL0     H30081   4.575   9.661   8.505 -0.3601  0.6124 -0.6645
  228MOL0     H30082   4.423   9.477   7.956 -0.1736 -1.4662 -0.0657
  228MOL0     H30083   4.369   9.346   7.760  0.4739  0.6070  0.2865
  228MOL0     H30084   4.342   9.235   7.407  1.0800 -2.8069  1.0029
  228MOL0     H30085   4.228   9.153   7.191 -0.0323 -0.2460 -2.2418
  228MOL0     H30086   4.340   8.972   6.814  0.5553 -0.7434  0.2328
  228MOL0     H30087   4.508   8.999   6.870  0.0398 -0.3385  1.7455
  228MOL0     H30088   4.300   9.213   6.779 -0.0873 -0.9099  1.7211
  228MOL0     H30089   4.471   9.243   6.830 -0.8732 -1.4293  1.8595
  228MOL0     H30090   4.376   9.120   6.566 -0.1389 -0.9885  1.2786
  228MOL0     H30091   4.509   9.036   6.643  0.7810  0.1758  1.0403
  228MOL0     H30092   4.588   9.203   6.471  2.1867 -0.3228 -0.0202
  228MOL0     H30093   4.527   9.335   6.561  1.0120  0.1290 -3.4000
  228MOL0     H30094   4.903   9.214   6.727 -0.2831 -3.7631  0.9859
  228MOL0     H30095   4.624   9.119   7.020 -2.7032 -1.5744 -2.5059
  228MOL0     H30096   4.726   9.195   7.202  0.1609 -2.0866  1.1849
  229MOL0     O30097   0.825   8.074   6.817  0.2921 -0.0657  0.6379
  229MOL0     C30098   0.917   8.090   6.734 -0.7951 -0.6888  0.7075
  229MOL0     O30099   1.049   8.038   6.743 -0.6513 -0.5439 -0.2145
  229MOL0     C30100   1.083   7.971   6.852 -0.0752 -0.6012  0.1385
  229MOL0     C30101   1.110   8.040   6.971  0.3610  0.0716  0.2512
  229MOL0     C30102   1.171   7.991   7.083  0.4658 -0.5345 -0.8824
  229MOL0     C30103   1.216   7.861   7.081  0.8846  0.8693  0.1369
  229MOL0     O30104   1.297   7.803   7.176 -0.0507  0.2295 -0.0267
  229MOL0     C30105   1.347   7.889   7.284  0.5437 -0.2346 -0.1458
  229MOL0     C30106   1.445   7.821   7.378 -0.8004 -0.2565 -0.0798
  229MOL0     C30107   1.582   7.807   7.313 -0.4605  0.1705 -0.6011
  229MOL0     C30108   1.695   7.788   7.412 -0.1783  0.2713  0.1915
  229MOL0     C30109   1.816   7.759   7.342 -0.4872  0.8930 -0.1196
  229MOL0     C30110   1.930   7.785   7.439  0.7884  0.1767 -0.5840
  229MOL0     C30111   2.062   7.782   7.380 -0.2237 -0.6937  0.1300
  229MOL0     C30112   2.178   7.764   7.478  1.5628  0.5228 -0.2968
  229MOL0     N30113   2.217   7.879   7.559  0.6026  0.0574 -0.3896
  229MOL0     C30114   2.187   8.010   7.543 -0.8462 -0.8488  0.2199
  229MOL0     C30115   2.273   8.064   7.639 -0.7151 -0.0539  0.4035
  229MOL0     C30116   2.288   8.213   7.658 -0.3458  0.4419  0.0101
  229MOL0     C30117   2.195   8.263   7.780  0.1848 -0.5569 -0.3853
  229MOL0     C30118   2.235   8.189   7.913 -0.6951 -0.3681  0.6198
  229MOL0     C30119   2.173   8.266   8.032  0.5659  0.3498  0.0759
  229MOL0     O30120   2.187   8.189   8.144  0.1043 -0.0103  0.1940
  229MOL0     C30121   2.301   8.183   8.215  0.0983  0.5335 -0.4378
  229MOL0     C30122   2.298   8.122   8.335  0.5992  0.0683 -0.7825
  229MOL0     C30123   2.410   8.104   8.419  0.5155  0.2650  0.0037
  229MOL0     C30124   2.534   8.152   8.387  0.4772 -0.2361 -0.1225
  229MOL0     C30125   2.652   8.135   8.477 -0.6178  0.5706 -0.0235
  229MOL0     O30126   2.763   8.204   8.442  0.3416  0.6409 -0.1823
  229MOL0     C30127   2.868   8.214   8.533  0.1567 -0.3938  0.0174
  229MOL0     C30128   2.893   8.349   8.587  0.0223  1.0639 -0.2299
  229MOL0     C30129   3.003   8.360   8.681 -0.9680  0.0167  0.9757
  229MOL0     C30130   3.078   8.247   8.719 -0.2347 -0.2962 -0.2556
  229MOL0     O30131   3.166   8.248   8.822 -0.1216 -0.9490 -0.8380
  229MOL0     C30132   3.230   8.364   8.867 -0.0965  0.2798 -0.1599
  229MOL0     C30133   3.340   8.328   8.966 -0.1824  0.2980 -0.6439
  229MOL0     C30134   3.451   8.431   8.971 -0.7785 -0.2471  0.4278
  229MOL0     C30135   3.570   8.405   9.063 -0.2845  0.2932 -0.1765
  229MOL0     C30136   3.559   8.436   9.212  0.9735  0.3191  0.9376
  229MOL0     C30137   3.696   8.419   9.281 -0.2718 -0.3405  0.0252
  229MOL0     C30138   3.706   8.467   9.427  0.4963  0.4289 -0.0488
  229MOL0     C30139   3.837   8.434   9.508 -0.2958  0.5576 -0.1939
  229MOL0    Cl30140   3.819   8.425   9.681  0.3605  0.3476  0.1138
  229MOL0     C30141   3.052   8.130   8.656  0.1962  0.1842 -0.2519
  229MOL0     C30142   2.952   8.103   8.568 -0.2179  0.0365  0.7638
  229MOL0     O30143   2.642   8.065   8.570  0.4486  0.6813 -0.5298
  229MOL0     C30144   2.539   8.229   8.268 -0.6683 -0.6393  0.5295
  229MOL0     C30145   2.429   8.235   8.174 -0.6541  0.7676 -0.1943
  229MOL0     N30146   2.343   7.964   7.709  0.0899 -0.3488  0.0034
  229MOL0     N30147   2.305   7.849   7.664  0.3851  0.1331  0.2714
  229MOL0     C30148   1.191   7.791   6.965 -0.2282  1.0524  0.9075
  229MOL0     C30149   1.129   7.843   6.849  0.2792  0.6791 -0.2030
  229MOL0     C30150   0.895   8.188   6.630  0.1914 -0.0164  0.9526
  229MOL0     C30151   0.763   8.246   6.605 -0.4507  0.7132  0.1045
  229MOL0     C30152   0.733   8.335   6.503  0.1781  0.3406  0.5398
  229MOL0     C30153   0.827   8.379   6.407 -0.3592 -0.1325 -0.2747
  229MOL0     O30154   0.781   8.475   6.319 -0.0437  0.9011  0.4132
  229MOL0     C30155   0.873   8.531   6.224 -0.5403  0.3406  0.1464
  229MOL0     C30156   0.802   8.640   6.141 -0.2864  0.2966  0.3593
  229MOL0     C30157   0.730   8.577   6.026  0.7366 -1.0683  0.2989
  229MOL0     C30158   0.822   8.499   5.923  0.1960 -0.6084 -0.8798
  229MOL0     C30159   0.814   8.565   5.791  0.4876 -0.3033 -0.8734
  229MOL0     C30160   0.809   8.628   5.690 -0.3144  1.1584  0.4192
  229MOL0     C30161   0.957   8.317   6.424 -0.5380  0.4315  0.9406
  229MOL0     C30162   0.986   8.216   6.524 -1.2503 -0.0773  0.0946
  229MOL0     H30163   1.070   8.139   6.990  1.1954  0.0829  2.2430
  229MOL0     H30164   1.190   8.066   7.160  3.2257 -2.8130  0.8592
  229MOL0     H30165   1.257   7.922   7.338  0.8613 -0.3106  0.4358
  229MOL0     H30166   1.396   7.978   7.246 -0.5788 -0.0268 -1.1648
  229MOL0     H30167   1.403   7.726   7.414  0.8791 -1.0819 -0.2209
  229MOL0     H30168   1.440   7.876   7.473 -1.4034 -0.9021  0.2698
  229MOL0     H30169   1.616   7.894   7.256  0.5296  0.5308  0.4889
  229MOL0     H30170   1.570   7.725   7.243 -0.4473 -2.5542  2.3643
  229MOL0     H30171   1.696   7.876   7.478 -0.5061  0.0389  0.5075
  229MOL0     H30172   1.673   7.695   7.464 -0.0281 -0.8995 -1.7255
  229MOL0     H30173   1.818   7.827   7.256  0.2692  2.8059  1.3176
  229MOL0     H30174   1.818   7.655   7.309 -0.2265  0.4584  1.1774
  229MOL0     H30175   1.918   7.703   7.510 -0.0801  0.5376 -0.2986
  229MOL0     H30176   1.917   7.874   7.502  0.0570 -1.2465  1.3918
  229MOL0     H30177   2.066   7.696   7.314 -2.6256 -0.2620 -0.6676
  229MOL0     H30178   2.085   7.877   7.331  0.8120 -0.9583  0.0928
  229MOL0     H30179   2.262   7.727   7.418  0.7303 -5.5087  1.6638
  229MOL0     H30180   2.150   7.681   7.543 -0.1435  3.1408  2.6152
  229MOL0     H30181   2.122   8.065   7.476 -2.3204 -2.1180  0.5261
  229MOL0     H30182   2.255   8.263   7.567 -0.0819  0.6563  0.0308
  229MOL0     H30183   2.397   8.218   7.674 -0.5284  0.9787  1.1879
  229MOL0     H30184   2.090   8.239   7.756  0.8682 -2.3599 -1.8906
  229MOL0     H30185   2.216   8.368   7.797 -0.9110 -0.0031 -2.1761
  229MOL0     H30186   2.194   8.088   7.914  0.0864 -0.7468 -1.6277
  229MOL0     H30187   2.342   8.179   7.934 -1.5074 -2.0250  5.0786
  229MOL0     H30188   2.064   8.271   8.027  0.5548 -0.5827 -1.1408
  229MOL0     H30189   2.206   8.370   8.042 -1.6347  1.2607 -1.2924
  229MOL0     H30190   2.203   8.081   8.368  1.3168 -1.4922 -0.5484
  229MOL0     H30191   2.392   8.064   8.518  1.4804  3.4496  1.5964
  229MOL0     H30192   2.836   8.439   8.565 -0.1040  1.7161  2.3905
  229MOL0     H30193   3.024   8.457   8.724 -2.2468  0.1752  1.2670
  229MOL0     H30194   3.162   8.435   8.916  0.0901  3.5911 -4.0915
  229MOL0     H30195   3.275   8.409   8.778  1.1864  0.7443  0.7125
  229MOL0     H30196   3.376   8.231   8.933  1.0070  0.1627  0.9527
  229MOL0     H30197   3.295   8.323   9.066  2.4701 -2.1096  0.5560
  229MOL0     H30198   3.410   8.528   9.000  0.0834  0.4725 -0.6762
  229MOL0     H30199   3.472   8.455   8.866 -3.1794  1.7861  0.3235
  229MOL0     H30200   3.600   8.300   9.051 -1.5498 -0.4360  2.3629
  229MOL0     H30201   3.652   8.464   9.021  1.0315  0.0489  1.9010
  229MOL0     H30202   3.473   8.379   9.249  1.1607 -0.8440 -0.3752
  229MOL0     H30203   3.536   8.543   9.223 -0.0492  0.4484 -1.7958
  229MOL0     H30204   3.764   8.480   9.221  0.3006  0.0921  1.0954
  229MOL0     H30205   3.724   8.314   9.268  5.5252  1.1364 -2.6936
  229MOL0     H30206   3.689   8.575   9.432 -0.0386  0.4929 -2.1781
  229MOL0     H30207   3.625   8.417   9.481  1.4461 -0.8448  0.2233
  229MOL0     H30208   3.925   8.495   9.484  0.6661 -1.2874 -1.6274
  229MOL0     H30209   3.857   8.331   9.476 -1.9696 -0.0981  0.7214
  229MOL0     H30210   3.126   8.059   8.692  0.2792  1.8324  3.2233
  229MOL0     H30211   2.926   8.010   8.518 -5.3582  2.2351 -1.3609
  229MOL0     H30212   2.615   8.301   8.241 -2.2246  1.2311  0.9229
  229MOL0     H30213   2.450   8.283   8.079  4.1523  1.0298  0.7352
  229MOL0     H30214   1.222   7.687   6.968  0.4425  1.1759 -0.6003
  229MOL0     H30215   1.134   7.799   6.750  3.3627  1.1325 -0.3540
  229MOL0     H30216   0.678   8.225   6.669 -1.7300  2.2980 -0.9540
  229MOL0     H30217   0.631   8.372   6.497 -1.4930 -3.3010  2.8119
  229MOL0     H30218   0.916   8.448   6.166 -0.5856 -1.1748  2.1527
  229MOL0     H30219   0.961   8.574   6.273 -0.5195  3.8674 -2.5892
  229MOL0     H30220   0.732   8.691   6.208 -1.4793 -1.9434  0.9173
  229MOL0     H30221   0.881   8.708   6.108 -1.8421  1.8285 -0.3684
  229MOL0     H30222   0.662   8.648   5.979 -0.0161 -0.8887  1.6021
  229MOL0     H30223   0.647   8.512   6.054 -3.7021  3.5224 -0.7169
  229MOL0     H30224   0.925   8.501   5.961 -0.1667 -2.7005  0.3726
  229MOL0     H30225   0.799   8.392   5.918 -0.9167 -0.8757  4.3012
  229MOL0     H30226   0.800   8.666   5.590  0.9411 -0.2136 -0.2427
  229MOL0     H30227   1.033   8.335   6.349 -0.7308 -2.9192 -0.2396
  229MOL0     H30228   1.091   8.189   6.527 -1.0807  0.5326 -0.0442
  230MOL0     O30229   8.712   8.038   3.038  0.2126  0.2284  0.1207
  230MOL0     C30230   8.694   8.083   2.925 -0.6590  0.8814  0.8208
  230MOL0     O30231   8.590   8.161   2.884 -0.0294  0.0256 -0.8729
  230MOL0     C30232   8.493   8.213   2.969  0.2086  0.8053  0.5593
  230MOL0     C30233   8.401   8.132   3.028 -0.1721 -0.1545  0.1853
  230MOL0     C30234   8.299   8.181   3.113  0.3460 -0.0605 -0.7472
  230MOL0     C30235   8.297   8.314   3.149 -0.6079 -0.2804 -0.4316
  230MOL0     O30236   8.210   8.347   3.248  0.4536  0.1787 -0.1995
  230MOL0     C30237   8.179   8.478   3.282  0.1317 -0.3315  0.9250
  230MOL0     C30238   8.061   8.497   3.380 -0.2552  0.0504 -0.3543
  230MOL0     C30239   8.073   8.415   3.503  1.1378  0.3502 -0.6428
  230MOL0     C30240   7.970   8.430   3.606 -0.0734 -0.6296 -0.6978
  230MOL0     C30241   7.943   8.326   3.706 -0.4653  0.6436  0.0202
  230MOL0     C30242   7.841   8.359   3.807 -0.4132 -0.0265  0.2048
  230MOL0     C30243   7.849   8.262   3.924  0.2118 -0.0878  0.4085
  230MOL0     C30244   7.761   8.308   4.037  0.9001 -0.5084 -0.0109
  230MOL0     N30245   7.736   8.212   4.149 -0.0593 -0.6579  0.4867
  230MOL0     C30246   7.804   8.194   4.262  0.6752  0.4399 -0.5855
  230MOL0     C30247   7.760   8.076   4.305  0.3779 -0.1407  0.8500
  230MOL0     C30248   7.842   8.004   4.408  0.2239 -0.7594  0.1505
  230MOL0     C30249   7.759   7.957   4.530 -0.6673  0.0942  0.3532
  230MOL0     C30250   7.649   8.056   4.575 -0.0359 -0.0401 -0.1714
  230MOL0     C30251   7.569   7.993   4.687 -0.3987  0.0450  0.0022
  230MOL0     O30252   7.650   7.940   4.795  0.4205  0.0539  0.3764
  230MOL0     C30253   7.580   7.897   4.914  0.7650 -0.4241 -1.1342
  230MOL0     C30254   7.441   7.871   4.921  1.0850 -0.3786 -0.1622
  230MOL0     C30255   7.396   7.829   5.049  0.1294  0.5542 -0.2450
  230MOL0     C30256   7.486   7.803   5.152 -0.6354  0.2013  0.3263
  230MOL0     C30257   7.434   7.743   5.269 -0.9059 -0.3231 -0.4370
  230MOL0     O30258   7.487   7.794   5.376 -0.1638  0.0689  0.7327
  230MOL0     C30259   7.452   7.744   5.503 -0.2477  0.3624 -0.3664
  230MOL0     C30260   7.553   7.727   5.598 -0.0496 -0.6671 -0.1299
  230MOL0     C30261   7.525   7.679   5.726 -0.3264  0.8871  0.1407
  230MOL0     C30262   7.398   7.681   5.780  0.8015 -1.0297  0.3642
  230MOL0     O30263   7.350   7.657   5.905  0.3731 -0.0329  0.2376
  230MOL0     C30264   7.440   7.668   6.012 -1.3414  0.0625 -0.9941
  230MOL0     C30265   7.476   7.820   6.043  0.9631  0.3296 -0.3138
  230MOL0     C30266   7.360   7.885   6.118  0.2464 -0.6817 -0.3686
  230MOL0     C30267   7.376   8.041   6.118  0.5026  0.9124 -0.1411
  230MOL0     C30268   7.308   8.098   6.248 -0.5591  0.2558  0.5174
  230MOL0     C30269   7.158   8.109   6.234  0.7640 -0.0566  0.5609
  230MOL0     C30270   7.085   7.996   6.304 -0.6310 -0.0780 -1.4501
  230MOL0     C30271   6.949   7.987   6.254  0.0175  0.8133 -0.1132
  230MOL0    Cl30272   6.847   8.121   6.291  0.3796 -0.0542 -0.2446
  230MOL0     C30273   7.295   7.709   5.689  0.5159 -0.8759 -1.1445
  230MOL0     C30274   7.320   7.732   5.554  0.1736 -0.7704 -0.0571
  230MOL0     O30275   7.335   7.670   5.258  0.7330  0.4224  0.5880
  230MOL0     C30276   7.619   7.840   5.136  0.8309  0.2178 -0.0046
  230MOL0     C30277   7.668   7.877   5.017  0.6456 -0.5770  0.5560
  230MOL0     N30278   7.663   8.013   4.217  0.2172 -0.3782  0.6605
  230MOL0     N30279   7.663   8.095   4.123  0.0656 -0.3053 -0.3232
  230MOL0     C30280   8.389   8.404   3.087 -0.1848 -0.3525 -0.1309
  230MOL0     C30281   8.478   8.353   2.992 -0.5609  0.1365  0.1879
  230MOL0     C30282   8.778   8.030   2.808 -0.4469  0.1095  0.2556
  230MOL0     C30283   8.751   8.057   2.674  0.7167 -1.0513  1.6530
  230MOL0     C30284   8.824   8.003   2.567  0.4195 -1.2616  0.4099
  230MOL0     C30285   8.918   7.908   2.598 -0.1044 -0.0796 -0.1149
  230MOL0     O30286   8.984   7.856   2.487  0.8550 -0.3389 -0.3553
  230MOL0     C30287   9.128   7.838   2.490  0.5509 -0.7992  0.1958
  230MOL0     C30288   9.201   7.895   2.375 -1.2672  0.1380  0.8799
  230MOL0     C30289   9.169   8.039   2.340 -0.4611 -0.7098 -0.5146
  230MOL0     C30290   9.292   8.110   2.268  0.8341 -0.4395  0.7246
  230MOL0     C30291   9.286   8.075   2.127  0.0670  0.6529  0.2374
  230MOL0     C30292   9.278   8.053   2.005  0.1810  0.3283 -0.0920
  230MOL0     C30293   8.932   7.862   2.726  0.9673 -0.0346  0.5894
  230MOL0     C30294   8.863   7.920   2.830 -0.4081  0.2128 -0.1249
  230MOL0     H30295   8.414   8.027   3.002 -1.4178 -0.0163 -1.1460
  230MOL0     H30296   8.223   8.126   3.167 -0.5102 -0.5937 -2.4234
  230MOL0     H30297   8.161   8.539   3.194  0.8900  0.8863  1.5888
  230MOL0     H30298   8.266   8.522   3.332 -0.8525 -0.2259  2.6208
  230MOL0     H30299   7.985   8.452   3.315  2.1214 -2.7156 -1.4371
  230MOL0     H30300   8.032   8.597   3.415  2.7916  0.4017  1.5274
  230MOL0     H30301   8.167   8.436   3.554  0.5218  0.7464  0.3673
  230MOL0     H30302   8.077   8.312   3.465  3.6667  0.7455 -1.6491
  230MOL0     H30303   7.992   8.521   3.662 -1.0920 -1.4302  1.0920
  230MOL0     H30304   7.875   8.442   3.553  0.0674  0.2313 -0.7554
  230MOL0     H30305   8.034   8.309   3.766 -0.5306 -2.9915 -0.6588
  230MOL0     H30306   7.921   8.237   3.646 -1.7813 -0.3472  1.8605
  230MOL0     H30307   7.745   8.369   3.754 -0.8248  0.0023  0.9394
  230MOL0     H30308   7.871   8.457   3.846  0.8603 -0.6154  0.7369
  230MOL0     H30309   7.804   8.170   3.885 -0.1313  0.9716 -1.8471
  230MOL0     H30310   7.951   8.239   3.958  1.3768  1.7506 -1.5897
  230MOL0     H30311   7.662   8.325   3.995  0.6562 -1.4779  0.1424
  230MOL0     H30312   7.800   8.400   4.081 -1.9544  0.6358  0.3500
  230MOL0     H30313   7.889   8.252   4.295  2.3948 -2.7881  1.1517
  230MOL0     H30314   7.929   8.059   4.444  1.0915 -3.4021  2.5209
  230MOL0     H30315   7.892   7.916   4.365  2.0522  1.2549 -2.1554
  230MOL0     H30316   7.833   7.949   4.610  1.4361  1.7477 -1.3006
  230MOL0     H30317   7.714   7.860   4.507  3.1779 -1.1362 -3.2950
  230MOL0     H30318   7.703   8.142   4.616 -1.3366 -0.3437  2.4434
  230MOL0     H30319   7.583   8.088   4.494 -0.3970  2.0989  0.8618
  230MOL0     H30320   7.508   7.914   4.642  2.0922 -1.6063 -0.7119
  230MOL0     H30321   7.496   8.062   4.731 -0.9059  0.6307 -1.6823
  230MOL0     H30322   7.388   7.890   4.828  1.8638  0.8874 -0.3591
  230MOL0     H30323   7.291   7.823   5.074  0.6836  0.1186  2.2455
  230MOL0     H30324   7.646   7.718   5.544  0.6525  0.1303  0.9089
  230MOL0     H30325   7.602   7.638   5.791 -1.1564  1.3498  1.4482
  230MOL0     H30326   7.526   7.604   5.990 -0.1514  1.3907 -0.3885
  230MOL0     H30327   7.391   7.627   6.101 -1.7989  0.1963 -1.1834
  230MOL0     H30328   7.498   7.872   5.950 -1.3730 -2.0944 -2.3953
  230MOL0     H30329   7.562   7.824   6.111  2.0202  0.9811 -1.6636
  230MOL0     H30330   7.367   7.861   6.225 -1.1840  0.2703 -0.0280
  230MOL0     H30331   7.265   7.837   6.092 -0.6903 -0.2458  1.9947
  230MOL0     H30332   7.484   8.058   6.123  0.8899 -1.6277  2.1648
  230MOL0     H30333   7.331   8.082   6.027 -3.5405 -0.9475  0.8031
  230MOL0     H30334   7.335   8.204   6.257  0.7911  0.1692 -1.6867
  230MOL0     H30335   7.323   8.035   6.336 -0.8250 -1.3605 -0.5628
  230MOL0     H30336   7.137   8.105   6.127  1.3445 -2.2141  0.4773
  230MOL0     H30337   7.122   8.205   6.272 -0.1215  0.6703 -1.9621
  230MOL0     H30338   7.137   7.904   6.278 -0.1106 -0.0760 -0.4628
  230MOL0     H30339   7.086   8.005   6.413  2.4546 -0.0002 -1.3962
  230MOL0     H30340   6.906   7.896   6.298  0.5968  0.8584  0.5763
  230MOL0     H30341   6.943   7.976   6.146  0.5246 -0.2217 -0.0478
  230MOL0     H30342   7.195   7.713   5.730  0.8219  2.1064 -0.4663
  230MOL0     H30343   7.239   7.743   5.482  0.9120 -0.5394 -0.8587
  230MOL0     H30344   7.685   7.845   5.222 -0.0080 -0.0334  0.6622
  230MOL0     H30345   7.772   7.901   4.997  0.3377  0.2375 -0.1551
  230MOL0     H30346   8.392   8.504   3.128  2.3620  0.5977 -2.3175
  230MOL0     H30347   8.556   8.412   2.944 -0.7195  1.1332  1.1035
  230MOL0     H30348   8.683   8.136   2.642 -0.2003 -2.8240 -1.1245
  230MOL0     H30349   8.816   8.024   2.461  1.4751 -1.2347  0.3243
  230MOL0     H30350   9.163   7.735   2.498  6.6075  0.6430 -2.0837
  230MOL0     H30351   9.165   7.901   2.572 -1.5876 -0.9134  1.3068
  230MOL0     H30352   9.305   7.881   2.406 -1.4414 -0.8091  1.0553
  230MOL0     H30353   9.181   7.833   2.287 -0.4586 -2.0691  2.1690
  230MOL0     H30354   9.156   8.095   2.433 -3.2440 -1.3588 -0.4165
  230MOL0     H30355   9.076   8.027   2.283 -0.4306  1.3012 -1.0516
  230MOL0     H30356   9.277   8.218   2.273 -2.3828 -0.6147 -1.9896
  230MOL0     H30357   9.391   8.082   2.306 -0.0692 -1.9747  2.0439
  230MOL0     H30358   9.262   8.018   1.905  3.2111 -1.6379 -0.0023
  230MOL0     H30359   8.998   7.776   2.727 -0.7732 -1.5301 -1.7403
  230MOL0     H30360   8.886   7.874   2.926 -1.0349  0.5791  0.2062
  231MOL0     O30361   8.339   1.487   6.192  0.4477  0.3999  0.1769
  231MOL0     C30362   8.406   1.423   6.273  0.0628 -0.8264 -0.2057
  231MOL0     O30363   8.542   1.420   6.266 -0.2833  0.3235  0.4565
  231MOL0     C30364   8.614   1.500   6.170  0.3470 -1.1413  0.1041
  231MOL0     C30365   8.657   1.463   6.038  0.6266 -1.3302  0.2892
  231MOL0     C30366   8.731   1.553   5.962 -0.2351  0.2515 -0.2660
  231MOL0     C30367   8.746   1.689   6.012  0.6647 -0.3349  0.0656
  231MOL0     O30368   8.805   1.794   5.931  0.9398  0.1719 -0.1169
  231MOL0     C30369   8.906   1.739   5.841 -0.0308 -0.5630  0.2662
  231MOL0     C30370   9.015   1.843   5.835  0.2479  0.0086  0.6995
  231MOL0     C30371   9.115   1.805   5.719  0.2477  0.0784  0.5066
  231MOL0     C30372   9.225   1.908   5.718 -0.1528  0.7785 -0.7870
  231MOL0     C30373   9.327   1.868   5.611  0.0349  0.2937 -0.2793
  231MOL0     C30374   9.273   1.875   5.464  0.0332  0.0710 -0.6031
  231MOL0     C30375   9.387   1.833   5.370  0.2041 -0.9111  0.3010
  231MOL0     C30376   9.353   1.851   5.224  0.2451  0.0339 -0.0550
  231MOL0     N30377   9.284   1.731   5.169  0.0357 -0.1639  0.1703
  231MOL0     C30378   9.344   1.619   5.119 -0.0853  0.0156 -0.1197
  231MOL0     C30379   9.253   1.524   5.088  0.7987 -0.4873  0.8872
  231MOL0     C30380   9.279   1.399   5.004 -0.1081 -0.3188  0.4308
  231MOL0     C30381   9.148   1.353   4.922  0.5677  0.0179  0.6897
  231MOL0     C30382   9.027   1.282   4.989 -0.3891  0.7574  0.1925
  231MOL0     C30383   9.073   1.158   5.052 -0.4967  0.0938 -0.1821
  231MOL0     O30384   8.953   1.090   5.090 -0.0812  0.6226  0.8752
  231MOL0     C30385   8.902   1.096   5.214 -0.4291  0.0242  0.1868
  231MOL0     C30386   8.983   1.125   5.327  1.0299  0.0650  0.6772
  231MOL0     C30387   8.921   1.109   5.446  0.3867 -0.7807  1.1641
  231MOL0     C30388   8.779   1.090   5.463 -0.5229  0.2390 -0.1392
  231MOL0     C30389   8.708   1.102   5.594 -1.0459 -0.7009 -1.0387
  231MOL0     O30390   8.788   1.121   5.711 -0.3318 -0.2955 -0.0953
  231MOL0     C30391   8.743   1.124   5.846  0.8048 -0.8159  0.2401
  231MOL0     C30392   8.831   1.097   5.945 -0.1766 -0.8137 -0.4780
  231MOL0     C30393   8.796   1.076   6.078 -0.2190  0.5345  0.0780
  231MOL0     C30394   8.662   1.056   6.108  0.6257  1.0694  0.0328
  231MOL0     O30395   8.640   1.012   6.234 -0.4071 -0.0583  0.3681
  231MOL0     C30396   8.509   0.973   6.272 -0.4631 -0.3319 -0.1451
  231MOL0     C30397   8.483   0.936   6.419 -0.2559  0.0322 -0.4347
  231MOL0     C30398   8.600   0.850   6.469 -0.0676  0.3611 -0.0130
  231MOL0     C30399   8.608   0.708   6.408  0.5870  0.0479  0.0484
  231MOL0     C30400   8.487   0.628   6.450  0.7479 -0.0458  0.1215
  231MOL0     C30401   8.501   0.500   6.378  0.7840 -0.7923 -0.2390
  231MOL0     C30402   8.392   0.404   6.418  0.5257 -0.3702  0.4012
  231MOL0     C30403   8.440   0.258   6.414  0.7456 -0.0539  0.1397
  231MOL0    Cl30404   8.309   0.146   6.459  0.3393  0.0045 -0.2859
  231MOL0     C30405   8.566   1.095   6.008 -0.6500  0.0499  0.5638
  231MOL0     C30406   8.605   1.128   5.878  1.2481  0.3616 -0.1742
  231MOL0     O30407   8.586   1.095   5.582  0.0811  0.4342 -0.7424
  231MOL0     C30408   8.710   1.055   5.352 -0.1933  0.3251  0.9315
  231MOL0     C30409   8.770   1.057   5.231  0.1342  0.1814  0.0354
  231MOL0     N30410   9.132   1.586   5.130 -0.2929  0.1018 -0.2871
  231MOL0     N30411   9.153   1.705   5.179  1.4337  0.0710  0.5450
  231MOL0     C30412   8.699   1.719   6.135 -0.0606  0.1556 -0.3303
  231MOL0     C30413   8.643   1.626   6.221  0.3437  0.0288  0.5981
  231MOL0     C30414   8.325   1.363   6.380 -0.5460 -0.0597 -0.8436
  231MOL0     C30415   8.188   1.380   6.384 -0.2705 -0.4806  0.2877
  231MOL0     C30416   8.120   1.311   6.491  0.2811  0.3197  0.2571
  231MOL0     C30417   8.177   1.226   6.586  0.3638  0.1689 -0.5751
  231MOL0     O30418   8.118   1.161   6.694 -0.3008 -0.4116  0.5193
  231MOL0     C30419   7.978   1.146   6.712  0.0782 -0.4173 -0.5522
  231MOL0     C30420   7.945   1.068   6.842  0.4151 -0.1497 -0.1289
  231MOL0     C30421   8.018   0.941   6.852 -1.2080 -0.6840 -0.1707
  231MOL0     C30422   8.061   0.914   6.997  0.2619 -0.1690  0.0407
  231MOL0     C30423   8.164   0.803   7.004  0.2910 -0.4508 -0.4167
  231MOL0     C30424   8.234   0.706   7.031 -0.1131  1.1202  0.6007
  231MOL0     C30425   8.311   1.204   6.574 -0.1575 -0.6896  0.3267
  231MOL0     C30426   8.382   1.282   6.476 -0.7946 -0.1857 -0.6370
  231MOL0     H30427   8.636   1.361   6.006  0.7322 -1.3487  0.2772
  231MOL0     H30428   8.770   1.510   5.870  1.7175 -0.9206  1.0256
  231MOL0     H30429   8.867   1.731   5.739 -1.4149 -1.1576  0.8314
  231MOL0     H30430   8.957   1.649   5.877  2.7675 -0.5721 -3.1571
  231MOL0     H30431   9.074   1.855   5.927 -0.2325  0.6572  0.9314
  231MOL0     H30432   8.968   1.939   5.810  1.3460  0.1394 -0.9716
  231MOL0     H30433   9.072   1.797   5.619  0.1740 -0.7355  0.5968
  231MOL0     H30434   9.151   1.702   5.730  1.6929  0.6908  2.0793
  231MOL0     H30435   9.176   2.004   5.699  2.7891  2.2632 -1.5581
  231MOL0     H30436   9.287   1.909   5.808  0.1220 -0.5246 -0.9496
  231MOL0     H30437   9.362   1.766   5.626  0.2817  0.7879  3.4571
  231MOL0     H30438   9.416   1.930   5.625  0.7309 -0.9151  0.8869
  231MOL0     H30439   9.247   1.976   5.432  3.5227  1.0937 -0.6044
  231MOL0     H30440   9.194   1.801   5.450 -0.2146  0.1647  0.2143
  231MOL0     H30441   9.468   1.902   5.394 -1.0421  0.3417  1.1021
  231MOL0     H30442   9.404   1.728   5.392  0.0262 -1.0164 -0.0560
  231MOL0     H30443   9.445   1.854   5.165 -0.2591 -1.5853 -0.9719
  231MOL0     H30444   9.297   1.945   5.212 -0.0767  0.0430  1.3369
  231MOL0     H30445   9.452   1.608   5.112 -0.1091  0.3432 -1.2945
  231MOL0     H30446   9.325   1.320   5.065  2.8056 -1.2201 -2.6338
  231MOL0     H30447   9.356   1.428   4.932 -0.1263 -1.0974  0.0889
  231MOL0     H30448   9.177   1.290   4.838 -2.1859 -0.9283  0.3680
  231MOL0     H30449   9.119   1.449   4.879  1.5244 -0.4742 -1.1359
  231MOL0     H30450   8.989   1.353   5.062  0.0757  0.5203  0.6730
  231MOL0     H30451   8.962   1.251   4.906 -0.3219  1.3598 -0.0863
  231MOL0     H30452   9.139   1.184   5.135  1.6174  0.7577 -2.0013
  231MOL0     H30453   9.126   1.098   4.978 -0.5863  1.7997 -1.6745
  231MOL0     H30454   9.088   1.152   5.324  1.8012 -2.6506 -0.5551
  231MOL0     H30455   8.996   1.126   5.522  0.3601  3.3559  0.5118
  231MOL0     H30456   8.934   1.088   5.910 -0.3916 -2.4951 -0.7362
  231MOL0     H30457   8.876   1.044   6.144  2.9235 -3.2918 -4.8341
  231MOL0     H30458   8.486   0.883   6.214  2.3521 -1.5944  0.5531
  231MOL0     H30459   8.436   1.050   6.244  0.0335  0.2101  0.0450
  231MOL0     H30460   8.387   0.884   6.430  1.4749 -2.9395  3.3346
  231MOL0     H30461   8.482   1.024   6.485  3.2188  0.8301 -1.2301
  231MOL0     H30462   8.588   0.827   6.576  0.5965 -0.3283 -0.0806
  231MOL0     H30463   8.692   0.908   6.463 -2.2253  4.1417  0.3254
  231MOL0     H30464   8.615   0.705   6.299 -0.3888  2.7554 -0.1852
  231MOL0     H30465   8.699   0.658   6.443 -0.5088 -1.5280  0.7367
  231MOL0     H30466   8.387   0.664   6.420  0.6141 -1.8032 -1.7498
  231MOL0     H30467   8.478   0.631   6.559 -1.3813  3.8979  0.0706
  231MOL0     H30468   8.599   0.456   6.397  2.1747  1.1951 -2.3764
  231MOL0     H30469   8.501   0.525   6.272 -3.7454 -3.1469 -1.0524
  231MOL0     H30470   8.378   0.439   6.520 -0.3629 -0.3717  0.2825
  231MOL0     H30471   8.307   0.419   6.351  1.1958  0.9339 -0.1857
  231MOL0     H30472   8.524   0.259   6.484  0.4770 -0.0470  0.4619
  231MOL0     H30473   8.482   0.239   6.315  2.8025  2.6805  0.3760
  231MOL0     H30474   8.461   1.077   6.029 -1.3156  1.3048 -1.4419
  231MOL0     H30475   8.534   1.159   5.802 -0.2791  1.5400  1.6306
  231MOL0     H30476   8.603   1.043   5.352 -0.0164 -1.6297  1.5904
  231MOL0     H30477   8.704   1.025   5.152  0.2576 -0.2017  0.0873
  231MOL0     H30478   8.721   1.823   6.160  0.6675  0.3785 -1.7953
  231MOL0     H30479   8.624   1.668   6.319  0.7880  0.4650  0.5050
  231MOL0     H30480   8.131   1.438   6.313  1.5544 -0.2147 -1.0426
  231MOL0     H30481   8.014   1.336   6.492  0.3253  0.6476  2.6835
  231MOL0     H30482   7.944   1.083   6.629  0.5544 -1.7718  0.2578
  231MOL0     H30483   7.917   1.237   6.716  0.2762 -0.2943 -0.3148
  231MOL0     H30484   7.966   1.127   6.932 -0.3969  0.5925 -0.4162
  231MOL0     H30485   7.837   1.058   6.856  0.4740 -5.2856 -1.4334
  231MOL0     H30486   8.105   0.957   6.789 -2.3148  0.5406 -1.4293
  231MOL0     H30487   7.969   0.845   6.833  0.8183 -2.1430  1.5216
  231MOL0     H30488   8.092   0.999   7.058  0.0591 -1.0458  1.4148
  231MOL0     H30489   7.977   0.862   7.044  0.2997 -0.9510 -0.7279
  231MOL0     H30490   8.317   0.639   7.042 -2.7646 -2.0598  3.5883
  231MOL0     H30491   8.346   1.134   6.649 -2.6161 -3.5629 -0.9812
  231MOL0     H30492   8.485   1.255   6.456 -0.7495  0.4426 -1.2827
  232MOL0     O30493   7.155  11.250   5.586 -0.1698  0.0269 -0.0141
  232MOL0     C30494   7.050  11.196   5.627  0.4499 -0.2696  0.6300
  232MOL0     O30495   6.921  11.222   5.577 -0.3945  0.0208  0.6372
  232MOL0     C30496   6.902  11.291   5.461  0.0057  0.8302 -0.0207
  232MOL0     C30497   6.998  11.317   5.366 -0.4016  0.5014 -0.1800
  232MOL0     C30498   6.958  11.392   5.250 -0.0711  0.1379 -0.9127
  232MOL0     C30499   6.829  11.444   5.235 -1.4496  0.1254 -0.5295
  232MOL0     O30500   6.784  11.509   5.122  0.2545  0.2661 -0.0992
  232MOL0     C30501   6.874  11.589   5.041  1.8101 -0.8128  0.7604
  232MOL0     C30502   6.800  11.666   4.936  0.6485  0.1284  0.1618
  232MOL0     C30503   6.697  11.746   5.018 -0.3424 -0.0436  0.0608
  232MOL0     C30504   6.633  11.851   4.924  0.2911  0.5883  0.0144
  232MOL0     C30505   6.527  11.916   5.007  0.2503 -0.4642 -0.1388
  232MOL0     C30506   6.411  11.971   4.922  0.1410  0.1456 -1.1877
  232MOL0     C30507   6.293  12.032   4.996  0.6182  0.2224 -0.1553
  232MOL0     C30508   6.197  11.938   5.071 -0.3599  0.2820  0.6708
  232MOL0     N30509   6.152  12.009   5.186 -1.0543  0.1235 -0.6887
  232MOL0     C30510   6.058  12.108   5.196  0.6181  0.0921 -0.0205
  232MOL0     C30511   6.053  12.153   5.325  0.3271 -0.2302 -0.3477
  232MOL0     C30512   5.968  12.271   5.374  0.8040 -0.1995 -0.1229
  232MOL0     C30513   5.811  12.235   5.370  0.2792 -0.3998  0.9934
  232MOL0     C30514   5.785  12.081   5.387 -0.1560 -0.5347  0.3683
  232MOL0     C30515   5.639  12.048   5.424  0.8410  0.3443  0.5951
  232MOL0     O30516   5.601  11.910   5.405  0.0561  0.0961  0.3718
  232MOL0     C30517   5.492  11.857   5.468 -0.1528 -0.5074 -0.6941
  232MOL0     C30518   5.397  11.927   5.547  0.5045  0.8452 -0.4537
  232MOL0     C30519   5.268  11.876   5.577  0.4533  0.2821  0.1804
  232MOL0     C30520   5.236  11.738   5.543 -0.3077 -0.3616 -0.3983
  232MOL0     C30521   5.103  11.683   5.575  1.3869  0.4650 -0.1790
  232MOL0     O30522   5.088  11.542   5.555  0.1944 -0.5191 -0.2467
  232MOL0     C30523   4.980  11.481   5.607 -0.7117  0.1916  0.5175
  232MOL0     C30524   4.871  11.440   5.526 -0.6207  0.0534  0.2973
  232MOL0     C30525   4.762  11.384   5.582 -0.1932 -0.2793 -0.2636
  232MOL0     C30526   4.759  11.366   5.726 -0.6865 -0.5167  0.3811
  232MOL0     O30527   4.636  11.344   5.796 -0.0883  0.5719  0.0891
  232MOL0     C30528   4.517  11.338   5.719  0.1501 -0.0862 -0.1037
  232MOL0     C30529   4.405  11.346   5.824  0.1713  0.9406  1.0613
  232MOL0     C30530   4.259  11.343   5.762 -0.0316  0.7271 -1.0817
  232MOL0     C30531   4.170  11.307   5.888  0.6867 -0.5509  0.1675
  232MOL0     C30532   4.028  11.361   5.872  0.1441 -0.3411 -0.0373
  232MOL0     C30533   3.958  11.315   5.740  0.7411  0.2051 -0.0106
  232MOL0     C30534   3.960  11.168   5.692  0.9650  0.6397  0.0668
  232MOL0     C30535   3.865  11.144   5.576  0.9004 -0.4007 -0.9587
  232MOL0    Cl30536   3.682  11.128   5.622 -0.0448 -0.1902  0.4900
  232MOL0     C30537   4.862  11.401   5.802  0.1331  0.2035  0.0733
  232MOL0     C30538   4.978  11.456   5.740  0.1563  0.8219 -0.1548
  232MOL0     O30539   5.023  11.757   5.633 -0.0318  0.6101  0.2032
  232MOL0     C30540   5.341  11.663   5.486 -0.4339 -0.0055 -0.1432
  232MOL0     C30541   5.469  11.726   5.451 -0.6482  0.1158 -0.9470
  232MOL0     N30542   6.140  12.075   5.397  0.7206  0.6263  0.4165
  232MOL0     N30543   6.184  11.978   5.316 -0.0339  0.2955  0.9819
  232MOL0     C30544   6.737  11.409   5.328  0.3664 -0.0079 -1.2611
  232MOL0     C30545   6.767  11.325   5.438  0.2742 -0.1940 -0.0988
  232MOL0     C30546   7.064  11.116   5.749 -0.9731  0.3820  0.3758
  232MOL0     C30547   7.189  11.094   5.810  0.3576  0.2017 -0.0954
  232MOL0     C30548   7.206  11.022   5.935 -0.1645  0.2982  0.8551
  232MOL0     C30549   7.097  10.976   5.987  0.0441  0.2806 -1.0036
  232MOL0     O30550   7.126  10.886   6.087 -0.3674  0.4153  0.0527
  232MOL0     C30551   7.019  10.798   6.138  0.4916  0.1025 -0.0350
  232MOL0     C30552   7.049  10.763   6.286  0.6432  0.1812 -0.3307
  232MOL0     C30553   6.953  10.843   6.384 -0.3113  0.0852 -0.3897
  232MOL0     C30554   6.995  10.799   6.532  0.5321  0.2803 -0.1611
  232MOL0     C30555   7.131  10.856   6.568 -1.2229  0.5918 -1.0993
  232MOL0     C30556   7.235  10.901   6.618 -0.2602  0.8749 -1.3270
  232MOL0     C30557   6.969  10.986   5.928  0.7470 -0.1790 -0.4508
  232MOL0     C30558   6.954  11.066   5.813  0.1718  1.6812  0.3818
  232MOL0     H30559   7.101  11.285   5.374 -0.2877  1.2083  2.0361
  232MOL0     H30560   7.034  11.410   5.175  1.1679 -1.4854 -0.1105
  232MOL0     H30561   6.939  11.512   4.999  1.5519 -0.7485  0.2276
  232MOL0     H30562   6.929  11.653   5.111  4.1225 -0.9662 -0.8005
  232MOL0     H30563   6.750  11.600   4.864 -4.2892  1.4155  2.0351
  232MOL0     H30564   6.873  11.725   4.879  0.8621  0.9499  1.2634
  232MOL0     H30565   6.744  11.808   5.095 -1.4897  3.2775 -1.7339
  232MOL0     H30566   6.622  11.678   5.061  1.6540 -0.8273  2.5477
  232MOL0     H30567   6.702  11.925   4.883 -0.8258  1.6308 -0.0513
  232MOL0     H30568   6.597  11.790   4.840  0.5272 -0.0080  0.3365
  232MOL0     H30569   6.563  12.000   5.068  2.5606 -0.3700 -1.5059
  232MOL0     H30570   6.481  11.842   5.072  0.7756  0.7220  1.6415
  232MOL0     H30571   6.371  11.909   4.841 -0.8608  0.9102 -1.3134
  232MOL0     H30572   6.470  12.046   4.868  0.8586  0.0578 -0.5373
  232MOL0     H30573   6.322  12.116   5.060 -2.0957  0.6527  0.6273
  232MOL0     H30574   6.223  12.070   4.920 -0.6808  1.0085  1.3747
  232MOL0     H30575   6.237  11.841   5.104 -0.3880  0.8640  2.4940
  232MOL0     H30576   6.107  11.922   5.011 -1.3557  2.1742  1.6028
  232MOL0     H30577   5.992  12.145   5.118  1.7685  4.2878  0.7417
  232MOL0     H30578   5.973  12.355   5.304 -0.1795 -0.2592 -0.2897
  232MOL0     H30579   5.998  12.312   5.470 -1.1865  1.9704 -0.3325
  232MOL0     H30580   5.771  12.262   5.272 -1.3623 -2.3056  1.0829
  232MOL0     H30581   5.767  12.287   5.456 -2.1847  0.1230 -0.4865
  232MOL0     H30582   5.798  12.025   5.294  0.5362  1.1857 -0.6186
  232MOL0     H30583   5.847  12.027   5.459 -3.3604 -2.8883  1.5976
  232MOL0     H30584   5.580  12.113   5.359  0.9720  1.3652  1.4616
  232MOL0     H30585   5.636  12.081   5.528 -1.3279  2.2880 -0.0108
  232MOL0     H30586   5.408  12.032   5.571 -1.7957  1.2001 -0.7701
  232MOL0     H30587   5.197  11.935   5.635 -2.5689 -0.3540 -2.5609
  232MOL0     H30588   4.854  11.471   5.424 -2.6579  0.9851  0.8475
  232MOL0     H30589   4.678  11.359   5.519 -1.1295  1.3766  0.2740
  232MOL0     H30590   4.512  11.249   5.656  2.9875 -0.2457 -0.2361
  232MOL0     H30591   4.519  11.427   5.656  1.9168  0.5311  0.7590
  232MOL0     H30592   4.420  11.430   5.892 -2.7713  2.8738 -0.4605
  232MOL0     H30593   4.420  11.259   5.889  0.4491  0.5879  0.5322
  232MOL0     H30594   4.260  11.269   5.681  0.7170 -0.6620  0.1477
  232MOL0     H30595   4.236  11.437   5.709 -0.0734 -0.2519 -2.9030
  232MOL0     H30596   4.171  11.198   5.879 -2.6169 -0.6011 -0.7877
  232MOL0     H30597   4.218  11.344   5.979  4.3988 -1.1338 -1.3285
  232MOL0     H30598   4.026  11.471   5.866 -3.3806 -0.1699  1.6917
  232MOL0     H30599   3.964  11.325   5.953 -1.1513 -1.6113 -1.5541
  232MOL0     H30600   3.989  11.381   5.658  2.4815  2.4815  2.3346
  232MOL0     H30601   3.857  11.353   5.757 -0.0745 -0.8469 -2.0927
  232MOL0     H30602   4.057  11.124   5.668  0.9422  0.6340 -0.0160
  232MOL0     H30603   3.927  11.106   5.776 -0.3476 -0.5930 -1.2907
  232MOL0     H30604   3.898  11.046   5.541 -2.4231 -2.2669  0.7183
  232MOL0     H30605   3.879  11.220   5.499 -0.9749  1.8318  0.7530
  232MOL0     H30606   4.857  11.389   5.910 -3.4353 -1.5259 -0.1202
  232MOL0     H30607   5.063  11.474   5.806 -0.7194 -2.6995  2.2088
  232MOL0     H30608   5.322  11.558   5.464 -0.5803 -0.0048 -0.0202
  232MOL0     H30609   5.554  11.680   5.401  0.0534  0.3671 -0.0116
  232MOL0     H30610   6.636  11.443   5.307  0.5691  0.7029 -1.1005
  232MOL0     H30611   6.693  11.318   5.517 -0.8918  2.4992 -0.8258
  232MOL0     H30612   7.277  11.149   5.777  0.0234  0.0932 -1.2208
  232MOL0     H30613   7.306  11.002   5.970  2.3587  3.7552 -3.2757
  232MOL0     H30614   7.029  10.704   6.082  0.3977  1.8929 -3.3019
  232MOL0     H30615   6.920  10.843   6.131  0.2116 -0.5457 -0.3176
  232MOL0     H30616   7.026  10.657   6.300  0.2352 -0.1879 -3.2217
  232MOL0     H30617   7.156  10.768   6.308  0.7406 -3.3998  0.6361
  232MOL0     H30618   6.848  10.816   6.373 -0.0122 -0.8718 -0.9677
  232MOL0     H30619   6.955  10.953   6.379  4.1444  0.1646 -0.5945
  232MOL0     H30620   6.911  10.827   6.596  1.0217 -2.0259  1.5836
  232MOL0     H30621   7.006  10.691   6.527  0.0348  0.2743 -2.3293
  232MOL0     H30622   7.319  10.949   6.665  0.4267  0.1392 -1.7659
  232MOL0     H30623   6.881  10.934   5.965  0.1427  0.0282 -1.5557
  232MOL0     H30624   6.852  11.081   5.780  1.3189  1.6960 -3.5945
  233MOL0     O30625  10.969   6.171   8.190 -0.0003  0.4742  0.1026
  233MOL0     C30626  11.023   6.213   8.083  0.1859 -0.5492  0.0760
  233MOL0     O30627  11.137   6.283   8.069  0.7032 -0.0509  0.0899
  233MOL0     C30628  11.219   6.300   8.171  0.0284  0.5735 -0.3679
  233MOL0     C30629  11.274   6.198   8.249  0.3060  0.7121  0.6031
  233MOL0     C30630  11.375   6.219   8.343  0.1876 -0.2423 -0.4004
  233MOL0     C30631  11.418   6.346   8.364 -0.0334 -0.1067 -0.1780
  233MOL0     O30632  11.520   6.349   8.450 -0.2665  0.3493  0.3913
  233MOL0     C30633  11.600   6.467   8.474 -0.5946 -0.0354  0.5793
  233MOL0     C30634  11.543   6.578   8.564  0.0572 -0.2890 -0.7218
  233MOL0     C30635  11.638   6.701   8.591 -0.0064 -0.3519  0.1502
  233MOL0     C30636  11.599   6.795   8.708 -0.5079 -0.8663  0.1256
  233MOL0     C30637  11.665   6.748   8.840 -0.3284 -0.1276 -0.0610
  233MOL0     C30638  11.578   6.669   8.936  0.5863 -0.1531  0.1464
  233MOL0     C30639  11.653   6.607   9.038  0.3712  0.4132  1.1943
  233MOL0     C30640  11.708   6.464   9.014 -0.4730 -0.2715  0.6368
  233MOL0     N30641  11.823   6.448   8.928  0.3352  0.7971 -1.0184
  233MOL0     C30642  11.833   6.379   8.812 -0.7622 -0.1077  1.1009
  233MOL0     C30643  11.961   6.412   8.768 -0.4450  0.1138 -0.0405
  233MOL0     C30644  12.025   6.374   8.647  0.2123 -0.2913 -0.2091
  233MOL0     C30645  12.064   6.219   8.632  0.3974  0.2907 -0.2980
  233MOL0     C30646  12.132   6.180   8.505 -0.5385 -0.1210  1.5326
  233MOL0     C30647  12.045   6.106   8.407 -0.6282 -0.6510 -0.1008
  233MOL0     O30648  11.926   6.175   8.377  0.1289 -0.2190 -0.4602
  233MOL0     C30649  11.856   6.149   8.258  0.0943  0.3850 -0.5675
  233MOL0     C30650  11.898   6.051   8.156 -0.4789  0.0049 -0.0158
  233MOL0     C30651  11.826   6.030   8.034  0.6328 -0.2258  0.0667
  233MOL0     C30652  11.695   6.088   8.024  0.3048  0.5106 -0.1867
  233MOL0     C30653  11.623   6.069   7.901 -0.0149 -0.1536 -0.1146
  233MOL0     O30654  11.489   6.107   7.902  0.0729 -0.4374  0.4112
  233MOL0     C30655  11.431   6.097   7.773  1.2768 -0.7669  0.0269
  233MOL0     C30656  11.431   6.210   7.688  0.5670 -0.2320 -0.1631
  233MOL0     C30657  11.358   6.209   7.563  0.0267 -0.6827 -0.3666
  233MOL0     C30658  11.283   6.092   7.533  0.5157  0.4838 -0.7067
  233MOL0     O30659  11.209   6.093   7.417 -0.8061 -0.1687  0.1659
  233MOL0     C30660  11.165   5.978   7.358 -0.1950 -0.4397 -0.3609
  233MOL0     C30661  11.159   6.007   7.205 -0.3054  0.1516 -0.4242
  233MOL0     C30662  11.053   6.112   7.163 -0.3976  0.6142  0.4299
  233MOL0     C30663  11.038   6.115   7.011  0.0627  0.4884 -0.4233
  233MOL0     C30664  10.937   6.221   6.971 -0.6098 -0.4407  0.1337
  233MOL0     C30665  10.957   6.252   6.822 -0.2288 -0.9934  0.3496
  233MOL0     C30666  10.885   6.153   6.719 -0.3305  0.1017 -0.2733
  233MOL0     C30667  10.929   6.174   6.567  0.1604  0.9057  0.1578
  233MOL0    Cl30668  10.848   6.045   6.456 -0.1561 -0.3168 -0.1455
  233MOL0     C30669  11.274   5.994   7.631 -0.9459  0.5006 -0.2306
  233MOL0     C30670  11.351   5.995   7.745 -0.3313  0.1431  0.3568
  233MOL0     O30671  11.676   6.029   7.806  0.4755 -0.5465 -0.0592
  233MOL0     C30672  11.652   6.182   8.121 -0.3119 -0.2816 -0.7883
  233MOL0     C30673  11.734   6.217   8.231  0.5079 -0.3714 -0.3485
  233MOL0     N30674  12.017   6.502   8.856  0.2481 -0.1410  0.4238
  233MOL0     N30675  11.936   6.520   8.953 -0.1053  0.0087  0.3704
  233MOL0     C30676  11.371   6.453   8.284 -0.4125  0.6396 -0.3451
  233MOL0     C30677  11.274   6.422   8.193  0.4303  1.0588  0.1181
  233MOL0     C30678  10.946   6.190   7.966 -0.4963  0.3605  0.2491
  233MOL0     C30679  10.809   6.176   7.969  0.5061  0.2976 -0.1272
  233MOL0     C30680  10.739   6.151   7.845 -0.5303  0.6050 -0.0519
  233MOL0     C30681  10.809   6.137   7.725 -0.2959  0.5752 -0.4041
  233MOL0     O30682  10.770   6.105   7.601  0.9782  0.0046  0.7585
  233MOL0     C30683  10.661   6.014   7.604 -0.5173  1.2044  0.3656
  233MOL0     C30684  10.653   5.927   7.474  0.1941  0.6178  0.1204
  233MOL0     C30685  10.646   6.021   7.348  0.4172  0.3021 -0.2211
  233MOL0     C30686  10.623   5.938   7.220 -0.0529  0.1561 -0.3175
  233MOL0     C30687  10.756   5.887   7.182  0.2648  0.2380  0.5445
  233MOL0     C30688  10.833   5.815   7.129 -0.6997 -0.1934 -0.8136
  233MOL0     C30689  10.950   6.142   7.733 -0.0580 -0.2144  0.4086
  233MOL0     C30690  11.017   6.161   7.853 -0.0625 -0.0969 -0.0381
  233MOL0     H30691  11.240   6.095   8.241 -0.1541  0.8790  0.3317
  233MOL0     H30692  11.423   6.138   8.397  0.6424 -1.3196 -2.3307
  233MOL0     H30693  11.616   6.505   8.373 -0.6867  1.4958  1.1088
  233MOL0     H30694  11.689   6.426   8.524 -0.3421 -1.8020 -1.2005
  233MOL0     H30695  11.516   6.548   8.666 -2.7669  1.5958 -0.8094
  233MOL0     H30696  11.449   6.614   8.522  2.2328  2.8930 -3.2989
  233MOL0     H30697  11.644   6.760   8.499  2.1354  0.0818  0.5184
  233MOL0     H30698  11.744   6.682   8.604  0.1810  1.3196  1.4534
  233MOL0     H30699  11.631   6.898   8.690 -1.4283 -0.6656 -0.3938
  233MOL0     H30700  11.490   6.803   8.713 -0.9915  3.5105 -6.0775
  233MOL0     H30701  11.692   6.839   8.894 -2.2411  0.5460 -0.1749
  233MOL0     H30702  11.757   6.695   8.812 -0.3125 -1.1639  1.8570
  233MOL0     H30703  11.524   6.594   8.877 -3.2750  2.8631 -0.5753
  233MOL0     H30704  11.495   6.730   8.971 -0.4348 -1.1393 -0.4845
  233MOL0     H30705  11.736   6.675   9.059  1.1073 -0.0526 -0.0942
  233MOL0     H30706  11.597   6.602   9.132 -2.4328 -2.1172 -0.4167
  233MOL0     H30707  11.631   6.394   8.979 -1.0341  0.2884  0.7366
  233MOL0     H30708  11.727   6.432   9.117 -0.5834  2.5874  1.6286
  233MOL0     H30709  11.770   6.311   8.754  0.4312 -1.5678  1.4554
  233MOL0     H30710  12.098   6.448   8.612 -1.1278  0.6782 -1.0723
  233MOL0     H30711  11.951   6.384   8.566  1.1491  1.0594 -0.9450
  233MOL0     H30712  11.978   6.152   8.647  0.6446  0.5300  2.9654
  233MOL0     H30713  12.126   6.202   8.720 -0.6378  0.6321  0.5255
  233MOL0     H30714  12.185   6.261   8.454  4.0925 -3.2618  0.8234
  233MOL0     H30715  12.218   6.118   8.532  2.0517  1.9723 -1.2339
  233MOL0     H30716  12.023   6.006   8.446  1.2583 -0.8654  0.5022
  233MOL0     H30717  12.100   6.101   8.313  2.4021 -0.5669  1.5416
  233MOL0     H30718  11.993   6.003   8.174  0.0811  0.4208 -1.7490
  233MOL0     H30719  11.862   5.955   7.963  0.6641  1.7854 -2.1780
  233MOL0     H30720  11.470   6.303   7.728 -1.9513  0.6301  0.4656
  233MOL0     H30721  11.365   6.289   7.490  0.9430 -2.4382 -2.3210
  233MOL0     H30722  11.071   5.958   7.409 -0.3187 -0.3127 -0.5361
  233MOL0     H30723  11.223   5.887   7.372 -0.1157 -0.1801  1.1663
  233MOL0     H30724  11.131   5.912   7.158  1.7334 -0.9170  0.3813
  233MOL0     H30725  11.258   6.040   7.170  0.5285 -0.3865  1.2933
  233MOL0     H30726  11.083   6.214   7.189  1.2274  0.1005  0.7300
  233MOL0     H30727  10.956   6.083   7.203 -0.7889  1.9612  0.4906
  233MOL0     H30728  11.133   6.128   6.959  0.4441 -0.2811  0.0617
  233MOL0     H30729  11.003   6.022   6.965  0.6406  0.6881 -1.2842
  233MOL0     H30730  10.957   6.317   7.019  1.3621 -0.6136 -0.2641
  233MOL0     H30731  10.836   6.186   6.993 -0.8967 -0.8477 -1.6923
  233MOL0     H30732  11.065   6.253   6.804  0.0431  0.1340  1.8570
  233MOL0     H30733  10.923   6.353   6.799 -0.2433 -1.7018 -3.4171
  233MOL0     H30734  10.887   6.054   6.764 -2.7972  1.0862  2.3084
  233MOL0     H30735  10.778   6.174   6.719 -0.5946 -1.1319 -1.0363
  233MOL0     H30736  11.038   6.176   6.554  0.3215 -1.0789  0.7420
  233MOL0     H30737  10.890   6.273   6.544 -0.6348  0.3565 -0.9098
  233MOL0     H30738  11.218   5.902   7.616 -2.0356  1.2991 -1.1620
  233MOL0     H30739  11.345   5.911   7.812  3.1499 -0.5055  0.0351
  233MOL0     H30740  11.558   6.235   8.111 -1.8032 -2.1147  2.0399
  233MOL0     H30741  11.697   6.298   8.293  0.4232 -1.3370  0.9042
  233MOL0     H30742  11.401   6.556   8.293 -1.7361  1.0751 -0.6521
  233MOL0     H30743  11.231   6.502   8.134 -1.8725 -0.7508 -0.7693
  233MOL0     H30744  10.760   6.163   8.065  0.8286  2.1507  0.3341
  233MOL0     H30745  10.630   6.149   7.840 -0.4789  0.4704 -1.5259
  233MOL0     H30746  10.567   6.068   7.616 -1.2079 -0.5307  3.9801
  233MOL0     H30747  10.661   5.940   7.685 -2.3812  1.6319  0.7942
  233MOL0     H30748  10.734   5.854   7.467  1.9072  2.5536 -4.7443
  233MOL0     H30749  10.560   5.871   7.483  0.3922  0.4845  1.7580
  233MOL0     H30750  10.729   6.090   7.332  0.8820 -0.1888  0.0627
  233MOL0     H30751  10.557   6.083   7.359 -0.5608 -0.7314 -1.9160
  233MOL0     H30752  10.543   5.867   7.242  1.7091 -2.0851 -0.7889
  233MOL0     H30753  10.580   6.008   7.147 -2.8119  0.8078  1.7479
  233MOL0     H30754  10.921   5.770   7.086  0.0134  2.3260 -2.2209
  233MOL0     H30755  11.004   6.132   7.640 -0.3189 -2.1157  0.4301
  233MOL0     H30756  11.126   6.167   7.854  0.6520 -6.3580  2.0072
  234MOL0     O30757   6.975   1.789   9.394  1.0231 -0.5132 -0.4500
  234MOL0     C30758   7.056   1.861   9.336 -0.1403  0.0256  0.2222
  234MOL0     O30759   7.193   1.854   9.347 -0.3839  0.3787  0.0121
  234MOL0     C30760   7.253   1.780   9.445 -0.7912 -0.6571 -0.2287
  234MOL0     C30761   7.377   1.729   9.419 -0.6305  0.2628 -0.6271
  234MOL0     C30762   7.450   1.661   9.514 -0.7660  0.4306 -0.2613
  234MOL0     C30763   7.392   1.638   9.641 -0.1734 -0.8585 -0.1917
  234MOL0     O30764   7.447   1.569   9.743  0.5053  0.1738 -0.4746
  234MOL0     C30765   7.474   1.430   9.718  0.1648 -0.0777  0.1693
  234MOL0     C30766   7.498   1.357   9.851  0.2962  0.2836  0.8147
  234MOL0     C30767   7.493   1.206   9.811  0.3000  0.0704  0.8001
  234MOL0     C30768   7.532   1.112   9.928 -0.0130 -0.7600  0.0808
  234MOL0     C30769   7.426   1.110  10.035 -0.3417 -0.3139  0.1965
  234MOL0     C30770   7.507   1.070  10.158  1.5557 -0.7223  0.3089
  234MOL0     C30771   7.409   1.024  10.277 -0.2796 -0.4595 -0.0182
  234MOL0     C30772   7.486   0.980  10.405 -0.8864  0.0465 -0.5190
  234MOL0     N30773   7.405   0.976  10.535  0.2268 -0.5566  0.8868
  234MOL0     C30774   7.265   0.992  10.545 -0.5867 -0.1643  0.1642
  234MOL0     C30775   7.230   0.960  10.665  0.7899  0.8426 -0.9409
  234MOL0     C30776   7.096   0.978  10.736 -0.0030  0.0071 -0.4176
  234MOL0     C30777   7.111   0.968  10.889  0.1153 -0.6167  0.6657
  234MOL0     C30778   6.988   1.030  10.953 -0.0321 -0.2023 -0.1963
  234MOL0     C30779   6.855   0.975  10.909  1.0576 -0.3909  0.3722
  234MOL0     O30780   6.858   0.847  10.848  0.9590 -0.7404 -0.0121
  234MOL0     C30781   6.850   0.737  10.929 -0.8239  0.6587 -1.0106
  234MOL0     C30782   6.889   0.733  11.066 -0.0959 -0.1179 -0.1016
  234MOL0     C30783   6.888   0.609  11.131  0.4864 -1.1564  0.3127
  234MOL0     C30784   6.839   0.502  11.063 -0.5684 -0.0325  0.7890
  234MOL0     C30785   6.827   0.371  11.134  0.0397 -0.5713 -0.7669
  234MOL0     O30786   6.861   0.370  11.265 -0.0346 -0.4157  0.5316
  234MOL0     C30787   6.872   0.256  11.333  0.5663 -0.1127 -0.7673
  234MOL0     C30788   6.758   0.217  11.404  1.0536  0.9510 -0.4290
  234MOL0     C30789   6.769   0.089  11.473 -0.3476 -0.5710  1.0466
  234MOL0     C30790   6.890   0.019  11.478  0.8804  0.6912 -0.4108
  234MOL0     O30791   6.911  -0.111  11.524  0.3890 -0.2730 -0.0404
  234MOL0     C30792   6.802  -0.202  11.520 -0.4757  0.0656  0.3678
  234MOL0     C30793   6.863  -0.339  11.472 -0.6064  0.7944  0.7520
  234MOL0     C30794   6.930  -0.321  11.332  0.9398  0.7425  0.8631
  234MOL0     C30795   6.991  -0.446  11.273  0.4793  0.7718  0.5860
  234MOL0     C30796   7.040  -0.424  11.122  0.9003 -0.4913  0.2783
  234MOL0     C30797   7.052  -0.558  11.042  0.8507 -0.0664 -0.2546
  234MOL0     C30798   7.183  -0.616  11.066 -1.0981  0.0163 -1.2234
  234MOL0     C30799   7.190  -0.766  11.011 -0.8080 -0.4705  0.2718
  234MOL0    Cl30800   7.155  -0.781  10.828  0.1956 -0.1376  0.0277
  234MOL0     C30801   6.997   0.079  11.421  1.0333  0.1499  0.1019
  234MOL0     C30802   6.988   0.192  11.348 -0.3747 -0.2813 -0.6715
  234MOL0     O30803   6.795   0.273  11.068  0.2246 -0.0354 -0.4867
  234MOL0     C30804   6.802   0.500  10.926  0.4052 -0.8515 -0.3688
  234MOL0     C30805   6.813   0.623  10.858 -0.3559  0.6721  0.4040
  234MOL0     N30806   7.341   0.902  10.726 -0.8862  0.3911 -0.3353
  234MOL0     N30807   7.442   0.916  10.649 -0.1208 -0.3149  0.2177
  234MOL0     C30808   7.269   1.694   9.677 -0.4095  0.2257  0.2657
  234MOL0     C30809   7.203   1.768   9.577 -0.3592  0.6811 -1.1529
  234MOL0     C30810   7.012   1.957   9.234  0.3393  0.8984 -0.2904
  234MOL0     C30811   7.095   2.009   9.129  1.2658  0.1744 -0.1054
  234MOL0     C30812   7.055   2.106   9.040 -0.4867 -0.2694 -0.4062
  234MOL0     C30813   6.921   2.156   9.045 -0.6743  0.8593 -0.0126
  234MOL0     O30814   6.874   2.240   8.946 -1.3749  0.7729  0.8224
  234MOL0     C30815   6.967   2.306   8.862  0.0792  0.2589  0.1245
  234MOL0     C30816   6.923   2.404   8.748  0.7857 -0.6490  0.4635
  234MOL0     C30817   6.779   2.389   8.693 -0.0669 -0.0002 -0.5727
  234MOL0     C30818   6.757   2.436   8.547 -0.1947 -0.2116 -0.3565
  234MOL0     C30819   6.704   2.569   8.522  0.7963  0.5191 -0.3156
  234MOL0     C30820   6.633   2.671   8.511 -0.5548 -1.1368 -0.2105
  234MOL0     C30821   6.833   2.100   9.128 -0.0313 -0.1896 -0.3732
  234MOL0     C30822   6.874   1.999   9.221 -0.4344 -0.9728 -0.1310
  234MOL0     H30823   7.426   1.749   9.324  0.0064 -1.0196 -0.5900
  234MOL0     H30824   7.545   1.622   9.478 -1.4159  0.5653 -2.2255
  234MOL0     H30825   7.556   1.403   9.651 -1.0221  1.3176 -1.9857
  234MOL0     H30826   7.378   1.396   9.677 -0.8080  2.8678 -0.1943
  234MOL0     H30827   7.413   1.377   9.918 -1.8889 -1.8859 -1.1012
  234MOL0     H30828   7.589   1.392   9.899  0.2696  0.4300  0.7609
  234MOL0     H30829   7.568   1.189   9.733 -0.1370  0.3402  0.3168
  234MOL0     H30830   7.397   1.175   9.770  0.9732  0.1913 -0.9691
  234MOL0     H30831   7.537   1.019   9.872 -0.1810  0.8789 -2.8404
  234MOL0     H30832   7.629   1.144   9.966  1.1216 -0.8668 -2.5630
  234MOL0     H30833   7.343   1.045  10.006  0.5980 -1.4668  0.0348
  234MOL0     H30834   7.373   1.206  10.032 -0.4764 -0.4022 -1.1653
  234MOL0     H30835   7.567   1.156  10.188  1.4249  0.2836 -2.0720
  234MOL0     H30836   7.579   0.992  10.130  0.2757 -1.2606 -1.6924
  234MOL0     H30837   7.355   1.117  10.298  3.2160  2.2390 -1.9038
  234MOL0     H30838   7.346   0.944  10.240  0.9403 -0.4573 -2.2500
  234MOL0     H30839   7.565   1.055  10.413 -1.6073  0.8114 -0.3726
  234MOL0     H30840   7.537   0.884  10.400  0.8201  0.7619  1.4883
  234MOL0     H30841   7.214   1.049  10.468  4.6866  2.9595 -1.6066
  234MOL0     H30842   7.030   0.897  10.703 -2.1022  2.1601 -1.7928
  234MOL0     H30843   7.056   1.076  10.710  0.2604  0.8400  2.0674
  234MOL0     H30844   7.194   1.029  10.928  2.0806 -0.9242 -2.6519
  234MOL0     H30845   7.128   0.868  10.930  1.7961 -0.6078  0.0743
  234MOL0     H30846   6.999   1.011  11.060 -2.8997  0.6926  0.3356
  234MOL0     H30847   6.982   1.138  10.937 -1.7982  0.0576  1.7526
  234MOL0     H30848   6.823   1.043  10.830 -2.7085 -0.8330  1.3261
  234MOL0     H30849   6.782   0.993  10.989  1.5503  2.3189  0.3310
  234MOL0     H30850   6.918   0.817  11.130  0.3813 -0.2292 -0.1705
  234MOL0     H30851   6.912   0.604  11.236 -3.9240 -1.0447  1.5130
  234MOL0     H30852   6.668   0.277  11.411  0.3555 -0.2723  1.8484
  234MOL0     H30853   6.687   0.040  11.526 -2.8905  0.1681 -1.9050
  234MOL0     H30854   6.722  -0.169  11.453  0.1380  0.0933 -0.3544
  234MOL0     H30855   6.756  -0.224  11.617  1.2501 -0.7352  1.0308
  234MOL0     H30856   6.785  -0.415  11.476  0.7407 -0.6987 -0.2481
  234MOL0     H30857   6.935  -0.385  11.540  0.7159  0.8474 -0.5514
  234MOL0     H30858   7.007  -0.244  11.331 -1.3458  3.2600 -2.4392
  234MOL0     H30859   6.850  -0.286  11.266  2.5604 -0.6368 -2.0221
  234MOL0     H30860   7.078  -0.483  11.328  3.0485  3.3586 -1.3641
  234MOL0     H30861   6.917  -0.526  11.284  0.6998  0.4130 -0.4686
  234MOL0     H30862   7.126  -0.359  11.135  2.7334 -2.3477 -1.7127
  234MOL0     H30863   6.959  -0.364  11.079  0.3394 -1.8884 -0.6748
  234MOL0     H30864   7.033  -0.539  10.936 -2.1678 -2.0523 -0.2004
  234MOL0     H30865   6.992  -0.644  11.074 -0.8205  0.4600 -1.7822
  234MOL0     H30866   7.266  -0.559  11.023  0.2705  0.4692  1.7543
  234MOL0     H30867   7.191  -0.621  11.175 -1.8431  1.8128 -1.0513
  234MOL0     H30868   7.109  -0.820  11.060 -0.6781 -1.4528 -0.5583
  234MOL0     H30869   7.287  -0.811  11.034 -0.8020  1.1125  4.0153
  234MOL0     H30870   7.087   0.021  11.434 -0.0550 -1.2160  2.0832
  234MOL0     H30871   7.073   0.229  11.292 -1.4737  1.3819 -1.3442
  234MOL0     H30872   6.770   0.411  10.874  0.2168  1.1397 -3.9974
  234MOL0     H30873   6.810   0.606  10.750  2.0321  1.9470  0.0572
  234MOL0     H30874   7.241   1.687   9.781  2.4178 -0.7518  1.0479
  234MOL0     H30875   7.110   1.810   9.614 -0.8359 -0.1616 -1.3650
  234MOL0     H30876   7.198   1.976   9.114  1.6121  1.1111  0.1529
  234MOL0     H30877   7.128   2.143   8.969  0.4680 -0.9616  0.1887
  234MOL0     H30878   7.011   2.230   8.796 -0.2614 -2.0826  2.4428
  234MOL0     H30879   7.055   2.335   8.920  0.9069  0.0351 -0.9896
  234MOL0     H30880   6.923   2.511   8.771 -1.1594 -0.4859 -0.1536
  234MOL0     H30881   6.995   2.394   8.667 -0.0280  1.1696 -0.5557
  234MOL0     H30882   6.715   2.447   8.760 -2.7461 -1.7923 -1.4315
  234MOL0     H30883   6.740   2.287   8.697  1.5120 -0.6157 -0.3277
  234MOL0     H30884   6.856   2.440   8.500  0.3723 -3.7966  0.2422
  234MOL0     H30885   6.696   2.358   8.499 -0.8551 -1.1658  1.8947
  234MOL0     H30886   6.576   2.761   8.500  0.8221 -0.4134 -2.0615
  234MOL0     H30887   6.727   2.118   9.119  0.0167 -0.3023 -1.2220
  234MOL0     H30888   6.798   1.953   9.284  0.1209 -0.0168  1.2808
  235MOL0     O30889   9.770   0.742   6.695 -0.4108 -0.1068  0.3672
  235MOL0     C30890   9.647   0.764   6.709  0.4142  0.0576 -0.2976
  235MOL0     O30891   9.592   0.888   6.701 -0.0304 -0.5451 -0.9067
  235MOL0     C30892   9.666   1.008   6.678 -0.2522 -0.6798 -0.6972
  235MOL0     C30893   9.603   1.110   6.606  0.9769 -0.3951 -1.0193
  235MOL0     C30894   9.667   1.231   6.580 -0.6257 -0.3505  0.4911
  235MOL0     C30895   9.793   1.260   6.635  0.2197 -0.4984 -0.1698
  235MOL0     O30896   9.846   1.387   6.610  0.5073  0.1054  0.2655
  235MOL0     C30897   9.986   1.395   6.569 -0.3523  0.1297  1.0126
  235MOL0     C30898  10.066   1.488   6.649 -0.7932 -0.4244 -0.4489
  235MOL0     C30899  10.120   1.420   6.773 -0.1988 -0.0151  0.6073
  235MOL0     C30900  10.212   1.528   6.842 -0.0516  1.2444 -0.5110
  235MOL0     C30901  10.282   1.457   6.965 -0.9745  0.0592 -1.1003
  235MOL0     C30902  10.180   1.462   7.083  0.9815 -0.2191  0.4702
  235MOL0     C30903  10.227   1.355   7.186  0.8806  0.2768  0.2444
  235MOL0     C30904  10.125   1.343   7.303 -0.5721 -0.0399  0.0267
  235MOL0     N30905  10.107   1.471   7.371 -0.3984 -0.0440 -0.7734
  235MOL0     C30906  10.204   1.542   7.429 -0.2045 -0.5808 -0.0112
  235MOL0     C30907  10.149   1.651   7.477  0.6684  1.1253 -0.7571
  235MOL0     C30908  10.232   1.755   7.545 -0.7609 -0.1683 -0.0939
  235MOL0     C30909  10.361   1.790   7.467 -0.7780  0.4352 -0.1315
  235MOL0     C30910  10.411   1.931   7.497  0.1016 -0.3538 -0.3745
  235MOL0     C30911  10.325   2.053   7.443 -0.6764  0.7597  0.0574
  235MOL0     O30912  10.245   2.036   7.329 -0.4535 -0.1687  0.5911
  235MOL0     C30913  10.105   2.059   7.327  0.3059 -0.4051 -0.4298
  235MOL0     C30914  10.012   1.966   7.299  0.3006 -0.3253  0.5148
  235MOL0     C30915   9.873   1.980   7.323  0.2363 -0.2349  0.2852
  235MOL0     C30916   9.823   2.094   7.387 -0.4696  0.3335 -0.2916
  235MOL0     C30917   9.685   2.109   7.436 -0.3191  0.9696 -0.7525
  235MOL0     O30918   9.652   2.003   7.507 -0.6473  0.9021  0.0492
  235MOL0     C30919   9.540   2.006   7.591 -1.1932  0.3745 -0.4043
  235MOL0     C30920   9.552   1.960   7.720 -0.9982  0.2663 -0.6399
  235MOL0     C30921   9.443   1.931   7.802  0.2700  0.1479  0.1920
  235MOL0     C30922   9.316   1.961   7.756  0.6963 -0.1176 -0.0207
  235MOL0     O30923   9.204   1.943   7.831 -0.0886  0.7170  0.2403
  235MOL0     C30924   9.088   1.892   7.773  0.5296  0.7252 -0.4627
  235MOL0     C30925   9.061   1.746   7.821 -0.0961 -0.3817 -0.3287
  235MOL0     C30926   9.177   1.645   7.806  0.5864  1.1522  1.6071
  235MOL0     C30927   9.141   1.523   7.895  0.3109 -0.0489 -0.5270
  235MOL0     C30928   9.179   1.382   7.839 -1.0987  0.5850 -1.1232
  235MOL0     C30929   9.176   1.267   7.936  0.4805  0.5671 -0.6153
  235MOL0     C30930   9.023   1.234   7.977 -0.4833 -0.0608  0.5790
  235MOL0     C30931   8.936   1.184   7.851 -0.5611  0.3012 -0.0136
  235MOL0    Cl30932   8.765   1.174   7.912 -0.2414  0.0746  0.0982
  235MOL0     C30933   9.300   2.014   7.626 -0.7788 -0.7474  0.3405
  235MOL0     C30934   9.413   2.039   7.545  0.2440 -0.0776 -0.6423
  235MOL0     O30935   9.633   2.218   7.425 -0.4664 -0.6349  0.5233
  235MOL0     C30936   9.922   2.191   7.406 -0.3040 -0.0973 -0.6170
  235MOL0     C30937  10.056   2.181   7.367 -0.8295 -0.3643 -0.1356
  235MOL0     N30938  10.012   1.640   7.461 -0.5867  0.0126  0.1127
  235MOL0     N30939   9.989   1.538   7.390 -0.8282  0.9662  0.0107
  235MOL0     C30940   9.856   1.158   6.709 -0.4672  0.5238  0.6186
  235MOL0     C30941   9.791   1.033   6.733 -0.2598  0.4962 -0.8756
  235MOL0     C30942   9.556   0.647   6.714 -0.1167 -0.5263 -0.3534
  235MOL0     C30943   9.425   0.649   6.757 -0.1613 -0.6281 -0.9296
  235MOL0     C30944   9.350   0.532   6.762 -0.0419 -0.5416  0.7091
  235MOL0     C30945   9.394   0.403   6.722 -1.3452  0.9296 -0.7479
  235MOL0     O30946   9.320   0.287   6.727  0.1640  0.3855  0.5455
  235MOL0     C30947   9.188   0.274   6.789  0.0688  0.4356 -0.8994
  235MOL0     C30948   9.182   0.179   6.913 -0.2070 -0.0217  0.1440
  235MOL0     C30949   9.241   0.047   6.863 -0.7209 -0.4874  0.6909
  235MOL0     C30950   9.245  -0.058   6.978  0.4820 -0.0516 -0.4231
  235MOL0     C30951   9.111  -0.109   7.017 -0.4738  0.9780 -0.2592
  235MOL0     C30952   9.004  -0.120   7.039  0.7643 -0.1505 -0.4816
  235MOL0     C30953   9.541   0.397   6.698 -0.0286 -0.1510  0.1019
  235MOL0     C30954   9.612   0.522   6.680 -0.1964 -0.2562 -0.2311
  235MOL0     H30955   9.504   1.100   6.564  0.9883 -0.5044 -1.0194
  235MOL0     H30956   9.611   1.310   6.532 -0.4069  0.5583  1.6840
  235MOL0     H30957   9.978   1.438   6.468  1.3754  1.6411  1.4871
  235MOL0     H30958  10.030   1.296   6.552  1.5968  1.1078  0.0542
  235MOL0     H30959  10.005   1.577   6.667 -2.3753 -0.7498 -3.5180
  235MOL0     H30960  10.153   1.519   6.591 -1.5915  2.6096 -0.2133
  235MOL0     H30961  10.185   1.335   6.752 -1.2039 -1.7106  3.5785
  235MOL0     H30962  10.042   1.404   6.848  0.8123  0.4553  1.7977
  235MOL0     H30963  10.287   1.556   6.769  1.3647 -0.0024  0.4007
  235MOL0     H30964  10.156   1.619   6.864 -3.2310 -0.5759 -0.3526
  235MOL0     H30965  10.373   1.504   7.003 -0.0749 -2.8059  0.6361
  235MOL0     H30966  10.298   1.353   6.934 -2.2608 -0.3940 -0.2871
  235MOL0     H30967  10.079   1.444   7.046  0.6786  1.7544  0.2317
  235MOL0     H30968  10.186   1.554   7.141 -5.0048  0.9862 -0.1623
  235MOL0     H30969  10.210   1.261   7.133 -0.9607 -1.5410  3.7457
  235MOL0     H30970  10.330   1.342   7.223  1.0211 -0.3526 -0.3396
  235MOL0     H30971  10.155   1.269   7.378 -1.0388 -0.0721  0.1855
  235MOL0     H30972  10.032   1.310   7.256 -1.2486  1.0975  0.5593
  235MOL0     H30973  10.309   1.519   7.418  0.6124  1.3407  2.7176
  235MOL0     H30974  10.253   1.722   7.647  0.1202  0.2722 -0.1222
  235MOL0     H30975  10.174   1.847   7.560 -1.3334 -0.5136 -0.1362
  235MOL0     H30976  10.347   1.769   7.360  0.3772  0.6190 -0.3238
  235MOL0     H30977  10.429   1.718   7.513 -3.1798 -1.2915  0.9485
  235MOL0     H30978  10.426   1.940   7.605 -2.8749 -0.3368  0.1024
  235MOL0     H30979  10.510   1.945   7.451  1.6100  1.4439  3.0613
  235MOL0     H30980  10.392   2.137   7.425 -1.9775  2.3471  2.2223
  235MOL0     H30981  10.266   2.085   7.529 -0.2596  0.7850  0.3355
  235MOL0     H30982  10.051   1.873   7.258 -0.4330 -0.5326  0.2802
  235MOL0     H30983   9.803   1.900   7.297 -1.7731  0.7010  2.4790
  235MOL0     H30984   9.648   1.920   7.751 -0.2878  0.5982 -2.2823
  235MOL0     H30985   9.456   1.875   7.895  1.6206 -1.3323 -0.8298
  235MOL0     H30986   9.087   1.894   7.664 -0.8699  1.3663 -0.4680
  235MOL0     H30987   9.001   1.943   7.817 -0.8330 -1.4559 -0.4311
  235MOL0     H30988   8.973   1.705   7.770 -0.9303  1.1789 -0.2247
  235MOL0     H30989   9.038   1.768   7.926 -1.6478  1.9103 -1.0599
  235MOL0     H30990   9.272   1.696   7.823 -0.0727  2.4864  1.4445
  235MOL0     H30991   9.194   1.624   7.700  2.3004  1.7264  1.7274
  235MOL0     H30992   9.186   1.537   7.994 -1.8556 -0.0343  0.5185
  235MOL0     H30993   9.033   1.512   7.912  0.7357 -3.1981  0.8808
  235MOL0     H30994   9.286   1.385   7.818 -0.1961 -3.7957  1.6298
  235MOL0     H30995   9.124   1.357   7.748  1.1290 -2.3888 -1.7898
  235MOL0     H30996   9.235   1.295   8.023 -0.5433 -0.5937  0.4847
  235MOL0     H30997   9.224   1.177   7.895  0.8628  0.1704  0.6532
  235MOL0     H30998   9.025   1.157   8.055 -1.2620  1.1870  1.8581
  235MOL0     H30999   8.973   1.320   8.021  1.9274  1.5890  0.3413
  235MOL0     H31000   8.985   1.087   7.834 -1.3778 -0.7134  2.8290
  235MOL0     H31001   8.942   1.250   7.765 -1.3412  0.0258 -0.2814
  235MOL0     H31002   9.207   2.054   7.588 -0.3523 -0.8671 -0.8612
  235MOL0     H31003   9.412   2.080   7.444 -0.8129  0.2471 -0.5121
  235MOL0     H31004   9.892   2.281   7.458  0.3119 -1.7792  2.9732
  235MOL0     H31005  10.132   2.247   7.406 -0.1594 -3.3071  4.2810
  235MOL0     H31006   9.956   1.172   6.748 -1.0904  1.9473  1.7716
  235MOL0     H31007   9.851   0.964   6.791 -1.4788 -0.3211 -0.5689
  235MOL0     H31008   9.393   0.742   6.804  1.6801  0.3405 -1.5134
  235MOL0     H31009   9.253   0.551   6.808  1.5068  2.1465  3.1519
  235MOL0     H31010   9.110   0.235   6.722 -1.1887  0.6493  0.4011
  235MOL0     H31011   9.152   0.372   6.819 -0.6676 -0.0223 -0.2729
  235MOL0     H31012   9.234   0.220   7.000 -2.4883  2.0511  0.6248
  235MOL0     H31013   9.080   0.156   6.946  0.1185 -2.5380 -0.3825
  235MOL0     H31014   9.341   0.067   6.823 -1.6402  2.2319 -0.4578
  235MOL0     H31015   9.194   0.014   6.770  2.4191  1.3336 -1.7756
  235MOL0     H31016   9.310  -0.141   6.949 -1.6957 -1.4614 -1.5271
  235MOL0     H31017   9.275  -0.016   7.075 -0.7546  0.1078 -0.0905
  235MOL0     H31018   8.899  -0.134   7.057  1.5791 -3.2069  3.3339
  235MOL0     H31019   9.594   0.310   6.661 -0.5902 -0.2709 -0.4390
  235MOL0     H31020   9.709   0.515   6.632  0.2846  2.7981  0.0798
  236MOL0     O31021  10.112   8.474   3.662 -0.4217  0.0426 -0.1041
  236MOL0     C31022  10.033   8.424   3.738  0.2143  0.7825  0.2917
  236MOL0     O31023  10.064   8.321   3.814  0.4021  0.2478  0.0541
  236MOL0     C31024  10.170   8.230   3.779  0.8068  0.3435  0.0573
  236MOL0     C31025  10.160   8.121   3.691 -0.1931  0.5548 -1.0552
  236MOL0     C31026  10.278   8.041   3.674  0.4424  0.5874  0.0479
  236MOL0     C31027  10.398   8.070   3.735  0.5924  0.1063  0.6979
  236MOL0     O31028  10.516   8.003   3.720 -0.5062 -0.7109 -0.2062
  236MOL0     C31029  10.516   7.864   3.675  0.0224 -1.0651 -0.5898
  236MOL0     C31030  10.637   7.797   3.735  0.4472  0.3473 -0.0068
  236MOL0     C31031  10.671   7.665   3.664 -0.1887 -0.1901 -0.4524
  236MOL0     C31032  10.795   7.607   3.712  0.1015  0.2904  0.9722
  236MOL0     C31033  10.817   7.476   3.635 -0.2143  0.3376  0.5983
  236MOL0     C31034  10.919   7.387   3.707 -0.5840  0.4873  0.0136
  236MOL0     C31035  10.963   7.271   3.620 -0.1597  0.4946  0.2429
  236MOL0     C31036  10.874   7.154   3.650  0.8167  0.5426  0.3439
  236MOL0     N31037  10.912   7.045   3.563 -0.6058  0.2934 -0.7073
  236MOL0     C31038  10.957   7.049   3.427  0.7224 -0.6807 -0.0430
  236MOL0     C31039  11.003   6.927   3.397  0.1922 -1.2689  0.0901
  236MOL0     C31040  11.047   6.872   3.261 -0.1029  0.1829 -0.4924
  236MOL0     C31041  10.955   6.893   3.142  0.5491  0.4782  0.0756
  236MOL0     C31042  10.828   6.811   3.140  1.0274  0.2141  0.3722
  236MOL0     C31043  10.866   6.665   3.116 -0.5533  0.6219 -0.2077
  236MOL0     O31044  10.749   6.585   3.142 -0.6407 -0.3608  0.3532
  236MOL0     C31045  10.746   6.451   3.098  0.1486  0.6555 -0.4260
  236MOL0     C31046  10.638   6.373   3.148  1.0611  0.1742  0.4312
  236MOL0     C31047  10.638   6.236   3.131  0.4914 -0.0839  0.2575
  236MOL0     C31048  10.727   6.173   3.044 -0.0806 -0.2629 -0.5367
  236MOL0     C31049  10.728   6.028   3.032  0.3207 -0.5285  0.4381
  236MOL0     O31050  10.618   5.959   3.081  0.2013  0.1229  0.2269
  236MOL0     C31051  10.616   5.824   3.078 -0.0003  0.1074  0.4000
  236MOL0     C31052  10.663   5.749   2.966  0.2738 -0.1488  0.8359
  236MOL0     C31053  10.686   5.615   2.989  0.4835 -0.4732 -0.1566
  236MOL0     C31054  10.650   5.547   3.107 -0.9403 -0.4827  0.1004
  236MOL0     O31055  10.664   5.411   3.123 -0.2842 -0.2245  0.3943
  236MOL0     C31056  10.798   5.355   3.085  0.6585  0.9156 -0.0074
  236MOL0     C31057  10.884   5.379   3.198 -0.1234 -0.4229 -1.0628
  236MOL0     C31058  10.866   5.274   3.311  1.2255  0.0756 -0.4583
  236MOL0     C31059  10.961   5.305   3.423  0.6577  0.7711  0.2083
  236MOL0     C31060  10.943   5.200   3.532 -0.0604 -1.2779 -0.2900
  236MOL0     C31061  11.047   5.252   3.638  0.8020 -0.2214  0.2033
  236MOL0     C31062  11.031   5.197   3.776  0.3171  0.1762 -0.4247
  236MOL0     C31063  11.058   5.046   3.792  1.2305 -0.9808 -0.2477
  236MOL0    Cl31064  11.092   4.994   3.955 -0.3680 -0.1572 -0.1542
  236MOL0     C31065  10.586   5.620   3.203 -0.2645 -0.5063 -0.1646
  236MOL0     C31066  10.573   5.763   3.187 -0.3527 -0.3634 -0.9142
  236MOL0     O31067  10.830   5.982   2.977 -0.7806  0.4864 -0.5790
  236MOL0     C31068  10.827   6.249   2.978  0.2703  0.8150  0.0139
  236MOL0     C31069  10.836   6.384   3.010  0.0925  0.7555 -0.0897
  236MOL0     N31070  10.996   6.851   3.518  0.2486  0.0918 -0.1530
  236MOL0     N31071  10.950   6.926   3.610 -0.7799  0.7090  0.1536
  236MOL0     C31072  10.405   8.182   3.818  0.3358  0.4909 -0.0926
  236MOL0     C31073  10.298   8.262   3.828  0.2407  0.5744  0.4132
  236MOL0     C31074   9.899   8.480   3.755  0.6909  0.5568  0.0928
  236MOL0     C31075   9.862   8.606   3.707 -0.3561  0.4286  0.1692
  236MOL0     C31076   9.733   8.648   3.723 -0.3097 -0.0384  0.0380
  236MOL0     C31077   9.628   8.579   3.784  0.4386 -0.6839  0.7084
  236MOL0     O31078   9.497   8.619   3.784  0.1661  0.4701  0.1133
  236MOL0     C31079   9.472   8.766   3.790  0.0147  0.6985 -1.0211
  236MOL0     C31080   9.326   8.785   3.758 -0.0128  0.2134  0.1292
  236MOL0     C31081   9.273   8.922   3.799 -0.0589 -0.6042 -0.9374
  236MOL0     C31082   9.209   8.923   3.935 -0.4091  0.6008  0.2056
  236MOL0     C31083   9.124   9.041   3.945  0.4451  0.6646 -0.0217
  236MOL0     C31084   9.044   9.126   3.975  0.0647 -0.8266 -0.3196
  236MOL0     C31085   9.667   8.450   3.825 -0.6750 -0.3213  0.5409
  236MOL0     C31086   9.798   8.401   3.816  0.3751  0.5552 -0.1506
  236MOL0     H31087  10.066   8.099   3.641 -1.3423  3.6105 -0.4515
  236MOL0     H31088  10.277   7.953   3.612 -0.5921  1.9336 -1.9673
  236MOL0     H31089  10.509   7.859   3.566 -1.7778 -3.0091 -0.4617
  236MOL0     H31090  10.425   7.810   3.706 -1.8476  1.2945 -1.6546
  236MOL0     H31091  10.606   7.785   3.839 -3.8935  3.8164 -0.6174
  236MOL0     H31092  10.730   7.850   3.713 -1.4546  2.6938 -3.2519
  236MOL0     H31093  10.666   7.675   3.555 -2.4614 -0.1703 -0.3909
  236MOL0     H31094  10.603   7.584   3.692 -0.2218  0.3365  1.0812
  236MOL0     H31095  10.880   7.670   3.687  0.0154 -0.2779 -0.9124
  236MOL0     H31096  10.796   7.564   3.813 -0.1056 -2.5731 -0.1292
  236MOL0     H31097  10.840   7.505   3.532  0.6797 -0.6194  0.5162
  236MOL0     H31098  10.728   7.412   3.632  1.7679 -2.6074  0.0544
  236MOL0     H31099  10.872   7.363   3.803 -0.0435 -0.3756  0.0700
  236MOL0     H31100  11.004   7.453   3.729 -0.3868 -0.7435  3.4666
  236MOL0     H31101  10.951   7.299   3.515  0.8076  1.4536  0.3635
  236MOL0     H31102  11.070   7.259   3.639 -0.4852 -0.1898  1.7966
  236MOL0     H31103  10.767   7.177   3.645  0.1790 -2.2990 -0.9557
  236MOL0     H31104  10.877   7.112   3.751 -2.6137 -0.9163 -0.0139
  236MOL0     H31105  10.951   7.127   3.352  0.2824 -1.5418 -0.9312
  236MOL0     H31106  11.071   6.767   3.282 -1.7393 -0.1119  0.0487
  236MOL0     H31107  11.138   6.926   3.234 -2.4153  2.7256 -4.0501
  236MOL0     H31108  11.018   6.866   3.057  1.3760  1.2583  0.4223
  236MOL0     H31109  10.936   7.001   3.133  0.2542  0.9340  4.1716
  236MOL0     H31110  10.767   6.813   3.231 -0.1440 -0.0815 -0.3830
  236MOL0     H31111  10.759   6.845   3.061  0.1410 -0.6902  0.7237
  236MOL0     H31112  10.944   6.632   3.185 -0.0588  0.2319 -0.9426
  236MOL0     H31113  10.905   6.656   3.014 -0.2503  0.5779 -0.0877
  236MOL0     H31114  10.560   6.414   3.212  2.3234  0.4749  1.8181
  236MOL0     H31115  10.569   6.174   3.188  1.6049 -0.2258  1.5075
  236MOL0     H31116  10.692   5.798   2.874 -1.2168  3.0419  1.9324
  236MOL0     H31117  10.717   5.554   2.904  2.7590  0.7874 -0.3051
  236MOL0     H31118  10.833   5.393   2.989 -0.5248  1.2317 -0.3221
  236MOL0     H31119  10.786   5.249   3.061 -1.4028  1.2339 -0.5881
  236MOL0     H31120  10.870   5.480   3.236  0.0576  0.0336 -2.1853
  236MOL0     H31121  10.986   5.357   3.165  0.9378  2.3521  0.0858
  236MOL0     H31122  10.900   5.177   3.273  0.7836 -0.1447 -0.2966
  236MOL0     H31123  10.764   5.283   3.349  1.6622 -0.8080  0.9983
  236MOL0     H31124  11.061   5.307   3.379 -0.2460  0.4051 -2.0051
  236MOL0     H31125  10.940   5.403   3.467  0.2815  0.6512  0.3014
  236MOL0     H31126  10.972   5.101   3.497 -0.4598 -1.3088 -0.5419
  236MOL0     H31127  10.847   5.200   3.583  0.2441 -3.6340  0.3676
  236MOL0     H31128  11.054   5.361   3.646  1.2694 -0.3081  1.1898
  236MOL0     H31129  11.139   5.207   3.597  0.6873 -0.0656 -0.2287
  236MOL0     H31130  11.107   5.245   3.839  0.1199 -1.8979  1.5112
  236MOL0     H31131  10.937   5.230   3.821  1.3974  1.1593  1.2322
  236MOL0     H31132  11.157   5.029   3.747  1.2732  1.2122 -1.0889
  236MOL0     H31133  10.975   4.993   3.745 -0.2985 -0.2541  1.4972
  236MOL0     H31134  10.534   5.573   3.286  1.5454 -2.0631  0.1518
  236MOL0     H31135  10.527   5.820   3.267 -1.7175 -1.5552 -0.8043
  236MOL0     H31136  10.900   6.211   2.907  0.5744  0.4000  0.5471
  236MOL0     H31137  10.914   6.448   2.968 -0.3471 -1.4705 -4.9406
  236MOL0     H31138  10.499   8.212   3.863  2.0763 -0.6656 -2.6948
  236MOL0     H31139  10.302   8.342   3.901 -1.1675  0.1051  1.0339
  236MOL0     H31140   9.934   8.659   3.647 -1.3614  1.0885 -0.4923
  236MOL0     H31141   9.727   8.750   3.685  2.7180  0.3181  0.2746
  236MOL0     H31142   9.540   8.831   3.734 -0.4596  0.6988 -1.6065
  236MOL0     H31143   9.485   8.799   3.894 -1.4771  1.3561 -1.0198
  236MOL0     H31144   9.322   8.759   3.652 -1.5307 -4.4272  1.1175
  236MOL0     H31145   9.252   8.716   3.799 -1.6568  1.3583 -0.7769
  236MOL0     H31146   9.204   8.952   3.720 -0.8067 -5.1877 -2.3512
  236MOL0     H31147   9.353   8.996   3.793  1.7707 -2.3741  0.1715
  236MOL0     H31148   9.138   8.840   3.935  1.2044 -0.8879  2.5976
  236MOL0     H31149   9.276   8.922   4.021  1.2981 -0.4627 -1.0930
  236MOL0     H31150   8.971   9.200   4.002  1.4644 -1.0001  4.9059
  236MOL0     H31151   9.588   8.381   3.855 -1.4143 -1.4802 -3.4495
  236MOL0     H31152   9.826   8.299   3.841 -2.7455  0.1769  2.5205
  237MOL0     O31153   8.309   9.753   5.700  0.0021  0.2265 -0.5816
  237MOL0     C31154   8.281   9.867   5.659 -0.5287 -0.7419 -0.3305
  237MOL0     O31155   8.367   9.968   5.647  0.2970  0.4227  0.4498
  237MOL0     C31156   8.497   9.967   5.688  0.5120  0.8351  0.1206
  237MOL0     C31157   8.544   9.898   5.799 -0.5066 -0.4320 -0.3109
  237MOL0     C31158   8.680   9.888   5.823  0.8440 -0.0112  0.0107
  237MOL0     C31159   8.770   9.964   5.756 -0.2806  0.8246  0.4405
  237MOL0     O31160   8.898   9.958   5.795 -0.2153 -0.8804  0.5386
  237MOL0     C31161   8.999  10.064   5.770  0.6007  0.3739 -0.2958
  237MOL0     C31162   9.051  10.113   5.907  0.4752 -0.0161  0.1724
  237MOL0     C31163   9.162  10.208   5.868  0.4169  0.1047 -0.2121
  237MOL0     C31164   9.238  10.287   5.979  0.4717 -0.3767  0.6074
  237MOL0     C31165   9.293  10.192   6.093 -0.2759 -0.9434 -0.2248
  237MOL0     C31166   9.427  10.238   6.156  0.3885 -0.7036 -0.3230
  237MOL0     C31167   9.389  10.352   6.257 -1.0795 -0.6914 -1.0372
  237MOL0     C31168   9.513  10.413   6.324  0.9454 -0.3308 -0.2463
  237MOL0     N31169   9.579  10.317   6.419 -0.1486 -0.2016  0.0685
  237MOL0     C31170   9.636  10.356   6.536 -0.4368 -0.4966 -0.0526
  237MOL0     C31171   9.697  10.246   6.590  0.1350  0.2393 -0.2219
  237MOL0     C31172   9.764  10.251   6.728  0.1545  0.1755  0.5348
  237MOL0     C31173   9.855  10.371   6.749  0.3367 -0.0290  0.3103
  237MOL0     C31174   9.957  10.398   6.635 -0.2145 -0.4411 -0.2756
  237MOL0     C31175  10.025  10.537   6.641 -0.9664 -0.6065 -0.0261
  237MOL0     O31176   9.934  10.650   6.644  0.5190  0.6329  0.3027
  237MOL0     C31177   9.840  10.677   6.546  0.2282  0.2846  0.7346
  237MOL0     C31178   9.716  10.743   6.573 -0.0468 -0.8773  0.3983
  237MOL0     C31179   9.629  10.771   6.471  0.5322 -0.6401 -0.1306
  237MOL0     C31180   9.660  10.735   6.328  0.7545  0.4255 -1.1267
  237MOL0     C31181   9.561  10.750   6.222 -0.8418 -1.1361  0.4718
  237MOL0     O31182   9.613  10.739   6.099  0.1329  0.1752 -0.3348
  237MOL0     C31183   9.519  10.744   5.997 -0.7321  0.1303  0.1390
  237MOL0     C31184   9.431  10.640   5.977 -0.2073 -0.1091 -0.4085
  237MOL0     C31185   9.334  10.645   5.876 -0.2603 -0.3051  1.1023
  237MOL0     C31186   9.308  10.761   5.802  0.0026  0.5273  1.1835
  237MOL0     O31187   9.199  10.780   5.722  0.5599  0.0205  0.5136
  237MOL0     C31188   9.229  10.759   5.585 -1.4398  0.0901 -0.5339
  237MOL0     C31189   9.181  10.615   5.554 -0.3091 -0.6201 -0.6253
  237MOL0     C31190   9.026  10.609   5.529 -0.5912  0.2019 -0.8110
  237MOL0     C31191   9.011  10.579   5.382 -0.1423  0.7574 -0.0415
  237MOL0     C31192   8.873  10.571   5.343  0.4850  0.6559  0.6470
  237MOL0     C31193   8.861  10.585   5.189 -0.5403  0.4691 -0.1774
  237MOL0     C31194   8.720  10.556   5.128 -0.7811 -0.0834  0.6223
  237MOL0     C31195   8.737  10.488   4.994  0.2315 -0.4093  0.6866
  237MOL0    Cl31196   8.767  10.614   4.872  0.0676  0.1289  0.1778
  237MOL0     C31197   9.398  10.869   5.822 -0.5679  0.5040  0.0567
  237MOL0     C31198   9.506  10.857   5.911  0.2664 -0.5903 -0.1525
  237MOL0     O31199   9.449  10.780   6.243 -0.3253 -0.4992  0.0829
  237MOL0     C31200   9.785  10.669   6.306  0.3765  0.1036  0.8626
  237MOL0     C31201   9.867  10.635   6.416  0.0980  0.5324 -0.4572
  237MOL0     N31202   9.675  10.148   6.500 -0.3339  1.3466 -0.2350
  237MOL0     N31203   9.614  10.189   6.391 -0.3994  0.3366  0.4682
  237MOL0     C31204   8.729  10.032   5.633  0.0334  0.2490 -0.0610
  237MOL0     C31205   8.589  10.021   5.598 -0.0242 -0.6436  0.2782
  237MOL0     C31206   8.139   9.899   5.625 -0.1509  0.0662 -0.2973
  237MOL0     C31207   8.108  10.037   5.606 -0.0017 -0.0202 -1.0533
  237MOL0     C31208   7.973  10.064   5.571 -0.4646  0.2297 -0.1745
  237MOL0     C31209   7.872   9.965   5.566  0.3997  0.2616  0.7705
  237MOL0     O31210   7.743  10.007   5.546  0.5646  0.5753  0.3146
  237MOL0     C31211   7.633   9.932   5.594 -0.5327  0.4439 -0.2582
  237MOL0     C31212   7.611   9.934   5.746 -0.1662  1.5744 -0.0556
  237MOL0     C31213   7.542  10.071   5.778  0.4555  0.2785  0.1150
  237MOL0     C31214   7.560  10.099   5.929 -0.3604 -0.2369  0.2878
  237MOL0     C31215   7.530  10.240   5.961  0.4603  0.5618 -0.9265
  237MOL0     C31216   7.531  10.359   5.972  0.5561 -0.0974 -1.5548
  237MOL0     C31217   7.910   9.837   5.578 -0.0428 -0.2734 -0.1607
  237MOL0     C31218   8.042   9.800   5.608  0.3993 -0.0413  0.5112
  237MOL0     H31219   8.479   9.842   5.866  0.5531  1.3117  2.3427
  237MOL0     H31220   8.730   9.820   5.891 -0.9121 -2.1394 -0.6996
  237MOL0     H31221   8.957  10.155   5.728  0.0125 -1.5028 -4.2637
  237MOL0     H31222   9.091  10.025   5.725  2.1208 -0.2317  3.0032
  237MOL0     H31223   9.085  10.026   5.965 -3.4831 -3.0050 -1.4709
  237MOL0     H31224   8.965  10.153   5.960 -0.0611 -1.3588  0.3673
  237MOL0     H31225   9.122  10.284   5.801 -1.3297 -1.7790 -1.4342
  237MOL0     H31226   9.241  10.155   5.815  0.2727  1.6366 -2.0728
  237MOL0     H31227   9.316  10.351   5.936  0.0100  1.2382  2.0607
  237MOL0     H31228   9.171  10.358   6.027 -0.4600 -3.2402  3.9489
  237MOL0     H31229   9.312  10.095   6.046  2.4909  0.0156 -1.2969
  237MOL0     H31230   9.213  10.170   6.166 -1.0611  0.0948 -0.7481
  237MOL0     H31231   9.506  10.272   6.089  1.1934  1.5267  1.6085
  237MOL0     H31232   9.467  10.146   6.198  0.8518 -0.7066 -0.7618
  237MOL0     H31233   9.323  10.429   6.215  2.0227  2.2427 -0.9710
  237MOL0     H31234   9.332  10.308   6.339 -1.1609 -0.2273 -0.8449
  237MOL0     H31235   9.478  10.502   6.376 -0.0402 -0.9314  0.1334
  237MOL0     H31236   9.573  10.463   6.247  1.7212 -0.2774  0.3809
  237MOL0     H31237   9.620  10.451   6.585  1.2509 -1.0179  1.5917
  237MOL0     H31238   9.826  10.161   6.728 -0.2483 -0.1575 -1.5584
  237MOL0     H31239   9.693  10.246   6.811 -3.3346  0.5439 -2.2018
  237MOL0     H31240   9.915  10.358   6.840  1.2145 -0.5016 -0.3219
  237MOL0     H31241   9.791  10.459   6.758 -0.4058 -0.3186 -1.7093
  237MOL0     H31242  10.027  10.317   6.661  1.6667  1.0653 -0.4312
  237MOL0     H31243   9.917  10.381   6.535  1.5271 -2.5046 -0.7023
  237MOL0     H31244  10.089  10.545   6.553  1.2721 -0.9514  1.4862
  237MOL0     H31245  10.079  10.552   6.735 -1.9934 -1.4337  0.7194
  237MOL0     H31246   9.689  10.780   6.671 -1.0008  0.4061 -0.3155
  237MOL0     H31247   9.537  10.826   6.485  1.6660  1.7098 -1.2348
  237MOL0     H31248   9.422  10.552   6.039 -0.8527  1.0826  1.2702
  237MOL0     H31249   9.261  10.565   5.872  0.1670 -0.6982  1.0740
  237MOL0     H31250   9.334  10.779   5.563 -1.4193  2.5642  1.4093
  237MOL0     H31251   9.171  10.833   5.530 -0.9062  0.2278 -0.9169
  237MOL0     H31252   9.211  10.561   5.644  1.2355  2.8369  1.0982
  237MOL0     H31253   9.239  10.570   5.473  0.0984  0.7304 -1.1101
  237MOL0     H31254   8.977  10.703   5.557 -0.8462 -0.9204  3.1901
  237MOL0     H31255   8.985  10.524   5.584  0.4087  0.8326  1.0092
  237MOL0     H31256   9.058  10.656   5.320 -3.6889  1.0374 -2.6635
  237MOL0     H31257   9.061  10.484   5.359  2.9088  2.0042  0.9101
  237MOL0     H31258   8.812  10.654   5.379  0.7067 -0.1886  3.1425
  237MOL0     H31259   8.834  10.475   5.379  2.2825 -0.0514  0.8380
  237MOL0     H31260   8.935  10.517   5.146 -0.3399  0.4672  0.1676
  237MOL0     H31261   8.896  10.686   5.164 -0.5272 -0.0616 -2.5574
  237MOL0     H31262   8.662  10.490   5.194 -1.3946  0.5168  0.6860
  237MOL0     H31263   8.660  10.647   5.123  0.3700  0.7718  1.7954
  237MOL0     H31264   8.648  10.431   4.970 -0.3684 -0.1026  2.1127
  237MOL0     H31265   8.813  10.410   4.987  0.0702 -0.4399 -1.5575
  237MOL0     H31266   9.372  10.951   5.757  1.9364 -0.2823 -2.1039
  237MOL0     H31267   9.569  10.945   5.914 -0.9640  0.2968  0.2570
  237MOL0     H31268   9.813  10.648   6.203  1.5102  0.6548  1.0446
  237MOL0     H31269   9.957  10.575   6.402 -1.1186 -0.7846 -3.6087
  237MOL0     H31270   8.800  10.072   5.561  0.6893 -0.1228  0.3706
  237MOL0     H31271   8.552  10.067   5.508 -0.6675 -2.2466 -0.3229
  237MOL0     H31272   8.183  10.112   5.628 -1.0952  1.1774 -1.2778
  237MOL0     H31273   7.943  10.168   5.555 -0.1501  0.3806  0.2038
  237MOL0     H31274   7.656   9.829   5.564  2.0070  0.9674 -0.2953
  237MOL0     H31275   7.543   9.980   5.554 -0.4509  2.7335  2.0332
  237MOL0     H31276   7.552   9.845   5.773  2.1319 -1.2297 -3.4711
  237MOL0     H31277   7.709   9.927   5.794  1.5351  1.3476 -3.2716
  237MOL0     H31278   7.436  10.071   5.753 -0.9218 -0.9008  4.9248
  237MOL0     H31279   7.592  10.147   5.718 -2.7887 -0.0704 -3.3549
  237MOL0     H31280   7.482  10.035   5.969 -0.6557 -0.4602 -0.6321
  237MOL0     H31281   7.662  10.073   5.958  0.4781  2.2193 -0.1690
  237MOL0     H31282   7.521  10.465   5.968  0.4725  0.0714  1.0666
  237MOL0     H31283   7.838   9.757   5.571 -1.2555  0.9240 -5.1356
  237MOL0     H31284   8.072   9.696   5.617  0.2430 -0.0690  0.7083
  238MOL0     O31285   0.772   2.043   5.352 -1.1420 -0.4006  0.0041
  238MOL0     C31286   0.807   1.926   5.351 -1.3500 -0.1450  0.2903
  238MOL0     O31287   0.744   1.811   5.308  0.2013 -0.5491 -0.6138
  238MOL0     C31288   0.613   1.817   5.258 -0.1065  0.4690 -0.5850
  238MOL0     C31289   0.515   1.928   5.254 -0.4321 -0.1825  0.0092
  238MOL0     C31290   0.377   1.904   5.224 -0.4645 -0.3737  0.1404
  238MOL0     C31291   0.327   1.784   5.194 -0.8164  1.0950 -0.4273
  238MOL0     O31292   0.205   1.755   5.145 -0.1928  0.0245  0.7836
  238MOL0     C31293   0.119   1.872   5.124 -1.1293 -0.0165 -0.6479
  238MOL0     C31294  -0.012   1.836   5.070  0.6290 -0.5949  0.3239
  238MOL0     C31295  -0.077   1.743   5.168 -0.0096  0.4089 -1.1184
  238MOL0     C31296  -0.215   1.688   5.120 -0.3044  0.2926 -0.3966
  238MOL0     C31297  -0.204   1.574   5.020 -0.4191 -0.1839  0.6395
  238MOL0     C31298  -0.331   1.553   4.938  0.4591 -0.1564  1.0309
  238MOL0     C31299  -0.449   1.496   5.039  0.5396 -1.1092 -0.3408
  238MOL0     C31300  -0.595   1.526   4.994 -0.2414  0.3410  0.1021
  238MOL0     N31301  -0.700   1.424   5.036 -0.0767  0.3072  0.1535
  238MOL0     C31302  -0.744   1.406   5.166  0.1050 -0.0700 -1.0901
  238MOL0     C31303  -0.869   1.360   5.164  1.2218 -0.1839  0.9354
  238MOL0     C31304  -0.957   1.326   5.273  0.2217 -0.0554  0.1214
  238MOL0     C31305  -1.095   1.391   5.277  0.4104  0.0566  0.3682
  238MOL0     C31306  -1.095   1.543   5.273 -0.1097 -0.8028  0.1967
  238MOL0     C31307  -1.185   1.609   5.382 -0.0126 -0.3451  1.4645
  238MOL0     O31308  -1.301   1.669   5.322 -0.3641  0.2536  0.0229
  238MOL0     C31309  -1.395   1.598   5.254 -0.2937 -0.8967  0.1460
  238MOL0     C31310  -1.421   1.465   5.276  0.5445 -0.1167  0.7929
  238MOL0     C31311  -1.520   1.393   5.206  0.1732  0.7016  0.1926
  238MOL0     C31312  -1.604   1.462   5.108 -0.7205 -0.2430 -0.3236
  238MOL0     C31313  -1.700   1.386   5.032  0.2941  0.1298 -0.8942
  238MOL0     O31314  -1.658   1.260   4.991  0.6142  0.8965  0.0949
  238MOL0     C31315  -1.735   1.193   4.908  0.3338  1.2792 -0.6259
  238MOL0     C31316  -1.709   1.058   4.905  0.8261 -0.2381  0.0686
  238MOL0     C31317  -1.774   0.976   4.820 -0.5772  0.3884 -0.7327
  238MOL0     C31318  -1.888   1.020   4.748 -0.5894  0.6060  0.5092
  238MOL0     O31319  -1.956   0.929   4.675  0.4147 -0.2721  0.2061
  238MOL0     C31320  -1.915   0.950   4.539  0.1484 -0.5452  1.0180
  238MOL0     C31321  -1.835   0.829   4.488  0.6935 -0.0367  1.1812
  238MOL0     C31322  -1.763   0.840   4.355  0.3169  1.1106  0.9860
  238MOL0     C31323  -1.625   0.904   4.378 -0.0914 -0.2539 -0.3870
  238MOL0     C31324  -1.517   0.831   4.305  0.1715  0.5605  0.3972
  238MOL0     C31325  -1.543   0.807   4.156  0.4226 -0.2497  0.2380
  238MOL0     C31326  -1.550   0.942   4.084 -0.1662 -1.0969 -0.3042
  238MOL0     C31327  -1.478   0.938   3.949  0.4761 -0.5822  0.3345
  238MOL0    Cl31328  -1.367   1.076   3.931  0.3662 -0.6062 -0.0888
  238MOL0     C31329  -1.918   1.152   4.757  0.3323  0.8875 -0.0900
  238MOL0     C31330  -1.841   1.242   4.829  0.7510 -0.2022  0.2086
  238MOL0     O31331  -1.818   1.434   5.029  0.0676  0.2118  0.4819
  238MOL0     C31332  -1.578   1.598   5.095 -0.5140 -0.0400  0.8259
  238MOL0     C31333  -1.487   1.665   5.170 -0.7053  0.0922  0.1337
  238MOL0     N31334  -0.916   1.363   5.029  0.0966 -0.4233  0.4048
  238MOL0     N31335  -0.811   1.411   4.958 -0.6564  0.0806 -0.5196
  238MOL0     C31336   0.425   1.681   5.198 -0.0638 -0.2187  0.3894
  238MOL0     C31337   0.562   1.694   5.231 -0.2047 -0.6724  0.8301
  238MOL0     C31338   0.952   1.912   5.377 -0.1431  0.6518  0.1222
  238MOL0     C31339   1.003   1.788   5.426  0.1701  0.3861  0.7121
  238MOL0     C31340   1.133   1.771   5.465  0.0456 -0.9180 -1.6679
  238MOL0     C31341   1.227   1.878   5.457  0.5981  0.0492  0.4644
  238MOL0     O31342   1.354   1.884   5.505  0.3611 -0.2481 -0.4057
  238MOL0     C31343   1.351   1.866   5.646  0.9790  0.9771 -0.0138
  238MOL0     C31344   1.308   1.982   5.722  0.4717 -0.6068  0.2150
  238MOL0     C31345   1.395   2.101   5.722  0.4703 -0.3922 -1.0873
  238MOL0     C31346   1.339   2.239   5.748  0.0010 -0.2069  0.3539
  238MOL0     C31347   1.240   2.273   5.643 -0.4020  0.1971  0.6698
  238MOL0     C31348   1.158   2.303   5.552 -0.5717  0.3774  0.2668
  238MOL0     C31349   1.178   1.994   5.396 -1.3412  0.2197 -0.3669
  238MOL0     C31350   1.043   2.014   5.371 -0.6205 -0.1173  0.6547
  238MOL0     H31351   0.541   2.030   5.282 -1.1405 -0.4468  1.7765
  238MOL0     H31352   0.312   1.991   5.216  2.6114  1.9457 -1.6871
  238MOL0     H31353   0.168   1.931   5.046  1.8116 -0.5312  0.6822
  238MOL0     H31354   0.100   1.923   5.219  0.1801 -1.9110  0.7008
  238MOL0     H31355   0.004   1.783   4.975  3.1954 -1.3575  1.1115
  238MOL0     H31356  -0.074   1.925   5.053 -2.5340 -2.6754  0.1904
  238MOL0     H31357  -0.106   1.784   5.265 -1.3763  0.2901 -1.4555
  238MOL0     H31358  -0.017   1.654   5.188  0.8290  1.0087 -0.9299
  238MOL0     H31359  -0.270   1.639   5.201 -1.4207 -2.1614 -2.4876
  238MOL0     H31360  -0.267   1.773   5.075 -0.7577  0.9108  1.2528
  238MOL0     H31361  -0.167   1.482   5.067 -0.5772 -1.5855 -1.7803
  238MOL0     H31362  -0.128   1.596   4.945 -0.4048 -2.4690 -0.1143
  238MOL0     H31363  -0.324   1.469   4.868  0.6999  1.3466 -0.8245
  238MOL0     H31364  -0.349   1.655   4.903  2.1583  1.0104  3.2369
  238MOL0     H31365  -0.425   1.389   5.041 -0.9099 -1.4816  2.7605
  238MOL0     H31366  -0.437   1.524   5.144  0.9982 -0.9299 -0.4400
  238MOL0     H31367  -0.594   1.528   4.885 -1.1588  0.4108  0.0858
  238MOL0     H31368  -0.621   1.626   5.030  3.0668  1.4418 -0.2609
  238MOL0     H31369  -0.688   1.438   5.254  0.1173  1.3094 -1.5756
  238MOL0     H31370  -0.904   1.356   5.364 -0.4268  0.4776  0.3288
  238MOL0     H31371  -0.970   1.217   5.275 -0.3881  0.0224  0.4145
  238MOL0     H31372  -1.138   1.355   5.371  0.8049 -0.9570  0.1692
  238MOL0     H31373  -1.155   1.349   5.195 -1.1073 -0.8507  1.8748
  238MOL0     H31374  -0.991   1.574   5.288  0.5570 -1.9753 -1.6703
  238MOL0     H31375  -1.117   1.573   5.170  1.0069 -0.8034 -0.0482
  238MOL0     H31376  -1.141   1.691   5.441 -1.4363 -1.7531  4.7174
  238MOL0     H31377  -1.222   1.536   5.454 -0.6368 -0.2174  1.2782
  238MOL0     H31378  -1.352   1.406   5.335  1.9264  2.3104  1.7700
  238MOL0     H31379  -1.545   1.289   5.226  2.2173  0.1881  0.2792
  238MOL0     H31380  -1.631   1.013   4.966 -0.5980  0.1746  2.3168
  238MOL0     H31381  -1.740   0.874   4.808  2.4028  1.1228  0.4622
  238MOL0     H31382  -1.844   1.031   4.518  0.6095 -1.8467 -3.2831
  238MOL0     H31383  -2.000   0.975   4.475  1.1443  1.9700  0.5572
  238MOL0     H31384  -1.906   0.747   4.499 -0.2061  0.8392  2.1302
  238MOL0     H31385  -1.753   0.822   4.560  3.1953  1.1732 -1.3336
  238MOL0     H31386  -1.827   0.890   4.282 -0.1523  1.8891  1.9043
  238MOL0     H31387  -1.743   0.736   4.325  3.8517  1.3684  1.9465
  238MOL0     H31388  -1.625   1.012   4.359  0.7208 -0.2220 -0.2725
  238MOL0     H31389  -1.593   0.902   4.483 -2.2346  0.7173  0.3504
  238MOL0     H31390  -1.520   0.733   4.353  1.1709 -0.4360 -1.4271
  238MOL0     H31391  -1.417   0.874   4.316  1.0228 -1.4372  0.9572
  238MOL0     H31392  -1.630   0.743   4.135 -1.8451  2.4676  0.7237
  238MOL0     H31393  -1.460   0.741   4.131  3.0333  1.3360  3.8987
  238MOL0     H31394  -1.656   0.960   4.060  0.0862 -2.1899 -2.5047
  238MOL0     H31395  -1.520   1.019   4.156  1.4208 -0.3035 -1.7597
  238MOL0     H31396  -1.551   0.934   3.867  2.3049  0.8058 -1.4636
  238MOL0     H31397  -1.418   0.847   3.949 -2.2515 -2.5387  2.1810
  238MOL0     H31398  -1.999   1.191   4.697  0.6237 -1.9908 -2.5899
  238MOL0     H31399  -1.860   1.349   4.828 -0.7543 -0.4434 -2.2110
  238MOL0     H31400  -1.638   1.656   5.026 -2.1720 -2.7216 -0.1360
  238MOL0     H31401  -1.463   1.770   5.174  1.7387 -0.4120 -0.0340
  238MOL0     H31402   0.382   1.587   5.165 -0.4422 -0.0629  0.4353
  238MOL0     H31403   0.630   1.609   5.228  0.1309 -0.3701 -0.5543
  238MOL0     H31404   0.941   1.699   5.433 -1.5938  1.6577  1.9616
  238MOL0     H31405   1.165   1.673   5.499 -0.7864 -0.7321 -0.2754
  238MOL0     H31406   1.454   1.838   5.669  1.0817 -0.0811 -1.5985
  238MOL0     H31407   1.289   1.781   5.676 -0.8792  1.4694 -2.1810
  238MOL0     H31408   1.208   2.001   5.681  0.2383 -0.3975  0.8742
  238MOL0     H31409   1.287   1.948   5.824  0.1658 -3.1262 -0.6226
  238MOL0     H31410   1.437   2.118   5.622  1.9469  1.2562 -0.2326
  238MOL0     H31411   1.477   2.077   5.791 -1.3881 -2.0560  0.6545
  238MOL0     H31412   1.292   2.255   5.846 -0.4812  0.4293  0.0285
  238MOL0     H31413   1.422   2.310   5.747 -0.9111  0.8927  0.1507
  238MOL0     H31414   1.090   2.351   5.485 -1.0410  1.1292  1.2634
  238MOL0     H31415   1.249   2.069   5.362  0.1241 -1.1556 -0.4196
  238MOL0     H31416   1.018   2.109   5.325  0.7863  0.1888  0.4794
  239MOL0     O31417   6.996   8.853   8.190 -0.8304  0.1805  0.2158
  239MOL0     C31418   7.005   8.760   8.113 -0.1020 -0.7900 -0.3393
  239MOL0     O31419   7.111   8.729   8.040  0.1192 -0.0518  1.0607
  239MOL0     C31420   7.230   8.790   8.074  0.3163  0.1875  0.4242
  239MOL0     C31421   7.260   8.927   8.090  0.1097  0.0525  0.3770
  239MOL0     C31422   7.390   8.974   8.117  0.4615 -0.0934  0.5381
  239MOL0     C31423   7.498   8.882   8.107 -0.1284  0.2093  0.3135
  239MOL0     O31424   7.627   8.916   8.113  0.1151 -0.4027  1.0035
  239MOL0     C31425   7.665   9.025   8.206  0.7834 -0.5567  0.5917
  239MOL0     C31426   7.815   8.991   8.230 -0.9082  0.1049 -0.4526
  239MOL0     C31427   7.880   9.072   8.334 -0.5228  0.1721 -0.6184
  239MOL0     C31428   7.926   9.212   8.288 -0.4723 -0.4880  0.1199
  239MOL0     C31429   7.979   9.310   8.396 -0.6893  0.0711  0.7610
  239MOL0     C31430   8.013   9.449   8.343  0.1183  1.1288  0.5285
  239MOL0     C31431   7.889   9.536   8.306  0.3675  0.3150  0.8908
  239MOL0     C31432   7.920   9.690   8.282  0.5520  0.6689 -0.1744
  239MOL0     N31433   7.802   9.764   8.235 -0.0588 -0.3742  0.0859
  239MOL0     C31434   7.673   9.738   8.261  0.4288  0.4395  0.9491
  239MOL0     C31435   7.591   9.825   8.207  0.7339  1.2676  0.7743
  239MOL0     C31436   7.443   9.854   8.226  0.4576 -0.5618  0.8238
  239MOL0     C31437   7.381   9.903   8.093  0.1061  0.7993  1.1193
  239MOL0     C31438   7.231   9.940   8.085 -0.4147 -0.4489  0.0580
  239MOL0     C31439   7.207  10.064   8.005 -0.7971 -0.4660  0.1132
  239MOL0     O31440   7.071  10.090   7.986 -0.2848  0.1685  0.1199
  239MOL0     C31441   7.036  10.219   7.949 -0.7075 -0.0976  0.0187
  239MOL0     C31442   7.113  10.322   7.892  0.4783  0.3748 -1.2641
  239MOL0     C31443   7.055  10.445   7.857 -1.0258 -0.4981  0.0694
  239MOL0     C31444   6.920  10.474   7.879  0.4347  0.2044 -0.5721
  239MOL0     C31445   6.858  10.613   7.846 -0.3204  0.6278  0.4100
  239MOL0     O31446   6.722  10.630   7.860  0.2431  0.8234 -0.1484
  239MOL0     C31447   6.669  10.761   7.853 -1.5988  0.2351 -0.7396
  239MOL0     C31448   6.571  10.798   7.764 -1.0529 -0.8999  0.5051
  239MOL0     C31449   6.512  10.919   7.753  0.7587  0.0606 -0.0409
  239MOL0     C31450   6.546  11.020   7.848 -0.3419 -0.0613 -0.6115
  239MOL0     O31451   6.481  11.136   7.867 -0.2660  0.1270 -0.2538
  239MOL0     C31452   6.405  11.194   7.761 -0.1983 -0.0438  0.9512
  239MOL0     C31453   6.297  11.289   7.804  0.1435 -0.9991  0.9519
  239MOL0     C31454   6.183  11.204   7.865 -0.0052 -0.4997  0.7101
  239MOL0     C31455   6.089  11.305   7.936  0.3768 -0.0257  0.0254
  239MOL0     C31456   5.997  11.229   8.027 -0.2868 -0.1350  0.0958
  239MOL0     C31457   6.051  11.186   8.169 -0.6345  0.8443  1.0974
  239MOL0     C31458   5.940  11.125   8.260 -0.7923  0.8409  0.0295
  239MOL0     C31459   5.993  11.019   8.360 -0.2213 -0.3109  0.3681
  239MOL0    Cl31460   5.855  10.955   8.465 -0.2651  0.0886 -0.1865
  239MOL0     C31461   6.642  10.986   7.945  1.0486  0.1156  0.2830
  239MOL0     C31462   6.708  10.863   7.947 -0.3694 -0.3657 -0.1270
  239MOL0     O31463   6.937  10.692   7.802  0.3587 -0.6706  0.6463
  239MOL0     C31464   6.843  10.369   7.934 -0.2057  0.4841 -0.4490
  239MOL0     C31465   6.908  10.252   7.974 -0.2679 -0.6466  0.8069
  239MOL0     N31466   7.676   9.896   8.123  0.8024 -0.4451  0.2038
  239MOL0     N31467   7.801   9.859   8.136 -1.1823 -0.7379 -0.0625
  239MOL0     C31468   7.475   8.751   8.085  0.0402 -0.2360  0.3913
  239MOL0     C31469   7.342   8.705   8.050  0.5799 -0.0348 -1.0685
  239MOL0     C31470   6.893   8.665   8.107  0.1912 -0.2710  0.2490
  239MOL0     C31471   6.766   8.709   8.153  0.1752  0.2954  0.6450
  239MOL0     C31472   6.664   8.621   8.172 -1.0271  0.0043 -0.0889
  239MOL0     C31473   6.675   8.493   8.124  0.4217  0.7440  0.1585
  239MOL0     O31474   6.581   8.405   8.116 -1.0721  0.2510  0.0650
  239MOL0     C31475   6.450   8.424   8.056  0.6527 -0.4716  0.4537
  239MOL0     C31476   6.464   8.370   7.913 -0.0605  0.9007 -0.2459
  239MOL0     C31477   6.357   8.404   7.810 -0.4498  0.5632 -2.0055
  239MOL0     C31478   6.421   8.358   7.678  0.7837  0.4442 -1.2240
  239MOL0     C31479   6.325   8.393   7.573  0.7565 -0.5411 -0.9192
  239MOL0     C31480   6.234   8.421   7.495 -0.6469  0.1883  0.2220
  239MOL0     C31481   6.794   8.457   8.072 -0.1570  0.4554 -0.5434
  239MOL0     C31482   6.909   8.542   8.058 -0.2398 -0.3839 -0.3273
  239MOL0     H31483   7.173   8.992   8.086 -1.6122 -2.0862  0.8095
  239MOL0     H31484   7.416   9.076   8.145  0.0246  0.0771  0.3172
  239MOL0     H31485   7.607   9.009   8.298  0.3032 -0.6493  0.2760
  239MOL0     H31486   7.658   9.125   8.162  1.5713 -0.4657  0.6608
  239MOL0     H31487   7.871   9.004   8.137  1.2948  0.0805  0.8160
  239MOL0     H31488   7.822   8.886   8.260  1.5578  0.6196  1.0406
  239MOL0     H31489   7.969   9.009   8.349  0.2712  1.7277  1.7929
  239MOL0     H31490   7.821   9.066   8.426  1.7066 -0.8198  0.8369
  239MOL0     H31491   7.996   9.201   8.205  0.9381  0.7285  1.1060
  239MOL0     H31492   7.836   9.255   8.242 -2.3447 -1.0704  2.9398
  239MOL0     H31493   8.069   9.268   8.441  0.6814  1.3651 -0.6061
  239MOL0     H31494   7.897   9.322   8.467 -1.3024  2.9169 -0.2636
  239MOL0     H31495   8.075   9.438   8.254 -1.4246  0.2137 -0.4796
  239MOL0     H31496   8.078   9.489   8.422 -1.2341 -1.5746  3.1822
  239MOL0     H31497   7.832   9.486   8.228  1.4609  2.1000 -1.1490
  239MOL0     H31498   7.819   9.533   8.390  0.6725  0.0155  1.1374
  239MOL0     H31499   7.982   9.721   8.197 -0.2923  0.4257 -0.8893
  239MOL0     H31500   7.959   9.722   8.379  2.2035  1.0726 -0.9394
  239MOL0     H31501   7.628   9.653   8.313  0.9267 -0.9805 -0.8323
  239MOL0     H31502   7.437   9.936   8.298  4.3723  0.6980 -0.0523
  239MOL0     H31503   7.375   9.777   8.264  0.1919 -0.3157  0.8536
  239MOL0     H31504   7.403   9.821   8.023 -1.5910 -0.4148  1.9090
  239MOL0     H31505   7.429   9.993   8.054 -2.1027  0.5806 -2.6044
  239MOL0     H31506   7.177   9.849   8.058  1.9328 -1.9010 -0.0331
  239MOL0     H31507   7.207   9.967   8.189  3.9859  5.2184  0.0973
  239MOL0     H31508   7.250  10.050   7.905 -2.9115  1.3556 -1.1442
  239MOL0     H31509   7.265  10.146   8.049 -0.8842 -0.8255  0.9013
  239MOL0     H31510   7.218  10.296   7.879  0.2754 -0.9176 -0.4656
  239MOL0     H31511   7.116  10.531   7.830 -3.8559  1.5999 -0.0447
  239MOL0     H31512   6.528  10.735   7.686 -0.9943 -0.1711 -0.1365
  239MOL0     H31513   6.433  10.925   7.679  1.7760 -2.0505 -1.3741
  239MOL0     H31514   6.374  11.120   7.687 -0.5747 -1.6460  2.6215
  239MOL0     H31515   6.476  11.255   7.705 -1.0165 -1.2342 -1.4949
  239MOL0     H31516   6.262  11.343   7.716 -1.3714 -0.3321  1.9106
  239MOL0     H31517   6.337  11.354   7.882 -0.6899 -0.1836  0.7210
  239MOL0     H31518   6.226  11.146   7.947 -1.8699  0.1577  2.2049
  239MOL0     H31519   6.132  11.137   7.794  1.6535 -1.3025  0.2021
  239MOL0     H31520   6.132  11.390   7.990 -0.1636  0.2968 -0.0385
  239MOL0     H31521   6.020  11.360   7.872  2.2517  4.4826  1.4213
  239MOL0     H31522   5.958  11.144   7.970  0.0997 -1.3617  1.5840
  239MOL0     H31523   5.908  11.289   8.050 -2.1337 -0.6676 -4.5269
  239MOL0     H31524   6.103  11.270   8.215 -0.1124  1.9829 -1.3881
  239MOL0     H31525   6.127  11.109   8.152 -0.6448  0.9299  0.6205
  239MOL0     H31526   5.898  11.204   8.323 -1.6197 -0.2272  0.8644
  239MOL0     H31527   5.853  11.074   8.217  1.0548 -1.6180 -1.0459
  239MOL0     H31528   6.069  11.072   8.419  1.7170  0.7783 -2.8113
  239MOL0     H31529   6.052  10.949   8.299  0.3692  0.6346 -0.1783
  239MOL0     H31530   6.665  11.060   8.021 -0.4159  0.2374  0.6368
  239MOL0     H31531   6.779  10.854   8.028  1.1652 -1.4444 -1.5294
  239MOL0     H31532   6.736  10.383   7.919 -0.6518  0.7061  2.3398
  239MOL0     H31533   6.850  10.171   8.018 -0.0469 -0.6382  1.1170
  239MOL0     H31534   7.554   8.677   8.088  2.1268  1.8534 -0.1684
  239MOL0     H31535   7.315   8.601   8.036 -2.3733  0.0573  2.4610
  239MOL0     H31536   6.726   8.801   8.194  0.1404 -0.5997  2.7468
  239MOL0     H31537   6.568   8.643   8.217 -0.7005 -1.4925  1.4168
  239MOL0     H31538   6.423   8.530   8.056  2.0071 -0.0459  2.8810
  239MOL0     H31539   6.376   8.361   8.106 -0.5043 -0.8569 -1.6391
  239MOL0     H31540   6.564   8.397   7.879  1.3923 -3.0319  0.3268
  239MOL0     H31541   6.466   8.260   7.915  1.0653  0.9135  0.0561
  239MOL0     H31542   6.331   8.510   7.814 -1.9441  0.1953 -1.4954
  239MOL0     H31543   6.255   8.367   7.821 -0.6809  1.8062  1.3670
  239MOL0     H31544   6.520   8.399   7.654  2.2391 -2.7953 -1.2974
  239MOL0     H31545   6.445   8.251   7.677 -0.4287  0.1662 -1.8479
  239MOL0     H31546   6.148   8.441   7.434 -0.0550 -0.3844 -0.8250
  239MOL0     H31547   6.804   8.353   8.043  0.2842 -0.0755  1.3740
  239MOL0     H31548   7.007   8.509   8.026  1.0918  0.3881  2.5965
  240MOL0     O31549   7.187   8.170   3.172 -0.0398 -0.1958  0.1226
  240MOL0     C31550   7.095   8.250   3.182  0.4188 -0.8596  0.1068
  240MOL0     O31551   7.092   8.372   3.126 -0.0342 -0.4893  0.4099
  240MOL0     C31552   7.192   8.399   3.031  0.9004 -0.7907 -0.1078
  240MOL0     C31553   7.299   8.492   3.063 -0.1758 -0.3209 -1.9321
  240MOL0     C31554   7.384   8.540   2.958  0.4574 -0.5132  0.5954
  240MOL0     C31555   7.362   8.508   2.817  0.2579  0.5969  0.1545
  240MOL0     O31556   7.437   8.572   2.723 -0.1736  0.7719 -0.4513
  240MOL0     C31557   7.385   8.707   2.699 -0.1793  0.1124  0.4167
  240MOL0     C31558   7.404   8.757   2.552 -1.3259 -0.0689  0.4474
  240MOL0     C31559   7.340   8.901   2.523 -0.2435 -1.0916 -0.3269
  240MOL0     C31560   7.370   8.945   2.373  0.3095  0.5481 -0.9427
  240MOL0     C31561   7.294   9.074   2.341 -1.2313  0.1926  0.3186
  240MOL0     C31562   7.321   9.197   2.430  1.0191  0.4414 -0.1036
  240MOL0     C31563   7.456   9.236   2.441  0.3869 -0.0143  0.3932
  240MOL0     C31564   7.532   9.267   2.309  0.0951  0.5578 -0.8364
  240MOL0     N31565   7.675   9.265   2.334  0.0359  0.2235 -0.6889
  240MOL0     C31566   7.737   9.168   2.414  0.8629  0.0766 -0.5735
  240MOL0     C31567   7.861   9.209   2.440  1.1710 -0.8034 -0.3691
  240MOL0     C31568   7.968   9.149   2.528  0.2740 -0.4299 -0.2246
  240MOL0     C31569   8.103   9.169   2.463 -0.4013  0.2511  0.4485
  240MOL0     C31570   8.227   9.091   2.527 -0.1689 -0.3803  0.8124
  240MOL0     C31571   8.361   9.112   2.459 -0.0238 -0.0748  0.0909
  240MOL0     O31572   8.459   9.024   2.523 -0.5109  0.4487  0.2864
  240MOL0     C31573   8.562   8.987   2.446 -0.4642 -0.0408  0.9417
  240MOL0     C31574   8.656   8.900   2.498  1.4847 -0.4682  0.1495
  240MOL0     C31575   8.765   8.844   2.434  0.1795 -0.4547 -0.0220
  240MOL0     C31576   8.786   8.880   2.298  0.2345 -1.5059  0.3724
  240MOL0     C31577   8.907   8.840   2.224 -0.2175 -0.0933  1.0133
  240MOL0     O31578   8.962   8.724   2.264 -0.0110 -0.2718  0.4362
  240MOL0     C31579   9.073   8.664   2.207 -0.6145  0.8236 -0.3740
  240MOL0     C31580   9.063   8.523   2.223 -1.0180  0.3163 -0.7978
  240MOL0     C31581   9.163   8.444   2.156  0.2055  0.7179  0.2511
  240MOL0     C31582   9.262   8.502   2.074 -0.0898 -0.4652 -0.5847
  240MOL0     O31583   9.349   8.425   1.998 -0.1697 -0.1972  0.1882
  240MOL0     C31584   9.491   8.434   1.999 -0.8938 -0.1541 -0.1840
  240MOL0     C31585   9.537   8.399   1.864 -0.8138 -0.0596  0.4487
  240MOL0     C31586   9.499   8.261   1.814 -0.0811  1.1927  0.3527
  240MOL0     C31587   9.609   8.156   1.856 -0.1763  0.2196  0.2790
  240MOL0     C31588   9.575   8.024   1.776  1.1298  0.0672  0.3085
  240MOL0     C31589   9.629   8.044   1.634 -0.1538  0.3122 -0.0481
  240MOL0     C31590   9.692   7.917   1.578 -0.6926 -0.5272 -0.6696
  240MOL0     C31591   9.580   7.816   1.571  0.5229 -0.7568  1.1095
  240MOL0    Cl31592   9.575   7.729   1.411  0.5442 -0.3209 -0.0679
  240MOL0     C31593   9.264   8.652   2.063 -0.3481 -0.4518  0.1348
  240MOL0     C31594   9.174   8.728   2.132 -0.3703 -0.0654 -0.7126
  240MOL0     O31595   8.953   8.912   2.135  0.1461  0.6750  0.1788
  240MOL0     C31596   8.694   8.974   2.240  0.0459 -0.0826  0.0727
  240MOL0     C31597   8.592   9.034   2.315  0.1902 -0.2647  0.0960
  240MOL0     N31598   7.873   9.321   2.368 -0.3510  0.5963  0.4053
  240MOL0     N31599   7.767   9.358   2.304  0.6389 -0.3137 -0.7462
  240MOL0     C31600   7.248   8.424   2.789  0.9000  0.9036  0.4366
  240MOL0     C31601   7.167   8.378   2.896 -0.3381 -0.6216 -0.4286
  240MOL0     C31602   6.972   8.212   3.265 -0.0155 -0.1820 -0.2339
  240MOL0     C31603   6.934   8.078   3.269  0.5785 -0.6138 -0.3727
  240MOL0     C31604   6.843   8.035   3.366  0.3722 -0.0042 -0.2857
  240MOL0     C31605   6.768   8.124   3.446 -0.8452 -0.3089  0.8459
  240MOL0     O31606   6.663   8.078   3.527 -0.4095  0.3160 -0.4418
  240MOL0     C31607   6.576   8.160   3.605 -0.1829 -0.0486  0.2153
  240MOL0     C31608   6.620   8.146   3.751 -0.1148 -0.8556 -0.3735
  240MOL0     C31609   6.765   8.192   3.768 -0.2377  0.4244 -0.6064
  240MOL0     C31610   6.815   8.154   3.911 -0.5781  0.2056  0.6329
  240MOL0     C31611   6.760   8.225   4.027  0.0467  0.6043 -0.2424
  240MOL0     C31612   6.711   8.264   4.129 -0.1489  0.3769  0.8036
  240MOL0     C31613   6.800   8.260   3.435 -0.3696 -0.6452  0.3140
  240MOL0     C31614   6.906   8.305   3.344 -0.7943 -0.6800 -0.4405
  240MOL0     H31615   7.317   8.537   3.161 -1.3211  0.2413 -1.9658
  240MOL0     H31616   7.451   8.619   2.991  1.2004 -0.9399  0.1317
  240MOL0     H31617   7.418   8.784   2.769 -1.1603  2.6469 -1.7764
  240MOL0     H31618   7.276   8.698   2.705 -0.3269 -2.7846 -2.9787
  240MOL0     H31619   7.373   8.683   2.478 -3.4222  1.1831 -0.0336
  240MOL0     H31620   7.511   8.760   2.532 -1.5462  2.0655 -0.7758
  240MOL0     H31621   7.375   8.978   2.592 -0.7267 -0.1817 -1.0624
  240MOL0     H31622   7.231   8.907   2.522 -0.1973  1.1385 -2.4638
  240MOL0     H31623   7.476   8.973   2.367  0.3827  0.7858  0.9085
  240MOL0     H31624   7.339   8.863   2.307  2.7593 -1.2606 -0.0134
  240MOL0     H31625   7.186   9.058   2.340 -1.5291  2.0231 -0.8321
  240MOL0     H31626   7.309   9.098   2.235  0.7980  0.9967  0.7435
  240MOL0     H31627   7.298   9.176   2.535  0.1971 -0.9887 -0.5314
  240MOL0     H31628   7.269   9.280   2.382 -1.3834 -2.2877 -2.6591
  240MOL0     H31629   7.456   9.330   2.497  0.4673  0.6438 -0.6869
  240MOL0     H31630   7.508   9.159   2.499  1.2258  0.3591  0.1540
  240MOL0     H31631   7.481   9.354   2.269 -0.1156 -0.1389 -2.1440
  240MOL0     H31632   7.512   9.191   2.233  1.3418 -1.7910  1.0387
  240MOL0     H31633   7.693   9.077   2.455 -0.4696  1.3478  0.9994
  240MOL0     H31634   7.953   9.041   2.541 -2.0264 -0.0477  0.6387
  240MOL0     H31635   7.949   9.199   2.623 -3.3589 -1.8649 -0.0474
  240MOL0     H31636   8.115   9.278   2.468 -1.5199  0.3659  1.2189
  240MOL0     H31637   8.105   9.142   2.357 -1.3978 -0.1689  0.5226
  240MOL0     H31638   8.241   9.110   2.633 -1.3639 -2.5385  1.4131
  240MOL0     H31639   8.208   8.984   2.526 -2.2928 -0.0794 -1.8266
  240MOL0     H31640   8.401   9.213   2.469 -1.7836  1.4203 -4.7483
  240MOL0     H31641   8.348   9.107   2.350 -1.0597  0.8159  0.1529
  240MOL0     H31642   8.616   8.877   2.597 -0.7947 -0.6373 -0.7418
  240MOL0     H31643   8.837   8.779   2.482 -0.7617 -1.6644 -0.2029
  240MOL0     H31644   8.988   8.485   2.292 -0.6412 -1.6035 -1.3907
  240MOL0     H31645   9.164   8.335   2.153 -2.0201  0.6702 -1.7507
  240MOL0     H31646   9.547   8.371   2.069 -1.9306 -0.9390 -0.0492
  240MOL0     H31647   9.502   8.541   2.019 -3.6514  0.7016 -2.5683
  240MOL0     H31648   9.645   8.412   1.849 -0.5244 -1.0562  1.5083
  240MOL0     H31649   9.489   8.460   1.787  5.1056  0.8342 -3.2481
  240MOL0     H31650   9.489   8.258   1.705  2.0170  1.4491  0.1092
  240MOL0     H31651   9.408   8.224   1.863  2.5690 -2.5981  3.0766
  240MOL0     H31652   9.711   8.189   1.834  1.2721 -1.5498  3.4724
  240MOL0     H31653   9.611   8.134   1.964  2.5632  0.0109  0.2677
  240MOL0     H31654   9.467   8.004   1.776  1.4054 -1.5585 -0.3500
  240MOL0     H31655   9.621   7.945   1.836  2.0889  2.1670  2.4702
  240MOL0     H31656   9.704   8.123   1.620 -3.5738  3.7400 -0.8330
  240MOL0     H31657   9.546   8.074   1.570  1.2740  1.0830 -1.6037
  240MOL0     H31658   9.722   7.944   1.476 -0.3626  0.7021 -0.2720
  240MOL0     H31659   9.784   7.881   1.626 -0.4971  2.1596  1.2118
  240MOL0     H31660   9.488   7.876   1.570  1.7242  1.2226 -1.0164
  240MOL0     H31661   9.576   7.748   1.656 -0.7542  1.1785  2.6993
  240MOL0     H31662   9.344   8.692   2.002  0.4598 -1.0578  0.7759
  240MOL0     H31663   9.178   8.834   2.110 -0.3021  0.2987  0.9653
  240MOL0     H31664   8.699   8.995   2.133 -2.9309  0.5278 -0.0326
  240MOL0     H31665   8.526   9.094   2.253 -1.6575 -2.0629  0.1807
  240MOL0     H31666   7.225   8.381   2.692 -0.5976  2.1637  0.1958
  240MOL0     H31667   7.084   8.318   2.860  0.0784 -2.5909  1.6781
  240MOL0     H31668   6.989   8.003   3.213 -0.2130 -0.2485 -1.6807
  240MOL0     H31669   6.828   7.928   3.375  3.4588 -0.5123 -0.0425
  240MOL0     H31670   6.479   8.109   3.597 -0.5275  0.6739 -0.2999
  240MOL0     H31671   6.565   8.262   3.569  0.8971 -0.3583 -1.0411
  240MOL0     H31672   6.548   8.200   3.813  0.6656  0.5060 -0.6216
  240MOL0     H31673   6.609   8.041   3.777 -0.9991 -0.0822  2.8184
  240MOL0     H31674   6.775   8.300   3.755  0.9081  0.4535  0.3757
  240MOL0     H31675   6.839   8.135   3.710  1.0734  3.5216 -2.2366
  240MOL0     H31676   6.810   8.045   3.916  0.0922  0.1892  1.0752
  240MOL0     H31677   6.922   8.179   3.908 -0.4396 -0.1089  2.1467
  240MOL0     H31678   6.670   8.308   4.218  0.3838  0.5367  0.9767
  240MOL0     H31679   6.752   8.335   3.497 -0.0312 -1.4020  1.5375
  240MOL0     H31680   6.946   8.406   3.348 -0.7905 -0.6873 -0.3133
  241MOL0     O31681   0.603   2.861   1.673  0.1939  1.2415 -0.1715
  241MOL0     C31682   0.621   2.845   1.795  0.8280  0.4331  0.7343
  241MOL0     O31683   0.715   2.766   1.856 -0.0918 -0.1847  0.2255
  241MOL0     C31684   0.813   2.730   1.760  0.3486  0.1939 -0.2322
  241MOL0     C31685   0.916   2.828   1.769 -0.6086 -0.0661  0.8843
  241MOL0     C31686   1.033   2.790   1.706  0.1462 -0.1091 -0.2453
  241MOL0     C31687   1.053   2.667   1.633  0.0244 -0.0386  0.2285
  241MOL0     O31688   1.175   2.628   1.575 -0.0064 -0.9382  0.1563
  241MOL0     C31689   1.297   2.673   1.628  0.2407 -1.2893 -0.1890
  241MOL0     C31690   1.331   2.650   1.776  1.1952 -0.2798 -0.7168
  241MOL0     C31691   1.392   2.515   1.807  0.1851 -0.1460 -0.5055
  241MOL0     C31692   1.455   2.493   1.943 -0.5964  0.1121 -0.7377
  241MOL0     C31693   1.489   2.344   1.976  0.5659 -0.5713  0.0919
  241MOL0     C31694   1.582   2.274   1.881  0.1920 -0.2453 -0.2395
  241MOL0     C31695   1.626   2.144   1.946  0.1680  0.2340 -0.0732
  241MOL0     C31696   1.763   2.101   1.893  1.0041 -0.3816 -0.4594
  241MOL0     N31697   1.742   2.056   1.752  0.3320  0.2076 -0.2246
  241MOL0     C31698   1.777   2.123   1.636 -0.2955  0.0850  0.2587
  241MOL0     C31699   1.795   2.028   1.547  0.1501  0.4785  0.9780
  241MOL0     C31700   1.836   2.035   1.402 -0.2949  0.1846  0.0622
  241MOL0     C31701   1.728   2.006   1.304  0.6456 -0.8196 -0.1290
  241MOL0     C31702   1.776   2.030   1.151  1.1964  0.3953 -0.3498
  241MOL0     C31703   1.847   1.918   1.076 -0.1673 -0.4991 -0.5380
  241MOL0     O31704   1.982   1.907   1.125 -0.1378  0.5880  0.7063
  241MOL0     C31705   2.056   1.829   1.044 -0.4565  0.4546 -1.1806
  241MOL0     C31706   2.124   1.723   1.100 -0.1541 -0.4675 -0.9512
  241MOL0     C31707   2.204   1.646   1.020  0.0713 -0.4129  0.2003
  241MOL0     C31708   2.231   1.677   0.888 -0.1793  0.3592 -0.3469
  241MOL0     C31709   2.306   1.589   0.799 -0.6597  0.0938  0.3918
  241MOL0     O31710   2.333   1.466   0.854  0.5042  0.2257 -0.0630
  241MOL0     C31711   2.387   1.359   0.776 -0.3690  0.1877 -0.5041
  241MOL0     C31712   2.408   1.354   0.639 -0.4062  0.7768 -0.0147
  241MOL0     C31713   2.448   1.244   0.571 -0.9156 -0.1489 -0.0012
  241MOL0     C31714   2.465   1.116   0.638  0.4063 -0.2526 -0.1929
  241MOL0     O31715   2.495   1.006   0.571  1.2909 -1.1673  0.1577
  241MOL0     C31716   2.614   0.941   0.613  0.5136 -1.5885 -0.3946
  241MOL0     C31717   2.605   0.804   0.551  0.1073 -0.9294 -0.0065
  241MOL0     C31718   2.727   0.704   0.573 -0.4479 -0.5806  0.2135
  241MOL0     C31719   2.723   0.667   0.721 -0.5109  0.7923  0.4229
  241MOL0     C31720   2.863   0.625   0.772 -0.9459  0.9576  0.1018
  241MOL0     C31721   2.944   0.505   0.709 -0.3255 -0.0393 -0.9042
  241MOL0     C31722   3.073   0.499   0.792 -0.5126  0.3603 -0.7460
  241MOL0     C31723   3.147   0.366   0.766 -0.7500 -0.7242 -0.6850
  241MOL0    Cl31724   3.130   0.300   0.610 -0.3315 -0.1270 -0.3143
  241MOL0     C31725   2.441   1.122   0.780 -0.3960  0.5800 -1.2098
  241MOL0     C31726   2.396   1.238   0.839 -0.4168 -0.1830 -0.5459
  241MOL0     O31727   2.333   1.628   0.689 -0.3852  0.0149 -0.2278
  241MOL0     C31728   2.187   1.803   0.841 -0.1736 -0.5952  1.6080
  241MOL0     C31729   2.092   1.868   0.916 -0.4152 -0.0677  0.0519
  241MOL0     N31730   1.753   1.899   1.606  0.7574  0.5419  0.5516
  241MOL0     N31731   1.719   1.927   1.728  1.1232 -0.3990  0.7752
  241MOL0     C31732   0.951   2.571   1.630 -0.4460 -0.7596  0.3094
  241MOL0     C31733   0.833   2.604   1.698  0.2375 -0.5512 -0.2299
  241MOL0     C31734   0.532   2.928   1.874  0.5376 -0.4646  0.2576
  241MOL0     C31735   0.454   3.026   1.804  0.0428 -0.2019 -0.0040
  241MOL0     C31736   0.356   3.084   1.872  0.7160  0.4612  0.0040
  241MOL0     C31737   0.324   3.064   2.009  0.0239  0.1065 -0.3789
  241MOL0     O31738   0.209   3.121   2.060  0.1117  0.3945  0.5211
  241MOL0     C31739   0.147   3.069   2.181 -1.1337  0.6108 -0.1972
  241MOL0     C31740   0.016   3.140   2.217  0.0688 -0.1900  0.0174
  241MOL0     C31741   0.036   3.286   2.183 -0.6281 -0.2562  0.2769
  241MOL0     C31742  -0.069   3.366   2.263  0.5268  0.1840  1.3449
  241MOL0     C31743  -0.030   3.508   2.254  0.9953 -0.3869 -0.2213
  241MOL0     C31744  -0.006   3.627   2.246  0.3912 -0.3570 -0.3661
  241MOL0     C31745   0.412   2.978   2.082  0.2671  0.1597 -0.0963
  241MOL0     C31746   0.520   2.912   2.015 -0.2956 -0.3585  0.7875
  241MOL0     H31747   0.915   2.919   1.827 -0.3426 -1.6722  3.5997
  241MOL0     H31748   1.108   2.868   1.713  1.0427 -1.0774  3.2993
  241MOL0     H31749   1.312   2.781   1.612  1.0926 -0.9914  2.2615
  241MOL0     H31750   1.379   2.629   1.570  3.3676 -0.5930  3.3408
  241MOL0     H31751   1.238   2.657   1.833  2.1050  2.1264  0.6065
  241MOL0     H31752   1.393   2.733   1.809 -1.8019  2.3675 -1.1746
  241MOL0     H31753   1.472   2.489   1.737  2.8975  1.0014  1.9867
  241MOL0     H31754   1.311   2.442   1.795 -1.4765  1.4810  0.2786
  241MOL0     H31755   1.548   2.549   1.958 -1.1347  0.7659  0.2849
  241MOL0     H31756   1.386   2.526   2.021  0.0890 -1.8842  0.8130
  241MOL0     H31757   1.397   2.286   1.994  0.3714  0.0436  1.1786
  241MOL0     H31758   1.555   2.347   2.063  1.8500 -0.7161 -0.8550
  241MOL0     H31759   1.659   2.348   1.859 -2.2840  2.1780 -1.3970
  241MOL0     H31760   1.542   2.266   1.779  0.5921  0.9083 -0.5033
  241MOL0     H31761   1.641   2.152   2.054 -0.7932  3.3860 -0.0794
  241MOL0     H31762   1.557   2.064   1.917 -1.0582  1.1357  0.3140
  241MOL0     H31763   1.795   2.019   1.959 -3.0122 -2.0172 -0.2493
  241MOL0     H31764   1.847   2.170   1.888  3.0324 -2.7960 -3.2278
  241MOL0     H31765   1.791   2.229   1.621 -1.0094 -0.1853 -2.9732
  241MOL0     H31766   1.920   1.967   1.385 -0.2489  0.7426 -2.3263
  241MOL0     H31767   1.876   2.136   1.388  2.6737 -0.9028 -0.0178
  241MOL0     H31768   1.645   2.072   1.330 -0.3405 -1.5529 -1.2777
  241MOL0     H31769   1.685   1.906   1.315  2.6781 -1.7240  0.0171
  241MOL0     H31770   1.687   2.037   1.088 -1.4536 -1.6331  2.8581
  241MOL0     H31771   1.829   2.126   1.151  0.1568  1.0253  1.2181
  241MOL0     H31772   1.843   1.952   0.973  0.7597  1.7255  0.1030
  241MOL0     H31773   1.785   1.828   1.078  1.8328 -2.0899 -3.2477
  241MOL0     H31774   2.090   1.687   1.197  1.7643 -0.3479 -0.1799
  241MOL0     H31775   2.234   1.549   1.058 -0.1506 -0.2008  0.9273
  241MOL0     H31776   2.379   1.434   0.571  0.0621  0.4026 -0.6587
  241MOL0     H31777   2.477   1.268   0.469  0.8483 -1.1095  0.2356
  241MOL0     H31778   2.625   0.945   0.722  1.7172  1.0742 -0.5476
  241MOL0     H31779   2.704   0.989   0.574  0.2751 -1.7737 -1.1877
  241MOL0     H31780   2.596   0.819   0.443 -0.3919  0.2138  0.1764
  241MOL0     H31781   2.508   0.760   0.578 -0.6503  0.6314 -0.0515
  241MOL0     H31782   2.824   0.746   0.547  0.3035 -0.7013  2.5429
  241MOL0     H31783   2.711   0.621   0.504 -0.9410  1.2006 -1.9262
  241MOL0     H31784   2.695   0.759   0.773  0.5090 -0.3129  3.0826
  241MOL0     H31785   2.645   0.592   0.737 -0.0166  0.1003 -0.3070
  241MOL0     H31786   2.845   0.608   0.879 -0.8142 -1.2722 -0.1925
  241MOL0     H31787   2.919   0.718   0.756  0.8378  0.0723  0.9373
  241MOL0     H31788   2.962   0.533   0.605 -0.1369  0.6203 -0.7028
  241MOL0     H31789   2.870   0.424   0.713 -2.1242  1.4841 -1.6794
  241MOL0     H31790   3.135   0.586   0.768 -0.1444  0.0068 -1.0916
  241MOL0     H31791   3.036   0.494   0.894 -0.3716  3.7823 -0.4024
  241MOL0     H31792   3.120   0.301   0.850  2.2950 -1.2353  0.0384
  241MOL0     H31793   3.253   0.389   0.784 -1.2761  2.5576 -1.1220
  241MOL0     H31794   2.435   1.021   0.818 -0.9124 -0.6880 -4.2987
  241MOL0     H31795   2.354   1.244   0.939 -2.2041 -4.2742 -0.8699
  241MOL0     H31796   2.201   1.825   0.735  0.7149  0.9742  2.0195
  241MOL0     H31797   2.045   1.959   0.880  0.3770 -1.0345 -3.9230
  241MOL0     H31798   0.955   2.472   1.585 -1.7393 -0.5010 -0.4095
  241MOL0     H31799   0.767   2.518   1.697  0.4311 -0.7653 -3.4354
  241MOL0     H31800   0.463   3.056   1.700  3.3530 -0.2230  0.1773
  241MOL0     H31801   0.294   3.165   1.836 -0.3354 -0.1048  0.4991
  241MOL0     H31802   0.229   3.073   2.253  0.6461  3.6582 -2.1803
  241MOL0     H31803   0.131   2.962   2.167  2.8953 -0.0865 -0.6294
  241MOL0     H31804  -0.064   3.098   2.155  2.2189 -3.1617 -0.9908
  241MOL0     H31805  -0.021   3.120   2.319 -3.1631  1.9193 -0.5914
  241MOL0     H31806   0.030   3.305   2.076  1.2001 -2.5355 -0.3027
  241MOL0     H31807   0.139   3.304   2.214 -0.5237  0.8443 -0.6167
  241MOL0     H31808  -0.160   3.333   2.213  1.3325  0.9838 -0.7709
  241MOL0     H31809  -0.079   3.346   2.371 -1.2451 -0.0455  1.1555
  241MOL0     H31810   0.022   3.729   2.227 -0.9982 -0.3057 -2.4086
  241MOL0     H31811   0.406   2.964   2.190  0.5588  0.2579 -0.0675
  241MOL0     H31812   0.581   2.837   2.064  1.9044 -0.1736 -1.4360
  242MOL0     O31813   4.204   4.165  10.653  0.0021 -0.6680  0.0386
  242MOL0     C31814   4.184   4.257  10.726  0.0358 -0.1731 -0.0853
  242MOL0     O31815   4.084   4.353  10.719 -0.4459 -0.7836 -0.6707
  242MOL0     C31816   4.013   4.360  10.603  0.2392 -0.4311 -0.1387
  242MOL0     C31817   3.881   4.403  10.609 -0.1485 -0.3410 -0.3037
  242MOL0     C31818   3.802   4.424  10.504 -0.5307  1.3292 -0.2848
  242MOL0     C31819   3.853   4.398  10.372  0.7956 -0.8346 -0.3019
  242MOL0     O31820   3.756   4.406  10.272 -0.6303 -0.7292 -0.4464
  242MOL0     C31821   3.796   4.378  10.137  0.1990  0.3574  0.3734
  242MOL0     C31822   3.677   4.375  10.039  1.1869 -0.0295  0.1992
  242MOL0     C31823   3.677   4.285   9.911  0.3246  0.7696 -0.0017
  242MOL0     C31824   3.807   4.310   9.830  0.0355  0.4639  1.1615
  242MOL0     C31825   3.810   4.230   9.701  0.5759  1.5466  0.0818
  242MOL0     C31826   3.854   4.084   9.737  0.4272 -0.9722  0.1991
  242MOL0     C31827   3.923   4.009   9.623  0.0439  0.4301 -0.5220
  242MOL0     C31828   4.016   3.906   9.687  0.1698  0.8951 -0.3697
  242MOL0     N31829   4.046   3.803   9.584  1.6712  0.6824 -0.3037
  242MOL0     C31830   3.950   3.707   9.546  0.1526 -0.3595  0.5921
  242MOL0     C31831   3.992   3.658   9.424  1.0100 -0.1479  0.1508
  242MOL0     C31832   3.909   3.575   9.334 -0.4323 -0.2143  0.4043
  242MOL0     C31833   3.968   3.431   9.340 -0.0034 -0.3982  0.0392
  242MOL0     C31834   3.911   3.352   9.227  0.2787  0.9874  0.0502
  242MOL0     C31835   3.971   3.373   9.086  1.3298 -0.6422  0.2471
  242MOL0     O31836   3.956   3.263   8.994  0.0633 -0.4585  0.4932
  242MOL0     C31837   4.060   3.261   8.898 -0.8807  0.1522  1.1091
  242MOL0     C31838   4.129   3.136   8.897  0.2453 -0.2770  0.6882
  242MOL0     C31839   4.228   3.115   8.798 -0.2064 -0.2831 -0.8514
  242MOL0     C31840   4.262   3.213   8.700  0.6050  0.6766  0.8900
  242MOL0     C31841   4.348   3.178   8.576  0.8795  0.0639 -0.1253
  242MOL0     O31842   4.394   3.276   8.484  0.6437  0.6179  0.5419
  242MOL0     C31843   4.463   3.235   8.373  0.0755 -0.1518  0.2050
  242MOL0     C31844   4.412   3.141   8.281  0.9279 -0.4172 -0.1337
  242MOL0     C31845   4.476   3.119   8.161 -0.5652  0.6061 -0.0874
  242MOL0     C31846   4.594   3.195   8.133 -0.1562  0.2254  0.2938
  242MOL0     O31847   4.657   3.184   8.007 -0.8020 -0.0036 -0.7062
  242MOL0     C31848   4.645   3.059   7.936 -0.8158 -1.1225  0.5121
  242MOL0     C31849   4.772   3.046   7.859 -0.2169 -0.0654 -0.7561
  242MOL0     C31850   4.778   2.919   7.777 -0.2121 -1.0896 -0.5696
  242MOL0     C31851   4.822   2.950   7.638 -0.3446 -0.4805  1.2760
  242MOL0     C31852   4.786   2.839   7.550 -0.0733  0.5149  0.6078
  242MOL0     C31853   4.783   2.860   7.399  0.2416  0.5219  0.4064
  242MOL0     C31854   4.750   2.734   7.313  0.0646  0.7087 -0.0447
  242MOL0     C31855   4.849   2.613   7.335 -0.9463 -0.6806  0.4191
  242MOL0    Cl31856   4.800   2.533   7.481  0.0433 -0.3124 -0.2034
  242MOL0     C31857   4.637   3.292   8.221 -0.5015 -0.0690 -0.4028
  242MOL0     C31858   4.571   3.309   8.340 -0.3247  0.6566  0.0939
  242MOL0     O31859   4.376   3.053   8.563  0.5650  0.1407 -0.2018
  242MOL0     C31860   4.195   3.334   8.716  0.3983 -1.3099  0.2160
  242MOL0     C31861   4.098   3.363   8.808 -0.8307 -0.3528 -0.1672
  242MOL0     N31862   4.102   3.729   9.402 -0.5764 -0.2780 -0.4420
  242MOL0     N31863   4.141   3.810   9.499 -0.9391  0.2905  0.5288
  242MOL0     C31864   3.992   4.380  10.362  0.1581 -0.5675 -0.1204
  242MOL0     C31865   4.069   4.365  10.471  0.2641 -0.7868 -0.2112
  242MOL0     C31866   4.276   4.276  10.840  0.1958  0.9154  0.2326
  242MOL0     C31867   4.399   4.214  10.839 -0.4892  0.6782 -0.1281
  242MOL0     C31868   4.486   4.226  10.941  0.4897 -0.4712 -0.6898
  242MOL0     C31869   4.458   4.311  11.052  0.2307  0.7852  0.5354
  242MOL0     O31870   4.535   4.336  11.172  0.4410  0.1086 -0.4408
  242MOL0     C31871   4.649   4.249  11.185  0.6002 -0.3426  0.9663
  242MOL0     C31872   4.617   4.115  11.240  0.8381  0.1312  0.6514
  242MOL0     C31873   4.741   4.052  11.283 -1.0755 -0.2223  0.0437
  242MOL0     C31874   4.725   3.967  11.409  0.0694 -0.1172 -0.4885
  242MOL0     C31875   4.676   4.042  11.531  0.0442 -1.3124  0.0319
  242MOL0     C31876   4.632   4.112  11.626 -0.2667 -0.9894 -0.4993
  242MOL0     C31877   4.345   4.373  11.050 -0.1316 -1.6552  1.0947
  242MOL0     C31878   4.244   4.356  10.950 -0.6373 -0.1740 -0.3653
  242MOL0     H31879   3.845   4.426  10.709 -0.2073  0.6316 -0.5382
  242MOL0     H31880   3.698   4.442  10.528 -0.9249 -1.3395  0.3281
  242MOL0     H31881   3.857   4.289  10.122  2.5430  2.0926 -1.1627
  242MOL0     H31882   3.868   4.452  10.102  1.1919  0.4892  2.5174
  242MOL0     H31883   3.669   4.475   9.995 -0.0602  0.0164  0.4918
  242MOL0     H31884   3.580   4.365  10.089  0.0709  1.2959 -1.5930
  242MOL0     H31885   3.586   4.289   9.849 -1.1993 -4.4369  1.3954
  242MOL0     H31886   3.673   4.180   9.942 -1.5195  0.3557 -1.4058
  242MOL0     H31887   3.808   4.411   9.790 -0.2557  0.6960  1.7297
  242MOL0     H31888   3.903   4.298   9.882  2.2722  0.7928 -2.5509
  242MOL0     H31889   3.886   4.275   9.637  3.2777 -2.2171  0.2865
  242MOL0     H31890   3.715   4.232   9.647  1.8818 -1.0778 -2.6015
  242MOL0     H31891   3.760   4.035   9.764  1.0355 -1.5402  1.3839
  242MOL0     H31892   3.938   4.100   9.805  0.1134  0.4764  0.2797
  242MOL0     H31893   3.849   3.961   9.557  1.6487 -2.7544 -0.2031
  242MOL0     H31894   3.981   4.073   9.555 -1.6531  5.6760  2.4114
  242MOL0     H31895   3.965   3.869   9.776 -0.8886  2.5519 -0.2429
  242MOL0     H31896   4.108   3.955   9.720  0.3661 -0.4134  1.1634
  242MOL0     H31897   3.853   3.700   9.594 -0.8252 -1.5635 -1.4418
  242MOL0     H31898   3.919   3.610   9.230 -1.6541  0.2178  0.4175
  242MOL0     H31899   3.802   3.582   9.356 -0.1944  1.0809  1.2885
  242MOL0     H31900   3.937   3.388   9.435  2.8171 -2.4995  0.1165
  242MOL0     H31901   4.077   3.435   9.340  0.2277 -3.4496 -1.9386
  242MOL0     H31902   3.930   3.247   9.248  1.5814  1.3302  0.7118
  242MOL0     H31903   3.803   3.371   9.218 -0.0677 -0.9846 -0.4064
  242MOL0     H31904   4.076   3.401   9.094  0.7895  1.7604 -0.1909
  242MOL0     H31905   3.912   3.458   9.050  0.7309 -0.2794  1.9599
  242MOL0     H31906   4.091   3.053   8.957 -0.6592 -0.7651 -0.4990
  242MOL0     H31907   4.272   3.016   8.800 -0.3868 -0.3526  0.3731
  242MOL0     H31908   4.322   3.088   8.311  0.4351  0.7112  0.4579
  242MOL0     H31909   4.441   3.045   8.090 -0.3280 -1.2478  1.6364
  242MOL0     H31910   4.558   3.053   7.869 -1.1201  0.4308  0.7139
  242MOL0     H31911   4.640   2.969   7.998 -1.6357 -2.0364 -0.8202
  242MOL0     H31912   4.862   3.053   7.920  0.8181  0.0738 -2.2423
  242MOL0     H31913   4.782   3.139   7.803 -1.3423  1.5054  1.5031
  242MOL0     H31914   4.683   2.865   7.777 -0.2291 -1.0920 -2.0096
  242MOL0     H31915   4.849   2.846   7.818 -0.1972  1.6233  5.2118
  242MOL0     H31916   4.770   3.034   7.592 -1.5646 -2.6285 -1.5803
  242MOL0     H31917   4.929   2.967   7.652 -0.0240  2.6349 -3.0029
  242MOL0     H31918   4.687   2.802   7.578 -0.5877  0.9620 -0.5933
  242MOL0     H31919   4.865   2.766   7.572 -0.4712  0.5752  2.3540
  242MOL0     H31920   4.883   2.897   7.372  1.9635 -3.7763  0.1996
  242MOL0     H31921   4.707   2.937   7.381 -0.8975 -1.1046 -2.3450
  242MOL0     H31922   4.649   2.698   7.333  0.7133  0.0820  2.3766
  242MOL0     H31923   4.764   2.776   7.212 -0.3341  1.6137  0.2667
  242MOL0     H31924   4.951   2.649   7.349 -1.2293  0.2165  0.2525
  242MOL0     H31925   4.844   2.546   7.249  2.5330  0.2737 -0.6845
  242MOL0     H31926   4.728   3.346   8.194  0.1524 -1.6191 -1.4583
  242MOL0     H31927   4.611   3.390   8.400 -2.5158  1.2464  0.8498
  242MOL0     H31928   4.211   3.411   8.641 -0.5149 -1.8595 -0.5589
  242MOL0     H31929   4.037   3.453   8.820  2.1125  1.6668  0.8053
  242MOL0     H31930   4.045   4.370  10.268  0.9939  0.7272  0.1916
  242MOL0     H31931   4.177   4.366  10.458  0.3340  0.8120  0.2819
  242MOL0     H31932   4.428   4.123  10.786 -1.4465  0.1633  0.2174
  242MOL0     H31933   4.571   4.159  10.937 -0.5640 -2.0461  1.4299
  242MOL0     H31934   4.718   4.292  11.257  1.7189 -4.4046  2.6335
  242MOL0     H31935   4.704   4.243  11.090 -1.0032  2.2363 -0.2316
  242MOL0     H31936   4.552   4.133  11.326 -0.8900  3.7330 -1.2091
  242MOL0     H31937   4.563   4.054  11.168  1.2610  2.2814 -1.6010
  242MOL0     H31938   4.812   4.125  11.323 -0.3986 -0.9757  0.2395
  242MOL0     H31939   4.799   4.003  11.204  1.2378  0.8649  0.9647
  242MOL0     H31940   4.656   3.885  11.388 -2.5594  1.8284 -0.0041
  242MOL0     H31941   4.824   3.925  11.427  1.2560  1.5241 -2.7135
  242MOL0     H31942   4.614   4.183  11.703 -1.0001 -1.2621 -0.4154
  242MOL0     H31943   4.311   4.446  11.123 -2.3728  0.7969 -2.1092
  242MOL0     H31944   4.156   4.419  10.963 -0.6689 -0.6713  2.4555
  243MOL0     O31945  10.025   2.505   4.783 -0.2404  0.2607 -0.2832
  243MOL0     C31946  10.029   2.484   4.661  0.5135  0.3848 -0.0734
  243MOL0     O31947  10.088   2.564   4.568 -0.5214  0.3512  0.2531
  243MOL0     C31948  10.194   2.641   4.614 -0.7844 -0.5782 -0.2696
  243MOL0     C31949  10.217   2.757   4.535  0.3672  0.3090  0.2163
  243MOL0     C31950  10.308   2.856   4.586 -0.1855 -0.5068 -0.2785
  243MOL0     C31951  10.385   2.831   4.703 -0.2351  0.2039  1.0414
  243MOL0     O31952  10.481   2.924   4.728  0.3794 -0.4004 -0.2692
  243MOL0     C31953  10.513   2.956   4.865 -0.1676 -1.0989 -0.8064
  243MOL0     C31954  10.646   3.021   4.875 -0.1376 -0.4810 -0.1935
  243MOL0     C31955  10.694   3.028   5.018  0.5043  0.2484  0.0911
  243MOL0     C31956  10.841   3.067   5.030  0.8220  0.1497 -0.1286
  243MOL0     C31957  10.887   3.082   5.178  0.0633  0.0765  0.6190
  243MOL0     C31958  11.037   3.108   5.190  0.2996  0.8234  1.0520
  243MOL0     C31959  11.092   3.229   5.121  0.1067  0.0662  0.2548
  243MOL0     C31960  11.242   3.264   5.162  0.3596 -0.1549  0.5367
  243MOL0     N31961  11.329   3.145   5.156  0.1651  0.0563  0.7524
  243MOL0     C31962  11.353   3.079   5.043  0.5721 -0.4739  0.3206
  243MOL0     C31963  11.439   2.980   5.068 -0.1053 -0.1662  1.0117
  243MOL0     C31964  11.504   2.874   4.983  0.5668  1.1215 -0.1718
  243MOL0     C31965  11.406   2.782   4.920 -0.2627  0.7666  0.0611
  243MOL0     C31966  11.357   2.673   5.017  0.2110  0.5844  0.3480
  243MOL0     C31967  11.286   2.568   4.933 -0.1390 -1.0694  0.2682
  243MOL0     O31968  11.208   2.623   4.824 -0.0460  0.0006  0.9586
  243MOL0     C31969  11.137   2.532   4.750 -0.1402 -0.6972 -0.3093
  243MOL0     C31970  11.019   2.459   4.795  0.0710 -0.4608  0.3921
  243MOL0     C31971  10.961   2.355   4.721  0.1012 -0.0880 -0.5577
  243MOL0     C31972  11.021   2.317   4.600  0.9139  0.4680  0.3965
  243MOL0     C31973  10.950   2.212   4.515 -0.4068 -0.5555 -0.2784
  243MOL0     O31974  10.831   2.168   4.562 -0.0246 -0.5254 -0.1543
  243MOL0     C31975  10.738   2.086   4.497 -0.5071 -0.9174 -0.9867
  243MOL0     C31976  10.728   2.074   4.362  0.6008  0.4573  0.1540
  243MOL0     C31977  10.617   2.001   4.306  0.3802  0.1934 -0.6813
  243MOL0     C31978  10.526   1.944   4.390 -0.8058 -0.0892 -0.3985
  243MOL0     O31979  10.421   1.875   4.343 -0.2308 -0.3345  0.0187
  243MOL0     C31980  10.455   1.770   4.256  0.2721 -0.1763 -0.3320
  243MOL0     C31981  10.328   1.679   4.217 -0.3816 -0.7453 -0.3830
  243MOL0     C31982  10.212   1.765   4.175  0.5976  0.4231  0.2314
  243MOL0     C31983  10.073   1.694   4.177 -0.4634 -0.4889 -0.2287
  243MOL0     C31984   9.960   1.784   4.133  0.1326 -0.1381 -0.0641
  243MOL0     C31985   9.852   1.706   4.059  0.1893  1.2239  0.2352
  243MOL0     C31986   9.738   1.808   4.039  0.0449 -0.2488 -0.0707
  243MOL0     C31987   9.616   1.730   3.983  0.2584  0.1772  0.0194
  243MOL0    Cl31988   9.478   1.831   3.970  0.1773 -0.2191 -0.1287
  243MOL0     C31989  10.536   1.948   4.524 -0.0391  0.8781  0.3126
  243MOL0     C31990  10.642   2.025   4.580  0.0583  1.7103 -1.2177
  243MOL0     O31991  11.006   2.169   4.413 -0.1990 -0.1221  0.3480
  243MOL0     C31992  11.146   2.385   4.561 -0.1675  0.2475  0.0053
  243MOL0     C31993  11.198   2.488   4.636  0.2473 -0.6974  0.8999
  243MOL0     N31994  11.464   2.987   5.204  0.6832  0.1559 -0.7561
  243MOL0     N31995  11.403   3.084   5.250  0.0179 -0.6869  0.8916
  243MOL0     C31996  10.349   2.724   4.782  0.5761  1.3268 -0.2677
  243MOL0     C31997  10.264   2.621   4.733  0.3372  0.7842 -0.2927
  243MOL0     C31998   9.954   2.362   4.602 -0.0841 -0.2455  0.4787
  243MOL0     C31999   9.880   2.266   4.684 -0.0611 -0.6281 -1.1086
  243MOL0     C32000   9.810   2.159   4.633  0.4352  0.5095 -1.0538
  243MOL0     C32001   9.818   2.128   4.488  0.3654 -0.0315  0.2636
  243MOL0     O32002   9.755   2.023   4.419  0.8170 -0.5547 -0.4189
  243MOL0     C32003   9.706   1.907   4.482  0.9904  0.5043  0.2036
  243MOL0     C32004   9.546   1.889   4.477 -0.2002 -0.2953  0.1749
  243MOL0     C32005   9.469   1.991   4.539  0.3009 -0.6889  0.9587
  243MOL0     C32006   9.340   2.017   4.466  1.2143  0.1997 -1.3514
  243MOL0     C32007   9.342   2.089   4.337 -0.4088  0.4163 -0.5591
  243MOL0     C32008   9.343   2.167   4.241 -0.0019  0.2143  0.4047
  243MOL0     C32009   9.898   2.219   4.413 -0.5853  0.9298  0.1545
  243MOL0     C32010   9.956   2.328   4.465  0.5489 -0.0535  0.4745
  243MOL0     H32011  10.157   2.764   4.444  0.6015 -1.7395 -0.1364
  243MOL0     H32012  10.336   2.942   4.527  3.4896 -1.5975 -0.3674
  243MOL0     H32013  10.508   2.869   4.931  4.2197 -2.2436 -1.6431
  243MOL0     H32014  10.434   3.026   4.894 -0.7049 -1.0933 -2.1905
  243MOL0     H32015  10.644   3.127   4.845 -0.7252  1.1091  4.6219
  243MOL0     H32016  10.725   2.974   4.817  2.4501  1.8360  1.1835
  243MOL0     H32017  10.686   2.927   5.059  0.7628 -0.0234 -0.5257
  243MOL0     H32018  10.632   3.107   5.063 -0.2169  1.8373 -3.4058
  243MOL0     H32019  10.910   2.994   4.987  0.7164 -0.8108  1.2559
  243MOL0     H32020  10.843   3.159   4.971 -0.0667  0.9655  1.0672
  243MOL0     H32021  10.857   2.985   5.218 -1.9272  0.2372 -0.3385
  243MOL0     H32022  10.833   3.156   5.239 -1.4365 -1.3233  1.0744
  243MOL0     H32023  11.085   3.019   5.149  2.2760  1.0276  2.7434
  243MOL0     H32024  11.054   3.115   5.298 -0.3052  3.8685  1.0366
  243MOL0     H32025  11.098   3.218   5.012  1.0577 -1.8343  0.4559
  243MOL0     H32026  11.025   3.315   5.128 -0.5084 -0.3998  0.1012
  243MOL0     H32027  11.237   3.293   5.267  2.5660  0.4658  0.5129
  243MOL0     H32028  11.286   3.341   5.099 -2.2849 -0.0578 -1.3620
  243MOL0     H32029  11.306   3.092   4.946  0.8394 -1.4488  0.0424
  243MOL0     H32030  11.570   2.809   5.042 -0.7171 -1.8787 -1.8353
  243MOL0     H32031  11.558   2.927   4.905  0.7802  2.2014  0.6753
  243MOL0     H32032  11.462   2.738   4.837 -2.2677 -1.7221 -0.0999
  243MOL0     H32033  11.320   2.836   4.880 -0.3511 -0.4972 -1.5472
  243MOL0     H32034  11.433   2.628   5.082 -1.1692  0.8624  2.2230
  243MOL0     H32035  11.266   2.711   5.064 -0.5687  0.1035 -0.7354
  243MOL0     H32036  11.213   2.512   4.993 -2.8260  3.0207  1.1956
  243MOL0     H32037  11.358   2.499   4.887 -1.5450 -3.1458  1.0321
  243MOL0     H32038  10.981   2.498   4.888  1.9547 -2.3688  2.0595
  243MOL0     H32039  10.872   2.309   4.763 -0.2055  0.3981 -0.6600
  243MOL0     H32040  10.789   2.127   4.290 -0.2359  1.8892  0.4453
  243MOL0     H32041  10.610   1.986   4.198  3.6691  3.7618 -1.6049
  243MOL0     H32042  10.534   1.712   4.304 -0.2079 -0.9745 -0.4699
  243MOL0     H32043  10.491   1.810   4.161  2.1723 -0.6288  0.1673
  243MOL0     H32044  10.291   1.621   4.301 -0.7495  0.2656  0.1740
  243MOL0     H32045  10.367   1.615   4.137  0.7641 -0.8217  0.2222
  243MOL0     H32046  10.226   1.788   4.069  0.5362  2.0871  0.5582
  243MOL0     H32047  10.216   1.859   4.231  1.8488 -1.4112  3.5264
  243MOL0     H32048  10.086   1.605   4.115  0.6158  0.0820 -0.8544
  243MOL0     H32049  10.052   1.661   4.279  2.5594  1.0499  1.0097
  243MOL0     H32050  10.001   1.856   4.061  1.7732  0.4691  1.4054
  243MOL0     H32051   9.928   1.850   4.215  3.3060  3.5197 -1.4647
  243MOL0     H32052   9.828   1.620   4.122  3.6461 -1.1311 -1.3448
  243MOL0     H32053   9.893   1.668   3.965 -1.3088  0.9398 -0.3244
  243MOL0     H32054   9.715   1.856   4.135 -0.4286 -0.9643  0.1859
  243MOL0     H32055   9.761   1.896   3.978 -2.7454 -0.2254 -1.2471
  243MOL0     H32056   9.584   1.647   4.046 -5.8062  2.4229  0.5007
  243MOL0     H32057   9.635   1.678   3.889 -4.2692 -5.3748  1.5828
  243MOL0     H32058  10.474   1.890   4.592  2.7173 -2.6149  0.1074
  243MOL0     H32059  10.649   2.025   4.688  0.1338  1.3672 -1.2213
  243MOL0     H32060  11.198   2.356   4.471  1.2312 -0.0744  0.8911
  243MOL0     H32061  11.279   2.540   4.587  0.9198 -0.5007  2.1840
  243MOL0     H32062  10.397   2.696   4.875  2.0513  0.1689 -1.3207
  243MOL0     H32063  10.262   2.536   4.799 -0.6097  0.4656 -0.7206
  243MOL0     H32064   9.874   2.296   4.788  1.1443  2.3102 -1.7916
  243MOL0     H32065   9.752   2.109   4.710 -0.0707  3.0789  0.3495
  243MOL0     H32066   9.756   1.909   4.579  3.0108  1.6234 -0.7959
  243MOL0     H32067   9.750   1.821   4.430  0.9531 -1.7414  3.5820
  243MOL0     H32068   9.528   1.887   4.370  0.1774  1.9368  0.0189
  243MOL0     H32069   9.516   1.795   4.524 -0.1581  0.7103  2.3821
  243MOL0     H32070   9.530   2.081   4.539  2.2919 -1.9054 -1.2860
  243MOL0     H32071   9.440   1.963   4.640 -1.0620 -1.6862  0.3311
  243MOL0     H32072   9.290   1.922   4.445 -0.9754  0.3932  2.2760
  243MOL0     H32073   9.265   2.073   4.521  0.9863  1.0514 -2.4854
  243MOL0     H32074   9.356   2.235   4.159 -0.1743  0.0556  0.2447
  243MOL0     H32075   9.909   2.213   4.305 -2.4111  1.8034 -0.1186
  243MOL0     H32076  10.018   2.384   4.395  1.3535  1.9851  2.6962
  244MOL0     O32077   7.996   7.523   9.260  0.3018  0.5419 -0.3574
  244MOL0     C32078   7.980   7.400   9.273  0.5523 -0.8597  0.0163
  244MOL0     O32079   7.997   7.329   9.381 -0.6622 -0.3889  0.4212
  244MOL0     C32080   8.030   7.386   9.506 -0.0502 -0.0392  0.8622
  244MOL0     C32081   7.977   7.511   9.548  0.6036  0.4584 -0.0516
  244MOL0     C32082   8.019   7.560   9.673 -1.1055 -1.3412 -0.2164
  244MOL0     C32083   8.109   7.496   9.756  0.4323  0.3722 -1.5102
  244MOL0     O32084   8.138   7.556   9.878  0.0286  0.0954  0.4324
  244MOL0     C32085   8.193   7.478   9.984  0.1838  0.2572 -0.9167
  244MOL0     C32086   8.201   7.568  10.107 -0.3324  0.0715  0.1045
  244MOL0     C32087   8.075   7.618  10.162  0.0550 -0.1669  0.6131
  244MOL0     C32088   8.080   7.690  10.297 -0.5546  0.0191  0.8329
  244MOL0     C32089   7.943   7.729  10.353  1.0200 -0.1010  1.0094
  244MOL0     C32090   7.845   7.788  10.263  0.0870 -0.1818 -0.4129
  244MOL0     C32091   7.721   7.831  10.336  0.0571 -0.4692  0.2839
  244MOL0     C32092   7.610   7.888  10.245 -0.1027 -0.2912 -0.1310
  244MOL0     N32093   7.635   8.010  10.167  0.7436  0.0019  0.0398
  244MOL0     C32094   7.561   8.124  10.178 -0.1128  0.7969  0.1404
  244MOL0     C32095   7.607   8.197  10.069 -0.1305 -0.1623 -0.2624
  244MOL0     C32096   7.549   8.330  10.031 -0.4956  0.6974  0.1040
  244MOL0     C32097   7.403   8.347  10.069 -0.8885 -0.3144  0.7249
  244MOL0     C32098   7.357   8.474  10.008 -0.2113 -0.0111  0.8278
  244MOL0     C32099   7.225   8.523  10.076 -0.1028  0.2529 -0.0002
  244MOL0     O32100   7.166   8.622   9.987  0.5394  0.1899  0.1635
  244MOL0     C32101   7.096   8.583   9.873  0.4543  0.5908 -0.8480
  244MOL0     C32102   7.073   8.455   9.826 -0.9849 -0.3648  0.4607
  244MOL0     C32103   7.000   8.440   9.704 -0.1637 -0.0334 -0.5898
  244MOL0     C32104   6.963   8.546   9.612 -0.9349  0.5266 -0.4757
  244MOL0     C32105   6.885   8.534   9.503  0.7720  0.2943 -0.0274
  244MOL0     O32106   6.857   8.398   9.473  0.3570 -0.4150 -0.0938
  244MOL0     C32107   6.782   8.399   9.350 -0.2998  0.0939 -0.2735
  244MOL0     C32108   6.645   8.400   9.350 -0.5363 -1.4002 -0.8116
  244MOL0     C32109   6.560   8.393   9.239 -0.5592  0.0633  0.6637
  244MOL0     C32110   6.624   8.387   9.117  0.6146 -0.2511 -0.2872
  244MOL0     O32111   6.551   8.353   8.999  0.5568  0.1216  0.1289
  244MOL0     C32112   6.537   8.212   8.993  0.0737  0.8005 -0.4789
  244MOL0     C32113   6.430   8.174   8.886 -0.4624  0.4918 -0.8126
  244MOL0     C32114   6.410   8.025   8.859 -0.1469  0.5262 -0.6635
  244MOL0     C32115   6.384   7.932   8.977  0.2434 -0.2354 -0.1822
  244MOL0     C32116   6.344   7.810   8.901 -0.0028  0.1802 -0.1493
  244MOL0     C32117   6.325   7.690   8.998  0.5763 -0.4177 -0.8106
  244MOL0     C32118   6.293   7.562   8.922 -0.5211 -0.8349  0.1409
  244MOL0     C32119   6.308   7.443   9.013 -0.3414  0.6845 -0.6941
  244MOL0    Cl32120   6.157   7.446   9.107 -0.2537  0.1054 -0.5913
  244MOL0     C32121   6.768   8.393   9.105  0.2025  0.5943  0.6322
  244MOL0     C32122   6.846   8.402   9.224  0.5602 -0.5641  0.4216
  244MOL0     O32123   6.867   8.631   9.421  0.1445  0.2309 -0.3467
  244MOL0     C32124   6.980   8.676   9.668 -0.0408  0.3664 -0.6222
  244MOL0     C32125   7.040   8.687   9.800 -0.0530 -0.0497 -0.2424
  244MOL0     N32126   7.707   8.131  10.001 -0.0590  0.9101  1.0662
  244MOL0     N32127   7.721   8.017  10.062 -0.0053  0.2010 -1.1526
  244MOL0     C32128   8.150   7.366   9.722  0.4034 -0.6567  0.2412
  244MOL0     C32129   8.107   7.313   9.597  0.4416  0.3279 -1.0695
  244MOL0     C32130   7.957   7.321   9.156 -0.0778  0.3725  0.1694
  244MOL0     C32131   7.883   7.374   9.044 -0.1946 -0.2868 -0.0924
  244MOL0     C32132   7.864   7.273   8.938 -0.6782 -1.1176 -0.2748
  244MOL0     C32133   7.922   7.144   8.944  0.2486 -0.3789 -0.4015
  244MOL0     O32134   7.904   7.039   8.853 -0.6329 -1.0031 -0.3623
  244MOL0     C32135   7.888   7.073   8.712 -0.4735 -0.1435 -0.0493
  244MOL0     C32136   7.830   6.953   8.644 -1.0574 -0.5961 -0.2152
  244MOL0     C32137   7.696   6.920   8.704 -0.7635  0.7356  0.1423
  244MOL0     C32138   7.622   6.801   8.650 -0.1588  0.0446  0.6148
  244MOL0     C32139   7.506   6.757   8.728  0.6532  0.4568 -0.1915
  244MOL0     C32140   7.411   6.726   8.803 -0.4186 -0.2243  0.1787
  244MOL0     C32141   7.984   7.106   9.058 -0.4330 -0.6055 -0.1582
  244MOL0     C32142   7.995   7.189   9.164  0.7673 -0.2744 -0.4583
  244MOL0     H32143   7.917   7.577   9.486  1.7567  1.4973 -0.1006
  244MOL0     H32144   7.985   7.657   9.706 -0.0381 -1.1439  0.3288
  244MOL0     H32145   8.292   7.440   9.956  0.1189 -0.0798 -0.6955
  244MOL0     H32146   8.140   7.390  10.020 -0.9901  1.2201 -0.2342
  244MOL0     H32147   8.272   7.650  10.088 -0.2737  0.2179  0.9025
  244MOL0     H32148   8.258   7.511  10.181  0.0826  2.0758  1.4061
  244MOL0     H32149   8.004   7.536  10.181 -0.9749  1.1664  2.8959
  244MOL0     H32150   8.026   7.675  10.082  0.7961 -2.6557 -1.7763
  244MOL0     H32151   8.128   7.634  10.378 -0.8947 -1.5713 -0.0146
  244MOL0     H32152   8.149   7.774  10.285  1.1476 -1.5508 -1.3919
  244MOL0     H32153   7.963   7.804  10.431 -3.6393  2.2046  0.3352
  244MOL0     H32154   7.892   7.639  10.390  1.7390 -1.4741 -1.1837
  244MOL0     H32155   7.832   7.723  10.175  1.2228 -0.6801 -0.2235
  244MOL0     H32156   7.887   7.879  10.219 -0.8811 -1.1487 -3.6475
  244MOL0     H32157   7.673   7.744  10.382  1.7974 -2.0312 -0.7087
  244MOL0     H32158   7.756   7.904  10.410  0.8001 -1.6825  1.1641
  244MOL0     H32159   7.518   7.889  10.305 -1.0267 -3.2586 -1.2989
  244MOL0     H32160   7.580   7.820  10.165 -0.9572 -3.2388  2.4852
  244MOL0     H32161   7.501   8.141  10.267  0.6721 -0.0084  0.8520
  244MOL0     H32162   7.559   8.332   9.922  1.8951 -2.3182  0.1436
  244MOL0     H32163   7.606   8.410  10.081 -0.1225  2.3395 -2.6995
  244MOL0     H32164   7.393   8.348  10.178 -2.7568 -3.8801  0.7541
  244MOL0     H32165   7.348   8.267  10.018  1.4317 -1.2625 -0.4586
  244MOL0     H32166   7.436   8.550  10.016  0.9023 -1.2805  2.4314
  244MOL0     H32167   7.339   8.453   9.903 -0.9161 -1.0283  1.1481
  244MOL0     H32168   7.261   8.558  10.173  1.8490 -2.5592  0.3909
  244MOL0     H32169   7.162   8.438  10.100  0.9700 -0.2179  1.2645
  244MOL0     H32170   7.106   8.360   9.868 -1.0600 -1.3710 -1.6660
  244MOL0     H32171   6.979   8.337   9.677  0.4848 -0.4052  0.2423
  244MOL0     H32172   6.603   8.403   9.451 -0.5450 -1.5389 -0.8115
  244MOL0     H32173   6.453   8.387   9.254 -0.2551 -2.6835  2.5565
  244MOL0     H32174   6.512   8.178   9.094  1.2508  1.6685  0.1249
  244MOL0     H32175   6.635   8.168   8.973  0.1010  0.9101 -0.5924
  244MOL0     H32176   6.463   8.231   8.799  1.8735  0.5334  0.0048
  244MOL0     H32177   6.335   8.219   8.913 -0.8330 -1.1065  0.7147
  244MOL0     H32178   6.498   7.982   8.810 -0.6780  0.5131 -1.6104
  244MOL0     H32179   6.337   8.013   8.779  1.4446  1.2947 -2.3093
  244MOL0     H32180   6.473   7.931   9.041  0.0337  1.5649  0.1928
  244MOL0     H32181   6.304   7.968   9.042 -0.0432 -1.3808  0.1332
  244MOL0     H32182   6.429   7.779   8.839 -1.1660 -0.4793 -1.4728
  244MOL0     H32183   6.249   7.829   8.851 -0.9291 -1.7575  0.7691
  244MOL0     H32184   6.233   7.716   9.052 -0.7392  2.3575 -4.0354
  244MOL0     H32185   6.412   7.686   9.064  0.6731  4.2756 -0.3007
  244MOL0     H32186   6.195   7.557   8.873 -1.6907 -0.2839  2.3054
  244MOL0     H32187   6.371   7.547   8.846  0.4243 -1.1762  1.1469
  244MOL0     H32188   6.400   7.460   9.071 -0.0042  1.4069 -1.4265
  244MOL0     H32189   6.323   7.351   8.956 -2.5413 -0.6490  0.7120
  244MOL0     H32190   6.810   8.377   9.006 -0.4452  0.1922  0.4146
  244MOL0     H32191   6.954   8.415   9.218  0.9099 -2.0807  2.4625
  244MOL0     H32192   6.946   8.770   9.627  2.4240  0.9293 -1.5452
  244MOL0     H32193   7.056   8.786   9.842  0.9072 -0.6599  0.9117
  244MOL0     H32194   8.222   7.311   9.781 -0.9589 -2.9235 -0.0944
  244MOL0     H32195   8.151   7.219   9.564  0.9222 -1.0381  2.8926
  244MOL0     H32196   7.848   7.477   9.038  1.9507  0.7392  2.5470
  244MOL0     H32197   7.815   7.308   8.848  1.3551 -3.2385 -2.3413
  244MOL0     H32198   7.990   7.099   8.684 -1.0049  1.1122 -0.9296
  244MOL0     H32199   7.816   7.155   8.700  0.2939  0.1902 -3.6281
  244MOL0     H32200   7.822   6.984   8.539 -0.0598  1.5581  0.2911
  244MOL0     H32201   7.905   6.874   8.655  1.3649  1.5158 -0.5523
  244MOL0     H32202   7.626   7.004   8.697 -1.3057  0.5746  2.5399
  244MOL0     H32203   7.706   6.890   8.809  0.3000  0.1001 -0.1244
  244MOL0     H32204   7.577   6.834   8.555 -3.6531 -0.0416  2.0717
  244MOL0     H32205   7.683   6.713   8.632  1.6227  1.3814 -0.1315
  244MOL0     H32206   7.324   6.699   8.860  0.2490 -0.6713  1.0066
  244MOL0     H32207   8.030   7.009   9.071  3.0695  1.1445  1.9514
  244MOL0     H32208   8.026   7.133   9.251  0.2031 -2.6163 -1.6801
  245MOL0     O32209   0.361   2.476   3.210  0.6676  0.8579 -0.1828
  245MOL0     C32210   0.399   2.363   3.249 -1.5996 -0.1748 -1.0107
  245MOL0     O32211   0.454   2.346   3.367 -0.8613 -0.5632  0.4905
  245MOL0     C32212   0.471   2.460   3.445  0.0996 -0.0129 -0.2207
  245MOL0     C32213   0.593   2.519   3.464 -0.6464 -0.8995  0.6194
  245MOL0     C32214   0.611   2.633   3.544  0.4452 -0.9079  0.2187
  245MOL0     C32215   0.506   2.693   3.616 -0.1039 -0.6851  1.3479
  245MOL0     O32216   0.510   2.796   3.708 -0.5492 -0.2506  0.9375
  245MOL0     C32217   0.617   2.900   3.692  0.1265  0.1296 -0.3445
  245MOL0     C32218   0.741   2.857   3.771 -0.2880 -0.0855 -0.2971
  245MOL0     C32219   0.733   2.853   3.930  0.2867 -0.0530  0.4044
  245MOL0     C32220   0.700   2.995   3.973  0.2370  0.8997 -0.1185
  245MOL0     C32221   0.702   3.038   4.121 -0.4598 -0.7131  0.3153
  245MOL0     C32222   0.835   3.046   4.186  0.3508 -0.2905  1.3235
  245MOL0     C32223   0.832   3.118   4.315 -0.3136  0.4950  0.1277
  245MOL0     C32224   0.964   3.084   4.390 -0.1842 -0.5662  0.4661
  245MOL0     N32225   1.008   3.197   4.475  0.6343 -0.6057  0.2844
  245MOL0     C32226   1.013   3.188   4.609  0.0234  0.8556 -0.8971
  245MOL0     C32227   1.090   3.292   4.653  0.4308 -0.2196 -0.4370
  245MOL0     C32228   1.122   3.324   4.797 -0.1651 -0.6381 -0.0183
  245MOL0     C32229   1.277   3.321   4.804 -0.3639 -0.4826 -0.0641
  245MOL0     C32230   1.341   3.456   4.775  0.0027 -1.0515 -0.0813
  245MOL0     C32231   1.495   3.482   4.816  0.7153 -0.4041 -0.5209
  245MOL0     O32232   1.529   3.621   4.765 -0.3500  0.6706 -0.5281
  245MOL0     C32233   1.662   3.656   4.769  0.2269 -0.5915 -0.1593
  245MOL0     C32234   1.730   3.707   4.656 -0.1875  0.7442 -0.6908
  245MOL0     C32235   1.859   3.767   4.670  0.5965  0.9880 -0.1600
  245MOL0     C32236   1.925   3.741   4.789  0.4392  0.0104  0.1720
  245MOL0     C32237   2.055   3.795   4.805 -0.3453 -0.5158  0.2306
  245MOL0     O32238   2.135   3.740   4.898 -0.5227  0.2052 -0.3843
  245MOL0     C32239   2.265   3.783   4.903 -0.5908  0.1627 -0.8425
  245MOL0     C32240   2.380   3.721   4.855  0.5299 -0.1008 -0.4021
  245MOL0     C32241   2.506   3.788   4.881  0.1567  1.0782  0.2962
  245MOL0     C32242   2.512   3.909   4.942  0.1187 -0.2815  0.8210
  245MOL0     O32243   2.625   3.990   4.947 -0.1269  0.0513 -0.0054
  245MOL0     C32244   2.688   4.025   4.819 -0.4223  0.4451 -0.3184
  245MOL0     C32245   2.842   3.998   4.817 -0.0329 -0.6602 -0.4230
  245MOL0     C32246   2.928   4.100   4.880 -0.6416  0.5448 -0.2107
  245MOL0     C32247   2.883   4.250   4.845  0.5378  0.3607  0.6237
  245MOL0     C32248   2.855   4.277   4.692  0.6291  0.1898  0.3253
  245MOL0     C32249   2.775   4.408   4.677 -0.7001 -1.0728  0.0353
  245MOL0     C32250   2.838   4.520   4.595  0.1931 -0.6665  0.0303
  245MOL0     C32251   2.892   4.471   4.470 -0.6074 -0.0496  0.1652
  245MOL0    Cl32252   2.914   4.627   4.377 -0.1992  0.6297 -0.0719
  245MOL0     C32253   2.392   3.958   5.006 -0.0259  0.6310 -0.2600
  245MOL0     C32254   2.272   3.901   4.978  0.8935 -0.8636 -0.2267
  245MOL0     O32255   2.089   3.890   4.739  0.1423  0.5219  0.2419
  245MOL0     C32256   1.866   3.671   4.897 -0.1121 -0.5942  0.7048
  245MOL0     C32257   1.737   3.635   4.883  0.7224  0.1719 -0.1486
  245MOL0     N32258   1.116   3.369   4.539 -0.3171  0.1412 -0.9093
  245MOL0     N32259   1.063   3.317   4.438 -0.1050 -0.6299  0.7672
  245MOL0     C32260   0.380   2.639   3.582 -0.5175 -1.1653 -0.9861
  245MOL0     C32261   0.360   2.519   3.506 -0.7244  0.8839  0.5099
  245MOL0     C32262   0.376   2.243   3.157  0.9408 -0.1255  0.4273
  245MOL0     C32263   0.360   2.260   3.019 -1.2053  0.0328  0.7311
  245MOL0     C32264   0.320   2.150   2.942  0.1435 -1.0779 -0.8032
  245MOL0     C32265   0.287   2.031   2.998  0.6891  0.7851 -0.3405
  245MOL0     O32266   0.236   1.918   2.934  0.0207  0.7047  0.4662
  245MOL0     C32267   0.235   1.915   2.791  1.3689  0.1443  0.4602
  245MOL0     C32268   0.236   1.766   2.750 -1.1380 -0.2828  0.1261
  245MOL0     C32269   0.126   1.669   2.786  0.1177  0.4985 -1.2609
  245MOL0     C32270   0.173   1.532   2.839 -0.0843 -0.0872  0.5258
  245MOL0     C32271   0.255   1.532   2.955 -0.5270  0.0057 -0.6630
  245MOL0     C32272   0.339   1.547   3.044 -0.2480  0.4577 -0.8942
  245MOL0     C32273   0.304   2.015   3.134 -1.0416  0.1567  0.1750
  245MOL0     C32274   0.346   2.118   3.214 -0.3092  0.0830 -0.2847
  245MOL0     H32275   0.682   2.480   3.415 -0.7871  1.6741 -1.9760
  245MOL0     H32276   0.704   2.683   3.569  0.2081 -0.5395  0.3907
  245MOL0     H32277   0.584   3.002   3.714  0.2877 -0.0222  0.6246
  245MOL0     H32278   0.650   2.901   3.587 -1.2978  0.3369 -0.8242
  245MOL0     H32279   0.833   2.912   3.745  0.0238  0.3712  1.6516
  245MOL0     H32280   0.745   2.751   3.744 -2.6370  0.0167 -1.2326
  245MOL0     H32281   0.822   2.803   3.969 -0.0121 -1.8352 -1.0224
  245MOL0     H32282   0.648   2.788   3.953 -2.4970  3.2158  0.1236
  245MOL0     H32283   0.750   3.060   3.900 -2.1602 -0.2782 -3.0337
  245MOL0     H32284   0.597   3.012   3.940 -0.0439 -0.5963 -0.0870
  245MOL0     H32285   0.644   2.971   4.185  0.0502 -0.7381  0.7556
  245MOL0     H32286   0.648   3.133   4.119 -0.3972 -0.6750  0.4170
  245MOL0     H32287   0.905   3.093   4.116 -2.2234  0.9217 -0.5792
  245MOL0     H32288   0.873   2.946   4.210  2.0556 -0.2130 -0.7252
  245MOL0     H32289   0.817   3.225   4.297  0.5194  0.4251 -1.0858
  245MOL0     H32290   0.745   3.073   4.364 -1.6456  0.2016 -2.3475
  245MOL0     H32291   1.055   3.051   4.338  0.6851  1.7570  0.3727
  245MOL0     H32292   0.928   2.993   4.440  1.3224  0.5572  3.9228
  245MOL0     H32293   0.960   3.121   4.675  1.8764  1.2296  1.0710
  245MOL0     H32294   1.086   3.234   4.848  0.1024 -0.5443  0.3419
  245MOL0     H32295   1.087   3.415   4.847 -0.0732  1.0916 -2.8870
  245MOL0     H32296   1.305   3.239   4.738 -1.4555 -1.8117  1.0541
  245MOL0     H32297   1.299   3.291   4.907  1.7773 -1.6265 -0.7951
  245MOL0     H32298   1.326   3.484   4.671 -0.9047 -0.7632  0.1235
  245MOL0     H32299   1.282   3.534   4.824  1.4836 -0.2626  0.5069
  245MOL0     H32300   1.555   3.396   4.782 -0.3654 -2.3124  2.0488
  245MOL0     H32301   1.505   3.484   4.925 -0.5479 -1.9257 -0.3383
  245MOL0     H32302   1.678   3.723   4.562 -1.4988  4.7122  0.5114
  245MOL0     H32303   1.897   3.831   4.590 -1.3672  1.3293 -0.8727
  245MOL0     H32304   2.377   3.620   4.815  0.7796  0.3987 -1.7308
  245MOL0     H32305   2.594   3.742   4.839 -1.8471 -1.7747 -1.1144
  245MOL0     H32306   2.656   4.128   4.805  0.4700  0.9241  0.9333
  245MOL0     H32307   2.635   3.965   4.745 -0.6255 -1.4289  1.2390
  245MOL0     H32308   2.872   3.985   4.713  0.0441  0.6839 -0.5874
  245MOL0     H32309   2.865   3.905   4.871 -1.2128  0.3561  1.9584
  245MOL0     H32310   3.024   4.089   4.828 -0.8825 -1.9390 -0.2286
  245MOL0     H32311   2.930   4.088   4.988  1.1281 -0.5952 -0.3227
  245MOL0     H32312   2.790   4.268   4.900  0.8395  0.1035  1.2276
  245MOL0     H32313   2.963   4.315   4.880 -0.6722  0.9304  2.5196
  245MOL0     H32314   2.786   4.201   4.653 -0.9043  1.1290  1.0723
  245MOL0     H32315   2.943   4.270   4.629  0.5128 -0.7400  0.2425
  245MOL0     H32316   2.760   4.454   4.775 -0.5739 -0.4873 -0.2168
  245MOL0     H32317   2.681   4.373   4.632  1.3170 -2.5269 -3.4899
  245MOL0     H32318   2.755   4.587   4.568 -1.6531 -3.1518 -0.8598
  245MOL0     H32319   2.910   4.574   4.656  0.9975 -1.1774 -0.4430
  245MOL0     H32320   2.819   4.406   4.422 -0.2649  0.8343 -1.6489
  245MOL0     H32321   2.985   4.414   4.470 -0.4259  0.0700 -2.7881
  245MOL0     H32322   2.393   4.052   5.061  0.7265  1.6154 -1.8493
  245MOL0     H32323   2.183   3.933   5.032  1.6348  0.2728  0.3579
  245MOL0     H32324   1.913   3.648   4.992  3.0223 -0.8414 -0.7758
  245MOL0     H32325   1.686   3.587   4.966  2.5950 -1.1358  0.2969
  245MOL0     H32326   0.296   2.682   3.636 -0.3713 -2.4092  0.2752
  245MOL0     H32327   0.266   2.466   3.494  0.0767 -1.1659  2.4974
  245MOL0     H32328   0.371   2.359   2.976 -1.1355 -0.0392  0.5827
  245MOL0     H32329   0.312   2.166   2.835  0.1695  1.3094 -0.5015
  245MOL0     H32330   0.317   1.961   2.735  1.0378 -3.0568 -3.0975
  245MOL0     H32331   0.138   1.960   2.768  0.0426 -3.2034 -1.3017
  245MOL0     H32332   0.241   1.760   2.641  4.7032 -2.5345  0.1530
  245MOL0     H32333   0.335   1.723   2.762 -1.7953 -2.2871 -1.1390
  245MOL0     H32334   0.057   1.644   2.705 -2.3951 -4.2003  1.8894
  245MOL0     H32335   0.065   1.719   2.862 -0.2816 -0.3473 -1.0152
  245MOL0     H32336   0.082   1.472   2.855 -2.0242  3.2421  3.6958
  245MOL0     H32337   0.223   1.484   2.754  3.7158  1.8614  1.4505
  245MOL0     H32338   0.398   1.576   3.129 -0.0791 -1.2049 -0.4027
  245MOL0     H32339   0.279   1.915   3.169 -1.9067 -0.1764 -1.2826
  245MOL0     H32340   0.341   2.108   3.322  2.0180 -1.6260 -0.2707
  246MOL0     O32341   9.894   9.056   2.000 -0.3744  0.0748  0.4117
  246MOL0     C32342   9.959   9.141   1.937 -0.1221 -0.2159  0.7436
  246MOL0     O32343   9.917   9.218   1.836  0.7405  0.0012 -0.3094
  246MOL0     C32344   9.788   9.202   1.780 -0.0733 -0.0175 -0.0650
  246MOL0     C32345   9.721   9.321   1.762 -0.6432  0.2126 -0.5449
  246MOL0     C32346   9.590   9.317   1.706  0.1345 -0.0573 -0.4369
  246MOL0     C32347   9.535   9.196   1.664 -0.2620 -0.5308 -0.4529
  246MOL0     O32348   9.405   9.199   1.627 -0.6878  0.4623 -0.0684
  246MOL0     C32349   9.317   9.247   1.729 -0.4639 -1.4479  0.3278
  246MOL0     C32350   9.183   9.306   1.664  0.2614 -0.4363 -0.6934
  246MOL0     C32351   9.076   9.349   1.773  0.9701  0.6109  0.8802
  246MOL0     C32352   8.949   9.418   1.705  0.0007 -0.7274 -1.3275
  246MOL0     C32353   8.894   9.522   1.801  0.3894  0.8667 -0.2892
  246MOL0     C32354   8.877   9.466   1.945 -0.2953 -0.3330 -0.1909
  246MOL0     C32355   8.807   9.562   2.034 -0.3799 -0.0028  0.2021
  246MOL0     C32356   8.739   9.501   2.161  0.1490 -0.1437  0.6273
  246MOL0     N32357   8.603   9.450   2.136  0.1050 -0.1114 -0.5737
  246MOL0     C32358   8.521   9.498   2.034  0.4251 -0.3703 -0.3313
  246MOL0     C32359   8.417   9.413   2.034  0.3590 -0.4426 -0.4851
  246MOL0     C32360   8.307   9.399   1.931 -0.4665 -0.2717 -0.7833
  246MOL0     C32361   8.171   9.405   2.007 -0.3403  0.1068  0.0758
  246MOL0     C32362   8.052   9.372   1.910 -0.3781 -1.1334  0.3783
  246MOL0     C32363   7.953   9.296   1.984  0.3582  0.3376 -0.0476
  246MOL0     O32364   7.875   9.241   1.879  0.0266  0.1658  0.5592
  246MOL0     C32365   7.779   9.151   1.910 -0.3276 -1.0913  0.1395
  246MOL0     C32366   7.770   9.087   2.030 -0.0386  0.1735 -0.0814
  246MOL0     C32367   7.660   9.009   2.063 -0.5246 -0.1111 -0.1192
  246MOL0     C32368   7.564   8.985   1.958 -0.8764  0.0667  0.6183
  246MOL0     C32369   7.448   8.905   1.990 -0.2844  0.0076 -0.0971
  246MOL0     O32370   7.458   8.786   2.069  0.2551 -0.3315 -0.0710
  246MOL0     C32371   7.361   8.694   2.094  0.3813  0.2604 -0.6039
  246MOL0     C32372   7.384   8.605   2.192  0.2676  0.5383 -0.3533
  246MOL0     C32373   7.288   8.500   2.209 -0.0254 -0.3805  0.1641
  246MOL0     C32374   7.173   8.486   2.132  0.3879  0.7111  0.2501
  246MOL0     O32375   7.088   8.375   2.147  0.0472 -0.2278  0.4032
  246MOL0     C32376   7.103   8.290   2.264 -0.0635 -0.3664  0.3210
  246MOL0     C32377   6.996   8.183   2.256  0.5015 -0.2020 -0.7272
  246MOL0     C32378   6.970   8.125   2.402 -0.2248  0.4678  0.3592
  246MOL0     C32379   6.858   8.019   2.395 -0.5856 -0.7768 -0.2916
  246MOL0     C32380   6.865   7.938   2.529 -0.6824  0.8756 -0.0836
  246MOL0     C32381   6.852   8.007   2.665  0.4652 -0.6670 -0.1334
  246MOL0     C32382   6.828   7.910   2.784  0.2613 -0.2281  0.1473
  246MOL0     C32383   6.895   7.979   2.910  0.1631  0.3830  0.6733
  246MOL0    Cl32384   6.764   8.108   2.960  0.4478  0.0301 -0.5297
  246MOL0     C32385   7.140   8.590   2.047 -0.4910 -0.4230  0.2735
  246MOL0     C32386   7.237   8.689   2.019 -0.3590  0.4852  0.2794
  246MOL0     O32387   7.348   8.941   1.925 -0.7553 -0.0103 -0.0947
  246MOL0     C32388   7.579   9.041   1.826 -0.2176  0.1738 -0.0346
  246MOL0     C32389   7.689   9.123   1.810  1.0516  0.7259  0.4822
  246MOL0     N32390   8.431   9.320   2.142  1.1781  0.1103  0.2479
  246MOL0     N32391   8.541   9.347   2.206  0.7241  0.2064 -0.2491
  246MOL0     C32392   9.604   9.072   1.682 -0.4020 -0.0527 -0.1743
  246MOL0     C32393   9.729   9.082   1.745 -0.1094  0.5943  0.2056
  246MOL0     C32394  10.092   9.174   1.983 -0.2474 -0.0659 -0.5927
  246MOL0     C32395  10.154   9.089   2.073 -0.4416  0.5118 -0.7648
  246MOL0     C32396  10.281   9.128   2.116  0.4292 -0.9538 -0.0515
  246MOL0     C32397  10.345   9.244   2.084 -0.0339  0.1948  0.4868
  246MOL0     O32398  10.455   9.284   2.135 -0.0116 -0.3374  0.0863
  246MOL0     C32399  10.555   9.186   2.153 -0.3915  0.4106  0.9133
  246MOL0     C32400  10.685   9.263   2.186 -0.2496  0.0125 -0.1054
  246MOL0     C32401  10.684   9.329   2.324  0.8794  1.1368  0.4772
  246MOL0     C32402  10.808   9.404   2.362  1.3407  0.0806 -0.1377
  246MOL0     C32403  10.784   9.444   2.508  0.4204  0.2038  0.4254
  246MOL0     C32404  10.796   9.463   2.626  0.7658  0.5397 -0.2860
  246MOL0     C32405  10.273   9.333   2.001 -1.1105 -0.2905 -0.0034
  246MOL0     C32406  10.151   9.292   1.944 -0.1216  1.0894 -0.2202
  246MOL0     H32407   9.776   9.412   1.782 -0.4424  0.5195 -2.3622
  246MOL0     H32408   9.521   9.401   1.708 -0.4610 -0.5440 -0.4602
  246MOL0     H32409   9.357   9.319   1.801 -3.9775  0.2722  0.8101
  246MOL0     H32410   9.271   9.161   1.778 -2.9276 -0.9333 -0.9287
  246MOL0     H32411   9.133   9.234   1.598  0.4022  1.0384 -2.5054
  246MOL0     H32412   9.222   9.383   1.596  2.8214 -1.9158 -1.0006
  246MOL0     H32413   9.122   9.426   1.836 -0.8037  2.0392  0.4919
  246MOL0     H32414   9.035   9.266   1.832 -2.7153  0.6085 -1.3854
  246MOL0     H32415   8.979   9.477   1.618  0.4588  3.8421  1.6020
  246MOL0     H32416   8.880   9.335   1.690 -0.3073 -0.4198 -1.6015
  246MOL0     H32417   8.804   9.566   1.757  1.1350  0.4221 -2.3493
  246MOL0     H32418   8.966   9.604   1.806  0.2233  0.9659  2.3589
  246MOL0     H32419   8.965   9.423   1.992  1.6605  2.8416 -0.6312
  246MOL0     H32420   8.804   9.386   1.931 -0.9522  0.0882  0.7644
  246MOL0     H32421   8.882   9.626   2.081  2.5493 -2.0482 -1.3815
  246MOL0     H32422   8.736   9.624   1.978 -1.0631 -1.7612 -0.9869
  246MOL0     H32423   8.727   9.583   2.233  2.0618 -1.0117  2.0306
  246MOL0     H32424   8.799   9.414   2.187  0.3756 -1.2502 -3.0145
  246MOL0     H32425   8.537   9.568   1.954  0.2542 -2.0793 -1.9285
  246MOL0     H32426   8.311   9.304   1.876 -0.6282 -1.3877  1.0513
  246MOL0     H32427   8.311   9.490   1.871 -0.3183 -0.0914 -0.4986
  246MOL0     H32428   8.156   9.509   2.039  1.5272  0.2854  0.4585
  246MOL0     H32429   8.171   9.338   2.094  0.4932 -1.0603 -0.8027
  246MOL0     H32430   8.023   9.475   1.887 -0.5974 -0.4870  3.1747
  246MOL0     H32431   8.085   9.323   1.818  0.5440 -0.5536  0.4013
  246MOL0     H32432   7.884   9.357   2.044  1.7579  2.8249 -0.8079
  246MOL0     H32433   8.011   9.223   2.040 -1.5843 -0.1683  1.4384
  246MOL0     H32434   7.851   9.103   2.100 -0.9812 -0.8518  1.2984
  246MOL0     H32435   7.657   8.965   2.162  0.6590  3.8080  1.8629
  246MOL0     H32436   7.474   8.608   2.251  1.0480 -1.5655 -1.3077
  246MOL0     H32437   7.314   8.424   2.282  2.6216 -0.4624 -0.7733
  246MOL0     H32438   7.103   8.344   2.359 -0.3148 -1.4851  0.9774
  246MOL0     H32439   7.198   8.237   2.250  0.9906  0.7098  2.6661
  246MOL0     H32440   7.040   8.107   2.191  1.4237  0.5904 -1.0606
  246MOL0     H32441   6.905   8.227   2.215 -1.3184 -1.8166  1.2818
  246MOL0     H32442   6.929   8.200   2.470 -3.4290 -1.1347  0.3592
  246MOL0     H32443   7.068   8.086   2.431  1.7208  1.1073 -4.3884
  246MOL0     H32444   6.763   8.073   2.393  0.4545  1.1299 -2.7009
  246MOL0     H32445   6.876   7.955   2.308  2.0967  2.2680 -2.1918
  246MOL0     H32446   6.963   7.892   2.541 -0.2629  1.6400 -0.5415
  246MOL0     H32447   6.788   7.861   2.515  0.6548 -0.4214 -0.6299
  246MOL0     H32448   6.764   8.071   2.667 -1.6569 -3.0526 -4.0493
  246MOL0     H32449   6.947   8.059   2.683 -0.3766  0.3061  1.8285
  246MOL0     H32450   6.724   7.877   2.797  0.4332 -0.9265 -0.2006
  246MOL0     H32451   6.878   7.814   2.768 -1.8803 -0.9351 -3.5441
  246MOL0     H32452   6.988   8.035   2.894  0.2698  0.7133  2.2746
  246MOL0     H32453   6.929   7.919   2.995  0.9417 -1.4254 -0.8644
  246MOL0     H32454   7.048   8.592   1.989  1.5428 -0.1548 -3.2696
  246MOL0     H32455   7.210   8.768   1.949  0.3733 -0.8405 -1.5940
  246MOL0     H32456   7.514   9.021   1.741 -1.0782 -0.7139  0.8154
  246MOL0     H32457   7.706   9.168   1.713 -0.6025  1.1318  0.3525
  246MOL0     H32458   9.576   8.971   1.653 -1.2867  0.2052 -0.2671
  246MOL0     H32459   9.791   8.995   1.762  1.0777  1.5923  1.1002
  246MOL0     H32460  10.117   8.992   2.105  1.1470  0.6763  1.8445
  246MOL0     H32461  10.327   9.061   2.188 -0.0180  0.6584  1.8466
  246MOL0     H32462  10.561   9.126   2.062 -2.5954  1.5072 -0.0353
  246MOL0     H32463  10.529   9.114   2.231  1.4587 -0.5691  0.6844
  246MOL0     H32464  10.765   9.189   2.175 -2.3351 -2.5743  1.0667
  246MOL0     H32465  10.705   9.335   2.106  1.9080 -0.4694 -0.0834
  246MOL0     H32466  10.666   9.240   2.384  3.5132 -0.7768 -1.3499
  246MOL0     H32467  10.593   9.389   2.314 -1.0027 -1.5952  0.0698
  246MOL0     H32468  10.900   9.348   2.347  1.8510  1.1512 -1.1140
  246MOL0     H32469  10.808   9.500   2.310  2.2897  1.3151  1.9858
  246MOL0     H32470  10.827   9.468   2.728  1.3387 -4.2787  0.0047
  246MOL0     H32471  10.300   9.437   1.982 -0.9983 -0.6636 -2.1351
  246MOL0     H32472  10.097   9.360   1.880 -1.3920 -1.0056 -1.5117
  247MOL0     O32473   5.991   5.378   4.572  0.1816  0.2546 -0.8447
  247MOL0     C32474   5.981   5.263   4.529  0.2691  0.1265 -0.7703
  247MOL0     O32475   6.037   5.155   4.575 -0.6274  0.0609 -0.2435
  247MOL0     C32476   6.137   5.159   4.669 -0.3021 -0.2388  0.8829
  247MOL0     C32477   6.222   5.265   4.708  0.6776  0.9283  0.6380
  247MOL0     C32478   6.314   5.254   4.811 -0.2568 -0.1433 -0.1401
  247MOL0     C32479   6.342   5.135   4.877  0.2187  1.5148  0.6078
  247MOL0     O32480   6.412   5.145   4.997 -0.5642 -0.3862  0.2067
  247MOL0     C32481   6.552   5.169   4.978  0.1290 -0.4095 -0.2222
  247MOL0     C32482   6.598   5.303   5.040 -0.2921  0.6218  0.8865
  247MOL0     C32483   6.669   5.400   4.943 -0.3370 -0.6705 -0.1003
  247MOL0     C32484   6.726   5.513   5.037  0.2791  0.1102  0.4099
  247MOL0     C32485   6.754   5.647   4.960  0.4535 -0.5664 -0.2540
  247MOL0     C32486   6.858   5.628   4.848 -0.5318  0.2174  0.2150
  247MOL0     C32487   6.850   5.737   4.743  0.3199  0.1456  0.0469
  247MOL0     C32488   6.875   5.876   4.800 -0.1705 -0.8588 -0.2034
  247MOL0     N32489   6.809   5.967   4.707  0.1021  0.2858 -0.3945
  247MOL0     C32490   6.843   5.986   4.574 -0.3885  0.2724  0.6451
  247MOL0     C32491   6.732   6.029   4.509  0.4701  0.0959 -0.1750
  247MOL0     C32492   6.697   6.051   4.365 -0.7494 -0.4024 -0.1775
  247MOL0     C32493   6.652   5.923   4.289 -0.0556 -0.5211 -0.5479
  247MOL0     C32494   6.527   5.848   4.342  0.1382  0.0531  0.2803
  247MOL0     C32495   6.403   5.942   4.336 -0.4650 -0.4536 -0.2527
  247MOL0     O32496   6.366   5.983   4.201 -1.0120 -0.1233  0.2636
  247MOL0     C32497   6.335   5.885   4.117  0.6345 -0.8179  0.0914
  247MOL0     C32498   6.390   5.891   3.999 -0.3391 -0.3280 -0.0224
  247MOL0     C32499   6.342   5.803   3.894 -0.4387 -0.1712 -0.7727
  247MOL0     C32500   6.254   5.701   3.922  0.4777 -0.1438 -0.6614
  247MOL0     C32501   6.208   5.612   3.823 -0.7859 -0.0811 -0.7758
  247MOL0     O32502   6.136   5.497   3.859 -0.6661 -0.3797 -0.6254
  247MOL0     C32503   6.125   5.397   3.767  0.6806 -0.7830  0.1040
  247MOL0     C32504   5.998   5.370   3.727  0.5112  0.6576 -0.6477
  247MOL0     C32505   5.973   5.272   3.632  0.6503  0.2924 -0.1508
  247MOL0     C32506   6.083   5.205   3.568  0.0250 -0.9483 -0.1038
  247MOL0     O32507   6.036   5.121   3.473  0.0621  0.3319 -0.4225
  247MOL0     C32508   6.128   5.069   3.377 -0.0298  0.2515 -0.2232
  247MOL0     C32509   6.045   5.000   3.264  0.2047 -0.5838  0.6468
  247MOL0     C32510   6.127   4.958   3.143  0.0633  0.0061 -0.4738
  247MOL0     C32511   6.193   5.064   3.056 -0.6133 -0.4851 -0.3169
  247MOL0     C32512   6.238   5.009   2.921 -0.2907  0.1157  0.1060
  247MOL0     C32513   6.123   4.971   2.827 -0.5810 -0.1271 -0.1885
  247MOL0     C32514   6.023   5.090   2.803 -0.1335  0.5327  0.5017
  247MOL0     C32515   6.096   5.206   2.744  0.1847 -0.1611 -0.7878
  247MOL0    Cl32516   6.114   5.178   2.574 -0.0387 -0.3300 -0.6097
  247MOL0     C32517   6.213   5.242   3.602 -0.5177 -0.2225  0.0390
  247MOL0     C32518   6.234   5.341   3.703  0.2568 -0.4449  0.3289
  247MOL0     O32519   6.242   5.637   3.707  0.4014  0.1520  0.0235
  247MOL0     C32520   6.197   5.693   4.049 -0.6361 -0.1495  0.7244
  247MOL0     C32521   6.246   5.781   4.142 -0.0292 -0.4878  0.1680
  247MOL0     N32522   6.646   6.060   4.608 -0.1019 -0.2564 -0.2825
  247MOL0     N32523   6.685   6.017   4.724 -0.8316 -0.0289  0.8236
  247MOL0     C32524   6.265   5.020   4.839 -0.7052  0.6403 -0.1454
  247MOL0     C32525   6.171   5.037   4.732 -0.1439 -0.0953  0.3261
  247MOL0     C32526   5.914   5.236   4.406  0.7102 -0.2917  0.3370
  247MOL0     C32527   5.875   5.106   4.372  0.4455  0.3161  0.4727
  247MOL0     C32528   5.790   5.073   4.260 -0.1920  0.2236  0.4392
  247MOL0     C32529   5.757   5.179   4.181 -0.5267 -1.1235  0.0872
  247MOL0     O32530   5.690   5.130   4.076  0.7078  0.6049  0.5676
  247MOL0     C32531   5.658   5.225   3.973  0.6548  0.0363  0.8049
  247MOL0     C32532   5.592   5.137   3.860 -0.8191  0.9264 -0.1954
  247MOL0     C32533   5.710   5.045   3.812 -0.0164 -0.4959 -0.8831
  247MOL0     C32534   5.693   4.987   3.672 -0.0006  0.0935 -0.9452
  247MOL0     C32535   5.824   4.934   3.642  0.1603  0.8111  1.0118
  247MOL0     C32536   5.937   4.892   3.625  1.2059  0.5095  0.4595
  247MOL0     C32537   5.805   5.308   4.207  0.9689  0.6320  0.1338
  247MOL0     C32538   5.873   5.342   4.326  0.8611 -0.4068  0.7645
  247MOL0     H32539   6.212   5.367   4.671 -1.6469  1.6150  2.8091
  247MOL0     H32540   6.351   5.351   4.841 -1.8270  0.3817  0.2146
  247MOL0     H32541   6.581   5.161   4.873 -1.1738  0.2764 -0.6618
  247MOL0     H32542   6.599   5.084   5.027  2.1455  0.9366  0.3257
  247MOL0     H32543   6.676   5.288   5.115  0.4432 -2.9598 -0.3669
  247MOL0     H32544   6.509   5.340   5.091 -2.4317 -1.4197 -1.1342
  247MOL0     H32545   6.597   5.441   4.870  0.2699  1.0659  0.2480
  247MOL0     H32546   6.736   5.347   4.875 -0.1061 -1.4990  0.7546
  247MOL0     H32547   6.650   5.523   5.115 -0.4811 -1.7333 -0.0216
  247MOL0     H32548   6.820   5.480   5.081  2.2737  0.0479 -3.4816
  247MOL0     H32549   6.797   5.719   5.031  0.5356  2.0745 -2.8235
  247MOL0     H32550   6.659   5.683   4.920 -0.7992 -2.1965  1.0574
  247MOL0     H32551   6.846   5.535   4.791  2.5876  0.4609 -1.0600
  247MOL0     H32552   6.960   5.622   4.888 -1.1414 -2.9466  1.5961
  247MOL0     H32553   6.932   5.726   4.671  1.1591  2.1924  0.5930
  247MOL0     H32554   6.759   5.733   4.682  0.7458 -0.9616 -0.5246
  247MOL0     H32555   6.984   5.887   4.805  0.0478 -2.0705 -1.5830
  247MOL0     H32556   6.839   5.893   4.902 -0.8245  1.7827 -0.7868
  247MOL0     H32557   6.935   5.949   4.530 -1.0834 -3.6535  2.0602
  247MOL0     H32558   6.788   6.093   4.321  0.5212 -1.0955  1.6737
  247MOL0     H32559   6.619   6.127   4.355 -0.6619 -0.3486 -0.4768
  247MOL0     H32560   6.727   5.844   4.295 -0.8973 -1.3935 -1.0955
  247MOL0     H32561   6.629   5.959   4.189  1.7521 -0.3964 -0.9405
  247MOL0     H32562   6.513   5.751   4.294 -0.6685 -0.3036  1.1918
  247MOL0     H32563   6.549   5.825   4.447  2.2156  0.5640 -0.0089
  247MOL0     H32564   6.413   6.033   4.395 -2.8325 -0.5945  0.4864
  247MOL0     H32565   6.324   5.883   4.385  0.6858 -2.3536 -0.5812
  247MOL0     H32566   6.463   5.970   3.999 -0.8858  0.1872  0.0737
  247MOL0     H32567   6.404   5.819   3.806  2.6363 -0.0135  1.2982
  247MOL0     H32568   5.906   5.410   3.770 -1.5045 -2.8835 -1.2299
  247MOL0     H32569   5.873   5.245   3.599  0.5886 -1.7056  1.4975
  247MOL0     H32570   6.196   5.004   3.432  0.2289  0.7227  0.0158
  247MOL0     H32571   6.179   5.153   3.329  3.1594 -0.2658  1.9775
  247MOL0     H32572   5.963   5.068   3.241 -1.2822 -0.1284  5.9917
  247MOL0     H32573   5.988   4.918   3.308  0.0023 -2.1420 -2.2263
  247MOL0     H32574   6.064   4.901   3.074 -1.5143  3.1127 -1.8394
  247MOL0     H32575   6.203   4.888   3.177  1.8532  0.9400 -2.3094
  247MOL0     H32576   6.128   5.152   3.047  1.7289  1.2458 -1.3404
  247MOL0     H32577   6.292   5.097   3.089 -0.4239  0.2661 -1.5703
  247MOL0     H32578   6.287   4.912   2.934  1.8925  0.7056 -2.7886
  247MOL0     H32579   6.308   5.079   2.876  1.5655 -0.4639  1.9182
  247MOL0     H32580   6.070   4.884   2.867 -1.6071  1.1577  1.3920
  247MOL0     H32581   6.174   4.940   2.735 -1.4202  0.0533 -0.7215
  247MOL0     H32582   5.944   5.047   2.741 -1.3038  0.5808  1.9068
  247MOL0     H32583   5.976   5.114   2.898  1.5453 -1.0838  1.8320
  247MOL0     H32584   6.196   5.229   2.782  0.8116  0.9347 -2.9209
  247MOL0     H32585   6.033   5.294   2.762  1.5527  0.2435  2.7602
  247MOL0     H32586   6.296   5.200   3.546 -0.7127 -2.4623  1.3128
  247MOL0     H32587   6.339   5.359   3.721 -0.4004  1.1347  3.2361
  247MOL0     H32588   6.115   5.626   4.075  1.1252 -1.9456  1.9539
  247MOL0     H32589   6.198   5.783   4.239 -2.1466  1.3784 -0.8317
  247MOL0     H32590   6.279   4.925   4.889  1.3833  0.3206 -1.2560
  247MOL0     H32591   6.112   4.954   4.694  1.5288 -1.9451  1.5909
  247MOL0     H32592   5.882   5.025   4.443 -0.8992  0.6191  0.9756
  247MOL0     H32593   5.763   4.973   4.230 -2.7518  0.8965  0.2849
  247MOL0     H32594   5.746   5.277   3.936  2.6777 -0.6988  4.1484
  247MOL0     H32595   5.606   5.308   4.021  4.2319  2.2565  1.1770
  247MOL0     H32596   5.514   5.071   3.898  2.5524 -3.6877 -0.4061
  247MOL0     H32597   5.554   5.200   3.779  1.7230 -0.2283 -2.4441
  247MOL0     H32598   5.728   4.968   3.887 -1.1397 -2.6697 -2.7327
  247MOL0     H32599   5.805   5.100   3.808  0.9290 -1.9317  0.5655
  247MOL0     H32600   5.618   4.908   3.666 -2.0647  1.4055  3.4202
  247MOL0     H32601   5.664   5.060   3.595 -1.0771 -1.7331 -2.3465
  247MOL0     H32602   6.038   4.858   3.610  0.2179 -1.7180 -2.1369
  247MOL0     H32603   5.794   5.395   4.144  2.6089  0.6274 -0.2105
  247MOL0     H32604   5.896   5.446   4.347  1.8411 -0.7849  1.6738
  248MOL0     O32605   4.511   3.677  11.156 -0.6517 -0.1494 -1.0333
  248MOL0     C32606   4.514   3.599  11.057 -0.2798  0.1765 -0.4731
  248MOL0     O32607   4.563   3.473  11.068 -0.7222  0.6537  0.1932
  248MOL0     C32608   4.579   3.421  11.195 -0.1283 -0.4382  0.0191
  248MOL0     C32609   4.693   3.451  11.260 -0.7209 -0.5579  0.1477
  248MOL0     C32610   4.718   3.415  11.391  0.0856  1.3549  0.2432
  248MOL0     C32611   4.632   3.315  11.447 -0.9691  0.2175  0.8791
  248MOL0     O32612   4.661   3.281  11.574 -0.4265 -0.0070  0.3184
  248MOL0     C32613   4.636   3.145  11.617  0.9495  0.4416  0.2988
  248MOL0     C32614   4.727   3.103  11.731  0.7880  0.4481 -0.1742
  248MOL0     C32615   4.730   3.204  11.841  0.2395 -0.1226  0.9435
  248MOL0     C32616   4.802   3.151  11.967  0.8006 -0.4297 -0.0664
  248MOL0     C32617   4.775   3.230  12.085 -0.3793 -0.7753  0.3135
  248MOL0     C32618   4.866   3.212  12.206  0.1607 -0.4160 -0.8223
  248MOL0     C32619   4.818   3.305  12.316  0.6205 -0.8291 -0.2810
  248MOL0     C32620   4.916   3.324  12.435 -0.1874  0.4415  0.4021
  248MOL0     N32621   4.864   3.415  12.541  1.8991 -0.7468 -0.5264
  248MOL0     C32622   4.744   3.393  12.604  0.2071 -0.7724 -1.0311
  248MOL0     C32623   4.731   3.508  12.687 -0.2372 -0.5368 -0.3082
  248MOL0     C32624   4.627   3.532  12.785 -0.0864  0.4909  0.1079
  248MOL0     C32625   4.615   3.420  12.897 -0.1138  0.7397 -0.4673
  248MOL0     C32626   4.739   3.387  12.980  0.1273  0.6257 -0.8015
  248MOL0     C32627   4.803   3.503  13.052 -0.8827  0.3750 -0.1327
  248MOL0     O32628   4.728   3.515  13.177 -0.7694 -0.1403 -0.5348
  248MOL0     C32629   4.799   3.565  13.288 -0.6822  0.5496 -0.6459
  248MOL0     C32630   4.727   3.563  13.406  0.7196  0.0994  1.5164
  248MOL0     C32631   4.779   3.603  13.529 -0.6489 -0.3890 -0.4862
  248MOL0     C32632   4.909   3.646  13.529 -0.0023  0.0294 -0.2409
  248MOL0     C32633   4.963   3.706  13.661 -0.5196 -0.4589 -0.0950
  248MOL0     O32634   4.875   3.726  13.763 -0.2021  0.3340  0.3842
  248MOL0     C32635   4.900   3.825  13.860 -1.1178 -0.1194  0.3206
  248MOL0     C32636   4.831   3.800  13.975  0.6515 -0.2816  0.6763
  248MOL0     C32637   4.853   3.883  14.082 -0.1671 -0.0769 -0.0246
  248MOL0     C32638   4.948   3.993  14.078  0.0062 -0.7236 -0.9384
  248MOL0     O32639   4.972   4.078  14.180 -0.2856  0.0480  0.0429
  248MOL0     C32640   4.862   4.166  14.212  0.2046 -0.5284 -0.1920
  248MOL0     C32641   4.808   4.261  14.094  0.0887 -0.0884  0.4964
  248MOL0     C32642   4.729   4.374  14.147 -0.2676 -0.2674 -1.2071
  248MOL0     C32643   4.803   4.480  14.225 -0.0641 -1.1597 -0.1002
  248MOL0     C32644   4.870   4.577  14.127  0.2700 -0.8225  0.4970
  248MOL0     C32645   4.943   4.686  14.194  0.5147  0.3444  0.3643
  248MOL0     C32646   5.078   4.633  14.250 -0.2986  0.6276  1.1535
  248MOL0     C32647   5.190   4.729  14.240  0.8132  1.1012  0.0437
  248MOL0    Cl32648   5.132   4.893  14.277  0.1912 -0.3412 -0.4798
  248MOL0     C32649   5.010   4.024  13.956  0.5074 -1.0675  0.3531
  248MOL0     C32650   4.982   3.939  13.844  0.2466  0.1439 -0.0537
  248MOL0     O32651   5.085   3.707  13.674  0.2090 -0.1372  0.2753
  248MOL0     C32652   4.987   3.646  13.415 -0.7951  0.6278 -0.0131
  248MOL0     C32653   4.935   3.604  13.296 -0.6231 -1.4161  0.2056
  248MOL0     N32654   4.829   3.597  12.664 -0.1935  0.5977  0.0202
  248MOL0     N32655   4.904   3.543  12.573  0.1582  0.6058 -1.0757
  248MOL0     C32656   4.513   3.285  11.376  0.0092  0.0554 -0.3112
  248MOL0     C32657   4.481   3.353  11.257  0.0406  0.5165  0.5698
  248MOL0     C32658   4.498   3.659  10.916  0.3674 -0.2506 -0.6141
  248MOL0     C32659   4.445   3.790  10.895  0.6188  0.8802 -0.1700
  248MOL0     C32660   4.431   3.830  10.762  0.1151  0.0977  0.3156
  248MOL0     C32661   4.480   3.753  10.654  0.7569  0.6234 -0.1071
  248MOL0     O32662   4.471   3.813  10.527 -1.2015  0.2556 -0.3424
  248MOL0     C32663   4.345   3.795  10.460  0.3680 -0.9839  0.3887
  248MOL0     C32664   4.338   3.901  10.352  0.3381 -0.7025 -0.1599
  248MOL0     C32665   4.202   3.892  10.284  0.8508  0.1135  0.5306
  248MOL0     C32666   4.144   4.033  10.244 -0.4196 -0.2064 -0.5389
  248MOL0     C32667   4.004   4.021  10.187 -0.6393  0.8396  0.3885
  248MOL0     C32668   3.888   4.027  10.169 -0.7563  0.3841  0.3305
  248MOL0     C32669   4.525   3.616  10.682  0.7147 -1.0645  0.6790
  248MOL0     C32670   4.532   3.569  10.819 -0.5070 -0.4092  0.7191
  248MOL0     H32671   4.776   3.511  11.223 -2.0566  0.7174 -0.9445
  248MOL0     H32672   4.792   3.466  11.452 -1.4183  1.6413  1.9243
  248MOL0     H32673   4.626   3.078  11.531  1.2078  1.7772 -0.8115
  248MOL0     H32674   4.540   3.156  11.667  1.1847  1.4851  0.5342
  248MOL0     H32675   4.825   3.093  11.683  1.6953  1.8006  1.3146
  248MOL0     H32676   4.706   2.998  11.751  2.1388  0.2619  0.3326
  248MOL0     H32677   4.625   3.216  11.866 -0.8866 -4.3177 -0.8885
  248MOL0     H32678   4.768   3.303  11.813 -1.8738  0.2423 -0.8373
  248MOL0     H32679   4.763   3.049  11.980  1.0218 -0.4378  0.5410
  248MOL0     H32680   4.908   3.159  11.944  0.5581 -0.8379 -1.4494
  248MOL0     H32681   4.671   3.221  12.116 -0.4538  1.3592  0.8570
  248MOL0     H32682   4.786   3.331  12.044  2.3365 -1.8286 -1.8621
  248MOL0     H32683   4.967   3.225  12.167 -0.3621 -2.6754 -3.1869
  248MOL0     H32684   4.864   3.106  12.230  1.4089 -0.0943  0.9667
  248MOL0     H32685   4.802   3.404  12.271 -1.5630 -0.6902  0.6522
  248MOL0     H32686   4.723   3.265  12.351 -0.3015  0.8150 -0.7924
  248MOL0     H32687   5.011   3.366  12.400 -0.4797  1.2813  0.5996
  248MOL0     H32688   4.929   3.229  12.487 -2.9052  1.2169  2.8155
  248MOL0     H32689   4.683   3.304  12.616  1.1432 -1.1407  1.7213
  248MOL0     H32690   4.533   3.540  12.729 -1.1455 -1.6777  1.3902
  248MOL0     H32691   4.638   3.635  12.820  1.1245  1.8463 -3.8168
  248MOL0     H32692   4.589   3.328  12.844  0.4478 -0.1660  0.7798
  248MOL0     H32693   4.545   3.437  12.979 -1.7234 -2.5797 -0.9934
  248MOL0     H32694   4.726   3.303  13.049  3.9125 -0.8015 -1.6012
  248MOL0     H32695   4.818   3.359  12.910 -0.6573 -0.2714 -1.3523
  248MOL0     H32696   4.796   3.587  12.982 -0.5362 -1.0314 -1.9112
  248MOL0     H32697   4.907   3.472  13.064 -0.7901  0.3574 -0.9349
  248MOL0     H32698   4.620   3.546  13.413  0.9259 -1.1877  1.7979
  248MOL0     H32699   4.706   3.595  13.610 -2.2730 -3.0608 -2.0524
  248MOL0     H32700   4.769   3.712  13.990 -0.8348  0.6983  0.5602
  248MOL0     H32701   4.806   3.854  14.175  1.2586 -0.5387  0.5802
  248MOL0     H32702   4.901   4.233  14.289 -1.8062 -0.1160  0.5443
  248MOL0     H32703   4.770   4.123  14.252 -1.6731 -1.0963 -4.5889
  248MOL0     H32704   4.756   4.203  14.018 -0.3471 -0.6389  1.1987
  248MOL0     H32705   4.901   4.307  14.058  2.4232 -3.6499  1.4932
  248MOL0     H32706   4.648   4.334  14.209  1.3845  0.4227  1.5431
  248MOL0     H32707   4.676   4.411  14.058 -2.4421  0.9409  0.4867
  248MOL0     H32708   4.720   4.524  14.282  0.2663  1.1421 -1.3093
  248MOL0     H32709   4.874   4.445  14.300 -1.8768  0.2780  2.4411
  248MOL0     H32710   4.793   4.625  14.065  1.9849 -0.1433 -1.1966
  248MOL0     H32711   4.936   4.523  14.059  1.1271  0.2909  0.4154
  248MOL0     H32712   4.892   4.733  14.280  2.9359  2.1783  0.9120
  248MOL0     H32713   4.968   4.761  14.119  5.4891 -0.5064  0.8476
  248MOL0     H32714   5.065   4.594  14.351  3.0471 -0.4345  1.3045
  248MOL0     H32715   5.119   4.546  14.198  0.2751 -0.4622  3.3100
  248MOL0     H32716   5.234   4.726  14.140  0.4067 -0.4548 -0.1114
  248MOL0     H32717   5.272   4.696  14.305  0.7144  2.8592  1.1151
  248MOL0     H32718   5.083   4.104  13.966 -0.0305 -0.8113  3.1630
  248MOL0     H32719   5.034   3.948  13.749  1.1138  1.4816  0.5331
  248MOL0     H32720   5.084   3.693  13.418  0.2061 -1.3274 -0.2810
  248MOL0     H32721   4.996   3.603  13.207 -1.7233  2.8675 -0.8354
  248MOL0     H32722   4.442   3.216  11.421 -2.1947  0.6735 -2.6387
  248MOL0     H32723   4.379   3.343  11.221  0.2642 -0.2404  0.1170
  248MOL0     H32724   4.416   3.857  10.974 -4.8371  2.1604 -2.8077
  248MOL0     H32725   4.394   3.930  10.741 -0.8525 -0.5338 -1.1648
  248MOL0     H32726   4.274   3.822  10.538  0.0096 -0.1855 -0.2037
  248MOL0     H32727   4.341   3.691  10.425  4.2392 -0.3048 -2.8599
  248MOL0     H32728   4.360   4.000  10.394 -1.3523 -0.3053 -0.1158
  248MOL0     H32729   4.415   3.869  10.282  0.8737 -1.4650  0.7523
  248MOL0     H32730   4.129   3.856  10.358  1.2779 -1.4938  0.2116
  248MOL0     H32731   4.201   3.820  10.202  1.8701 -3.3077  3.2899
  248MOL0     H32732   4.136   4.089  10.337 -2.1464  0.7139 -1.1969
  248MOL0     H32733   4.210   4.070  10.164  1.2123 -1.1201  0.3352
  248MOL0     H32734   3.782   4.033  10.153 -1.2664 -0.1339  3.0135
  248MOL0     H32735   4.544   3.544  10.603 -0.4185 -0.0076 -0.5890
  248MOL0     H32736   4.572   3.469  10.833  0.1170 -0.6489 -2.2446
  249MOL0     O32737   8.678  10.455  10.074  0.5074  0.0830 -0.1878
  249MOL0     C32738   8.587  10.529  10.074 -0.6907 -0.8479 -0.4781
  249MOL0     O32739   8.467  10.504  10.009 -0.0101  0.4886  0.1211
  249MOL0     C32740   8.421  10.387   9.956  0.8288 -0.2564  0.6498
  249MOL0     C32741   8.331  10.404   9.849  1.0244 -0.0868 -0.0544
  249MOL0     C32742   8.284  10.284   9.787  0.4162  0.6915  0.1096
  249MOL0     C32743   8.319  10.165   9.835  0.3376  0.2123 -1.0535
  249MOL0     O32744   8.265  10.046   9.793 -0.1937 -0.4645  0.1914
  249MOL0     C32745   8.146  10.001   9.869  0.4098 -0.1544 -0.4698
  249MOL0     C32746   8.075   9.895   9.792  0.0938 -0.4819  0.7143
  249MOL0     C32747   8.161   9.773   9.761 -0.1149  0.8305  0.1432
  249MOL0     C32748   8.083   9.653   9.708 -0.3550  0.0196  0.1964
  249MOL0     C32749   8.185   9.549   9.661  0.2882 -0.6975  0.2735
  249MOL0     C32750   8.115   9.432   9.595 -0.5091  0.3541  0.0742
  249MOL0     C32751   8.217   9.343   9.521 -0.8907  0.0872  0.0686
  249MOL0     C32752   8.311   9.272   9.618 -0.0877 -0.5880 -0.2574
  249MOL0     N32753   8.411   9.192   9.540 -0.0266 -0.4866 -0.9510
  249MOL0     C32754   8.386   9.074   9.471 -0.7986 -0.8565 -0.1537
  249MOL0     C32755   8.504   9.041   9.418  0.2043  0.7087 -1.2209
  249MOL0     C32756   8.535   8.918   9.327 -0.2525 -0.5289 -0.1035
  249MOL0     C32757   8.559   8.796   9.406  0.4356 -0.4560 -0.0146
  249MOL0     C32758   8.690   8.782   9.477 -0.4044  0.0109  0.2965
  249MOL0     C32759   8.730   8.631   9.481 -1.1639 -0.2770 -0.6473
  249MOL0     O32760   8.802   8.617   9.599 -0.1297  0.3882  0.5881
  249MOL0     C32761   8.907   8.529   9.578 -0.3223 -0.5638  0.1369
  249MOL0     C32762   8.903   8.411   9.661  0.1319  0.3012  0.6537
  249MOL0     C32763   8.990   8.305   9.657 -0.0770  0.1584  0.8480
  249MOL0     C32764   9.108   8.332   9.584 -0.3763 -0.5981 -0.1712
  249MOL0     C32765   9.212   8.229   9.569 -0.1115  1.1558 -0.0796
  249MOL0     O32766   9.332   8.255   9.504 -0.6274 -0.5534  0.9650
  249MOL0     C32767   9.408   8.139   9.475 -0.2444  0.0416  0.0766
  249MOL0     C32768   9.551   8.152   9.492  0.0833  0.7350 -0.2620
  249MOL0     C32769   9.634   8.036   9.456  0.5417 -0.2723 -0.5184
  249MOL0     C32770   9.575   7.926   9.388  0.4691 -0.6195  0.9071
  249MOL0     O32771   9.644   7.820   9.342 -0.3554  0.2317 -0.2565
  249MOL0     C32772   9.789   7.809   9.357  0.4407 -0.3428 -0.0878
  249MOL0     C32773   9.825   7.666   9.329  0.3521  0.1112  0.1190
  249MOL0     C32774   9.814   7.619   9.182 -0.7882  0.4485  0.1695
  249MOL0     C32775   9.915   7.685   9.095 -0.8624 -0.0060  0.2261
  249MOL0     C32776   9.930   7.631   8.948 -0.7511 -0.3319  0.3881
  249MOL0     C32777   9.814   7.660   8.859 -0.1612 -0.3458  0.1431
  249MOL0     C32778   9.798   7.807   8.816 -0.7972 -0.3146  0.5691
  249MOL0     C32779   9.699   7.813   8.698 -0.9160  0.1186 -0.2404
  249MOL0    Cl32780   9.658   7.983   8.690  0.1156 -0.0798  0.7261
  249MOL0     C32781   9.435   7.919   9.366 -1.0115  1.2355 -0.3037
  249MOL0     C32782   9.353   8.020   9.409 -0.0382 -0.6457  0.1875
  249MOL0     O32783   9.183   8.126   9.622 -0.2295  0.1856 -0.9034
  249MOL0     C32784   9.125   8.457   9.516  0.0681  1.0061  0.6420
  249MOL0     C32785   9.024   8.553   9.514 -0.2718  0.2639 -0.0055
  249MOL0     N32786   8.594   9.138   9.458 -0.6214 -0.3306 -1.1146
  249MOL0     N32787   8.541   9.221   9.537  0.0718  0.9673 -0.8584
  249MOL0     C32788   8.393  10.150   9.947  0.2273  0.1506 -0.7355
  249MOL0     C32789   8.459  10.264  10.008  0.4350  0.9749  0.2671
  249MOL0     C32790   8.594  10.647  10.164 -0.4539 -0.5122 -0.5546
  249MOL0     C32791   8.622  10.640  10.298 -0.0306  0.0918  0.2429
  249MOL0     C32792   8.646  10.751  10.377  0.5052 -0.6498  0.0537
  249MOL0     C32793   8.650  10.876  10.318  0.2285  0.0231  1.2466
  249MOL0     O32794   8.684  10.983  10.406 -0.7124 -0.0168 -0.3940
  249MOL0     C32795   8.690  11.111  10.345  0.1172 -1.1814 -0.8082
  249MOL0     C32796   8.707  11.219  10.449  0.2399  0.7062 -0.4553
  249MOL0     C32797   8.725  11.349  10.386  0.5554 -0.9899  0.5461
  249MOL0     C32798   8.822  11.441  10.462 -0.2535 -0.1257 -0.0916
  249MOL0     C32799   8.827  11.575  10.400  0.3189 -0.4777  1.6897
  249MOL0     C32800   8.821  11.681  10.333  0.3605  0.1358 -0.9662
  249MOL0     C32801   8.640  10.887  10.178  0.6229 -0.4700  0.0527
  249MOL0     C32802   8.608  10.771  10.097 -0.2747 -0.5414 -0.9911
  249MOL0     H32803   8.300  10.502   9.814 -3.7718 -2.0312 -2.0894
  249MOL0     H32804   8.211  10.290   9.707  0.9360 -0.5343 -0.4850
  249MOL0     H32805   8.082  10.082   9.905 -3.0057 -2.9570  0.2040
  249MOL0     H32806   8.182   9.961   9.964 -0.7521  0.3429  0.2024
  249MOL0     H32807   8.029   9.931   9.700  0.2131  2.8994  1.8527
  249MOL0     H32808   7.995   9.848   9.850  0.1830 -4.2785 -1.8605
  249MOL0     H32809   8.209   9.740   9.854 -2.1108 -2.9360  0.0120
  249MOL0     H32810   8.241   9.802   9.692  0.8151 -0.4472  0.6252
  249MOL0     H32811   8.009   9.617   9.780 -2.1171  1.4689 -0.8038
  249MOL0     H32812   8.029   9.700   9.625 -1.8065 -0.0944  1.0404
  249MOL0     H32813   8.232   9.514   9.753  0.4387 -0.8216  0.1484
  249MOL0     H32814   8.262   9.596   9.599  0.3129  0.1195  0.8973
  249MOL0     H32815   8.057   9.471   9.510 -0.5863  1.2163  0.5157
  249MOL0     H32816   8.051   9.371   9.659 -1.6977  1.4399 -0.0333
  249MOL0     H32817   8.154   9.282   9.457  0.6746 -0.2621 -1.2225
  249MOL0     H32818   8.274   9.411   9.455 -0.5001 -0.7232 -0.4425
  249MOL0     H32819   8.264   9.196   9.681  0.9261  0.9774  2.5625
  249MOL0     H32820   8.370   9.351   9.665  1.1660  0.2888 -3.0899
  249MOL0     H32821   8.286   9.034   9.456 -1.3502  0.0301  1.0019
  249MOL0     H32822   8.623   8.937   9.264 -0.7724 -4.4124 -2.3344
  249MOL0     H32823   8.454   8.908   9.255 -2.0350  1.4246  1.4984
  249MOL0     H32824   8.560   8.725   9.323 -0.8797  0.9707 -1.3026
  249MOL0     H32825   8.474   8.779   9.473 -0.6234 -1.1272 -1.4721
  249MOL0     H32826   8.770   8.829   9.419  1.2643 -2.0303  0.8130
  249MOL0     H32827   8.697   8.828   9.576  0.9666 -2.2334  1.3239
  249MOL0     H32828   8.780   8.595   9.391 -2.2760 -2.0116 -0.6226
  249MOL0     H32829   8.636   8.578   9.496 -1.7045  1.1490  1.4609
  249MOL0     H32830   8.823   8.418   9.734 -3.3898  1.3057 -2.9469
  249MOL0     H32831   8.965   8.218   9.717 -2.6928  0.9275  0.9859
  249MOL0     H32832   9.578   8.237   9.553 -2.1909  1.9023 -0.7523
  249MOL0     H32833   9.738   8.056   9.479  0.4085 -0.0782 -0.0584
  249MOL0     H32834   9.822   7.834   9.459 -0.6507  0.8081 -0.0006
  249MOL0     H32835   9.831   7.883   9.289  1.3474 -0.7287  0.0399
  249MOL0     H32836   9.756   7.612   9.394  0.6512 -0.9492 -0.4193
  249MOL0     H32837   9.925   7.655   9.372 -0.2655  0.0603  1.5922
  249MOL0     H32838   9.713   7.625   9.139 -0.8348  2.8699  0.5250
  249MOL0     H32839   9.844   7.514   9.189 -0.0124  0.7798  2.7480
  249MOL0     H32840   9.902   7.794   9.095 -1.2169  0.0067 -2.3063
  249MOL0     H32841  10.016   7.682   9.136  0.0727  1.3175 -1.8076
  249MOL0     H32842   9.932   7.522   8.950 -3.0614 -0.4344 -0.2776
  249MOL0     H32843  10.022   7.659   8.895 -1.4219 -1.3234 -1.3694
  249MOL0     H32844   9.726   7.635   8.919 -1.4499  0.1698 -1.4576
  249MOL0     H32845   9.819   7.581   8.783 -0.7465 -2.3906  2.1347
  249MOL0     H32846   9.758   7.869   8.897 -2.6037 -1.0512  0.2777
  249MOL0     H32847   9.891   7.852   8.778 -3.1885  1.9066 -3.3164
  249MOL0     H32848   9.605   7.758   8.711 -0.2630 -1.6604 -2.3741
  249MOL0     H32849   9.738   7.772   8.604 -2.5935 -2.0765 -0.0444
  249MOL0     H32850   9.403   7.827   9.318 -0.6939  0.6145  0.6425
  249MOL0     H32851   9.252   8.033   9.370  0.8516 -0.6398 -2.2991
  249MOL0     H32852   9.211   8.475   9.452  1.7972 -3.0918  1.4867
  249MOL0     H32853   9.047   8.637   9.450  2.8517 -1.3402 -1.2482
  249MOL0     H32854   8.411  10.049   9.983 -1.7013  1.1918  3.8718
  249MOL0     H32855   8.523  10.249  10.094 -2.1649 -4.7806  1.7490
  249MOL0     H32856   8.613  10.541  10.343 -0.7928 -0.0612 -0.2299
  249MOL0     H32857   8.660  10.756  10.485 -0.9889  2.3020  0.2182
  249MOL0     H32858   8.593  11.137  10.303 -0.3948 -3.8805 -1.4764
  249MOL0     H32859   8.771  11.125  10.273 -1.1957 -1.5854 -2.4139
  249MOL0     H32860   8.616  11.220  10.510  0.2166  1.4367 -0.4920
  249MOL0     H32861   8.794  11.188  10.507  1.5535 -3.3195 -4.0317
  249MOL0     H32862   8.624  11.392  10.386  1.1181  0.4955  2.7307
  249MOL0     H32863   8.747  11.339  10.279 -4.3741 -1.8646 -0.6372
  249MOL0     H32864   8.788  11.454  10.565 -5.5155  0.0692 -1.5767
  249MOL0     H32865   8.922  11.398  10.460  0.8652  2.2340  0.9279
  249MOL0     H32866   8.809  11.776  10.285 -0.7964  0.7981  0.5463
  249MOL0     H32867   8.638  10.982  10.126 -1.3638 -0.1846  0.5567
  249MOL0     H32868   8.598  10.788   9.990 -0.2966  1.6840 -0.6974
  250MOL0     O32869   1.513   9.432   2.531  0.2381 -0.6486 -0.0389
  250MOL0     C32870   1.536   9.555   2.542  0.7225  0.3293  0.7051
  250MOL0     O32871   1.657   9.612   2.572  0.7026  0.0535 -0.1568
  250MOL0     C32872   1.761   9.531   2.585 -0.5879  0.0608 -0.1980
  250MOL0     C32873   1.796   9.483   2.704 -0.9386 -0.3270  0.0203
  250MOL0     C32874   1.913   9.408   2.711  0.1207  0.2336 -0.6979
  250MOL0     C32875   1.995   9.378   2.602  0.2035  0.0556 -0.1989
  250MOL0     O32876   2.121   9.321   2.632 -0.3993  0.2880  0.4812
  250MOL0     C32877   2.232   9.369   2.548  0.0283  0.6313  0.2909
  250MOL0     C32878   2.351   9.407   2.651  0.6734  0.3800 -0.6134
  250MOL0     C32879   2.334   9.548   2.696  0.0880 -0.6755 -0.6873
  250MOL0     C32880   2.451   9.578   2.797  0.9559 -0.0442 -0.6321
  250MOL0     C32881   2.421   9.709   2.890  0.9398 -0.2176  0.4376
  250MOL0     C32882   2.507   9.725   3.008 -0.1424  0.2915  0.5547
  250MOL0     C32883   2.474   9.853   3.073  0.4636 -0.3947 -0.3449
  250MOL0     C32884   2.334   9.850   3.139  0.8060  0.2409 -0.0572
  250MOL0     N32885   2.312   9.985   3.198 -0.0491  0.6150  0.0698
  250MOL0     C32886   2.381  10.042   3.300 -0.3691 -1.0170  1.2984
  250MOL0     C32887   2.331  10.170   3.311 -0.5644 -0.2822 -0.7474
  250MOL0     C32888   2.385  10.276   3.409 -1.1567  0.0779  0.7444
  250MOL0     C32889   2.344  10.250   3.548 -0.4210  0.1816  0.9699
  250MOL0     C32890   2.194  10.250   3.578  0.1771  0.4182  0.2815
  250MOL0     C32891   2.178  10.260   3.724  0.5243 -1.0024 -0.4505
  250MOL0     O32892   2.035  10.280   3.752  0.4068 -0.9245  0.0776
  250MOL0     C32893   2.006  10.311   3.883  0.0913 -0.3118  0.0161
  250MOL0     C32894   2.056  10.236   3.994  0.2225 -0.5522  0.6535
  250MOL0     C32895   2.032  10.287   4.124  0.3689 -0.2227  0.1670
  250MOL0     C32896   1.970  10.402   4.159 -0.2029  0.4376  0.1972
  250MOL0     C32897   1.963  10.448   4.298 -0.3619 -0.6534 -0.3361
  250MOL0     O32898   2.036  10.393   4.399  0.0309  0.5382  0.0180
  250MOL0     C32899   2.056  10.469   4.514  0.4252 -0.4204  0.8276
  250MOL0     C32900   1.971  10.458   4.625 -0.3726 -0.1536 -0.1777
  250MOL0     C32901   2.008  10.530   4.748  0.2973  0.2609  0.1015
  250MOL0     C32902   2.120  10.608   4.752  0.1644  0.0240  0.3683
  250MOL0     O32903   2.168  10.686   4.854  0.1866 -0.2650 -0.4351
  250MOL0     C32904   2.111  10.678   4.986 -0.5719  0.6245  0.2331
  250MOL0     C32905   2.196  10.766   5.078  0.7028  0.2039 -0.1804
  250MOL0     C32906   2.179  10.917   5.069  1.3439 -0.4922  0.4286
  250MOL0     C32907   2.025  10.970   5.099 -1.0240 -0.6070  0.3281
  250MOL0     C32908   2.024  11.126   5.094  0.6424 -0.2703  0.2181
  250MOL0     C32909   2.082  11.191   5.220  0.5772 -0.3635  0.1223
  250MOL0     C32910   2.142  11.328   5.188 -0.3079  0.4438 -0.8852
  250MOL0     C32911   2.176  11.385   5.324 -0.0450  0.5225 -0.2851
  250MOL0    Cl32912   2.218  11.566   5.295  0.6502 -0.2505  0.4066
  250MOL0     C32913   2.198  10.617   4.642 -0.1326 -0.3396  0.1965
  250MOL0     C32914   2.165  10.556   4.522  0.2129  0.6635 -0.0740
  250MOL0     O32915   1.895  10.560   4.306 -0.2913 -0.1715  0.8244
  250MOL0     C32916   1.918  10.479   4.051 -0.2234  0.0584 -0.1929
  250MOL0     C32917   1.929  10.429   3.921 -0.5835 -0.3243 -0.2597
  250MOL0     N32918   2.242  10.186   3.208  0.3524 -0.1731  0.0757
  250MOL0     N32919   2.229  10.077   3.139  0.1828  0.0140  0.2018
  250MOL0     C32920   1.958   9.425   2.475 -0.2975 -0.6253 -0.3044
  250MOL0     C32921   1.834   9.499   2.467 -0.3445 -1.0792 -0.7219
  250MOL0     C32922   1.425   9.655   2.515 -0.0389 -0.0620  0.0776
  250MOL0     C32923   1.309   9.615   2.443 -0.1531  0.5561 -0.4728
  250MOL0     C32924   1.227   9.720   2.394 -0.0105  1.2140  0.4104
  250MOL0     C32925   1.250   9.849   2.425 -0.4760 -0.5964 -0.5760
  250MOL0     O32926   1.177   9.956   2.388  0.1301  0.3458 -0.2469
  250MOL0     C32927   1.044   9.931   2.342  0.3310  0.2602  0.9611
  250MOL0     C32928   0.971  10.065   2.323  0.5877  0.7403 -0.3110
  250MOL0     C32929   0.932  10.127   2.454 -0.0054  0.5458  0.0778
  250MOL0     C32930   0.934  10.283   2.463 -0.3877 -1.0135  0.5196
  250MOL0     C32931   0.853  10.343   2.353 -0.9167  0.1194  1.0004
  250MOL0     C32932   0.778  10.381   2.257 -1.1859  0.6281 -0.4778
  250MOL0     C32933   1.363   9.885   2.501  1.3026  0.1891 -0.5200
  250MOL0     C32934   1.453   9.781   2.544  0.3088 -0.9293  0.0246
  250MOL0     H32935   1.735   9.496   2.793  1.8245 -2.2408  2.3837
  250MOL0     H32936   1.948   9.372   2.807 -0.7732  0.8626 -0.1214
  250MOL0     H32937   2.225   9.460   2.488 -0.3438  1.2746  1.2809
  250MOL0     H32938   2.263   9.280   2.493  4.6546  3.2942 -2.0353
  250MOL0     H32939   2.451   9.398   2.608  1.8230  4.1354  0.8338
  250MOL0     H32940   2.348   9.340   2.737 -2.8841 -4.6679 -4.0540
  250MOL0     H32941   2.244   9.553   2.756 -0.9988  2.0340 -2.3442
  250MOL0     H32942   2.335   9.618   2.611 -2.1172 -0.2201 -0.3933
  250MOL0     H32943   2.458   9.501   2.873 -2.3403  0.4004  0.2473
  250MOL0     H32944   2.547   9.579   2.743 -0.1537 -2.8777 -2.9011
  250MOL0     H32945   2.316   9.702   2.922  1.3546  1.1363  2.2271
  250MOL0     H32946   2.428   9.799   2.829 -0.4719  1.7321  2.9611
  250MOL0     H32947   2.610   9.718   2.970 -0.4038  2.1871 -0.6824
  250MOL0     H32948   2.484   9.651   3.085  0.6245 -0.0216  0.4919
  250MOL0     H32949   2.540   9.865   3.159 -0.4762 -2.4839  0.7557
  250MOL0     H32950   2.480   9.938   3.005  1.7547  2.0887  2.5996
  250MOL0     H32951   2.340   9.782   3.224  0.5986  2.6827  2.0474
  250MOL0     H32952   2.256   9.833   3.064 -0.8564  2.6524  0.9917
  250MOL0     H32953   2.458   9.996   3.361  1.7534 -1.7095 -1.6422
  250MOL0     H32954   2.351  10.379   3.395  1.1795  1.0483  1.6420
  250MOL0     H32955   2.493  10.261   3.401 -1.2143  0.4194 -1.1859
  250MOL0     H32956   2.401  10.321   3.609  0.7943  0.3111 -0.2748
  250MOL0     H32957   2.386  10.152   3.575 -1.4814 -1.0932 -1.6295
  250MOL0     H32958   2.146  10.338   3.534  1.6189  0.7654 -0.6925
  250MOL0     H32959   2.149  10.154   3.553  1.3819 -0.6003  1.8525
  250MOL0     H32960   2.246  10.339   3.759  1.0570 -0.5602 -2.3458
  250MOL0     H32961   2.216  10.170   3.772  1.1761 -1.5008 -1.8506
  250MOL0     H32962   2.093  10.135   3.977 -0.8255 -1.1538  1.7566
  250MOL0     H32963   2.067  10.222   4.203 -0.8213 -0.1752  0.7547
  250MOL0     H32964   1.875  10.407   4.620  1.1904 -3.3758  0.4179
  250MOL0     H32965   1.954  10.518   4.842  0.6859 -0.8237  0.1912
  250MOL0     H32966   2.127  10.575   5.019  1.6893  0.7273 -0.3795
  250MOL0     H32967   2.004  10.698   4.993 -1.0933 -2.1778  1.4330
  250MOL0     H32968   2.304  10.753   5.062  0.5302  0.3234 -1.5465
  250MOL0     H32969   2.169  10.745   5.182  0.3646  1.1696 -0.0591
  250MOL0     H32970   2.210  10.952   4.970  1.1146 -1.0582  0.1519
  250MOL0     H32971   2.250  10.961   5.140  3.0638 -1.7925 -0.4021
  250MOL0     H32972   1.966  10.927   5.018 -1.7610 -2.7610  1.9192
  250MOL0     H32973   1.988  10.936   5.196  0.5130  0.4704  1.3411
  250MOL0     H32974   1.919  11.157   5.081  0.5807 -0.6838 -0.2781
  250MOL0     H32975   2.077  11.168   5.008  1.4978 -2.1756 -0.2285
  250MOL0     H32976   2.156  11.127   5.270 -0.0949 -0.9431  0.4024
  250MOL0     H32977   1.999  11.202   5.291 -2.5768 -1.7295 -3.0564
  250MOL0     H32978   2.219  11.335   5.111  0.6608 -0.6316 -0.0451
  250MOL0     H32979   2.057  11.387   5.152  0.2978  0.1354 -2.9457
  250MOL0     H32980   2.265  11.349   5.376 -0.8585 -1.4955 -0.2213
  250MOL0     H32981   2.088  11.375   5.388  0.0691 -3.7123 -0.5456
  250MOL0     H32982   2.294  10.669   4.646 -0.2040 -0.0602  5.5485
  250MOL0     H32983   2.232  10.554   4.437 -0.2361 -1.8128 -0.4313
  250MOL0     H32984   1.856  10.566   4.070  0.7401  0.5880  0.6134
  250MOL0     H32985   1.879  10.473   3.835  1.7271  3.1238 -0.0479
  250MOL0     H32986   2.019   9.402   2.388 -1.0477  1.4881 -1.4750
  250MOL0     H32987   1.804   9.543   2.372  0.5782  3.6501  0.9267
  250MOL0     H32988   1.293   9.508   2.434  0.9714 -0.0924  3.4528
  250MOL0     H32989   1.140   9.695   2.334  1.2015 -1.3214 -0.4111
  250MOL0     H32990   1.002   9.876   2.427  1.0769 -0.2264  1.0205
  250MOL0     H32991   1.034   9.879   2.246 -1.5059 -0.9007  1.7319
  250MOL0     H32992   1.040  10.131   2.270 -0.9378  2.1077 -0.6472
  250MOL0     H32993   0.887  10.069   2.254 -0.2233  2.7278  0.7170
  250MOL0     H32994   1.007  10.095   2.527  0.1685  0.2119 -0.2447
  250MOL0     H32995   0.841  10.095   2.504  0.3643  2.2899  2.0458
  250MOL0     H32996   0.875  10.313   2.550  0.0060  0.3077  0.3569
  250MOL0     H32997   1.037  10.321   2.466 -0.2168 -1.3785 -0.3242
  250MOL0     H32998   0.696  10.395   2.190 -1.3156 -2.2122 -1.0482
  250MOL0     H32999   1.379   9.990   2.522  0.1677  0.1578  0.6091
  250MOL0     H33000   1.540   9.815   2.599 -1.2759  1.3915  1.2234
  251MOL0     O33001   6.365   5.975   2.184  0.3376 -0.4194  0.4601
  251MOL0     C33002   6.246   5.964   2.216  0.4870  0.6254  0.5847
  251MOL0     O33003   6.137   5.965   2.126 -0.1142  0.0048 -0.3025
  251MOL0     C33004   6.151   6.027   2.005 -0.6641  0.2301 -0.0642
  251MOL0     C33005   6.060   5.986   1.908 -0.4778  1.3802  0.1483
  251MOL0     C33006   6.066   6.047   1.780 -0.7355 -0.6996  0.1917
  251MOL0     C33007   6.149   6.154   1.745 -0.1420 -0.0988  0.1681
  251MOL0     O33008   6.130   6.228   1.630 -0.0329 -0.5816 -0.2586
  251MOL0     C33009   6.252   6.251   1.557 -0.7193  0.3008 -0.6832
  251MOL0     C33010   6.305   6.128   1.497 -0.3559 -0.3491  0.3880
  251MOL0     C33011   6.229   6.103   1.368  0.7342  0.2668 -0.0960
  251MOL0     C33012   6.096   6.028   1.399 -0.5155 -0.1400  0.6453
  251MOL0     C33013   6.052   5.969   1.263  0.5444  1.0228  0.8226
  251MOL0     C33014   5.908   5.910   1.287 -0.7722 -0.0063  0.8880
  251MOL0     C33015   5.848   5.850   1.155 -0.3731 -0.5668  1.4196
  251MOL0     C33016   5.910   5.713   1.123  1.1999  0.1103  0.0006
  251MOL0     N33017   6.032   5.729   1.060  0.1737 -0.2267  0.8559
  251MOL0     C33018   6.056   5.810   0.949 -0.2134  1.2587 -0.4808
  251MOL0     C33019   6.174   5.777   0.906  0.1069  0.5563  0.3730
  251MOL0     C33020   6.228   5.811   0.774 -0.3790 -0.3724 -1.3353
  251MOL0     C33021   6.266   5.957   0.763 -0.2918  0.4027  0.6033
  251MOL0     C33022   6.400   5.991   0.835  0.3798 -1.0633 -0.8414
  251MOL0     C33023   6.371   6.061   0.979  0.5975  0.0901  0.6836
  251MOL0     O33024   6.498   6.071   1.052  0.4036 -0.1285 -0.5482
  251MOL0     C33025   6.539   5.967   1.130  0.1299 -0.3183 -0.6748
  251MOL0     C33026   6.666   5.977   1.192 -0.3811 -0.4422  0.9519
  251MOL0     C33027   6.714   5.877   1.262 -0.7349  0.8520 -0.6076
  251MOL0     C33028   6.631   5.760   1.301 -0.9789  0.1929 -0.8386
  251MOL0     C33029   6.689   5.661   1.401  0.2690 -1.0875 -0.0247
  251MOL0     O33030   6.807   5.695   1.462 -0.7202 -0.5303 -0.2877
  251MOL0     C33031   6.858   5.643   1.579 -0.5541 -0.3627 -0.4090
  251MOL0     C33032   6.789   5.582   1.686  0.2870 -0.4241 -0.6688
  251MOL0     C33033   6.859   5.529   1.801 -0.0757 -0.5536 -0.1408
  251MOL0     C33034   7.005   5.547   1.816  0.5512  0.4615 -0.4724
  251MOL0     O33035   7.070   5.480   1.916 -0.1610  0.5886 -0.0088
  251MOL0     C33036   7.208   5.467   1.903 -0.8296  0.4245 -0.1831
  251MOL0     C33037   7.282   5.394   2.014 -0.8483 -0.3039 -0.7063
  251MOL0     C33038   7.280   5.477   2.145  0.3789  0.0241 -0.9759
  251MOL0     C33039   7.352   5.392   2.256 -0.4456 -0.7891  0.3341
  251MOL0     C33040   7.305   5.255   2.288  0.0919  0.4323 -0.1632
  251MOL0     C33041   7.157   5.245   2.343  0.0865 -0.9165  0.4479
  251MOL0     C33042   7.123   5.095   2.352 -1.2802 -0.6210  0.1400
  251MOL0     C33043   6.998   5.062   2.439  0.1444 -0.2896  0.3600
  251MOL0    Cl33044   6.965   4.893   2.412  0.3897 -0.2138 -0.5462
  251MOL0     C33045   7.069   5.606   1.709  0.2475 -0.4245  0.1690
  251MOL0     C33046   6.997   5.645   1.594  0.3731 -1.1393 -0.1336
  251MOL0     O33047   6.620   5.569   1.437  0.3596 -0.3578 -0.3106
  251MOL0     C33048   6.509   5.750   1.240  0.2099 -0.3791  1.0819
  251MOL0     C33049   6.467   5.855   1.153 -0.0467 -0.1831  0.2771
  251MOL0     N33050   6.229   5.672   0.981  0.4618  0.7440 -0.7809
  251MOL0     N33051   6.139   5.651   1.071 -0.9543  0.2907 -0.1775
  251MOL0     C33052   6.234   6.199   1.847  0.1685  0.1606 -0.6895
  251MOL0     C33053   6.234   6.145   1.972  0.0914  0.7127 -0.1730
  251MOL0     C33054   6.212   5.958   2.365  0.6535 -0.5274 -0.4221
  251MOL0     C33055   6.083   5.977   2.407 -0.0598 -0.3307  0.3384
  251MOL0     C33056   6.040   5.949   2.544 -0.5328 -0.2953  0.2881
  251MOL0     C33057   6.134   5.913   2.645  0.7570  0.0832  1.0930
  251MOL0     O33058   6.110   5.892   2.773 -0.4236 -1.0851 -0.4460
  251MOL0     C33059   6.008   5.801   2.805 -0.4493  0.5554 -1.0526
  251MOL0     C33060   5.969   5.817   2.952  1.0768 -0.1732 -0.0676
  251MOL0     C33061   5.886   5.946   2.974 -0.3631  0.2509  0.2624
  251MOL0     C33062   5.858   5.981   3.127  0.9348 -0.2430  0.4213
  251MOL0     C33063   5.737   5.902   3.175  0.8159 -0.2276  0.4717
  251MOL0     C33064   5.633   5.847   3.215  0.6579 -0.0939  0.1069
  251MOL0     C33065   6.266   5.889   2.597  0.0290 -0.0774  0.0104
  251MOL0     C33066   6.301   5.915   2.461 -0.5072  1.1991  0.7863
  251MOL0     H33067   6.002   5.896   1.920  0.4622  0.3342 -2.5362
  251MOL0     H33068   6.006   6.012   1.697  2.5522 -1.6743 -1.9800
  251MOL0     H33069   6.319   6.299   1.629  1.2559 -3.5218  0.3148
  251MOL0     H33070   6.236   6.323   1.476  1.5142  2.2078  0.4497
  251MOL0     H33071   6.296   6.042   1.563  1.7162  0.1850  1.4703
  251MOL0     H33072   6.412   6.132   1.472 -0.0907 -3.1144  0.7908
  251MOL0     H33073   6.286   6.051   1.292  0.5879 -0.8494  0.5377
  251MOL0     H33074   6.213   6.203   1.326 -0.1832  0.1396 -0.0893
  251MOL0     H33075   6.114   5.952   1.476  1.2136 -0.0109  0.4016
  251MOL0     H33076   6.022   6.094   1.445 -0.5150 -1.2704  2.3625
  251MOL0     H33077   6.119   5.891   1.226 -0.7155 -0.5416  1.7050
  251MOL0     H33078   6.042   6.026   1.171  1.0356 -1.5601 -0.9542
  251MOL0     H33079   5.854   5.996   1.328 -0.9787  0.2901  0.0188
  251MOL0     H33080   5.909   5.831   1.362  2.9481  0.7700  1.8655
  251MOL0     H33081   5.739   5.848   1.156 -0.5733  1.2638 -1.9618
  251MOL0     H33082   5.864   5.916   1.070 -2.3324  0.3051  1.6744
  251MOL0     H33083   5.845   5.660   1.053 -0.2190  1.3448  0.3142
  251MOL0     H33084   5.922   5.658   1.217 -1.8086  1.5250  1.3651
  251MOL0     H33085   5.979   5.877   0.913 -0.7175  0.5062 -0.8252
  251MOL0     H33086   6.152   5.790   0.698 -1.0523 -1.7507 -0.3221
  251MOL0     H33087   6.315   5.745   0.765  1.2967  1.5892 -0.3650
  251MOL0     H33088   6.185   6.022   0.796 -0.8929  0.7009 -1.3451
  251MOL0     H33089   6.282   5.981   0.657 -5.0079  2.0599  0.0192
  251MOL0     H33090   6.461   5.901   0.843  2.2184  0.0161 -1.9458
  251MOL0     H33091   6.462   6.070   0.791  0.7756  1.1741  3.3183
  251MOL0     H33092   6.290   6.012   1.033  0.9749  0.6409  1.7763
  251MOL0     H33093   6.337   6.164   0.963 -3.5425 -1.1946 -0.0923
  251MOL0     H33094   6.725   6.065   1.165 -1.0227 -0.4730 -0.6482
  251MOL0     H33095   6.817   5.868   1.295 -0.0081 -4.2559 -3.2901
  251MOL0     H33096   6.681   5.594   1.678  0.3887  1.6465  0.5080
  251MOL0     H33097   6.806   5.480   1.882  0.7750 -0.3645  0.5461
  251MOL0     H33098   7.256   5.565   1.899  0.8293 -0.2618  1.3696
  251MOL0     H33099   7.230   5.418   1.808 -1.7261 -0.3556 -0.0085
  251MOL0     H33100   7.385   5.371   1.984 -0.6268  1.4361 -1.3782
  251MOL0     H33101   7.229   5.300   2.027 -2.5655  0.5935 -0.9431
  251MOL0     H33102   7.178   5.487   2.184 -0.0528  1.1289 -2.3124
  251MOL0     H33103   7.335   5.569   2.126  0.9580 -0.6880 -3.0045
  251MOL0     H33104   7.459   5.389   2.232 -0.8266  2.5389 -2.6219
  251MOL0     H33105   7.343   5.448   2.349  1.7247 -0.8303  0.6191
  251MOL0     H33106   7.376   5.215   2.361 -0.5028  1.6073  1.1176
  251MOL0     H33107   7.316   5.200   2.195  1.8630  3.4006 -1.8677
  251MOL0     H33108   7.088   5.294   2.273 -2.2029 -2.8171  1.2508
  251MOL0     H33109   7.155   5.291   2.442  0.2602  1.5574 -0.6296
  251MOL0     H33110   7.103   5.060   2.250 -1.4195 -0.3848  0.0848
  251MOL0     H33111   7.216   5.042   2.375 -0.0549 -1.1996 -4.9642
  251MOL0     H33112   6.928   5.140   2.407 -0.4568 -0.8044  0.3937
  251MOL0     H33113   7.008   5.068   2.548  1.3622  0.1476  0.2338
  251MOL0     H33114   7.176   5.618   1.704 -0.0398  2.1882 -1.9346
  251MOL0     H33115   7.045   5.695   1.510 -1.2631  4.3803  1.7188
  251MOL0     H33116   6.453   5.659   1.256 -1.1433 -0.4775 -2.9452
  251MOL0     H33117   6.378   5.840   1.092  1.1510 -1.4566 -1.2392
  251MOL0     H33118   6.289   6.293   1.845  0.0921  0.4135  2.7612
  251MOL0     H33119   6.294   6.187   2.053  0.3600 -1.7183  1.0012
  251MOL0     H33120   6.027   6.037   2.336 -0.5290 -2.6624 -1.4070
  251MOL0     H33121   5.949   5.996   2.578 -0.7680  1.6591 -2.6308
  251MOL0     H33122   6.062   5.707   2.800  0.1056  0.8854 -1.3851
  251MOL0     H33123   5.921   5.795   2.738 -1.7383  0.5545  0.5602
  251MOL0     H33124   5.919   5.730   2.995  2.5638  0.0907  2.3930
  251MOL0     H33125   6.058   5.832   3.015 -0.8485  0.3252  2.6974
  251MOL0     H33126   5.795   5.934   2.914  0.1651 -2.6878 -0.0812
  251MOL0     H33127   5.936   6.036   2.938  0.8866  0.9812  3.4712
  251MOL0     H33128   5.949   5.961   3.185  1.5835  0.4047 -0.3499
  251MOL0     H33129   5.838   6.085   3.156  0.5515 -0.4423  0.8793
  251MOL0     H33130   5.548   5.792   3.251 -0.0920  1.7542  1.3192
  251MOL0     H33131   6.337   5.847   2.667  0.1168  1.4685  0.8959
  251MOL0     H33132   6.397   5.887   2.418 -2.0018 -0.8700 -1.4808
  252MOL0     O33133   8.569   1.085   6.752  0.5686  0.4197 -1.2158
  252MOL0     C33134   8.626   1.145   6.840 -0.6452  1.3451 -0.2539
  252MOL0     O33135   8.730   1.234   6.818 -0.2506 -0.6240  0.4923
  252MOL0     C33136   8.772   1.268   6.689 -0.6022  0.9463 -0.9310
  252MOL0     C33137   8.837   1.393   6.678  0.2668  0.5769  1.0936
  252MOL0     C33138   8.886   1.435   6.549 -0.7107  0.4278 -0.4214
  252MOL0     C33139   8.881   1.345   6.435 -0.3006 -0.5921 -0.6981
  252MOL0     O33140   8.930   1.413   6.322  0.2518  0.0313 -0.3185
  252MOL0     C33141   8.963   1.340   6.206  0.4563  0.1564 -0.1593
  252MOL0     C33142   9.038   1.412   6.105 -0.2937 -1.4183  0.1575
  252MOL0     C33143   9.136   1.525   6.153 -0.2390 -0.6985  0.6886
  252MOL0     C33144   9.208   1.559   6.030 -0.7223  0.1581  0.3577
  252MOL0     C33145   9.319   1.665   6.042 -0.4711 -0.9595 -0.2144
  252MOL0     C33146   9.436   1.623   5.965  0.1728  0.4207  2.0278
  252MOL0     C33147   9.542   1.733   5.967  0.4509 -0.1370 -1.0609
  252MOL0     C33148   9.683   1.686   6.004  0.0423  0.5135 -0.8388
  252MOL0     N33149   9.786   1.787   6.010  0.3027 -0.3915 -0.3128
  252MOL0     C33150   9.772   1.927   6.041 -0.2920 -0.2109 -1.1663
  252MOL0     C33151   9.890   1.983   5.997 -0.3913  1.0269 -1.3462
  252MOL0     C33152   9.925   2.135   6.005 -0.4843  0.7285  0.7918
  252MOL0     C33153   9.912   2.203   6.137 -0.5358 -0.2709 -0.3316
  252MOL0     C33154   9.980   2.119   6.246  1.1532 -0.5843  0.1161
  252MOL0     C33155  10.133   2.108   6.237  1.2455 -0.5755 -0.5290
  252MOL0     O33156  10.185   2.240   6.241 -0.0961 -0.0724  0.0199
  252MOL0     C33157  10.321   2.259   6.256 -0.3585  0.1342  0.0432
  252MOL0     C33158  10.418   2.161   6.249  0.9304 -0.2546 -0.5777
  252MOL0     C33159  10.557   2.190   6.257  0.1790  0.4114 -0.5134
  252MOL0     C33160  10.605   2.318   6.279  0.3578 -0.2802 -0.7704
  252MOL0     C33161  10.750   2.330   6.283 -0.6613 -0.8202  1.2291
  252MOL0     O33162  10.801   2.438   6.354 -0.3592 -0.7380 -0.0263
  252MOL0     C33163  10.935   2.460   6.359 -0.6381 -0.1642  0.5679
  252MOL0     C33164  11.041   2.370   6.334  0.6893  0.1525 -0.1359
  252MOL0     C33165  11.172   2.420   6.335 -0.2190 -0.2985  0.2276
  252MOL0     C33166  11.204   2.551   6.364  0.1655  0.1119 -0.0747
  252MOL0     O33167  11.335   2.602   6.352  0.0503 -1.0263 -0.1623
  252MOL0     C33168  11.352   2.670   6.224  0.1212  0.0865  0.0540
  252MOL0     C33169  11.491   2.729   6.230 -0.0457  0.5190 -0.3416
  252MOL0     C33170  11.601   2.622   6.215  0.7685  0.8049  0.3689
  252MOL0     C33171  11.612   2.559   6.076 -0.0716 -1.0795 -0.0655
  252MOL0     C33172  11.665   2.424   6.069  0.5830 -0.0028  0.2031
  252MOL0     C33173  11.809   2.406   6.119 -0.2449 -0.6215  0.5752
  252MOL0     C33174  11.874   2.277   6.078 -0.1365  0.1909 -0.0175
  252MOL0     C33175  11.849   2.172   6.186  0.5440 -0.3263  0.2758
  252MOL0    Cl33176  11.814   2.012   6.114  0.2544  0.0670  0.2996
  252MOL0     C33177  11.104   2.645   6.389  0.3200 -0.3497 -0.1860
  252MOL0     C33178  10.968   2.595   6.386  0.3137 -0.0593  2.3762
  252MOL0     O33179  10.819   2.240   6.228  0.5757  0.1280 -0.6963
  252MOL0     C33180  10.511   2.416   6.289 -0.0118 -0.6626 -0.2453
  252MOL0     C33181  10.364   2.388   6.281 -0.7356 -0.1693 -0.2359
  252MOL0     N33182   9.976   1.868   5.956  0.1986 -0.0799 -0.2193
  252MOL0     N33183   9.910   1.764   5.969 -0.2799 -0.0026  0.7463
  252MOL0     C33184   8.818   1.222   6.453 -0.0279  0.4603 -0.1624
  252MOL0     C33185   8.772   1.183   6.578 -0.6374  0.6415 -0.6783
  252MOL0     C33186   8.573   1.132   6.978 -0.7126 -0.3099 -0.3007
  252MOL0     C33187   8.606   1.231   7.070  0.4357  0.9971 -0.5136
  252MOL0     C33188   8.565   1.223   7.202 -0.4559 -0.1343  0.6091
  252MOL0     C33189   8.469   1.136   7.239 -0.6379  0.2137 -0.5474
  252MOL0     O33190   8.446   1.120   7.375 -0.5965  0.6972 -0.0331
  252MOL0     C33191   8.422   1.230   7.456 -0.1848  0.1787 -0.6853
  252MOL0     C33192   8.288   1.227   7.527  0.9514  0.3027 -0.5422
  252MOL0     C33193   8.294   1.118   7.631 -0.0394  0.5303 -0.3368
  252MOL0     C33194   8.163   1.111   7.727  0.2304 -0.7847  0.0626
  252MOL0     C33195   8.171   1.024   7.841 -0.3105  0.0693  0.6790
  252MOL0     C33196   8.177   0.932   7.922  1.5363 -0.7529  0.7314
  252MOL0     C33197   8.424   1.047   7.144  0.2263 -0.4538 -0.3189
  252MOL0     C33198   8.468   1.037   7.008 -0.4859  0.3112 -0.5627
  252MOL0     H33199   8.838   1.457   6.765  2.3164  3.5277 -0.8846
  252MOL0     H33200   8.924   1.536   6.536  0.7694 -0.1849 -1.1387
  252MOL0     H33201   8.878   1.300   6.150  3.2001 -2.4050 -2.9568
  252MOL0     H33202   9.024   1.253   6.235 -2.2436 -0.9851  2.5750
  252MOL0     H33203   8.970   1.479   6.051 -0.2921  0.9196  2.7652
  252MOL0     H33204   9.085   1.340   6.038 -0.7920 -3.7969  2.2001
  252MOL0     H33205   9.206   1.488   6.229  1.1024 -0.5714 -0.4249
  252MOL0     H33206   9.087   1.616   6.187 -2.0551  0.4840 -4.1768
  252MOL0     H33207   9.248   1.464   5.994 -1.5726 -0.3393  0.6860
  252MOL0     H33208   9.130   1.593   5.960 -2.4862 -1.2859  1.5193
  252MOL0     H33209   9.347   1.673   6.148  0.0099 -1.9949 -0.2485
  252MOL0     H33210   9.277   1.761   6.010  0.1003 -0.8614 -0.6844
  252MOL0     H33211   9.407   1.621   5.860  2.1343  0.2417  1.4489
  252MOL0     H33212   9.468   1.524   5.999 -3.7565 -2.3830 -1.4173
  252MOL0     H33213   9.545   1.777   5.867  0.0471 -1.7068 -1.8065
  252MOL0     H33214   9.526   1.810   6.043  2.7327 -1.4341  0.9017
  252MOL0     H33215   9.723   1.594   5.959  0.3852 -0.2551  0.9535
  252MOL0     H33216   9.670   1.675   6.112  1.8498 -1.6226 -0.7777
  252MOL0     H33217   9.687   1.973   6.090 -0.5078 -0.6356 -1.1414
  252MOL0     H33218   9.864   2.172   5.922  1.5909 -0.3355 -1.3034
  252MOL0     H33219  10.029   2.145   5.971 -0.1025  0.8688  1.9649
  252MOL0     H33220   9.805   2.217   6.158 -1.0812  0.4764 -3.2478
  252MOL0     H33221   9.955   2.304   6.132  2.2515 -1.0903  2.9896
  252MOL0     H33222   9.968   2.160   6.346 -1.0571 -1.0195  0.0843
  252MOL0     H33223   9.928   2.023   6.239  1.6418 -0.7363 -2.6728
  252MOL0     H33224  10.164   2.064   6.142  2.4407 -3.0845  0.9276
  252MOL0     H33225  10.170   2.038   6.312  1.5066  0.4651  0.3502
  252MOL0     H33226  10.391   2.058   6.227  0.1978  0.5603 -4.0894
  252MOL0     H33227  10.615   2.098   6.249 -2.2160 -1.5387  2.1972
  252MOL0     H33228  11.020   2.267   6.308  0.2758  0.2826 -0.3189
  252MOL0     H33229  11.261   2.361   6.317  1.2689  1.9605 -0.2310
  252MOL0     H33230  11.281   2.752   6.208 -2.9819 -2.7375 -2.0333
  252MOL0     H33231  11.323   2.595   6.150 -1.4788 -1.6250  2.2522
  252MOL0     H33232  11.496   2.762   6.335  2.1573 -1.3274  0.2302
  252MOL0     H33233  11.508   2.806   6.154  2.2173 -0.2455 -0.7040
  252MOL0     H33234  11.572   2.538   6.279 -0.6787 -1.4852 -3.0029
  252MOL0     H33235  11.701   2.662   6.237  0.7050 -0.0858  2.4946
  252MOL0     H33236  11.514   2.560   6.027 -0.1310 -3.1000 -0.0519
  252MOL0     H33237  11.678   2.607   6.004  0.7711  0.6144  1.7281
  252MOL0     H33238  11.671   2.392   5.965 -3.6224 -0.9649  0.0911
  252MOL0     H33239  11.600   2.352   6.119  1.2880  0.5931  2.0605
  252MOL0     H33240  11.805   2.417   6.228 -1.3725 -1.4779  0.6351
  252MOL0     H33241  11.869   2.490   6.085 -0.4786 -0.7267 -0.1020
  252MOL0     H33242  11.844   2.232   5.983  0.6012 -1.3523  0.4598
  252MOL0     H33243  11.983   2.283   6.077  0.0813 -2.5819  0.9512
  252MOL0     H33244  11.755   2.196   6.235 -0.9714 -2.9745 -1.1337
  252MOL0     H33245  11.933   2.169   6.256  2.4008  0.0083 -1.8247
  252MOL0     H33246  11.118   2.748   6.422 -1.9340 -0.1787  0.4174
  252MOL0     H33247  10.883   2.660   6.406 -1.8585 -2.2011  0.6638
  252MOL0     H33248  10.543   2.518   6.308 -1.9049 -0.0995  0.1427
  252MOL0     H33249  10.298   2.472   6.299 -0.8234 -0.4485  0.8093
  252MOL0     H33250   8.821   1.156   6.367 -3.0849 -1.0496  0.7530
  252MOL0     H33251   8.742   1.082   6.606  0.3067  1.0155  1.9088
  252MOL0     H33252   8.687   1.300   7.052  0.5129  0.7557 -1.1283
  252MOL0     H33253   8.621   1.286   7.270 -0.4940 -1.8019  2.2462
  252MOL0     H33254   8.428   1.317   7.391 -2.2757  0.0447 -1.1346
  252MOL0     H33255   8.504   1.227   7.528  1.2093 -1.4822 -2.2514
  252MOL0     H33256   8.268   1.324   7.573 -1.4605 -0.3605 -0.0549
  252MOL0     H33257   8.209   1.204   7.455  0.8068  1.0989 -0.6385
  252MOL0     H33258   8.377   1.149   7.695 -1.7023  0.8850  1.7840
  252MOL0     H33259   8.308   1.016   7.592  3.1576  0.2578  1.1831
  252MOL0     H33260   8.142   1.216   7.748  1.7245  0.3203 -3.2623
  252MOL0     H33261   8.079   1.061   7.677  0.8476 -1.5961 -0.1792
  252MOL0     H33262   8.191   0.859   7.999  0.3809  0.6296  2.3372
  252MOL0     H33263   8.351   0.976   7.182  0.2556  0.0314  0.6703
  252MOL0     H33264   8.419   0.969   6.939 -0.6951  0.1671 -0.2745
  253MOL0     O33265   3.759  10.480   4.091  0.2186 -0.9541  0.1978
  253MOL0     C33266   3.683  10.571   4.052 -0.4535 -0.1988  0.4762
  253MOL0     O33267   3.713  10.702   4.032  0.3561 -0.8549 -0.7214
  253MOL0     C33268   3.845  10.731   4.029  0.1955  0.6532  0.2468
  253MOL0     C33269   3.887  10.785   3.909  0.2343 -0.0075  0.2188
  253MOL0     C33270   4.026  10.816   3.900  0.2198 -0.0228 -0.7655
  253MOL0     C33271   4.112  10.791   4.008 -0.9136 -0.1249  0.1416
  253MOL0     O33272   4.241  10.829   3.991  0.3349  0.0161 -0.4348
  253MOL0     C33273   4.336  10.806   4.091  1.3191 -0.2520  0.0429
  253MOL0     C33274   4.473  10.817   4.032  0.3883  1.1435 -0.3265
  253MOL0     C33275   4.541  10.952   4.022 -0.4253  0.0843  0.7127
  253MOL0     C33276   4.645  10.965   4.132  0.5200  0.5714  0.3759
  253MOL0     C33277   4.692  11.108   4.154  0.1620 -1.2279  0.4365
  253MOL0     C33278   4.713  11.212   4.041 -0.1563  0.1029  0.1065
  253MOL0     C33279   4.835  11.181   3.962  0.6017  0.6804 -0.4066
  253MOL0     C33280   4.839  11.263   3.839 -0.1950  0.2738  0.6559
  253MOL0     N33281   4.863  11.405   3.854  0.0753 -0.3848  0.7153
  253MOL0     C33282   4.787  11.504   3.907  0.2248  0.0661  0.4101
  253MOL0     C33283   4.869  11.605   3.938 -0.8759  0.7962  0.0605
  253MOL0     C33284   4.825  11.740   3.998 -0.8996 -0.9053  0.5764
  253MOL0     C33285   4.765  11.696   4.133 -0.3275  0.3787  1.2526
  253MOL0     C33286   4.746  11.812   4.228  0.3616 -1.0331 -0.3397
  253MOL0     C33287   4.659  11.790   4.362  0.5189  1.3532  0.8670
  253MOL0     O33288   4.529  11.747   4.315 -1.0608  0.3163  0.9998
  253MOL0     C33289   4.441  11.849   4.304 -0.5163 -0.1484 -0.3720
  253MOL0     C33290   4.350  11.875   4.403 -0.1878 -0.7849 -0.0272
  253MOL0     C33291   4.241  11.959   4.387  0.3702  0.7813  0.3348
  253MOL0     C33292   4.221  12.028   4.268 -0.2134  0.2568 -0.2634
  253MOL0     C33293   4.105  12.112   4.243  0.1622 -0.3264 -1.0706
  253MOL0     O33294   4.079  12.141   4.117 -0.6934  0.3085 -0.9052
  253MOL0     C33295   3.992  12.245   4.068  0.6971  0.5208 -0.6810
  253MOL0     C33296   3.962  12.238   3.933  0.6254  0.2411 -0.0147
  253MOL0     C33297   3.874  12.334   3.873  0.2156 -0.5752  0.0044
  253MOL0     C33298   3.824  12.438   3.954  0.4980  0.2579 -0.5019
  253MOL0     O33299   3.734  12.536   3.899  0.0180  0.7219 -0.4087
  253MOL0     C33300   3.771  12.679   3.923 -0.2812  0.2766 -1.1758
  253MOL0     C33301   3.894  12.706   3.823  0.3967 -0.1786 -0.2714
  253MOL0     C33302   3.964  12.837   3.858 -0.5095  0.5381 -0.8600
  253MOL0     C33303   4.087  12.861   3.762  0.0887  0.2297 -0.2302
  253MOL0     C33304   4.164  12.994   3.760  0.0571  0.6067  0.2477
  253MOL0     C33305   4.088  13.108   3.718  0.0783 -0.5011  0.1751
  253MOL0     C33306   4.176  13.237   3.693  0.0592  0.6996 -0.6273
  253MOL0     C33307   4.209  13.321   3.822 -0.3803  0.2689 -0.4034
  253MOL0    Cl33308   4.307  13.471   3.780 -0.6379 -0.3271  0.2649
  253MOL0     C33309   3.863  12.451   4.091  0.0921  0.1781  0.2656
  253MOL0     C33310   3.940  12.358   4.145  0.2110 -0.4853  0.1645
  253MOL0     O33311   4.039  12.150   4.343  0.2282  0.1777 -0.7262
  253MOL0     C33312   4.317  12.002   4.164  1.0887  0.2358 -0.1972
  253MOL0     C33313   4.430  11.924   4.184  0.1293 -0.1056  0.7684
  253MOL0     N33314   4.994  11.576   3.885 -0.5551 -0.3034 -0.1378
  253MOL0     N33315   4.988  11.453   3.838 -0.6344  0.2366 -0.6191
  253MOL0     C33316   4.070  10.731   4.124  0.6467 -0.0917  0.7384
  253MOL0     C33317   3.928  10.699   4.133  0.4163 -0.6730 -1.3179
  253MOL0     C33318   3.542  10.535   4.051 -0.5277 -0.3055  0.4150
  253MOL0     C33319   3.509  10.400   4.039  0.0088  0.1175  0.0749
  253MOL0     C33320   3.375  10.356   4.035 -0.3882 -0.3543  0.5821
  253MOL0     C33321   3.274  10.451   4.017 -0.2534  0.4038  0.9371
  253MOL0     O33322   3.139  10.407   4.004 -0.9893 -0.2718  0.4227
  253MOL0     C33323   3.037  10.457   4.084  0.1668  0.6431  0.1794
  253MOL0     C33324   2.939  10.347   4.143  0.3001  0.0778  0.1761
  253MOL0     C33325   2.992  10.302   4.277  0.7739  0.4151 -0.2087
  253MOL0     C33326   2.972  10.405   4.381  0.6219 -0.5574 -1.3845
  253MOL0     C33327   3.004  10.359   4.516 -0.1010 -0.5620 -0.3376
  253MOL0     C33328   3.030  10.320   4.632  1.1322  0.1640 -0.6998
  253MOL0     C33329   3.311  10.582   4.014  0.4390 -0.0840  0.6046
  253MOL0     C33330   3.440  10.626   4.039  1.0303 -0.4399 -0.2059
  253MOL0     H33331   3.814  10.810   3.832 -0.2047  4.8991  1.9055
  253MOL0     H33332   4.065  10.851   3.805 -0.8852  0.6977 -0.9727
  253MOL0     H33333   4.338  10.700   4.118  2.1113 -1.0899 -2.9160
  253MOL0     H33334   4.328  10.870   4.180  0.2839  0.5479 -0.5963
  253MOL0     H33335   4.477  10.763   3.937 -2.8480 -0.5559  0.3369
  253MOL0     H33336   4.541  10.752   4.088 -1.3147 -0.4823 -0.0401
  253MOL0     H33337   4.478  11.041   4.021  0.1189  0.4694 -0.5490
  253MOL0     H33338   4.604  10.959   3.933  2.9268  1.0625  2.9261
  253MOL0     H33339   4.603  10.933   4.228 -1.4601  0.3897 -0.5004
  253MOL0     H33340   4.734  10.905   4.111  1.7544  2.3414  0.4284
  253MOL0     H33341   4.784  11.098   4.213  0.3611  0.7422  0.5239
  253MOL0     H33342   4.624  11.156   4.224 -0.5931 -1.4019 -0.1717
  253MOL0     H33343   4.724  11.315   4.078 -1.8552  0.1728  0.4980
  253MOL0     H33344   4.628  11.202   3.974 -2.1382 -1.6395  2.7137
  253MOL0     H33345   4.928  11.204   4.015  1.0645 -0.3396 -0.7440
  253MOL0     H33346   4.845  11.072   3.950  0.7850  0.9205 -3.1726
  253MOL0     H33347   4.742  11.253   3.789  0.1508 -0.1214  0.0444
  253MOL0     H33348   4.920  11.228   3.774 -1.5039  1.9243 -2.0627
  253MOL0     H33349   4.680  11.501   3.925  0.4013  2.9616  3.0218
  253MOL0     H33350   4.749  11.791   3.938  1.1941  0.2433 -1.2462
  253MOL0     H33351   4.918  11.793   4.017 -0.9754 -0.5630  0.0320
  253MOL0     H33352   4.840  11.628   4.174  1.7975 -0.9843 -4.0863
  253MOL0     H33353   4.679  11.627   4.137 -0.9670  1.0380 -0.3399
  253MOL0     H33354   4.843  11.852   4.260  0.8407 -1.5995 -1.0461
  253MOL0     H33355   4.694  11.886   4.166 -4.1638 -3.4240  0.1518
  253MOL0     H33356   4.650  11.869   4.438  0.7090  0.1728  2.1641
  253MOL0     H33357   4.706  11.704   4.411  0.4493  0.4309 -0.6437
  253MOL0     H33358   4.358  11.819   4.495 -0.8801  0.6817  0.9644
  253MOL0     H33359   4.166  11.980   4.462 -1.3958  1.3103 -1.4849
  253MOL0     H33360   3.995  12.155   3.873 -1.3400  2.0029 -3.8704
  253MOL0     H33361   3.841  12.329   3.770 -2.3720 -0.9804  0.7847
  253MOL0     H33362   3.815  12.711   4.019 -0.9652  1.1343 -1.1352
  253MOL0     H33363   3.685  12.743   3.900  1.1907  1.5150 -3.7538
  253MOL0     H33364   3.870  12.706   3.716 -1.7118 -5.3041 -0.1148
  253MOL0     H33365   3.962  12.621   3.837 -0.1178 -0.6965 -0.8161
  253MOL0     H33366   3.999  12.831   3.962  2.4109 -3.3770 -1.8504
  253MOL0     H33367   3.888  12.915   3.849 -0.2331  1.6532  3.7243
  253MOL0     H33368   4.160  12.790   3.803 -1.2143 -0.1478  1.5843
  253MOL0     H33369   4.067  12.833   3.658 -0.7003  2.6262 -0.7910
  253MOL0     H33370   4.252  12.990   3.694  2.3232  4.2657  2.7091
  253MOL0     H33371   4.215  13.013   3.854  0.2444 -0.3262  0.3446
  253MOL0     H33372   4.013  13.125   3.795  3.5185 -3.0024  4.5879
  253MOL0     H33373   4.037  13.076   3.627 -1.4901 -0.3052  0.9551
  253MOL0     H33374   4.274  13.215   3.649  0.8515 -0.0819  1.4285
  253MOL0     H33375   4.119  13.300   3.624  0.5127  2.5981  0.6663
  253MOL0     H33376   4.278  13.267   3.888  0.0558  1.0141 -0.2468
  253MOL0     H33377   4.117  13.349   3.875 -1.0616 -1.2339 -0.7429
  253MOL0     H33378   3.831  12.541   4.143  0.7714 -0.2743  1.5092
  253MOL0     H33379   3.958  12.375   4.251 -4.3870 -0.9815  1.2513
  253MOL0     H33380   4.308  12.073   4.083  0.8912 -0.8831 -1.1715
  253MOL0     H33381   4.499  11.923   4.100 -2.1193  1.1549 -1.1941
  253MOL0     H33382   4.121  10.704   4.216 -1.6023 -4.0589  1.0716
  253MOL0     H33383   3.901  10.646   4.224  0.3886  1.0974 -0.2474
  253MOL0     H33384   3.582  10.321   4.022 -1.6567 -1.7453  1.1232
  253MOL0     H33385   3.334  10.257   4.020 -4.6391  1.4494 -1.3953
  253MOL0     H33386   2.977  10.520   4.017 -0.8055 -2.8627 -2.5796
  253MOL0     H33387   3.083  10.512   4.166  3.9003 -0.3051 -1.0535
  253MOL0     H33388   2.837  10.387   4.149  0.7444  1.6563 -1.9256
  253MOL0     H33389   2.937  10.265   4.071 -0.1326 -0.3831  0.6982
  253MOL0     H33390   3.094  10.268   4.255  0.7395  2.3721 -4.6448
  253MOL0     H33391   2.934  10.211   4.291 -0.7722  0.3772 -5.0208
  253MOL0     H33392   3.036  10.494   4.379 -2.2707  1.7437  0.0192
  253MOL0     H33393   2.868  10.439   4.390  0.7464 -0.3207 -0.7512
  253MOL0     H33394   3.057  10.271   4.724  2.5164  2.1914  0.0388
  253MOL0     H33395   3.235  10.659   4.004 -0.6194 -1.2465 -0.6804
  253MOL0     H33396   3.466  10.732   4.043  3.5741 -0.9551 -1.0339
  254MOL0     O33397   9.516   6.973   9.567 -1.0086 -0.6922  0.0363
  254MOL0     C33398   9.607   6.938   9.488  0.7683 -0.2192 -0.7817
  254MOL0     O33399   9.703   6.853   9.514 -0.8242 -0.1774 -0.4441
  254MOL0     C33400   9.716   6.790   9.630 -0.5766  0.0233 -0.8203
  254MOL0     C33401   9.693   6.656   9.647 -1.0843 -1.8729 -0.1670
  254MOL0     C33402   9.731   6.602   9.766 -0.3268 -0.4787  0.0111
  254MOL0     C33403   9.797   6.689   9.869 -0.8699  0.6596  0.2142
  254MOL0     O33404   9.848   6.638   9.986  1.0579 -0.3236 -0.5781
  254MOL0     C33405   9.869   6.494   9.991 -0.1896  0.7877  0.1490
  254MOL0     C33406   9.895   6.472  10.139  0.4619  0.1558  0.7857
  254MOL0     C33407   9.918   6.321  10.172  0.6627 -0.2460  0.3328
  254MOL0     C33408   9.926   6.291  10.318 -0.6215  0.4959 -0.5513
  254MOL0     C33409  10.080   6.317  10.381 -0.3990 -0.0650 -0.3922
  254MOL0     C33410  10.116   6.241  10.510  0.8373 -0.4632  1.0940
  254MOL0     C33411  10.244   6.286  10.555 -0.5052 -0.2573 -1.0857
  254MOL0     C33412  10.308   6.203  10.668  0.6417  0.7513  0.1142
  254MOL0     N33413  10.381   6.088  10.622  0.7528 -0.2453  0.6234
  254MOL0     C33414  10.498   6.047  10.669 -0.0838 -0.1775  1.0178
  254MOL0     C33415  10.520   5.930  10.602  0.5108 -0.3266  0.1929
  254MOL0     C33416  10.636   5.836  10.610 -0.0417 -1.2161 -0.2070
  254MOL0     C33417  10.727   5.866  10.498  0.2973  0.1018 -0.5436
  254MOL0     C33418  10.811   5.997  10.506  0.3946  0.7035 -0.2818
  254MOL0     C33419  10.739   6.110  10.431  0.5053 -0.1770  0.0031
  254MOL0     O33420  10.783   6.113  10.301  1.1059 -0.1546 -0.0678
  254MOL0     C33421  10.726   6.218  10.234  0.0189  0.4609 -0.1682
  254MOL0     C33422  10.785   6.341  10.243  0.5786 -0.6062  0.1352
  254MOL0     C33423  10.713   6.449  10.189 -0.4609  0.7203  0.0805
  254MOL0     C33424  10.586   6.440  10.130  0.0552  0.2195 -0.2781
  254MOL0     C33425  10.510   6.563  10.098 -0.9646 -0.6197 -0.5315
  254MOL0     O33426  10.381   6.554  10.070 -0.5734  0.3295 -0.6705
  254MOL0     C33427  10.321   6.668  10.028  0.1422 -0.2131 -0.0854
  254MOL0     C33428  10.240   6.662   9.913 -0.4832  0.6682 -0.0141
  254MOL0     C33429  10.173   6.779   9.866  0.1393  0.4881 -0.5867
  254MOL0     C33430  10.181   6.894   9.941 -0.1410  0.3790  0.3200
  254MOL0     O33431  10.122   6.998   9.884 -0.4401  0.0663 -0.9257
  254MOL0     C33432  10.165   7.136   9.916  0.6559  0.1142  0.4029
  254MOL0     C33433  10.057   7.213   9.840 -0.6739  0.6193  0.6113
  254MOL0     C33434  10.044   7.186   9.686  0.2926  0.5351  0.5477
  254MOL0     C33435  10.174   7.233   9.624  0.6754  0.0362 -0.2211
  254MOL0     C33436  10.174   7.242   9.476  0.0465 -0.2997 -0.5400
  254MOL0     C33437  10.088   7.358   9.421 -0.8060  0.8101 -0.2005
  254MOL0     C33438  10.079   7.331   9.275 -0.3529 -0.2100  0.1871
  254MOL0     C33439   9.974   7.225   9.247 -0.0985  0.0497 -0.9098
  254MOL0    Cl33440   9.992   7.131   9.091  0.4556 -0.1928 -0.1182
  254MOL0     C33441  10.251   6.894  10.055  0.2158  0.3686 -0.7274
  254MOL0     C33442  10.314   6.786  10.106 -0.7907 -0.2119  0.8764
  254MOL0     O33443  10.580   6.666  10.077  0.4082 -0.1712  0.0175
  254MOL0     C33444  10.519   6.320  10.130 -0.8637 -0.2162 -0.5801
  254MOL0     C33445  10.594   6.212  10.179  0.4723 -0.2367 -0.4962
  254MOL0     N33446  10.414   5.895  10.523 -0.6422 -0.0029 -0.0055
  254MOL0     N33447  10.320   5.983  10.555 -0.7461 -0.8748  0.4138
  254MOL0     C33448   9.814   6.825   9.849  0.1500  0.4043  0.5645
  254MOL0     C33449   9.773   6.876   9.724 -0.4199  0.5305  0.6816
  254MOL0     C33450   9.602   7.004   9.356 -0.1315  0.9490 -0.4500
  254MOL0     C33451   9.695   6.974   9.248  0.9460  1.1523 -0.4718
  254MOL0     C33452   9.669   7.013   9.116  0.4181  0.5061  0.2528
  254MOL0     C33453   9.574   7.111   9.089  0.3989 -0.2998  0.6630
  254MOL0     O33454   9.564   7.161   8.961 -0.2925  0.4789 -0.5248
  254MOL0     C33455   9.501   7.288   8.934 -1.0664 -0.0952 -0.3541
  254MOL0     C33456   9.527   7.327   8.781 -0.6918 -0.1506 -0.6001
  254MOL0     C33457   9.439   7.441   8.737  1.1826  0.1722  0.4809
  254MOL0     C33458   9.515   7.490   8.609  0.0296 -0.0566 -0.1345
  254MOL0     C33459   9.437   7.602   8.552 -0.1299 -0.1754  0.4921
  254MOL0     C33460   9.378   7.701   8.513  0.3326  0.0140 -0.2966
  254MOL0     C33461   9.494   7.153   9.201  0.5430 -0.1600  0.5455
  254MOL0     C33462   9.494   7.084   9.320  0.1430 -0.4745  1.0314
  254MOL0     H33463   9.658   6.603   9.559  2.6445  1.4192 -4.0983
  254MOL0     H33464   9.707   6.496   9.776  1.9319 -1.0188  0.1069
  254MOL0     H33465   9.959   6.467   9.936  1.8869 -0.9903  3.9984
  254MOL0     H33466   9.784   6.439   9.950  0.9386 -1.7279  1.0086
  254MOL0     H33467   9.816   6.527  10.190  1.1579  1.6401  0.3383
  254MOL0     H33468   9.983   6.527  10.175 -1.2242  1.9005  2.5016
  254MOL0     H33469   9.998   6.268  10.119  1.2637  0.0694  0.9139
  254MOL0     H33470   9.825   6.274  10.139 -0.8513 -0.7678  4.7655
  254MOL0     H33471   9.870   6.358  10.384  1.9725  1.0363  1.2296
  254MOL0     H33472   9.889   6.189  10.334 -1.9377  1.3177  2.3821
  254MOL0     H33473  10.093   6.424  10.403 -1.1197 -0.4165  2.0608
  254MOL0     H33474  10.154   6.293  10.305  0.5827  2.3827 -0.3249
  254MOL0     H33475  10.113   6.133  10.494  1.1777 -0.6102  1.9416
  254MOL0     H33476  10.044   6.265  10.589 -0.9064 -2.9831  0.3779
  254MOL0     H33477  10.311   6.295  10.469  0.4114  1.1348 -0.2671
  254MOL0     H33478  10.235   6.387  10.597 -1.0791  0.2939 -2.4779
  254MOL0     H33479  10.230   6.160  10.733  3.0646 -1.8698  1.5156
  254MOL0     H33480  10.378   6.266  10.723  2.5653 -0.8869 -0.3656
  254MOL0     H33481  10.560   6.102  10.739  0.8902 -1.1859  0.9816
  254MOL0     H33482  10.604   5.731  10.603  0.6643 -1.3825 -1.3051
  254MOL0     H33483  10.691   5.851  10.703  0.5187 -3.1342 -0.1856
  254MOL0     H33484  10.676   5.856  10.402  2.3061 -1.8944 -1.5033
  254MOL0     H33485  10.803   5.788  10.513  3.6883  3.4535  1.8600
  254MOL0     H33486  10.831   6.027  10.610 -1.7816  0.5282  0.2250
  254MOL0     H33487  10.899   5.973  10.446  0.0039 -1.5488 -0.0209
  254MOL0     H33488  10.761   6.207  10.476 -3.0675  1.3581 -1.2188
  254MOL0     H33489  10.631   6.099  10.437  0.3222  0.4629 -1.6203
  254MOL0     H33490  10.876   6.353  10.301 -1.2130 -0.5708  3.2238
  254MOL0     H33491  10.763   6.546  10.190  1.3907 -0.1442 -1.5412
  254MOL0     H33492  10.240   6.572   9.851 -0.6208  0.2161  0.6393
  254MOL0     H33493  10.117   6.792   9.774 -0.6042 -2.4824 -0.6685
  254MOL0     H33494  10.268   7.148   9.881  0.5160 -0.3825 -0.1734
  254MOL0     H33495  10.154   7.160  10.023 -0.1352  1.9324 -0.0424
  254MOL0     H33496  10.070   7.321   9.842  1.1053  0.4670 -0.8015
  254MOL0     H33497   9.966   7.187   9.896  1.4163 -2.5633  2.8965
  254MOL0     H33498   9.970   7.256   9.646  1.1798  0.2995 -1.5970
  254MOL0     H33499  10.024   7.081   9.664  2.2725  0.5595 -1.8061
  254MOL0     H33500  10.202   7.336   9.648  0.6174  0.6657 -2.6778
  254MOL0     H33501  10.255   7.166   9.657 -1.3662 -1.6777  1.6144
  254MOL0     H33502  10.148   7.141   9.445 -1.1263 -1.0279  2.4629
  254MOL0     H33503  10.276   7.261   9.443  0.2736 -1.7189 -0.6957
  254MOL0     H33504  10.149   7.444   9.453 -3.2400  1.9885  1.6370
  254MOL0     H33505   9.992   7.365   9.473 -0.5163 -0.4329  0.5514
  254MOL0     H33506  10.059   7.418   9.211 -0.5113 -0.2980  0.1147
  254MOL0     H33507  10.173   7.290   9.237 -0.8240 -0.5754 -0.6263
  254MOL0     H33508   9.875   7.271   9.251  0.6755  1.7493  2.7934
  254MOL0     H33509   9.972   7.159   9.334  3.6963  0.5164 -0.2751
  254MOL0     H33510  10.257   6.985  10.116  1.9064 -0.4732  0.4403
  254MOL0     H33511  10.371   6.792  10.199  0.0991 -0.8204  0.3846
  254MOL0     H33512  10.418   6.304  10.093 -1.1570  1.3404 -0.5279
  254MOL0     H33513  10.548   6.114  10.186 -0.3099  0.1903  0.6140
  254MOL0     H33514   9.872   6.883   9.920 -1.0454 -1.1653  2.9463
  254MOL0     H33515   9.775   6.983   9.711  1.6906  0.3415 -1.1110
  254MOL0     H33516   9.780   6.910   9.265 -0.1626  0.0831  1.3929
  254MOL0     H33517   9.744   6.989   9.041  1.5542 -2.4739  2.1480
  254MOL0     H33518   9.548   7.368   8.993  1.9048 -1.4241 -0.7250
  254MOL0     H33519   9.395   7.286   8.961 -1.4054  0.5962 -1.5673
  254MOL0     H33520   9.630   7.362   8.777 -0.7714 -0.0419 -3.6380
  254MOL0     H33521   9.530   7.229   8.732  1.9127 -1.9467  2.7364
  254MOL0     H33522   9.416   7.507   8.821 -2.8276  1.5827 -1.5179
  254MOL0     H33523   9.342   7.402   8.706  1.8058 -0.7540 -0.3567
  254MOL0     H33524   9.616   7.526   8.631 -0.3046  0.4768  0.5587
  254MOL0     H33525   9.539   7.414   8.535 -4.5234  1.5893 -3.7253
  254MOL0     H33526   9.326   7.792   8.488 -0.1935  0.4047  2.0082
  254MOL0     H33527   9.417   7.229   9.187 -0.0282 -0.9219 -0.6778
  254MOL0     H33528   9.420   7.113   9.394  1.6337  2.1380  1.5924
  255MOL0     O33529   8.684   5.574   6.615 -0.0528  0.0922 -0.3037
  255MOL0     C33530   8.692   5.451   6.606  0.1371  0.3581 -0.2859
  255MOL0     O33531   8.591   5.364   6.643  0.6041 -0.2620 -0.4988
  255MOL0     C33532   8.458   5.414   6.655  0.1062 -0.4938 -0.6866
  255MOL0     C33533   8.402   5.507   6.570  0.9871  0.2771 -0.3912
  255MOL0     C33534   8.259   5.535   6.578  0.6403 -0.0225  0.0540
  255MOL0     C33535   8.181   5.463   6.673  0.8899 -0.1277 -0.5089
  255MOL0     O33536   8.048   5.496   6.710 -0.3028 -0.1141  0.3720
  255MOL0     C33537   7.973   5.583   6.628  0.0022  0.1241  0.2959
  255MOL0     C33538   7.828   5.540   6.632 -0.6287  1.2810 -1.3848
  255MOL0     C33539   7.795   5.408   6.551 -0.1798  0.0006 -0.5215
  255MOL0     C33540   7.648   5.385   6.520 -1.5789  0.6092  0.4427
  255MOL0     C33541   7.585   5.328   6.648 -0.2396  0.5901 -0.1064
  255MOL0     C33542   7.433   5.289   6.616 -0.7067  0.6934  1.1944
  255MOL0     C33543   7.347   5.209   6.718 -0.3428 -1.6369  0.0885
  255MOL0     C33544   7.285   5.297   6.831 -0.3397 -0.1798  0.2686
  255MOL0     N33545   7.236   5.234   6.950  0.2600 -0.2576  0.3661
  255MOL0     C33546   7.208   5.100   6.958 -0.0442  0.1217 -0.9160
  255MOL0     C33547   7.163   5.085   7.088 -0.8271 -0.5547  0.7794
  255MOL0     C33548   7.083   4.964   7.131  0.2753 -0.6978 -0.0099
  255MOL0     C33549   6.945   5.014   7.175  0.1562 -1.1203 -0.1046
  255MOL0     C33550   6.870   4.890   7.228 -1.1141  0.5178  0.2784
  255MOL0     C33551   6.734   4.923   7.293  0.8112  0.1221 -0.3165
  255MOL0     O33552   6.638   4.975   7.194  0.2682  0.4114 -1.2248
  255MOL0     C33553   6.503   4.982   7.216  0.1931 -0.2639 -0.3576
  255MOL0     C33554   6.451   5.003   7.348  0.0873  0.3071  0.3658
  255MOL0     C33555   6.318   5.035   7.361 -0.4548  0.3809 -0.6976
  255MOL0     C33556   6.220   5.026   7.258  0.4756  0.1386  0.4295
  255MOL0     C33557   6.076   5.030   7.281 -0.0894  0.2711 -0.2988
  255MOL0     O33558   6.041   4.989   7.408 -0.0700  0.1399  0.4458
  255MOL0     C33559   5.914   5.004   7.440  0.7909  0.7632  0.7062
  255MOL0     C33560   5.831   4.903   7.396  0.6787  0.7705 -0.0495
  255MOL0     C33561   5.690   4.913   7.406 -0.0704  0.4081  1.0357
  255MOL0     C33562   5.632   5.028   7.478  0.1539  0.4381 -0.3308
  255MOL0     O33563   5.502   5.045   7.507  0.0261  0.2290 -0.6162
  255MOL0     C33564   5.402   4.946   7.464 -0.4874 -0.7015 -0.1959
  255MOL0     C33565   5.365   4.938   7.322  0.1110  0.3440 -1.1150
  255MOL0     C33566   5.238   4.857   7.303 -0.0087 -0.1519 -0.3355
  255MOL0     C33567   5.201   4.822   7.159 -0.2062 -0.4359  0.0730
  255MOL0     C33568   5.067   4.762   7.139  0.6985  0.0761 -0.6040
  255MOL0     C33569   4.949   4.851   7.187  0.1087  0.4443  1.0318
  255MOL0     C33570   4.818   4.784   7.148 -0.1332  0.5566 -0.7729
  255MOL0     C33571   4.688   4.843   7.208  0.6397  0.4093  0.3348
  255MOL0    Cl33572   4.695   4.826   7.384 -0.2195 -0.1363 -0.4772
  255MOL0     C33573   5.721   5.118   7.527  0.0168  0.3940 -0.0850
  255MOL0     C33574   5.861   5.109   7.511 -0.7851 -0.6130 -0.9407
  255MOL0     O33575   5.999   5.054   7.193  0.4697 -0.6021  0.4734
  255MOL0     C33576   6.267   4.999   7.128 -1.0649 -0.1063 -0.2388
  255MOL0     C33577   6.408   4.986   7.106  0.1487 -0.2085 -0.8555
  255MOL0     N33578   7.179   5.211   7.148  0.2201 -0.4220 -0.2318
  255MOL0     N33579   7.211   5.296   7.064  0.2538 -0.3755 -0.5058
  255MOL0     C33580   8.252   5.368   6.756  0.7618 -0.1642  0.1309
  255MOL0     C33581   8.379   5.341   6.740 -1.0163 -0.0933 -0.3889
  255MOL0     C33582   8.814   5.382   6.570 -0.8125  0.4630  0.3834
  255MOL0     C33583   8.915   5.436   6.479  0.2040  0.1143 -0.2461
  255MOL0     C33584   9.008   5.339   6.434 -0.1159  0.8950 -0.5732
  255MOL0     C33585   9.015   5.205   6.482 -0.0070 -0.4227  0.7738
  255MOL0     O33586   9.090   5.111   6.429  0.1032 -0.2378 -0.5548
  255MOL0     C33587   9.168   5.139   6.310  0.3658 -0.4277 -0.4777
  255MOL0     C33588   9.313   5.181   6.345 -0.2202 -0.1503 -0.3465
  255MOL0     C33589   9.406   5.216   6.221  0.1640  0.3892  0.6020
  255MOL0     C33590   9.555   5.231   6.261  0.5021 -0.3440 -0.5095
  255MOL0     C33591   9.620   5.104   6.290  0.5464 -0.0639 -0.2218
  255MOL0     C33592   9.680   5.010   6.333 -0.2253  0.3290  0.5776
  255MOL0     C33593   8.940   5.164   6.588  0.3740 -0.4829  0.6810
  255MOL0     C33594   8.839   5.254   6.630 -0.4609  1.1494 -0.3417
  255MOL0     H33595   8.470   5.562   6.506 -1.0695  1.3680 -1.7631
  255MOL0     H33596   8.215   5.611   6.513  0.4056  0.7502  1.0892
  255MOL0     H33597   8.001   5.579   6.522 -1.7996  4.4666 -0.5306
  255MOL0     H33598   7.978   5.685   6.665  0.2552  0.8904 -1.6960
  255MOL0     H33599   7.766   5.615   6.581 -2.3003  0.4827 -0.6067
  255MOL0     H33600   7.789   5.543   6.734 -2.0451 -2.1653 -1.6969
  255MOL0     H33601   7.839   5.323   6.605  0.4191  0.8358  0.3256
  255MOL0     H33602   7.836   5.413   6.450 -0.5459  2.6517 -0.5992
  255MOL0     H33603   7.588   5.471   6.491 -1.0721  1.2847  1.3345
  255MOL0     H33604   7.634   5.322   6.432 -2.1421  2.6420 -0.9944
  255MOL0     H33605   7.584   5.391   6.737  0.2721  2.6780 -1.4875
  255MOL0     H33606   7.639   5.238   6.675 -0.8935  0.3582  0.4561
  255MOL0     H33607   7.431   5.235   6.521 -0.1245 -1.6812  2.4650
  255MOL0     H33608   7.382   5.386   6.605 -0.6050  0.6557  0.2842
  255MOL0     H33609   7.262   5.173   6.659 -1.3134  1.4583 -0.5518
  255MOL0     H33610   7.415   5.137   6.766 -0.6561 -4.3393 -3.0989
  255MOL0     H33611   7.212   5.364   6.785  1.5836  2.8841  1.2884
  255MOL0     H33612   7.366   5.358   6.875  1.0734 -2.1829  0.5716
  255MOL0     H33613   7.219   5.034   6.873 -0.3242 -1.2637  0.0778
  255MOL0     H33614   7.132   4.904   7.207 -1.9046 -1.0052  1.2433
  255MOL0     H33615   7.081   4.893   7.048  2.2753 -0.0064 -0.7052
  255MOL0     H33616   6.896   5.060   7.089  0.6412 -0.8102 -0.2182
  255MOL0     H33617   6.949   5.074   7.267  2.2922 -0.5051 -0.5383
  255MOL0     H33618   6.863   4.816   7.148  4.8926 -1.2122  0.8675
  255MOL0     H33619   6.935   4.828   7.290 -1.0582  1.0549  0.7658
  255MOL0     H33620   6.739   4.981   7.386 -3.3605  1.8505 -0.9378
  255MOL0     H33621   6.690   4.827   7.321 -0.8898  1.1160  0.6405
  255MOL0     H33622   6.513   5.002   7.437 -0.3203  0.4183  0.6584
  255MOL0     H33623   6.268   5.062   7.453  1.3695 -1.8717  1.0680
  255MOL0     H33624   5.864   4.807   7.360 -0.2517 -0.8731  3.1361
  255MOL0     H33625   5.638   4.821   7.383  2.7787 -0.5540 -2.5294
  255MOL0     H33626   5.319   4.971   7.531  2.7337  0.1776  3.9111
  255MOL0     H33627   5.437   4.847   7.496  0.1508  0.0312  1.4958
  255MOL0     H33628   5.444   4.893   7.260  1.2546  2.2108 -1.1017
  255MOL0     H33629   5.336   5.042   7.301 -2.6695 -0.4975 -1.8980
  255MOL0     H33630   5.154   4.915   7.343 -2.5094  0.5370 -5.6855
  255MOL0     H33631   5.244   4.767   7.365  0.5762  0.6465  0.7922
  255MOL0     H33632   5.213   4.912   7.098  0.8447  0.1210  1.0675
  255MOL0     H33633   5.277   4.750   7.126  0.4406  1.2353 -2.3362
  255MOL0     H33634   5.070   4.669   7.196  3.9458  0.5788  0.2884
  255MOL0     H33635   5.051   4.724   7.037 -0.4844  0.5581 -0.6122
  255MOL0     H33636   4.945   4.955   7.155  1.5404 -0.4127 -2.3277
  255MOL0     H33637   4.952   4.850   7.297  1.6842  0.9704  1.0224
  255MOL0     H33638   4.824   4.780   7.039  0.7027 -1.5047 -0.7067
  255MOL0     H33639   4.810   4.677   7.173 -0.9094  0.8390  0.2275
  255MOL0     H33640   4.597   4.801   7.166  0.7694  1.1802 -0.7508
  255MOL0     H33641   4.692   4.950   7.187  3.1196  0.2794 -0.2393
  255MOL0     H33642   5.683   5.205   7.580 -1.6084  0.7679 -1.7493
  255MOL0     H33643   5.939   5.182   7.530  0.6059 -2.5484  1.3086
  255MOL0     H33644   6.208   4.982   7.038 -3.1676 -0.0878  1.0798
  255MOL0     H33645   6.431   4.971   7.001 -1.6118 -2.1276 -1.0279
  255MOL0     H33646   8.183   5.315   6.820 -1.4761  3.1378  0.6841
  255MOL0     H33647   8.429   5.270   6.805  0.1360 -0.2944 -1.4679
  255MOL0     H33648   8.886   5.534   6.444 -6.1481 -0.7829  1.1115
  255MOL0     H33649   9.061   5.390   6.355 -2.0739  0.9310 -1.9408
  255MOL0     H33650   9.116   5.215   6.251 -0.6610 -0.7089  0.0282
  255MOL0     H33651   9.169   5.047   6.249  0.2769 -0.1910 -0.8412
  255MOL0     H33652   9.319   5.273   6.404  0.5072  0.4872 -1.3811
  255MOL0     H33653   9.360   5.093   6.390  0.2509 -0.1059 -0.7376
  255MOL0     H33654   9.354   5.305   6.186  0.9538  1.8857  2.9443
  255MOL0     H33655   9.394   5.134   6.150 -1.9639 -1.6714  3.1023
  255MOL0     H33656   9.612   5.278   6.180  1.8409 -0.2093  0.4681
  255MOL0     H33657   9.574   5.304   6.340  2.1280 -0.2062 -0.9849
  255MOL0     H33658   9.717   4.913   6.359 -3.2829 -2.1317 -3.0944
  255MOL0     H33659   8.937   5.069   6.640 -2.3141 -1.3392 -0.9032
  255MOL0     H33660   8.765   5.207   6.695  2.1638 -1.4764  1.0124
  256MOL0     O33661   2.659   7.437  10.938 -0.4817  0.2742 -0.3195
  256MOL0     C33662   2.591   7.532  10.902 -0.5939 -0.7598 -0.5000
  256MOL0     O33663   2.521   7.541  10.789  0.1419  0.0519 -0.3852
  256MOL0     C33664   2.520   7.434  10.700 -0.1608 -0.1264 -0.9776
  256MOL0     C33665   2.629   7.380  10.636  0.0536 -0.2001  0.4047
  256MOL0     C33666   2.617   7.292  10.522  0.4979 -0.9333 -0.6300
  256MOL0     C33667   2.483   7.243  10.485 -1.3414 -0.6374  0.2438
  256MOL0     O33668   2.466   7.172  10.365 -0.3310 -0.0631 -0.3083
  256MOL0     C33669   2.334   7.170  10.300 -0.2634 -0.1109 -0.3478
  256MOL0     C33670   2.337   7.139  10.147 -0.2630  0.3670 -0.0358
  256MOL0     C33671   2.391   6.991  10.126 -0.5276  0.6603  1.0839
  256MOL0     C33672   2.408   6.957   9.975 -0.2262  0.2038  0.3530
  256MOL0     C33673   2.289   6.888   9.909  0.3486  0.3222  0.5423
  256MOL0     C33674   2.305   6.902   9.752 -0.6647 -0.3183 -0.5751
  256MOL0     C33675   2.206   6.812   9.677 -0.4249 -0.4985 -1.0472
  256MOL0     C33676   2.239   6.800   9.533  1.2198 -0.3321  0.1483
  256MOL0     N33677   2.181   6.920   9.459  0.6047  0.0250  0.3802
  256MOL0     C33678   2.067   6.996   9.491  0.1790 -0.0375  0.9421
  256MOL0     C33679   2.059   7.080   9.383  0.6064 -0.9681 -0.2594
  256MOL0     C33680   1.943   7.179   9.354 -0.2036  0.8632 -0.1388
  256MOL0     C33681   1.903   7.182   9.204  0.9262 -0.7712 -0.6921
  256MOL0     C33682   1.837   7.051   9.159  0.7042 -0.3439  0.0821
  256MOL0     C33683   1.713   6.998   9.230  1.1279  0.7205 -0.2877
  256MOL0     O33684   1.600   7.088   9.228  0.4661 -0.5563  0.2349
  256MOL0     C33685   1.564   7.152   9.119 -1.0858 -1.7250  0.3386
  256MOL0     C33686   1.526   7.099   8.998 -0.7170  0.2465  0.0723
  256MOL0     C33687   1.512   7.182   8.892 -0.0452  0.0921 -0.9376
  256MOL0     C33688   1.496   7.322   8.910 -0.4996  0.3982 -0.8636
  256MOL0     C33689   1.451   7.401   8.786  0.1017 -0.2209 -0.8564
  256MOL0     O33690   1.373   7.324   8.692  0.1241  0.3996 -1.4269
  256MOL0     C33691   1.333   7.364   8.572 -0.6328 -0.1877  0.0387
  256MOL0     C33692   1.263   7.272   8.490 -0.0497 -0.3313  1.3077
  256MOL0     C33693   1.228   7.308   8.352 -0.0868  0.0253  0.0064
  256MOL0     C33694   1.255   7.437   8.305  0.3265 -0.0612 -0.1580
  256MOL0     O33695   1.200   7.498   8.192 -0.2153 -0.6780  0.1209
  256MOL0     C33696   1.058   7.477   8.170  0.3724  0.3165 -0.4314
  256MOL0     C33697   0.984   7.584   8.084 -0.2384  0.3914 -0.3054
  256MOL0     C33698   0.974   7.721   8.138  0.4721  0.5401 -0.8091
  256MOL0     C33699   0.885   7.806   8.048  0.9711 -0.8361 -0.1305
  256MOL0     C33700   0.738   7.765   8.063 -0.0124 -0.2655 -0.4065
  256MOL0     C33701   0.647   7.883   8.016  0.0363  0.0627 -0.5973
  256MOL0     C33702   0.609   7.982   8.131  1.0364  1.1486  0.1583
  256MOL0     C33703   0.531   8.103   8.081  0.3039  0.2694  0.0948
  256MOL0    Cl33704   0.421   8.069   7.939  0.1883  0.1827 -0.0523
  256MOL0     C33705   1.317   7.530   8.393  0.3031 -0.0685  0.5660
  256MOL0     C33706   1.360   7.492   8.520 -0.0039 -0.3462  0.5381
  256MOL0     O33707   1.476   7.520   8.786  0.7512  0.0062  0.4926
  256MOL0     C33708   1.510   7.379   9.035  0.3711 -0.1839  0.1201
  256MOL0     C33709   1.567   7.288   9.131  0.2028  0.3006 -0.5037
  256MOL0     N33710   2.146   7.037   9.288  0.2070 -0.1003  0.3820
  256MOL0     N33711   2.210   6.946   9.331  0.0787  0.3761  0.3106
  256MOL0     C33712   2.378   7.285  10.565 -0.4728  0.1085 -0.4514
  256MOL0     C33713   2.395   7.387  10.663  0.1020 -0.7307  0.0858
  256MOL0     C33714   2.570   7.644  11.000 -0.8514  0.4257  0.5170
  256MOL0     C33715   2.455   7.722  10.992 -0.1300  0.5922 -0.1238
  256MOL0     C33716   2.422   7.814  11.087  0.5161 -0.2654 -0.9277
  256MOL0     C33717   2.509   7.837  11.201  0.9821 -0.7854 -0.2662
  256MOL0     O33718   2.466   7.927  11.302  0.5394 -0.0536 -1.5042
  256MOL0     C33719   2.520   7.899  11.434  1.4776  0.4971 -0.3826
  256MOL0     C33720   2.539   8.032  11.496  0.3533 -0.1362 -0.1205
  256MOL0     C33721   2.625   8.035  11.623 -0.8475  0.0975  0.7611
  256MOL0     C33722   2.675   8.185  11.662  0.4680 -0.7700 -0.1138
  256MOL0     C33723   2.557   8.279  11.677 -0.8253  0.6415  0.1579
  256MOL0     C33724   2.463   8.350  11.671  1.4868 -0.0396  0.1069
  256MOL0     C33725   2.632   7.770  11.198  0.8586 -0.6849 -0.1425
  256MOL0     C33726   2.658   7.677  11.100 -1.1837  0.0012  0.7499
  256MOL0     H33727   2.723   7.425  10.668  0.1613 -0.5010  0.5172
  256MOL0     H33728   2.712   7.262  10.480  0.9857 -0.9708  0.4602
  256MOL0     H33729   2.299   7.274  10.296 -1.2364 -0.4676 -1.9924
  256MOL0     H33730   2.256   7.114  10.352 -0.4386 -0.5118 -1.0251
  256MOL0     H33731   2.390   7.213  10.086 -0.5441 -0.8497 -1.8233
  256MOL0     H33732   2.231   7.136  10.119 -0.0384  0.7513 -0.9589
  256MOL0     H33733   2.321   6.923  10.176 -0.4812  0.3771  0.7653
  256MOL0     H33734   2.492   6.982  10.166 -0.9543 -1.8277  1.7687
  256MOL0     H33735   2.425   7.055   9.930  1.9764  1.9581  4.4475
  256MOL0     H33736   2.496   6.893   9.965 -1.6128 -1.6280 -0.9735
  256MOL0     H33737   2.186   6.913   9.936 -0.9058  0.4228 -3.6607
  256MOL0     H33738   2.306   6.785   9.941  1.8613  0.6547  0.8845
  256MOL0     H33739   2.408   6.877   9.724 -0.4612 -0.4491  0.2677
  256MOL0     H33740   2.284   7.008   9.738  0.3074 -0.0164  0.1626
  256MOL0     H33741   2.211   6.714   9.725 -1.0024  1.6698  4.0757
  256MOL0     H33742   2.105   6.838   9.710  0.5285 -0.7919  2.6174
  256MOL0     H33743   2.186   6.712   9.495 -2.1724  0.2712  2.9081
  256MOL0     H33744   2.346   6.787   9.516  1.6211  0.6552  1.7191
  256MOL0     H33745   1.996   6.991   9.573 -1.6441  0.7111 -0.5186
  256MOL0     H33746   1.969   7.282   9.381 -6.2496  3.1482 -1.5763
  256MOL0     H33747   1.863   7.144   9.420 -0.4844  0.1381 -0.8475
  256MOL0     H33748   1.988   7.201   9.138  1.6560 -0.8202  0.2109
  256MOL0     H33749   1.832   7.265   9.198 -0.4702 -1.8478  0.2336
  256MOL0     H33750   1.814   7.064   9.053  3.4156 -0.7186 -0.6477
  256MOL0     H33751   1.909   6.968   9.155 -0.2167 -1.1667  0.3524
  256MOL0     H33752   1.730   6.970   9.335 -2.2795 -1.1182 -0.0782
  256MOL0     H33753   1.670   6.903   9.196 -2.1165  1.1016  2.2125
  256MOL0     H33754   1.519   6.992   8.987 -0.8648  0.5069 -4.3083
  256MOL0     H33755   1.499   7.128   8.799  1.1994 -3.1791  0.6481
  256MOL0     H33756   1.234   7.169   8.512 -0.3218 -0.2601  1.2801
  256MOL0     H33757   1.182   7.231   8.291  3.6261 -2.6592  0.2840
  256MOL0     H33758   1.010   7.470   8.268 -0.1005 -2.0183 -0.7664
  256MOL0     H33759   1.057   7.380   8.118 -0.6078 -0.6647  1.2999
  256MOL0     H33760   0.886   7.539   8.067 -0.6343 -0.1908  2.8810
  256MOL0     H33761   1.036   7.579   7.988  0.1202  0.0489 -0.0986
  256MOL0     H33762   1.064   7.782   8.147  0.0777  1.9563 -4.7088
  256MOL0     H33763   0.930   7.710   8.238  2.5428  0.0307  0.1019
  256MOL0     H33764   0.894   7.911   8.076 -1.4335 -0.7460  0.4881
  256MOL0     H33765   0.899   7.796   7.940 -2.8083  3.7178 -1.3771
  256MOL0     H33766   0.721   7.742   8.168 -2.4483  0.7865 -0.5011
  256MOL0     H33767   0.723   7.673   8.007  2.1938  0.1744 -1.8491
  256MOL0     H33768   0.551   7.840   7.985 -0.6778  1.2092 -0.0481
  256MOL0     H33769   0.685   7.935   7.928 -0.0235 -2.3030 -2.0968
  256MOL0     H33770   0.541   7.926   8.196  0.3487  0.7712 -0.8702
  256MOL0     H33771   0.698   8.017   8.185 -0.1224  0.7637  2.4498
  256MOL0     H33772   0.597   8.184   8.046 -0.8159  0.2339 -2.3277
  256MOL0     H33773   0.482   8.146   8.169 -1.4961  2.1660 -1.7216
  256MOL0     H33774   1.328   7.632   8.357 -1.7267 -0.3466 -1.0147
  256MOL0     H33775   1.422   7.566   8.569  1.9930  0.4951 -2.9806
  256MOL0     H33776   1.481   7.484   9.036 -1.8039 -0.5490 -4.3224
  256MOL0     H33777   1.584   7.330   9.229  2.7690 -2.4022  0.3607
  256MOL0     H33778   2.282   7.243  10.535  0.7642 -2.0431 -1.6601
  256MOL0     H33779   2.301   7.413  10.711  0.4523 -0.2101  0.4947
  256MOL0     H33780   2.382   7.707  10.913  0.4141  0.0414 -0.5325
  256MOL0     H33781   2.337   7.881  11.071  2.1198  2.0744 -0.1120
  256MOL0     H33782   2.611   7.838  11.433 -0.1745 -2.1314  0.3866
  256MOL0     H33783   2.447   7.831  11.478  2.3382  0.1413  0.5199
  256MOL0     H33784   2.577   8.100  11.419 -1.8758  3.4197  1.6115
  256MOL0     H33785   2.448   8.085  11.527  1.4106  1.7270 -0.0484
  256MOL0     H33786   2.712   7.969  11.613  0.7298  2.2764 -0.7275
  256MOL0     H33787   2.569   7.994  11.708 -1.3514  1.4631  1.1103
  256MOL0     H33788   2.741   8.198  11.748  3.1688  2.4627 -2.4239
  256MOL0     H33789   2.737   8.220  11.579 -0.7213  1.7602 -0.0151
  256MOL0     H33790   2.373   8.400  11.643  0.9525 -1.8328 -1.6207
  256MOL0     H33791   2.716   7.789  11.264  1.4228 -1.3802 -0.6391
  256MOL0     H33792   2.756   7.632  11.114  0.6357  2.8102 -1.7309
  257MOL0     O33793   8.593   6.820   3.907  0.0199 -0.6598  0.1929
  257MOL0     C33794   8.485   6.872   3.935  0.4271  0.8279  0.2098
  257MOL0     O33795   8.453   6.961   4.044  0.0877  0.2120  0.3191
  257MOL0     C33796   8.558   7.011   4.112  1.1836 -0.4148 -0.1237
  257MOL0     C33797   8.679   7.064   4.051  0.7307  0.1921 -0.5844
  257MOL0     C33798   8.774   7.127   4.123  0.2264 -0.3798  1.1374
  257MOL0     C33799   8.756   7.144   4.263 -0.4341 -0.8239 -0.4414
  257MOL0     O33800   8.852   7.201   4.350  0.4183 -0.5249  0.3497
  257MOL0     C33801   8.988   7.214   4.308  0.3449  0.8534  0.0958
  257MOL0     C33802   9.062   7.290   4.410 -0.5228 -0.2939 -0.6570
  257MOL0     C33803   9.211   7.299   4.384 -0.2814  0.1704  0.1095
  257MOL0     C33804   9.269   7.422   4.443 -0.2981 -0.2131 -0.1996
  257MOL0     C33805   9.424   7.390   4.453 -0.2642  0.8078 -0.9518
  257MOL0     C33806   9.500   7.492   4.518 -0.1061  0.5032 -0.3982
  257MOL0     C33807   9.526   7.622   4.440  0.5368 -0.3741 -0.0869
  257MOL0     C33808   9.564   7.734   4.539  0.5775 -0.1769  0.2838
  257MOL0     N33809   9.464   7.756   4.639 -0.8529  0.3644  0.0923
  257MOL0     C33810   9.332   7.763   4.614  0.6834  0.9390  0.2487
  257MOL0     C33811   9.285   7.799   4.742  0.1238  0.3768 -0.0110
  257MOL0     C33812   9.142   7.827   4.780 -0.4903 -0.3822 -0.1972
  257MOL0     C33813   9.062   7.710   4.828 -0.5296 -0.3255  0.2916
  257MOL0     C33814   9.013   7.626   4.717  0.2818 -0.0010  0.1745
  257MOL0     C33815   8.922   7.523   4.783  0.4595  0.0980 -0.1181
  257MOL0     O33816   8.855   7.435   4.696  0.0145  1.2442  0.3087
  257MOL0     C33817   8.720   7.445   4.671  0.1400  0.7739 -0.7501
  257MOL0     C33818   8.681   7.419   4.544  0.2095 -0.8107  0.0238
  257MOL0     C33819   8.550   7.428   4.501  0.9809  1.0336  0.3151
  257MOL0     C33820   8.447   7.458   4.592  0.4884 -0.5391 -1.2700
  257MOL0     C33821   8.308   7.477   4.555  0.0166  0.4450 -0.7226
  257MOL0     O33822   8.217   7.519   4.652 -0.6998  0.2137 -0.0127
  257MOL0     C33823   8.083   7.512   4.641  0.0961  0.6249 -0.0572
  257MOL0     C33824   8.011   7.552   4.530 -0.2825 -1.0742 -0.4815
  257MOL0     C33825   7.867   7.572   4.535 -0.0628 -0.6588  0.0946
  257MOL0     C33826   7.802   7.528   4.652  0.0952 -1.1803 -0.0052
  257MOL0     O33827   7.666   7.550   4.655 -0.0060 -0.7437 -0.1327
  257MOL0     C33828   7.587   7.562   4.770  0.4562 -0.5411  0.4380
  257MOL0     C33829   7.516   7.429   4.819  0.0248  0.4506  0.1234
  257MOL0     C33830   7.401   7.407   4.718  0.3804 -0.5779 -0.5982
  257MOL0     C33831   7.350   7.262   4.760  0.1326  0.7330 -0.6273
  257MOL0     C33832   7.213   7.231   4.691 -0.5256  0.1981 -0.1762
  257MOL0     C33833   7.161   7.091   4.732 -0.6283  0.0845  0.4110
  257MOL0     C33834   7.259   6.972   4.697  0.4390 -0.8905 -0.3817
  257MOL0     C33835   7.194   6.848   4.759  0.3496 -0.5288 -0.2111
  257MOL0    Cl33836   7.254   6.705   4.671 -0.4034  0.6386  0.1692
  257MOL0     C33837   7.873   7.469   4.753  1.1265  0.6752  0.0552
  257MOL0     C33838   8.011   7.482   4.750  0.0219  0.6561 -0.6097
  257MOL0     O33839   8.279   7.430   4.448 -0.5016  0.5686  0.5527
  257MOL0     C33840   8.481   7.485   4.724  0.4942  0.9316 -0.9269
  257MOL0     C33841   8.614   7.478   4.767  0.3512 -0.4263  0.8126
  257MOL0     N33842   9.379   7.809   4.835  0.0881 -0.1000  0.2103
  257MOL0     N33843   9.487   7.780   4.771  0.6252 -0.4144  1.3023
  257MOL0     C33844   8.647   7.093   4.324 -0.6474 -0.7909 -0.0146
  257MOL0     C33845   8.546   7.032   4.250  0.3085  0.4604 -1.0851
  257MOL0     C33846   8.370   6.842   3.841 -0.4161  0.1844 -0.0103
  257MOL0     C33847   8.398   6.773   3.728  0.1326  0.1273 -0.0405
  257MOL0     C33848   8.283   6.724   3.660 -0.4309  0.9121  0.2615
  257MOL0     C33849   8.150   6.756   3.692  0.4121  0.2377 -0.2633
  257MOL0     O33850   8.045   6.701   3.618 -0.5580 -0.8514  0.6726
  257MOL0     C33851   8.086   6.601   3.525  0.3573  0.6018  0.1051
  257MOL0     C33852   7.960   6.526   3.459 -1.2540 -0.2343  0.5902
  257MOL0     C33853   7.859   6.626   3.402 -0.5821  0.3681  0.1572
  257MOL0     C33854   7.881   6.648   3.249  0.4952 -0.2154 -0.2001
  257MOL0     C33855   7.776   6.733   3.207  0.2972  0.0366  0.2677
  257MOL0     C33856   7.669   6.783   3.161  0.0856 -0.3387 -0.1944
  257MOL0     C33857   8.126   6.838   3.796  0.4343 -0.0280 -0.4470
  257MOL0     C33858   8.236   6.884   3.872 -0.4469  0.5889 -0.1829
  257MOL0     H33859   8.694   7.070   3.944 -3.0979  3.4619 -1.2060
  257MOL0     H33860   8.854   7.170   4.065  0.3014  1.8353  2.7930
  257MOL0     H33861   9.008   7.262   4.212 -0.7300 -1.4979 -1.3905
  257MOL0     H33862   9.017   7.109   4.307  1.2370  1.0767 -2.1125
  257MOL0     H33863   9.043   7.239   4.505  0.0734 -1.9083 -1.3629
  257MOL0     H33864   9.013   7.388   4.416 -0.3057 -0.0894 -1.9941
  257MOL0     H33865   9.240   7.298   4.278 -1.8233 -0.6129 -0.3270
  257MOL0     H33866   9.247   7.214   4.441  1.1553  0.0402 -0.9339
  257MOL0     H33867   9.250   7.505   4.374  0.5914 -0.6916 -1.0477
  257MOL0     H33868   9.221   7.448   4.537  2.9251  1.3385  1.1393
  257MOL0     H33869   9.455   7.368   4.350 -0.9723 -0.6218 -0.8889
  257MOL0     H33870   9.449   7.297   4.506 -0.5400  0.1644 -1.9161
  257MOL0     H33871   9.590   7.445   4.559 -1.5187 -0.7716  1.4319
  257MOL0     H33872   9.438   7.508   4.607 -2.2754 -2.5523 -1.1894
  257MOL0     H33873   9.588   7.604   4.353 -0.1756  0.8004 -0.8693
  257MOL0     H33874   9.435   7.648   4.384  0.3247 -0.2938  0.2872
  257MOL0     H33875   9.581   7.825   4.481 -4.1240  0.2281 -0.8812
  257MOL0     H33876   9.652   7.704   4.596  0.1738 -2.1487 -0.0421
  257MOL0     H33877   9.277   7.759   4.521  0.0385  1.3950  0.6062
  257MOL0     H33878   9.092   7.868   4.692  3.2793 -1.3127 -3.0857
  257MOL0     H33879   9.144   7.900   4.861 -1.9729 -1.1054  0.5367
  257MOL0     H33880   8.977   7.765   4.871 -0.9418 -0.2611 -0.5951
  257MOL0     H33881   9.120   7.642   4.891 -0.6819 -1.3871 -0.6752
  257MOL0     H33882   8.956   7.685   4.644  2.3621  1.7526 -0.1206
  257MOL0     H33883   9.101   7.581   4.671  1.0318  1.5018  0.0744
  257MOL0     H33884   8.848   7.574   4.846 -1.2057  0.9323 -2.6237
  257MOL0     H33885   8.984   7.460   4.848  0.3181 -1.0724 -1.0845
  257MOL0     H33886   8.751   7.401   4.463 -1.6111  0.6744 -1.9903
  257MOL0     H33887   8.533   7.405   4.397 -0.1921  2.7847  0.0867
  257MOL0     H33888   8.050   7.593   4.437 -1.6260 -0.5337 -0.8463
  257MOL0     H33889   7.817   7.626   4.455  1.3201  0.2041 -0.2257
  257MOL0     H33890   7.515   7.640   4.743 -0.0169 -2.0589 -3.2856
  257MOL0     H33891   7.644   7.598   4.856 -1.5714 -1.8690  2.4502
  257MOL0     H33892   7.458   7.435   4.912 -0.6598 -1.7380 -0.1321
  257MOL0     H33893   7.591   7.349   4.822 -0.1012  0.2034 -1.9518
  257MOL0     H33894   7.437   7.413   4.615  0.5106  1.9571 -0.4453
  257MOL0     H33895   7.308   7.463   4.731 -0.1486 -1.5561  0.0234
  257MOL0     H33896   7.427   7.190   4.727 -1.3900 -1.2527 -0.0151
  257MOL0     H33897   7.342   7.247   4.868  0.0115 -1.7265 -0.9111
  257MOL0     H33898   7.224   7.233   4.582  0.5166  0.1231 -0.0807
  257MOL0     H33899   7.142   7.311   4.716  1.8527  1.6761  2.4514
  257MOL0     H33900   7.065   7.077   4.681 -1.6852 -0.2807  2.4048
  257MOL0     H33901   7.140   7.089   4.839 -2.2435 -1.9372  0.1098
  257MOL0     H33902   7.261   6.980   4.588 -2.8996  0.7214 -0.4468
  257MOL0     H33903   7.353   6.997   4.749 -1.7823  3.0238  2.2839
  257MOL0     H33904   7.084   6.848   4.761  0.2358  2.6320  2.2189
  257MOL0     H33905   7.224   6.824   4.862 -2.1751 -1.2140  0.4490
  257MOL0     H33906   7.832   7.439   4.848  1.8328  1.2521  0.5556
  257MOL0     H33907   8.066   7.442   4.834 -2.2424 -2.3533 -0.4255
  257MOL0     H33908   8.400   7.522   4.785  1.5569  0.5046  0.7915
  257MOL0     H33909   8.645   7.488   4.870  2.3193 -0.9026  0.3142
  257MOL0     H33910   8.634   7.086   4.431 -0.1755  0.4654  0.1311
  257MOL0     H33911   8.470   6.984   4.310  2.8186  0.2023  2.1592
  257MOL0     H33912   8.495   6.733   3.699  0.4668  1.8409 -1.4336
  257MOL0     H33913   8.310   6.656   3.580  0.2353  3.2503 -1.6289
  257MOL0     H33914   8.154   6.525   3.566  1.1730  0.8338 -0.7840
  257MOL0     H33915   8.146   6.645   3.445  1.0305  0.2482  0.4021
  257MOL0     H33916   7.992   6.463   3.376 -0.1276 -0.3053  1.0625
  257MOL0     H33917   7.903   6.473   3.537 -1.3896 -2.9388 -1.2104
  257MOL0     H33918   7.863   6.726   3.446  1.3661 -1.2512  4.2643
  257MOL0     H33919   7.757   6.590   3.421  0.2167 -2.7329 -0.9502
  257MOL0     H33920   7.974   6.705   3.241  0.2787  0.4645  1.5989
  257MOL0     H33921   7.877   6.555   3.191  1.0597  0.3398 -1.1604
  257MOL0     H33922   7.570   6.819   3.145  0.5863  1.4234  0.4656
  257MOL0     H33923   8.026   6.875   3.817  0.3356 -1.4326  1.8198
  257MOL0     H33924   8.220   6.951   3.955  2.5519  1.2100  0.0324
  258MOL0     O33925   8.798   2.604   4.144 -0.1508 -0.5785 -0.3232
  258MOL0     C33926   8.816   2.525   4.236  0.5461 -0.1534  0.2256
  258MOL0     O33927   8.728   2.454   4.307 -0.2685  0.5374 -0.0417
  258MOL0     C33928   8.596   2.462   4.255  0.6542  0.4656  0.0448
  258MOL0     C33929   8.565   2.434   4.124  0.2484 -0.0257 -0.4417
  258MOL0     C33930   8.431   2.433   4.075  0.1275  0.1862  0.2325
  258MOL0     C33931   8.327   2.449   4.166 -0.2849 -1.3236  0.4099
  258MOL0     O33932   8.208   2.453   4.098  0.3827  0.1782 -0.3886
  258MOL0     C33933   8.092   2.493   4.155  0.6544 -0.3041 -1.3485
  258MOL0     C33934   8.059   2.368   4.243  0.4099  0.3997  0.1559
  258MOL0     C33935   8.067   2.221   4.185 -0.3767  0.0215  0.2249
  258MOL0     C33936   7.966   2.196   4.064  0.1960 -0.9247 -0.2875
  258MOL0     C33937   7.817   2.199   4.107 -0.2703  0.6845  0.1479
  258MOL0     C33938   7.727   2.210   3.989  0.6674 -0.6146  0.0848
  258MOL0     C33939   7.727   2.347   3.916  0.2596 -0.0667  0.4679
  258MOL0     C33940   7.610   2.354   3.819  0.5274  0.8070 -0.2645
  258MOL0     N33941   7.639   2.343   3.672  0.2509  0.0499  0.3102
  258MOL0     C33942   7.634   2.446   3.588 -0.4523 -0.6026  0.1246
  258MOL0     C33943   7.656   2.398   3.459 -0.4380 -0.1268 -1.0400
  258MOL0     C33944   7.666   2.480   3.338 -0.3470 -0.1718  1.0907
  258MOL0     C33945   7.698   2.405   3.212  0.3311 -0.0585 -0.2797
  258MOL0     C33946   7.574   2.323   3.164 -0.2086 -0.2878  0.0125
  258MOL0     C33947   7.601   2.249   3.039 -0.2387  0.2382  0.2824
  258MOL0     O33948   7.616   2.339   2.929  0.3529 -0.1214 -1.2380
  258MOL0     C33949   7.605   2.297   2.796 -0.6089  0.4226  0.0240
  258MOL0     C33950   7.630   2.167   2.756  0.3202  0.3913 -0.2925
  258MOL0     C33951   7.617   2.122   2.618  0.8284 -0.0475 -0.0934
  258MOL0     C33952   7.568   2.209   2.522  0.0927 -0.9038  0.2341
  258MOL0     C33953   7.552   2.183   2.379 -0.0223 -0.5438  0.1924
  258MOL0     O33954   7.490   2.280   2.309  0.1560 -0.3736  0.2552
  258MOL0     C33955   7.506   2.277   2.174  0.1011 -0.5705 -0.5067
  258MOL0     C33956   7.540   2.389   2.097  0.4814 -0.2444  0.5706
  258MOL0     C33957   7.558   2.382   1.959 -0.1148 -0.8975 -0.0007
  258MOL0     C33958   7.539   2.260   1.894  0.1503  0.6002  0.3143
  258MOL0     O33959   7.550   2.251   1.752 -0.0867  0.9188 -0.2423
  258MOL0     C33960   7.432   2.229   1.678  1.2406 -0.4562 -0.7546
  258MOL0     C33961   7.442   2.092   1.622  0.1799  0.1664  0.5881
  258MOL0     C33962   7.463   2.105   1.471 -0.6594  0.3391 -0.2947
  258MOL0     C33963   7.522   1.972   1.407 -0.4696 -0.4675 -0.2010
  258MOL0     C33964   7.488   1.957   1.252 -0.6051  0.0481 -0.7556
  258MOL0     C33965   7.554   2.062   1.159  0.1570 -0.4331 -0.2454
  258MOL0     C33966   7.528   2.042   1.010  0.0184  0.9228  0.2437
  258MOL0     C33967   7.592   2.137   0.907  0.1661  0.3927 -0.4283
  258MOL0    Cl33968   7.474   2.212   0.810 -0.0300 -0.1493  0.7773
  258MOL0     C33969   7.497   2.154   1.964 -0.2907 -0.2533 -0.2994
  258MOL0     C33970   7.478   2.159   2.100  0.4866  1.1974  0.4514
  258MOL0     O33971   7.614   2.082   2.334  0.1357 -0.2232 -0.1639
  258MOL0     C33972   7.558   2.345   2.561 -0.3537 -0.4435  1.1567
  258MOL0     C33973   7.571   2.381   2.692 -0.9387 -0.4070 -0.3848
  258MOL0     N33974   7.669   2.263   3.474 -0.2772 -0.1157  0.2940
  258MOL0     N33975   7.653   2.230   3.600  0.6920  0.6078  0.3220
  258MOL0     C33976   8.362   2.486   4.295  0.2927 -0.1671 -0.6509
  258MOL0     C33977   8.489   2.490   4.341 -0.7677 -0.2161 -0.1778
  258MOL0     C33978   8.955   2.526   4.288  0.1310  0.4642  0.2105
  258MOL0     C33979   9.053   2.615   4.232  0.3575  0.3689 -0.0737
  258MOL0     C33980   9.187   2.609   4.281  0.0426  0.5632  0.1891
  258MOL0     C33981   9.229   2.504   4.364  0.2211  0.4513 -0.1504
  258MOL0     O33982   9.364   2.490   4.374  0.0449 -0.1462  0.4195
  258MOL0     C33983   9.416   2.443   4.492 -0.3603 -0.0107  0.2392
  258MOL0     C33984   9.564   2.436   4.498 -0.4750 -0.5283  0.2960
  258MOL0     C33985   9.626   2.574   4.451  0.6062  0.1589  1.4497
  258MOL0     C33986   9.601   2.676   4.563 -0.0109  0.2287 -0.4194
  258MOL0     C33987   9.678   2.659   4.686  0.8194 -0.1528 -0.0105
  258MOL0     C33988   9.753   2.650   4.779 -0.4253 -0.4219 -0.2205
  258MOL0     C33989   9.128   2.434   4.434  0.4570  0.4656 -0.3640
  258MOL0     C33990   8.994   2.449   4.402 -1.2006  0.2624  0.2304
  258MOL0     H33991   8.641   2.409   4.050  1.4181 -0.6568  0.9265
  258MOL0     H33992   8.412   2.409   3.971 -0.9962 -1.5310  0.8036
  258MOL0     H33993   8.027   2.510   4.068  4.3190  0.0610 -4.2716
  258MOL0     H33994   8.105   2.588   4.207 -0.7750 -2.8754  4.5974
  258MOL0     H33995   7.961   2.380   4.290 -0.0448  4.6058 -1.4027
  258MOL0     H33996   8.128   2.369   4.327  0.2777 -0.2891  0.2774
  258MOL0     H33997   8.053   2.157   4.273  0.5873  2.4487  2.2718
  258MOL0     H33998   8.165   2.205   4.140 -1.4224  0.4861 -2.4065
  258MOL0     H33999   7.983   2.275   3.991  1.3007 -0.8785  0.0097
  258MOL0     H34000   7.983   2.094   4.028 -1.4974 -1.5156  0.4675
  258MOL0     H34001   7.802   2.286   4.172  1.2534  2.2722 -1.4945
  258MOL0     H34002   7.806   2.104   4.161  1.1440  1.5371  2.0971
  258MOL0     H34003   7.630   2.204   4.040  0.3564  0.4750 -0.3519
  258MOL0     H34004   7.733   2.131   3.914 -2.9923 -0.6562 -0.3001
  258MOL0     H34005   7.715   2.430   3.986 -1.4114  1.9839 -2.0728
  258MOL0     H34006   7.821   2.362   3.861 -1.1405  0.5063 -1.9433
  258MOL0     H34007   7.544   2.440   3.836 -2.1488 -1.2491  0.6157
  258MOL0     H34008   7.545   2.268   3.841  0.2505  1.5301  2.0677
  258MOL0     H34009   7.625   2.547   3.625  2.2475 -0.0495 -0.4742
  258MOL0     H34010   7.736   2.562   3.357  1.8205 -1.6798  0.0602
  258MOL0     H34011   7.572   2.533   3.323 -0.2300  0.0466  1.1173
  258MOL0     H34012   7.776   2.333   3.240  0.8108  1.0412  1.3525
  258MOL0     H34013   7.739   2.476   3.140 -0.4723 -0.6513 -1.3526
  258MOL0     H34014   7.527   2.266   3.244 -2.1148 -0.6565 -1.3170
  258MOL0     H34015   7.484   2.382   3.149 -0.7553 -0.5884  1.7914
  258MOL0     H34016   7.515   2.182   3.027  1.1566 -1.5688 -0.0768
  258MOL0     H34017   7.682   2.175   3.041 -2.5318 -2.6552 -2.5585
  258MOL0     H34018   7.674   2.098   2.828 -0.1817  2.6249  2.3315
  258MOL0     H34019   7.655   2.022   2.596  2.4759  0.5748 -0.2605
  258MOL0     H34020   7.543   2.483   2.151 -3.1118 -0.1089  0.7845
  258MOL0     H34021   7.605   2.467   1.910  4.3769 -2.2894  1.4276
  258MOL0     H34022   7.428   2.310   1.604  0.1915  1.6170  1.4583
  258MOL0     H34023   7.343   2.240   1.740  1.6641 -1.0631 -0.0327
  258MOL0     H34024   7.353   2.034   1.647  1.3551 -1.6325  0.7783
  258MOL0     H34025   7.534   2.051   1.664  1.7553  2.3192 -0.5354
  258MOL0     H34026   7.543   2.175   1.445  1.0799 -1.0106  1.0614
  258MOL0     H34027   7.380   2.135   1.408  0.4966  2.0590 -1.0546
  258MOL0     H34028   7.631   1.976   1.418 -0.5394 -0.2398  0.4515
  258MOL0     H34029   7.485   1.881   1.456 -2.8203  0.8758  0.6715
  258MOL0     H34030   7.379   1.961   1.238 -0.8383 -1.9382  0.2384
  258MOL0     H34031   7.534   1.863   1.222  1.6214  0.8511 -0.0593
  258MOL0     H34032   7.660   2.067   1.182  0.1772 -2.0049  0.1200
  258MOL0     H34033   7.500   2.155   1.182 -0.9175  0.0598 -4.0603
  258MOL0     H34034   7.588   1.954   0.985  0.1579  1.4332 -1.3699
  258MOL0     H34035   7.421   2.033   0.992  0.0560  0.2238  0.3561
  258MOL0     H34036   7.665   2.080   0.848  0.1575  0.3188 -0.3674
  258MOL0     H34037   7.647   2.210   0.967 -0.1809 -2.0497  3.1719
  258MOL0     H34038   7.470   2.064   1.910 -1.8858  0.1776 -0.2697
  258MOL0     H34039   7.439   2.069   2.147 -1.8010  1.9140  0.0613
  258MOL0     H34040   7.535   2.422   2.489 -2.9750  0.1185  2.4845
  258MOL0     H34041   7.571   2.484   2.729  1.5208 -0.7696  0.8588
  258MOL0     H34042   8.291   2.532   4.363  0.0905 -2.8281  1.0703
  258MOL0     H34043   8.507   2.508   4.447 -2.2363  2.0807 -0.2378
  258MOL0     H34044   9.038   2.683   4.149 -2.2585 -1.7279 -1.4841
  258MOL0     H34045   9.273   2.649   4.228 -0.0188  1.6884  0.9118
  258MOL0     H34046   9.378   2.342   4.508  1.3290 -0.7513 -0.2024
  258MOL0     H34047   9.374   2.495   4.578 -0.1911  0.7619 -0.1334
  258MOL0     H34048   9.598   2.405   4.597  0.2413 -1.2901 -0.1784
  258MOL0     H34049   9.592   2.355   4.430  0.1485  0.8818 -1.1932
  258MOL0     H34050   9.592   2.626   4.361 -0.9852  1.6341  2.8349
  258MOL0     H34051   9.734   2.564   4.436  0.3046 -2.3007  0.4675
  258MOL0     H34052   9.631   2.775   4.527 -0.4866  1.3077  1.9445
  258MOL0     H34053   9.494   2.681   4.586 -0.3539  1.0866 -2.0543
  258MOL0     H34054   9.836   2.642   4.846 -0.8900 -1.7407  0.2235
  258MOL0     H34055   9.166   2.378   4.518  1.5166  1.7761  0.0594
  258MOL0     H34056   8.931   2.383   4.461  0.6359 -0.3082  1.6845
  259MOL0     O34057   4.790   9.128   8.085 -0.5806 -0.1250 -0.0405
  259MOL0     C34058   4.819   9.126   7.964  0.3107 -0.0451 -1.1820
  259MOL0     O34059   4.931   9.171   7.907  0.0948  0.2160 -0.7208
  259MOL0     C34060   5.035   9.179   7.992 -0.6242 -0.2530  0.8198
  259MOL0     C34061   5.083   9.308   8.001  0.1492  0.4084  0.7355
  259MOL0     C34062   5.206   9.329   8.071  0.5372  0.3149  0.5860
  259MOL0     C34063   5.271   9.227   8.145 -0.3841  0.0889 -0.7653
  259MOL0     O34064   5.386   9.253   8.227 -0.3139 -0.1325  0.3704
  259MOL0     C34065   5.438   9.383   8.253  0.9114  0.3343  0.4516
  259MOL0     C34066   5.584   9.376   8.307 -1.4794 -0.8121 -0.2320
  259MOL0     C34067   5.582   9.370   8.464 -0.0695  0.2876  0.2522
  259MOL0     C34068   5.717   9.405   8.522 -0.0452 -0.0371 -0.5732
  259MOL0     C34069   5.726   9.374   8.679 -0.4193 -1.0990 -0.0206
  259MOL0     C34070   5.593   9.410   8.766  0.1143  0.0153 -0.0396
  259MOL0     C34071   5.614   9.402   8.917 -0.5605  0.0061 -0.0824
  259MOL0     C34072   5.539   9.514   8.973  0.7935  0.0825 -0.5269
  259MOL0     N34073   5.541   9.524   9.122  1.2390  0.1949  0.8577
  259MOL0     C34074   5.522   9.431   9.219 -0.1442 -0.3505  0.3290
  259MOL0     C34075   5.544   9.498   9.336  1.0717  0.0955 -1.4040
  259MOL0     C34076   5.556   9.443   9.483  0.3891 -0.4960 -0.5179
  259MOL0     C34077   5.439   9.353   9.529 -0.8361  0.0611 -0.7291
  259MOL0     C34078   5.486   9.235   9.628 -0.7689 -0.2323 -0.5941
  259MOL0     C34079   5.545   9.272   9.768  0.1303  0.5011  1.5768
  259MOL0     O34080   5.656   9.361   9.754  0.0126 -0.3107  1.1344
  259MOL0     C34081   5.789   9.310   9.751 -0.5506 -0.4935  0.2443
  259MOL0     C34082   5.824   9.178   9.780  0.8729  0.3519 -0.0714
  259MOL0     C34083   5.948   9.124   9.776  0.1471 -0.2667  0.0932
  259MOL0     C34084   6.047   9.212   9.729 -0.5414  0.4380 -0.4741
  259MOL0     C34085   6.188   9.169   9.716 -0.0386 -0.7213  0.2986
  259MOL0     O34086   6.279   9.272   9.723  0.8551 -0.0034 -0.6075
  259MOL0     C34087   6.416   9.254   9.726 -0.7310  0.5139  0.0640
  259MOL0     C34088   6.496   9.139   9.743 -0.9412 -0.0466 -0.8635
  259MOL0     C34089   6.639   9.163   9.760 -0.1402 -1.2107 -0.1645
  259MOL0     C34090   6.698   9.290   9.745  0.3033  0.3696 -0.0996
  259MOL0     O34091   6.824   9.322   9.760  0.0672 -0.5169 -0.2875
  259MOL0     C34092   6.896   9.391   9.644  0.2381 -0.6368 -0.6132
  259MOL0     C34093   7.041   9.409   9.693  0.1854  0.2131  1.2988
  259MOL0     C34094   7.134   9.461   9.581  0.4232  0.1703  0.3352
  259MOL0     C34095   7.278   9.455   9.639  0.8713 -0.5358  0.7902
  259MOL0     C34096   7.380   9.493   9.533 -0.6199 -0.5187 -0.0869
  259MOL0     C34097   7.522   9.527   9.579 -0.1502  0.6102 -0.7717
  259MOL0     C34098   7.615   9.574   9.478  0.5052 -0.6527 -0.2841
  259MOL0     C34099   7.675   9.470   9.389  1.0653  0.1035 -0.3876
  259MOL0    Cl34100   7.785   9.364   9.479 -0.1831  0.3746 -0.1893
  259MOL0     C34101   6.615   9.396   9.734  0.2546  0.6939  0.4358
  259MOL0     C34102   6.474   9.380   9.723 -1.7154  0.2982  1.0164
  259MOL0     O34103   6.217   9.053   9.696  0.6460 -0.0073 -0.0569
  259MOL0     C34104   6.018   9.346   9.692  0.0314  0.2040  0.3180
  259MOL0     C34105   5.888   9.393   9.702 -0.0170 -0.6160 -0.3128
  259MOL0     N34106   5.568   9.632   9.305  0.4904  0.2216 -0.8747
  259MOL0     N34107   5.571   9.641   9.172 -0.7124  0.3978  0.2436
  259MOL0     C34108   5.224   9.101   8.136 -0.6832 -0.7331  1.0476
  259MOL0     C34109   5.102   9.075   8.069  0.5903  0.4531  0.0516
  259MOL0     C34110   4.707   9.086   7.880 -0.3188  0.4842 -0.1287
  259MOL0     C34111   4.572   9.079   7.927  0.2951 -0.2849  0.2387
  259MOL0     C34112   4.472   9.052   7.839  0.5719 -0.0366  0.2090
  259MOL0     C34113   4.496   9.019   7.705 -0.5883 -0.2366 -0.4678
  259MOL0     O34114   4.390   8.993   7.619  0.0225 -0.6022  0.0435
  259MOL0     C34115   4.258   8.981   7.676 -0.5172 -0.0624  0.1798
  259MOL0     C34116   4.149   8.990   7.564  1.1404  0.9123  0.7147
  259MOL0     C34117   4.174   8.863   7.475  0.3356  0.5761  0.3151
  259MOL0     C34118   4.039   8.830   7.393  0.6329 -0.0732 -0.4982
  259MOL0     C34119   3.987   8.705   7.446  0.3897  0.5102 -0.3539
  259MOL0     C34120   3.939   8.598   7.474 -1.1853  0.0180 -0.5622
  259MOL0     C34121   4.625   9.022   7.653  0.1334  0.5846 -0.2781
  259MOL0     C34122   4.727   9.058   7.745  0.2192  1.1567 -0.2364
  259MOL0     H34123   5.048   9.386   7.935 -1.4770 -1.1736 -0.3748
  259MOL0     H34124   5.238   9.430   8.047 -0.9634 -0.0328 -3.8152
  259MOL0     H34125   5.365   9.427   8.322  1.3066 -0.6516  1.5355
  259MOL0     H34126   5.448   9.433   8.156  8.2994  2.1890  1.5269
  259MOL0     H34127   5.639   9.462   8.266 -1.6310 -1.1225 -1.1010
  259MOL0     H34128   5.645   9.298   8.261 -1.7856  0.6609 -3.4152
  259MOL0     H34129   5.555   9.266   8.486  2.3690 -0.0062  2.2946
  259MOL0     H34130   5.504   9.433   8.508 -3.2909 -3.2749  0.1849
  259MOL0     H34131   5.794   9.355   8.465  0.7058  0.7517 -0.2773
  259MOL0     H34132   5.737   9.510   8.497 -0.2908 -0.1329 -1.1855
  259MOL0     H34133   5.812   9.431   8.716 -1.3138  0.6957 -0.6061
  259MOL0     H34134   5.749   9.269   8.700  1.7710 -0.5876  0.4614
  259MOL0     H34135   5.510   9.346   8.733  1.6331 -0.6523 -2.8817
  259MOL0     H34136   5.568   9.513   8.741  3.5366  0.9719 -0.0215
  259MOL0     H34137   5.567   9.308   8.950 -2.6799  1.2543  0.6367
  259MOL0     H34138   5.716   9.405   8.956 -1.8291  0.5875  3.6131
  259MOL0     H34139   5.433   9.505   8.945  0.0702 -1.2408  2.2953
  259MOL0     H34140   5.568   9.614   8.940 -1.0084  1.1879  1.0391
  259MOL0     H34141   5.494   9.327   9.212  0.9647 -1.0059  3.6631
  259MOL0     H34142   5.574   9.530   9.547 -1.0368  1.1044 -2.1899
  259MOL0     H34143   5.645   9.380   9.486 -0.4537 -1.7041  1.1557
  259MOL0     H34144   5.397   9.308   9.439  1.3293 -1.7123 -0.9407
  259MOL0     H34145   5.374   9.425   9.580 -0.6403  2.0015 -3.0259
  259MOL0     H34146   5.402   9.169   9.649  2.2384 -3.4479  2.7530
  259MOL0     H34147   5.549   9.163   9.575 -1.2105 -3.3118  2.7744
  259MOL0     H34148   5.544   9.182   9.830  3.4585 -2.4356 -2.1399
  259MOL0     H34149   5.465   9.328   9.818 -2.0768  1.6924 -2.7685
  259MOL0     H34150   5.752   9.098   9.794  2.0324 -0.6616  0.1936
  259MOL0     H34151   5.965   9.018   9.785  1.4359 -0.1009 -0.2768
  259MOL0     H34152   6.462   9.038   9.727 -0.7061 -0.4492  1.0283
  259MOL0     H34153   6.714   9.085   9.765 -1.4156 -2.5726 -1.1634
  259MOL0     H34154   6.857   9.491   9.620 -3.8802 -1.6051  1.1282
  259MOL0     H34155   6.892   9.322   9.559  0.9155  0.1353 -1.2942
  259MOL0     H34156   7.078   9.311   9.725  0.9794  0.2197  0.4169
  259MOL0     H34157   7.038   9.467   9.786  1.2316  1.8472  0.3563
  259MOL0     H34158   7.118   9.567   9.560  1.6597  0.4647  0.7708
  259MOL0     H34159   7.131   9.406   9.486  0.0877 -0.6912  0.8326
  259MOL0     H34160   7.278   9.515   9.730 -0.8937  0.9632 -0.1165
  259MOL0     H34161   7.301   9.354   9.676  2.6775 -0.1819  0.6919
  259MOL0     H34162   7.343   9.579   9.477  2.1187  3.2224  3.2707
  259MOL0     H34163   7.393   9.412   9.460  0.7740 -0.8025  0.4468
  259MOL0     H34164   7.573   9.446   9.632  1.7045 -0.3795 -3.7948
  259MOL0     H34165   7.509   9.605   9.654  0.6835 -0.1502  0.1720
  259MOL0     H34166   7.568   9.657   9.425 -3.6184 -2.6044 -0.0638
  259MOL0     H34167   7.707   9.604   9.529 -0.4505 -1.9140  2.3635
  259MOL0     H34168   7.725   9.507   9.299  0.7592 -4.2372 -2.5771
  259MOL0     H34169   7.591   9.419   9.343 -1.0239  3.3867 -0.5450
  259MOL0     H34170   6.655   9.495   9.716  0.1963  0.4917 -0.9015
  259MOL0     H34171   6.411   9.468   9.718 -0.0805  1.4533 -1.5494
  259MOL0     H34172   6.092   9.410   9.645  0.4693 -0.6678 -0.2095
  259MOL0     H34173   5.870   9.495   9.668  0.4405 -0.7372 -0.9282
  259MOL0     H34174   5.272   9.017   8.185 -0.8826 -1.7380 -0.4261
  259MOL0     H34175   5.065   8.976   8.044  2.9088 -0.9698  1.8727
  259MOL0     H34176   4.540   9.101   8.028  0.8091  2.6380 -0.1633
  259MOL0     H34177   4.376   9.037   7.887  0.7961 -2.1021  0.1120
  259MOL0     H34178   4.237   9.059   7.750 -0.9332  0.9427 -0.9577
  259MOL0     H34179   4.251   8.891   7.738  3.2926  0.8809  2.3086
  259MOL0     H34180   4.052   8.971   7.609  1.8308 -0.3871  1.7201
  259MOL0     H34181   4.151   9.078   7.499  0.2742  0.3234 -0.1375
  259MOL0     H34182   4.190   8.775   7.538  3.4304 -0.0762 -1.1918
  259MOL0     H34183   4.267   8.882   7.421  1.9466 -0.4188  2.5822
  259MOL0     H34184   3.963   8.906   7.412  1.2464  0.2813  0.6017
  259MOL0     H34185   4.067   8.824   7.288 -2.0618  0.4343 -1.3263
  259MOL0     H34186   3.910   8.500   7.504  0.5757 -0.6166 -0.8141
  259MOL0     H34187   4.639   8.991   7.550  3.8834 -1.6048  0.6863
  259MOL0     H34188   4.830   9.053   7.712  1.3450 -1.3767  3.0268
  260MOL0     O34189   7.814   5.353   5.440  1.2491  0.8908  0.4663
  260MOL0     C34190   7.895   5.341   5.349  0.3027  0.3766 -0.0472
  260MOL0     O34191   7.981   5.437   5.314 -0.0501 -0.3011 -1.0866
  260MOL0     C34192   8.029   5.519   5.408 -1.0351  0.3106 -0.0860
  260MOL0     C34193   8.137   5.467   5.492  0.3345  0.4078 -0.4355
  260MOL0     C34194   8.192   5.551   5.584 -0.4363  0.2944 -0.3907
  260MOL0     C34195   8.165   5.687   5.594 -0.7590 -1.1511  0.0707
  260MOL0     O34196   8.230   5.782   5.664  0.3028  0.2751 -0.5762
  260MOL0     C34197   8.263   5.745   5.799  0.4354 -0.5609  0.2835
  260MOL0     C34198   8.280   5.874   5.879  0.6111  0.2710 -0.3602
  260MOL0     C34199   8.143   5.927   5.904 -0.4564 -0.7437 -0.5267
  260MOL0     C34200   8.148   6.055   5.995  0.3460  1.1845 -1.1343
  260MOL0     C34201   8.012   6.086   6.063 -0.4469  0.7104  0.4907
  260MOL0     C34202   8.027   6.192   6.174 -0.0195 -0.5823  0.2263
  260MOL0     C34203   7.910   6.209   6.265  0.4334 -0.4851  0.4826
  260MOL0     C34204   7.904   6.351   6.322  0.1673  1.1815 -0.1644
  260MOL0     N34205   8.024   6.375   6.409 -0.4907 -0.7285  0.9737
  260MOL0     C34206   8.097   6.497   6.414  0.0645 -0.6277 -0.0923
  260MOL0     C34207   8.195   6.473   6.513  0.4899 -1.0177  0.0499
  260MOL0     C34208   8.293   6.575   6.561  0.1849 -1.0094  0.7120
  260MOL0     C34209   8.221   6.661   6.657  0.1571  0.0299  0.6099
  260MOL0     C34210   8.325   6.751   6.732 -0.1274 -0.5928  0.3993
  260MOL0     C34211   8.380   6.685   6.853 -0.3719 -1.5387  0.5381
  260MOL0     O34212   8.483   6.765   6.918 -0.8535  0.3553 -0.1246
  260MOL0     C34213   8.446   6.847   7.020 -0.3902  0.2032  0.5049
  260MOL0     C34214   8.548   6.869   7.107  0.0767  0.2910 -1.1881
  260MOL0     C34215   8.518   6.949   7.214 -1.0722  0.3188  0.1334
  260MOL0     C34216   8.405   7.025   7.224 -0.5325 -0.3726 -0.1681
  260MOL0     C34217   8.386   7.109   7.341  0.7656  0.1713  0.5804
  260MOL0     O34218   8.261   7.173   7.349  0.0444 -0.4519  0.4057
  260MOL0     C34219   8.240   7.258   7.451 -0.0829 -0.0198  0.7938
  260MOL0     C34220   8.227   7.392   7.437 -0.2085 -0.8047  1.1832
  260MOL0     C34221   8.219   7.479   7.540 -0.6457  0.3316  0.1187
  260MOL0     C34222   8.221   7.425   7.675  0.1080  0.3831 -0.7015
  260MOL0     O34223   8.198   7.493   7.794 -0.4388 -0.0925 -1.3263
  260MOL0     C34224   8.143   7.624   7.796 -1.4131  0.9237  0.1810
  260MOL0     C34225   8.086   7.631   7.948  0.2599  0.1223 -0.0245
  260MOL0     C34226   8.185   7.690   8.044 -0.1540  0.0939 -0.7237
  260MOL0     C34227   8.125   7.713   8.183  0.7918 -0.2111  0.1467
  260MOL0     C34228   8.223   7.771   8.290  0.1271 -0.0880  0.0809
  260MOL0     C34229   8.150   7.880   8.377  0.0926  0.2686  0.3802
  260MOL0     C34230   8.228   7.947   8.478 -0.4928  0.1452 -0.7499
  260MOL0     C34231   8.151   8.009   8.593  0.5616 -0.1064  0.5337
  260MOL0    Cl34232   8.064   8.148   8.539 -0.2345 -0.2702  0.1274
  260MOL0     C34233   8.242   7.293   7.690 -0.3206  0.2083 -1.1282
  260MOL0     C34234   8.256   7.207   7.581 -0.0147 -0.4440 -0.0400
  260MOL0     O34235   8.485   7.131   7.409  0.5825 -0.3824  0.1746
  260MOL0     C34236   8.303   7.007   7.133  0.0957 -0.0685  0.1452
  260MOL0     C34237   8.327   6.909   7.026  0.3690 -0.3471  0.3414
  260MOL0     N34238   8.186   6.336   6.543 -0.0367 -1.1209 -0.1558
  260MOL0     N34239   8.080   6.292   6.501  0.4616  0.4462  0.0422
  260MOL0     C34240   8.072   5.741   5.494 -1.0229  0.2710 -0.0159
  260MOL0     C34241   8.010   5.656   5.410  0.4896  0.1565  0.4772
  260MOL0     C34242   7.868   5.228   5.260 -0.0110 -0.4295  0.8195
  260MOL0     C34243   7.917   5.240   5.126 -1.1400  0.5092  0.4018
  260MOL0     C34244   7.885   5.150   5.026  0.1391  0.7470  0.0684
  260MOL0     C34245   7.790   5.047   5.046  0.6165 -0.3887  1.2376
  260MOL0     O34246   7.733   4.959   4.954 -0.5199 -0.4208  0.0312
  260MOL0     C34247   7.807   4.926   4.844  0.0313 -0.4441 -0.6434
  260MOL0     C34248   7.706   4.943   4.727 -0.4159  0.7319  0.1419
  260MOL0     C34249   7.773   4.898   4.595 -0.6343 -0.0182  0.1386
  260MOL0     C34250   7.680   4.917   4.474  0.0047 -0.4365 -0.5574
  260MOL0     C34251   7.658   4.786   4.407  0.2410 -0.0061  0.4855
  260MOL0     C34252   7.637   4.672   4.353 -0.0393  0.0539  0.5715
  260MOL0     C34253   7.730   5.047   5.173 -0.1026 -0.0822  0.1117
  260MOL0     C34254   7.771   5.132   5.281  0.7262 -0.0395  0.3422
  260MOL0     H34255   8.160   5.361   5.497 -2.4028 -0.3875 -2.0055
  260MOL0     H34256   8.268   5.523   5.655  0.0320  2.0941 -0.1353
  260MOL0     H34257   8.354   5.685   5.797  0.1567 -1.1209  2.0399
  260MOL0     H34258   8.199   5.669   5.846 -0.9451 -0.0497 -0.7003
  260MOL0     H34259   8.328   5.947   5.814 -4.1730  3.0486 -1.2268
  260MOL0     H34260   8.335   5.849   5.971  1.4137  1.9761 -0.3544
  260MOL0     H34261   8.080   5.852   5.954  0.8839 -0.6448  1.4142
  260MOL0     H34262   8.079   5.965   5.824 -1.5340  4.0433  2.1870
  260MOL0     H34263   8.227   6.047   6.070 -1.1031 -1.5201  0.2605
  260MOL0     H34264   8.169   6.141   5.931 -0.2182  2.1932 -0.0055
  260MOL0     H34265   7.970   5.993   6.102 -1.8414  1.4697  0.8401
  260MOL0     H34266   7.934   6.127   5.998 -2.3426 -0.1201  2.1333
  260MOL0     H34267   8.056   6.283   6.120  2.8448 -1.5466 -0.0243
  260MOL0     H34268   8.108   6.164   6.242 -0.6630 -2.0814  0.4012
  260MOL0     H34269   7.812   6.198   6.218  1.0722 -1.5597 -0.6702
  260MOL0     H34270   7.905   6.128   6.338  2.9093 -0.2127  1.0540
  260MOL0     H34271   7.817   6.383   6.381  1.1684 -0.6043  2.4023
  260MOL0     H34272   7.915   6.405   6.227  0.5989 -1.0440 -1.4504
  260MOL0     H34273   8.071   6.587   6.360 -0.5169 -2.1218 -2.4992
  260MOL0     H34274   8.346   6.635   6.486 -0.2825  0.9549  1.8645
  260MOL0     H34275   8.377   6.525   6.610  1.2812  0.0923  0.0218
  260MOL0     H34276   8.174   6.588   6.724 -0.6903 -0.3034 -0.3408
  260MOL0     H34277   8.147   6.725   6.609 -1.9144 -2.7317 -0.0698
  260MOL0     H34278   8.400   6.793   6.665  1.7627  0.1887  2.8661
  260MOL0     H34279   8.280   6.845   6.764  3.4919  1.3591  0.1721
  260MOL0     H34280   8.430   6.592   6.825  2.8230 -0.2318  1.4076
  260MOL0     H34281   8.299   6.644   6.914 -2.5834  1.2143 -0.3626
  260MOL0     H34282   8.639   6.809   7.109  0.5145  0.9095  0.9659
  260MOL0     H34283   8.598   6.957   7.288  0.5207  1.0082 -1.5708
  260MOL0     H34284   8.226   7.429   7.335 -0.0183 -2.5729  0.5030
  260MOL0     H34285   8.206   7.586   7.525 -1.3121  0.0955 -1.0984
  260MOL0     H34286   8.055   7.635   7.732 -0.4325 -0.0693 -1.4115
  260MOL0     H34287   8.218   7.700   7.773 -0.6714  1.0225  2.5959
  260MOL0     H34288   8.047   7.536   7.985 -1.9201  0.8754 -0.2416
  260MOL0     H34289   8.004   7.703   7.941 -2.0959 -2.2910  1.1053
  260MOL0     H34290   8.222   7.789   8.014 -1.4531  0.1174 -2.4051
  260MOL0     H34291   8.271   7.624   8.055  0.5908  0.8598 -1.7223
  260MOL0     H34292   8.039   7.780   8.176  0.8237 -0.1764  0.0744
  260MOL0     H34293   8.085   7.617   8.216  2.1320 -1.1312 -0.7833
  260MOL0     H34294   8.301   7.815   8.228 -2.0831  0.3085 -2.6074
  260MOL0     H34295   8.262   7.694   8.357 -0.8907 -1.6942 -1.0981
  260MOL0     H34296   8.068   7.834   8.433 -1.5240  1.5046 -0.8504
  260MOL0     H34297   8.115   7.959   8.309  1.1546 -0.1317 -0.6572
  260MOL0     H34298   8.299   7.876   8.521 -1.3222  1.0922  2.4968
  260MOL0     H34299   8.295   8.025   8.440  2.1376 -1.6403 -0.0572
  260MOL0     H34300   8.214   8.036   8.678 -0.6888  2.2515  0.8098
  260MOL0     H34301   8.083   7.935   8.637  1.5817 -3.1733 -2.5811
  260MOL0     H34302   8.250   7.254   7.791  2.5477 -0.9454 -1.6705
  260MOL0     H34303   8.271   7.101   7.601 -0.9136 -0.3405  1.2783
  260MOL0     H34304   8.200   7.042   7.138 -0.1954 -1.0397  1.5492
  260MOL0     H34305   8.243   6.905   6.958 -0.8538  1.8903  1.5985
  260MOL0     H34306   8.042   5.843   5.474  0.0634  0.0776 -3.1067
  260MOL0     H34307   7.943   5.688   5.330  1.6991 -0.8427 -0.9864
  260MOL0     H34308   7.973   5.328   5.096 -0.4788  0.6796  1.9847
  260MOL0     H34309   7.929   5.173   4.930  2.5580  0.7880  1.0992
  260MOL0     H34310   7.847   4.824   4.847  1.9464  0.2729  3.1422
  260MOL0     H34311   7.898   4.985   4.836  1.0184 -2.0406 -1.8767
  260MOL0     H34312   7.618   4.880   4.741  1.3350 -1.3348  2.6624
  260MOL0     H34313   7.663   5.044   4.719 -5.0556 -1.1076 -1.5530
  260MOL0     H34314   7.812   4.797   4.610  0.1308  0.3885  0.9868
  260MOL0     H34315   7.860   4.963   4.581 -0.5554  0.1303  1.2257
  260MOL0     H34316   7.579   4.953   4.496 -0.8284  0.5062 -5.0992
  260MOL0     H34317   7.733   4.987   4.410  1.8310  1.3516  2.6490
  260MOL0     H34318   7.619   4.573   4.317 -3.2019  0.2110  1.4052
  260MOL0     H34319   7.639   4.988   5.180 -0.5291  0.3154 -1.4952
  260MOL0     H34320   7.698   5.133   5.361 -2.1985 -1.2094 -2.0832
  261MOL0     O34321   6.388   8.039   5.850 -0.2106  1.0029 -0.1711
  261MOL0     C34322   6.409   8.086   5.960  0.3881  0.1269 -0.8370
  261MOL0     O34323   6.522   8.161   5.989  0.2724  1.0165 -0.1938
  261MOL0     C34324   6.642   8.131   5.934  0.9488  0.2333  1.1251
  261MOL0     C34325   6.744   8.225   5.953  1.7900 -0.6044  0.4013
  261MOL0     C34326   6.865   8.212   5.890 -0.5715 -0.2097  0.3749
  261MOL0     C34327   6.892   8.099   5.809  0.6914  0.2316  0.6943
  261MOL0     O34328   7.002   8.071   5.723  0.7312 -0.4244 -0.5293
  261MOL0     C34329   7.110   8.169   5.729 -0.4977  0.5853 -0.1122
  261MOL0     C34330   7.221   8.112   5.644 -0.0480  0.1941  0.7582
  261MOL0     C34331   7.169   8.127   5.493 -0.4774  0.2938 -0.5940
  261MOL0     C34332   7.179   7.999   5.415 -0.0421  0.1180 -0.1618
  261MOL0     C34333   7.192   8.020   5.260 -0.3622 -0.0334  0.1081
  261MOL0     C34334   7.094   8.107   5.190 -0.1725 -0.1030 -0.7105
  261MOL0     C34335   7.093   8.095   5.040 -0.8723  0.0948  0.4104
  261MOL0     C34336   7.205   8.174   4.966 -0.3140 -0.5807  0.7054
  261MOL0     N34337   7.164   8.200   4.829 -0.7408 -0.4983  0.5726
  261MOL0     C34338   7.122   8.319   4.782 -0.6342  0.1376 -0.9138
  261MOL0     C34339   7.123   8.299   4.649 -0.4092  0.1041  1.3770
  261MOL0     C34340   7.066   8.383   4.542 -0.1309 -0.0639 -0.3718
  261MOL0     C34341   7.167   8.497   4.482 -0.3455 -0.2176 -0.3894
  261MOL0     C34342   7.211   8.585   4.604 -0.1026  0.3783 -0.4866
  261MOL0     C34343   7.289   8.705   4.560  0.3749  0.1340 -0.5785
  261MOL0     O34344   7.331   8.774   4.685 -0.7082  0.3300  0.5692
  261MOL0     C34345   7.433   8.865   4.677  0.0904  0.4354  1.4062
  261MOL0     C34346   7.496   8.866   4.797 -0.0347 -0.0543  0.4938
  261MOL0     C34347   7.598   8.956   4.832 -0.9036  0.1183 -0.6036
  261MOL0     C34348   7.642   9.039   4.729  0.3151 -1.0917  0.5739
  261MOL0     C34349   7.749   9.143   4.770  0.4049  0.9244  1.0637
  261MOL0     O34350   7.793   9.148   4.902 -0.0156 -0.1832  0.0353
  261MOL0     C34351   7.883   9.247   4.944 -0.6970 -0.4778 -0.1192
  261MOL0     C34352   7.989   9.204   5.022  1.0515 -0.4242 -1.1894
  261MOL0     C34353   8.066   9.289   5.106 -0.3118  0.0864 -0.2544
  261MOL0     C34354   8.046   9.422   5.089  0.6311 -0.1024  0.4918
  261MOL0     O34355   8.113   9.520   5.156  0.4402 -0.0177  0.1932
  261MOL0     C34356   8.247   9.487   5.190  0.9657  0.2361  0.3217
  261MOL0     C34357   8.299   9.619   5.254 -0.3196 -0.4028 -0.2959
  261MOL0     C34358   8.430   9.614   5.328 -0.0692 -0.3554 -0.0942
  261MOL0     C34359   8.529   9.517   5.271  0.4884  0.3821  0.4505
  261MOL0     C34360   8.658   9.529   5.360  0.0754  0.3968 -0.1824
  261MOL0     C34361   8.791   9.493   5.286 -0.0470 -0.2069  0.1940
  261MOL0     C34362   8.772   9.375   5.188  0.9727  0.5543 -0.5261
  261MOL0     C34363   8.900   9.303   5.153  0.3822 -0.2769 -0.7837
  261MOL0    Cl34364   9.007   9.261   5.294  0.0803  0.4068  0.0861
  261MOL0     C34365   7.954   9.471   4.983  0.4035 -0.3844 -0.5506
  261MOL0     C34366   7.866   9.384   4.918  1.2416 -1.1204  0.0987
  261MOL0     O34367   7.781   9.222   4.675 -0.6568  0.3821  0.8621
  261MOL0     C34368   7.596   9.031   4.595  0.6812 -0.6209  0.1865
  261MOL0     C34369   7.492   8.940   4.571  0.8512  0.0595 -0.5507
  261MOL0     N34370   7.182   8.176   4.616  0.0587 -0.2087  1.3269
  261MOL0     N34371   7.185   8.111   4.726 -0.5116 -0.5043 -0.2047
  261MOL0     C34372   6.793   8.005   5.800  0.5152  0.6589  0.1880
  261MOL0     C34373   6.672   8.017   5.863  0.6449  0.1297  0.9266
  261MOL0     C34374   6.315   8.068   6.063  0.1494 -0.7602 -0.3849
  261MOL0     C34375   6.196   8.002   6.031  0.1813 -0.4640 -0.2347
  261MOL0     C34376   6.099   7.979   6.132  0.2012  0.4241 -1.1634
  261MOL0     C34377   6.125   8.016   6.263 -0.0587  1.0846  0.1176
  261MOL0     O34378   6.032   7.981   6.360 -0.1438 -0.4855 -0.6519
  261MOL0     C34379   6.088   7.936   6.486 -0.2421 -0.4163  0.4571
  261MOL0     C34380   5.983   7.856   6.565 -1.1789 -0.6547  0.0212
  261MOL0     C34381   6.050   7.812   6.695 -1.4271  0.7410  0.4361
  261MOL0     C34382   5.964   7.708   6.765  0.0607  0.5306 -0.7384
  261MOL0     C34383   6.014   7.703   6.903 -0.1555  0.6855 -0.9310
  261MOL0     C34384   6.024   7.712   7.025  0.0802  0.9012  0.2147
  261MOL0     C34385   6.247   8.073   6.293 -0.4768 -0.4343  0.0900
  261MOL0     C34386   6.335   8.106   6.194 -0.8972  0.3097  0.1249
  261MOL0     H34387   6.735   8.316   6.011  3.2337  0.0828 -0.4168
  261MOL0     H34388   6.944   8.282   5.917 -0.3433 -1.2210  2.5056
  261MOL0     H34389   7.147   8.192   5.830  0.6334 -1.3147 -0.0439
  261MOL0     H34390   7.086   8.262   5.677 -0.3655 -0.4131 -2.0199
  261MOL0     H34391   7.239   8.010   5.679  4.0156  0.2523 -0.6765
  261MOL0     H34392   7.316   8.165   5.659  1.6244 -1.9861 -1.3306
  261MOL0     H34393   7.241   8.197   5.451  0.0615  0.7638  1.0578
  261MOL0     H34394   7.071   8.176   5.495 -1.7462 -1.9921 -1.8955
  261MOL0     H34395   7.274   7.960   5.453 -0.3336  0.4997  0.9875
  261MOL0     H34396   7.101   7.931   5.450  3.8861 -1.8881  6.4290
  261MOL0     H34397   7.179   7.918   5.224 -0.4722 -0.3985  1.1428
  261MOL0     H34398   7.288   8.065   5.231 -0.5577  1.7162  1.9713
  261MOL0     H34399   7.100   8.209   5.231 -0.1908 -0.1098 -0.6919
  261MOL0     H34400   6.997   8.075   5.228  0.2348 -3.2996 -2.0953
  261MOL0     H34401   7.109   7.989   5.019  0.3685  0.2124  0.6774
  261MOL0     H34402   6.998   8.126   4.995 -0.3500  2.3586  0.7121
  261MOL0     H34403   7.300   8.120   4.966  0.0297  0.0157  0.8481
  261MOL0     H34404   7.230   8.268   5.016 -1.9573  0.2784 -0.0195
  261MOL0     H34405   7.088   8.409   4.832 -1.6266  0.8023 -2.6970
  261MOL0     H34406   6.976   8.440   4.567 -0.9117  1.1652 -4.9936
  261MOL0     H34407   7.048   8.317   4.457  0.6208 -0.4506 -0.2410
  261MOL0     H34408   7.112   8.559   4.410 -0.3762 -1.7473 -1.7350
  261MOL0     H34409   7.256   8.460   4.431  2.3814  0.8924  3.1166
  261MOL0     H34410   7.123   8.632   4.649  0.7990  0.6103  1.0874
  261MOL0     H34411   7.260   8.526   4.681  0.3485 -0.5791 -1.4710
  261MOL0     H34412   7.243   8.765   4.481  1.0988  0.4881 -0.7412
  261MOL0     H34413   7.386   8.676   4.518  1.6147  0.9718  1.4830
  261MOL0     H34414   7.455   8.797   4.869  1.2453 -1.4254 -0.0441
  261MOL0     H34415   7.645   8.964   4.930 -0.1362 -4.5601 -0.3750
  261MOL0     H34416   7.993   9.098   5.044  1.1919 -0.4817 -1.4814
  261MOL0     H34417   8.145   9.243   5.164  0.5983  1.5035 -0.2985
  261MOL0     H34418   8.311   9.458   5.106 -1.4883 -1.6941 -1.0189
  261MOL0     H34419   8.239   9.400   5.256 -0.2151 -1.3103 -1.7561
  261MOL0     H34420   8.225   9.653   5.327  2.0618  0.5349  1.8414
  261MOL0     H34421   8.301   9.699   5.180 -1.4477  0.3084  0.4086
  261MOL0     H34422   8.408   9.588   5.432  1.8794  2.1784  1.0557
  261MOL0     H34423   8.484   9.708   5.340 -0.7692 -0.0393  0.6383
  261MOL0     H34424   8.499   9.412   5.263 -0.2999  0.5502  1.0787
  261MOL0     H34425   8.563   9.546   5.171  0.6559 -1.8704 -0.2128
  261MOL0     H34426   8.644   9.448   5.432  0.7584  1.6389  1.3997
  261MOL0     H34427   8.668   9.618   5.421  0.6479  1.1651 -1.3551
  261MOL0     H34428   8.859   9.464   5.367  1.5242 -0.8054 -1.2822
  261MOL0     H34429   8.820   9.585   5.234 -0.8980  0.8920  1.5796
  261MOL0     H34430   8.696   9.307   5.225  1.3683  1.1479  1.5073
  261MOL0     H34431   8.725   9.410   5.096 -0.6593 -0.0221  0.0544
  261MOL0     H34432   8.963   9.370   5.094  1.1408  0.6516  1.0107
  261MOL0     H34433   8.876   9.214   5.094 -1.8921 -0.8706  0.8907
  261MOL0     H34434   7.948   9.580   4.980  0.8352 -0.1433  3.0904
  261MOL0     H34435   7.777   9.427   4.872  1.9974 -0.0812 -0.4270
  261MOL0     H34436   7.640   9.087   4.513  0.4896  0.3269  0.7126
  261MOL0     H34437   7.459   8.933   4.468  0.7582  0.4477 -0.5484
  261MOL0     H34438   6.802   7.920   5.733 -1.1967 -0.5245  1.3667
  261MOL0     H34439   6.597   7.938   5.856 -0.5190  1.0560  2.4419
  261MOL0     H34440   6.156   7.967   5.936  0.9913  2.6034 -1.8183
  261MOL0     H34441   6.001   7.939   6.110 -0.3682  2.0152 -1.6526
  261MOL0     H34442   6.125   8.018   6.547  1.4622 -4.0567  4.8957
  261MOL0     H34443   6.174   7.871   6.471 -0.6628 -0.4920 -2.0876
  261MOL0     H34444   5.899   7.923   6.584 -2.1818 -1.5178 -1.2140
  261MOL0     H34445   5.945   7.774   6.503 -1.8484  1.4039 -2.4787
  261MOL0     H34446   6.080   7.889   6.765  0.3472 -0.3657  0.9645
  261MOL0     H34447   6.139   7.752   6.673 -1.7508 -1.0593  3.4509
  261MOL0     H34448   5.857   7.727   6.768  0.1071  1.9784 -3.9283
  261MOL0     H34449   5.973   7.616   6.706  0.7146  0.1411 -0.0533
  261MOL0     H34450   6.031   7.731   7.130  2.1091 -2.4460  0.7968
  261MOL0     H34451   6.276   8.113   6.390 -1.2350  1.2154 -0.3283
  261MOL0     H34452   6.427   8.146   6.235 -0.1825 -2.1862  1.1854
  262MOL0     O34453   0.680   2.892   5.669 -1.1702 -0.0478 -0.7259
  262MOL0     C34454   0.561   2.894   5.640 -0.5515  0.1892 -0.1080
  262MOL0     O34455   0.455   2.914   5.730  0.4454 -0.1848 -0.6045
  262MOL0     C34456   0.482   2.975   5.850  0.2272 -0.0226  0.4667
  262MOL0     C34457   0.444   2.919   5.967  0.9413 -0.4516 -0.1192
  262MOL0     C34458   0.438   2.991   6.087 -0.0739  0.3386  0.1062
  262MOL0     C34459   0.464   3.131   6.081 -0.3007  0.1227 -0.3086
  262MOL0     O34460   0.476   3.201   6.203 -0.5879 -0.4475  0.3710
  262MOL0     C34461   0.388   3.165   6.312 -0.2559  1.6553  0.4882
  262MOL0     C34462   0.407   3.250   6.432  1.1640  0.1908 -0.1924
  262MOL0     C34463   0.537   3.215   6.514  0.6208  0.6072 -0.2284
  262MOL0     C34464   0.570   3.334   6.611  0.4179  0.5105  0.2783
  262MOL0     C34465   0.713   3.333   6.649 -0.2049 -0.3735 -0.4116
  262MOL0     C34466   0.755   3.462   6.706 -0.9396  0.1053  0.4360
  262MOL0     C34467   0.909   3.455   6.748 -0.9660 -0.4103  0.7249
  262MOL0     C34468   1.004   3.463   6.627  0.2787  1.0231 -1.3544
  262MOL0     N34469   1.140   3.497   6.652 -0.4505 -0.1513 -0.0296
  262MOL0     C34470   1.205   3.614   6.617  0.4296 -0.8040  0.5339
  262MOL0     C34471   1.331   3.571   6.621  0.1523 -0.0852 -0.0191
  262MOL0     C34472   1.458   3.644   6.600  0.3381  0.4162 -0.4937
  262MOL0     C34473   1.576   3.550   6.539 -0.5304  0.3994 -0.4496
  262MOL0     C34474   1.562   3.536   6.392 -0.1176 -0.2170 -0.4945
  262MOL0     C34475   1.638   3.417   6.344  0.1093  0.5006  0.2868
  262MOL0     O34476   1.776   3.431   6.347  0.7239  0.2530  0.9930
  262MOL0     C34477   1.867   3.332   6.299  1.0280 -0.1378 -0.1648
  262MOL0     C34478   1.816   3.213   6.247 -0.2757  0.1193 -0.0328
  262MOL0     C34479   1.897   3.114   6.190 -1.1344  1.1110 -0.3157
  262MOL0     C34480   2.038   3.131   6.191  0.1772  0.3746 -0.6929
  262MOL0     C34481   2.136   3.034   6.138 -0.0239  0.8187 -0.5844
  262MOL0     O34482   2.259   3.037   6.188 -0.0465 -0.0557  0.3923
  262MOL0     C34483   2.339   2.920   6.191 -0.6140 -0.7868 -0.3282
  262MOL0     C34484   2.325   2.790   6.139 -0.0935 -0.2016 -0.5482
  262MOL0     C34485   2.417   2.685   6.170 -0.2926  0.7548  0.7952
  262MOL0     C34486   2.524   2.701   6.262  0.8801 -0.9906  1.2146
  262MOL0     O34487   2.602   2.587   6.285  0.2167 -0.9933  0.3756
  262MOL0     C34488   2.741   2.606   6.270  0.2662 -0.3833  0.2085
  262MOL0     C34489   2.801   2.636   6.399 -0.5482 -0.0799 -0.8544
  262MOL0     C34490   2.944   2.691   6.380  0.0157  0.4793 -0.6407
  262MOL0     C34491   3.040   2.584   6.320 -1.3710  0.0540 -0.1863
  262MOL0     C34492   3.172   2.637   6.281  0.5171  0.4133 -0.8930
  262MOL0     C34493   3.242   2.544   6.183  0.0734  0.2893 -0.3196
  262MOL0     C34494   3.257   2.398   6.227 -0.3087 -0.2357  0.2393
  262MOL0     C34495   3.403   2.348   6.208 -0.9000  0.3616 -0.7352
  262MOL0    Cl34496   3.448   2.328   6.040  0.2072  0.0692 -0.0542
  262MOL0     C34497   2.542   2.834   6.307 -0.0525 -0.1355  0.0686
  262MOL0     C34498   2.454   2.939   6.270  0.2115 -0.3024 -1.2123
  262MOL0     O34499   2.101   2.966   6.044  0.3709 -0.1388  0.5188
  262MOL0     C34500   2.085   3.246   6.254 -1.1836  0.5013 -0.0342
  262MOL0     C34501   2.005   3.347   6.296  0.5161 -0.7679  0.2876
  262MOL0     N34502   1.346   3.432   6.644 -0.4562  0.6509  0.5925
  262MOL0     N34503   1.227   3.393   6.665  0.6697 -0.1284  0.4947
  262MOL0     C34504   0.497   3.196   5.957 -0.3863  0.3066  1.1458
  262MOL0     C34505   0.514   3.114   5.844  0.5396 -0.4014 -0.4983
  262MOL0     C34506   0.520   2.861   5.499  0.1654  0.1578 -0.5841
  262MOL0     C34507   0.618   2.831   5.400  0.6178  0.1061 -0.5449
  262MOL0     C34508   0.583   2.816   5.264 -0.1146  0.6517 -0.7495
  262MOL0     C34509   0.446   2.816   5.225  1.5774 -0.1217  0.2116
  262MOL0     O34510   0.399   2.767   5.105  0.3953  0.1097  0.2806
  262MOL0     C34511   0.485   2.775   4.985 -0.8993  0.2427 -0.9823
  262MOL0     C34512   0.398   2.726   4.868 -0.9837 -0.0912 -0.0735
  262MOL0     C34513   0.341   2.587   4.897 -0.2754 -1.0377  0.4509
  262MOL0     C34514   0.327   2.501   4.769 -0.5358 -0.6278 -1.1980
  262MOL0     C34515   0.230   2.553   4.673 -0.0319  0.0072  0.0580
  262MOL0     C34516   0.152   2.590   4.588 -0.5848 -0.0926  0.6133
  262MOL0     C34517   0.340   2.846   5.322 -0.8330  0.1983  0.5249
  262MOL0     C34518   0.378   2.873   5.454 -0.9015  0.6164 -0.8999
  262MOL0     H34519   0.396   2.822   5.960 -2.3990  1.1722 -2.7540
  262MOL0     H34520   0.411   2.923   6.167  3.6266  1.0737  2.1898
  262MOL0     H34521   0.399   3.060   6.341 -0.7362  1.5593  0.3242
  262MOL0     H34522   0.287   3.170   6.271 -0.8290 -1.1853  1.3164
  262MOL0     H34523   0.322   3.220   6.494 -0.5630  0.9534 -2.0587
  262MOL0     H34524   0.391   3.353   6.398  0.3002 -0.6272 -2.4561
  262MOL0     H34525   0.618   3.206   6.441  2.0631  2.6392  1.0075
  262MOL0     H34526   0.517   3.128   6.577 -0.5802  0.6356 -0.5484
  262MOL0     H34527   0.551   3.432   6.566 -0.5936  0.9124  1.5241
  262MOL0     H34528   0.512   3.334   6.704 -1.3913 -0.3588 -0.7812
  262MOL0     H34529   0.761   3.336   6.551 -0.8622 -0.2542 -0.7355
  262MOL0     H34530   0.732   3.241   6.705  0.1202 -0.4073 -0.5773
  262MOL0     H34531   0.690   3.487   6.791  1.0834  1.5370  1.6491
  262MOL0     H34532   0.734   3.541   6.633  0.9321  0.1385 -0.1042
  262MOL0     H34533   0.930   3.547   6.804 -2.8442  0.3196  0.3311
  262MOL0     H34534   0.928   3.361   6.799  1.2154 -1.2192 -1.3853
  262MOL0     H34535   0.970   3.539   6.557 -0.6690  1.1539 -0.7774
  262MOL0     H34536   0.998   3.365   6.578  0.2636 -0.3165  1.1327
  262MOL0     H34537   1.166   3.714   6.600 -1.1749 -1.5838 -0.6758
  262MOL0     H34538   1.484   3.682   6.699 -3.1082 -2.0066  1.5692
  262MOL0     H34539   1.423   3.725   6.536 -2.4014  0.0555  0.4446
  262MOL0     H34540   1.575   3.451   6.586 -0.7856  1.5252  2.0929
  262MOL0     H34541   1.675   3.587   6.566 -0.5061  0.9763 -1.2811
  262MOL0     H34542   1.455   3.530   6.367 -0.5934 -2.7295  1.6057
  262MOL0     H34543   1.602   3.625   6.343 -0.0820 -1.3687 -2.6838
  262MOL0     H34544   1.608   3.393   6.242 -0.6070  1.4245  0.2593
  262MOL0     H34545   1.621   3.330   6.408  5.5054 -1.4540 -0.4467
  262MOL0     H34546   1.713   3.179   6.247  0.1085 -1.1496  1.4621
  262MOL0     H34547   1.859   3.022   6.146  2.6218 -1.1963  0.7973
  262MOL0     H34548   2.242   2.763   6.075 -2.4952 -0.2810  2.3778
  262MOL0     H34549   2.387   2.592   6.122 -1.0357  0.6364  1.4733
  262MOL0     H34550   2.749   2.690   6.201  1.0231  0.8329  1.7152
  262MOL0     H34551   2.788   2.519   6.225  1.7845 -0.7440  2.3368
  262MOL0     H34552   2.807   2.539   6.449 -1.0394  0.5150  0.3878
  262MOL0     H34553   2.743   2.708   6.458  1.3986  0.7589  0.1335
  262MOL0     H34554   2.980   2.711   6.481 -2.7422 -3.0959  1.3017
  262MOL0     H34555   2.943   2.791   6.335  0.1174  2.8262  3.9646
  262MOL0     H34556   3.049   2.504   6.395  0.1459  0.9690  0.6566
  262MOL0     H34557   2.994   2.534   6.234 -3.6903 -1.0691  1.5858
  262MOL0     H34558   3.229   2.663   6.371 -0.7793  2.8550 -0.6957
  262MOL0     H34559   3.148   2.738   6.245 -1.0125 -0.2373 -1.8109
  262MOL0     H34560   3.333   2.603   6.172 -0.1543  0.5859 -0.6045
  262MOL0     H34561   3.188   2.535   6.088  0.3002 -0.6785 -0.3725
  262MOL0     H34562   3.219   2.375   6.327 -0.7846  0.1367  0.1509
  262MOL0     H34563   3.184   2.342   6.167 -0.1307  0.9652 -1.1745
  262MOL0     H34564   3.406   2.246   6.247 -1.7760 -0.1140 -1.8542
  262MOL0     H34565   3.468   2.414   6.267 -0.4223 -0.5499 -0.2276
  262MOL0     H34566   2.608   2.856   6.390 -1.0311 -0.5009  0.9649
  262MOL0     H34567   2.458   3.037   6.317 -4.4256  0.8629 -2.7227
  262MOL0     H34568   2.193   3.241   6.266 -0.6923 -0.6383 -3.6462
  262MOL0     H34569   2.063   3.431   6.334 -3.1784  1.3023  1.8695
  262MOL0     H34570   0.531   3.298   5.956 -1.4546  0.6753  0.5248
  262MOL0     H34571   0.515   3.160   5.746 -3.0879 -1.6322 -1.2587
  262MOL0     H34572   0.722   2.842   5.427  0.2027  2.2001  0.4356
  262MOL0     H34573   0.664   2.798   5.194  3.6046  3.2113  2.4895
  262MOL0     H34574   0.562   2.697   4.987  0.4435  1.4803 -2.1887
  262MOL0     H34575   0.536   2.868   4.958  2.5226 -1.5963 -1.5268
  262MOL0     H34576   0.319   2.802   4.863 -0.1319  1.0000  1.8712
  262MOL0     H34577   0.457   2.739   4.777  0.0486  1.3245  0.7478
  262MOL0     H34578   0.254   2.594   4.963  0.3728  4.6772  1.1878
  262MOL0     H34579   0.408   2.538   4.968 -1.5537 -1.4271  1.4409
  262MOL0     H34580   0.425   2.505   4.721 -0.6601 -1.1591 -1.5022
  262MOL0     H34581   0.305   2.395   4.788 -0.5353 -0.2372  1.3387
  262MOL0     H34582   0.083   2.625   4.515 -0.0483  1.4210  0.8056
  262MOL0     H34583   0.236   2.862   5.293 -0.5253  0.8272 -0.2847
  262MOL0     H34584   0.311   2.903   5.534 -1.1418  0.9237 -1.2146
  263MOL0     O34585   8.841   6.143   3.622  0.4841  0.6694 -0.7632
  263MOL0     C34586   8.877   6.149   3.738 -0.7565 -0.3326 -0.3250
  263MOL0     O34587   8.977   6.222   3.794 -0.2928  0.6320 -0.4141
  263MOL0     C34588   9.097   6.245   3.738 -0.1522  1.0304  0.5642
  263MOL0     C34589   9.140   6.171   3.628  0.1201  0.4464  0.0760
  263MOL0     C34590   9.256   6.211   3.563 -0.4005  0.4546  1.3384
  263MOL0     C34591   9.332   6.323   3.594 -0.0732 -0.0004  0.5486
  263MOL0     O34592   9.444   6.356   3.527  0.6986 -0.1546 -0.5085
  263MOL0     C34593   9.466   6.489   3.469  0.2981  0.3605 -0.5055
  263MOL0     C34594   9.611   6.496   3.411  0.1594  0.1012 -0.2707
  263MOL0     C34595   9.661   6.642   3.392 -0.2766  0.2779 -0.0492
  263MOL0     C34596   9.802   6.637   3.346 -0.0829  0.1021 -0.5277
  263MOL0     C34597   9.849   6.698   3.211  0.7556 -0.2241 -0.4960
  263MOL0     C34598   9.748   6.664   3.103 -0.5089 -0.7267 -0.3266
  263MOL0     C34599   9.795   6.713   2.970  0.0724  0.2130  1.2082
  263MOL0     C34600   9.769   6.867   2.955  0.3602 -0.0124  0.3061
  263MOL0     N34601   9.831   6.910   2.827 -0.1804 -0.2115  0.0238
  263MOL0     C34602   9.920   6.842   2.753  0.0026  0.0884  0.1638
  263MOL0     C34603   9.932   6.918   2.639 -0.3289 -0.4098  1.4084
  263MOL0     C34604  10.034   6.907   2.529  0.7087 -0.0953  0.3054
  263MOL0     C34605  10.003   6.798   2.431 -0.1778  0.2260 -1.3535
  263MOL0     C34606  10.128   6.765   2.349 -0.7728  0.5069 -1.0092
  263MOL0     C34607  10.104   6.631   2.276  0.0271 -0.0663  0.3884
  263MOL0     O34608  10.223   6.588   2.219 -0.3981  0.5938  0.6021
  263MOL0     C34609  10.219   6.486   2.129  0.3225 -0.0103  0.4220
  263MOL0     C34610  10.114   6.396   2.106 -0.5047  0.4897 -0.3558
  263MOL0     C34611  10.130   6.288   2.018  0.2980 -0.4259  0.1100
  263MOL0     C34612  10.249   6.276   1.948  0.2402  0.2888 -0.2495
  263MOL0     C34613  10.270   6.163   1.852  0.4039  0.0516  0.4245
  263MOL0     O34614  10.401   6.140   1.807  0.0663  0.3398 -0.3435
  263MOL0     C34615  10.434   6.032   1.725  0.0976 -0.2617 -0.7336
  263MOL0     C34616  10.387   5.904   1.734 -0.3128 -0.3879  0.4815
  263MOL0     C34617  10.434   5.806   1.649 -0.7276  0.0195  0.3677
  263MOL0     C34618  10.527   5.844   1.543 -0.2302 -0.4873  0.6774
  263MOL0     O34619  10.574   5.754   1.454 -0.2481 -0.7456 -0.4295
  263MOL0     C34620  10.512   5.628   1.441  0.5092 -0.2044  0.5442
  263MOL0     C34621  10.569   5.580   1.302 -0.1882  0.2530 -0.5164
  263MOL0     C34622  10.707   5.504   1.320  0.0414 -0.1892 -0.6305
  263MOL0     C34623  10.677   5.357   1.362  0.0179  0.8522 -0.2765
  263MOL0     C34624  10.804   5.277   1.383 -0.1630  0.2439  0.3712
  263MOL0     C34625  10.766   5.139   1.439  0.1105 -0.1378  0.2447
  263MOL0     C34626  10.874   5.044   1.467  0.3313  0.1230  0.2918
  263MOL0     C34627  10.996   5.093   1.546  0.1989 -0.2492  0.5382
  263MOL0    Cl34628  11.097   4.953   1.604  0.0189  0.4115  0.1561
  263MOL0     C34629  10.589   5.967   1.548 -0.1974 -0.5384  0.1011
  263MOL0     C34630  10.540   6.060   1.643 -0.1671  0.1107  0.4721
  263MOL0     O34631  10.169   6.096   1.815  0.0413 -0.1226  0.4786
  263MOL0     C34632  10.347   6.371   1.959 -0.6507  0.0924  0.1468
  263MOL0     C34633  10.334   6.467   2.057  0.2391 -0.5405  0.6997
  263MOL0     N34634   9.837   7.019   2.630 -0.6625 -0.2317  0.0431
  263MOL0     N34635   9.781   7.010   2.750  0.7665  0.0403 -0.7343
  263MOL0     C34636   9.291   6.384   3.711  0.0858  0.0079 -0.2714
  263MOL0     C34637   9.172   6.350   3.785 -1.2465 -0.0830 -0.8142
  263MOL0     C34638   8.800   6.073   3.840  0.1808  0.4516  0.0178
  263MOL0     C34639   8.841   6.065   3.969  0.1088  0.6083 -0.3708
  263MOL0     C34640   8.770   5.981   4.060 -0.5383 -0.6215 -0.3727
  263MOL0     C34641   8.650   5.915   4.027  0.5762  0.1141  0.6554
  263MOL0     O34642   8.576   5.831   4.116 -0.0024  0.5579  0.1623
  263MOL0     C34643   8.473   5.745   4.057  0.0230 -0.1636  0.1346
  263MOL0     C34644   8.426   5.629   4.142 -1.1089 -0.4581  0.4639
  263MOL0     C34645   8.319   5.548   4.059  0.1553 -0.5348 -1.0868
  263MOL0     C34646   8.363   5.409   4.017  0.4448  0.7908  0.2696
  263MOL0     C34647   8.450   5.424   3.900 -0.4754 -0.3037  0.4413
  263MOL0     C34648   8.527   5.453   3.805 -0.4340 -0.1539 -0.2614
  263MOL0     C34649   8.607   5.945   3.895 -0.1622 -0.3465 -0.5954
  263MOL0     C34650   8.681   6.022   3.810  0.0561  0.1287 -0.0054
  263MOL0     H34651   9.086   6.087   3.587  1.2933  1.3982 -3.8128
  263MOL0     H34652   9.289   6.140   3.488  0.1962  2.5040 -0.4114
  263MOL0     H34653   9.463   6.559   3.553  1.9878  0.2479 -0.3114
  263MOL0     H34654   9.394   6.518   3.391  1.4780  0.7421 -1.4996
  263MOL0     H34655   9.619   6.447   3.313 -0.9605 -0.5455 -0.0565
  263MOL0     H34656   9.672   6.449   3.488 -2.2005 -1.3717  0.7984
  263MOL0     H34657   9.644   6.697   3.486  0.2208  4.0421 -1.9750
  263MOL0     H34658   9.598   6.700   3.324 -0.4861 -0.4608 -0.4939
  263MOL0     H34659   9.868   6.683   3.420 -0.4321  0.2304 -0.2964
  263MOL0     H34660   9.830   6.532   3.342 -1.1299 -0.2768  1.2199
  263MOL0     H34661   9.954   6.680   3.190  0.9490 -1.5274  1.3474
  263MOL0     H34662   9.839   6.805   3.232  2.6028  0.2029 -1.6016
  263MOL0     H34663   9.653   6.710   3.130 -1.5811 -4.2837  2.9063
  263MOL0     H34664   9.738   6.556   3.090 -1.0572 -0.8876  1.1900
  263MOL0     H34665   9.902   6.695   2.966  0.2589  1.0389  2.1648
  263MOL0     H34666   9.742   6.659   2.891  0.2250  0.7553  0.7207
  263MOL0     H34667   9.812   6.931   3.033 -0.0355  1.9718 -1.0186
  263MOL0     H34668   9.661   6.883   2.963  0.3060 -0.6463  0.8463
  263MOL0     H34669   9.977   6.752   2.772 -0.1519 -0.7324 -2.8237
  263MOL0     H34670  10.131   6.899   2.578  0.5088 -1.6710  0.5151
  263MOL0     H34671  10.015   7.000   2.475  0.7502  0.6202  1.4864
  263MOL0     H34672   9.921   6.811   2.359 -1.3158 -2.3440 -0.6699
  263MOL0     H34673   9.981   6.707   2.489 -3.7860  1.8305  0.0810
  263MOL0     H34674  10.137   6.849   2.280 -0.4998  2.4318  1.2338
  263MOL0     H34675  10.216   6.758   2.415 -0.6639 -2.2413 -1.3320
  263MOL0     H34676  10.030   6.654   2.199  1.1583 -0.4965 -0.8663
  263MOL0     H34677  10.065   6.549   2.337 -0.7885 -1.7800 -2.2571
  263MOL0     H34678  10.016   6.415   2.149 -1.9082  3.6989 -4.3770
  263MOL0     H34679  10.048   6.221   1.994  1.4627 -1.0762 -2.2802
  263MOL0     H34680  10.332   5.865   1.819  0.6583 -2.0112  0.4084
  263MOL0     H34681  10.399   5.703   1.653  0.2716 -0.3486  0.0836
  263MOL0     H34682  10.403   5.638   1.434  0.2738 -2.5653  0.0345
  263MOL0     H34683  10.522   5.572   1.534 -0.6467  2.3227  2.3038
  263MOL0     H34684  10.578   5.665   1.233  2.2603  0.6104  0.1506
  263MOL0     H34685  10.500   5.506   1.260  0.9744 -1.0428 -0.2261
  263MOL0     H34686  10.774   5.564   1.382 -1.1653  0.3714  0.1757
  263MOL0     H34687  10.754   5.509   1.221 -1.8867  0.5294 -1.5717
  263MOL0     H34688  10.626   5.357   1.459  0.0063 -1.5479 -0.2195
  263MOL0     H34689  10.616   5.308   1.286 -1.8224  1.6630  0.6143
  263MOL0     H34690  10.880   5.330   1.440 -1.0248 -0.5423  2.3190
  263MOL0     H34691  10.843   5.276   1.281 -0.2631 -0.2340  0.3348
  263MOL0     H34692  10.689   5.097   1.373 -1.8540  2.0734  0.9646
  263MOL0     H34693  10.713   5.153   1.534  0.0176  1.2744  0.0148
  263MOL0     H34694  10.825   4.956   1.510 -2.3945 -1.1271 -4.6429
  263MOL0     H34695  10.912   5.020   1.368 -0.5623  4.2584 -1.2065
  263MOL0     H34696  10.960   5.138   1.639 -3.9513  1.4400 -1.6081
  263MOL0     H34697  11.054   5.162   1.485 -0.8703  1.7187  1.6692
  263MOL0     H34698  10.675   5.996   1.488 -1.6068 -0.3800 -1.9666
  263MOL0     H34699  10.583   6.155   1.673  1.9028 -0.7418  0.4034
  263MOL0     H34700  10.445   6.370   1.913 -0.7162  2.1979 -0.1452
  263MOL0     H34701  10.415   6.537   2.075 -0.4686  0.5719 -0.3413
  263MOL0     H34702   9.360   6.458   3.750 -1.6316  1.1701  0.7259
  263MOL0     H34703   9.160   6.422   3.866 -0.6037  0.0976 -0.8733
  263MOL0     H34704   8.936   6.107   4.003 -0.2206 -0.1421  1.5850
  263MOL0     H34705   8.782   5.972   4.167  1.0851  2.4731 -0.1769
  263MOL0     H34706   8.504   5.706   3.959  0.0695  1.7527 -0.6525
  263MOL0     H34707   8.389   5.810   4.033 -1.4008 -2.1710 -0.6419
  263MOL0     H34708   8.515   5.569   4.164  1.6283  3.3432  0.8025
  263MOL0     H34709   8.399   5.659   4.243 -0.6131 -0.0573  0.4875
  263MOL0     H34710   8.281   5.607   3.975 -0.9993  0.9492  0.3961
  263MOL0     H34711   8.230   5.531   4.122  1.7514 -1.3649  1.0740
  263MOL0     H34712   8.412   5.366   4.104 -1.1206  2.2665  1.9723
  263MOL0     H34713   8.284   5.336   3.999  0.2877  0.8467  0.7304
  263MOL0     H34714   8.591   5.485   3.725 -0.7471  3.6195  0.7876
  263MOL0     H34715   8.515   5.908   3.850  0.1355 -0.9574 -0.7227
  263MOL0     H34716   8.642   6.054   3.714  0.5243  3.2309  0.7106
  264MOL0     O34717   2.001   1.149   4.795  0.2854 -0.4332  0.0898
  264MOL0     C34718   2.103   1.181   4.749  0.0908  0.4858 -0.5706
  264MOL0     O34719   2.144   1.313   4.758 -0.3635 -0.3800  0.6121
  264MOL0     C34720   2.052   1.399   4.821  0.0318 -0.3440 -0.1119
  264MOL0     C34721   2.102   1.489   4.917  0.4930 -0.4490 -0.1872
  264MOL0     C34722   2.018   1.585   4.974  0.6954  0.4005  0.5966
  264MOL0     C34723   1.875   1.588   4.954  0.5387  0.7212  0.0388
  264MOL0     O34724   1.803   1.679   5.025 -0.0414 -0.7518 -0.8362
  264MOL0     C34725   1.658   1.684   5.027 -0.3255  0.1578  0.4217
  264MOL0     C34726   1.620   1.799   5.109  0.6175 -0.0268 -0.4914
  264MOL0     C34727   1.477   1.838   5.116  0.5323 -0.5293 -0.6196
  264MOL0     C34728   1.376   1.718   5.090 -0.1891 -0.1381  0.3439
  264MOL0     C34729   1.229   1.760   5.035 -0.7304  0.4478 -0.9552
  264MOL0     C34730   1.140   1.643   5.037  0.0870  0.1017 -0.5442
  264MOL0     C34731   1.027   1.676   4.949  0.1148 -0.2970 -0.8355
  264MOL0     C34732   0.937   1.798   4.999 -0.4501 -0.6128 -0.0531
  264MOL0     N34733   0.993   1.928   4.954 -0.0939 -0.1448 -0.2392
  264MOL0     C34734   0.998   1.953   4.817 -0.3510  0.6165 -0.0773
  264MOL0     C34735   1.007   2.085   4.808  0.4526  0.1824 -0.5575
  264MOL0     C34736   1.013   2.172   4.696 -0.0356 -0.4069  0.4976
  264MOL0     C34737   1.127   2.148   4.605  0.2165 -0.8435  0.3446
  264MOL0     C34738   1.120   2.228   4.479 -1.0269  0.7310 -0.2519
  264MOL0     C34739   1.257   2.196   4.404 -0.9429  0.0111  0.1988
  264MOL0     O34740   1.281   2.068   4.352  0.9435  0.3522  0.4301
  264MOL0     C34741   1.221   2.022   4.234  0.8308 -0.2556  0.2651
  264MOL0     C34742   1.206   1.886   4.227  0.9078  0.2601 -0.7411
  264MOL0     C34743   1.145   1.816   4.125  0.5207  0.6278  0.4553
  264MOL0     C34744   1.091   1.886   4.018  0.0080 -0.0712  0.5388
  264MOL0     C34745   1.035   1.811   3.895  0.1500 -0.0139 -0.6508
  264MOL0     O34746   1.052   1.681   3.896  0.8489 -0.1088 -0.1615
  264MOL0     C34747   1.053   1.596   3.786  0.3684  1.0623  0.5639
  264MOL0     C34748   0.935   1.582   3.702 -0.2971  0.2678 -0.2852
  264MOL0     C34749   0.940   1.470   3.609 -0.1395  0.5896  0.0254
  264MOL0     C34750   1.055   1.394   3.589  0.3499 -0.6435  0.1189
  264MOL0     O34751   1.071   1.305   3.495 -0.4523 -0.9793  1.3379
  264MOL0     C34752   1.075   1.359   3.352 -0.7449  0.8487 -0.9978
  264MOL0     C34753   0.989   1.287   3.263 -0.0967 -0.8809 -0.5339
  264MOL0     C34754   1.018   1.137   3.255  0.3461 -0.5378 -0.2083
  264MOL0     C34755   0.931   1.078   3.143 -0.5480  0.7416 -0.3084
  264MOL0     C34756   0.786   1.045   3.183  0.4254  0.1215  0.3810
  264MOL0     C34757   0.722   0.944   3.079  0.1649  0.1926  0.0840
  264MOL0     C34758   0.582   0.906   3.110 -0.4728 -0.0936 -0.8572
  264MOL0     C34759   0.554   0.787   3.026 -0.0105  0.4603 -0.4158
  264MOL0    Cl34760   0.532   0.835   2.859  0.3530 -0.6129  0.7018
  264MOL0     C34761   1.164   1.414   3.677 -0.1171 -0.3010  0.2844
  264MOL0     C34762   1.153   1.504   3.781  0.2798 -0.4735  0.2199
  264MOL0     O34763   0.995   1.884   3.804  0.0845  0.1976  0.2052
  264MOL0     C34764   1.106   2.024   4.021 -0.8677 -0.8090  0.2854
  264MOL0     C34765   1.164   2.091   4.129  0.0278  0.3809  0.3040
  264MOL0     N34766   1.000   2.132   4.935 -0.3314  1.1987  0.2889
  264MOL0     N34767   1.007   2.041   5.026 -0.2436  0.4979  0.3719
  264MOL0     C34768   1.829   1.503   4.848  0.4615  0.4038  0.1788
  264MOL0     C34769   1.920   1.422   4.775  0.3233  0.3649 -0.1444
  264MOL0     C34770   2.208   1.079   4.700 -0.4790 -0.7078  0.3338
  264MOL0     C34771   2.337   1.117   4.650 -0.5779  0.5651 -0.0656
  264MOL0     C34772   2.436   1.030   4.618 -0.5789 -0.6163  0.7989
  264MOL0     C34773   2.401   0.892   4.624  0.1746 -0.0758 -0.2018
  264MOL0     O34774   2.500   0.805   4.581 -0.5218 -0.1271  0.4507
  264MOL0     C34775   2.517   0.681   4.654  0.1784 -0.1183  0.6494
  264MOL0     C34776   2.522   0.698   4.804 -0.1954 -0.8536  0.3152
  264MOL0     C34777   2.593   0.572   4.872 -0.5180  1.5433  0.5995
  264MOL0     C34778   2.743   0.567   4.877  0.9237  0.0119  0.1947
  264MOL0     C34779   2.796   0.677   4.953  0.1682 -0.1865  0.2900
  264MOL0     C34780   2.845   0.770   5.007  0.4213 -0.0035  0.3951
  264MOL0     C34781   2.270   0.849   4.660  0.0388 -0.2503  0.5594
  264MOL0     C34782   2.180   0.946   4.712  0.1815 -0.8120  0.0361
  264MOL0     H34783   2.202   1.486   4.959  0.4536  1.4810  0.1371
  264MOL0     H34784   2.060   1.660   5.041  1.3314 -0.6498  1.4200
  264MOL0     H34785   1.614   1.596   5.075 -1.1033  1.4302  2.1632
  264MOL0     H34786   1.616   1.684   4.926 -3.2343 -0.5494  1.5268
  264MOL0     H34787   1.680   1.885   5.077  3.8823 -2.1052 -0.3738
  264MOL0     H34788   1.659   1.780   5.210  1.1510  2.1183 -0.2302
  264MOL0     H34789   1.452   1.927   5.058  2.4894 -0.2135 -1.0548
  264MOL0     H34790   1.470   1.877   5.218 -2.4017  1.9086 -1.6018
  264MOL0     H34791   1.409   1.646   5.014 -1.4719 -2.1209  1.5864
  264MOL0     H34792   1.375   1.659   5.182 -1.9741 -1.8390 -0.6854
  264MOL0     H34793   1.250   1.805   4.938  2.9146  0.1324 -0.4666
  264MOL0     H34794   1.201   1.843   5.101  2.1492  0.9522 -0.2392
  264MOL0     H34795   1.101   1.616   5.136 -0.7817 -1.3753 -1.2521
  264MOL0     H34796   1.198   1.555   5.007  1.5864 -0.2921  3.0035
  264MOL0     H34797   1.079   1.692   4.854  1.6074  2.6655  0.3556
  264MOL0     H34798   0.968   1.583   4.948  0.1411 -0.4673  2.5586
  264MOL0     H34799   0.938   1.793   5.108 -0.9328  1.8600  0.1390
  264MOL0     H34800   0.844   1.773   4.947 -1.8669 -0.4995  2.2759
  264MOL0     H34801   0.991   1.889   4.729  2.1658 -0.4980  0.4358
  264MOL0     H34802   1.017   2.277   4.725  0.6704  0.2355 -1.6648
  264MOL0     H34803   0.921   2.156   4.639 -0.2274 -1.7993  1.1695
  264MOL0     H34804   1.130   2.047   4.564 -3.6549 -1.2009  0.6039
  264MOL0     H34805   1.217   2.184   4.656 -0.5523  0.2525  0.9783
  264MOL0     H34806   1.037   2.205   4.412 -0.8166  2.4052 -1.1294
  264MOL0     H34807   1.121   2.336   4.494  2.3133  0.9509 -1.2654
  264MOL0     H34808   1.344   2.204   4.471 -2.0764  1.3934  1.5778
  264MOL0     H34809   1.254   2.270   4.324  0.3401  0.4156  0.4982
  264MOL0     H34810   1.242   1.833   4.315 -2.9544  1.5923  1.9275
  264MOL0     H34811   1.128   1.711   4.147  0.9044  0.6883  1.0767
  264MOL0     H34812   0.849   1.647   3.714  0.0398  0.7577 -0.4914
  264MOL0     H34813   0.850   1.447   3.552  0.5437 -3.0292  0.1236
  264MOL0     H34814   1.179   1.365   3.318 -0.1010 -0.7754  0.5236
  264MOL0     H34815   1.035   1.461   3.352 -0.7223  0.8592 -0.2687
  264MOL0     H34816   1.011   1.332   3.166  1.0485 -0.1859  0.0306
  264MOL0     H34817   0.887   1.316   3.289  0.0807  1.4739 -2.2108
  264MOL0     H34818   0.997   1.076   3.343  1.2256  0.9678  1.0933
  264MOL0     H34819   1.125   1.134   3.229  1.0605 -3.3071  2.5489
  264MOL0     H34820   0.942   1.113   3.040 -1.3975  0.0849 -0.6291
  264MOL0     H34821   0.959   0.973   3.132 -0.4638  0.5576  1.4643
  264MOL0     H34822   0.718   1.131   3.185 -3.1896 -2.4806  1.0143
  264MOL0     H34823   0.783   1.000   3.283  0.0108 -0.1902  0.2336
  264MOL0     H34824   0.779   0.851   3.071 -0.3817 -0.0606 -0.9367
  264MOL0     H34825   0.726   0.996   2.983  3.5312 -0.2564 -0.1463
  264MOL0     H34826   0.583   0.864   3.210 -2.1909  1.3770 -0.1684
  264MOL0     H34827   0.503   0.981   3.114 -1.8743 -1.5937  0.5515
  264MOL0     H34828   0.455   0.751   3.056  0.3148 -0.3027 -0.2605
  264MOL0     H34829   0.617   0.699   3.038  2.5880  1.8795 -2.6246
  264MOL0     H34830   1.255   1.356   3.681 -1.1752 -2.0072  1.4356
  264MOL0     H34831   1.226   1.526   3.858  1.3657 -2.0439 -0.3127
  264MOL0     H34832   1.050   2.081   3.948 -1.1253 -0.4792  0.7331
  264MOL0     H34833   1.156   2.199   4.139 -2.3296  0.1531  1.6270
  264MOL0     H34834   1.720   1.505   4.841  0.5787  0.8926 -4.2275
  264MOL0     H34835   1.883   1.360   4.694  0.8652  1.1074 -0.9737
  264MOL0     H34836   2.367   1.220   4.636 -1.7123  0.9307  0.0751
  264MOL0     H34837   2.534   1.044   4.573 -0.5774 -2.0092  0.3219
  264MOL0     H34838   2.615   0.651   4.617 -0.2829 -0.0958 -0.6633
  264MOL0     H34839   2.429   0.619   4.631 -1.1837  2.2063 -0.7650
  264MOL0     H34840   2.565   0.797   4.823 -2.3162  0.5313 -1.6221
  264MOL0     H34841   2.424   0.699   4.852  0.9494  3.3139  3.2512
  264MOL0     H34842   2.565   0.477   4.826  2.1455 -0.8248  3.3502
  264MOL0     H34843   2.562   0.587   4.976  2.5008  2.2373  1.4885
  264MOL0     H34844   2.774   0.476   4.928  2.6704  1.2994  1.5790
  264MOL0     H34845   2.772   0.572   4.771 -3.4511 -3.7021 -1.5173
  264MOL0     H34846   2.903   0.851   5.047  3.2442 -1.8263  0.2703
  264MOL0     H34847   2.243   0.744   4.660 -0.9663 -0.0342 -1.2037
  264MOL0     H34848   2.077   0.928   4.741  0.5862 -1.2321  1.2562
  265MOL0     O34849   5.713   2.784   3.385  0.1314 -0.2461 -0.0174
  265MOL0     C34850   5.744   2.742   3.273 -0.4259  0.1210 -0.1060
  265MOL0     O34851   5.847   2.662   3.252  0.4781 -0.5423 -0.0121
  265MOL0     C34852   5.922   2.613   3.357  0.4855  0.0095 -0.2402
  265MOL0     C34853   5.941   2.474   3.366 -0.7397  0.2982 -0.1620
  265MOL0     C34854   6.027   2.423   3.467  0.6202  0.2357  0.6084
  265MOL0     C34855   6.102   2.507   3.556 -0.3678 -0.0211  0.2406
  265MOL0     O34856   6.184   2.469   3.656  0.5292  0.5256 -0.0868
  265MOL0     C34857   6.241   2.340   3.649 -0.3929  0.1432  0.8233
  265MOL0     C34858   6.367   2.323   3.732  0.1831  0.6048 -0.0232
  265MOL0     C34859   6.327   2.284   3.874 -0.4675 -0.4199 -0.2291
  265MOL0     C34860   6.450   2.283   3.959  0.7959  0.1624 -0.3457
  265MOL0     C34861   6.425   2.225   4.104  0.8459 -0.0252  0.7835
  265MOL0     C34862   6.550   2.238   4.197  1.2906 -1.0734  0.4575
  265MOL0     C34863   6.672   2.164   4.154 -0.1595  0.1210  0.5168
  265MOL0     C34864   6.774   2.140   4.265 -0.6977 -0.4835 -1.1355
  265MOL0     N34865   6.805   2.267   4.337 -0.7892 -0.0723 -0.3418
  265MOL0     C34866   6.866   2.374   4.280 -0.2052  0.3007  0.7719
  265MOL0     C34867   6.892   2.460   4.382 -0.0583 -1.3635 -0.0586
  265MOL0     C34868   6.952   2.600   4.384 -0.9469 -0.2469  1.0729
  265MOL0     C34869   6.856   2.699   4.325 -0.7317 -0.4545 -0.7484
  265MOL0     C34870   6.740   2.716   4.436  0.2483 -0.3154 -0.2376
  265MOL0     C34871   6.628   2.813   4.403  0.6810  0.5093  0.2321
  265MOL0     O34872   6.697   2.937   4.363  0.3016 -0.2214  0.8353
  265MOL0     C34873   6.637   3.033   4.294 -0.0975 -0.0995  1.2620
  265MOL0     C34874   6.711   3.150   4.267 -0.5146  0.0403  0.2310
  265MOL0     C34875   6.661   3.248   4.177  0.2327 -0.0576 -1.0374
  265MOL0     C34876   6.540   3.231   4.117 -0.4514 -0.4731  0.3047
  265MOL0     C34877   6.496   3.338   4.018 -0.7101 -0.1448  0.5698
  265MOL0     O34878   6.380   3.318   3.959 -0.8643 -0.4672  0.5461
  265MOL0     C34879   6.340   3.393   3.855  0.1820 -0.1299  0.9732
  265MOL0     C34880   6.312   3.341   3.721  0.5589  0.4238 -0.6397
  265MOL0     C34881   6.273   3.426   3.614  0.2406  0.9061  0.5853
  265MOL0     C34882   6.239   3.560   3.636  0.0770  0.6481  0.2261
  265MOL0     O34883   6.190   3.647   3.543  0.6989  0.1478  0.3127
  265MOL0     C34884   6.263   3.645   3.409 -0.1874 -0.1329  0.1128
  265MOL0     C34885   6.271   3.789   3.362 -0.1362 -0.1508 -0.8248
  265MOL0     C34886   6.385   3.862   3.432  0.5947  0.0329  0.1134
  265MOL0     C34887   6.370   4.017   3.421  0.0809  0.0495  1.1592
  265MOL0     C34888   6.374   4.055   3.273 -0.1213 -0.0452  0.3014
  265MOL0     C34889   6.367   4.206   3.266 -0.0014  1.3970  0.8711
  265MOL0     C34890   6.374   4.243   3.107 -0.3621 -0.2549  0.1219
  265MOL0     C34891   6.320   4.384   3.062  0.5349 -0.4403 -0.3324
  265MOL0    Cl34892   6.165   4.441   3.134 -0.0324 -0.5053  0.8105
  265MOL0     C34893   6.264   3.612   3.767 -1.2470 -0.5554  1.5183
  265MOL0     C34894   6.326   3.528   3.866  0.1872 -1.0689 -0.4093
  265MOL0     O34895   6.578   3.428   3.991  0.0409 -0.5610 -0.2251
  265MOL0     C34896   6.466   3.121   4.146  0.0346  0.2167  0.3366
  265MOL0     C34897   6.505   3.030   4.239  0.0326 -0.5208 -0.2000
  265MOL0     N34898   6.862   2.389   4.502  1.0635 -0.4317  0.0477
  265MOL0     N34899   6.802   2.278   4.472  0.5605 -0.5324 -0.3741
  265MOL0     C34900   6.076   2.646   3.542  0.1058  0.4319  0.0995
  265MOL0     C34901   5.991   2.700   3.445  0.0773 -0.2828 -0.6124
  265MOL0     C34902   5.643   2.771   3.169 -0.2850  0.5791  0.6672
  265MOL0     C34903   5.657   2.696   3.043 -0.1746 -0.3813 -1.3051
  265MOL0     C34904   5.551   2.697   2.951 -0.1515 -0.1829 -0.5273
  265MOL0     C34905   5.442   2.784   2.979  0.0978 -0.5690 -0.0422
  265MOL0     O34906   5.352   2.819   2.880  0.4640  0.2208  0.2178
  265MOL0     C34907   5.313   2.730   2.773 -0.1999 -0.7824  0.8122
  265MOL0     C34908   5.183   2.779   2.716  0.5747 -0.1170 -0.4229
  265MOL0     C34909   5.170   2.925   2.668 -0.4764  0.1364  0.7084
  265MOL0     C34910   5.169   2.946   2.510 -0.3599 -0.3494 -0.0928
  265MOL0     C34911   5.303   2.901   2.454  0.4552 -0.0073 -0.3529
  265MOL0     C34912   5.405   2.859   2.410  0.1444  0.6585  0.0585
  265MOL0     C34913   5.435   2.866   3.091 -0.3671  0.1677 -1.0475
  265MOL0     C34914   5.534   2.857   3.191  0.8688 -0.3957 -1.1302
  265MOL0     H34915   5.892   2.402   3.301  0.0003 -1.4434  1.1133
  265MOL0     H34916   6.047   2.317   3.482 -1.3002 -0.2440  0.1146
  265MOL0     H34917   6.259   2.316   3.544  0.1041  2.6898  0.2460
  265MOL0     H34918   6.163   2.273   3.684 -2.9956  2.6264  0.1158
  265MOL0     H34919   6.426   2.415   3.737  0.7858  0.1533  2.0821
  265MOL0     H34920   6.433   2.251   3.682 -0.2903  0.0733  0.1129
  265MOL0     H34921   6.277   2.187   3.883  0.0625 -0.5025  3.8018
  265MOL0     H34922   6.253   2.354   3.914  0.1439 -0.2094  0.5454
  265MOL0     H34923   6.525   2.225   3.904 -0.4352 -0.7807 -1.0914
  265MOL0     H34924   6.491   2.384   3.964  3.2121 -0.6987 -1.3661
  265MOL0     H34925   6.406   2.117   4.104  0.6117  0.0119  0.2872
  265MOL0     H34926   6.335   2.283   4.127  1.1372  0.4093  0.8474
  265MOL0     H34927   6.514   2.203   4.294 -3.4984 -1.3476 -1.1409
  265MOL0     H34928   6.572   2.345   4.207  1.4134 -1.0763  0.2237
  265MOL0     H34929   6.637   2.065   4.123 -1.1400  0.2423  1.1945
  265MOL0     H34930   6.723   2.219   4.074  0.8705  1.2773  1.9059
  265MOL0     H34931   6.874   2.110   4.229 -0.5085 -2.0228  0.4934
  265MOL0     H34932   6.744   2.065   4.340 -0.0242 -1.4223 -1.7733
  265MOL0     H34933   6.889   2.391   4.175  2.2957 -0.6740  1.0868
  265MOL0     H34934   7.043   2.601   4.324 -0.3252 -0.5941  1.9910
  265MOL0     H34935   6.994   2.636   4.479 -0.6102  2.8810 -0.1446
  265MOL0     H34936   6.821   2.661   4.229 -1.6216 -2.9146  0.4377
  265MOL0     H34937   6.904   2.797   4.329  1.6927 -1.5902  1.8540
  265MOL0     H34938   6.706   2.616   4.466  1.3009 -0.2698  1.2389
  265MOL0     H34939   6.792   2.740   4.529 -0.3851  0.9183 -0.1822
  265MOL0     H34940   6.548   2.827   4.477  0.9549 -1.5955  1.0087
  265MOL0     H34941   6.567   2.778   4.318 -0.6865  2.6847  0.2369
  265MOL0     H34942   6.814   3.153   4.302 -0.0847  0.0540 -0.9867
  265MOL0     H34943   6.725   3.336   4.177  1.6715 -0.8676  3.2439
  265MOL0     H34944   6.323   3.233   3.717  1.7814  0.4497  1.0427
  265MOL0     H34945   6.261   3.392   3.512  0.5898 -0.7525  1.0672
  265MOL0     H34946   6.199   3.592   3.338  1.4186 -0.9128 -0.8061
  265MOL0     H34947   6.361   3.597   3.414 -0.2742 -0.1913  1.5914
  265MOL0     H34948   6.178   3.845   3.375 -0.1680  0.2772 -2.6763
  265MOL0     H34949   6.299   3.794   3.256  1.5220 -1.2724 -0.4737
  265MOL0     H34950   6.477   3.825   3.387 -0.0675  0.9291 -2.1034
  265MOL0     H34951   6.397   3.831   3.536 -2.9441  2.3502  1.4087
  265MOL0     H34952   6.276   4.043   3.472 -1.0652 -0.5063 -0.6044
  265MOL0     H34953   6.450   4.077   3.467 -0.6221  2.0183 -0.0604
  265MOL0     H34954   6.292   4.014   3.213  0.7344  0.3187 -1.1514
  265MOL0     H34955   6.457   4.007   3.221 -0.1160 -1.5516  1.6240
  265MOL0     H34956   6.448   4.258   3.318  0.6591 -0.0625  1.3666
  265MOL0     H34957   6.270   4.236   3.308 -1.6077 -1.8434 -0.1632
  265MOL0     H34958   6.476   4.216   3.076 -0.9604 -0.0151 -2.2004
  265MOL0     H34959   6.309   4.171   3.057 -0.0382 -0.0269 -0.6452
  265MOL0     H34960   6.301   4.367   2.956  0.6091 -0.2025 -0.3838
  265MOL0     H34961   6.390   4.466   3.078  2.3018 -1.3847 -2.6645
  265MOL0     H34962   6.232   3.713   3.788  1.3020  0.5168  0.6183
  265MOL0     H34963   6.357   3.580   3.956  1.8705  0.0485 -1.5653
  265MOL0     H34964   6.368   3.117   4.099 -0.1749  0.1732  0.7693
  265MOL0     H34965   6.440   2.943   4.251 -0.2835 -0.5149 -1.7819
  265MOL0     H34966   6.126   2.701   3.621 -4.1254  3.5413  0.9506
  265MOL0     H34967   5.987   2.806   3.421 -2.5434 -0.3494 -0.7191
  265MOL0     H34968   5.736   2.626   3.018 -1.0947 -1.8931 -0.2078
  265MOL0     H34969   5.557   2.652   2.852  3.4859  1.2889 -1.1297
  265MOL0     H34970   5.299   2.627   2.806 -2.6114 -0.2934  1.5127
  265MOL0     H34971   5.395   2.733   2.700  0.0078  1.4190  1.0840
  265MOL0     H34972   5.157   2.708   2.637 -2.6594 -1.2908  1.4692
  265MOL0     H34973   5.097   2.754   2.778 -2.0825  2.2195 -2.8179
  265MOL0     H34974   5.256   2.985   2.702 -0.1079  1.5385 -2.4071
  265MOL0     H34975   5.075   2.963   2.706 -2.2932 -2.2189 -1.2133
  265MOL0     H34976   5.086   2.884   2.473 -2.6916  3.0959 -1.1679
  265MOL0     H34977   5.156   3.052   2.486  1.3759  0.3507  1.8026
  265MOL0     H34978   5.490   2.833   2.350  1.1807  0.6541  1.4740
  265MOL0     H34979   5.356   2.939   3.107 -0.9847 -0.1876 -2.4049
  265MOL0     H34980   5.515   2.914   3.281 -4.3373  2.0528 -3.3482
  266MOL0     O34981  10.995   9.360   7.407  0.3537 -0.1459  0.3641
  266MOL0     C34982  11.003   9.443   7.315 -0.4111  0.1564  0.0357
  266MOL0     O34983  10.932   9.555   7.290  0.1287  0.1232  0.1824
  266MOL0     C34984  10.865   9.627   7.385 -0.1833  0.4408 -0.3790
  266MOL0     C34985  10.728   9.640   7.382  0.5365  0.9259  0.2591
  266MOL0     C34986  10.652   9.706   7.477 -0.8633  0.1339 -0.1013
  266MOL0     C34987  10.731   9.773   7.583 -1.0017 -0.7798  0.3521
  266MOL0     O34988  10.684   9.862   7.679  0.2985 -0.6499  0.2941
  266MOL0     C34989  10.540   9.876   7.685  0.4351 -0.0824 -1.2254
  266MOL0     C34990  10.496   9.973   7.784  0.5255 -0.6225  0.6392
  266MOL0     C34991  10.346   9.957   7.798  0.1513  0.3863  0.6615
  266MOL0     C34992  10.294  10.051   7.903 -0.1400 -0.7083  0.0147
  266MOL0     C34993  10.142  10.032   7.944 -0.1673  0.2306  0.8730
  266MOL0     C34994  10.098  10.162   8.016 -0.2332 -0.2702  0.8337
  266MOL0     C34995   9.958  10.204   7.969 -0.3477 -0.7481 -0.8952
  266MOL0     C34996   9.920  10.342   8.029  0.7441  0.9761  0.5175
  266MOL0     N34997   9.784  10.362   7.999  0.4094 -0.1871  1.1810
  266MOL0     C34998   9.679  10.300   8.055  0.0855 -0.3317  0.1865
  266MOL0     C34999   9.584  10.305   7.962  0.1921 -0.1679 -1.6432
  266MOL0     C35000   9.447  10.242   7.984  0.5972 -0.0813  0.2220
  266MOL0     C35001   9.335  10.354   7.966 -0.1933 -0.4009  0.3897
  266MOL0     C35002   9.375  10.489   8.051  0.2911  0.5976  0.3542
  266MOL0     C35003   9.265  10.594   8.034 -1.3639 -0.6049 -0.3173
  266MOL0     O35004   9.159  10.573   8.138 -0.3887  0.2512  0.1963
  266MOL0     C35005   9.033  10.521   8.113  0.8618 -1.0200  0.2640
  266MOL0     C35006   8.986  10.483   7.985 -0.1980 -0.0888  1.5827
  266MOL0     C35007   8.852  10.448   7.964  0.0582  0.8725  0.6545
  266MOL0     C35008   8.764  10.436   8.076  1.2491 -1.1017 -0.0727
  266MOL0     C35009   8.624  10.393   8.055 -0.9227  0.7326 -0.9624
  266MOL0     O35010   8.542  10.351   8.154  0.0135  0.0050  0.6699
  266MOL0     C35011   8.412  10.305   8.130  0.0732  0.1617 -0.2178
  266MOL0     C35012   8.295  10.382   8.160  0.5276 -0.5646 -0.3501
  266MOL0     C35013   8.170  10.336   8.127 -0.0001 -0.7966  0.8584
  266MOL0     C35014   8.152  10.225   8.058  0.7598  1.7603 -0.1115
  266MOL0     O35015   8.019  10.199   8.014 -0.0988 -0.8945  0.4799
  266MOL0     C35016   7.992  10.070   7.944 -0.4448  0.1580 -0.8982
  266MOL0     C35017   7.851  10.064   7.880 -0.2888  0.3742  0.4194
  266MOL0     C35018   7.822  10.174   7.781 -0.3759 -0.3874  0.5500
  266MOL0     C35019   7.926  10.200   7.665  0.5475  0.9107  0.5856
  266MOL0     C35020   7.872  10.294   7.556 -1.2986 -0.1687 -0.0774
  266MOL0     C35021   7.979  10.300   7.437  0.8570  0.3331  0.1160
  266MOL0     C35022   7.964  10.424   7.353 -0.0215  0.0175  0.0292
  266MOL0     C35023   8.086  10.475   7.276  0.0362 -0.2647  0.1612
  266MOL0    Cl35024   8.030  10.620   7.182  0.2261 -0.1780 -0.1007
  266MOL0     C35025   8.270  10.139   8.028  0.4679  0.2652 -0.4021
  266MOL0     C35026   8.395  10.187   8.060 -0.5708  0.6507 -0.5056
  266MOL0     O35027   8.592  10.394   7.935  1.0309  0.4370 -0.4368
  266MOL0     C35028   8.811  10.450   8.203  1.0541  0.6451  0.5510
  266MOL0     C35029   8.941  10.500   8.215  0.0515 -0.8436 -0.1383
  266MOL0     N35030   9.630  10.368   7.848 -0.3028 -0.0898 -0.0584
  266MOL0     N35031   9.745  10.405   7.879 -0.0345 -0.3757  0.5919
  266MOL0     C35032  10.863   9.752   7.591 -0.4583  1.1963 -0.0702
  266MOL0     C35033  10.935   9.674   7.497 -0.0461 -0.8657  0.2965
  266MOL0     C35034  11.108   9.406   7.210  0.1974  0.0512  0.5626
  266MOL0     C35035  11.155   9.269   7.202 -0.0652  0.2222  0.6490
  266MOL0     C35036  11.270   9.243   7.124 -0.2671 -0.1871 -0.6622
  266MOL0     C35037  11.310   9.338   7.040 -0.0193  0.9399 -0.1447
  266MOL0     O35038  11.429   9.338   6.965 -0.8636 -1.1990  1.0622
  266MOL0     C35039  11.480   9.209   6.928 -0.1308 -0.6749 -0.0608
  266MOL0     C35040  11.390   9.131   6.832 -0.5504 -0.1891 -0.4867
  266MOL0     C35041  11.462   8.994   6.828  0.2185  0.6875  0.0337
  266MOL0     C35042  11.383   8.921   6.708 -0.3108 -0.0825 -0.7015
  266MOL0     C35043  11.437   8.789   6.682  0.4192  0.7663  0.6644
  266MOL0     C35044  11.483   8.692   6.632 -0.0455  0.3682  0.5806
  266MOL0     C35045  11.255   9.461   7.029 -0.3985  0.1612  1.3624
  266MOL0     C35046  11.160   9.504   7.122 -0.0676  0.7540 -1.1722
  266MOL0     H35047  10.672   9.608   7.294 -0.9933 -0.9145  1.8029
  266MOL0     H35048  10.547   9.728   7.463 -0.8085  1.5568  1.3803
  266MOL0     H35049  10.497   9.780   7.715 -1.9502  0.8246 -1.5851
  266MOL0     H35050  10.500   9.898   7.586 -1.3073 -0.4856 -0.6415
  266MOL0     H35051  10.517  10.075   7.751  4.6058 -1.2131  0.8667
  266MOL0     H35052  10.556   9.955   7.874  0.4612 -0.5824  0.6897
  266MOL0     H35053  10.307   9.861   7.833  0.0491 -0.0723 -0.6807
  266MOL0     H35054  10.299   9.989   7.705 -1.0651  0.3961  1.2613
  266MOL0     H35055  10.354  10.048   7.995 -0.3559  2.8422  0.4170
  266MOL0     H35056  10.307  10.152   7.864 -0.0343  0.6174  3.1868
  266MOL0     H35057  10.124   9.949   8.013 -0.8064  1.4982  2.2890
  266MOL0     H35058  10.084  10.011   7.854  0.8087 -1.4677  0.5898
  266MOL0     H35059  10.159  10.247   7.984 -1.7742  0.2377 -0.9471
  266MOL0     H35060  10.100  10.149   8.124  1.2853 -3.2119  0.5299
  266MOL0     H35061   9.955  10.236   7.864 -0.7921 -2.0431 -1.3064
  266MOL0     H35062   9.885  10.125   7.991  0.7222 -0.9612  2.3857
  266MOL0     H35063   9.974  10.425   7.983 -1.3116  1.8176 -0.4721
  266MOL0     H35064   9.935  10.349   8.137  1.1620 -0.8672  0.6155
  266MOL0     H35065   9.679  10.238   8.144 -1.1519 -1.7847 -0.7602
  266MOL0     H35066   9.438  10.185   8.077 -0.2076 -4.0133 -2.0469
  266MOL0     H35067   9.453  10.168   7.904  1.1856  2.0065 -1.7624
  266MOL0     H35068   9.234  10.326   7.996 -0.4878  0.3316  0.1171
  266MOL0     H35069   9.308  10.376   7.862  1.3160  1.8431  0.3915
  266MOL0     H35070   9.403  10.466   8.154 -0.6319  0.2796  0.5487
  266MOL0     H35071   9.467  10.524   8.002  0.6789 -0.0873  0.5801
  266MOL0     H35072   9.240  10.590   7.928 -0.9354 -1.0927 -0.4055
  266MOL0     H35073   9.302  10.696   8.046  1.0146 -1.0562 -2.8506
  266MOL0     H35074   9.049  10.489   7.897 -1.1699  1.1291  0.9310
  266MOL0     H35075   8.825  10.418   7.864  0.6684  0.7366  0.5314
  266MOL0     H35076   8.308  10.465   8.230  2.8012 -2.0376  1.1059
  266MOL0     H35077   8.086  10.393   8.165 -3.1115 -4.5144  0.2417
  266MOL0     H35078   7.995   9.989   8.018 -1.7992 -0.9296 -1.9772
  266MOL0     H35079   8.072  10.052   7.872 -0.0575 -2.6431  0.1143
  266MOL0     H35080   7.788  10.077   7.969 -0.5156  2.2416  0.0376
  266MOL0     H35081   7.838   9.972   7.824 -2.4392  0.5289  0.5581
  266MOL0     H35082   7.812  10.265   7.840 -2.6655  0.7677 -1.4665
  266MOL0     H35083   7.721  10.160   7.742 -1.9477  0.0305  4.0702
  266MOL0     H35084   8.017  10.234   7.714 -0.4704  0.0154  3.2939
  266MOL0     H35085   7.952  10.101   7.627  1.9048  1.0482  1.1129
  266MOL0     H35086   7.856  10.388   7.609 -1.6520  0.2053 -0.8364
  266MOL0     H35087   7.776  10.261   7.515 -1.6526 -1.1477  1.4649
  266MOL0     H35088   7.968  10.211   7.374 -0.7165  2.3524 -2.6949
  266MOL0     H35089   8.082  10.299   7.475  0.3198  0.1759  1.6429
  266MOL0     H35090   7.888  10.404   7.277 -2.7025  1.0865  2.2354
  266MOL0     H35091   7.929  10.510   7.411 -0.5758  0.2879 -0.6897
  266MOL0     H35092   8.118  10.396   7.207  1.0131  2.3538 -2.5752
  266MOL0     H35093   8.173  10.501   7.336 -0.7282  2.6452  0.1491
  266MOL0     H35094   8.263  10.048   7.969 -3.7211 -0.5528  1.0340
  266MOL0     H35095   8.484  10.136   8.026 -1.0996 -2.9597  2.7492
  266MOL0     H35096   8.744  10.443   8.288 -0.5220  1.3003 -0.5828
  266MOL0     H35097   8.973  10.516   8.317  0.9801 -0.4400 -0.4833
  266MOL0     H35098  10.921   9.802   7.667  0.1002  0.5326 -0.0563
  266MOL0     H35099  11.041   9.656   7.502  0.6185  2.2665 -0.1619
  266MOL0     H35100  11.110   9.191   7.262 -0.4176 -1.7218 -1.9538
  266MOL0     H35101  11.299   9.138   7.126 -4.4398 -1.5215 -0.4074
  266MOL0     H35102  11.511   9.159   7.020  1.8603 -3.0102 -1.8765
  266MOL0     H35103  11.577   9.233   6.881 -0.2712 -0.5879 -0.3099
  266MOL0     H35104  11.292   9.116   6.880 -0.0348  0.9819  0.9929
  266MOL0     H35105  11.371   9.183   6.738 -2.3609 -0.5624 -0.3804
  266MOL0     H35106  11.446   8.947   6.925 -4.1286  1.0048 -0.3280
  266MOL0     H35107  11.568   9.009   6.810  0.6142  0.2642  1.8073
  266MOL0     H35108  11.275   8.923   6.723 -0.3953 -1.8502 -0.8658
  266MOL0     H35109  11.404   8.979   6.618 -2.2590  1.7710 -0.0249
  266MOL0     H35110  11.531   8.608   6.586  2.0785  1.4811  0.6267
  266MOL0     H35111  11.283   9.536   6.955 -2.1608  0.1508  0.6279
  266MOL0     H35112  11.105   9.598   7.129  0.9014  1.2330  0.3601
  267MOL0     O35113   2.604   7.416   3.861 -0.1887  0.5054  0.1404
  267MOL0     C35114   2.490   7.372   3.881 -0.1259 -0.0697  0.2198
  267MOL0     O35115   2.450   7.268   3.963 -0.5185  0.2503 -0.4902
  267MOL0     C35116   2.530   7.185   4.043  0.4490 -0.5220  0.0830
  267MOL0     C35117   2.459   7.100   4.139  0.3279  0.4662 -0.1920
  267MOL0     C35118   2.527   7.034   4.238  0.8716  0.3872  0.0224
  267MOL0     C35119   2.664   7.048   4.255 -0.4248  0.3556 -1.0173
  267MOL0     O35120   2.737   6.975   4.346 -0.5572  0.8409 -0.5241
  267MOL0     C35121   2.673   6.944   4.471  0.0539  0.1444 -0.4505
  267MOL0     C35122   2.761   7.028   4.575 -0.3138 -0.3648 -0.7246
  267MOL0     C35123   2.713   7.173   4.604 -1.3545 -0.0488  0.9599
  267MOL0     C35124   2.787   7.225   4.735  0.9443 -0.6931 -0.4220
  267MOL0     C35125   2.786   7.372   4.744 -0.0665 -0.1407 -0.1722
  267MOL0     C35126   2.893   7.429   4.836  0.1935 -0.0432 -0.4518
  267MOL0     C35127   2.843   7.450   4.984 -0.0599  1.0487  0.0677
  267MOL0     C35128   2.788   7.579   5.014 -0.6257 -0.2445  0.9786
  267MOL0     N35129   2.886   7.685   5.018 -0.0559 -1.4935  0.6991
  267MOL0     C35130   2.925   7.767   4.906  0.4096  0.5558  0.0084
  267MOL0     C35131   3.049   7.809   4.925  0.3690 -0.5408 -0.7646
  267MOL0     C35132   3.116   7.883   4.815  0.1308 -0.3471  0.9213
  267MOL0     C35133   3.198   7.786   4.732  0.2289  0.1603 -0.8570
  267MOL0     C35134   3.267   7.844   4.611 -0.3079 -0.0352 -0.0077
  267MOL0     C35135   3.334   7.734   4.529 -0.1546 -0.1190  0.1928
  267MOL0     O35136   3.450   7.687   4.602  0.3552 -0.3564 -0.9582
  267MOL0     C35137   3.487   7.558   4.571  0.0776 -0.0967 -0.3323
  267MOL0     C35138   3.569   7.500   4.668  0.0386  0.9306  0.4508
  267MOL0     C35139   3.613   7.363   4.650 -0.0762 -0.5897  0.5465
  267MOL0     C35140   3.588   7.289   4.526  0.6867 -0.6404  0.7106
  267MOL0     C35141   3.630   7.159   4.513 -0.1985  0.3369  0.5384
  267MOL0     O35142   3.703   7.113   4.612  0.1848  0.1854  0.4710
  267MOL0     C35143   3.733   6.979   4.618  0.6200  0.2841  0.3783
  267MOL0     C35144   3.645   6.888   4.675 -0.7145 -0.2044  0.8703
  267MOL0     C35145   3.659   6.747   4.681 -0.3199  0.3373  0.1676
  267MOL0     C35146   3.772   6.693   4.624 -0.0759 -0.1463 -0.7738
  267MOL0     O35147   3.778   6.561   4.641 -0.4191  0.3032  0.1866
  267MOL0     C35148   3.886   6.482   4.591  0.3142 -1.0114  0.3629
  267MOL0     C35149   3.886   6.350   4.663  1.2174 -0.7588  0.1916
  267MOL0     C35150   3.981   6.244   4.608 -1.1072 -0.4574  0.0870
  267MOL0     C35151   3.928   6.190   4.476 -0.0450  0.0508 -1.0757
  267MOL0     C35152   4.008   6.073   4.413 -0.1529  0.3026  0.2911
  267MOL0     C35153   4.160   6.105   4.399  0.3246  0.4235  0.4358
  267MOL0     C35154   4.244   5.985   4.351 -0.5835  0.9692  0.4433
  267MOL0     C35155   4.328   5.917   4.459 -0.0819  0.5538 -0.2285
  267MOL0    Cl35156   4.226   5.876   4.613 -0.2804 -0.1116  0.6407
  267MOL0     C35157   3.865   6.786   4.563  0.7770 -0.2749  0.9963
  267MOL0     C35158   3.846   6.921   4.555  0.9348 -0.1584 -0.0595
  267MOL0     O35159   3.581   7.090   4.422  0.2411 -0.3348  0.7106
  267MOL0     C35160   3.522   7.363   4.429  0.2317 -0.0388  1.1534
  267MOL0     C35161   3.469   7.493   4.452  0.2581  0.4320 -0.8259
  267MOL0     N35162   3.094   7.755   5.046  0.3536 -0.5786  0.9204
  267MOL0     N35163   2.990   7.688   5.100  0.0487 -0.4623 -0.1904
  267MOL0     C35164   2.735   7.135   4.177  0.8728 -0.7373  1.2697
  267MOL0     C35165   2.667   7.205   4.077 -1.6254  0.9816  0.1951
  267MOL0     C35166   2.385   7.441   3.793 -0.4397 -0.5555 -0.0723
  267MOL0     C35167   2.435   7.510   3.679  1.0401 -0.3047  0.0630
  267MOL0     C35168   2.353   7.539   3.571 -0.5922 -0.3215 -0.2867
  267MOL0     C35169   2.208   7.516   3.582  0.9514 -0.8552 -0.0049
  267MOL0     O35170   2.117   7.560   3.483 -0.2558 -0.2472 -0.5928
  267MOL0     C35171   2.168   7.662   3.400  0.4225 -0.9893  0.1772
  267MOL0     C35172   2.064   7.696   3.291  0.4538 -0.3255 -0.5976
  267MOL0     C35173   2.118   7.792   3.190 -0.3082 -0.2470  0.5749
  267MOL0     C35174   2.244   7.748   3.112 -0.0206 -0.8146 -0.2364
  267MOL0     C35175   2.248   7.611   3.069 -0.0220 -0.3548 -1.1450
  267MOL0     C35176   2.271   7.498   3.031 -0.4343 -0.1517 -0.5610
  267MOL0     C35177   2.159   7.452   3.696 -0.6752 -0.4536  0.4591
  267MOL0     C35178   2.248   7.408   3.798 -0.2494 -0.2020  0.8900
  267MOL0     H35179   2.352   7.085   4.132  0.3500  0.4334 -0.4913
  267MOL0     H35180   2.468   6.972   4.304 -0.2925  1.6891  0.2349
  267MOL0     H35181   2.678   6.840   4.503 -2.3098  0.2953  0.5916
  267MOL0     H35182   2.569   6.973   4.484 -0.2773 -1.1682 -0.0336
  267MOL0     H35183   2.867   7.039   4.551  0.4143  0.3602  2.3693
  267MOL0     H35184   2.764   6.970   4.668  0.9555  3.0292  1.5239
  267MOL0     H35185   2.605   7.184   4.622 -1.9353  1.7830 -2.6335
  267MOL0     H35186   2.727   7.234   4.515 -3.9721 -0.0786  0.4375
  267MOL0     H35187   2.757   7.181   4.830  3.0911 -1.0651  0.1194
  267MOL0     H35188   2.893   7.202   4.723  1.6030  1.9855 -0.3245
  267MOL0     H35189   2.685   7.411   4.759 -0.5488 -0.6456 -1.8347
  267MOL0     H35190   2.808   7.412   4.644 -0.3066 -2.8346 -1.3927
  267MOL0     H35191   2.951   7.513   4.798  0.6241  0.4618  1.2230
  267MOL0     H35192   2.966   7.348   4.849 -1.1683 -1.1823  0.3838
  267MOL0     H35193   2.760   7.382   5.005  1.4607 -0.0645  2.9353
  267MOL0     H35194   2.922   7.420   5.053 -0.1714 -0.8788 -0.5906
  267MOL0     H35195   2.761   7.580   5.121  1.6809  3.4759  1.7216
  267MOL0     H35196   2.702   7.609   4.954  1.0612  3.2037  0.0538
  267MOL0     H35197   2.857   7.802   4.829 -1.1250 -2.0621  0.0312
  267MOL0     H35198   3.185   7.958   4.857  0.7962  0.3224 -1.2322
  267MOL0     H35199   3.046   7.929   4.745  0.8825 -2.8480 -1.6969
  267MOL0     H35200   3.122   7.715   4.700  0.5610 -1.8723  2.3220
  267MOL0     H35201   3.273   7.735   4.793 -1.3183 -0.5093  0.5753
  267MOL0     H35202   3.200   7.900   4.547 -0.3496  0.2666  0.2969
  267MOL0     H35203   3.351   7.903   4.648  1.3349 -3.1213  1.5607
  267MOL0     H35204   3.368   7.775   4.434 -0.7670 -0.7691 -0.3253
  267MOL0     H35205   3.260   7.656   4.505  0.0195  0.6355 -3.3052
  267MOL0     H35206   3.595   7.555   4.758  1.9911 -0.6683  0.9300
  267MOL0     H35207   3.682   7.330   4.728  1.1480  0.2537 -0.1634
  267MOL0     H35208   3.553   6.908   4.728 -0.2686  4.0163  0.3338
  267MOL0     H35209   3.589   6.680   4.730  1.2112 -1.8525 -0.4906
  267MOL0     H35210   3.977   6.538   4.613 -1.8966  2.4452  1.5137
  267MOL0     H35211   3.868   6.479   4.483  0.0990 -1.5822  0.4096
  267MOL0     H35212   3.786   6.307   4.665  0.8507  0.0954  0.7564
  267MOL0     H35213   3.905   6.360   4.770 -3.1969 -2.6765  1.3742
  267MOL0     H35214   3.988   6.166   4.684  2.2508 -1.0927 -0.7349
  267MOL0     H35215   4.079   6.289   4.591 -1.0237 -0.6120  0.1603
  267MOL0     H35216   3.822   6.163   4.484 -0.6972  1.8796 -2.8444
  267MOL0     H35217   3.921   6.276   4.409 -0.7301 -0.8033 -2.1308
  267MOL0     H35218   3.969   6.043   4.316 -2.7455  0.0924  1.3029
  267MOL0     H35219   3.993   5.983   4.474 -2.4412  0.9413  0.7677
  267MOL0     H35220   4.210   6.123   4.495  2.3071  0.8553 -0.6330
  267MOL0     H35221   4.168   6.186   4.326 -3.9638 -0.9400 -1.8656
  267MOL0     H35222   4.174   5.914   4.306 -1.6948  0.6386  2.5533
  267MOL0     H35223   4.318   6.018   4.278  0.0666  1.5108  1.3288
  267MOL0     H35224   4.404   5.982   4.503  1.0298  0.4776 -1.9452
  267MOL0     H35225   4.383   5.830   4.423 -1.2473  0.4061 -1.7889
  267MOL0     H35226   3.953   6.762   4.504 -0.3486 -0.0853 -0.8377
  267MOL0     H35227   3.909   6.989   4.497 -0.4585  0.6438 -0.6698
  267MOL0     H35228   3.495   7.319   4.334 -0.4227 -3.2820  2.7129
  267MOL0     H35229   3.409   7.543   4.377  0.9099  2.0793 -0.2813
  267MOL0     H35230   2.833   7.167   4.212  0.8793 -0.5776  1.1064
  267MOL0     H35231   2.741   7.262   4.022 -1.3653  0.3437 -0.1167
  267MOL0     H35232   2.531   7.559   3.670  1.2989 -1.1548 -2.4210
  267MOL0     H35233   2.387   7.582   3.477  2.5738  0.1767  0.9748
  267MOL0     H35234   2.260   7.632   3.350  1.8660 -0.0184  2.1143
  267MOL0     H35235   2.185   7.756   3.453  0.1640 -1.1983  0.6407
  267MOL0     H35236   2.032   7.609   3.232  1.3934 -1.4919  0.5288
  267MOL0     H35237   1.975   7.740   3.336  0.1573 -1.3483 -0.1490
  267MOL0     H35238   2.134   7.882   3.249 -0.5426  0.1371  0.0581
  267MOL0     H35239   2.038   7.812   3.117 -1.1595 -1.3434  1.1719
  267MOL0     H35240   2.246   7.808   3.021 -1.7086 -1.2820 -0.6128
  267MOL0     H35241   2.334   7.769   3.170  0.1586  2.3422 -1.4640
  267MOL0     H35242   2.284   7.396   3.001  0.9886 -0.0076 -0.5293
  267MOL0     H35243   2.052   7.434   3.704 -1.2602 -0.1605 -4.1075
  267MOL0     H35244   2.207   7.346   3.878  1.6784 -6.1193 -2.0638
  268MOL0     O35245   2.116   6.376   5.652 -0.4206  0.1856 -0.1874
  268MOL0     C35246   2.186   6.475   5.634 -0.0024 -0.2909 -0.2615
  268MOL0     O35247   2.159   6.571   5.541 -0.4448  0.3106  0.3290
  268MOL0     C35248   2.046   6.568   5.462  0.1046 -0.4264 -0.1416
  268MOL0     C35249   1.940   6.640   5.503 -0.1497 -0.5034 -0.6663
  268MOL0     C35250   1.827   6.659   5.425 -0.7738 -0.0896  0.0482
  268MOL0     C35251   1.825   6.607   5.300 -0.2742  0.5397  0.8551
  268MOL0     O35252   1.710   6.607   5.226 -0.0475 -0.1270 -0.0155
  268MOL0     C35253   1.657   6.741   5.216  0.6329 -0.1911 -0.5527
  268MOL0     C35254   1.562   6.751   5.100  0.0929  0.2719  0.2438
  268MOL0     C35255   1.618   6.702   4.963  0.3290  0.1846 -0.7728
  268MOL0     C35256   1.502   6.678   4.853 -0.1999  0.3015 -0.0836
  268MOL0     C35257   1.428   6.810   4.807  0.0747 -0.2829  0.1694
  268MOL0     C35258   1.298   6.859   4.883 -0.0527  0.4024  0.0052
  268MOL0     C35259   1.193   6.746   4.891 -0.1129 -0.0812  0.9301
  268MOL0     C35260   1.061   6.794   4.951 -0.2121  0.2946 -0.5321
  268MOL0     N35261   1.059   6.827   5.092  0.0297 -0.6058  0.5854
  268MOL0     C35262   1.116   6.768   5.194 -0.1258 -0.5280 -0.3622
  268MOL0     C35263   1.113   6.856   5.296 -0.4124  0.2935  0.3613
  268MOL0     C35264   1.138   6.827   5.439  0.2841 -0.1491  0.1409
  268MOL0     C35265   1.272   6.759   5.466 -0.4393 -1.6235  0.9188
  268MOL0     C35266   1.274   6.712   5.610 -0.7827  0.1045  0.3230
  268MOL0     C35267   1.396   6.630   5.641 -1.0379  0.1953  0.1270
  268MOL0     O35268   1.501   6.729   5.646  0.2974  0.4928 -0.3946
  268MOL0     C35269   1.624   6.715   5.711 -0.5915 -0.5305  0.1561
  268MOL0     C35270   1.697   6.834   5.743  0.0494  0.6158  0.3525
  268MOL0     C35271   1.819   6.820   5.812  0.7779  0.1186  0.1928
  268MOL0     C35272   1.871   6.694   5.848  1.1666  0.1323 -0.0043
  268MOL0     C35273   1.991   6.670   5.939  0.4589 -0.4924  0.6813
  268MOL0     O35274   2.014   6.541   5.982 -0.0316  0.2931 -1.3307
  268MOL0     C35275   2.124   6.495   6.064  0.8578  0.2945 -0.2606
  268MOL0     C35276   2.140   6.361   6.077  0.1029  0.7703  0.8782
  268MOL0     C35277   2.241   6.308   6.157  0.8234 -0.0931 -0.4175
  268MOL0     C35278   2.318   6.397   6.236 -0.5017 -0.2535  0.0909
  268MOL0     O35279   2.414   6.343   6.312  0.8363 -0.0723 -0.3200
  268MOL0     C35280   2.394   6.376   6.446  0.1281  0.1648  0.4109
  268MOL0     C35281   2.302   6.275   6.514  0.2632  0.0722  0.5595
  268MOL0     C35282   2.289   6.301   6.662 -0.1174  0.1115  0.3623
  268MOL0     C35283   2.415   6.232   6.737 -0.2579 -0.3285 -1.0443
  268MOL0     C35284   2.398   6.243   6.890  0.5772 -0.5598 -0.5759
  268MOL0     C35285   2.510   6.177   6.961  0.0030 -0.6746 -0.3073
  268MOL0     C35286   2.480   6.040   7.022 -0.0802 -0.2738 -0.4403
  268MOL0     C35287   2.564   6.012   7.148  0.0981 -0.2127  0.5686
  268MOL0    Cl35288   2.740   6.008   7.116 -0.4096  0.2372  0.2635
  268MOL0     C35289   2.311   6.535   6.212 -0.0805  0.8462 -0.1333
  268MOL0     C35290   2.209   6.581   6.134 -0.3005  0.2977  1.2161
  268MOL0     O35291   2.057   6.768   5.975  1.3515  0.4671  0.9564
  268MOL0     C35292   1.800   6.579   5.799 -0.0836  0.0397 -0.5268
  268MOL0     C35293   1.674   6.588   5.741 -0.2190  0.7907 -0.0553
  268MOL0     N35294   1.038   6.969   5.250  0.0441 -0.0374  0.0023
  268MOL0     N35295   1.016   6.951   5.131  0.1916 -0.2212  0.0751
  268MOL0     C35296   1.937   6.525   5.252 -0.1779 -1.2154 -0.4023
  268MOL0     C35297   2.054   6.512   5.336  0.2653  0.0629 -0.7564
  268MOL0     C35298   2.294   6.503   5.725 -0.2870 -0.3492  0.5724
  268MOL0     C35299   2.366   6.623   5.713 -0.4266 -0.6523  0.4586
  268MOL0     C35300   2.457   6.660   5.813  0.4725  0.4190 -0.1421
  268MOL0     C35301   2.493   6.565   5.916 -0.2565 -0.6888  0.2059
  268MOL0     O35302   2.565   6.614   6.016 -0.5039  0.1386  0.1708
  268MOL0     C35303   2.657   6.525   6.087  0.8263 -0.2671 -0.4371
  268MOL0     C35304   2.779   6.590   6.146  0.1275  0.9187  0.4655
  268MOL0     C35305   2.877   6.478   6.179  0.2682  0.0699 -0.2706
  268MOL0     C35306   3.005   6.525   6.254  0.9154 -0.5446  0.9904
  268MOL0     C35307   3.068   6.414   6.309 -0.3590  1.3033 -0.4038
  268MOL0     C35308   3.139   6.325   6.359  0.7585  1.1134  1.0836
  268MOL0     C35309   2.437   6.437   5.909  0.0772 -0.1519 -0.6650
  268MOL0     C35310   2.340   6.404   5.817  0.2741  0.5337  0.3572
  268MOL0     H35311   1.941   6.702   5.592  1.5729 -3.0424  1.2370
  268MOL0     H35312   1.749   6.723   5.465 -1.4315  0.7103 -2.3002
  268MOL0     H35313   1.740   6.810   5.198  1.2622 -0.0975  2.2507
  268MOL0     H35314   1.602   6.772   5.305  0.7145  0.1135 -0.6043
  268MOL0     H35315   1.513   6.849   5.092  1.6426  0.9321 -1.7671
  268MOL0     H35316   1.482   6.685   5.136 -0.4765  1.2657  0.8446
  268MOL0     H35317   1.668   6.609   4.989 -1.8409 -0.4294  1.6422
  268MOL0     H35318   1.690   6.781   4.938  0.2500 -0.1322 -2.0419
  268MOL0     H35319   1.540   6.626   4.765  0.5600 -1.4441  1.2128
  268MOL0     H35320   1.441   6.602   4.903  1.8353 -0.3647  1.5180
  268MOL0     H35321   1.398   6.809   4.702 -3.2020  3.6847  0.8209
  268MOL0     H35322   1.499   6.893   4.804 -0.3324  0.0270 -2.0651
  268MOL0     H35323   1.268   6.941   4.817  5.5269 -1.8683 -6.5993
  268MOL0     H35324   1.315   6.896   4.984 -1.0763  0.0091  0.3305
  268MOL0     H35325   1.169   6.708   4.792 -0.2247  1.1069  0.4857
  268MOL0     H35326   1.232   6.669   4.959  0.6970  0.6452  1.3193
  268MOL0     H35327   0.980   6.722   4.937 -1.9263  1.5043  2.1863
  268MOL0     H35328   1.021   6.878   4.894 -0.5644  0.8178  0.4665
  268MOL0     H35329   1.161   6.669   5.192 -0.8608 -0.8986  0.4407
  268MOL0     H35330   1.057   6.761   5.472  0.3528 -0.5310 -0.4489
  268MOL0     H35331   1.122   6.919   5.496 -4.1743  0.8296 -2.2103
  268MOL0     H35332   1.347   6.837   5.453 -2.2213 -0.0104 -0.1033
  268MOL0     H35333   1.285   6.674   5.398  0.8938 -0.3599 -0.4913
  268MOL0     H35334   1.276   6.799   5.676  0.8269  0.9858 -0.8239
  268MOL0     H35335   1.186   6.649   5.628 -0.8135 -0.4028 -1.4166
  268MOL0     H35336   1.416   6.552   5.567 -1.5698 -0.4281  0.6224
  268MOL0     H35337   1.375   6.574   5.733 -0.8503 -1.7157 -0.9343
  268MOL0     H35338   1.632   6.915   5.711 -2.7043 -2.1498 -1.6374
  268MOL0     H35339   1.871   6.908   5.848 -1.9948  1.4305  1.3330
  268MOL0     H35340   2.074   6.303   6.013  2.1190  1.9273 -2.4683
  268MOL0     H35341   2.236   6.201   6.179 -1.3746  0.1290  0.4032
  268MOL0     H35342   2.369   6.482   6.459  2.4623  0.7725  0.4340
  268MOL0     H35343   2.491   6.360   6.494 -0.4852  0.5053  1.8234
  268MOL0     H35344   2.350   6.177   6.508  1.0487  0.4784  0.0577
  268MOL0     H35345   2.204   6.270   6.466  0.6693  2.1413 -0.5749
  268MOL0     H35346   2.192   6.266   6.698  0.0099  0.9659  1.6067
  268MOL0     H35347   2.292   6.408   6.684  1.3925 -0.3045  2.5065
  268MOL0     H35348   2.422   6.129   6.704 -2.0082 -0.8576  0.0910
  268MOL0     H35349   2.501   6.292   6.707 -1.5371  1.6796 -0.9177
  268MOL0     H35350   2.307   6.194   6.925  0.8932 -1.3424 -0.8256
  268MOL0     H35351   2.400   6.350   6.913 -2.6527 -0.9409  2.1163
  268MOL0     H35352   2.533   6.245   7.044  0.5595  0.7361 -1.5656
  268MOL0     H35353   2.603   6.168   6.905 -0.3192 -2.6557 -0.5866
  268MOL0     H35354   2.381   6.027   7.066  0.5033 -1.8854  0.5188
  268MOL0     H35355   2.484   5.958   6.949  1.9555 -3.2122  2.6292
  268MOL0     H35356   2.530   5.916   7.189  0.3754 -0.6703 -0.2458
  268MOL0     H35357   2.532   6.097   7.208 -1.8166  0.7531 -1.6269
  268MOL0     H35358   2.377   6.600   6.268  0.0920 -2.4376  3.9019
  268MOL0     H35359   2.211   6.689   6.125  1.1040  0.3326  1.6529
  268MOL0     H35360   1.848   6.482   5.808 -0.4407 -0.2604 -1.6689
  268MOL0     H35361   1.632   6.490   5.721  2.9455 -0.6209 -0.4247
  268MOL0     H35362   1.926   6.465   5.162  0.1589 -3.5955  1.0493
  268MOL0     H35363   2.135   6.446   5.305  0.3535  0.8511 -2.2988
  268MOL0     H35364   2.333   6.707   5.653  0.1121 -0.1289  0.8848
  268MOL0     H35365   2.501   6.759   5.816 -0.2242  0.7714 -1.1929
  268MOL0     H35366   2.687   6.440   6.025  2.8561 -0.9207  1.3126
  268MOL0     H35367   2.607   6.491   6.178  0.1890  4.0240  1.0649
  268MOL0     H35368   2.819   6.652   6.065  1.0104 -0.6763 -0.3750
  268MOL0     H35369   2.761   6.649   6.236 -0.0298  0.5204  0.6936
  268MOL0     H35370   2.912   6.421   6.093 -0.1521 -1.4132  0.5080
  268MOL0     H35371   2.813   6.422   6.248  0.8779 -0.1795  0.1004
  268MOL0     H35372   3.081   6.576   6.193  0.1343  1.3841  1.5583
  268MOL0     H35373   2.980   6.597   6.332  2.5776  0.0027  1.0688
  268MOL0     H35374   3.180   6.242   6.413 -1.0710 -1.3977 -1.1640
  268MOL0     H35375   2.478   6.364   5.978  1.2891  1.1009  0.0106
  268MOL0     H35376   2.304   6.302   5.815 -0.9333  0.9434 -0.1049
  269MOL0     O35377   2.369   5.544   7.406  0.0119  0.6940 -0.1794
  269MOL0     C35378   2.461   5.466   7.370  0.9464  0.0406  0.4676
  269MOL0     O35379   2.510   5.365   7.441 -0.0160  0.1342  0.1199
  269MOL0     C35380   2.457   5.314   7.555  0.0280  0.1834  0.8706
  269MOL0     C35381   2.550   5.258   7.651  0.8236  0.6793  1.1266
  269MOL0     C35382   2.500   5.175   7.750  0.4629 -0.7177  1.0166
  269MOL0     C35383   2.363   5.158   7.768  1.3513 -0.5363  0.2724
  269MOL0     O35384   2.328   5.073   7.865  0.3356  0.3865  0.7729
  269MOL0     C35385   2.212   5.091   7.945  0.1421 -0.1302  0.1621
  269MOL0     C35386   2.187   5.229   8.008 -0.5081 -0.2956 -0.3764
  269MOL0     C35387   2.283   5.276   8.117  0.2304  0.4054  0.4108
  269MOL0     C35388   2.222   5.407   8.175  1.1246 -0.0863 -0.1983
  269MOL0     C35389   2.328   5.482   8.259  0.1453 -0.2593 -0.7124
  269MOL0     C35390   2.269   5.619   8.304 -0.2531 -0.2501  0.6901
  269MOL0     C35391   2.265   5.717   8.189  0.7153  0.6169  0.1814
  269MOL0     C35392   2.144   5.788   8.201  0.1098 -1.2168 -0.1350
  269MOL0     N35393   2.147   5.875   8.080 -0.0318  0.3207 -0.2177
  269MOL0     C35394   2.107   5.830   7.953 -0.8784 -0.3586 -0.0197
  269MOL0     C35395   2.123   5.939   7.872 -0.2113  0.1039  0.0306
  269MOL0     C35396   2.086   5.964   7.731 -0.3069 -0.0924  0.1761
  269MOL0     C35397   2.192   5.892   7.645 -0.6780 -0.9444  0.2590
  269MOL0     C35398   2.155   5.876   7.501 -0.3412 -0.3838  0.6152
  269MOL0     C35399   2.131   5.995   7.409  1.0721 -0.7435 -0.7427
  269MOL0     O35400   2.099   5.956   7.272 -0.4880 -0.3682 -0.1346
  269MOL0     C35401   1.980   5.900   7.228 -0.1911  0.7969 -0.1360
  269MOL0     C35402   1.967   5.871   7.091  0.1791 -0.0805 -0.0106
  269MOL0     C35403   1.851   5.816   7.043  0.4958  0.5391 -0.0907
  269MOL0     C35404   1.743   5.771   7.125 -0.5340 -0.1816  0.2015
  269MOL0     C35405   1.623   5.708   7.056  0.5257 -0.7303 -0.1478
  269MOL0     O35406   1.514   5.671   7.128  0.6820 -0.5312  0.1292
  269MOL0     C35407   1.418   5.591   7.074 -0.9592 -0.4253 -0.0137
  269MOL0     C35408   1.289   5.618   7.117 -0.1945  0.6624 -0.2573
  269MOL0     C35409   1.174   5.564   7.062  0.2336  1.3776 -0.6024
  269MOL0     C35410   1.189   5.465   6.962  0.5585 -0.4379 -0.5716
  269MOL0     O35411   1.080   5.412   6.900  0.6221  0.9271 -0.4935
  269MOL0     C35412   0.977   5.355   6.987  0.3923 -0.3449 -0.2480
  269MOL0     C35413   0.889   5.258   6.916 -0.6835  0.1661  0.0984
  269MOL0     C35414   0.803   5.163   7.001 -0.4161 -0.0400 -0.2320
  269MOL0     C35415   0.757   5.045   6.914  0.1800 -0.4090 -0.6060
  269MOL0     C35416   0.657   5.102   6.806 -0.1226 -0.5250 -0.4304
  269MOL0     C35417   0.603   4.984   6.715  0.4839  0.3483  0.3258
  269MOL0     C35418   0.517   5.046   6.611 -0.3725 -0.1072 -1.0435
  269MOL0     C35419   0.453   4.936   6.512  0.3583  0.0917 -0.0174
  269MOL0    Cl35420   0.331   4.826   6.585 -0.0850  0.2831 -0.2100
  269MOL0     C35421   1.315   5.426   6.929 -0.4127 -0.3196  1.0592
  269MOL0     C35422   1.426   5.487   6.976 -0.5346 -0.2156 -0.1190
  269MOL0     O35423   1.631   5.709   6.931  0.4616  0.9105  0.4074
  269MOL0     C35424   1.752   5.819   7.253  0.0927  1.0939  0.2560
  269MOL0     C35425   1.864   5.878   7.313 -0.1516 -0.3991 -1.1573
  269MOL0     N35426   2.179   6.045   7.944 -0.4538  0.8552  0.0875
  269MOL0     N35427   2.188   6.001   8.072  0.5585 -0.9142 -0.1637
  269MOL0     C35428   2.272   5.225   7.681  1.0152 -0.1225  0.4995
  269MOL0     C35429   2.321   5.292   7.563  0.1397 -0.1271 -0.4542
  269MOL0     C35430   2.531   5.508   7.236 -0.4645  0.6761 -0.1662
  269MOL0     C35431   2.480   5.603   7.152 -0.3092 -0.6169 -0.6173
  269MOL0     C35432   2.551   5.630   7.037  0.2828 -0.0214 -0.1745
  269MOL0     C35433   2.661   5.559   6.997  0.6158 -0.1387 -1.2392
  269MOL0     O35434   2.728   5.574   6.877  0.3304 -0.4299 -0.0444
  269MOL0     C35435   2.712   5.697   6.804 -0.5357  0.2716 -0.3132
  269MOL0     C35436   2.852   5.736   6.753  1.2185  0.9755 -0.0579
  269MOL0     C35437   2.915   5.616   6.672 -0.4784  0.0553 -0.0079
  269MOL0     C35438   3.069   5.635   6.670 -0.0946 -0.0990 -0.8874
  269MOL0     C35439   3.123   5.555   6.567 -0.0205  0.6568  0.7098
  269MOL0     C35440   3.168   5.475   6.489  0.1491  1.4090 -0.4168
  269MOL0     C35441   2.699   5.457   7.077  0.5708  0.0957 -0.0165
  269MOL0     C35442   2.646   5.432   7.199 -0.1381 -0.3750 -1.0988
  269MOL0     H35443   2.653   5.281   7.628  0.4375  1.4874  0.0978
  269MOL0     H35444   2.571   5.120   7.812  2.7914 -0.3234 -1.1303
  269MOL0     H35445   2.225   5.028   8.034  3.3835 -2.0621 -1.5273
  269MOL0     H35446   2.119   5.074   7.889  0.8715  1.0242 -1.4473
  269MOL0     H35447   2.085   5.223   8.047 -0.3585 -1.5909 -0.1313
  269MOL0     H35448   2.173   5.306   7.932  0.0619  0.1163 -0.0789
  269MOL0     H35449   2.384   5.294   8.079  0.7514  0.0633  1.5874
  269MOL0     H35450   2.295   5.200   8.195  1.9228  1.3349  1.1117
  269MOL0     H35451   2.186   5.462   8.087 -1.4937 -0.5330  0.5003
  269MOL0     H35452   2.133   5.390   8.237  0.9490  1.4866  0.0185
  269MOL0     H35453   2.411   5.478   8.189 -0.9513 -4.2534 -2.0349
  269MOL0     H35454   2.357   5.427   8.350  1.3405 -0.9956 -1.5159
  269MOL0     H35455   2.331   5.662   8.384  2.4394  0.4299 -1.6229
  269MOL0     H35456   2.170   5.605   8.349 -0.8128  1.3519  0.0435
  269MOL0     H35457   2.355   5.780   8.195  0.5833  0.9320 -0.8582
  269MOL0     H35458   2.262   5.659   8.096 -1.5568 -2.4163  1.9902
  269MOL0     H35459   2.166   5.846   8.291  0.7875  3.3239 -2.9099
  269MOL0     H35460   2.049   5.734   8.203 -1.4098  1.3161  2.0073
  269MOL0     H35461   2.065   5.733   7.929  1.1753 -0.9373 -1.6491
  269MOL0     H35462   2.073   6.071   7.711 -1.1954 -0.0161  1.0697
  269MOL0     H35463   1.993   5.908   7.717  0.1670 -1.1265  1.0175
  269MOL0     H35464   2.217   5.792   7.682 -1.3011 -1.3644 -0.4221
  269MOL0     H35465   2.279   5.957   7.655 -2.0494  0.5741  6.2669
  269MOL0     H35466   2.242   5.825   7.459  0.6030 -0.1679  2.2336
  269MOL0     H35467   2.070   5.810   7.482  1.1545 -2.0995 -0.4881
  269MOL0     H35468   2.233   6.034   7.409  0.0465  2.5817  3.2086
  269MOL0     H35469   2.063   6.065   7.457  3.3571  0.9372  0.2392
  269MOL0     H35470   2.056   5.907   7.040  0.4393  1.4551  1.4768
  269MOL0     H35471   1.859   5.788   6.938 -1.5261 -5.3150  0.9569
  269MOL0     H35472   1.280   5.701   7.186  0.2483  0.1164  0.4728
  269MOL0     H35473   1.081   5.609   7.095 -0.8409  0.3893 -2.1263
  269MOL0     H35474   0.920   5.443   7.020 -2.8938 -2.3583 -0.1513
  269MOL0     H35475   1.020   5.313   7.078 -1.1415  0.8159  1.0796
  269MOL0     H35476   0.960   5.197   6.858 -0.2888  2.4025 -1.9217
  269MOL0     H35477   0.837   5.316   6.839  1.5725 -0.0463 -1.7031
  269MOL0     H35478   0.714   5.216   7.035  0.0338 -0.5999  1.9843
  269MOL0     H35479   0.861   5.131   7.088 -0.0274  0.9714 -0.0987
  269MOL0     H35480   0.841   4.992   6.868 -0.2636 -1.5261 -0.1765
  269MOL0     H35481   0.708   4.972   6.979 -1.5060  1.2240  0.0521
  269MOL0     H35482   0.708   5.181   6.749  1.4917 -0.4728  0.9879
  269MOL0     H35483   0.568   5.142   6.856  0.2883 -2.8673  2.4688
  269MOL0     H35484   0.547   4.918   6.781  2.6140 -0.0419  1.8506
  269MOL0     H35485   0.681   4.921   6.671 -0.2797 -0.2706 -0.1724
  269MOL0     H35486   0.436   5.093   6.668  0.8267  3.8100 -2.2453
  269MOL0     H35487   0.568   5.131   6.565 -1.1331  3.2865  3.6456
  269MOL0     H35488   0.538   4.876   6.478 -0.3524  0.1550 -2.0354
  269MOL0     H35489   0.410   4.985   6.424 -0.6615  1.7391  1.3347
  269MOL0     H35490   1.325   5.346   6.855  1.4972 -0.9107  1.9030
  269MOL0     H35491   1.524   5.451   6.947 -0.2523  1.4790 -1.3972
  269MOL0     H35492   1.663   5.799   7.312  2.4762  0.9671  4.1229
  269MOL0     H35493   1.866   5.890   7.421  1.3596 -3.4694 -0.7069
  269MOL0     H35494   2.164   5.217   7.689  0.7272  1.1083 -1.4673
  269MOL0     H35495   2.244   5.311   7.490 -2.1332 -1.0946  1.5600
  269MOL0     H35496   2.399   5.669   7.181 -1.2256 -0.7589 -2.6500
  269MOL0     H35497   2.517   5.706   6.967 -3.5271 -1.6798 -0.3213
  269MOL0     H35498   2.667   5.780   6.858  1.4830 -0.1573  2.2138
  269MOL0     H35499   2.644   5.669   6.723 -0.6290  3.3246 -1.4251
  269MOL0     H35500   2.840   5.824   6.689  0.7825  1.2794  0.4359
  269MOL0     H35501   2.913   5.770   6.837  0.1767 -0.1884  1.2166
  269MOL0     H35502   2.882   5.602   6.569 -0.7265 -0.0207  0.0809
  269MOL0     H35503   2.898   5.516   6.713  0.8489 -0.4083 -0.5227
  269MOL0     H35504   3.085   5.743   6.657  0.2051  0.1710  1.2573
  269MOL0     H35505   3.122   5.611   6.763  0.7542 -0.1235 -1.3775
  269MOL0     H35506   3.210   5.391   6.436  1.3950  2.2692 -0.8533
  269MOL0     H35507   2.780   5.403   7.029  0.0175 -1.4025  0.6815
  269MOL0     H35508   2.692   5.346   7.248  1.1474 -0.1940 -1.9428
  270MOL0     O35509   5.506   1.979   4.512 -0.2940  0.1811  0.7793
  270MOL0     C35510   5.427   1.891   4.482  0.8021  0.5023 -0.4610
  270MOL0     O35511   5.455   1.756   4.471 -0.3396 -0.5475 -0.7635
  270MOL0     C35512   5.587   1.716   4.475  0.5066 -0.5171 -0.2842
  270MOL0     C35513   5.615   1.621   4.566  0.1709 -0.3173  0.4799
  270MOL0     C35514   5.740   1.563   4.559 -0.3186 -0.3226 -1.4446
  270MOL0     C35515   5.841   1.619   4.482  0.8702 -0.4628 -0.2913
  270MOL0     O35516   5.959   1.552   4.479  0.9887  1.2174 -0.0212
  270MOL0     C35517   6.082   1.619   4.535 -0.1637  0.1908  0.0238
  270MOL0     C35518   6.189   1.519   4.551 -0.8282  1.4127 -0.6079
  270MOL0     C35519   6.197   1.438   4.428  0.0403 -0.0343  0.9005
  270MOL0     C35520   6.336   1.380   4.411  0.5226 -0.3012  0.3343
  270MOL0     C35521   6.360   1.293   4.293  0.6177 -0.1364  0.0213
  270MOL0     C35522   6.272   1.167   4.291 -0.3050  0.7176 -0.1099
  270MOL0     C35523   6.223   1.133   4.151  1.1216  0.4515 -0.1007
  270MOL0     C35524   6.145   1.000   4.132  0.3457  0.5018 -0.3562
  270MOL0     N35525   6.113   0.976   3.989  0.4241  0.0711 -0.5309
  270MOL0     C35526   6.066   0.851   3.941  0.5696 -0.3018 -0.0880
  270MOL0     C35527   6.028   0.875   3.821  0.1519  0.1338  0.7772
  270MOL0     C35528   5.960   0.773   3.733  1.0547 -0.5464  0.4495
  270MOL0     C35529   6.055   0.697   3.630  0.1800  0.0601 -0.0139
  270MOL0     C35530   6.070   0.754   3.490  0.2448  0.1167  1.3575
  270MOL0     C35531   6.148   0.881   3.476 -0.2487  0.4210 -0.1689
  270MOL0     O35532   6.266   0.881   3.561  0.3058  0.1994 -0.5357
  270MOL0     C35533   6.354   0.980   3.536  0.1884  0.9550 -0.1104
  270MOL0     C35534   6.434   0.985   3.408 -0.3655  0.5232 -0.9324
  270MOL0     C35535   6.526   1.085   3.391  0.6280  0.7037  0.1596
  270MOL0     C35536   6.548   1.179   3.491  0.0636 -0.0810  0.5250
  270MOL0     C35537   6.642   1.288   3.461  0.3410 -0.5479 -0.0058
  270MOL0     O35538   6.648   1.325   3.323  0.8110 -0.3857 -0.3826
  270MOL0     C35539   6.717   1.441   3.294 -1.0816 -0.0879  0.0569
  270MOL0     C35540   6.639   1.535   3.223  0.0745 -0.1608  0.5332
  270MOL0     C35541   6.697   1.661   3.196 -0.6339 -0.2081  0.7408
  270MOL0     C35542   6.823   1.695   3.233 -0.2776 -0.8368 -0.6189
  270MOL0     O35543   6.867   1.822   3.214  0.5348 -0.2590  0.3753
  270MOL0     C35544   6.913   1.903   3.324  1.0882 -0.3142  0.1404
  270MOL0     C35545   6.793   1.931   3.415  0.3375  0.7450  0.6689
  270MOL0     C35546   6.699   2.022   3.349  0.1379 -0.3930  0.1740
  270MOL0     C35547   6.571   2.010   3.426  0.6083  0.0530 -0.6398
  270MOL0     C35548   6.462   2.087   3.350  0.0460  0.7780  0.7291
  270MOL0     C35549   6.321   2.044   3.395  0.0077  0.4465  0.3158
  270MOL0     C35550   6.216   2.136   3.334  0.0112  0.0807  0.3082
  270MOL0     C35551   6.073   2.086   3.340  0.0864 -0.3953 -0.2581
  270MOL0    Cl35552   6.070   1.940   3.232  0.2808 -0.0063  0.2608
  270MOL0     C35553   6.902   1.605   3.304  0.4083 -0.6498  1.0192
  270MOL0     C35554   6.853   1.472   3.332  0.6231  0.3048  0.4305
  270MOL0     O35555   6.702   1.341   3.555 -0.0880  0.1616 -0.3220
  270MOL0     C35556   6.473   1.176   3.611 -0.0482  0.7160  0.1795
  270MOL0     C35557   6.375   1.074   3.637  0.1891 -0.4885 -0.0295
  270MOL0     N35558   6.043   1.007   3.790  0.1640  1.1614 -0.1169
  270MOL0     N35559   6.101   1.065   3.888 -0.0733  1.0708 -0.3784
  270MOL0     C35560   5.820   1.727   4.410 -0.4316 -0.1170 -0.4563
  270MOL0     C35561   5.684   1.771   4.399 -0.0607  0.0750 -0.1706
  270MOL0     C35562   5.287   1.930   4.468  0.0525  0.4111 -0.3627
  270MOL0     C35563   5.193   1.829   4.432 -1.1457 -0.8569  0.2532
  270MOL0     C35564   5.059   1.849   4.419  0.0095  0.9664 -0.9328
  270MOL0     C35565   5.010   1.973   4.456 -0.5586  0.7370  1.6180
  270MOL0     O35566   4.874   2.000   4.440  0.2638 -0.6676 -0.5445
  270MOL0     C35567   4.791   1.929   4.354 -0.4682  0.3367  0.5093
  270MOL0     C35568   4.671   2.020   4.313 -0.7005  0.2518 -0.6998
  270MOL0     C35569   4.543   1.931   4.308  0.0326 -0.6127 -0.6997
  270MOL0     C35570   4.422   1.990   4.246 -0.4031 -0.2313  0.2694
  270MOL0     C35571   4.359   2.088   4.335 -0.4470 -0.8489  0.4965
  270MOL0     C35572   4.320   2.165   4.410  0.4578 -0.2632 -0.1196
  270MOL0     C35573   5.093   2.070   4.501 -0.0525 -0.3105 -0.0920
  270MOL0     C35574   5.235   2.051   4.498 -0.2277 -0.3976 -0.6577
  270MOL0     H35575   5.536   1.567   4.616 -0.1471 -1.0338 -0.7546
  270MOL0     H35576   5.768   1.469   4.605 -0.5675 -1.4988 -3.5771
  270MOL0     H35577   6.050   1.669   4.627 -3.8619  1.4752 -1.7242
  270MOL0     H35578   6.112   1.702   4.470  0.5264  0.8519  1.1431
  270MOL0     H35579   6.172   1.461   4.642 -3.4271 -0.3099 -2.0309
  270MOL0     H35580   6.283   1.568   4.577 -0.1471 -0.5961  0.9949
  270MOL0     H35581   6.193   1.513   4.348 -0.2070  0.6073  1.4965
  270MOL0     H35582   6.118   1.362   4.420 -1.4583  1.5937 -1.0269
  270MOL0     H35583   6.403   1.466   4.407 -1.6594  1.9261  4.4848
  270MOL0     H35584   6.370   1.337   4.506  1.3066  0.4599  0.4134
  270MOL0     H35585   6.465   1.264   4.285  1.1410  0.9770  2.1678
  270MOL0     H35586   6.339   1.359   4.209  0.5409 -0.4296 -0.1920
  270MOL0     H35587   6.185   1.167   4.357 -2.4598 -1.5460 -2.6936
  270MOL0     H35588   6.327   1.081   4.329 -3.8728 -2.4443 -1.4500
  270MOL0     H35589   6.150   1.210   4.124 -0.2272 -1.0982 -1.0680
  270MOL0     H35590   6.306   1.136   4.079  1.4113  1.9271  0.2652
  270MOL0     H35591   6.052   1.002   4.190 -0.9982  0.2551 -2.4082
  270MOL0     H35592   6.222   0.928   4.160  0.7729 -1.0341 -4.7573
  270MOL0     H35593   6.055   0.753   3.986  0.6197  0.0950  0.8030
  270MOL0     H35594   5.883   0.821   3.671 -0.9210 -0.2121  3.0113
  270MOL0     H35595   5.900   0.710   3.799 -1.4866  0.6598 -0.5694
  270MOL0     H35596   6.033   0.589   3.634  2.2890 -0.3804  1.6948
  270MOL0     H35597   6.157   0.702   3.669 -0.0052 -0.8507  0.6257
  270MOL0     H35598   6.137   0.678   3.449  3.1313  2.3463  1.6738
  270MOL0     H35599   5.970   0.749   3.446  1.7344 -0.2762 -2.3046
  270MOL0     H35600   6.076   0.962   3.494 -0.3147 -0.2704  3.6883
  270MOL0     H35601   6.167   0.912   3.373 -0.2640  2.0360  0.2851
  270MOL0     H35602   6.411   0.920   3.324 -0.1709 -0.5604 -0.1670
  270MOL0     H35603   6.567   1.087   3.291 -2.4387  0.1344 -1.2163
  270MOL0     H35604   6.534   1.516   3.201  0.4563  0.7058 -2.5238
  270MOL0     H35605   6.633   1.737   3.151 -1.0725 -0.6635  0.5792
  270MOL0     H35606   6.948   1.992   3.271  1.6853  0.4592  1.7548
  270MOL0     H35607   6.988   1.854   3.386  0.6183 -0.6085  0.4845
  270MOL0     H35608   6.846   1.974   3.501  0.4868 -1.8005  1.9283
  270MOL0     H35609   6.737   1.842   3.444  1.0779  0.7037  2.0431
  270MOL0     H35610   6.671   1.991   3.248 -0.7691 -1.3446  0.6983
  270MOL0     H35611   6.742   2.123   3.345 -1.9042  0.5807  1.0373
  270MOL0     H35612   6.536   1.906   3.428 -0.2469  0.3427 -0.2975
  270MOL0     H35613   6.582   2.042   3.530 -0.9760  0.3674 -0.5450
  270MOL0     H35614   6.482   2.078   3.243 -2.1074  1.8700  0.1834
  270MOL0     H35615   6.470   2.191   3.382  2.1886 -0.0666  3.2832
  270MOL0     H35616   6.324   2.049   3.504 -4.3328  0.9957  0.5581
  270MOL0     H35617   6.325   1.937   3.369  1.1133  1.3673 -4.2425
  270MOL0     H35618   6.222   2.232   3.386  0.1143  0.8682 -1.1231
  270MOL0     H35619   6.242   2.153   3.229  0.3196  0.9857  0.5261
  270MOL0     H35620   5.999   2.163   3.315 -2.1769 -2.4157 -0.1308
  270MOL0     H35621   6.060   2.065   3.447  0.8177 -2.9785 -0.6192
  270MOL0     H35622   7.004   1.637   3.323  1.7573 -2.3371 -2.4397
  270MOL0     H35623   6.912   1.397   3.384 -0.1547 -0.3410  0.4022
  270MOL0     H35624   6.499   1.246   3.690  2.6611  3.3226 -2.7610
  270MOL0     H35625   6.326   1.069   3.733  0.8331  0.2795  0.3524
  270MOL0     H35626   5.884   1.759   4.329 -2.4849  1.1569 -1.6912
  270MOL0     H35627   5.660   1.856   4.336 -0.4198 -0.8709 -1.3385
  270MOL0     H35628   5.236   1.730   4.416 -0.7319 -0.3368 -2.2371
  270MOL0     H35629   4.996   1.762   4.406  1.2286 -0.5168  2.1942
  270MOL0     H35630   4.766   1.837   4.408  2.9661 -0.4742  0.9630
  270MOL0     H35631   4.844   1.900   4.263  1.4896 -0.5541  1.8524
  270MOL0     H35632   4.654   2.094   4.391 -4.0062 -3.1746  2.1892
  270MOL0     H35633   4.688   2.064   4.214  0.0861 -1.7910 -1.5337
  270MOL0     H35634   4.526   1.908   4.414 -1.3911  2.2969 -0.2001
  270MOL0     H35635   4.566   1.842   4.249 -0.3433 -0.7421 -0.6494
  270MOL0     H35636   4.449   2.038   4.152  0.1740  1.9857  1.5070
  270MOL0     H35637   4.344   1.919   4.217  1.0714 -1.6449 -0.4041
  270MOL0     H35638   4.288   2.251   4.465  2.2832  2.1839 -2.6145
  270MOL0     H35639   5.067   2.170   4.534 -2.3739 -1.1206  0.7902
  270MOL0     H35640   5.301   2.134   4.520 -1.2911  0.6352 -1.2634
  271MOL0     O35641   2.055   1.004   0.096 -0.1628 -0.0109  0.1653
  271MOL0     C35642   2.160   0.947   0.074 -0.6665  0.1330  0.7406
  271MOL0     O35643   2.238   0.881   0.169  0.1817  0.1144 -0.2567
  271MOL0     C35644   2.179   0.853   0.297 -0.7480  0.1829  0.6422
  271MOL0     C35645   2.188   0.939   0.407  0.1369  0.2201  0.3978
  271MOL0     C35646   2.135   0.893   0.529 -0.0750  0.4106  0.0361
  271MOL0     C35647   2.088   0.759   0.550 -0.5105  0.3780  0.7614
  271MOL0     O35648   2.034   0.707   0.661  0.1134 -0.2401 -0.3056
  271MOL0     C35649   2.101   0.744   0.789 -0.5862  0.1842 -0.4143
  271MOL0     C35650   2.242   0.670   0.795  0.4374  0.0797 -0.9644
  271MOL0     C35651   2.324   0.708   0.912  0.5088 -0.1355 -0.5181
  271MOL0     C35652   2.301   0.618   1.028  0.7908 -0.5796  0.6507
  271MOL0     C35653   2.383   0.657   1.151  0.9677 -0.0566 -0.4031
  271MOL0     C35654   2.513   0.592   1.138  0.5891  0.1170  0.2878
  271MOL0     C35655   2.616   0.643   1.247  0.3416  0.2738  0.4256
  271MOL0     C35656   2.751   0.576   1.232  0.0065  0.0409  0.4760
  271MOL0     N35657   2.842   0.600   1.348  0.2736 -0.0250  0.2006
  271MOL0     C35658   2.947   0.519   1.381  0.0525  0.2858  0.9887
  271MOL0     C35659   2.974   0.546   1.518  0.9918  0.3906  0.4409
  271MOL0     C35660   3.062   0.481   1.619  0.5634  0.3362  0.1978
  271MOL0     C35661   3.203   0.446   1.573 -0.5900 -0.0519  0.4052
  271MOL0     C35662   3.290   0.390   1.686  1.1729 -0.0291 -0.2862
  271MOL0     C35663   3.433   0.378   1.650 -0.1461 -1.5253 -0.8721
  271MOL0     O35664   3.440   0.276   1.551  0.3570  0.0128  0.1258
  271MOL0     C35665   3.558   0.280   1.476 -0.0342  1.2472 -0.7265
  271MOL0     C35666   3.611   0.394   1.413  0.4363 -0.3136 -0.7514
  271MOL0     C35667   3.726   0.387   1.338  0.6403  0.3005 -0.2953
  271MOL0     C35668   3.770   0.263   1.292 -0.8946  0.0390 -0.0576
  271MOL0     C35669   3.903   0.265   1.207  0.5058 -0.0146  0.6076
  271MOL0     O35670   3.948   0.379   1.155 -0.4142  0.3030  0.4068
  271MOL0     C35671   4.041   0.369   1.047  1.1851 -1.1246  0.3567
  271MOL0     C35672   4.163   0.298   1.043 -0.6374 -0.7241 -0.3374
  271MOL0     C35673   4.240   0.300   0.924 -0.7002  0.2723 -1.3135
  271MOL0     C35674   4.202   0.378   0.817  0.1439 -0.0204  0.7784
  271MOL0     O35675   4.274   0.403   0.698 -0.2160  0.6943 -0.6886
  271MOL0     C35676   4.386   0.308   0.675  0.9943  0.4485 -0.2873
  271MOL0     C35677   4.463   0.332   0.542  0.0730  0.0709 -0.3693
  271MOL0     C35678   4.384   0.346   0.417 -0.4047  0.0539  0.5326
  271MOL0     C35679   4.327   0.481   0.373 -0.0754 -0.2813 -0.5299
  271MOL0     C35680   4.380   0.519   0.236 -0.0675 -0.3181 -0.4852
  271MOL0     C35681   4.336   0.664   0.215  0.3986 -0.3357  0.6449
  271MOL0     C35682   4.357   0.720   0.071 -0.5608  0.3888  0.2810
  271MOL0     C35683   4.254   0.823   0.067  0.8414 -0.8057  0.3721
  271MOL0    Cl35684   4.245   0.902  -0.089 -0.4313  0.2961  0.4552
  271MOL0     C35685   4.082   0.447   0.821 -0.1794 -0.0756  0.6440
  271MOL0     C35686   4.000   0.444   0.936  0.4038 -0.4657  0.3199
  271MOL0     O35687   3.964   0.160   1.209 -0.5970 -0.1301  0.3252
  271MOL0     C35688   3.715   0.140   1.344  0.0413 -0.0565  0.9792
  271MOL0     C35689   3.606   0.155   1.434 -0.3900  0.4045  0.0181
  271MOL0     N35690   2.878   0.636   1.566  0.2267  0.0070 -0.2803
  271MOL0     N35691   2.813   0.674   1.458 -0.1389  0.0406  0.1725
  271MOL0     C35692   2.087   0.680   0.439  0.0164  0.1141  0.9544
  271MOL0     C35693   2.126   0.725   0.312  0.5296  0.2345  0.3762
  271MOL0     C35694   2.196   0.921  -0.071 -0.0503  0.8885 -0.2731
  271MOL0     C35695   2.284   0.806  -0.095  0.3965  0.2090 -0.7226
  271MOL0     C35696   2.328   0.764  -0.215 -0.0745 -0.9451  0.2369
  271MOL0     C35697   2.295   0.841  -0.330  0.0354  0.3735 -0.3364
  271MOL0     O35698   2.355   0.833  -0.450 -0.3215 -0.1764 -0.3953
  271MOL0     C35699   2.486   0.771  -0.461 -0.1471  0.0451 -0.6151
  271MOL0     C35700   2.555   0.801  -0.588 -0.1231  0.2342  0.0673
  271MOL0     C35701   2.696   0.732  -0.597  0.6960 -0.8678  0.3856
  271MOL0     C35702   2.808   0.766  -0.503 -0.2473  0.4981 -1.0558
  271MOL0     C35703   2.844   0.906  -0.501  0.5651 -0.3073 -0.6801
  271MOL0     C35704   2.883   1.020  -0.506 -0.4416  0.0538  0.0697
  271MOL0     C35705   2.203   0.956  -0.314 -0.7504  0.5103 -0.5345
  271MOL0     C35706   2.164   0.995  -0.184 -0.8941  0.0680  1.3763
  271MOL0     H35707   2.229   1.039   0.401 -1.8511  1.1725  1.4616
  271MOL0     H35708   2.132   0.970   0.605 -1.8300  0.9646 -0.5462
  271MOL0     H35709   2.040   0.693   0.864  1.6978 -2.2016 -0.0432
  271MOL0     H35710   2.104   0.852   0.803 -2.5203  0.2192 -0.0476
  271MOL0     H35711   2.287   0.706   0.702 -2.0668  1.7956 -1.6376
  271MOL0     H35712   2.229   0.562   0.787 -1.6825  0.2201 -0.0803
  271MOL0     H35713   2.330   0.815   0.932 -0.2934  0.0350 -1.1289
  271MOL0     H35714   2.424   0.691   0.873  0.3649  0.8443 -1.3764
  271MOL0     H35715   2.198   0.641   1.055  0.6510 -1.0248  0.5057
  271MOL0     H35716   2.313   0.515   0.993 -0.6310 -0.2888 -0.7859
  271MOL0     H35717   2.350   0.606   1.241  3.9120 -3.6637 -1.1129
  271MOL0     H35718   2.391   0.765   1.170 -0.9646 -0.0626  0.6866
  271MOL0     H35719   2.560   0.613   1.041  0.6063 -0.7656  0.0952
  271MOL0     H35720   2.500   0.486   1.161  2.2017 -0.0504  0.5424
  271MOL0     H35721   2.632   0.750   1.233  1.3610 -0.0650 -1.3195
  271MOL0     H35722   2.578   0.621   1.347 -0.3388 -4.3532 -0.6013
  271MOL0     H35723   2.803   0.619   1.146  2.2727 -1.5404  0.9853
  271MOL0     H35724   2.729   0.470   1.222 -1.8584  0.3092  1.2150
  271MOL0     H35725   2.985   0.449   1.307 -1.2297 -0.7680  1.3101
  271MOL0     H35726   3.016   0.395   1.669  2.1339  0.8769  2.7785
  271MOL0     H35727   3.069   0.556   1.698 -0.2103 -0.0337  0.6304
  271MOL0     H35728   3.249   0.541   1.547 -3.0389  1.3825  0.9467
  271MOL0     H35729   3.215   0.386   1.482 -1.7449 -0.2113  0.3392
  271MOL0     H35730   3.279   0.451   1.777 -0.1827  0.4260 -0.7265
  271MOL0     H35731   3.257   0.287   1.703  3.1563 -0.5019  0.9819
  271MOL0     H35732   3.491   0.344   1.736 -0.2937 -1.2488 -0.6634
  271MOL0     H35733   3.466   0.476   1.615  1.4566 -1.7677 -0.1409
  271MOL0     H35734   3.573   0.495   1.424 -0.2252 -0.7058  0.8449
  271MOL0     H35735   3.769   0.478   1.298 -1.1327  2.5714  2.6005
  271MOL0     H35736   4.194   0.247   1.133  1.5893 -0.4693 -0.8925
  271MOL0     H35737   4.336   0.250   0.931 -1.0739 -0.3091 -0.2230
  271MOL0     H35738   4.351   0.205   0.674  2.1632 -0.0076 -3.3932
  271MOL0     H35739   4.457   0.302   0.758 -1.0466 -1.3865  1.4419
  271MOL0     H35740   4.542   0.258   0.523  0.8398  0.8353 -0.2511
  271MOL0     H35741   4.517   0.424   0.569 -0.1851 -0.2940  1.4918
  271MOL0     H35742   4.293   0.285   0.417 -1.4190  1.5107  0.6156
  271MOL0     H35743   4.451   0.308   0.339  0.6985  1.9201  0.5169
  271MOL0     H35744   4.221   0.467   0.354  0.7507 -2.1743 -4.8869
  271MOL0     H35745   4.333   0.559   0.450 -1.8237 -0.7278  0.1150
  271MOL0     H35746   4.331   0.461   0.157 -1.7075 -1.2388  1.1278
  271MOL0     H35747   4.488   0.521   0.217 -0.1604 -0.9885 -1.1618
  271MOL0     H35748   4.405   0.729   0.271  3.7317 -1.6800 -1.6509
  271MOL0     H35749   4.233   0.677   0.250  0.3050 -1.7196  0.9419
  271MOL0     H35750   4.455   0.768   0.077  0.6291 -1.9100  0.6431
  271MOL0     H35751   4.341   0.650  -0.011  2.2408 -4.0036  3.0175
  271MOL0     H35752   4.281   0.902   0.139 -0.8508  0.9934 -0.8796
  271MOL0     H35753   4.153   0.788   0.089  0.6151 -0.0315  0.6197
  271MOL0     H35754   4.048   0.494   0.729  1.7161  1.3402  0.6178
  271MOL0     H35755   3.907   0.500   0.943  0.7687 -0.0690  3.0772
  271MOL0     H35756   3.747   0.042   1.311  0.2909 -0.1788  1.5729
  271MOL0     H35757   3.558   0.073   1.487  0.9898 -1.6871 -1.7973
  271MOL0     H35758   2.049   0.579   0.444 -2.8808  0.9761 -0.8615
  271MOL0     H35759   2.125   0.662   0.224  2.7255 -2.0960  1.8590
  271MOL0     H35760   2.315   0.740  -0.015  3.0920  1.2278 -0.8349
  271MOL0     H35761   2.391   0.678  -0.235  0.2055 -0.4896 -0.9072
  271MOL0     H35762   2.468   0.663  -0.461  0.2575 -0.0251 -0.8325
  271MOL0     H35763   2.546   0.799  -0.374  1.4373 -3.1509 -0.5492
  271MOL0     H35764   2.483   0.788  -0.669 -0.4338  1.5277  0.1152
  271MOL0     H35765   2.585   0.906  -0.586  0.4564  0.0768  1.5136
  271MOL0     H35766   2.735   0.763  -0.695  1.3332 -2.6040  0.0544
  271MOL0     H35767   2.683   0.624  -0.605 -3.5942 -0.3794 -1.7908
  271MOL0     H35768   2.774   0.729  -0.406  0.0551 -2.4922 -1.9947
  271MOL0     H35769   2.896   0.712  -0.539 -0.9610 -0.4305 -1.4495
  271MOL0     H35770   2.903   1.125  -0.506 -2.3629  0.4896  1.8212
  271MOL0     H35771   2.208   1.020  -0.402 -3.6364  0.1703 -1.0185
  271MOL0     H35772   2.118   1.094  -0.188  1.1372  1.0377  0.2439
  272MOL0     O35773   2.620   1.850   6.307 -0.1854 -0.7234  0.0228
  272MOL0     C35774   2.534   1.769   6.349 -0.0068  0.1619 -0.9043
  272MOL0     O35775   2.520   1.636   6.320 -1.0184 -0.6368 -0.6849
  272MOL0     C35776   2.580   1.614   6.198 -0.4320 -0.2071 -0.4174
  272MOL0     C35777   2.692   1.527   6.200  1.0271 -0.3163  0.5087
  272MOL0     C35778   2.772   1.504   6.088 -0.4356  0.6464 -0.1113
  272MOL0     C35779   2.739   1.573   5.965 -0.1562 -1.0193 -0.5328
  272MOL0     O35780   2.804   1.556   5.855 -0.2188  0.7956 -0.2047
  272MOL0     C35781   2.944   1.521   5.867 -0.0493 -0.4644  0.6110
  272MOL0     C35782   3.012   1.541   5.737  0.5902 -0.7417 -0.5324
  272MOL0     C35783   3.171   1.555   5.750  0.0075 -0.4821 -0.0260
  272MOL0     C35784   3.243   1.457   5.837 -0.2144 -0.4080 -0.9412
  272MOL0     C35785   3.217   1.315   5.789 -0.6938  0.7996  0.2771
  272MOL0     C35786   3.301   1.210   5.871  0.3084  0.7290  0.0738
  272MOL0     C35787   3.264   1.189   6.020  0.1930  1.2736 -0.5783
  272MOL0     C35788   3.338   1.062   6.056  0.8484  0.5841 -0.2090
  272MOL0     N35789   3.243   0.949   6.058 -0.1092  0.1049 -0.6583
  272MOL0     C35790   3.238   0.849   5.959  0.0313  0.2397  0.1848
  272MOL0     C35791   3.158   0.759   6.009  0.0395  0.9330 -0.4538
  272MOL0     C35792   3.131   0.629   5.947  0.7450 -0.6054 -0.8930
  272MOL0     C35793   3.073   0.636   5.798  0.0256  0.2691 -0.6714
  272MOL0     C35794   3.035   0.490   5.754  0.0660  0.6897  0.3036
  272MOL0     C35795   2.999   0.497   5.607 -0.3952  0.2544  0.4295
  272MOL0     O35796   2.893   0.403   5.578 -0.7090 -0.3062  0.0381
  272MOL0     C35797   2.916   0.324   5.465 -0.4480  0.7986 -0.2640
  272MOL0     C35798   2.915   0.187   5.480 -0.8235 -0.0668  0.7160
  272MOL0     C35799   2.923   0.100   5.368  0.0108 -0.8731  0.0029
  272MOL0     C35800   2.950   0.141   5.240  0.6233  0.0777 -0.7693
  272MOL0     C35801   2.966   0.056   5.128  0.2450  0.4716  0.8227
  272MOL0     O35802   2.932   0.094   4.996  0.6989  0.1611 -1.4032
  272MOL0     C35803   2.977   0.011   4.901 -0.5603  0.7553 -0.3919
  272MOL0     C35804   2.897  -0.076   4.827 -0.6957 -0.0957 -0.2495
  272MOL0     C35805   2.950  -0.154   4.718  0.9742 -0.0182 -0.1206
  272MOL0     C35806   3.085  -0.136   4.684 -0.6482 -0.9446 -0.0563
  272MOL0     O35807   3.134  -0.192   4.561 -0.3689  0.2918 -0.7248
  272MOL0     C35808   3.215  -0.099   4.489  0.5103  0.6811  0.3155
  272MOL0     C35809   3.221  -0.146   4.343  0.5383  0.7353 -0.3137
  272MOL0     C35810   3.090  -0.177   4.266  0.0546  1.5694  0.8242
  272MOL0     C35811   2.999  -0.061   4.274 -0.2104 -0.2867  0.1263
  272MOL0     C35812   2.892  -0.049   4.157  0.4396  0.2487 -1.2100
  272MOL0     C35813   2.801  -0.177   4.167 -0.3501 -1.3648 -0.1818
  272MOL0     C35814   2.707  -0.181   4.052 -0.5397  0.3649 -0.2633
  272MOL0     C35815   2.613  -0.293   4.039  0.7442  0.2062  0.5348
  272MOL0    Cl35816   2.511  -0.262   3.891  0.1602 -0.2407  0.5321
  272MOL0     C35817   3.175  -0.056   4.760 -0.2292 -0.0708  0.9592
  272MOL0     C35818   3.120   0.017   4.859  0.2528 -0.2196 -0.7682
  272MOL0     O35819   3.009  -0.053   5.157 -0.1127 -0.6395 -0.2038
  272MOL0     C35820   2.960   0.278   5.227 -0.6999 -0.6456  0.1718
  272MOL0     C35821   2.938   0.368   5.333 -1.6339 -0.0876  0.0173
  272MOL0     N35822   3.104   0.800   6.128 -0.2131  0.0441 -0.3760
  272MOL0     N35823   3.164   0.914   6.160  0.3776 -0.3501 -0.9291
  272MOL0     C35824   2.623   1.656   5.960 -0.2960  0.6689 -0.7325
  272MOL0     C35825   2.543   1.675   6.072 -0.0039  0.1759 -0.8079
  272MOL0     C35826   2.421   1.821   6.439 -0.9225  0.7140  0.2965
  272MOL0     C35827   2.304   1.741   6.441 -0.3149 -1.6092 -0.2152
  272MOL0     C35828   2.196   1.779   6.528 -0.2038 -0.1060 -0.1661
  272MOL0     C35829   2.204   1.895   6.596  0.3585 -0.1008 -0.0044
  272MOL0     O35830   2.093   1.907   6.678 -0.2389 -0.3013 -0.2205
  272MOL0     C35831   2.120   1.976   6.807 -0.1259  0.5981  0.6779
  272MOL0     C35832   1.989   2.006   6.873  0.7344  0.2705  0.6084
  272MOL0     C35833   1.882   2.089   6.791 -0.1524  0.0122 -0.2866
  272MOL0     C35834   1.922   2.226   6.758 -0.4111 -0.8771  1.2508
  272MOL0     C35835   1.817   2.278   6.668 -0.4695  0.4693 -0.5496
  272MOL0     C35836   1.741   2.299   6.576  0.1006 -0.0435  0.2796
  272MOL0     C35837   2.314   1.981   6.586 -0.2116  0.5956 -0.1788
  272MOL0     C35838   2.430   1.943   6.513  0.9296  0.0041 -0.5638
  272MOL0     H35839   2.708   1.476   6.294  2.6012 -2.9970 -1.0906
  272MOL0     H35840   2.865   1.452   6.104 -1.2247 -0.2879  1.7991
  272MOL0     H35841   2.963   1.421   5.907  1.7787  1.0225  3.9019
  272MOL0     H35842   2.991   1.598   5.929  0.7317  0.3317 -0.8909
  272MOL0     H35843   2.970   1.631   5.690  1.5795  1.7266  2.9211
  272MOL0     H35844   2.998   1.463   5.662 -0.1270 -0.7828 -0.3616
  272MOL0     H35845   3.194   1.657   5.782 -1.0934 -0.7363  1.7072
  272MOL0     H35846   3.209   1.544   5.648 -2.0061 -0.9456 -0.7867
  272MOL0     H35847   3.349   1.484   5.838 -0.4896  0.7074 -0.3065
  272MOL0     H35848   3.207   1.472   5.939 -1.8029 -0.4772 -1.4566
  272MOL0     H35849   3.241   1.307   5.683  1.1470  4.3348  0.2620
  272MOL0     H35850   3.113   1.282   5.799  0.8217 -4.6384  1.8965
  272MOL0     H35851   3.408   1.234   5.857  0.1825  0.9617 -0.5410
  272MOL0     H35852   3.289   1.113   5.823 -0.6683  1.1528 -0.5736
  272MOL0     H35853   3.290   1.274   6.085  0.6600  1.3615 -0.8737
  272MOL0     H35854   3.158   1.166   6.030  0.3306  0.4179 -1.0494
  272MOL0     H35855   3.372   1.060   6.160  0.2611  0.6263 -0.0130
  272MOL0     H35856   3.422   1.030   5.995  0.8479 -0.2025  0.1937
  272MOL0     H35857   3.302   0.849   5.871 -1.4709 -1.2013 -0.9731
  272MOL0     H35858   3.070   0.568   6.014 -1.1707  0.5179 -1.5430
  272MOL0     H35859   3.228   0.578   5.948  0.0619 -1.9653  0.0356
  272MOL0     H35860   3.137   0.690   5.728  0.9527 -2.4040 -2.0209
  272MOL0     H35861   2.979   0.693   5.803 -0.4341  0.5082 -6.2852
  272MOL0     H35862   3.122   0.425   5.765  1.4020  1.9398 -2.0409
  272MOL0     H35863   2.951   0.442   5.806 -1.2556  3.1363  0.5975
  272MOL0     H35864   3.087   0.489   5.543 -1.4236  2.0706 -1.3750
  272MOL0     H35865   2.963   0.599   5.587  0.2476  0.3435 -0.3286
  272MOL0     H35866   2.894   0.150   5.580  1.8540 -0.9136  1.0451
  272MOL0     H35867   2.908  -0.001   5.404 -0.2245  0.1484  3.0437
  272MOL0     H35868   2.792  -0.087   4.853 -1.2046  1.0624 -1.6442
  272MOL0     H35869   2.899  -0.232   4.663  1.4099 -1.4417  1.3865
  272MOL0     H35870   3.316  -0.106   4.529  0.1946 -0.9389  0.9146
  272MOL0     H35871   3.170   0.001   4.485  2.3744  1.5229 -1.3326
  272MOL0     H35872   3.273  -0.242   4.348 -2.4920 -0.9712  0.8873
  272MOL0     H35873   3.284  -0.077   4.286 -1.2982  1.7266 -1.2188
  272MOL0     H35874   3.043  -0.268   4.301 -0.1708 -0.4199 -3.8863
  272MOL0     H35875   3.130  -0.200   4.166 -0.4070  2.4602  0.4200
  272MOL0     H35876   2.947  -0.070   4.370  0.5096  1.3000  0.6871
  272MOL0     H35877   3.063   0.026   4.291  1.3356 -0.8992 -2.0849
  272MOL0     H35878   2.944  -0.061   4.062 -0.8189 -1.3465 -1.7351
  272MOL0     H35879   2.831   0.042   4.159 -1.4755 -0.9635  1.2840
  272MOL0     H35880   2.740  -0.155   4.256  0.6102  0.6417  0.0490
  272MOL0     H35881   2.849  -0.275   4.175  1.3950 -0.4365  1.4279
  272MOL0     H35882   2.635  -0.099   4.058 -1.6914 -0.6589  0.0412
  272MOL0     H35883   2.767  -0.168   3.961  0.1097  1.5196  0.2969
  272MOL0     H35884   2.536  -0.291   4.116  0.3110  0.6314  0.0969
  272MOL0     H35885   2.655  -0.393   4.027  1.7094  0.4327  1.8415
  272MOL0     H35886   3.276  -0.063   4.722 -1.2345  0.4380 -2.0800
  272MOL0     H35887   3.168   0.096   4.914 -2.1607  1.7063 -1.2338
  272MOL0     H35888   2.964   0.318   5.127  1.6864  0.7365  0.7342
  272MOL0     H35889   2.938   0.475   5.317  1.0765 -0.0009  0.0304
  272MOL0     H35890   2.611   1.697   5.860  4.6210 -1.7640 -2.6900
  272MOL0     H35891   2.462   1.748   6.078  0.1234  0.2795 -0.2743
  272MOL0     H35892   2.290   1.653   6.378 -0.4639  0.5815 -3.4698
  272MOL0     H35893   2.108   1.717   6.527  0.7657 -1.5255 -0.6256
  272MOL0     H35894   2.176   2.070   6.800  3.5805 -1.4107  0.5333
  272MOL0     H35895   2.176   1.903   6.867 -1.9338 -2.8747 -1.5391
  272MOL0     H35896   1.942   1.910   6.895 -0.2399  0.4469 -0.6195
  272MOL0     H35897   2.015   2.053   6.968  0.0974  1.6849  0.1065
  272MOL0     H35898   1.798   2.081   6.860 -0.1981  0.9361 -0.2269
  272MOL0     H35899   1.855   2.036   6.699  3.2705 -2.6637  0.0527
  272MOL0     H35900   1.937   2.287   6.848 -1.4558  2.4885 -0.7014
  272MOL0     H35901   2.018   2.216   6.706 -0.2319  0.8349  1.2141
  272MOL0     H35902   1.675   2.308   6.491  1.2290 -0.2630 -0.6397
  272MOL0     H35903   2.324   2.072   6.645  0.6961  0.9930 -0.9300
  272MOL0     H35904   2.518   2.007   6.513 -0.6433  2.3366  1.3749
  273MOL0     O35905   0.254   8.519   0.774 -0.6132  0.7204  0.5631
  273MOL0     C35906   0.366   8.568   0.760 -0.2049  1.0125  0.9003
  273MOL0     O35907   0.439   8.585   0.637 -0.2665 -0.1278  0.1521
  273MOL0     C35908   0.385   8.561   0.512  0.7925  0.9039  0.1987
  273MOL0     C35909   0.251   8.605   0.488 -0.0466 -0.2585  0.1798
  273MOL0     C35910   0.210   8.603   0.361 -0.1056 -0.1810  0.3913
  273MOL0     C35911   0.296   8.555   0.251 -0.0034 -0.2208  0.1407
  273MOL0     O35912   0.264   8.570   0.120  1.1273  0.0491 -1.0548
  273MOL0     C35913   0.215   8.689   0.065  0.3255  0.9725  0.6427
  273MOL0     C35914   0.302   8.812   0.074 -0.9983  0.0881 -0.4743
  273MOL0     C35915   0.247   8.934  -0.008 -0.1269 -0.6140 -0.9005
  273MOL0     C35916   0.342   9.055  -0.023 -0.6162  0.0486  0.2181
  273MOL0     C35917   0.318   9.131  -0.152 -0.6298 -0.5191  1.1817
  273MOL0     C35918   0.408   9.254  -0.165 -0.2864 -0.0169  0.3584
  273MOL0     C35919   0.339   9.354  -0.265  0.8796  0.7630  0.4559
  273MOL0     C35920   0.446   9.454  -0.307  0.5709  0.6407  0.8502
  273MOL0     N35921   0.377   9.569  -0.366  0.2408  0.6467 -0.6238
  273MOL0     C35922   0.417   9.630  -0.486 -0.1749  0.4410  0.6726
  273MOL0     C35923   0.329   9.727  -0.493  0.0456  0.6351  0.7437
  273MOL0     C35924   0.338   9.821  -0.607 -0.0480  0.0048 -0.5867
  273MOL0     C35925   0.239   9.789  -0.726 -0.5448  0.6974  0.2125
  273MOL0     C35926   0.233   9.888  -0.841 -0.0369 -0.2505 -0.6736
  273MOL0     C35927   0.369   9.910  -0.899 -0.2681  0.4265  0.3990
  273MOL0     O35928   0.365  10.008  -1.004  0.7768  0.3256 -0.4179
  273MOL0     C35929   0.385  10.140  -0.995  0.1624  0.6689 -0.5433
  273MOL0     C35930   0.383  10.206  -0.864 -0.1168  0.8845  0.4148
  273MOL0     C35931   0.430  10.342  -0.854 -0.0563 -0.0429 -0.1759
  273MOL0     C35932   0.458  10.409  -0.980  0.4715  0.0652  0.6826
  273MOL0     C35933   0.509  10.545  -0.970 -0.8250 -0.2576  0.2917
  273MOL0     O35934   0.484  10.610  -0.854  0.2930 -0.3976  1.0135
  273MOL0     C35935   0.514  10.747  -0.842 -0.8637 -0.1780 -0.0530
  273MOL0     C35936   0.647  10.783  -0.807  0.0944 -0.6724 -0.2976
  273MOL0     C35937   0.674  10.926  -0.785 -0.3364  0.5266  0.0111
  273MOL0     C35938   0.571  11.028  -0.802  0.1323 -0.2153  0.2167
  273MOL0     O35939   0.568  11.162  -0.784 -0.1421  0.4485  0.1833
  273MOL0     C35940   0.691  11.231  -0.778  0.4694 -0.0089  0.2107
  273MOL0     C35941   0.752  11.235  -0.635  0.4032 -1.0676 -0.8179
  273MOL0     C35942   0.836  11.366  -0.626  0.6203  0.8304 -0.1451
  273MOL0     C35943   0.861  11.416  -0.481  0.6514  0.2588  0.4294
  273MOL0     C35944   0.934  11.541  -0.472 -0.2760  1.1890 -0.7715
  273MOL0     C35945   1.044  11.550  -0.358 -0.2426 -0.3570 -0.0021
  273MOL0     C35946   0.991  11.598  -0.215  0.0423  0.3949  0.2888
  273MOL0     C35947   0.911  11.493  -0.138  0.3923 -1.0591 -0.4298
  273MOL0    Cl35948   1.029  11.388  -0.065  0.2528 -0.1439  0.0387
  273MOL0     C35949   0.447  10.976  -0.836  0.6401 -0.2196 -0.8021
  273MOL0     C35950   0.413  10.840  -0.861  0.2189  0.1877 -1.1244
  273MOL0     O35951   0.570  10.605  -1.064 -0.3617  0.9273 -0.2449
  273MOL0     C35952   0.430  10.348  -1.102  0.6049  0.6119  0.2289
  273MOL0     C35953   0.394  10.210  -1.110  0.0382  0.3339 -0.1463
  273MOL0     N35954   0.242   9.738  -0.382 -0.8031  0.6421  0.4594
  273MOL0     N35955   0.280   9.643  -0.298 -0.3719 -0.6276  0.3429
  273MOL0     C35956   0.423   8.503   0.279  0.1965  0.1069 -0.4234
  273MOL0     C35957   0.465   8.509   0.408  0.8490  0.4522 -0.3035
  273MOL0     C35958   0.430   8.616   0.883  1.2063 -1.1140 -0.0311
  273MOL0     C35959   0.558   8.656   0.883 -0.9458 -0.4259  0.8070
  273MOL0     C35960   0.619   8.710   0.991  0.5364 -0.1560 -0.4681
  273MOL0     C35961   0.554   8.726   1.116 -0.0468 -0.7457 -0.1011
  273MOL0     O35962   0.617   8.781   1.224 -0.1287  0.2261  0.1908
  273MOL0     C35963   0.738   8.869   1.205 -0.2495  0.0873  0.3117
  273MOL0     C35964   0.871   8.809   1.225 -0.1333  0.8998 -0.0946
  273MOL0     C35965   0.990   8.907   1.204  1.1238  0.9526 -1.2333
  273MOL0     C35966   1.070   8.880   1.074  0.1299 -0.2803 -0.0580
  273MOL0     C35967   1.193   8.961   1.069  0.6235 -0.6411  0.0169
  273MOL0     C35968   1.298   9.019   1.085  0.3105 -0.4228  0.7503
  273MOL0     C35969   0.423   8.677   1.123 -0.0100  0.0906  1.0633
  273MOL0     C35970   0.354   8.624   1.008 -1.5218 -0.1897  0.4661
  273MOL0     H35971   0.204   8.667   0.563 -0.6188 -0.4462 -0.0167
  273MOL0     H35972   0.108   8.628   0.331 -0.5802  0.2720  2.2814
  273MOL0     H35973   0.113   8.720   0.091  0.4624  1.1219  1.0170
  273MOL0     H35974   0.199   8.660  -0.039  1.8728  0.5853  0.4956
  273MOL0     H35975   0.405   8.785   0.047 -0.9477 -2.2542  1.7549
  273MOL0     H35976   0.301   8.842   0.180 -4.0400  0.7348 -0.6104
  273MOL0     H35977   0.150   8.964   0.033  1.1825  0.5372  1.6086
  273MOL0     H35978   0.229   8.898  -0.109 -2.1729  2.5835 -1.8034
  273MOL0     H35979   0.343   9.122   0.064  3.1229 -1.2757  1.4222
  273MOL0     H35980   0.443   9.011  -0.020 -0.1954  1.0118  1.0632
  273MOL0     H35981   0.214   9.160  -0.166  0.3213  3.5809  1.3099
  273MOL0     H35982   0.349   9.074  -0.240  1.5046  4.0394 -1.3628
  273MOL0     H35983   0.491   9.218  -0.227 -2.1431 -0.9675 -1.6979
  273MOL0     H35984   0.437   9.301  -0.071 -2.2875  0.6954  0.6743
  273MOL0     H35985   0.311   9.307  -0.360 -1.3507  2.6310  0.0816
  273MOL0     H35986   0.243   9.398  -0.233  1.7125  2.3064  0.9431
  273MOL0     H35987   0.512   9.406  -0.382 -2.9825 -3.1499 -0.2515
  273MOL0     H35988   0.500   9.484  -0.217 -0.9457  0.2833  1.8969
  273MOL0     H35989   0.503   9.616  -0.551 -1.3226 -2.2246 -0.4291
  273MOL0     H35990   0.440   9.819  -0.646 -0.0399 -0.7336 -0.5515
  273MOL0     H35991   0.325   9.916  -0.555 -1.9169 -0.8886  0.7228
  273MOL0     H35992   0.140   9.763  -0.687  0.3899 -0.5231  1.8405
  273MOL0     H35993   0.287   9.700  -0.768 -0.1827  1.8361 -1.9441
  273MOL0     H35994   0.167   9.855  -0.921  1.1556  2.6616 -3.0475
  273MOL0     H35995   0.205   9.989  -0.810  0.8644 -0.1133 -0.2685
  273MOL0     H35996   0.406   9.817  -0.942 -0.8111 -0.3850  1.6285
  273MOL0     H35997   0.437   9.942  -0.819  1.8132 -2.8043  0.0798
  273MOL0     H35998   0.353  10.161  -0.770  1.6146  0.7042  0.9131
  273MOL0     H35999   0.445  10.385  -0.756  2.9367 -1.6938  0.2015
  273MOL0     H36000   0.714  10.704  -0.777 -0.8535 -2.5441 -2.8187
  273MOL0     H36001   0.775  10.952  -0.754 -0.9822  3.4546 -0.0585
  273MOL0     H36002   0.671  11.323  -0.834 -0.1574 -1.9704 -3.1248
  273MOL0     H36003   0.760  11.176  -0.844  2.6520  0.5814  1.8864
  273MOL0     H36004   0.815  11.146  -0.624  3.2799  0.8485 -0.8263
  273MOL0     H36005   0.681  11.242  -0.552  4.3942  2.4848  2.7602
  273MOL0     H36006   0.813  11.458  -0.681  1.5946  2.1739  1.6193
  273MOL0     H36007   0.934  11.331  -0.660 -0.7851 -2.3563 -1.3007
  273MOL0     H36008   0.765  11.435  -0.432  1.4438 -0.7990  2.5361
  273MOL0     H36009   0.916  11.340  -0.424 -1.0309  0.4883  2.4611
  273MOL0     H36010   0.871  11.629  -0.460 -0.7885  0.4076  3.7965
  273MOL0     H36011   0.989  11.557  -0.565  1.7072  0.4590  0.2229
  273MOL0     H36012   1.107  11.635  -0.384  0.2145 -0.0569  1.9094
  273MOL0     H36013   1.110  11.467  -0.333 -1.9761 -1.4764  1.1166
  273MOL0     H36014   1.074  11.630  -0.151  1.8491 -0.2404 -1.6277
  273MOL0     H36015   0.929  11.686  -0.237  0.7464  0.3166 -2.2993
  273MOL0     H36016   0.831  11.458  -0.205 -0.1521 -0.5643 -0.0368
  273MOL0     H36017   0.858  11.543  -0.057 -0.4609  1.0019 -2.1730
  273MOL0     H36018   0.371  11.052  -0.846  0.2310 -0.0329  2.4497
  273MOL0     H36019   0.318  10.798  -0.891 -0.6439 -1.6690  3.4350
  273MOL0     H36020   0.441  10.414  -1.187 -0.7061  0.9627  0.3116
  273MOL0     H36021   0.388  10.165  -1.209 -0.3562  0.8391 -0.3598
  273MOL0     H36022   0.484   8.471   0.195 -0.4046 -0.0077 -0.8286
  273MOL0     H36023   0.564   8.478   0.439  1.5467  0.6079 -2.2582
  273MOL0     H36024   0.626   8.653   0.799  0.4910 -1.9046  1.9856
  273MOL0     H36025   0.724   8.732   0.973  1.0656  0.6992  2.9120
  273MOL0     H36026   0.731   8.950   1.278  0.2768 -1.0497  1.6588
  273MOL0     H36027   0.736   8.931   1.114 -0.7867  0.4752  0.5802
  273MOL0     H36028   0.871   8.744   1.313  0.0072  0.7770 -0.1845
  273MOL0     H36029   0.873   8.729   1.150 -0.8293  0.9429 -0.1583
  273MOL0     H36030   1.061   8.893   1.285  1.3218 -2.1911 -1.8316
  273MOL0     H36031   0.971   9.014   1.214  1.5528  0.8424  1.6432
  273MOL0     H36032   1.092   8.773   1.061 -2.3565 -0.7116 -1.4234
  273MOL0     H36033   1.013   8.917   0.989  0.3907 -2.2225 -1.1512
  273MOL0     H36034   1.380   9.088   1.084 -2.4551  3.2458 -2.5687
  273MOL0     H36035   0.380   8.674   1.223  0.5376 -1.2884  1.2903
  273MOL0     H36036   0.247   8.607   1.011 -1.6047  0.4311  1.9206
  274MOL0     O36037   1.955   9.526   0.722  0.1981 -0.1489  0.8861
  274MOL0     C36038   1.878   9.462   0.654 -0.1516  0.3592 -0.3654
  274MOL0     O36039   1.917   9.377   0.554 -1.0706  0.4999 -0.6682
  274MOL0     C36040   2.043   9.393   0.509 -0.2519  0.2047  0.5242
  274MOL0     C36041   2.123   9.282   0.486  0.2664  0.5747 -0.2043
  274MOL0     C36042   2.244   9.290   0.431 -0.0820 -0.2195  0.1753
  274MOL0     C36043   2.303   9.416   0.392  0.5730 -0.4152  0.2133
  274MOL0     O36044   2.429   9.438   0.335  0.4639 -0.1227  0.3365
  274MOL0     C36045   2.519   9.331   0.323  0.7431  0.6902 -0.1420
  274MOL0     C36046   2.565   9.259   0.456 -0.5149 -0.4375  0.1505
  274MOL0     C36047   2.656   9.139   0.442 -0.6575 -0.1720  0.4222
  274MOL0     C36048   2.799   9.161   0.507 -0.2915  0.3283  0.0054
  274MOL0     C36049   2.890   9.046   0.462 -0.3861 -0.0224  0.5150
  274MOL0     C36050   3.030   9.047   0.527 -0.9295 -0.3069  0.0369
  274MOL0     C36051   3.118   9.175   0.533 -0.4282 -0.2015  1.0395
  274MOL0     C36052   3.185   9.188   0.391 -0.5607  0.0206  0.5583
  274MOL0     N36053   3.262   9.322   0.393 -0.5560 -0.3469  0.3436
  274MOL0     C36054   3.200   9.440   0.361  0.2982  0.7918 -0.1042
  274MOL0     C36055   3.286   9.538   0.387  0.4881 -1.0225  0.0067
  274MOL0     C36056   3.251   9.682   0.350 -0.2073  0.4280 -0.1059
  274MOL0     C36057   3.274   9.730   0.217  0.6680  0.0210 -0.5412
  274MOL0     C36058   3.357   9.862   0.205 -0.3728 -0.1325 -0.0411
  274MOL0     C36059   3.405   9.886   0.060 -0.2481 -0.0785 -0.1789
  274MOL0     O36060   3.303   9.872  -0.035 -0.5561 -0.1475  0.1790
  274MOL0     C36061   3.317   9.906  -0.162  0.5742 -0.4410 -0.0803
  274MOL0     C36062   3.435   9.912  -0.236 -0.3981  0.1684  0.0323
  274MOL0     C36063   3.443   9.948  -0.368  0.4050  0.9532  0.4470
  274MOL0     C36064   3.314   9.972  -0.440 -0.4876 -0.5364 -0.6466
  274MOL0     C36065   3.313  10.014  -0.576 -0.1512  0.6269 -0.3494
  274MOL0     O36066   3.424  10.078  -0.627 -0.1894  0.6249 -0.6900
  274MOL0     C36067   3.441  10.133  -0.759  0.7445 -0.3758  0.5905
  274MOL0     C36068   3.331  10.154  -0.846 -0.8152 -0.1104  0.4738
  274MOL0     C36069   3.352  10.200  -0.971 -0.4168  0.0470  0.0616
  274MOL0     C36070   3.478  10.227  -1.024 -0.2663 -0.5186 -0.9425
  274MOL0     O36071   3.494  10.256  -1.154 -0.5498 -0.3379  0.2880
  274MOL0     C36072   3.623  10.307  -1.193 -0.3322 -0.1528 -0.2330
  274MOL0     C36073   3.614  10.308  -1.346  0.0342  0.0815 -1.3191
  274MOL0     C36074   3.743  10.372  -1.396 -0.5968 -0.1333  1.2391
  274MOL0     C36075   3.742  10.407  -1.541  0.1245  0.5340 -0.0415
  274MOL0     C36076   3.886  10.463  -1.597  1.7017 -0.1258  0.1924
  274MOL0     C36077   4.007  10.372  -1.586 -0.0938  0.2607  0.0420
  274MOL0     C36078   3.991  10.232  -1.657  0.3240  0.3025  0.7459
  274MOL0     C36079   4.119  10.170  -1.680  0.6244  0.5105 -0.7648
  274MOL0    Cl36080   4.206  10.161  -1.529 -0.3695  0.6402  0.3850
  274MOL0     C36081   3.585  10.214  -0.934 -0.2865 -0.3438  0.8602
  274MOL0     C36082   3.569  10.162  -0.804 -0.0576 -0.4631  0.1225
  274MOL0     O36083   3.209   9.997  -0.641  0.5217 -0.5438 -0.0535
  274MOL0     C36084   3.199   9.958  -0.364  0.2317  0.0188  0.4548
  274MOL0     C36085   3.204   9.927  -0.231  0.0843 -0.7384  0.9053
  274MOL0     N36086   3.398   9.485   0.430  0.1108 -0.2158  0.9109
  274MOL0     N36087   3.385   9.356   0.439  0.4456  0.7241 -0.5315
  274MOL0     C36088   2.218   9.528   0.399 -0.3911 -0.1811  0.0993
  274MOL0     C36089   2.097   9.516   0.463 -0.0003 -0.5480 -0.2760
  274MOL0     C36090   1.727   9.491   0.667  0.0822  0.4615  0.1189
  274MOL0     C36091   1.680   9.597   0.738 -0.8460  0.1514 -0.0871
  274MOL0     C36092   1.550   9.638   0.743 -0.1686  0.9728 -0.0220
  274MOL0     C36093   1.456   9.562   0.674  0.4399  0.2537  1.2994
  274MOL0     O36094   1.327   9.602   0.672 -0.6477  0.0108 -0.4351
  274MOL0     C36095   1.249   9.561   0.559 -0.5162  0.8311 -0.1780
  274MOL0     C36096   1.134   9.650   0.516 -0.1072  0.3458  0.6131
  274MOL0     C36097   1.047   9.586   0.406 -0.8441  0.3234 -1.2594
  274MOL0     C36098   0.967   9.696   0.343  0.0097 -0.1499 -0.5310
  274MOL0     C36099   0.855   9.729   0.423 -0.2600 -1.0432 -0.4169
  274MOL0     C36100   0.757   9.749   0.495 -0.1258  0.2408  0.6439
  274MOL0     C36101   1.498   9.443   0.593  0.1832  0.1205 -0.5707
  274MOL0     C36102   1.640   9.418   0.593  0.7454 -0.5441 -0.1321
  274MOL0     H36103   2.091   9.188   0.528  1.3147  0.2515 -0.0963
  274MOL0     H36104   2.296   9.197   0.410  0.7155  0.5714 -1.5112
  274MOL0     H36105   2.613   9.360   0.274  2.0278 -1.5404  0.8195
  274MOL0     H36106   2.472   9.254   0.262 -0.5040 -0.7587  2.4545
  274MOL0     H36107   2.481   9.220   0.514  0.8182 -0.0961  2.4468
  274MOL0     H36108   2.601   9.334   0.527 -2.7576  1.7049 -0.8182
  274MOL0     H36109   2.665   9.103   0.339  1.3306 -1.5488  1.0220
  274MOL0     H36110   2.602   9.060   0.493 -1.2558 -0.3360 -0.4485
  274MOL0     H36111   2.833   9.261   0.481 -1.7210  0.3000 -2.2845
  274MOL0     H36112   2.792   9.160   0.616  2.6305 -0.2621  0.2614
  274MOL0     H36113   2.903   9.052   0.354  1.6614  2.7217  0.8084
  274MOL0     H36114   2.845   8.950   0.492  3.5816 -3.6221 -3.5714
  274MOL0     H36115   3.081   8.960   0.483 -1.9557 -1.4120  0.9502
  274MOL0     H36116   3.018   9.021   0.633  0.9900 -1.4391  0.0445
  274MOL0     H36117   3.073   9.270   0.563  1.2943  1.1498 -0.4618
  274MOL0     H36118   3.200   9.158   0.604  0.6102 -1.0784 -0.3196
  274MOL0     H36119   3.104   9.201   0.318 -0.3632 -3.3854 -0.4070
  274MOL0     H36120   3.236   9.100   0.353  1.0237  1.7470 -1.5815
  274MOL0     H36121   3.108   9.436   0.303  1.2788 -1.2071 -1.6516
  274MOL0     H36122   3.294   9.758   0.416  0.3994  1.3266 -1.5135
  274MOL0     H36123   3.143   9.699   0.358 -0.1898  2.3125 -2.8209
  274MOL0     H36124   3.178   9.743   0.168 -0.5927  0.1794  1.8009
  274MOL0     H36125   3.340   9.660   0.164  2.5332  0.8482  0.5513
  274MOL0     H36126   3.293   9.945   0.235 -2.1880 -0.1710 -3.3344
  274MOL0     H36127   3.443   9.849   0.272  0.8997  4.6787 -0.3722
  274MOL0     H36128   3.489   9.817   0.046 -0.3415 -0.0864 -0.7536
  274MOL0     H36129   3.447   9.986   0.045 -1.3168  0.0820 -2.6078
  274MOL0     H36130   3.534   9.895  -0.193 -1.0717 -0.8429  1.2454
  274MOL0     H36131   3.532   9.934  -0.429 -1.4335 -2.1128 -1.8213
  274MOL0     H36132   3.227  10.137  -0.820 -0.9835 -1.5165 -0.9824
  274MOL0     H36133   3.277  10.217  -1.047 -0.5925  1.1122  0.4645
  274MOL0     H36134   3.703  10.237  -1.166 -1.1457 -0.1486  2.5392
  274MOL0     H36135   3.659  10.401  -1.150 -0.0010  0.3673 -1.6135
  274MOL0     H36136   3.530  10.370  -1.378  0.6478  2.5126  1.3667
  274MOL0     H36137   3.599  10.202  -1.372  1.0261 -0.0590 -1.3305
  274MOL0     H36138   3.825  10.302  -1.380  1.0617  1.4791  0.2310
  274MOL0     H36139   3.769  10.459  -1.334 -1.7412  1.1765 -0.0631
  274MOL0     H36140   3.716  10.314  -1.593  6.0483 -1.4278 -0.2078
  274MOL0     H36141   3.662  10.476  -1.570 -1.3663 -1.5981 -1.3415
  274MOL0     H36142   3.899  10.560  -1.547  0.1631  0.5353 -0.6136
  274MOL0     H36143   3.879  10.468  -1.706  0.1939 -1.0369  0.2036
  274MOL0     H36144   4.019  10.362  -1.478  2.6579 -1.0145 -0.2922
  274MOL0     H36145   4.099  10.417  -1.626  1.4569 -4.2570 -2.1670
  274MOL0     H36146   3.929  10.158  -1.604  0.0253  0.1076  0.1338
  274MOL0     H36147   3.939  10.252  -1.751  0.7052  2.5754  0.9712
  274MOL0     H36148   4.173  10.227  -1.756 -0.3496  1.5141 -0.7227
  274MOL0     H36149   4.092  10.066  -1.700  1.5770 -0.1395  1.1160
  274MOL0     H36150   3.686  10.246  -0.960 -0.0889 -1.6856 -0.1456
  274MOL0     H36151   3.650  10.132  -0.738 -2.5112  0.8807  4.1454
  274MOL0     H36152   3.101   9.975  -0.409  0.5962  1.1393  0.0350
  274MOL0     H36153   3.107   9.938  -0.184 -1.0045  4.5596 -1.8618
  274MOL0     H36154   2.252   9.622   0.356 -0.1471  0.3741  1.4664
  274MOL0     H36155   2.029   9.601   0.466  1.3231  0.5243  0.4391
  274MOL0     H36156   1.751   9.653   0.799 -1.0660  0.4955 -0.1426
  274MOL0     H36157   1.520   9.723   0.804 -1.5088 -1.2042  2.5538
  274MOL0     H36158   1.219   9.456   0.564  0.9740  0.4393  2.2443
  274MOL0     H36159   1.317   9.550   0.473  1.5455 -2.0753  1.6244
  274MOL0     H36160   1.083   9.689   0.605  0.2394  0.1440  0.9045
  274MOL0     H36161   1.185   9.731   0.464 -1.0923 -0.0346 -1.0236
  274MOL0     H36162   0.988   9.512   0.462 -1.5359  0.5569 -1.6742
  274MOL0     H36163   1.112   9.537   0.333 -0.2997 -0.8086 -0.0657
  274MOL0     H36164   1.026   9.787   0.330  0.5440 -0.7487 -2.7167
  274MOL0     H36165   0.931   9.660   0.246  0.5729  0.1007 -0.8318
  274MOL0     H36166   0.673   9.769   0.559 -1.4475 -3.8972  0.4444
  274MOL0     H36167   1.418   9.382   0.553  0.0544 -1.1579  1.4565
  274MOL0     H36168   1.689   9.342   0.533  0.3794 -0.6717 -0.2726
  275MOL0     O36169   0.148   7.862   8.627  0.1743 -0.2374 -0.3145
  275MOL0     C36170   0.252   7.932   8.647 -0.3258  0.1752 -0.0142
  275MOL0     O36171   0.347   7.906   8.745  0.2583 -0.6861 -1.0836
  275MOL0     C36172   0.337   7.797   8.838  0.7285 -0.1364  0.0433
  275MOL0     C36173   0.403   7.808   8.965 -0.3868  1.4423  0.3448
  275MOL0     C36174   0.423   7.685   9.042  0.5635 -0.3647  0.3459
  275MOL0     C36175   0.382   7.567   8.997 -0.5852  0.9784  1.1636
  275MOL0     O36176   0.390   7.466   9.093 -0.2822  0.6460  0.2290
  275MOL0     C36177   0.346   7.328   9.070  0.5455 -0.2525  0.8781
  275MOL0     C36178   0.342   7.253   9.203  0.2259 -0.1128 -0.5942
  275MOL0     C36179   0.298   7.113   9.209  0.3286  0.3981 -0.0672
  275MOL0     C36180   0.297   7.066   9.361 -0.2756  0.2840  0.0331
  275MOL0     C36181   0.250   6.920   9.380  0.1858 -1.0513  0.2038
  275MOL0     C36182   0.247   6.863   9.523  0.3283 -0.1880 -0.0615
  275MOL0     C36183   0.216   6.712   9.528  0.9923 -0.0415 -0.6580
  275MOL0     C36184   0.337   6.623   9.504  0.6349  0.3585 -0.3174
  275MOL0     N36185   0.311   6.476   9.519  0.3099  0.1447 -0.0188
  275MOL0     C36186   0.284   6.417   9.636 -0.3557 -1.0287  0.2876
  275MOL0     C36187   0.249   6.290   9.601  0.1473 -1.5547 -0.6366
  275MOL0     C36188   0.178   6.188   9.683 -0.8819 -0.1209 -0.3610
  275MOL0     C36189   0.248   6.164   9.821 -0.2260 -0.3054  0.2470
  275MOL0     C36190   0.170   6.046   9.903 -0.5250  0.5812 -0.3832
  275MOL0     C36191   0.254   5.978  10.018 -0.4327 -0.0110 -0.5308
  275MOL0     O36192   0.376   5.923   9.962  0.5330  0.1687  0.1927
  275MOL0     C36193   0.437   5.855  10.056  0.0334  1.1388 -0.6069
  275MOL0     C36194   0.448   5.878  10.189  0.4173  0.3207  0.3897
  275MOL0     C36195   0.518   5.797  10.274 -0.4029 -0.0173 -0.4956
  275MOL0     C36196   0.579   5.682  10.231 -0.0538  0.4641  0.1076
  275MOL0     C36197   0.658   5.591  10.309 -0.3769  1.0765 -0.2612
  275MOL0     O36198   0.727   5.486  10.247 -0.1769 -0.9298  0.0144
  275MOL0     C36199   0.787   5.385  10.309  0.5871 -1.0105 -0.4682
  275MOL0     C36200   0.894   5.344  10.237 -0.7016 -0.2787  0.3964
  275MOL0     C36201   0.958   5.223  10.287 -0.8373 -1.3461  0.3280
  275MOL0     C36202   0.922   5.172  10.415 -0.5035  0.0800 -0.3025
  275MOL0     O36203   0.973   5.059  10.480  0.8926 -0.1462 -0.6626
  275MOL0     C36204   1.017   4.957  10.395  0.1822 -0.7415  0.2295
  275MOL0     C36205   1.057   4.842  10.488  1.5106 -0.6999  1.1900
  275MOL0     C36206   1.168   4.894  10.571  0.5259  0.3757 -0.0619
  275MOL0     C36207   1.224   4.782  10.656 -1.1667 -0.3207 -0.3456
  275MOL0     C36208   1.313   4.664  10.596  0.4082 -0.2057  0.3540
  275MOL0     C36209   1.254   4.530  10.534  0.3249  0.1967  0.0924
  275MOL0     C36210   1.182   4.447  10.643  0.5459 -0.0162 -0.8055
  275MOL0     C36211   1.152   4.309  10.591  0.1965 -0.6080  0.3556
  275MOL0    Cl36212   1.074   4.214  10.725  0.3380 -0.6102  0.7566
  275MOL0     C36213   0.809   5.215  10.480 -0.1770 -0.5654 -0.3785
  275MOL0     C36214   0.745   5.324  10.433  0.2461 -1.3585 -0.2337
  275MOL0     O36215   0.664   5.617  10.429 -0.3169 -0.1180  0.2951
  275MOL0     C36216   0.559   5.646  10.098  0.1452  0.8067 -0.2216
  275MOL0     C36217   0.498   5.736  10.009  0.4282  0.6911  0.0822
  275MOL0     N36218   0.248   6.284   9.465 -0.9645  0.2152  0.6642
  275MOL0     N36219   0.291   6.394   9.412  0.0863 -0.4867 -0.4567
  275MOL0     C36220   0.320   7.554   8.871 -0.5208 -0.6702  0.7937
  275MOL0     C36221   0.308   7.668   8.789  0.0156 -0.5406  0.3084
  275MOL0     C36222   0.269   8.035   8.559  0.3271  0.1260  1.0865
  275MOL0     C36223   0.187   8.055   8.444 -0.1830 -0.9145 -0.5596
  275MOL0     C36224   0.220   8.144   8.343 -0.5424 -1.0355  0.5335
  275MOL0     C36225   0.325   8.240   8.365  0.3352  0.3864  0.8031
  275MOL0     O36226   0.334   8.341   8.271 -0.2219 -0.0877  0.2809
  275MOL0     C36227   0.455   8.415   8.262 -0.4612 -0.8598 -0.0647
  275MOL0     C36228   0.470   8.486   8.125  0.1627  0.7611 -0.3331
  275MOL0     C36229   0.349   8.593   8.108  0.2143  0.8559  0.0996
  275MOL0     C36230   0.396   8.684   7.996  0.4607 -0.0727 -0.1950
  275MOL0     C36231   0.387   8.616   7.873  1.0347  0.2571  0.7677
  275MOL0     C36232   0.361   8.566   7.767  0.2667 -0.1395 -0.2250
  275MOL0     C36233   0.403   8.231   8.480 -1.5049  0.3928 -0.1603
  275MOL0     C36234   0.379   8.128   8.574  0.1118  0.1890  0.0943
  275MOL0     H36235   0.429   7.910   8.993 -1.3500  2.0382 -0.7834
  275MOL0     H36236   0.486   7.695   9.130  2.2755  2.7355 -1.0460
  275MOL0     H36237   0.412   7.266   9.008 -0.6345 -0.2260 -0.4432
  275MOL0     H36238   0.245   7.333   9.029  0.5571  0.8814  0.9561
  275MOL0     H36239   0.272   7.315   9.260 -0.4196  0.2602 -1.7714
  275MOL0     H36240   0.434   7.253   9.263 -2.5784 -0.0351  4.3192
  275MOL0     H36241   0.365   7.051   9.149  2.5337  1.9924  0.6023
  275MOL0     H36242   0.194   7.120   9.176 -0.1853  0.3723  1.4638
  275MOL0     H36243   0.394   7.082   9.410 -0.4788 -0.4802  0.6964
  275MOL0     H36244   0.229   7.128   9.420  1.1424 -2.1272  4.6801
  275MOL0     H36245   0.317   6.867   9.311 -0.4235 -0.4291 -0.8905
  275MOL0     H36246   0.153   6.913   9.330 -0.1935 -1.6526  1.0010
  275MOL0     H36247   0.162   6.912   9.572 -1.8750  1.3581 -4.8355
  275MOL0     H36248   0.337   6.896   9.576  1.2180 -2.2274 -0.1979
  275MOL0     H36249   0.184   6.681   9.628  1.8122  4.8214  1.4043
  275MOL0     H36250   0.139   6.683   9.457 -0.0270  1.8082 -0.3623
  275MOL0     H36251   0.419   6.652   9.570  1.1537  1.9322 -1.5914
  275MOL0     H36252   0.379   6.631   9.404 -0.1054  2.2729 -0.5116
  275MOL0     H36253   0.274   6.467   9.732 -0.5730  0.0551 -0.2788
  275MOL0     H36254   0.178   6.087   9.641  1.5933 -0.5040  0.4524
  275MOL0     H36255   0.072   6.217   9.683 -0.8900 -0.1454  0.4917
  275MOL0     H36256   0.239   6.252   9.886 -0.5274 -0.2062  0.0751
  275MOL0     H36257   0.354   6.146   9.805  0.0652 -0.7846  2.4695
  275MOL0     H36258   0.089   6.094   9.960 -0.7585  1.1321 -1.1687
  275MOL0     H36259   0.131   5.971   9.835 -0.6303 -0.3199  0.6422
  275MOL0     H36260   0.188   5.900  10.058  2.8966 -3.3867 -1.1583
  275MOL0     H36261   0.279   6.047  10.099  0.0553  0.4778 -1.0875
  275MOL0     H36262   0.398   5.958  10.241  3.5462  1.6651  1.5875
  275MOL0     H36263   0.511   5.809  10.382 -1.0179  0.8742 -0.6280
  275MOL0     H36264   0.941   5.390  10.150  1.7892 -2.8073  0.2472
  275MOL0     H36265   1.048   5.184  10.242  2.3664  1.4971  3.5686
  275MOL0     H36266   1.102   4.996  10.339  0.4149 -1.9031 -0.2388
  275MOL0     H36267   0.943   4.920  10.324 -0.1302 -1.0882  0.7255
  275MOL0     H36268   1.090   4.761  10.422 -3.5506  0.1456 -3.0782
  275MOL0     H36269   0.967   4.814  10.543  0.3471 -0.6689 -0.5990
  275MOL0     H36270   1.124   4.965  10.640 -0.7205 -1.4659  1.1232
  275MOL0     H36271   1.243   4.943  10.507  1.2865  0.6070  0.9811
  275MOL0     H36272   1.287   4.836  10.727 -0.7612 -1.1950 -0.0277
  275MOL0     H36273   1.143   4.733  10.709  1.2984 -2.1303  2.0351
  275MOL0     H36274   1.376   4.622  10.675  1.6247 -3.7512 -2.2650
  275MOL0     H36275   1.377   4.699  10.514  1.3047 -0.1369  1.0795
  275MOL0     H36276   1.340   4.477  10.492 -0.9941  1.3074 -4.5003
  275MOL0     H36277   1.190   4.552  10.449 -0.9018 -1.8094  0.4410
  275MOL0     H36278   1.247   4.449  10.731 -0.8568 -0.2494  0.2793
  275MOL0     H36279   1.086   4.488  10.674  1.9527  3.1390 -0.2036
  275MOL0     H36280   1.244   4.265  10.553  1.5621  1.8149  0.6172
  275MOL0     H36281   1.090   4.325  10.503  0.2021 -1.1171  0.2586
  275MOL0     H36282   0.774   5.166  10.570 -2.6907 -0.2348 -1.1127
  275MOL0     H36283   0.662   5.365  10.490  0.4233 -2.0505  0.5321
  275MOL0     H36284   0.606   5.561  10.051 -0.1042  2.0057 -2.8289
  275MOL0     H36285   0.495   5.708   9.904  2.8303 -2.7971  0.7242
  275MOL0     H36286   0.287   7.456   8.840  1.2126 -1.5575  1.6036
  275MOL0     H36287   0.267   7.670   8.688  2.5208  2.0131 -0.8222
  275MOL0     H36288   0.092   8.005   8.426 -0.4292 -1.0788  1.0676
  275MOL0     H36289   0.157   8.163   8.257 -1.2220  0.3806  1.2962
  275MOL0     H36290   0.543   8.351   8.269  1.1079  1.1150 -0.6008
  275MOL0     H36291   0.450   8.492   8.339 -0.6500 -2.4362  1.5492
  275MOL0     H36292   0.568   8.533   8.122 -0.1329  1.5068  1.0344
  275MOL0     H36293   0.456   8.402   8.057 -5.5193  1.1008 -0.0454
  275MOL0     H36294   0.333   8.658   8.194  0.3751 -0.2442  0.9770
  275MOL0     H36295   0.251   8.546   8.097 -0.1175  1.6761 -0.5565
  275MOL0     H36296   0.329   8.771   7.995 -0.9424 -1.0133  2.4275
  275MOL0     H36297   0.498   8.721   8.011 -0.3768  3.2278 -1.7189
  275MOL0     H36298   0.316   8.532   7.676 -1.4492  2.1626 -0.3562
  275MOL0     H36299   0.486   8.300   8.493  2.7928 -3.3514 -4.1648
  275MOL0     H36300   0.445   8.114   8.660 -0.7136  1.6555  1.0101
  276MOL0     O36301   4.307   5.432   8.238 -0.2261 -0.7804  0.4419
  276MOL0     C36302   4.301   5.544   8.190  0.8161 -0.6623 -0.1520
  276MOL0     O36303   4.201   5.592   8.109  0.7675  0.2364 -0.6190
  276MOL0     C36304   4.106   5.513   8.037  0.1025  0.5001  0.1011
  276MOL0     C36305   3.997   5.578   7.986 -0.6363 -0.7846  0.2885
  276MOL0     C36306   3.912   5.526   7.893 -0.0494 -0.2107 -0.7770
  276MOL0     C36307   3.932   5.384   7.853 -1.1892  0.0857 -0.3924
  276MOL0     O36308   3.843   5.334   7.761 -0.3522  0.7018 -0.6384
  276MOL0     C36309   3.864   5.206   7.692  0.2998  0.7456 -0.3228
  276MOL0     C36310   3.829   5.216   7.545 -0.0553 -0.3854 -0.2947
  276MOL0     C36311   3.838   5.089   7.457  0.0482  0.1009 -0.2335
  276MOL0     C36312   3.983   5.055   7.423 -0.5622  0.7188 -0.3611
  276MOL0     C36313   3.996   4.918   7.365  1.7257 -0.1107  0.5399
  276MOL0     C36314   3.925   4.903   7.226 -0.4050 -0.3763  0.6464
  276MOL0     C36315   3.918   4.748   7.200  0.7161 -0.4733  0.9583
  276MOL0     C36316   3.906   4.718   7.046 -0.1097  0.2444 -1.3423
  276MOL0     N36317   3.908   4.568   7.021 -0.4555  0.8278 -1.4850
  276MOL0     C36318   4.019   4.492   7.014  0.0402  0.1425 -0.0562
  276MOL0     C36319   3.972   4.376   6.959 -0.4788  0.9133 -0.0669
  276MOL0     C36320   4.076   4.268   6.918 -0.1612 -0.1386  0.5099
  276MOL0     C36321   4.018   4.125   6.915  0.6983  0.0310 -0.1371
  276MOL0     C36322   4.117   4.011   6.911  0.0561 -0.0882  0.0116
  276MOL0     C36323   4.207   3.987   7.031 -0.1782 -0.2490  0.3978
  276MOL0     O36324   4.154   3.897   7.128  0.3246 -0.4265  0.1664
  276MOL0     C36325   4.222   3.895   7.251  0.6091 -0.1098  0.4099
  276MOL0     C36326   4.153   3.852   7.360 -0.8837 -0.0797 -0.2708
  276MOL0     C36327   4.216   3.855   7.488  0.6903  0.5160 -0.0357
  276MOL0     C36328   4.340   3.919   7.511  0.2896  0.4525  0.4293
  276MOL0     C36329   4.395   3.932   7.651 -0.1702 -0.5132 -0.9055
  276MOL0     O36330   4.482   4.031   7.665  0.5318  0.4825  0.0437
  276MOL0     C36331   4.576   4.049   7.771  0.6625  0.3488  0.2365
  276MOL0     C36332   4.628   3.951   7.860  0.7974 -0.5378  0.6900
  276MOL0     C36333   4.718   3.970   7.964 -0.6968  0.6315  0.9411
  276MOL0     C36334   4.768   4.099   7.994  1.8487  0.1168 -0.5802
  276MOL0     O36335   4.837   4.114   8.109  0.0477  0.8805  0.1731
  276MOL0     C36336   4.886   4.246   8.137 -0.8466  0.1790 -0.4710
  276MOL0     C36337   4.962   4.226   8.276 -0.2187  0.1523 -0.1415
  276MOL0     C36338   4.890   4.259   8.405  0.0945  0.0582  0.5058
  276MOL0     C36339   4.874   4.415   8.418  0.0161  0.1634  0.2769
  276MOL0     C36340   4.796   4.470   8.540 -0.8958  0.0555 -0.3801
  276MOL0     C36341   4.843   4.609   8.592  0.2351 -0.1424  0.2443
  276MOL0     C36342   4.812   4.718   8.486  0.0615  0.2889  0.4356
  276MOL0     C36343   4.877   4.853   8.523 -0.2194  0.6656 -0.3980
  276MOL0    Cl36344   4.860   4.973   8.392  0.4085  0.2652 -0.3434
  276MOL0     C36345   4.703   4.202   7.918  0.0498  0.1597  0.0891
  276MOL0     C36346   4.613   4.178   7.805 -0.6319  0.1870  0.5081
  276MOL0     O36347   4.343   3.873   7.748  0.4207  0.6105  0.6059
  276MOL0     C36348   4.421   3.950   7.394  0.1099 -0.7425 -0.0908
  276MOL0     C36349   4.359   3.938   7.271 -0.2819 -0.2564 -0.1882
  276MOL0     N36350   3.837   4.377   6.938  0.3193 -0.6796 -0.8942
  276MOL0     N36351   3.802   4.500   6.971  0.0991  0.2106  0.0231
  276MOL0     C36352   4.035   5.310   7.916 -0.4588  0.3164  0.1141
  276MOL0     C36353   4.123   5.377   7.999  0.3622 -0.8560  0.0618
  276MOL0     C36354   4.400   5.644   8.233 -0.9688 -0.2019  0.1954
  276MOL0     C36355   4.392   5.780   8.184 -0.1173  0.4586  0.7775
  276MOL0     C36356   4.505   5.861   8.197 -0.7258 -0.6888 -0.6501
  276MOL0     C36357   4.618   5.831   8.265  0.2511  0.1514  0.0479
  276MOL0     O36358   4.713   5.925   8.279 -0.3544 -0.7442  0.3700
  276MOL0     C36359   4.853   5.878   8.271 -0.2976 -0.1258 -0.3677
  276MOL0     C36360   4.885   5.824   8.141  0.5753 -0.1873  0.5213
  276MOL0     C36361   5.033   5.793   8.124 -0.5610  0.1546  0.4866
  276MOL0     C36362   5.044   5.733   7.979  0.6641 -0.3862 -0.4305
  276MOL0     C36363   5.129   5.618   7.973  0.5961 -0.4324 -0.9764
  276MOL0     C36364   5.188   5.516   7.967 -1.0066 -1.2758  0.6163
  276MOL0     C36365   4.613   5.701   8.326 -0.2418  0.5031  0.3739
  276MOL0     C36366   4.511   5.614   8.312  0.6118 -0.1908 -0.1738
  276MOL0     H36367   3.983   5.684   8.002  0.7947 -0.7272  1.3734
  276MOL0     H36368   3.829   5.591   7.866 -1.3221 -0.2085  2.5367
  276MOL0     H36369   3.803   5.125   7.735 -1.4799  0.1770 -3.5845
  276MOL0     H36370   3.969   5.183   7.714 -0.1042 -0.0684  0.8659
  276MOL0     H36371   3.884   5.298   7.498 -0.2918 -1.1810 -2.0503
  276MOL0     H36372   3.721   5.230   7.545 -0.1814 -1.0925  1.3604
  276MOL0     H36373   3.779   5.095   7.365 -0.5159 -1.1298  0.0159
  276MOL0     H36374   3.786   5.009   7.512  2.2248 -3.1041 -2.4713
  276MOL0     H36375   4.034   5.120   7.351 -2.2491  2.2534 -0.2335
  276MOL0     H36376   4.042   5.044   7.514 -1.3914 -1.9335 -0.0478
  276MOL0     H36377   3.944   4.855   7.438  0.2551 -0.4027 -0.7206
  276MOL0     H36378   4.097   4.876   7.362  1.2270 -1.3210  0.0892
  276MOL0     H36379   3.973   4.939   7.135 -2.5304  0.9537 -0.0286
  276MOL0     H36380   3.820   4.935   7.231 -0.6169 -0.7680 -0.9006
  276MOL0     H36381   4.003   4.698   7.247  1.8009  1.1185  0.7519
  276MOL0     H36382   3.825   4.704   7.237  0.3457  0.0884  0.7115
  276MOL0     H36383   3.988   4.761   6.989  2.9052 -3.1265  0.0245
  276MOL0     H36384   3.808   4.759   7.019 -1.1097  0.6645  2.3431
  276MOL0     H36385   4.126   4.507   7.026 -0.0958  0.3206  1.0134
  276MOL0     H36386   4.151   4.260   6.998 -0.6086 -0.8622  0.8711
  276MOL0     H36387   4.124   4.289   6.822 -1.5907 -2.6739 -0.8502
  276MOL0     H36388   3.964   4.128   6.820  2.0243  4.8873 -1.0406
  276MOL0     H36389   3.951   4.120   7.002  3.8637  0.1454  2.5222
  276MOL0     H36390   4.065   3.916   6.892  0.4541 -0.0652 -1.2416
  276MOL0     H36391   4.178   4.038   6.825 -0.2709 -2.7891 -1.1623
  276MOL0     H36392   4.219   4.083   7.083 -5.4101  0.6405  0.5424
  276MOL0     H36393   4.305   3.951   6.998 -0.0442  0.4955 -0.0442
  276MOL0     H36394   4.051   3.815   7.350 -1.5976  1.0346  2.2091
  276MOL0     H36395   4.154   3.833   7.574 -1.1953  0.5724 -1.3150
  276MOL0     H36396   4.591   3.850   7.840  3.3675 -1.5883  0.8321
  276MOL0     H36397   4.738   3.882   8.023 -2.0870 -1.3487 -1.3677
  276MOL0     H36398   4.813   4.325   8.159  0.1519  0.7794  0.8200
  276MOL0     H36399   4.952   4.287   8.059 -0.0991  1.2416  0.6818
  276MOL0     H36400   5.060   4.275   8.278 -0.1026 -0.0444  2.7956
  276MOL0     H36401   4.993   4.122   8.290 -1.1662 -0.1927 -0.5137
  276MOL0     H36402   4.967   4.242   8.481  3.3557  3.3124 -1.7226
  276MOL0     H36403   4.798   4.202   8.424 -0.3978  0.4319 -0.6997
  276MOL0     H36404   4.979   4.446   8.409  0.9060 -1.2929  3.8789
  276MOL0     H36405   4.801   4.449   8.344 -1.3046  1.9258  2.2871
  276MOL0     H36406   4.807   4.402   8.625  1.0699  1.1812  0.3362
  276MOL0     H36407   4.690   4.480   8.512 -1.0234  1.6828  0.5661
  276MOL0     H36408   4.951   4.596   8.601  0.2774 -3.5470 -2.9531
  276MOL0     H36409   4.790   4.640   8.683  0.5356 -2.8928  1.4665
  276MOL0     H36410   4.855   4.692   8.389  2.0585  0.2822  1.2758
  276MOL0     H36411   4.705   4.730   8.465  0.6162  1.7695 -1.9388
  276MOL0     H36412   4.980   4.845   8.559  0.8870  1.6726 -3.0521
  276MOL0     H36413   4.806   4.893   8.596 -1.3819 -1.8124 -0.0807
  276MOL0     H36414   4.734   4.302   7.946 -1.1719 -0.1822  2.9197
  276MOL0     H36415   4.588   4.271   7.755  2.9823  1.2050  0.3485
  276MOL0     H36416   4.528   3.964   7.402  0.3980 -2.2139 -1.0485
  276MOL0     H36417   4.430   3.953   7.190 -0.0690  0.9444  0.1946
  276MOL0     H36418   4.052   5.203   7.904 -0.1335  0.1501  1.7705
  276MOL0     H36419   4.213   5.323   8.025  0.4263 -0.7628  0.0323
  276MOL0     H36420   4.305   5.811   8.127 -0.8959 -0.3247  1.5192
  276MOL0     H36421   4.502   5.961   8.156 -1.3984 -0.9240 -1.1922
  276MOL0     H36422   4.884   5.813   8.353 -1.4200  0.0122  0.1798
  276MOL0     H36423   4.914   5.967   8.291  0.3292 -0.9240  1.4685
  276MOL0     H36424   4.826   5.731   8.136  0.6932 -0.1931 -1.2638
  276MOL0     H36425   4.859   5.893   8.060  3.4336  1.6247  0.9902
  276MOL0     H36426   5.054   5.711   8.194 -1.5515 -1.1557 -0.6869
  276MOL0     H36427   5.104   5.874   8.141  0.4053 -0.8151  1.2114
  276MOL0     H36428   4.953   5.695   7.932  3.0964 -1.7958 -4.4880
  276MOL0     H36429   5.085   5.811   7.913  0.5826 -0.9018 -1.1037
  276MOL0     H36430   5.246   5.429   7.991  4.2460  1.5548 -0.4555
  276MOL0     H36431   4.703   5.660   8.371  0.4049  0.3422 -1.0409
  276MOL0     H36432   4.502   5.517   8.360 -2.6680 -0.1260 -0.4692
  277MOL0     O36433   0.721   3.402   0.658  0.2193  0.5613 -0.0323
  277MOL0     C36434   0.731   3.510   0.618  0.3481  0.3649 -0.2394
  277MOL0     O36435   0.623   3.593   0.594  0.1188 -0.9124 -0.1159
  277MOL0     C36436   0.496   3.562   0.640  0.0081 -0.3717  1.2061
  277MOL0     C36437   0.475   3.519   0.772 -0.2053  0.0348 -0.2918
  277MOL0     C36438   0.344   3.496   0.814  0.4266  0.2989  0.6019
  277MOL0     C36439   0.236   3.502   0.733  0.7138 -0.1483 -0.5551
  277MOL0     O36440   0.118   3.480   0.791 -0.1556 -0.4482 -1.2320
  277MOL0     C36441  -0.001   3.510   0.715  0.5633 -0.3618  0.8088
  277MOL0     C36442  -0.129   3.478   0.789  0.4116  0.6051  0.3629
  277MOL0     C36443  -0.134   3.368   0.892 -0.8663 -0.2395 -0.1114
  277MOL0     C36444  -0.089   3.230   0.843  0.6879 -0.9560  0.2172
  277MOL0     C36445  -0.102   3.133   0.958 -1.0918  0.6039 -0.0827
  277MOL0     C36446  -0.030   3.003   0.931  0.1794  0.0010  0.6080
  277MOL0     C36447  -0.008   2.924   1.058 -0.1842 -0.6776  0.0038
  277MOL0     C36448   0.047   2.784   1.026  0.3884  0.1340 -0.6811
  277MOL0     N36449   0.091   2.742   1.166 -0.3888  0.4211 -0.5420
  277MOL0     C36450   0.166   2.811   1.262  0.6043  0.4019  0.7511
  277MOL0     C36451   0.163   2.726   1.367  0.0467 -0.2944  0.0333
  277MOL0     C36452   0.259   2.737   1.486 -0.6551 -0.7833 -0.2235
  277MOL0     C36453   0.412   2.694   1.452  0.3641 -0.1013 -0.0324
  277MOL0     C36454   0.477   2.780   1.340 -0.5503 -0.2259  0.5920
  277MOL0     C36455   0.627   2.793   1.354  0.4429 -0.0510  0.2684
  277MOL0     O36456   0.701   2.703   1.274 -0.3380 -0.4430 -0.4063
  277MOL0     C36457   0.842   2.725   1.266 -0.8562 -0.3209 -0.2192
  277MOL0     C36458   0.907   2.675   1.155 -0.5823 -0.4546  0.7092
  277MOL0     C36459   1.046   2.697   1.133  0.1202  0.0874 -0.0662
  277MOL0     C36460   1.118   2.761   1.234 -0.1489 -0.4072 -0.0811
  277MOL0     C36461   1.270   2.776   1.217 -0.6195  1.2935 -0.6320
  277MOL0     O36462   1.345   2.837   1.316 -0.1629 -0.2546  0.2636
  277MOL0     C36463   1.477   2.881   1.309 -0.7472  0.2224  0.3541
  277MOL0     C36464   1.541   2.875   1.431  0.7288  0.2238  1.4496
  277MOL0     C36465   1.666   2.916   1.446  0.2010  0.3143  0.4273
  277MOL0     C36466   1.736   2.981   1.343  1.1356 -0.1050  0.0161
  277MOL0     O36467   1.855   3.044   1.357  0.4004  0.0558  0.1067
  277MOL0     C36468   1.875   3.151   1.458  0.2122  0.9496 -0.2218
  277MOL0     C36469   2.015   3.215   1.406  0.2504 -0.3430  0.0266
  277MOL0     C36470   2.067   3.323   1.501  0.3396 -0.3757 -0.2517
  277MOL0     C36471   2.218   3.320   1.505 -0.2188  0.1840 -1.3633
  277MOL0     C36472   2.265   3.418   1.611 -0.1849 -0.3838 -0.4693
  277MOL0     C36473   2.411   3.434   1.600 -0.0557 -0.8507  0.3162
  277MOL0     C36474   2.465   3.563   1.673  0.0280  0.7727 -0.2986
  277MOL0     C36475   2.603   3.545   1.745  0.4789  0.4783  0.3643
  277MOL0    Cl36476   2.726   3.501   1.620 -0.2125 -0.1316 -0.2491
  277MOL0     C36477   1.675   2.991   1.224  0.3125  0.1171  0.4196
  277MOL0     C36478   1.544   2.938   1.200 -0.5452 -0.1896  0.1983
  277MOL0     O36479   1.318   2.728   1.113  0.1583  0.1685  0.7206
  277MOL0     C36480   1.062   2.807   1.345  0.1689 -0.6396 -0.3633
  277MOL0     C36481   0.924   2.778   1.363 -0.0509  0.2245  0.1799
  277MOL0     N36482   0.101   2.606   1.341 -0.1611 -0.3348  0.3064
  277MOL0     N36483   0.055   2.622   1.223 -0.8033  0.5129 -0.0968
  277MOL0     C36484   0.251   3.535   0.595 -0.2622 -0.4347  0.1480
  277MOL0     C36485   0.385   3.568   0.550 -0.5374  0.3907 -1.5995
  277MOL0     C36486   0.863   3.561   0.572 -0.3966 -0.3871 -0.5494
  277MOL0     C36487   0.885   3.654   0.474  0.2856  0.4942 -0.8219
  277MOL0     C36488   1.016   3.712   0.460  0.9090 -0.1895 -1.1348
  277MOL0     C36489   1.129   3.657   0.529  1.0315 -0.0860 -0.4994
  277MOL0     O36490   1.251   3.712   0.492 -0.8571  1.0667 -0.1529
  277MOL0     C36491   1.366   3.613   0.466  0.6121 -0.0632 -0.3343
  277MOL0     C36492   1.330   3.536   0.338  0.3016  0.2300  0.3963
  277MOL0     C36493   1.421   3.421   0.296 -0.9550 -1.0426  0.8689
  277MOL0     C36494   1.423   3.297   0.389 -0.3491 -0.5728 -0.2670
  277MOL0     C36495   1.347   3.176   0.357  0.5286 -0.9658  0.8309
  277MOL0     C36496   1.286   3.080   0.316 -0.3046  0.6346 -0.3533
  277MOL0     C36497   1.110   3.552   0.612  0.9327  0.2768 -0.8178
  277MOL0     C36498   0.985   3.501   0.634 -0.2385  0.4463 -0.5796
  277MOL0     H36499   0.542   3.521   0.857  0.2384  0.8551 -0.6470
  277MOL0     H36500   0.328   3.464   0.917 -0.8206 -2.2062 -0.2789
  277MOL0     H36501   0.007   3.450   0.624  1.7381 -1.3116  1.5154
  277MOL0     H36502  -0.005   3.618   0.699  2.0104 -0.4871 -0.6085
  277MOL0     H36503  -0.209   3.456   0.718  1.6868  0.7917 -1.1613
  277MOL0     H36504  -0.152   3.576   0.832  0.4325  2.4867 -3.5428
  277MOL0     H36505  -0.231   3.370   0.942 -0.0362  0.7036  1.5540
  277MOL0     H36506  -0.069   3.402   0.973 -0.2162  0.7787 -1.0442
  277MOL0     H36507  -0.169   3.205   0.774 -1.1298  2.0081  1.0318
  277MOL0     H36508   0.009   3.237   0.795  0.2019  3.7852 -0.6423
  277MOL0     H36509  -0.208   3.114   0.973 -0.1596 -4.3021  2.0522
  277MOL0     H36510  -0.059   3.176   1.049  1.8015 -1.1466 -0.4883
  277MOL0     H36511   0.063   3.018   0.875 -1.2975  2.4812 -1.3660
  277MOL0     H36512  -0.100   2.941   0.873  0.6868  0.3459 -0.4051
  277MOL0     H36513   0.070   2.985   1.103 -0.7295  1.3200 -1.6332
  277MOL0     H36514  -0.096   2.919   1.123  0.9661 -0.8679  1.6011
  277MOL0     H36515   0.127   2.783   0.950  0.6410  2.0901 -0.4968
  277MOL0     H36516  -0.036   2.718   1.002  0.0078  0.2871  0.1796
  277MOL0     H36517   0.222   2.904   1.263 -0.1945  0.8914  1.4873
  277MOL0     H36518   0.221   2.667   1.561 -0.8740  1.3743  1.7959
  277MOL0     H36519   0.252   2.845   1.504  0.4264 -0.6765 -0.3771
  277MOL0     H36520   0.409   2.586   1.435  0.5010  0.1834 -2.1501
  277MOL0     H36521   0.474   2.718   1.538 -0.1341  3.2998 -0.4952
  277MOL0     H36522   0.460   2.728   1.245  1.7890  2.5448 -1.5216
  277MOL0     H36523   0.444   2.884   1.338  2.7547  0.9398 -1.8121
  277MOL0     H36524   0.676   2.787   1.451  2.9342  0.3850 -0.8826
  277MOL0     H36525   0.652   2.885   1.299 -3.3538  2.3553  2.1221
  277MOL0     H36526   0.851   2.624   1.076  2.6406 -0.4700 -1.7808
  277MOL0     H36527   1.079   2.678   1.032 -1.5685  1.7044 -0.9768
  277MOL0     H36528   1.489   2.826   1.513  0.2601  1.0293  1.6422
  277MOL0     H36529   1.723   2.914   1.538  0.5632 -1.2790  0.1998
  277MOL0     H36530   1.861   3.123   1.563 -3.8981 -0.7107 -1.0272
  277MOL0     H36531   1.793   3.220   1.435 -0.5106 -1.0014 -4.2174
  277MOL0     H36532   2.007   3.257   1.306  0.4475  1.4765  0.7467
  277MOL0     H36533   2.098   3.145   1.395 -0.1549 -0.5237 -2.1862
  277MOL0     H36534   2.018   3.312   1.599  1.1474 -0.4470  0.1518
  277MOL0     H36535   2.025   3.413   1.455 -0.8712 -1.0780 -0.5650
  277MOL0     H36536   2.244   3.221   1.543 -3.3814  0.1597  1.1352
  277MOL0     H36537   2.247   3.341   1.401 -3.6008 -1.8150 -2.8903
  277MOL0     H36538   2.241   3.383   1.712 -1.2409 -0.5203 -0.7533
  277MOL0     H36539   2.219   3.516   1.597  0.0907 -0.2679 -0.5800
  277MOL0     H36540   2.441   3.453   1.496 -0.3077 -0.1147  0.3717
  277MOL0     H36541   2.467   3.343   1.624  0.0475 -0.8572  0.0598
  277MOL0     H36542   2.481   3.642   1.599  0.9353  2.9821  2.1060
  277MOL0     H36543   2.383   3.607   1.730 -0.7553  2.6574 -2.6963
  277MOL0     H36544   2.598   3.457   1.811 -0.9098 -0.5767 -1.0560
  277MOL0     H36545   2.626   3.630   1.809  0.8847  0.5642  0.1072
  277MOL0     H36546   1.729   3.044   1.146 -1.1532  1.2390  0.1375
  277MOL0     H36547   1.504   2.955   1.101  2.0619  1.9710 -0.5953
  277MOL0     H36548   1.124   2.862   1.415  1.4433 -0.4957 -1.5652
  277MOL0     H36549   0.879   2.816   1.453  0.9522  0.4318  0.6104
  277MOL0     H36550   0.170   3.550   0.523  2.3636  1.8277 -2.6092
  277MOL0     H36551   0.406   3.589   0.445  0.9816  1.2644 -1.1475
  277MOL0     H36552   0.806   3.714   0.428  0.4386  1.3073 -0.0429
  277MOL0     H36553   1.034   3.808   0.412  2.8165  0.1973  0.2636
  277MOL0     H36554   1.376   3.542   0.549  1.3705  0.7554  0.2926
  277MOL0     H36555   1.455   3.673   0.447  1.2679 -1.3108 -1.3576
  277MOL0     H36556   1.226   3.501   0.348  0.3696 -0.1689 -0.2043
  277MOL0     H36557   1.326   3.606   0.255  1.4422  0.1545  0.2664
  277MOL0     H36558   1.523   3.461   0.298 -1.2200 -0.3574  2.0857
  277MOL0     H36559   1.386   3.397   0.196 -0.4854  2.2054 -0.1995
  277MOL0     H36560   1.527   3.264   0.393  0.3113  1.3121 -1.1134
  277MOL0     H36561   1.374   3.329   0.481  0.2123 -1.1156  0.2328
  277MOL0     H36562   1.228   2.994   0.286 -0.2997 -0.2088  1.8983
  277MOL0     H36563   1.189   3.506   0.671  0.6175  0.2641 -0.4066
  277MOL0     H36564   0.989   3.417   0.703  2.5740  1.0073  0.0642
  278MOL0     O36565   8.801  11.104   3.577  0.4800  0.1257 -0.2948
  278MOL0     C36566   8.771  11.196   3.644  0.8069 -0.0248 -0.0328
  278MOL0     O36567   8.754  11.197   3.778 -0.1332  0.1607  0.3893
  278MOL0     C36568   8.778  11.078   3.857 -0.0844  0.3750 -0.6707
  278MOL0     C36569   8.762  10.945   3.826  0.8090 -0.3963  0.8191
  278MOL0     C36570   8.769  10.836   3.921 -0.2877 -0.8284  0.1307
  278MOL0     C36571   8.796  10.868   4.058  0.8495 -0.3804  0.0692
  278MOL0     O36572   8.789  10.798   4.174 -0.1584  0.2232  0.1695
  278MOL0     C36573   8.759  10.661   4.163 -0.3438 -0.8121  0.2147
  278MOL0     C36574   8.774  10.606   4.303  0.6216 -0.0883 -0.8009
  278MOL0     C36575   8.764  10.450   4.288 -0.8508 -0.4273  1.1482
  278MOL0     C36576   8.756  10.373   4.423  0.5339  0.8100 -0.7646
  278MOL0     C36577   8.852  10.417   4.546 -0.4734 -0.1404 -0.0979
  278MOL0     C36578   8.814  10.349   4.677 -0.0832  0.0918 -0.1440
  278MOL0     C36579   8.812  10.198   4.692 -0.9688  0.5288 -0.4229
  278MOL0     C36580   8.811  10.147   4.840  0.0374 -0.0335 -0.2690
  278MOL0     N36581   8.798  10.005   4.852 -0.0112 -0.8305  0.4741
  278MOL0     C36582   8.691   9.935   4.818 -0.0195 -0.1298 -0.3650
  278MOL0     C36583   8.717   9.817   4.874 -0.5364 -0.5581  0.2586
  278MOL0     C36584   8.620   9.693   4.875  0.1143 -0.6234  0.2255
  278MOL0     C36585   8.483   9.712   4.806 -0.5589 -0.1201  0.1502
  278MOL0     C36586   8.402   9.584   4.825  0.5959 -0.0997 -0.3292
  278MOL0     C36587   8.266   9.576   4.756  0.9744  0.6384 -0.6863
  278MOL0     O36588   8.273   9.584   4.608  0.3753  0.3441  0.2526
  278MOL0     C36589   8.154   9.573   4.539 -0.0476 -0.2649  0.2631
  278MOL0     C36590   8.167   9.601   4.400  0.2488 -0.0221  0.2878
  278MOL0     C36591   8.049   9.582   4.324  0.6267 -0.2828 -0.9157
  278MOL0     C36592   7.928   9.530   4.372 -0.1066 -0.0679  0.3654
  278MOL0     C36593   7.792   9.502   4.294 -0.5712  0.6572  1.0061
  278MOL0     O36594   7.676   9.495   4.359 -0.0277 -0.2090  0.0441
  278MOL0     C36595   7.552   9.467   4.300  1.3469 -0.2162  0.5184
  278MOL0     C36596   7.493   9.346   4.303  0.9650  0.1518 -0.2451
  278MOL0     C36597   7.370   9.326   4.241 -0.3370 -0.5458 -0.1484
  278MOL0     C36598   7.295   9.431   4.180 -1.0441 -0.4436 -0.2112
  278MOL0     O36599   7.175   9.387   4.136 -0.3551 -0.2824 -0.2758
  278MOL0     C36600   7.081   9.488   4.090 -1.3168 -1.9817  0.8453
  278MOL0     C36601   6.955   9.449   4.146  0.1001 -0.1749 -0.0824
  278MOL0     C36602   6.829   9.502   4.072 -0.0370  0.2581 -0.2932
  278MOL0     C36603   6.725   9.555   4.171  0.0689 -0.0411  0.2356
  278MOL0     C36604   6.582   9.520   4.114  0.3205 -0.6780 -0.4587
  278MOL0     C36605   6.544   9.608   3.997 -0.6442 -0.0114  0.1383
  278MOL0     C36606   6.400   9.652   4.009  1.1140  0.1731  0.4646
  278MOL0     C36607   6.379   9.775   3.915 -0.1725 -0.1693  0.4150
  278MOL0    Cl36608   6.219   9.844   3.923 -0.0623  0.5602 -0.3138
  278MOL0     C36609   7.361   9.554   4.178  0.0697 -0.4382 -0.1603
  278MOL0     C36610   7.484   9.573   4.233 -0.3129  0.1507 -0.0779
  278MOL0     O36611   7.804   9.474   4.178 -0.2329  0.5667  1.1891
  278MOL0     C36612   7.920   9.513   4.505  0.9726  1.3038 -0.3506
  278MOL0     C36613   8.030   9.526   4.588  0.4924 -0.7837 -0.0148
  278MOL0     N36614   8.845   9.812   4.928 -0.5232  0.8203  0.1129
  278MOL0     N36615   8.886   9.931   4.908 -1.9334 -0.5316  0.0169
  278MOL0     C36616   8.823  11.000   4.086  0.0009  0.7755  0.3592
  278MOL0     C36617   8.806  11.101   3.995 -0.2092 -1.0752  1.0291
  278MOL0     C36618   8.754  11.326   3.577  0.8733 -0.5056  0.2470
  278MOL0     C36619   8.813  11.357   3.450  0.4925  0.3039 -0.0372
  278MOL0     C36620   8.803  11.486   3.402  0.5889  0.3740  0.5243
  278MOL0     C36621   8.729  11.592   3.464  0.2633  0.5696  0.3382
  278MOL0     O36622   8.708  11.703   3.379  0.4313 -0.5386 -0.8044
  278MOL0     C36623   8.606  11.800   3.430  0.4821  1.0509  0.0821
  278MOL0     C36624   8.651  11.941   3.396 -0.1626 -0.1286  0.2210
  278MOL0     C36625   8.554  12.031   3.470  0.2047 -0.0473  0.0351
  278MOL0     C36626   8.575  12.182   3.457 -0.8529  0.1703 -0.0748
  278MOL0     C36627   8.587  12.230   3.320 -0.2236 -1.2868 -0.8568
  278MOL0     C36628   8.588  12.272   3.206 -0.0837 -0.0378 -0.6138
  278MOL0     C36629   8.672  11.560   3.587 -0.2097  0.2246  0.0407
  278MOL0     C36630   8.685  11.430   3.637  0.1098  0.1697 -0.0876
  278MOL0     H36631   8.735  10.907   3.728 -1.3030  1.0062  0.7891
  278MOL0     H36632   8.742  10.736   3.889  0.7541 -0.7913 -0.9369
  278MOL0     H36633   8.816  10.610   4.084 -1.3797  0.6222 -1.5403
  278MOL0     H36634   8.655  10.645   4.130 -1.1046 -1.0502  2.5539
  278MOL0     H36635   8.691  10.636   4.368 -0.7779  0.7050 -2.8215
  278MOL0     H36636   8.867  10.634   4.354  0.6093 -0.7309 -0.4263
  278MOL0     H36637   8.841  10.416   4.219 -3.2814  3.6508 -4.4349
  278MOL0     H36638   8.678  10.412   4.233 -0.1302 -0.6896  0.1774
  278MOL0     H36639   8.654  10.389   4.459  1.0719  0.7505  0.8394
  278MOL0     H36640   8.758  10.264   4.410 -1.8543 -0.0270  3.7650
  278MOL0     H36641   8.841  10.525   4.561 -1.0750 -0.5135  2.7708
  278MOL0     H36642   8.957  10.399   4.523  0.3498  1.9611  1.6554
  278MOL0     H36643   8.712  10.384   4.694 -1.1657 -1.9059 -1.9536
  278MOL0     H36644   8.884  10.379   4.755  1.3822 -0.4360 -1.2024
  278MOL0     H36645   8.725  10.158   4.640 -0.9604 -2.1931  1.4623
  278MOL0     H36646   8.900  10.152   4.645 -0.3308  1.5161 -0.2359
  278MOL0     H36647   8.732  10.196   4.899  1.0033  1.9358 -0.5098
  278MOL0     H36648   8.902  10.179   4.891  0.1920 -2.7289  1.2946
  278MOL0     H36649   8.598   9.974   4.776 -0.8308  0.3420  1.7614
  278MOL0     H36650   8.616   9.655   4.977 -0.7989 -0.8894  0.0972
  278MOL0     H36651   8.678   9.625   4.812  5.3331  2.7714  0.7264
  278MOL0     H36652   8.500   9.728   4.699 -0.2050  0.6966  0.3114
  278MOL0     H36653   8.431   9.799   4.847  0.0213  0.6178 -0.6129
  278MOL0     H36654   8.454   9.493   4.796  0.8388 -0.3631  0.8764
  278MOL0     H36655   8.386   9.577   4.933 -0.6237 -3.4976 -0.6028
  278MOL0     H36656   8.213   9.662   4.796  2.5269  1.3862 -0.1365
  278MOL0     H36657   8.216   9.481   4.781  3.2995 -0.1221  1.5754
  278MOL0     H36658   8.267   9.622   4.365  1.1535  2.9123  3.9705
  278MOL0     H36659   8.067   9.598   4.218  0.6086  2.8355 -0.5434
  278MOL0     H36660   7.542   9.267   4.360  2.0573  0.3967 -0.8164
  278MOL0     H36661   7.319   9.231   4.253  2.5161 -1.9475  2.1585
  278MOL0     H36662   7.085   9.501   3.981 -0.4822 -2.1885  0.8449
  278MOL0     H36663   7.102   9.586   4.134  1.5539 -1.3410 -1.6313
  278MOL0     H36664   6.950   9.479   4.251 -2.0851  0.4838 -0.3275
  278MOL0     H36665   6.944   9.341   4.157 -1.7768  0.0002  0.0683
  278MOL0     H36666   6.778   9.414   4.031  0.5222  0.0304 -0.5089
  278MOL0     H36667   6.854   9.572   3.992  2.3680  0.5038  0.5973
  278MOL0     H36668   6.736   9.501   4.265 -1.8939  0.1411  0.6060
  278MOL0     H36669   6.755   9.659   4.185  1.4287  0.2521 -3.5862
  278MOL0     H36670   6.518   9.535   4.201  0.6612  3.7575 -0.7097
  278MOL0     H36671   6.583   9.419   4.073  1.5622 -1.2380  0.8905
  278MOL0     H36672   6.548   9.541   3.910 -3.8387  0.7083 -0.6847
  278MOL0     H36673   6.617   9.689   3.986 -1.4256  0.7019  0.0841
  278MOL0     H36674   6.336   9.565   3.992  0.1827  1.2011 -1.5374
  278MOL0     H36675   6.391   9.688   4.112  4.3879 -1.7047  1.5823
  278MOL0     H36676   6.386   9.749   3.809 -0.8646  1.0405  0.0566
  278MOL0     H36677   6.449   9.855   3.940 -2.0143  0.9522  2.2872
  278MOL0     H36678   7.331   9.638   4.117  1.1876  0.5721  0.6277
  278MOL0     H36679   7.529   9.671   4.219  1.2913 -0.3592  1.2760
  278MOL0     H36680   7.828   9.463   4.535  0.0517 -0.6077 -5.4021
  278MOL0     H36681   8.015   9.500   4.692  0.4218 -3.3502 -0.6055
  278MOL0     H36682   8.842  11.026   4.190 -2.7743  0.2424  1.0990
  278MOL0     H36683   8.829  11.204   4.021  0.2975 -1.0024  0.3272
  278MOL0     H36684   8.877  11.285   3.399  0.6974  0.3658  0.1347
  278MOL0     H36685   8.863  11.506   3.314  2.5547  2.8690  2.2692
  278MOL0     H36686   8.590  11.790   3.537  0.2581 -4.1590 -0.1713
  278MOL0     H36687   8.507  11.782   3.385 -0.0906  1.9256  0.9421
  278MOL0     H36688   8.756  11.960   3.418  0.5099 -2.0230 -1.0828
  278MOL0     H36689   8.647  11.968   3.290 -0.9274 -1.2703 -0.0616
  278MOL0     H36690   8.558  12.012   3.577  4.2570 -0.9884 -0.1085
  278MOL0     H36691   8.451  12.008   3.439 -0.6569  1.6403  1.4997
  278MOL0     H36692   8.497  12.240   3.506 -0.9155  0.4158 -0.4622
  278MOL0     H36693   8.662  12.216   3.514  0.5522 -3.9548  0.6388
  278MOL0     H36694   8.602  12.305   3.105 -1.7947 -1.3672 -1.3467
  278MOL0     H36695   8.624  11.633   3.651  1.3013  0.2134  1.2650
  278MOL0     H36696   8.655  11.411   3.740  3.1274 -0.3762  0.8033
  279MOL0     O36697   2.708   8.800   5.777  0.2089  0.0085  0.1433
  279MOL0     C36698   2.644   8.879   5.840 -0.2735  0.0171  0.2587
  279MOL0     O36699   2.511   8.880   5.858  0.3030 -0.4008 -0.3201
  279MOL0     C36700   2.423   8.788   5.790  0.2797  0.3994  0.1726
  279MOL0     C36701   2.443   8.733   5.658  0.2268 -0.2802  0.1300
  279MOL0     C36702   2.371   8.626   5.605 -0.1546  0.4125 -0.4437
  279MOL0     C36703   2.259   8.578   5.676 -0.0825 -0.2479 -0.5744
  279MOL0     O36704   2.169   8.488   5.626  0.2798  0.1200  0.7403
  279MOL0     C36705   2.183   8.428   5.496  0.8530 -0.5660  0.4585
  279MOL0     C36706   2.111   8.504   5.396  0.1912  0.0568 -0.3688
  279MOL0     C36707   1.983   8.576   5.447  0.1074 -0.0908 -0.5852
  279MOL0     C36708   1.887   8.483   5.522  0.7371 -0.2360  0.0042
  279MOL0     C36709   1.777   8.555   5.611 -0.5008 -0.3616 -0.5260
  279MOL0     C36710   1.854   8.578   5.751 -0.1534  0.1232 -0.9951
  279MOL0     C36711   1.762   8.613   5.865 -0.0126 -0.1300 -0.0278
  279MOL0     C36712   1.810   8.623   6.014 -0.2339  0.6681 -0.2905
  279MOL0     N36713   1.854   8.486   6.050 -0.0072 -0.6369 -0.7850
  279MOL0     C36714   1.979   8.449   6.081 -0.2734 -0.7175  0.2280
  279MOL0     C36715   1.977   8.319   6.115  0.7470 -0.0158 -0.0867
  279MOL0     C36716   2.103   8.242   6.166  0.3701  0.2669  0.1345
  279MOL0     C36717   2.198   8.219   6.046  0.0342 -0.7201  0.0683
  279MOL0     C36718   2.289   8.333   6.013  0.1247  0.4695  0.3993
  279MOL0     C36719   2.371   8.286   5.891 -0.0642  0.6376 -0.0611
  279MOL0     O36720   2.469   8.381   5.848  0.4431 -0.4929 -0.5945
  279MOL0     C36721   2.584   8.342   5.777  0.0389 -1.3905 -0.2209
  279MOL0     C36722   2.680   8.436   5.734 -0.5707 -0.4007  1.2436
  279MOL0     C36723   2.791   8.395   5.665 -0.2063  0.0179  0.2539
  279MOL0     C36724   2.807   8.261   5.636 -0.1470 -0.2444  1.3444
  279MOL0     C36725   2.926   8.229   5.548 -0.1999  0.2279  0.3105
  279MOL0     O36726   2.966   8.326   5.468 -0.5015 -0.5355  0.2859
  279MOL0     C36727   3.058   8.315   5.369 -0.3763  0.3038 -0.5671
  279MOL0     C36728   3.044   8.216   5.266  0.3670  0.9934 -1.2387
  279MOL0     C36729   3.147   8.197   5.164 -0.1475  0.0612 -0.5489
  279MOL0     C36730   3.246   8.296   5.152  0.0233  0.6033 -0.7680
  279MOL0     O36731   3.335   8.282   5.051 -0.1545 -0.9320 -0.9845
  279MOL0     C36732   3.291   8.293   4.918  0.4720  0.1270  0.2148
  279MOL0     C36733   3.373   8.408   4.860 -0.3312 -0.7084  0.0687
  279MOL0     C36734   3.316   8.550   4.858 -0.1475 -0.8122 -0.7773
  279MOL0     C36735   3.431   8.653   4.829 -0.5944 -0.1581  0.5425
  279MOL0     C36736   3.399   8.803   4.852  0.6069 -0.4918  0.5570
  279MOL0     C36737   3.420   8.868   4.993 -0.9489  0.2032 -0.9177
  279MOL0     C36738   3.314   8.984   5.014 -0.1883  0.9360 -0.1934
  279MOL0     C36739   3.327   9.088   4.917 -0.6039  0.0059 -0.1377
  279MOL0    Cl36740   3.217   9.229   4.957 -0.2013  0.1749  0.5321
  279MOL0     C36741   3.255   8.391   5.248 -0.2091 -0.2829 -1.2373
  279MOL0     C36742   3.165   8.405   5.356 -0.0675  0.1887  0.1220
  279MOL0     O36743   2.978   8.118   5.555 -0.0109 -0.3288  0.9260
  279MOL0     C36744   2.714   8.161   5.673  0.3214  0.2991 -0.6986
  279MOL0     C36745   2.608   8.210   5.746  0.1388  0.1741 -0.5522
  279MOL0     N36746   1.848   8.286   6.115 -0.1511  0.6183  0.6156
  279MOL0     N36747   1.769   8.378   6.066  0.0982  0.0750  0.0950
  279MOL0     C36748   2.234   8.626   5.808 -0.3060  0.0986  0.3466
  279MOL0     C36749   2.313   8.735   5.857  0.6714  0.3161 -0.6825
  279MOL0     C36750   2.714   8.988   5.910  0.8042 -0.1844  0.2552
  279MOL0     C36751   2.650   9.071   6.004  0.3585 -0.4602  0.6403
  279MOL0     C36752   2.730   9.154   6.079  0.0426  0.2926 -0.1138
  279MOL0     C36753   2.871   9.162   6.058  1.2222 -0.2328 -0.0378
  279MOL0     O36754   2.948   9.245   6.134  0.5315 -0.1206  0.0153
  279MOL0     C36755   3.031   9.346   6.088 -0.6574 -0.2377 -0.3593
  279MOL0     C36756   3.045   9.447   6.197 -0.0512 -0.1131  0.6831
  279MOL0     C36757   2.969   9.579   6.164  0.6246  0.7953  0.1644
  279MOL0     C36758   3.010   9.701   6.239 -0.1887 -0.0865 -1.0066
  279MOL0     C36759   2.922   9.713   6.356  0.4733 -0.2406 -0.9746
  279MOL0     C36760   2.867   9.724   6.463 -0.0457 -0.1094  0.7674
  279MOL0     C36761   2.933   9.088   5.969  1.0873  0.3860  0.2562
  279MOL0     C36762   2.856   9.001   5.897 -0.1671  0.0696 -0.5542
  279MOL0     H36763   2.527   8.779   5.606  2.2587 -1.8963  1.8153
  279MOL0     H36764   2.398   8.584   5.508 -2.4547  3.2397 -2.4921
  279MOL0     H36765   2.138   8.329   5.492 -1.8240  0.4528  2.1555
  279MOL0     H36766   2.288   8.409   5.471  0.1774 -3.4539 -0.5639
  279MOL0     H36767   2.102   8.447   5.303 -0.7862  0.2005 -0.3773
  279MOL0     H36768   2.179   8.586   5.374  0.1482 -0.8218 -4.7664
  279MOL0     H36769   1.931   8.616   5.359  2.8489  1.8271 -1.4433
  279MOL0     H36770   2.015   8.660   5.509  0.2250 -1.3728  1.1898
  279MOL0     H36771   1.848   8.414   5.447  2.2566 -0.6474 -0.4487
  279MOL0     H36772   1.939   8.415   5.590  3.6018  3.6117  2.0446
  279MOL0     H36773   1.691   8.490   5.627  1.6414 -3.4457 -0.6238
  279MOL0     H36774   1.735   8.645   5.565 -1.5407 -1.0297 -0.9040
  279MOL0     H36775   1.937   8.649   5.761 -0.0806 -0.0654 -0.2429
  279MOL0     H36776   1.904   8.487   5.782  0.6839  0.2475 -1.9180
  279MOL0     H36777   1.711   8.709   5.849  0.5989  0.2342  0.1597
  279MOL0     H36778   1.688   8.533   5.858 -2.4547  1.9522  0.3951
  279MOL0     H36779   1.734   8.653   6.086  2.2042 -0.0889  2.7945
  279MOL0     H36780   1.902   8.681   6.021  2.4808 -2.7829 -2.9784
  279MOL0     H36781   2.062   8.517   6.093 -0.7059 -0.3946  1.5455
  279MOL0     H36782   2.062   8.147   6.201  1.7373  0.1003  1.3709
  279MOL0     H36783   2.146   8.273   6.262 -3.3076  0.3919  1.9229
  279MOL0     H36784   2.138   8.191   5.958 -0.5206  0.8937 -0.0960
  279MOL0     H36785   2.266   8.135   6.062  2.1104  0.5142 -1.7389
  279MOL0     H36786   2.244   8.429   5.985 -2.6707 -1.8605 -4.2737
  279MOL0     H36787   2.355   8.345   6.099 -0.3547  1.7739  0.6137
  279MOL0     H36788   2.312   8.257   5.803 -1.8129 -3.1014  2.1371
  279MOL0     H36789   2.416   8.190   5.919  1.0109  1.0551 -0.2783
  279MOL0     H36790   2.674   8.538   5.770  1.0626  0.1795  0.0401
  279MOL0     H36791   2.870   8.464   5.635  1.4358 -1.8554  0.0643
  279MOL0     H36792   2.963   8.144   5.270  1.1835  0.0591 -1.1693
  279MOL0     H36793   3.150   8.112   5.097 -0.8477 -0.0656 -0.4256
  279MOL0     H36794   3.183   8.303   4.907  0.3914  2.2391  2.3458
  279MOL0     H36795   3.329   8.208   4.859  1.6014  1.9259 -1.8013
  279MOL0     H36796   3.380   8.383   4.754 -2.0777 -3.1051  0.4394
  279MOL0     H36797   3.470   8.418   4.909 -0.5054  2.5599 -0.0174
  279MOL0     H36798   3.295   8.579   4.961 -0.7475 -1.2455 -0.7732
  279MOL0     H36799   3.230   8.572   4.795 -1.1615  1.2618  1.1958
  279MOL0     H36800   3.517   8.630   4.894 -1.6954  1.1854  2.6037
  279MOL0     H36801   3.463   8.634   4.727 -3.9884  0.7656 -0.8261
  279MOL0     H36802   3.295   8.810   4.821  0.3110 -3.3937  0.6145
  279MOL0     H36803   3.452   8.851   4.769 -0.5438 -3.4181 -2.0745
  279MOL0     H36804   3.523   8.899   5.009 -0.4309 -2.5158  2.1951
  279MOL0     H36805   3.405   8.788   5.067  2.8608  0.8776  0.8188
  279MOL0     H36806   3.212   8.944   5.009 -0.2975  1.1827 -0.0049
  279MOL0     H36807   3.323   9.036   5.110 -1.8578 -2.9520  2.3066
  279MOL0     H36808   3.295   9.045   4.822  0.1704  1.7254 -1.2235
  279MOL0     H36809   3.431   9.118   4.904 -0.8163  1.6663  1.4864
  279MOL0     H36810   3.334   8.465   5.237 -0.9282  0.4173 -1.7895
  279MOL0     H36811   3.166   8.499   5.411 -1.4884  1.7086 -2.2642
  279MOL0     H36812   2.708   8.059   5.636 -0.6755 -0.5356  1.5895
  279MOL0     H36813   2.539   8.129   5.767  1.5916 -0.6150  1.5222
  279MOL0     H36814   2.156   8.582   5.869 -0.8585 -0.7533 -0.9131
  279MOL0     H36815   2.275   8.774   5.951 -0.7346 -2.6252  0.0650
  279MOL0     H36816   2.543   9.071   6.023  0.3918  1.1098  1.0034
  279MOL0     H36817   2.689   9.218   6.156 -0.1817  1.7080 -1.3700
  279MOL0     H36818   2.983   9.388   6.000  1.3510 -0.2286 -1.5071
  279MOL0     H36819   3.129   9.313   6.051 -1.4814 -3.6010  0.1443
  279MOL0     H36820   3.007   9.400   6.289 -1.4627 -0.9996 -0.3145
  279MOL0     H36821   3.153   9.465   6.197  0.7806 -3.6418 -3.1094
  279MOL0     H36822   2.862   9.553   6.163  1.1153 -1.4644  0.3904
  279MOL0     H36823   2.993   9.597   6.059  3.6182  0.7651  0.7725
  279MOL0     H36824   3.114   9.685   6.272 -0.7104  0.1731  0.9063
  279MOL0     H36825   2.987   9.790   6.179  1.0391  2.3480  1.8705
  279MOL0     H36826   2.818   9.753   6.554 -0.4746  0.4559  0.3628
  279MOL0     H36827   3.041   9.100   5.962  0.7564  2.9619 -2.9637
  279MOL0     H36828   2.921   8.933   5.843 -1.5141 -1.6906 -0.0445
  280MOL0     O36829   8.122   5.207   2.091  0.7402  0.0009  0.5048
  280MOL0     C36830   8.078   5.231   2.205  0.0768  0.4381 -0.1312
  280MOL0     O36831   7.991   5.331   2.237  0.3780  0.0956  0.1962
  280MOL0     C36832   7.916   5.384   2.131 -0.4021  0.2171  1.0307
  280MOL0     C36833   7.796   5.319   2.090 -0.2348 -0.5316 -0.0626
  280MOL0     C36834   7.711   5.363   1.987 -1.0927  0.7808  0.1343
  280MOL0     C36835   7.746   5.481   1.918  0.4611 -0.0522  0.7598
  280MOL0     O36836   7.678   5.522   1.799  0.6425 -0.5225 -0.4219
  280MOL0     C36837   7.612   5.427   1.717 -0.7902 -0.0535  0.1546
  280MOL0     C36838   7.509   5.483   1.621 -0.2173 -0.2504 -0.9637
  280MOL0     C36839   7.569   5.539   1.494  0.0942  0.5162  0.4097
  280MOL0     C36840   7.463   5.632   1.416 -0.1067  0.8035  0.2417
  280MOL0     C36841   7.521   5.709   1.299 -0.9173 -0.9951  0.0313
  280MOL0     C36842   7.595   5.831   1.361  0.1192  1.1863 -0.2001
  280MOL0     C36843   7.620   5.936   1.260 -0.3980 -0.0764 -0.5989
  280MOL0     C36844   7.694   5.899   1.128  0.4076  0.2389  0.7468
  280MOL0     N36845   7.837   5.879   1.144  0.3485  0.3641  0.5575
  280MOL0     C36846   7.894   5.760   1.165 -0.5067  0.4691  0.3311
  280MOL0     C36847   8.011   5.752   1.106 -1.0514  0.4067 -0.8679
  280MOL0     C36848   8.107   5.634   1.089  0.5895 -0.8291 -0.3927
  280MOL0     C36849   8.135   5.564   1.222  0.2896 -0.2257 -0.3684
  280MOL0     C36850   8.227   5.656   1.301 -0.0557 -0.7360 -0.5169
  280MOL0     C36851   8.296   5.584   1.417  0.4461 -0.0077  0.2738
  280MOL0     O36852   8.426   5.558   1.366 -0.0693 -0.9334  1.1457
  280MOL0     C36853   8.526   5.522   1.458 -0.2214 -0.2831 -0.0501
  280MOL0     C36854   8.510   5.506   1.598 -0.0569 -0.0622  0.2128
  280MOL0     C36855   8.614   5.455   1.672 -0.7746 -0.2405  0.0971
  280MOL0     C36856   8.736   5.422   1.618  0.6477 -0.1832  0.2328
  280MOL0     C36857   8.844   5.364   1.712 -0.3436 -0.3100 -0.0469
  280MOL0     O36858   8.931   5.276   1.650 -0.5400 -0.0594  0.1462
  280MOL0     C36859   9.013   5.201   1.737  0.1420 -0.0987 -0.0186
  280MOL0     C36860   9.146   5.174   1.702 -1.1061  0.4968 -0.6547
  280MOL0     C36861   9.231   5.118   1.810  0.6609 -0.1452 -0.6537
  280MOL0     C36862   9.177   5.089   1.937  0.3029  0.6692  0.0807
  280MOL0     O36863   9.267   5.053   2.026  0.3108 -0.0768  0.8305
  280MOL0     C36864   9.243   5.062   2.163 -0.1131  0.2176 -0.5613
  280MOL0     C36865   9.225   5.210   2.211 -0.2327  0.2300  0.0545
  280MOL0     C36866   9.177   5.234   2.359  0.9264 -0.7277  0.2694
  280MOL0     C36867   9.162   5.376   2.406  0.9455 -1.0168 -0.3971
  280MOL0     C36868   9.038   5.451   2.343 -0.4393  0.7193 -0.0528
  280MOL0     C36869   9.036   5.599   2.366 -0.6943  0.0802  0.1150
  280MOL0     C36870   9.071   5.642   2.508 -0.2479  0.1832 -0.1514
  280MOL0     C36871   9.085   5.792   2.522 -0.7734  1.2679 -0.0441
  280MOL0    Cl36872   9.194   5.854   2.400  0.2876  0.2076  0.1279
  280MOL0     C36873   9.044   5.110   1.967 -0.0946 -0.6104 -0.2793
  280MOL0     C36874   8.959   5.153   1.858 -0.5895 -0.2624 -0.0903
  280MOL0     O36875   8.857   5.395   1.826 -0.0645 -0.3115 -0.2522
  280MOL0     C36876   8.751   5.430   1.481 -0.1076  0.1578  0.0419
  280MOL0     C36877   8.649   5.493   1.405  0.0840 -0.3979 -0.3545
  280MOL0     N36878   8.027   5.879   1.042 -0.2982  0.0222 -0.3047
  280MOL0     N36879   7.920   5.940   1.056  0.0082 -0.2133  0.7328
  280MOL0     C36880   7.867   5.545   1.945 -0.5414  0.3476  0.0070
  280MOL0     C36881   7.948   5.498   2.055 -0.0390  0.4876 -0.3774
  280MOL0     C36882   8.139   5.171   2.317 -0.7825  0.6271  0.7963
  280MOL0     C36883   8.197   5.046   2.295  0.5087 -0.4001 -0.4589
  280MOL0     C36884   8.239   4.973   2.404 -0.0107 -0.6848 -1.0644
  280MOL0     C36885   8.278   5.027   2.529  0.9420  0.2857  0.4203
  280MOL0     O36886   8.348   4.963   2.621 -0.4166 -0.6608  0.0510
  280MOL0     C36887   8.428   4.852   2.581  1.0228  1.1393 -0.3745
  280MOL0     C36888   8.529   4.814   2.689 -0.2574  0.0631 -0.6561
  280MOL0     C36889   8.606   4.683   2.673 -0.2959 -0.4568 -0.2467
  280MOL0     C36890   8.701   4.666   2.553 -0.2571  0.1346 -0.9847
  280MOL0     C36891   8.697   4.528   2.513 -0.0125  1.1158 -0.4477
  280MOL0     C36892   8.699   4.415   2.476  0.5993  0.1035 -0.3652
  280MOL0     C36893   8.227   5.156   2.538  0.7801  0.6132 -0.0635
  280MOL0     C36894   8.156   5.223   2.443  0.2588 -0.4025  0.0269
  280MOL0     H36895   7.764   5.229   2.141 -2.3865  0.5118  0.5063
  280MOL0     H36896   7.618   5.312   1.965 -0.3349 -0.7669  0.3901
  280MOL0     H36897   7.560   5.346   1.768  1.5035 -2.5602 -1.2480
  280MOL0     H36898   7.690   5.374   1.663 -2.7849 -2.1076 -0.8722
  280MOL0     H36899   7.473   5.574   1.669 -0.0677 -0.4896 -0.3882
  280MOL0     H36900   7.425   5.415   1.604 -0.2576 -0.9562  1.6940
  280MOL0     H36901   7.600   5.454   1.433  2.8248 -0.5495  3.0008
  280MOL0     H36902   7.659   5.595   1.524  1.7862 -3.2784  3.3525
  280MOL0     H36903   7.390   5.559   1.378  0.0168 -0.6985  2.6802
  280MOL0     H36904   7.402   5.698   1.479 -0.5296 -0.2786  1.0024
  280MOL0     H36905   7.435   5.734   1.237 -0.9430  1.7877  1.0402
  280MOL0     H36906   7.585   5.644   1.239  0.1140 -1.1794  1.2811
  280MOL0     H36907   7.692   5.802   1.403 -0.2660  1.8113  1.1608
  280MOL0     H36908   7.530   5.866   1.441 -2.4530  1.7454 -2.4037
  280MOL0     H36909   7.523   5.975   1.225 -0.4729 -0.6013 -1.0006
  280MOL0     H36910   7.672   6.021   1.304 -0.3128 -1.6935  2.6949
  280MOL0     H36911   7.667   5.976   1.055 -0.8883 -1.8859 -1.1745
  280MOL0     H36912   7.655   5.807   1.084  2.2385 -0.3409  0.2777
  280MOL0     H36913   7.858   5.682   1.231 -2.3114  3.2545  2.9614
  280MOL0     H36914   8.197   5.686   1.054 -0.2675  0.8391 -0.1839
  280MOL0     H36915   8.073   5.559   1.016 -1.6802  1.3250 -1.6869
  280MOL0     H36916   8.179   5.465   1.206  1.7431  0.3721 -0.2346
  280MOL0     H36917   8.041   5.538   1.272  1.2823 -0.3058  1.5640
  280MOL0     H36918   8.315   5.688   1.244 -0.0162  0.4025  0.1627
  280MOL0     H36919   8.188   5.744   1.353  0.1554 -2.0977  2.0991
  280MOL0     H36920   8.253   5.488   1.445 -0.8569  0.7622  1.0220
  280MOL0     H36921   8.300   5.650   1.505  1.4362 -1.4401  1.3491
  280MOL0     H36922   8.418   5.526   1.652  0.7922  0.4335  1.5265
  280MOL0     H36923   8.585   5.443   1.776  0.2687 -1.1305  0.2938
  280MOL0     H36924   9.190   5.196   1.606 -0.0513  0.2587 -0.2416
  280MOL0     H36925   9.339   5.123   1.809  0.6763  0.9018  1.0741
  280MOL0     H36926   9.333   5.022   2.209 -0.6757  0.0281  0.3899
  280MOL0     H36927   9.162   4.993   2.190  0.0305 -0.0829 -0.8868
  280MOL0     H36928   9.162   5.262   2.138 -1.8982 -2.3584 -0.5032
  280MOL0     H36929   9.319   5.265   2.209 -1.3989  2.3540  0.7420
  280MOL0     H36930   9.240   5.183   2.433  0.3656  1.7345  2.5877
  280MOL0     H36931   9.080   5.188   2.376 -1.1949  2.5027 -2.0821
  280MOL0     H36932   9.153   5.387   2.514  2.1810  3.7389 -0.5383
  280MOL0     H36933   9.258   5.425   2.390  1.5377 -1.6123  1.1394
  280MOL0     H36934   8.942   5.414   2.382 -0.7893  1.3369 -0.3119
  280MOL0     H36935   9.027   5.443   2.234  2.6796 -0.5647 -0.3839
  280MOL0     H36936   8.938   5.635   2.331 -0.4194  1.5116  0.7470
  280MOL0     H36937   9.105   5.636   2.289 -0.1777  2.9912  1.8282
  280MOL0     H36938   8.990   5.624   2.580  0.3108 -1.0865  0.1906
  280MOL0     H36939   9.160   5.593   2.548  0.1407 -0.5685 -1.8256
  280MOL0     H36940   9.136   5.802   2.618  0.8325 -1.1330 -0.5455
  280MOL0     H36941   8.984   5.833   2.523 -1.5879 -0.5326 -1.7043
  280MOL0     H36942   8.980   5.090   2.052 -3.0690  0.0209 -2.2045
  280MOL0     H36943   8.851   5.158   1.866 -0.4469  1.0873  1.3188
  280MOL0     H36944   8.847   5.405   1.435  1.0145  3.5346  0.2455
  280MOL0     H36945   8.679   5.512   1.303 -1.4770 -2.8756 -1.3525
  280MOL0     H36946   7.902   5.641   1.909 -0.6466  2.0874  4.0477
  280MOL0     H36947   8.037   5.553   2.083  0.7859 -1.0866  0.2068
  280MOL0     H36948   8.202   4.992   2.202  1.9371  0.5919 -0.9903
  280MOL0     H36949   8.266   4.868   2.391  0.1528 -0.7137 -0.5015
  280MOL0     H36950   8.472   4.871   2.483 -0.4606  4.3323 -0.5503
  280MOL0     H36951   8.354   4.772   2.568  0.8464  1.7279 -4.0178
  280MOL0     H36952   8.604   4.894   2.690  0.2861 -0.4314 -0.9681
  280MOL0     H36953   8.468   4.806   2.779  0.6814  0.6237  0.0540
  280MOL0     H36954   8.529   4.607   2.684 -0.5620 -0.1159  0.2865
  280MOL0     H36955   8.658   4.667   2.768 -0.5417 -2.7377 -0.4510
  280MOL0     H36956   8.670   4.725   2.466  0.1240 -1.2136 -2.0768
  280MOL0     H36957   8.806   4.693   2.568 -0.1123 -1.9624  3.3306
  280MOL0     H36958   8.676   4.314   2.448 -2.4680  0.8026 -0.7069
  280MOL0     H36959   8.247   5.210   2.630 -2.2817 -0.5649  1.4309
  280MOL0     H36960   8.117   5.321   2.469  0.3015  0.2856 -2.2757
  281MOL0     O36961  11.425   9.768   0.604  1.1141  0.1204 -0.1458
  281MOL0     C36962  11.399   9.709   0.710  0.4603  1.0607 -0.7650
  281MOL0     O36963  11.485   9.657   0.794 -0.1674  0.2072  0.4310
  281MOL0     C36964  11.609   9.618   0.750 -0.0945 -0.7382  1.2884
  281MOL0     C36965  11.636   9.482   0.768 -0.1334  0.3671  0.1826
  281MOL0     C36966  11.757   9.438   0.720  0.3019  0.6606  0.3446
  281MOL0     C36967  11.858   9.523   0.660 -0.3062  0.2315  0.6877
  281MOL0     O36968  11.987   9.482   0.630 -0.2591  0.1006  0.2287
  281MOL0     C36969  12.010   9.343   0.597 -0.8157 -1.1732  0.3589
  281MOL0     C36970  12.152   9.316   0.517 -0.0419  0.4237  0.0180
  281MOL0     C36971  12.152   9.396   0.388  0.4301 -0.8688  0.0054
  281MOL0     C36972  12.246   9.324   0.279  0.2548  0.4275 -0.4111
  281MOL0     C36973  12.250   9.397   0.146 -0.0728 -0.0915 -0.2419
  281MOL0     C36974  12.152   9.340   0.043  1.2767 -0.0096  0.8425
  281MOL0     C36975  12.211   9.237  -0.044  0.1206 -0.1299  0.6823
  281MOL0     C36976  12.262   9.304  -0.177  1.2221  0.3235 -0.9830
  281MOL0     N36977  12.363   9.224  -0.242 -0.4537 -0.0238  0.5101
  281MOL0     C36978  12.371   9.169  -0.370  0.0008  0.4035 -0.2233
  281MOL0     C36979  12.482   9.091  -0.376  0.2669  0.4642  0.6151
  281MOL0     C36980  12.511   9.008  -0.500  0.5481 -0.6846  0.7628
  281MOL0     C36981  12.512   8.852  -0.495 -0.7999  0.0272 -0.4261
  281MOL0     C36982  12.396   8.795  -0.420  0.0203  0.4355 -0.0868
  281MOL0     C36983  12.430   8.728  -0.296 -1.3291  0.7480  0.1658
  281MOL0     O36984  12.310   8.691  -0.231  0.3115  0.7481  0.7303
  281MOL0     C36985  12.328   8.623  -0.113 -1.1276  1.0369 -0.9107
  281MOL0     C36986  12.214   8.600  -0.030 -0.2597  0.1995  0.2082
  281MOL0     C36987  12.225   8.534   0.088  0.0094 -0.1849 -0.3077
  281MOL0     C36988  12.344   8.484   0.138  0.1551 -0.6237 -0.4857
  281MOL0     C36989  12.351   8.402   0.266 -0.9211 -0.8010  0.5068
  281MOL0     O36990  12.238   8.361   0.309  0.4512  0.0046 -0.8329
  281MOL0     C36991  12.234   8.354   0.452 -0.7815  0.2744 -0.6668
  281MOL0     C36992  12.188   8.231   0.506 -0.5570  0.6911 -0.6514
  281MOL0     C36993  12.165   8.222   0.651  0.8090 -0.1241  0.5292
  281MOL0     C36994  12.187   8.334   0.730  0.5099 -0.5497  0.0719
  281MOL0     O36995  12.150   8.340   0.860 -0.2658 -0.5619 -0.4424
  281MOL0     C36996  12.215   8.260   0.958 -0.3471  0.3251  0.8281
  281MOL0     C36997  12.168   8.306   1.093  0.0063  0.0184 -0.2125
  281MOL0     C36998  12.016   8.314   1.107  0.1657  0.8037  0.6713
  281MOL0     C36999  11.981   8.371   1.248  0.4410 -0.6243 -1.8367
  281MOL0     C37000  11.826   8.358   1.290  0.1573 -0.2929  0.4942
  281MOL0     C37001  11.788   8.408   1.431  0.1391  0.7575 -0.0059
  281MOL0     C37002  11.875   8.519   1.506  0.3987  0.4735  0.2770
  281MOL0     C37003  11.946   8.466   1.629 -0.1511 -0.3113 -0.5086
  281MOL0    Cl37004  11.811   8.407   1.732  0.1191 -0.5003 -0.4094
  281MOL0     C37005  12.215   8.449   0.666  0.2184  0.7825 -0.7246
  281MOL0     C37006  12.247   8.468   0.534  0.6401 -0.1342  0.0845
  281MOL0     O37007  12.459   8.385   0.319 -0.1707  0.2779 -0.4676
  281MOL0     C37008  12.460   8.519   0.067  0.6859 -0.2892 -0.1538
  281MOL0     C37009  12.461   8.587  -0.056 -0.3591 -0.4075 -0.1200
  281MOL0     N37010  12.543   9.093  -0.252  0.4266 -0.1307  0.1050
  281MOL0     N37011  12.481   9.178  -0.178  0.2305  0.1867 -0.9144
  281MOL0     C37012  11.827   9.658   0.654 -1.4715 -0.2489  0.2706
  281MOL0     C37013  11.708   9.706   0.699 -0.5038  0.8059  0.3611
  281MOL0     C37014  11.265   9.739   0.778 -0.5084 -0.2877  0.2758
  281MOL0     C37015  11.157   9.789   0.701 -0.0653  0.2871  0.0143
  281MOL0     C37016  11.026   9.792   0.744  0.0790  0.1560 -0.4967
  281MOL0     C37017  10.995   9.750   0.870  0.1272 -0.1682 -0.5078
  281MOL0     O37018  10.860   9.769   0.911  0.4821  0.2697  0.1706
  281MOL0     C37019  10.821   9.724   1.043 -0.2710  0.2795  0.4949
  281MOL0     C37020  10.671   9.742   1.047 -0.1290 -0.1200  0.5555
  281MOL0     C37021  10.633   9.866   1.119  0.0591  1.8035  0.1537
  281MOL0     C37022  10.679  10.001   1.076 -0.2992  0.4202 -0.3096
  281MOL0     C37023  10.616  10.034   0.953  0.7269 -0.5713  0.7473
  281MOL0     C37024  10.559  10.058   0.844  0.7976  0.2546 -0.6696
  281MOL0     C37025  11.096   9.689   0.942  0.8906 -0.8185  0.1671
  281MOL0     C37026  11.226   9.691   0.898  0.2919  0.6489 -0.4807
  281MOL0     H37027  11.577   9.405   0.816 -1.1778  0.4732 -0.8820
  281MOL0     H37028  11.783   9.335   0.742  1.2462  0.6188 -0.8341
  281MOL0     H37029  11.922   9.304   0.546 -1.3225  0.4214 -0.0680
  281MOL0     H37030  12.012   9.301   0.698  0.1190  1.6256  1.6242
  281MOL0     H37031  12.147   9.209   0.491 -0.3099  0.2933  0.5818
  281MOL0     H37032  12.250   9.340   0.557  1.7222 -0.0278 -3.6196
  281MOL0     H37033  12.204   9.487   0.419 -2.1799  0.0694  1.9950
  281MOL0     H37034  12.049   9.419   0.358 -0.0325 -1.1864  1.3022
  281MOL0     H37035  12.347   9.332   0.320 -0.5686  0.5658  1.7415
  281MOL0     H37036  12.222   9.218   0.271 -2.0547  0.8006  0.7556
  281MOL0     H37037  12.350   9.383   0.105 -0.6580  0.2292 -1.8479
  281MOL0     H37038  12.240   9.504   0.167  3.0371  0.5081 -1.3525
  281MOL0     H37039  12.115   9.425  -0.016  2.8110 -0.3061 -0.6252
  281MOL0     H37040  12.064   9.301   0.094  0.5499  0.3907 -0.0767
  281MOL0     H37041  12.292   9.186   0.010 -0.9528  1.4118  4.0617
  281MOL0     H37042  12.133   9.171  -0.082 -0.8236 -0.2632  2.7214
  281MOL0     H37043  12.305   9.403  -0.160  1.3109 -0.0435  1.1531
  281MOL0     H37044  12.173   9.309  -0.240  1.5813  0.7942 -1.4578
  281MOL0     H37045  12.296   9.166  -0.448  1.9616 -1.2122 -2.1623
  281MOL0     H37046  12.615   9.036  -0.524  0.4793  0.2741  1.4981
  281MOL0     H37047  12.450   9.036  -0.586 -2.0773 -1.8580  2.1241
  281MOL0     H37048  12.609   8.817  -0.458 -0.9344  1.2237  1.1647
  281MOL0     H37049  12.509   8.818  -0.599 -0.1156  3.5084 -1.7145
  281MOL0     H37050  12.315   8.868  -0.409 -0.1827  0.3251 -0.7817
  281MOL0     H37051  12.362   8.706  -0.475  1.4877 -0.7815  0.8760
  281MOL0     H37052  12.487   8.802  -0.238 -1.4784  1.6198 -0.7694
  281MOL0     H37053  12.495   8.647  -0.330 -1.1861  1.0190 -0.2198
  281MOL0     H37054  12.119   8.641  -0.062  0.0896  2.5464  1.9674
  281MOL0     H37055  12.132   8.509   0.138 -0.7998  0.4090 -1.4745
  281MOL0     H37056  12.167   8.142   0.448 -3.0670  0.1906  0.8634
  281MOL0     H37057  12.134   8.135   0.708 -3.1261  2.1737  2.3052
  281MOL0     H37058  12.323   8.273   0.956 -0.4476  1.1895 -0.6643
  281MOL0     H37059  12.185   8.156   0.942  0.5707  0.0101  1.0920
  281MOL0     H37060  12.217   8.403   1.103 -2.6671  1.6063 -1.1766
  281MOL0     H37061  12.207   8.245   1.175  0.1033  1.0349  0.5139
  281MOL0     H37062  11.983   8.210   1.095  1.8031  0.4494 -1.3389
  281MOL0     H37063  11.975   8.378   1.028  1.1112  1.9195  1.0730
  281MOL0     H37064  12.046   8.330   1.326 -2.7089  2.3497  2.8691
  281MOL0     H37065  12.006   8.478   1.251 -2.4273  0.1245 -1.6357
  281MOL0     H37066  11.796   8.254   1.276  0.6061 -0.2595 -0.9645
  281MOL0     H37067  11.765   8.410   1.216 -0.9419 -0.8736  0.9737
  281MOL0     H37068  11.785   8.319   1.493  0.3130 -0.5205 -1.7586
  281MOL0     H37069  11.685   8.443   1.438  0.9391  2.8893  3.7544
  281MOL0     H37070  11.939   8.562   1.428 -0.6480 -1.0799 -1.5256
  281MOL0     H37071  11.807   8.601   1.527 -0.8510 -0.5459  0.3322
  281MOL0     H37072  12.003   8.539   1.687 -0.0554  0.2965 -1.3545
  281MOL0     H37073  12.017   8.388   1.600 -0.7306 -0.1390 -2.5190
  281MOL0     H37074  12.231   8.530   0.737  0.4316  1.0643 -1.0926
  281MOL0     H37075  12.280   8.561   0.487  2.2482 -0.2122  0.9950
  281MOL0     H37076  12.558   8.490   0.105  0.8611  0.3243 -0.1268
  281MOL0     H37077  12.552   8.612  -0.111  0.3158 -1.7076  0.3693
  281MOL0     H37078  11.902   9.722   0.608 -2.3423  1.2095  0.8057
  281MOL0     H37079  11.675   9.809   0.692 -1.4356  0.6083  1.4245
  281MOL0     H37080  11.178   9.823   0.600 -0.5846 -0.7229 -0.4386
  281MOL0     H37081  10.960   9.853   0.684  1.0772  1.2707 -0.4947
  281MOL0     H37082  10.874   9.770   1.127 -1.4733  3.2775 -0.2339
  281MOL0     H37083  10.835   9.616   1.033  0.5646  0.4152  0.1072
  281MOL0     H37084  10.625   9.743   0.948 -0.6717  1.9910  0.7655
  281MOL0     H37085  10.624   9.662   1.105 -1.8436  2.1399  2.5184
  281MOL0     H37086  10.670   9.845   1.220  0.6309 -1.9636 -0.7010
  281MOL0     H37087  10.524   9.867   1.128  0.1348  0.8768  1.5627
  281MOL0     H37088  10.648  10.066   1.159 -0.9334  1.7838 -1.5784
  281MOL0     H37089  10.788  10.005   1.062  0.0050 -1.9204  0.7958
  281MOL0     H37090  10.511  10.077   0.750 -0.8943 -1.5713 -0.2417
  281MOL0     H37091  11.076   9.656   1.044 -0.8969 -2.0375 -0.5354
  281MOL0     H37092  11.292   9.633   0.962  1.5118  0.9212 -1.4378
  282MOL0     O37093   1.303   9.111   7.215 -0.2325  0.7093 -0.1435
  282MOL0     C37094   1.370   9.030   7.151  0.7589 -0.6298 -0.1313
  282MOL0     O37095   1.485   8.977   7.190  0.5338  0.4314 -0.6619
  282MOL0     C37096   1.516   8.987   7.318  0.2622  0.4738 -0.3719
  282MOL0     C37097   1.485   8.873   7.399 -1.6646 -0.0437 -0.2421
  282MOL0     C37098   1.521   8.876   7.534  1.3166  0.6319 -0.0183
  282MOL0     C37099   1.575   8.988   7.603  0.1079 -0.4792  0.3782
  282MOL0     O37100   1.591   8.997   7.740 -0.9750  0.1997  0.0801
  282MOL0     C37101   1.550   8.880   7.808 -0.0436  0.1397 -0.5045
  282MOL0     C37102   1.578   8.902   7.957  1.0717  0.1695 -0.2902
  282MOL0     C37103   1.733   8.899   7.978 -0.1326 -0.1022 -0.6619
  282MOL0     C37104   1.759   8.902   8.128  0.6240  0.1860  0.4161
  282MOL0     C37105   1.889   8.965   8.150 -0.3448  0.3696 -0.9782
  282MOL0     C37106   1.930   8.957   8.301  0.5290  0.3886  0.3153
  282MOL0     C37107   1.992   9.086   8.349  0.3434 -0.2417 -0.0297
  282MOL0     C37108   2.059   9.065   8.488  1.0003 -0.4658 -0.0308
  282MOL0     N37109   1.962   9.029   8.595 -0.8068  0.4496 -0.3334
  282MOL0     C37110   1.999   8.981   8.724 -0.0799 -1.1014  0.4010
  282MOL0     C37111   1.880   8.958   8.787 -0.6897  1.0021  0.2593
  282MOL0     C37112   1.861   8.878   8.919 -0.0580  0.1104  0.0973
  282MOL0     C37113   1.981   8.906   9.011 -0.1193  0.2222 -0.1148
  282MOL0     C37114   1.978   8.802   9.118  0.8658  0.7761 -0.5762
  282MOL0     C37115   2.088   8.826   9.217 -0.0176 -0.4057 -0.2821
  282MOL0     O37116   2.220   8.808   9.161 -0.4964  0.6883 -0.7997
  282MOL0     C37117   2.328   8.780   9.244  0.5097 -1.0955 -0.1171
  282MOL0     C37118   2.335   8.809   9.383 -0.1502  0.4367  0.2690
  282MOL0     C37119   2.452   8.783   9.450  0.0331  0.7839 -0.0870
  282MOL0     C37120   2.557   8.714   9.394  0.0054 -0.3915  0.2991
  282MOL0     C37121   2.658   8.652   9.487  0.5252  0.5865 -0.2810
  282MOL0     O37122   2.686   8.723   9.601 -0.3405 -0.6751  0.4710
  282MOL0     C37123   2.777   8.680   9.692  0.0193 -0.2786  0.4873
  282MOL0     C37124   2.915   8.706   9.659 -0.4695 -0.7743 -0.1533
  282MOL0     C37125   3.013   8.650   9.743  0.5805 -0.6980  0.6640
  282MOL0     C37126   2.981   8.600   9.865  0.0329  0.0586  1.0934
  282MOL0     O37127   3.083   8.545   9.939 -0.5701  0.5266  0.3588
  282MOL0     C37128   3.061   8.463  10.060 -1.3060 -0.1988  0.0307
  282MOL0     C37129   3.197   8.427  10.133 -0.9222 -0.3783 -0.6532
  282MOL0     C37130   3.270   8.559  10.160 -0.2543  0.7765 -0.5137
  282MOL0     C37131   3.396   8.531  10.241  0.0620  0.2858 -0.4520
  282MOL0     C37132   3.370   8.468  10.382 -0.5935 -0.2290  0.1895
  282MOL0     C37133   3.459   8.543  10.487  0.3149 -0.2111 -0.2525
  282MOL0     C37134   3.610   8.532  10.455  0.4736 -0.2597 -0.0161
  282MOL0     C37135   3.696   8.618  10.556  0.0571 -1.1636  0.4038
  282MOL0    Cl37136   3.667   8.795  10.545  0.2730 -0.2025 -0.4803
  282MOL0     C37137   2.842   8.576   9.902 -0.2585 -1.3350  0.1319
  282MOL0     C37138   2.741   8.605   9.811  0.2404 -0.7353  0.5643
  282MOL0     O37139   2.718   8.551   9.455 -0.7367 -0.2559 -0.1506
  282MOL0     C37140   2.550   8.685   9.258 -0.5160  0.2951 -0.7287
  282MOL0     C37141   2.437   8.724   9.180 -0.1158  0.4991 -0.3492
  282MOL0     N37142   1.779   9.024   8.711  0.6899  0.0453 -0.3848
  282MOL0     N37143   1.832   9.050   8.594  0.4085  0.7616 -0.0420
  282MOL0     C37144   1.594   9.103   7.520  0.3861  0.4280  0.5018
  282MOL0     C37145   1.568   9.099   7.381  0.2243 -0.1094  0.2966
  282MOL0     C37146   1.341   9.014   7.009  0.3461 -0.0736 -0.0610
  282MOL0     C37147   1.393   8.903   6.939  0.0497  0.8608  0.1316
  282MOL0     C37148   1.346   8.877   6.806  0.2646  0.2232  0.2435
  282MOL0     C37149   1.244   8.955   6.746  0.6738 -0.1952 -0.5768
  282MOL0     O37150   1.187   8.935   6.628  0.2891 -0.4880  0.2417
  282MOL0     C37151   1.216   8.820   6.551 -0.3449  0.0765 -0.4871
  282MOL0     C37152   1.135   8.700   6.608 -0.1630  0.2680  0.0714
  282MOL0     C37153   1.188   8.566   6.560 -0.7373 -0.0910 -0.4779
  282MOL0     C37154   1.315   8.521   6.650 -0.1721  0.2844 -0.2689
  282MOL0     C37155   1.386   8.399   6.603  0.6588  0.0870  0.2628
  282MOL0     C37156   1.435   8.298   6.563  0.4685 -0.2881 -0.0874
  282MOL0     C37157   1.187   9.059   6.829  0.2272 -0.5297  0.1533
  282MOL0     C37158   1.233   9.084   6.956 -0.0924 -0.7704  0.4036
  282MOL0     H37159   1.436   8.783   7.365 -2.6082  0.5271 -0.4214
  282MOL0     H37160   1.517   8.779   7.584  1.0204  0.6825  0.0552
  282MOL0     H37161   1.599   8.788   7.775 -1.3929 -1.1688  0.9745
  282MOL0     H37162   1.444   8.865   7.787 -0.1282 -0.2828  0.1960
  282MOL0     H37163   1.516   8.832   8.014 -0.5802  2.0351  0.3547
  282MOL0     H37164   1.537   9.000   7.985  4.7817  2.0453 -0.8153
  282MOL0     H37165   1.780   8.991   7.940  4.2380 -2.3408 -1.3943
  282MOL0     H37166   1.765   8.806   7.931  2.0379 -0.0661  0.6059
  282MOL0     H37167   1.684   8.953   8.190  1.8429  1.6784  0.7338
  282MOL0     H37168   1.755   8.803   8.174  0.9523  2.0854  5.0685
  282MOL0     H37169   1.869   9.068   8.120 -0.9083  0.0784 -1.6292
  282MOL0     H37170   1.971   8.923   8.091  1.0253  1.3346  0.1733
  282MOL0     H37171   2.005   8.878   8.313 -1.2930 -1.3701  0.6718
  282MOL0     H37172   1.836   8.933   8.353  1.2507 -0.9733  1.0418
  282MOL0     H37173   2.071   9.112   8.278  0.1443  0.6705  0.0677
  282MOL0     H37174   1.926   9.173   8.350  0.7008  0.0541 -1.0158
  282MOL0     H37175   2.113   9.157   8.510 -1.0248  0.9497 -0.7304
  282MOL0     H37176   2.131   8.983   8.478  0.4313 -1.4894  3.0421
  282MOL0     H37177   2.097   8.949   8.759  1.1911  2.1639  0.2581
  282MOL0     H37178   1.856   8.773   8.888 -1.4947  0.7730 -2.1368
  282MOL0     H37179   1.762   8.897   8.962 -0.1583 -1.8408  0.8388
  282MOL0     H37180   1.990   9.005   9.057  3.4903 -0.5840  1.3015
  282MOL0     H37181   2.074   8.884   8.957  0.5665  4.0588 -0.8344
  282MOL0     H37182   1.880   8.796   9.166  0.2232  1.7397 -1.7156
  282MOL0     H37183   1.981   8.698   9.084 -0.4631 -0.0645  1.6965
  282MOL0     H37184   2.066   8.747   9.289  0.1543 -0.1036  0.1102
  282MOL0     H37185   2.067   8.917   9.275 -4.6321 -1.3589 -0.0228
  282MOL0     H37186   2.262   8.877   9.427  0.1288 -0.5116  2.3416
  282MOL0     H37187   2.455   8.803   9.557 -2.3228 -1.0576  0.4189
  282MOL0     H37188   2.935   8.766   9.570 -2.5108  2.8073  1.5836
  282MOL0     H37189   3.119   8.652   9.719  1.2126 -7.0232  1.1814
  282MOL0     H37190   3.021   8.366  10.029  0.3666 -0.5187 -1.3005
  282MOL0     H37191   2.988   8.507  10.128 -2.8068 -3.7783  0.9481
  282MOL0     H37192   3.264   8.356  10.083 -2.2139 -0.7509 -1.9421
  282MOL0     H37193   3.173   8.395  10.235  0.7886 -1.5135 -0.5669
  282MOL0     H37194   3.213   8.629  10.222 -0.5448  0.3807 -0.3329
  282MOL0     H37195   3.300   8.596  10.061  1.7662 -0.6466 -0.4773
  282MOL0     H37196   3.463   8.471  10.178  0.9662  0.7432  0.0491
  282MOL0     H37197   3.453   8.625  10.240 -1.2027  1.0852 -1.6803
  282MOL0     H37198   3.387   8.361  10.395  3.6621  0.4657  1.5994
  282MOL0     H37199   3.265   8.488  10.408 -1.1072  1.3592 -2.5877
  282MOL0     H37200   3.440   8.496  10.584 -0.4193  0.4081 -0.0864
  282MOL0     H37201   3.420   8.645  10.479 -1.3526 -0.7211  0.9337
  282MOL0     H37202   3.645   8.428  10.457  2.0508  0.2445 -0.0026
  282MOL0     H37203   3.628   8.566  10.352 -2.9836 -2.4940 -1.5576
  282MOL0     H37204   3.800   8.597  10.531 -0.1033  0.2093 -1.6182
  282MOL0     H37205   3.662   8.592  10.657  1.3128 -0.3257  1.0612
  282MOL0     H37206   2.822   8.531   9.998  3.7553 -0.7667  1.4003
  282MOL0     H37207   2.640   8.589   9.847  0.2096  3.6493  3.1371
  282MOL0     H37208   2.645   8.656   9.213 -0.2447  2.0664 -1.3643
  282MOL0     H37209   2.425   8.697   9.075 -0.9121 -1.4986  0.2163
  282MOL0     H37210   1.638   9.193   7.562 -1.4627  0.0696  3.5257
  282MOL0     H37211   1.567   9.196   7.332 -2.0937  0.1080  0.6819
  282MOL0     H37212   1.470   8.836   6.975 -0.6806  0.4588  0.9721
  282MOL0     H37213   1.401   8.796   6.759 -1.5842  0.1320 -1.9150
  282MOL0     H37214   1.317   8.779   6.552 -1.0034 -1.7118  1.4196
  282MOL0     H37215   1.182   8.831   6.448 -3.0099  1.1724  0.4094
  282MOL0     H37216   1.119   8.707   6.716  0.0415  0.8722  0.0663
  282MOL0     H37217   1.037   8.702   6.561 -1.0689 -2.2391  1.6206
  282MOL0     H37218   1.226   8.574   6.458  0.5480  1.0765  0.0582
  282MOL0     H37219   1.120   8.481   6.559  0.9020 -1.4381 -1.0902
  282MOL0     H37220   1.380   8.608   6.659 -1.7114  1.2440  3.2783
  282MOL0     H37221   1.281   8.488   6.748  1.7164 -2.8243 -0.5308
  282MOL0     H37222   1.483   8.216   6.514  0.5042 -1.2409  1.4891
  282MOL0     H37223   1.098   9.116   6.804 -0.1337 -1.1749 -0.0628
  282MOL0     H37224   1.173   9.155   7.012 -1.1730 -1.3137 -0.0345
  283MOL0     O37225  10.457   3.706   8.041  1.0437  0.1019 -0.3950
  283MOL0     C37226  10.469   3.760   7.933 -0.2178 -0.6688 -0.0163
  283MOL0     O37227  10.375   3.801   7.853 -0.2515  0.0976 -0.4720
  283MOL0     C37228  10.243   3.805   7.888 -0.9468 -0.5967  0.5025
  283MOL0     C37229  10.170   3.927   7.863  0.2316 -0.0342 -0.1277
  283MOL0     C37230  10.030   3.939   7.877 -1.5109  0.6023  0.1473
  283MOL0     C37231   9.966   3.837   7.943  0.3118 -0.7028 -1.1026
  283MOL0     O37232   9.834   3.819   7.986 -0.6361  0.1540  0.8858
  283MOL0     C37233   9.739   3.924   7.958 -1.0737  0.0461  0.3826
  283MOL0     C37234   9.673   3.956   8.093 -0.3741  0.6510  0.5670
  283MOL0     C37235   9.735   4.083   8.165  0.1729  0.4864 -0.3554
  283MOL0     C37236   9.885   4.047   8.205 -0.4276  0.1411  0.2642
  283MOL0     C37237   9.900   3.938   8.310  0.3413  0.0880  0.6833
  283MOL0     C37238  10.046   3.918   8.363 -0.2998  0.9767  0.5363
  283MOL0     C37239  10.143   3.848   8.254  0.9841 -0.8144  0.4558
  283MOL0     C37240  10.289   3.822   8.308 -0.1773  0.4846 -0.0120
  283MOL0     N37241  10.291   3.690   8.386  1.1206 -0.2835 -0.0273
  283MOL0     C37242  10.332   3.567   8.346  0.0863 -0.4939  0.6876
  283MOL0     C37243  10.359   3.505   8.464 -0.1930 -0.3465  0.2495
  283MOL0     C37244  10.411   3.368   8.493  0.0296  0.5700 -0.0735
  283MOL0     C37245  10.463   3.296   8.360  0.5597 -0.2014  0.0488
  283MOL0     C37246  10.553   3.182   8.391  0.0216  0.7981  1.0339
  283MOL0     C37247  10.578   3.098   8.264  0.7264  0.1530  0.8598
  283MOL0     O37248  10.714   3.038   8.261 -0.0940 -0.5118  0.1553
  283MOL0     C37249  10.728   2.944   8.164  0.5974 -0.0325 -0.6458
  283MOL0     C37250  10.806   2.831   8.189  0.4944  0.3567 -0.0930
  283MOL0     C37251  10.801   2.727   8.095 -0.5473  0.6704 -0.4451
  283MOL0     C37252  10.737   2.738   7.973 -0.4447 -0.2951 -0.8227
  283MOL0     C37253  10.737   2.627   7.878 -0.7260  0.1508  0.2920
  283MOL0     O37254  10.707   2.655   7.747 -0.0973  0.8276 -0.2431
  283MOL0     C37255  10.724   2.563   7.651  0.2753  0.5270  0.1070
  283MOL0     C37256  10.618   2.479   7.609 -0.6627 -0.3945  0.9179
  283MOL0     C37257  10.633   2.405   7.495 -0.6735  0.2227 -0.6879
  283MOL0     C37258  10.748   2.408   7.416 -0.3187 -0.1202 -0.2579
  283MOL0     O37259  10.768   2.328   7.310  0.8725  0.6260  0.0053
  283MOL0     C37260  10.676   2.319   7.196 -0.5800 -0.1267 -0.5555
  283MOL0     C37261  10.652   2.461   7.140 -1.1769  0.2436 -0.3342
  283MOL0     C37262  10.535   2.465   7.049  0.8986 -0.3711  0.1206
  283MOL0     C37263  10.399   2.456   7.127 -0.8406  0.4563 -0.5817
  283MOL0     C37264  10.271   2.480   7.036 -0.5119 -0.2564 -0.0395
  283MOL0     C37265  10.139   2.434   7.111  0.2409 -0.2757 -0.1950
  283MOL0     C37266  10.018   2.435   7.018 -0.0946  0.4290  0.4146
  283MOL0     C37267   9.898   2.384   7.091 -0.2654  0.4329 -0.9118
  283MOL0    Cl37268   9.791   2.528   7.102  0.0315  0.1147  0.7802
  283MOL0     C37269  10.853   2.487   7.466 -0.9530  0.4609  0.4987
  283MOL0     C37270  10.838   2.573   7.582 -0.6503 -0.7333  0.0329
  283MOL0     O37271  10.782   2.510   7.910 -1.2341 -1.4507  0.6370
  283MOL0     C37272  10.659   2.858   7.946  0.6805  0.3498 -0.4232
  283MOL0     C37273  10.668   2.964   8.034 -0.3297 -0.8680 -0.2017
  283MOL0     N37274  10.311   3.581   8.570  0.5050  0.4628  0.0391
  283MOL0     N37275  10.281   3.693   8.524 -1.0157 -0.5580 -0.0902
  283MOL0     C37276  10.043   3.729   7.971  0.3152 -0.8619 -0.0911
  283MOL0     C37277  10.169   3.708   7.949  0.2602  0.3666  0.6358
  283MOL0     C37278  10.608   3.789   7.887  0.7097  0.6444  1.6215
  283MOL0     C37279  10.625   3.900   7.804  0.1303 -0.2709 -0.5568
  283MOL0     C37280  10.752   3.932   7.759  0.3001 -0.1098 -0.2927
  283MOL0     C37281  10.866   3.860   7.792  0.2659  0.8308  0.1850
  283MOL0     O37282  10.987   3.865   7.742 -0.1351 -0.2006 -0.7431
  283MOL0     C37283  11.015   3.942   7.626  0.8451 -0.6306  0.4128
  283MOL0     C37284  11.149   3.904   7.550 -0.5501 -0.3108  0.1401
  283MOL0     C37285  11.276   3.926   7.637  0.2989 -1.2398 -0.3750
  283MOL0     C37286  11.388   3.862   7.568 -0.1427  0.6478  0.2637
  283MOL0     C37287  11.514   3.880   7.643  0.4022  0.0048 -0.9969
  283MOL0     C37288  11.623   3.894   7.692  0.9851  0.4604 -0.2096
  283MOL0     C37289  10.851   3.758   7.888 -0.1078 -0.7510  0.1183
  283MOL0     C37290  10.726   3.715   7.931 -0.3008  0.5648  0.5901
  283MOL0     H37291  10.216   4.016   7.821  1.2148  0.6533  2.1986
  283MOL0     H37292   9.974   4.025   7.841 -1.3536  1.2908  1.4862
  283MOL0     H37293   9.682   3.903   7.867 -0.7598 -2.0000  0.6201
  283MOL0     H37294   9.789   4.019   7.937  1.1670 -0.4511  2.9755
  283MOL0     H37295   9.680   3.881   8.172 -0.4984 -0.0291 -0.0638
  283MOL0     H37296   9.568   3.954   8.065 -0.1631  0.6884 -0.2470
  283MOL0     H37297   9.673   4.091   8.254 -0.9988  0.5093 -1.1521
  283MOL0     H37298   9.739   4.178   8.111  3.3018  1.4813  1.3732
  283MOL0     H37299   9.957   4.024   8.126  2.6888  0.2444  2.8611
  283MOL0     H37300   9.926   4.132   8.259 -0.5379 -0.5331  1.4503
  283MOL0     H37301   9.869   3.845   8.262 -0.2065 -0.5381  2.1774
  283MOL0     H37302   9.826   3.966   8.385  0.5811  2.6376  0.0569
  283MOL0     H37303  10.044   3.848   8.447 -0.7025  2.1814  1.5707
  283MOL0     H37304  10.088   4.012   8.400  1.2558  0.8775 -0.8639
  283MOL0     H37305  10.104   3.751   8.223  4.3689 -1.8267 -1.1058
  283MOL0     H37306  10.153   3.915   8.168  1.9351  0.1518  1.2846
  283MOL0     H37307  10.323   3.909   8.364  2.6613  0.9744 -2.2595
  283MOL0     H37308  10.353   3.820   8.220 -0.0269 -2.9081  0.0156
  283MOL0     H37309  10.347   3.540   8.242 -2.5843 -3.1283  0.8720
  283MOL0     H37310  10.324   3.314   8.530 -0.5525  0.0564 -2.0702
  283MOL0     H37311  10.493   3.356   8.566 -0.5647 -3.7182  0.1673
  283MOL0     H37312  10.524   3.362   8.298 -0.4973  0.7312 -0.0192
  283MOL0     H37313  10.380   3.258   8.300  1.3931 -1.7951 -0.1610
  283MOL0     H37314  10.644   3.231   8.427 -0.2828  4.0819 -2.0621
  283MOL0     H37315  10.511   3.124   8.473  0.7054 -0.9419  0.1959
  283MOL0     H37316  10.559   3.158   8.175 -0.5325 -1.3189  0.0845
  283MOL0     H37317  10.503   3.019   8.258  1.4670 -0.4958 -0.3625
  283MOL0     H37318  10.853   2.814   8.285  0.7383  0.2620 -0.2258
  283MOL0     H37319  10.844   2.638   8.140  1.5378  1.6961 -0.2732
  283MOL0     H37320  10.519   2.475   7.654 -1.3781 -2.0259 -0.6450
  283MOL0     H37321  10.560   2.331   7.465  0.0109  0.0722 -2.0927
  283MOL0     H37322  10.583   2.266   7.219  1.2220 -3.8528 -1.2024
  283MOL0     H37323  10.719   2.256   7.118  0.5779 -1.2337  0.9178
  283MOL0     H37324  10.746   2.489   7.092 -1.4260  0.8193 -0.4959
  283MOL0     H37325  10.654   2.536   7.219  1.3217 -2.9110  2.9637
  283MOL0     H37326  10.530   2.399   6.961 -3.8437 -0.1540 -0.0484
  283MOL0     H37327  10.526   2.566   7.008 -0.0482 -0.5252 -0.0685
  283MOL0     H37328  10.402   2.359   7.178 -1.3854 -0.4509 -2.1964
  283MOL0     H37329  10.392   2.513   7.220  2.2805 -1.7167  1.1682
  283MOL0     H37330  10.285   2.425   6.942 -1.6587  2.1565 -1.7145
  283MOL0     H37331  10.262   2.585   7.007 -1.7413 -0.6106 -0.9733
  283MOL0     H37332  10.107   2.511   7.182  0.9627  0.0436 -0.2065
  283MOL0     H37333  10.149   2.338   7.163  2.1350 -0.6256 -1.1394
  283MOL0     H37334   9.998   2.537   6.983 -4.4504 -0.3173  0.2153
  283MOL0     H37335  10.032   2.363   6.937 -1.0897 -0.3845  0.9539
  283MOL0     H37336   9.913   2.351   7.194 -0.7012  0.7597 -0.7393
  283MOL0     H37337   9.842   2.311   7.032 -0.4460  1.1933 -1.7109
  283MOL0     H37338  10.949   2.504   7.418 -0.7969  3.6467  1.7443
  283MOL0     H37339  10.913   2.644   7.617 -2.2526  1.3131 -0.4691
  283MOL0     H37340  10.609   2.859   7.850 -1.7725 -0.7372  0.7565
  283MOL0     H37341  10.622   3.060   8.017 -2.2777 -1.2378  2.4302
  283MOL0     H37342   9.990   3.651   8.025 -0.9599  0.2353  0.3026
  283MOL0     H37343  10.234   3.624   7.974  0.2933  1.1691  3.5746
  283MOL0     H37344  10.533   3.955   7.785 -1.9656 -2.1908  3.0146
  283MOL0     H37345  10.777   4.013   7.691  2.9414 -0.3609  0.2672
  283MOL0     H37346  11.012   4.051   7.639 -3.4894 -0.7518  2.2368
  283MOL0     H37347  10.935   3.914   7.556  0.3980  0.2074  0.5738
  283MOL0     H37348  11.142   3.801   7.513  0.3483 -0.5391  0.5654
  283MOL0     H37349  11.149   3.969   7.462 -1.5879 -0.6917 -0.1606
  283MOL0     H37350  11.246   3.885   7.733 -2.1404  1.2335  0.0467
  283MOL0     H37351  11.289   4.032   7.663  0.8838 -1.9486  2.5724
  283MOL0     H37352  11.376   3.754   7.554 -0.6790  0.7320  0.0344
  283MOL0     H37353  11.401   3.901   7.466  0.7622 -0.1907  0.0378
  283MOL0     H37354  11.702   3.899   7.764  0.1951  0.7801  0.6635
  283MOL0     H37355  10.943   3.703   7.911  0.5544  0.4498  0.4118
  283MOL0     H37356  10.695   3.632   7.995 -4.2182  1.6368  0.3649
  284MOL0     O37357   0.706   7.283   1.983  0.0719 -0.4526  0.2982
  284MOL0     C37358   0.650   7.214   1.900  0.6739  0.1032  0.2777
  284MOL0     O37359   0.525   7.170   1.913  1.1616 -1.4100 -0.6290
  284MOL0     C37360   0.460   7.181   2.040 -0.3075 -0.5128  0.4135
  284MOL0     C37361   0.347   7.252   2.049  0.8479  0.2559  0.7402
  284MOL0     C37362   0.268   7.252   2.162 -0.0421 -0.6457 -0.7642
  284MOL0     C37363   0.311   7.194   2.280 -0.0327  0.9779 -0.1175
  284MOL0     O37364   0.263   7.200   2.408  0.3108 -0.5755 -0.6179
  284MOL0     C37365   0.119   7.223   2.419  0.6191 -0.3234  0.0184
  284MOL0     C37366   0.061   7.138   2.538  0.2530  0.2616  0.6715
  284MOL0     C37367  -0.042   7.211   2.599  0.6665  0.0745  0.7383
  284MOL0     C37368  -0.109   7.095   2.686 -0.0407 -0.6836 -0.1992
  284MOL0     C37369  -0.236   7.144   2.760 -0.5883  0.3733  0.6230
  284MOL0     C37370  -0.192   7.247   2.864  0.6172  0.1978  0.1244
  284MOL0     C37371  -0.325   7.273   2.942  0.5174  0.4054  1.5220
  284MOL0     C37372  -0.326   7.391   3.041  0.4987 -0.1512  0.2055
  284MOL0     N37373  -0.258   7.354   3.160 -1.1009 -0.7379 -0.4236
  284MOL0     C37374  -0.134   7.409   3.194  0.9153  0.6321 -0.1990
  284MOL0     C37375  -0.099   7.347   3.311 -0.4919  0.4124 -0.3829
  284MOL0     C37376   0.011   7.385   3.397 -0.0647 -0.2776 -0.3990
  284MOL0     C37377  -0.036   7.462   3.521  0.4449 -0.1981 -0.0501
  284MOL0     C37378  -0.107   7.604   3.484  0.0751  0.2844  0.5910
  284MOL0     C37379  -0.263   7.605   3.455 -0.3351 -0.0188 -0.6431
  284MOL0     O37380  -0.298   7.744   3.481  0.0235 -0.0702 -0.0660
  284MOL0     C37381  -0.420   7.778   3.444  0.0609  0.0597  0.2923
  284MOL0     C37382  -0.503   7.686   3.376 -0.8156  0.4677 -0.3738
  284MOL0     C37383  -0.620   7.742   3.330  0.9555  0.3825  0.7317
  284MOL0     C37384  -0.659   7.875   3.350  0.9355  0.6525 -0.4667
  284MOL0     C37385  -0.783   7.943   3.299 -0.1392 -0.4357  0.4787
  284MOL0     O37386  -0.822   8.064   3.358 -0.0631 -0.3411 -0.1029
  284MOL0     C37387  -0.942   8.130   3.333  0.1128 -0.0401  0.8862
  284MOL0     C37388  -0.998   8.211   3.433  0.5396 -0.5806 -0.0004
  284MOL0     C37389  -1.112   8.289   3.402  0.6910  0.4559  0.9588
  284MOL0     C37390  -1.168   8.283   3.275  0.9236  0.2412 -0.0103
  284MOL0     O37391  -1.284   8.348   3.231 -0.6583  0.2744 -0.3287
  284MOL0     C37392  -1.343   8.440   3.323 -0.2211 -0.2490  0.2559
  284MOL0     C37393  -1.421   8.542   3.240 -0.0935 -1.0597 -0.3443
  284MOL0     C37394  -1.481   8.655   3.316 -0.1240  1.1187 -0.0321
  284MOL0     C37395  -1.560   8.761   3.240 -0.6910  0.1615  0.4349
  284MOL0     C37396  -1.647   8.838   3.327  0.7690 -0.5698 -0.2165
  284MOL0     C37397  -1.722   8.953   3.256  0.2866 -0.9823  0.5704
  284MOL0     C37398  -1.849   8.995   3.321 -0.0992 -0.4733  0.6694
  284MOL0     C37399  -1.837   9.005   3.473  0.5771  1.0623 -0.1047
  284MOL0    Cl37400  -1.967   9.075   3.556  0.3985 -0.1634 -0.1894
  284MOL0     C37401  -1.119   8.191   3.180 -0.9515 -0.9582  0.0264
  284MOL0     C37402  -1.002   8.120   3.214 -0.2650  0.6198  0.3240
  284MOL0     O37403  -0.851   7.881   3.212  0.1647  0.4228 -0.2358
  284MOL0     C37404  -0.580   7.946   3.443  0.9463  0.2969 -0.0867
  284MOL0     C37405  -0.458   7.903   3.488  0.5021 -0.3685 -0.3390
  284MOL0     N37406  -0.193   7.256   3.351 -0.1767  1.0250 -0.1521
  284MOL0     N37407  -0.295   7.267   3.266 -0.7972 -0.4235  1.1776
  284MOL0     C37408   0.423   7.110   2.266  0.1849 -0.1304 -0.3765
  284MOL0     C37409   0.491   7.096   2.148 -0.5303  0.2206 -0.4407
  284MOL0     C37410   0.712   7.213   1.768  0.4044 -0.4872  0.5789
  284MOL0     C37411   0.845   7.238   1.757 -0.3553 -0.4117 -0.7775
  284MOL0     C37412   0.910   7.222   1.638 -1.3040 -0.0485  0.2390
  284MOL0     C37413   0.852   7.172   1.522  0.6788  0.6503 -0.7590
  284MOL0     O37414   0.930   7.149   1.411 -0.1337  0.0297  0.1282
  284MOL0     C37415   0.867   7.082   1.297  0.9140  0.8674  0.5346
  284MOL0     C37416   0.977   7.020   1.205  0.6004  0.5829 -0.9264
  284MOL0     C37417   1.077   7.134   1.163  0.1557 -0.2637  0.0378
  284MOL0     C37418   1.191   7.081   1.075  0.0486  0.7319 -0.4722
  284MOL0     C37419   1.269   7.195   1.021 -1.0260 -0.2739 -0.0488
  284MOL0     C37420   1.322   7.290   0.968 -0.0494  0.0541 -0.4072
  284MOL0     C37421   0.717   7.132   1.525  1.0884  0.1940 -0.4147
  284MOL0     C37422   0.648   7.146   1.652  0.0621 -1.0004 -0.2637
  284MOL0     H37423   0.326   7.296   1.952  0.6875  0.1261  0.7156
  284MOL0     H37424   0.188   7.325   2.166 -0.5461 -1.1531 -1.4890
  284MOL0     H37425   0.076   7.193   2.323  0.5062  1.5593 -0.5661
  284MOL0     H37426   0.091   7.327   2.436 -2.1627 -1.0334  0.3507
  284MOL0     H37427   0.151   7.123   2.598  1.3130 -0.7708 -1.0850
  284MOL0     H37428   0.034   7.037   2.505  1.6229 -0.2273  0.9766
  284MOL0     H37429  -0.114   7.261   2.534  2.4110  0.8462 -0.6876
  284MOL0     H37430   0.004   7.292   2.657  0.6203  1.2173 -0.7495
  284MOL0     H37431  -0.146   7.017   2.619 -2.5973  0.7550 -0.5880
  284MOL0     H37432  -0.045   7.036   2.751 -0.3167 -4.0075 -2.6444
  284MOL0     H37433  -0.284   7.055   2.803 -5.1892  2.3212  0.1269
  284MOL0     H37434  -0.317   7.182   2.697 -0.9405  0.3451  1.0508
  284MOL0     H37435  -0.162   7.345   2.826  0.6364  1.7748  3.8118
  284MOL0     H37436  -0.102   7.214   2.917  1.6441 -1.4316 -2.4223
  284MOL0     H37437  -0.395   7.310   2.866  2.3148 -0.4234 -0.6682
  284MOL0     H37438  -0.376   7.185   2.982 -0.1640 -0.0293 -0.2159
  284MOL0     H37439  -0.426   7.421   3.074  0.6848 -0.0893  0.7313
  284MOL0     H37440  -0.293   7.480   2.988 -2.5207  0.9552 -0.0106
  284MOL0     H37441  -0.079   7.480   3.133  0.1572  2.0317  0.6992
  284MOL0     H37442   0.071   7.453   3.335  0.2781  1.6459  1.8720
  284MOL0     H37443   0.077   7.301   3.419  1.7553  0.4848 -2.5108
  284MOL0     H37444   0.059   7.498   3.561 -0.7960  3.6237 -0.1781
  284MOL0     H37445  -0.071   7.398   3.603  1.5019  1.1711  1.5302
  284MOL0     H37446  -0.090   7.665   3.573  0.6742 -1.1477  1.4945
  284MOL0     H37447  -0.059   7.652   3.398  2.3152  3.1374  3.1772
  284MOL0     H37448  -0.302   7.535   3.530 -0.2680 -0.9781 -1.4755
  284MOL0     H37449  -0.271   7.566   3.353 -1.4225  0.0984 -0.6139
  284MOL0     H37450  -0.484   7.582   3.355 -1.0568  0.3620 -0.0706
  284MOL0     H37451  -0.690   7.681   3.275  1.3445 -1.6663  2.3919
  284MOL0     H37452  -0.959   8.215   3.534  2.5850 -2.9993 -0.5985
  284MOL0     H37453  -1.161   8.334   3.487  0.8518 -2.3996  2.6876
  284MOL0     H37454  -1.264   8.488   3.382  0.3914 -2.3461  1.2151
  284MOL0     H37455  -1.411   8.394   3.395  0.0988  1.1952  1.5366
  284MOL0     H37456  -1.510   8.496   3.196 -2.2441  1.7122  0.7807
  284MOL0     H37457  -1.346   8.583   3.171 -1.6486 -1.1233 -2.1783
  284MOL0     H37458  -1.390   8.692   3.364  1.5561 -1.8989 -0.6467
  284MOL0     H37459  -1.535   8.598   3.393 -0.8235  1.1803 -0.4719
  284MOL0     H37460  -1.497   8.820   3.173 -2.4805 -0.2779 -1.7647
  284MOL0     H37461  -1.634   8.711   3.176 -3.0321 -0.4543  3.4103
  284MOL0     H37462  -1.598   8.870   3.420  0.5400 -1.7352  0.3274
  284MOL0     H37463  -1.727   8.772   3.363  1.0652 -0.5602  0.4865
  284MOL0     H37464  -1.757   8.913   3.161 -1.0636  0.3760  0.4596
  284MOL0     H37465  -1.651   9.034   3.232 -0.5012 -0.0238  1.3871
  284MOL0     H37466  -1.872   9.093   3.278 -2.2106 -1.2836 -0.2194
  284MOL0     H37467  -1.936   8.930   3.307 -1.5710  1.8690 -2.0895
  284MOL0     H37468  -1.743   9.053   3.503  1.0993  1.1828 -1.8478
  284MOL0     H37469  -1.828   8.902   3.507  2.1574  1.2382  0.0870
  284MOL0     H37470  -1.180   8.190   3.090  1.4839 -0.0029 -1.7515
  284MOL0     H37471  -0.955   8.068   3.132 -0.8506  0.1525  0.2832
  284MOL0     H37472  -0.599   8.049   3.468  2.0685  0.8173 -1.2526
  284MOL0     H37473  -0.393   7.974   3.538 -1.8495  1.4394  0.3832
  284MOL0     H37474   0.457   7.061   2.357  1.7306  0.9507 -0.3270
  284MOL0     H37475   0.579   7.036   2.129 -0.3871  0.5997 -0.9791
  284MOL0     H37476   0.903   7.272   1.842  1.8050 -0.5521 -2.1295
  284MOL0     H37477   1.013   7.252   1.626 -1.4949  0.9799  0.9892
  284MOL0     H37478   0.814   7.156   1.236  0.1791 -0.7579 -0.8593
  284MOL0     H37479   0.803   7.000   1.330 -0.2127  0.9070 -1.4338
  284MOL0     H37480   1.032   6.943   1.258 -0.8611 -0.7013 -1.2140
  284MOL0     H37481   0.932   6.977   1.114  2.5423 -2.8757 -0.3959
  284MOL0     H37482   1.121   7.177   1.254 -1.6044  1.0206  0.3364
  284MOL0     H37483   1.017   7.203   1.102 -1.2048 -2.3724 -1.1282
  284MOL0     H37484   1.252   7.015   1.138  1.4457  2.4128  0.0153
  284MOL0     H37485   1.161   7.017   0.991  2.7099 -1.8367  0.3557
  284MOL0     H37486   1.369   7.362   0.904  0.8264 -1.5645 -1.6621
  284MOL0     H37487   0.650   7.107   1.443  1.0396  0.3072 -0.4110
  284MOL0     H37488   0.549   7.102   1.663 -1.5798  2.6468  1.2540
  285MOL0     O37489   9.067   7.762   4.396  0.7556 -0.4469  0.0256
  285MOL0     C37490   9.018   7.822   4.295 -0.2224  0.1336 -0.9750
  285MOL0     O37491   8.906   7.903   4.294 -0.5255  0.5284 -1.0825
  285MOL0     C37492   8.834   7.886   4.417  0.2992  0.1173  1.1344
  285MOL0     C37493   8.733   7.792   4.429  0.2105 -0.2297 -0.5571
  285MOL0     C37494   8.688   7.767   4.559  0.2067 -1.0775 -0.3980
  285MOL0     C37495   8.711   7.853   4.661  0.0161 -0.1276  0.8883
  285MOL0     O37496   8.652   7.826   4.780 -0.1191  0.4432 -0.2714
  285MOL0     C37497   8.698   7.908   4.891  0.5403  0.1334 -0.0442
  285MOL0     C37498   8.679   7.834   5.019  1.1801  0.6094  0.3808
  285MOL0     C37499   8.727   7.905   5.139  0.1575  0.4226  0.6585
  285MOL0     C37500   8.704   7.817   5.265 -0.8771 -0.4445  0.2228
  285MOL0     C37501   8.762   7.880   5.392 -0.0104 -0.2609 -0.5362
  285MOL0     C37502   8.751   7.783   5.511 -0.9324  0.5097  0.3052
  285MOL0     C37503   8.613   7.727   5.552  1.0231 -0.2226  0.8895
  285MOL0     C37504   8.616   7.703   5.704  0.0962  0.4607 -0.6727
  285MOL0     N37505   8.477   7.670   5.748  0.1712  0.1863  0.3100
  285MOL0     C37506   8.466   7.614   5.867  0.2435 -0.3768 -0.4579
  285MOL0     C37507   8.329   7.587   5.887 -0.2866  0.1079  0.3097
  285MOL0     C37508   8.270   7.536   6.018  0.5016 -0.2372 -0.2586
  285MOL0     C37509   8.293   7.623   6.140  0.1851  0.2943 -0.0689
  285MOL0     C37510   8.210   7.595   6.266 -0.6742 -0.1356 -0.1867
  285MOL0     C37511   8.239   7.708   6.371  0.2745 -0.3360  0.7292
  285MOL0     O37512   8.194   7.832   6.316  0.1830 -0.2093  0.0042
  285MOL0     C37513   8.063   7.868   6.332 -0.9569  0.0947 -0.5476
  285MOL0     C37514   8.033   7.985   6.277  0.6015 -0.6764 -0.2501
  285MOL0     C37515   7.909   8.052   6.287  0.2619 -0.0211  0.1561
  285MOL0     C37516   7.815   7.985   6.364  0.3758 -0.2751 -0.8779
  285MOL0     C37517   7.686   8.054   6.376  0.7819 -0.2002  0.1210
  285MOL0     O37518   7.613   8.039   6.485 -0.2254  0.0544 -0.3407
  285MOL0     C37519   7.501   8.120   6.526  0.1208  0.1473 -0.6473
  285MOL0     C37520   7.455   8.246   6.485  0.0914  0.1661 -0.6170
  285MOL0     C37521   7.336   8.304   6.532 -0.4792 -0.0063  0.0699
  285MOL0     C37522   7.252   8.245   6.634 -0.5530  0.0292  0.4959
  285MOL0     O37523   7.140   8.307   6.689  0.2973 -0.4276  0.1779
  285MOL0     C37524   7.131   8.448   6.663  0.2512 -0.2080  0.3659
  285MOL0     C37525   7.001   8.493   6.726  1.3734 -0.7487 -0.2057
  285MOL0     C37526   7.025   8.509   6.878  1.1556  0.4398  0.2569
  285MOL0     C37527   6.895   8.570   6.941 -0.3213  0.3346 -0.0280
  285MOL0     C37528   6.892   8.563   7.098 -0.0671 -0.2027 -0.0144
  285MOL0     C37529   7.016   8.616   7.160  0.5543  0.3592  1.2020
  285MOL0     C37530   7.034   8.766   7.137  0.3429 -0.5068  0.1827
  285MOL0     C37531   7.183   8.822   7.158  0.7969 -0.0626 -0.4470
  285MOL0    Cl37532   7.167   9.002   7.148 -0.3337  0.3359  0.1228
  285MOL0     C37533   7.297   8.119   6.669  0.6330 -0.5837  0.0620
  285MOL0     C37534   7.419   8.055   6.625 -0.1911 -0.4145 -0.0382
  285MOL0     O37535   7.653   8.126   6.278 -1.0228  0.1838  0.0002
  285MOL0     C37536   7.836   7.851   6.421  0.3106 -0.4985 -0.3416
  285MOL0     C37537   7.964   7.792   6.401 -0.0873 -0.0487  0.4033
  285MOL0     N37538   8.263   7.632   5.769  0.0660 -0.5493  0.4592
  285MOL0     N37539   8.359   7.671   5.689 -0.8506  0.2185  0.0328
  285MOL0     C37540   8.801   7.962   4.642 -0.0482 -0.2342 -0.7629
  285MOL0     C37541   8.873   7.967   4.521 -0.1248 -0.3506 -1.2233
  285MOL0     C37542   9.083   7.811   4.159 -0.6733  0.2211  0.6247
  285MOL0     C37543   9.015   7.826   4.037 -0.5359  0.0825 -0.6719
  285MOL0     C37544   9.088   7.832   3.925  0.3743 -0.0309 -1.0846
  285MOL0     C37545   9.229   7.813   3.925  0.4052  0.0848  0.9247
  285MOL0     O37546   9.315   7.797   3.811 -0.1101  0.1610  0.2649
  285MOL0     C37547   9.263   7.780   3.683 -0.0953 -0.0948  0.7389
  285MOL0     C37548   9.375   7.732   3.600  0.4181 -0.4681  0.3906
  285MOL0     C37549   9.413   7.585   3.610 -0.7064  0.6635 -0.5759
  285MOL0     C37550   9.514   7.561   3.726 -0.6533  0.4228 -0.6202
  285MOL0     C37551   9.648   7.616   3.689 -0.7011 -0.2936 -0.1477
  285MOL0     C37552   9.762   7.661   3.658  0.9677  0.2709 -0.1865
  285MOL0     C37553   9.299   7.804   4.046 -0.0752 -0.6500 -0.0073
  285MOL0     C37554   9.218   7.800   4.164  0.3132 -0.3296 -0.0717
  285MOL0     H37555   8.701   7.726   4.350  3.3762 -0.3701 -1.8886
  285MOL0     H37556   8.623   7.682   4.575 -3.4569  1.4679 -0.4561
  285MOL0     H37557   8.635   7.997   4.881 -1.5843 -1.3148 -0.2635
  285MOL0     H37558   8.804   7.934   4.885  0.5774 -0.1839 -0.8633
  285MOL0     H37559   8.709   7.729   5.023  1.6138  0.7453  0.8701
  285MOL0     H37560   8.572   7.810   5.015  1.6110 -1.8993 -5.0557
  285MOL0     H37561   8.681   8.004   5.149 -0.6906  0.0651  0.3394
  285MOL0     H37562   8.836   7.913   5.139  0.0737  1.8897  1.1526
  285MOL0     H37563   8.598   7.793   5.273 -0.0316 -4.3411  2.1357
  285MOL0     H37564   8.767   7.728   5.254 -0.6248 -0.2848  0.3779
  285MOL0     H37565   8.716   7.973   5.425  3.4341  1.1547  0.6526
  285MOL0     H37566   8.865   7.909   5.371 -0.9016  2.8011 -1.2027
  285MOL0     H37567   8.795   7.841   5.592 -0.2679  3.0582 -1.7631
  285MOL0     H37568   8.818   7.702   5.482 -1.6300  1.4754 -5.1020
  285MOL0     H37569   8.531   7.797   5.531  1.1612  0.2258  1.7840
  285MOL0     H37570   8.604   7.631   5.501  1.3785  0.4034 -0.3996
  285MOL0     H37571   8.642   7.795   5.758 -2.5181  0.5961  0.4950
  285MOL0     H37572   8.671   7.614   5.739 -1.6458  0.3208  2.0337
  285MOL0     H37573   8.542   7.592   5.940 -2.7582  1.6758  3.7069
  285MOL0     H37574   8.309   7.437   6.041  0.7828 -0.4944 -1.6973
  285MOL0     H37575   8.161   7.533   6.009  0.5527  0.5897 -1.5746
  285MOL0     H37576   8.280   7.726   6.105 -1.1462 -0.0302 -0.5616
  285MOL0     H37577   8.396   7.631   6.176 -0.0036 -0.0656  0.5621
  285MOL0     H37578   8.102   7.593   6.253 -0.5068 -1.7901 -1.7716
  285MOL0     H37579   8.238   7.497   6.307  5.5840  1.3711  0.1729
  285MOL0     H37580   8.343   7.717   6.403  0.8510 -1.3527 -0.7353
  285MOL0     H37581   8.190   7.685   6.466 -0.5943 -0.1850  0.3315
  285MOL0     H37582   8.117   8.036   6.231 -1.1791  2.8675  0.0793
  285MOL0     H37583   7.884   8.153   6.259  0.8729 -0.1009 -0.7276
  285MOL0     H37584   7.501   8.297   6.401 -1.0806  3.4197  0.5856
  285MOL0     H37585   7.320   8.408   6.508  0.0457 -0.6606 -3.8022
  285MOL0     H37586   7.133   8.467   6.556 -3.0845  0.9128  0.4012
  285MOL0     H37587   7.221   8.484   6.714  0.3868  0.4617 -0.3352
  285MOL0     H37588   6.920   8.420   6.712 -1.2270  1.3381  2.7256
  285MOL0     H37589   6.971   8.588   6.683  0.3465 -0.1058  1.7904
  285MOL0     H37590   7.100   8.583   6.907  0.8394 -0.1830  2.8760
  285MOL0     H37591   7.046   8.409   6.916  0.5500 -1.0813 -3.0405
  285MOL0     H37592   6.879   8.672   6.905  0.5288  0.4441 -0.1298
  285MOL0     H37593   6.808   8.510   6.915  0.2000 -0.2763 -0.4122
  285MOL0     H37594   6.887   8.459   7.132  1.9959  0.4259  2.4796
  285MOL0     H37595   6.798   8.606   7.132  0.8811  1.4496  0.6203
  285MOL0     H37596   7.096   8.554   7.117  0.1387  0.4845  0.2304
  285MOL0     H37597   7.022   8.605   7.269 -1.4776  2.1494  1.5674
  285MOL0     H37598   7.010   8.797   7.034  0.6284 -2.5204 -0.5223
  285MOL0     H37599   6.966   8.810   7.210  0.4960 -1.0327  0.6436
  285MOL0     H37600   7.250   8.787   7.079 -1.2639 -0.0659 -2.2518
  285MOL0     H37601   7.242   8.800   7.248  1.9703  2.0626 -0.6192
  285MOL0     H37602   7.246   8.068   6.750 -1.2554  0.0605 -0.6847
  285MOL0     H37603   7.436   7.955   6.665 -4.2544 -0.8392  1.0046
  285MOL0     H37604   7.755   7.803   6.476 -1.4897  1.7417 -0.8846
  285MOL0     H37605   7.989   7.695   6.442 -0.3392 -0.1853  0.2397
  285MOL0     H37606   8.835   8.046   4.702  2.0355 -2.6807  1.7447
  285MOL0     H37607   8.948   8.043   4.501  2.8458 -3.1102 -1.5856
  285MOL0     H37608   8.907   7.836   4.032 -0.5988 -0.1398  0.2301
  285MOL0     H37609   9.022   7.845   3.840  0.3674 -1.9174 -1.4188
  285MOL0     H37610   9.234   7.870   3.628  2.2867 -0.4767 -1.2739
  285MOL0     H37611   9.186   7.702   3.680 -1.2047  0.9719  0.7056
  285MOL0     H37612   9.340   7.734   3.497 -0.2169  4.1295  0.5167
  285MOL0     H37613   9.458   7.802   3.616  0.3651 -0.5645  1.1159
  285MOL0     H37614   9.471   7.561   3.520  0.3425 -2.1276  0.7396
  285MOL0     H37615   9.333   7.512   3.619 -0.8607  1.0288  1.6677
  285MOL0     H37616   9.474   7.598   3.821 -3.4986  0.0304 -1.5598
  285MOL0     H37617   9.519   7.452   3.733 -0.1039  0.4143 -1.0526
  285MOL0     H37618   9.862   7.685   3.627 -0.1380  5.3089 -0.8259
  285MOL0     H37619   9.408   7.801   4.047 -0.0997 -2.7966 -0.4094
  285MOL0     H37620   9.260   7.780   4.262 -0.7907  1.6162  0.8755
  286MOL0     O37621   6.388   6.527  10.981  0.4016  0.3698 -0.6440
  286MOL0     C37622   6.341   6.558  10.868 -0.1317  0.9090 -0.3576
  286MOL0     O37623   6.328   6.473  10.751 -0.4557  0.0244 -0.6953
  286MOL0     C37624   6.395   6.353  10.738  0.0739  0.5439  0.6453
  286MOL0     C37625   6.353   6.280  10.628 -0.0707  0.8555 -0.0177
  286MOL0     C37626   6.401   6.152  10.608 -0.6158 -0.5586  0.3594
  286MOL0     C37627   6.498   6.096  10.683  0.3637 -0.6886  0.2886
  286MOL0     O37628   6.535   5.967  10.645  0.3508 -0.4374 -0.8122
  286MOL0     C37629   6.439   5.856  10.681 -0.1881 -0.1334 -0.4766
  286MOL0     C37630   6.447   5.822  10.835 -0.2522  0.6511  0.2708
  286MOL0     C37631   6.583   5.754  10.870 -0.0787 -0.4013  0.1969
  286MOL0     C37632   6.575   5.698  11.016 -0.1846 -0.4352  0.2441
  286MOL0     C37633   6.497   5.568  11.016  0.2711 -0.3135 -0.4048
  286MOL0     C37634   6.489   5.508  11.158 -0.4260 -0.0550  0.2174
  286MOL0     C37635   6.436   5.365  11.170  0.1570 -0.2653  0.3637
  286MOL0     C37636   6.552   5.269  11.130 -0.4528  0.2358  0.7780
  286MOL0     N37637   6.514   5.161  11.031  0.2106  0.2010 -0.6898
  286MOL0     C37638   6.411   5.062  11.058 -0.7838 -0.1266 -0.6692
  286MOL0     C37639   6.391   5.001  10.936 -0.5664 -1.0357 -0.4107
  286MOL0     C37640   6.296   4.890  10.904 -0.2860 -0.6616  0.4110
  286MOL0     C37641   6.307   4.767  10.992 -0.8462  0.0683 -0.0127
  286MOL0     C37642   6.459   4.713  10.982  0.9167 -0.5062 -1.1493
  286MOL0     C37643   6.484   4.576  11.043 -1.0595 -0.1535 -0.7413
  286MOL0     O37644   6.389   4.473  11.019  0.0206 -1.1363 -0.8772
  286MOL0     C37645   6.430   4.345  11.067 -1.1605 -0.5416 -0.0895
  286MOL0     C37646   6.509   4.319  11.178  0.7574 -0.3583 -1.1905
  286MOL0     C37647   6.546   4.184  11.218  0.2282 -0.3841  0.0011
  286MOL0     C37648   6.516   4.075  11.135 -0.2105 -0.7372  1.0216
  286MOL0     C37649   6.539   3.938  11.181 -1.1178 -0.0727 -0.0588
  286MOL0     O37650   6.474   3.848  11.104 -0.0029  0.0588  0.9064
  286MOL0     C37651   6.452   3.711  11.142  0.3962  0.8150 -1.0356
  286MOL0     C37652   6.348   3.638  11.071 -0.9591 -0.4912 -0.0823
  286MOL0     C37653   6.303   3.508  11.108 -0.4643 -0.9662 -0.5228
  286MOL0     C37654   6.358   3.450  11.211 -0.4183  0.2675  1.0329
  286MOL0     O37655   6.312   3.329  11.258  0.1633 -0.1354  0.7689
  286MOL0     C37656   6.294   3.221  11.167  0.0586 -0.1075  0.2265
  286MOL0     C37657   6.214   3.114  11.242  0.5226  0.8848 -0.2198
  286MOL0     C37658   6.175   3.006  11.144 -0.0356  0.2236 -1.4068
  286MOL0     C37659   6.093   2.898  11.223  0.1869  0.0594 -0.1181
  286MOL0     C37660   6.053   2.780  11.128 -0.5156  0.7878 -0.1244
  286MOL0     C37661   6.037   2.647  11.210  0.7204  0.1692 -0.1866
  286MOL0     C37662   6.032   2.527  11.117  0.0975 -0.8601 -0.1931
  286MOL0     C37663   5.897   2.507  11.039 -0.6726 -0.0437  0.0249
  286MOL0    Cl37664   5.767   2.451  11.156 -0.0014  0.4393 -0.4249
  286MOL0     C37665   6.464   3.506  11.282  0.6928 -0.0229  0.5271
  286MOL0     C37666   6.504   3.640  11.251  0.0543 -0.5253 -0.3286
  286MOL0     O37667   6.610   3.913  11.272 -0.4339 -0.3155 -0.7245
  286MOL0     C37668   6.447   4.113  11.016  0.3287  0.3772 -0.3429
  286MOL0     C37669   6.398   4.235  10.985 -0.2422 -0.0614 -0.2336
  286MOL0     N37670   6.463   5.079  10.832  0.6118 -0.2985 -0.2500
  286MOL0     N37671   6.543   5.158  10.898  0.3200 -0.2514 -0.3842
  286MOL0     C37672   6.546   6.161  10.789  0.5062 -0.0075  0.3339
  286MOL0     C37673   6.494   6.290  10.822 -0.3858 -0.3878 -0.1921
  286MOL0     C37674   6.277   6.687  10.856 -0.0400 -0.2667 -0.0477
  286MOL0     C37675   6.265   6.746  10.721 -1.2599 -0.2669 -0.5842
  286MOL0     C37676   6.203   6.865  10.704 -0.5810 -0.1187 -0.5707
  286MOL0     C37677   6.165   6.942  10.811  0.9212  0.1647  0.2788
  286MOL0     O37678   6.115   7.069  10.805  0.2784  0.5182 -0.3291
  286MOL0     C37679   6.144   7.148  10.685  0.8964  0.2937 -0.3985
  286MOL0     C37680   6.094   7.297  10.707 -0.3730  0.2105 -0.6903
  286MOL0     C37681   6.165   7.374  10.817 -0.1678 -0.5107 -0.7386
  286MOL0     C37682   6.097   7.509  10.828 -0.0000  0.0143 -0.2397
  286MOL0     C37683   6.182   7.608  10.899  0.2931  0.0208 -0.7142
  286MOL0     C37684   6.238   7.688  10.973 -0.6878  1.5450  1.5152
  286MOL0     C37685   6.177   6.887  10.948  0.4152 -0.6313 -0.5736
  286MOL0     C37686   6.228   6.756  10.964 -0.3912  0.0507  0.0050
  286MOL0     H37687   6.287   6.329  10.557 -0.9789 -3.7578 -2.7424
  286MOL0     H37688   6.371   6.097  10.519  0.5406  0.9497 -1.0454
  286MOL0     H37689   6.446   5.775  10.608  0.7877 -1.0299  0.5805
  286MOL0     H37690   6.335   5.887  10.670 -0.9827 -1.9308  1.3811
  286MOL0     H37691   6.370   5.746  10.850  1.9071 -3.2249 -4.8859
  286MOL0     H37692   6.423   5.910  10.894 -0.7212  0.2451  0.6884
  286MOL0     H37693   6.657   5.833  10.854  0.8388 -0.6187  2.8238
  286MOL0     H37694   6.608   5.675  10.799  1.5719  0.5996 -0.3892
  286MOL0     H37695   6.673   5.674  11.058  0.3472 -0.5062 -0.9996
  286MOL0     H37696   6.523   5.765  11.085  2.0805  1.9910 -0.2605
  286MOL0     H37697   6.546   5.497  10.949 -0.6773 -1.6695  0.3116
  286MOL0     H37698   6.397   5.585  10.974  0.5123  1.4329 -0.3365
  286MOL0     H37699   6.424   5.566  11.225  1.8021 -2.3182  4.8617
  286MOL0     H37700   6.581   5.509  11.218  0.7382 -0.0918 -1.5160
  286MOL0     H37701   6.390   5.354  11.269 -1.8378  1.6799 -0.2685
  286MOL0     H37702   6.361   5.349  11.091  2.2740  1.6502 -2.2154
  286MOL0     H37703   6.598   5.224  11.218 -0.0676 -0.0760  0.4237
  286MOL0     H37704   6.629   5.330  11.081  1.6295 -1.9330  1.1467
  286MOL0     H37705   6.373   5.038  11.157  5.0148 -1.6069  1.5902
  286MOL0     H37706   6.303   4.862  10.799 -0.5533 -1.2296  0.5416
  286MOL0     H37707   6.198   4.939  10.909  0.1694  0.1628  1.9014
  286MOL0     H37708   6.237   4.689  10.958  2.0337 -2.4447 -0.6047
  286MOL0     H37709   6.285   4.787  11.097 -2.1694 -3.1008  0.4498
  286MOL0     H37710   6.493   4.708  10.878  3.1260 -1.3444 -0.4433
  286MOL0     H37711   6.514   4.781  11.048  0.8664 -2.5710  1.1694
  286MOL0     H37712   6.480   4.594  11.151  1.7395 -0.0304 -0.5778
  286MOL0     H37713   6.586   4.536  11.032  0.5922  4.1018 -3.7892
  286MOL0     H37714   6.548   4.399  11.240 -2.6951  0.6561 -0.0941
  286MOL0     H37715   6.608   4.161  11.305  0.9891  1.9488  0.1621
  286MOL0     H37716   6.302   3.679  10.981 -1.0678 -1.1461 -0.3254
  286MOL0     H37717   6.216   3.460  11.064 -0.7786 -3.1538  2.1929
  286MOL0     H37718   6.393   3.189  11.135  0.4702 -1.2703  2.5288
  286MOL0     H37719   6.236   3.254  11.080 -1.7745  1.1991  1.8628
  286MOL0     H37720   6.122   3.162  11.277 -0.9159 -1.7291 -0.1787
  286MOL0     H37721   6.271   3.084  11.330  0.8416  0.7003 -0.4852
  286MOL0     H37722   6.259   2.957  11.093  1.7660  0.2960  1.2799
  286MOL0     H37723   6.112   3.061  11.073 -0.3078  0.0612 -1.2934
  286MOL0     H37724   6.148   2.862  11.310 -1.1991  0.1145  0.8148
  286MOL0     H37725   5.999   2.939  11.262  0.1294 -0.4402  0.2757
  286MOL0     H37726   6.127   2.750  11.054 -0.5722 -1.6861  0.7441
  286MOL0     H37727   5.955   2.805  11.085  0.0450  1.1428 -1.2350
  286MOL0     H37728   5.943   2.637  11.265  1.2198 -0.0272  0.6561
  286MOL0     H37729   6.120   2.640  11.281  0.6876  4.8500  0.6123
  286MOL0     H37730   6.111   2.535  11.042  0.7310 -1.5765  0.3775
  286MOL0     H37731   6.047   2.439  11.181  4.3231 -0.2534 -0.0690
  286MOL0     H37732   5.908   2.436  10.957 -2.4216 -0.3674  0.0300
  286MOL0     H37733   5.863   2.601  10.993 -1.9940 -0.7600 -0.5349
  286MOL0     H37734   6.503   3.448  11.365  4.1188  0.0858 -0.8763
  286MOL0     H37735   6.587   3.680  11.310  0.0391 -0.3066 -0.4562
  286MOL0     H37736   6.407   4.041  10.945 -0.8870  2.6724 -2.1418
  286MOL0     H37737   6.330   4.249  10.901 -1.8181 -0.5714  0.9076
  286MOL0     H37738   6.628   6.108  10.836 -2.3239 -5.5134 -0.1254
  286MOL0     H37739   6.532   6.332  10.915 -1.4927 -1.7855  0.9567
  286MOL0     H37740   6.286   6.682  10.636 -2.2028  0.1009 -1.1046
  286MOL0     H37741   6.184   6.889  10.600 -1.1673  0.0791 -0.4210
  286MOL0     H37742   6.083   7.103  10.605 -3.0208  0.6856  2.0812
  286MOL0     H37743   6.252   7.138  10.668  1.1990  1.6512  0.5913
  286MOL0     H37744   6.124   7.345  10.613 -1.0967  1.0547 -0.5015
  286MOL0     H37745   5.985   7.306  10.717 -0.1186  0.4780  3.9932
  286MOL0     H37746   6.272   7.376  10.792  0.2621  2.7732  0.7753
  286MOL0     H37747   6.162   7.319  10.912  2.6815 -0.3363 -0.4459
  286MOL0     H37748   6.090   7.539  10.724  2.5377 -0.3553 -0.5858
  286MOL0     H37749   5.995   7.497  10.867 -0.4000  1.8083 -0.6386
  286MOL0     H37750   6.264   7.763  11.044  0.5266 -0.4047  3.2221
  286MOL0     H37751   6.149   6.946  11.035  1.9686 -0.0809 -0.4244
  286MOL0     H37752   6.246   6.715  11.062 -1.0664 -1.0994 -0.3252
  287MOL0     O37753  11.106   9.550   3.971  0.1587  0.8014 -0.0255
  287MOL0     C37754  11.225   9.519   3.994 -0.7244  0.1244  0.1932
  287MOL0     O37755  11.270   9.402   4.041 -0.0158  0.0081 -0.0905
  287MOL0     C37756  11.180   9.303   4.061 -0.2456  0.1216  0.5303
  287MOL0     C37757  11.096   9.262   3.958 -0.4184 -0.9377 -0.7582
  287MOL0     C37758  11.010   9.152   3.975  0.5268  0.9132  0.6102
  287MOL0     C37759  11.016   9.070   4.084  0.4435 -0.8846 -1.0367
  287MOL0     O37760  10.929   8.970   4.115  0.4484  0.4355 -0.1893
  287MOL0     C37761  10.837   8.932   4.024  1.4694  0.0247  0.1329
  287MOL0     C37762  10.882   8.857   3.901  0.2390  0.6089 -0.5182
  287MOL0     C37763  10.760   8.847   3.811  0.0094 -0.4051  0.1872
  287MOL0     C37764  10.784   8.759   3.674  0.2808  0.0767  0.3158
  287MOL0     C37765  10.678   8.767   3.560 -0.1401 -0.1480 -0.6970
  287MOL0     C37766  10.731   8.702   3.432 -0.9417 -1.7104  0.2899
  287MOL0     C37767  10.634   8.705   3.313  1.0255  0.2172 -0.0255
  287MOL0     C37768  10.509   8.611   3.336  0.3393  0.8972 -0.0376
  287MOL0     N37769  10.428   8.589   3.222 -0.1065 -0.7513 -0.0833
  287MOL0     C37770  10.474   8.529   3.112  0.4941 -0.4423 -0.6805
  287MOL0     C37771  10.394   8.576   3.022  0.6552 -0.1697  0.0020
  287MOL0     C37772  10.425   8.547   2.885  0.4225  0.5867 -0.6493
  287MOL0     C37773  10.416   8.390   2.870 -0.3532  0.0814 -0.4385
  287MOL0     C37774  10.468   8.330   2.737  0.4124  0.3433 -0.0822
  287MOL0     C37775  10.623   8.321   2.721 -0.4016 -0.8925 -0.2443
  287MOL0     O37776  10.683   8.231   2.808 -0.2141  1.2297  0.5462
  287MOL0     C37777  10.756   8.260   2.917  0.0786  0.3350  0.0932
  287MOL0     C37778  10.814   8.387   2.938 -0.6500 -0.6372 -0.0236
  287MOL0     C37779  10.858   8.422   3.067 -0.0882  0.1328  0.3955
  287MOL0     C37780  10.858   8.326   3.179  0.4357 -0.4017  0.2911
  287MOL0     C37781  10.916   8.366   3.314 -0.4430  0.4590 -0.1182
  287MOL0     O37782  10.923   8.270   3.411 -0.1778 -0.2284 -0.7750
  287MOL0     C37783  10.995   8.309   3.525 -1.4625 -0.3162  0.2609
  287MOL0     C37784  10.938   8.385   3.624 -0.3449  0.0992 -0.3311
  287MOL0     C37785  10.997   8.432   3.738  0.8402  0.0700  0.6950
  287MOL0     C37786  11.131   8.409   3.759 -0.5915  0.4315  0.8944
  287MOL0     O37787  11.214   8.456   3.859 -0.1734 -0.2232 -0.0778
  287MOL0     C37788  11.153   8.531   3.963  0.4867 -0.0408  0.5386
  287MOL0     C37789  11.249   8.557   4.067 -0.6667 -1.0764  0.8445
  287MOL0     C37790  11.192   8.584   4.205  0.2435  0.2513  0.5288
  287MOL0     C37791  11.121   8.729   4.225 -0.1090 -0.1420  0.9077
  287MOL0     C37792  11.028   8.721   4.347  0.1605 -0.4649 -0.3687
  287MOL0     C37793  11.101   8.697   4.481 -0.9264  1.0146  0.1366
  287MOL0     C37794  11.007   8.689   4.599  0.7362  0.5400  0.0510
  287MOL0     C37795  11.083   8.669   4.728  0.4173 -0.2370 -0.0436
  287MOL0    Cl37796  10.969   8.652   4.861  0.0607  0.1112  0.1505
  287MOL0     C37797  11.202   8.332   3.658  0.7478 -0.6937  0.9688
  287MOL0     C37798  11.131   8.276   3.550 -0.4012  0.5282 -0.2072
  287MOL0     O37799  10.951   8.484   3.329  0.0942 -0.6908  0.4387
  287MOL0     C37800  10.810   8.197   3.147  0.1341 -0.6934  0.6357
  287MOL0     C37801  10.755   8.169   3.019  0.2468 -0.2188  0.3585
  287MOL0     N37802  10.291   8.656   3.076 -0.3156  1.0437  0.1863
  287MOL0     N37803  10.320   8.675   3.201 -0.2072  0.6656  0.0282
  287MOL0     C37804  11.095   9.108   4.193 -0.2420  0.8438  0.3514
  287MOL0     C37805  11.171   9.231   4.182  0.1004  0.1918 -0.3774
  287MOL0     C37806  11.318   9.630   4.010 -0.7338 -0.4279 -0.0682
  287MOL0     C37807  11.437   9.617   4.075 -0.3468 -0.0104  0.2753
  287MOL0     C37808  11.526   9.726   4.089 -0.1825  0.6495  0.1781
  287MOL0     C37809  11.506   9.850   4.020 -0.1613  0.0147 -0.2668
  287MOL0     O37810  11.589   9.952   4.054 -0.7789  0.1596  0.2744
  287MOL0     C37811  11.732   9.944   4.024  0.5041 -0.4515 -0.4526
  287MOL0     C37812  11.746   9.878   3.883 -0.2699 -0.3041 -0.6818
  287MOL0     C37813  11.701   9.968   3.773  0.1678  0.0261  0.7255
  287MOL0     C37814  11.764   9.912   3.642 -0.0865 -0.6238 -0.0634
  287MOL0     C37815  11.884   9.969   3.599 -1.0131  1.2445 -0.1214
  287MOL0     C37816  11.994  10.013   3.566  0.3204 -0.4436  0.3616
  287MOL0     C37817  11.393   9.864   3.943  1.3427  0.6370 -0.2179
  287MOL0     C37818  11.302   9.754   3.938  0.0951  0.7085  0.1250
  287MOL0     H37819  11.074   9.315   3.866 -1.4944 -2.0506 -1.1687
  287MOL0     H37820  10.934   9.140   3.899  3.6058  0.8682 -2.7364
  287MOL0     H37821  10.786   9.025   3.999  1.3493  0.3561  1.4982
  287MOL0     H37822  10.767   8.864   4.072 -1.4611  3.5290  1.3215
  287MOL0     H37823  10.916   8.758   3.933  0.7840  0.4963 -1.3949
  287MOL0     H37824  10.966   8.903   3.848 -1.0913  2.9113 -0.7458
  287MOL0     H37825  10.736   8.951   3.787 -0.3515 -0.0757  1.8957
  287MOL0     H37826  10.672   8.804   3.860 -0.1062 -0.9300 -0.4728
  287MOL0     H37827  10.881   8.782   3.629  0.6273  0.2588  1.1452
  287MOL0     H37828  10.787   8.652   3.695 -1.2980  0.5680  3.6011
  287MOL0     H37829  10.665   8.873   3.534 -2.0709 -0.4202 -1.0356
  287MOL0     H37830  10.585   8.721   3.596  0.5192 -1.9748 -1.2544
  287MOL0     H37831  10.749   8.601   3.470 -0.2377  0.0079  5.3536
  287MOL0     H37832  10.829   8.743   3.407 -1.8399 -0.4266 -1.2926
  287MOL0     H37833  10.589   8.802   3.287  2.7900  1.0762 -0.0166
  287MOL0     H37834  10.680   8.672   3.219 -1.6401 -0.5627 -1.1674
  287MOL0     H37835  10.450   8.648   3.421 -0.5068  0.7950 -0.5711
  287MOL0     H37836  10.540   8.512   3.369  0.3405 -0.6743 -4.1981
  287MOL0     H37837  10.561   8.465   3.108  0.3600 -0.5734 -2.2022
  287MOL0     H37838  10.524   8.581   2.855  0.6958  3.0968  2.6044
  287MOL0     H37839  10.344   8.594   2.829  0.6229  2.1093  0.2873
  287MOL0     H37840  10.310   8.364   2.883  0.1733 -1.9502  0.0472
  287MOL0     H37841  10.467   8.336   2.950 -0.9057  0.1333 -0.0395
  287MOL0     H37842  10.415   8.235   2.727  0.9449 -0.1227  1.3249
  287MOL0     H37843  10.441   8.397   2.654 -0.0491  1.3851  0.8834
  287MOL0     H37844  10.673   8.418   2.715  1.6479 -1.9264 -0.7660
  287MOL0     H37845  10.646   8.275   2.624  0.2680 -0.0272 -0.5058
  287MOL0     H37846  10.802   8.464   2.862  1.9264 -0.7493 -0.6478
  287MOL0     H37847  10.872   8.529   3.078  0.1733 -0.0622  2.4140
  287MOL0     H37848  10.837   8.412   3.597 -0.4289 -0.3114 -0.4396
  287MOL0     H37849  10.947   8.489   3.815 -0.0413  0.9499 -0.4862
  287MOL0     H37850  11.067   8.476   4.003  2.0230 -1.7761  1.6077
  287MOL0     H37851  11.111   8.622   3.919 -0.2512 -1.7030 -2.5075
  287MOL0     H37852  11.303   8.649   4.045 -0.4043 -1.3843  0.1652
  287MOL0     H37853  11.316   8.472   4.080 -1.1168 -1.2547  2.0783
  287MOL0     H37854  11.267   8.555   4.280  0.1782  0.3087  0.6179
  287MOL0     H37855  11.113   8.510   4.221  0.4124  0.5615  3.4149
  287MOL0     H37856  11.197   8.802   4.254 -2.1483  2.8333 -0.6170
  287MOL0     H37857  11.071   8.749   4.129  1.3051 -1.9405 -0.2816
  287MOL0     H37858  10.955   8.642   4.325 -1.0916  0.3983  0.5307
  287MOL0     H37859  10.976   8.817   4.350  1.3696  0.1956  0.8360
  287MOL0     H37860  11.178   8.774   4.492  0.0574  0.5559 -2.7531
  287MOL0     H37861  11.153   8.601   4.473  2.0048  2.4573  0.6649
  287MOL0     H37862  10.947   8.781   4.599  1.8531  1.2821 -0.2935
  287MOL0     H37863  10.935   8.607   4.595 -0.0162  1.2043 -0.3349
  287MOL0     H37864  11.142   8.756   4.759 -0.0315  0.0454  0.0372
  287MOL0     H37865  11.149   8.582   4.727  1.2145  0.1877  3.0256
  287MOL0     H37866  11.311   8.327   3.660  0.7959 -0.3895 -0.3800
  287MOL0     H37867  11.179   8.226   3.467  0.0803 -0.7459  0.8024
  287MOL0     H37868  10.812   8.121   3.224  1.4078  1.7407  3.1693
  287MOL0     H37869  10.714   8.070   3.000  1.2606 -0.0625 -3.4725
  287MOL0     H37870  11.107   9.050   4.284  0.8601  0.1487 -0.2046
  287MOL0     H37871  11.228   9.261   4.270 -0.3629  0.6162 -0.2185
  287MOL0     H37872  11.456   9.532   4.140 -0.1260 -0.8680 -0.8680
  287MOL0     H37873  11.609   9.705   4.156  0.5473 -0.7135 -1.0874
  287MOL0     H37874  11.778   9.869   4.090  1.0315 -1.3400 -1.7791
  287MOL0     H37875  11.778  10.041   4.045  2.6941 -2.0878  3.4751
  287MOL0     H37876  11.855   9.874   3.882 -0.2884 -1.6877  0.2320
  287MOL0     H37877  11.699   9.779   3.875  0.7077 -0.8686  0.3254
  287MOL0     H37878  11.731  10.073   3.786  2.3464  0.1007 -3.3542
  287MOL0     H37879  11.593   9.971   3.753  0.5328  4.9588 -2.0560
  287MOL0     H37880  11.770   9.803   3.646  4.1772 -0.5395  0.6659
  287MOL0     H37881  11.699   9.939   3.559  0.9570  3.2901  0.1908
  287MOL0     H37882  12.088  10.059   3.545 -0.6669  2.0561  1.1225
  287MOL0     H37883  11.383   9.953   3.882  2.2206 -0.6837 -2.4342
  287MOL0     H37884  11.223   9.766   3.864 -1.0022 -0.3203  1.0833
  288MOL0     O37885   3.223   3.433   0.783 -0.2758 -1.0149  0.1660
  288MOL0     C37886   3.313   3.385   0.720  0.3252  0.7410  1.0571
  288MOL0     O37887   3.418   3.450   0.654  0.6331 -0.5781 -0.8665
  288MOL0     C37888   3.453   3.575   0.692 -0.6780  0.4140  0.0615
  288MOL0     C37889   3.583   3.598   0.741  0.1768 -0.5274 -1.4852
  288MOL0     C37890   3.621   3.727   0.769  1.0303  0.1601  0.6405
  288MOL0     C37891   3.534   3.835   0.771 -0.0788 -0.1411 -0.6968
  288MOL0     O37892   3.568   3.961   0.809  0.0220 -0.5977  0.3108
  288MOL0     C37893   3.574   4.072   0.713 -0.1881 -0.5181 -0.1368
  288MOL0     C37894   3.710   4.088   0.655 -0.5242 -0.6198  0.4740
  288MOL0     C37895   3.831   4.074   0.730 -0.7810 -0.1232 -1.1776
  288MOL0     C37896   3.836   4.165   0.851 -0.5067 -0.2233  0.3708
  288MOL0     C37897   3.967   4.149   0.931  0.3046  0.3894  0.2446
  288MOL0     C37898   3.966   4.259   1.026  0.4500 -0.7463  0.8575
  288MOL0     C37899   4.086   4.270   1.100  0.1158 -0.4486 -0.0434
  288MOL0     C37900   4.091   4.408   1.173  0.3078 -0.5972 -0.2480
  288MOL0     N37901   4.196   4.421   1.264 -0.4563 -0.5196 -0.4214
  288MOL0     C37902   4.209   4.350   1.380  0.6953 -0.2059  1.0616
  288MOL0     C37903   4.334   4.371   1.430 -0.8178 -0.3262  0.9373
  288MOL0     C37904   4.404   4.309   1.557  0.1289  0.6272 -0.7362
  288MOL0     C37905   4.363   4.373   1.691 -1.0072 -0.2167 -0.7234
  288MOL0     C37906   4.421   4.513   1.699  0.3374 -0.1378 -0.4242
  288MOL0     C37907   4.418   4.570   1.845 -0.0140  0.0341  0.7776
  288MOL0     O37908   4.508   4.496   1.933 -0.1377  0.3446 -0.2280
  288MOL0     C37909   4.628   4.555   1.976 -0.9311 -0.3635 -0.2549
  288MOL0     C37910   4.688   4.516   2.096 -0.4161 -0.1053  0.2156
  288MOL0     C37911   4.804   4.570   2.143  0.5046 -0.2743  0.2032
  288MOL0     C37912   4.871   4.669   2.067  0.1320  1.4170 -0.2832
  288MOL0     C37913   4.989   4.736   2.116 -0.7199  0.5921 -0.0347
  288MOL0     O37914   5.010   4.729   2.244 -0.1049 -0.6432 -0.2823
  288MOL0     C37915   5.117   4.790   2.305  1.1207 -0.5754  0.2116
  288MOL0     C37916   5.079   4.838   2.433 -1.0273  0.1873 -0.0586
  288MOL0     C37917   5.174   4.915   2.505  0.3043  0.7863  0.4275
  288MOL0     C37918   5.301   4.948   2.447  0.5635  0.2319 -0.5262
  288MOL0     O37919   5.395   5.005   2.526 -0.5711  0.6698  0.4203
  288MOL0     C37920   5.345   5.125   2.581 -0.8704 -0.3000  0.2257
  288MOL0     C37921   5.447   5.185   2.675 -0.5038  0.0211  0.4876
  288MOL0     C37922   5.569   5.255   2.596 -0.2171 -0.6580  0.5628
  288MOL0     C37923   5.657   5.344   2.684 -0.1125 -1.2201 -0.0947
  288MOL0     C37924   5.764   5.441   2.610  0.6182  0.1554 -0.0126
  288MOL0     C37925   5.692   5.553   2.526  0.3056  1.1021 -1.1030
  288MOL0     C37926   5.792   5.636   2.451 -0.0546 -0.1441  0.0481
  288MOL0     C37927   5.735   5.752   2.366  0.2992 -0.5077  0.4398
  288MOL0    Cl37928   5.671   5.869   2.477 -0.1669  0.0078 -0.0756
  288MOL0     C37929   5.327   4.897   2.322  0.8602  0.4562 -0.2478
  288MOL0     C37930   5.240   4.823   2.247  0.0805 -0.1772  0.0504
  288MOL0     O37931   5.061   4.789   2.035  0.0150 -0.4564  0.3512
  288MOL0     C37932   4.810   4.708   1.951  0.2940 -0.2374 -0.1994
  288MOL0     C37933   4.695   4.652   1.903  0.1252  0.3256  0.0246
  288MOL0     N37934   4.390   4.466   1.343 -0.1122 -0.0697  0.0560
  288MOL0     N37935   4.315   4.485   1.250 -0.3629 -0.4172 -0.4702
  288MOL0     C37936   3.395   3.804   0.736  0.1836 -0.0234 -0.5104
  288MOL0     C37937   3.356   3.674   0.696  0.8715  0.0251 -0.8980
  288MOL0     C37938   3.287   3.254   0.667 -1.1700 -0.2201 -0.5952
  288MOL0     C37939   3.358   3.196   0.561  0.2422 -0.3915  0.3685
  288MOL0     C37940   3.328   3.066   0.509 -0.4870  0.0500  0.2891
  288MOL0     C37941   3.211   2.991   0.553 -0.4747 -0.7382 -0.1115
  288MOL0     O37942   3.198   2.871   0.494  0.1520  0.0996 -0.3922
  288MOL0     C37943   3.107   2.784   0.565  0.2075  0.2378 -0.4731
  288MOL0     C37944   2.957   2.794   0.542 -0.6870  0.1571  0.6735
  288MOL0     C37945   2.882   2.712   0.654  0.7585 -0.4429  0.0211
  288MOL0     C37946   2.736   2.745   0.669  0.0972  0.0601  0.3698
  288MOL0     C37947   2.656   2.691   0.558  0.2134  0.2672  0.8655
  288MOL0     C37948   2.592   2.651   0.467  0.4598  0.1582  0.0070
  288MOL0     C37949   3.147   3.043   0.664  0.5588  0.4014 -0.4546
  288MOL0     C37950   3.179   3.178   0.720 -0.9617  0.1329 -0.3531
  288MOL0     H37951   3.666   3.527   0.737 -0.3366 -1.2797  0.2317
  288MOL0     H37952   3.727   3.748   0.782  1.0237  0.1932  0.6420
  288MOL0     H37953   3.548   4.165   0.765  3.8558  1.6570 -1.5530
  288MOL0     H37954   3.505   4.054   0.629 -3.3968  1.5551  1.8174
  288MOL0     H37955   3.724   4.190   0.620 -0.0516 -0.4090  1.2573
  288MOL0     H37956   3.714   4.024   0.567  1.6976 -0.8580  0.6895
  288MOL0     H37957   3.904   4.104   0.654  0.8689 -0.3650  0.2572
  288MOL0     H37958   3.859   3.975   0.768 -0.5186  1.5281  3.6523
  288MOL0     H37959   3.829   4.269   0.817 -3.5701 -0.4853 -0.1142
  288MOL0     H37960   3.754   4.154   0.923  0.3384  0.3818  1.4431
  288MOL0     H37961   4.054   4.144   0.866 -0.6394 -1.7663 -0.9602
  288MOL0     H37962   3.958   4.051   0.978  1.8484 -0.2691 -0.7920
  288MOL0     H37963   3.872   4.271   1.080 -1.5669  1.8424 -2.7185
  288MOL0     H37964   3.964   4.343   0.955  1.4413 -0.5220  1.0753
  288MOL0     H37965   4.098   4.189   1.172  2.4229 -0.3818 -0.2522
  288MOL0     H37966   4.166   4.257   1.026  0.0791 -3.7800  0.3764
  288MOL0     H37967   3.996   4.419   1.225  0.1374  0.5715 -0.7604
  288MOL0     H37968   4.090   4.495   1.106  0.2857  0.4516  1.0755
  288MOL0     H37969   4.146   4.269   1.414 -2.2363 -1.6689 -6.1031
  288MOL0     H37970   4.512   4.325   1.552  0.1779  0.0194 -2.2621
  288MOL0     H37971   4.392   4.200   1.565 -0.4692  0.6058 -1.7117
  288MOL0     H37972   4.398   4.299   1.763 -0.9437 -1.4932 -2.0242
  288MOL0     H37973   4.256   4.368   1.713 -0.5617 -1.1864  1.5166
  288MOL0     H37974   4.523   4.516   1.658  0.9421 -0.5614  0.9979
  288MOL0     H37975   4.355   4.584   1.649  0.5130  1.6847  1.7953
  288MOL0     H37976   4.317   4.540   1.876  0.6624 -4.5620 -0.7046
  288MOL0     H37977   4.424   4.679   1.842 -3.5397  0.3848  1.8678
  288MOL0     H37978   4.636   4.441   2.154 -0.0164 -1.1296 -0.7158
  288MOL0     H37979   4.832   4.540   2.243 -0.2217 -1.3976  0.0850
  288MOL0     H37980   4.979   4.818   2.470 -0.8181  1.8156  1.5712
  288MOL0     H37981   5.147   4.945   2.606 -0.5971  0.8430  0.1789
  288MOL0     H37982   5.263   5.106   2.651 -0.9365  2.5934  1.0273
  288MOL0     H37983   5.307   5.189   2.501  1.6762  1.0697  0.0238
  288MOL0     H37984   5.475   5.097   2.733 -0.8689 -0.0231  0.5988
  288MOL0     H37985   5.404   5.260   2.742 -0.8263 -0.9233  1.3483
  288MOL0     H37986   5.526   5.313   2.514  1.5693  1.6125  1.1289
  288MOL0     H37987   5.631   5.180   2.545  2.8321  0.5287  2.2464
  288MOL0     H37988   5.596   5.414   2.742 -0.8237  0.4113 -2.6598
  288MOL0     H37989   5.717   5.289   2.758  0.2848  3.8353  3.9080
  288MOL0     H37990   5.826   5.384   2.540  1.0201  1.6412 -0.9031
  288MOL0     H37991   5.828   5.479   2.690 -0.5190 -0.0174  0.9936
  288MOL0     H37992   5.633   5.610   2.598  0.6398 -0.8787  0.8600
  288MOL0     H37993   5.625   5.509   2.451  2.7649 -1.8474 -1.7890
  288MOL0     H37994   5.870   5.673   2.517  2.1963 -0.2951 -2.3624
  288MOL0     H37995   5.842   5.570   2.380  0.3633  1.6956 -1.4501
  288MOL0     H37996   5.661   5.728   2.289  0.5978  0.2766 -0.1117
  288MOL0     H37997   5.821   5.790   2.311 -0.2775 -2.3738 -1.9196
  288MOL0     H37998   5.417   4.934   2.274 -0.2452  2.8098 -0.6106
  288MOL0     H37999   5.251   4.799   2.141  1.1773  3.0724 -0.6856
  288MOL0     H38000   4.861   4.789   1.899 -1.6080  2.7896  2.2830
  288MOL0     H38001   4.664   4.684   1.804 -1.8864 -0.5951  0.3061
  288MOL0     H38002   3.326   3.883   0.761 -0.1423 -0.2472 -0.6983
  288MOL0     H38003   3.250   3.654   0.687 -0.0160  2.6015  2.1025
  288MOL0     H38004   3.440   3.245   0.510 -1.3643  0.4307 -1.5736
  288MOL0     H38005   3.400   3.023   0.440  2.1170  1.0349  2.2003
  288MOL0     H38006   3.131   2.765   0.670  2.6325 -1.0362 -1.1734
  288MOL0     H38007   3.131   2.684   0.526  0.8167 -0.4547  1.5259
  288MOL0     H38008   2.926   2.898   0.553  0.2579  0.6738 -1.0124
  288MOL0     H38009   2.918   2.758   0.446  1.0016 -0.8902  0.3205
  288MOL0     H38010   2.928   2.728   0.751  0.8922  1.2998 -0.2931
  288MOL0     H38011   2.890   2.606   0.627  1.8553  0.3218 -3.1332
  288MOL0     H38012   2.703   2.691   0.758  0.4433  0.1094  0.5325
  288MOL0     H38013   2.728   2.853   0.684  1.3219  0.8101 -3.3142
  288MOL0     H38014   2.550   2.613   0.376  3.4798 -2.6822 -0.3758
  288MOL0     H38015   3.065   2.994   0.714 -0.9331  3.6678  0.5491
  288MOL0     H38016   3.119   3.230   0.794 -0.6480  0.4073 -0.2879
  289MOL0     O38017   2.545   2.809   8.311  0.3293  0.5528 -0.2967
  289MOL0     C38018   2.614   2.899   8.368 -0.2572 -0.5693  0.9671
  289MOL0     O38019   2.614   2.925   8.507  0.5231  0.2319  0.3621
  289MOL0     C38020   2.523   2.860   8.585  0.0370 -0.7576 -0.5558
  289MOL0     C38021   2.416   2.933   8.647  0.3607  0.2086 -0.3354
  289MOL0     C38022   2.316   2.854   8.713 -0.6858 -0.3807  0.6142
  289MOL0     C38023   2.339   2.714   8.736  0.0673  0.0187 -0.1830
  289MOL0     O38024   2.235   2.645   8.799  0.2634 -0.4649 -0.0922
  289MOL0     C38025   2.273   2.540   8.886  0.2774  0.4249  1.3712
  289MOL0     C38026   2.279   2.400   8.834 -0.7064  0.3306 -0.0610
  289MOL0     C38027   2.314   2.298   8.937 -0.4514  0.1526  0.0614
  289MOL0     C38028   2.236   2.291   9.072  0.1721 -1.0116  0.1788
  289MOL0     C38029   2.284   2.197   9.172 -1.3639 -0.3993 -0.3194
  289MOL0     C38030   2.182   2.193   9.283 -0.2923  0.0625  0.2848
  289MOL0     C38031   2.192   2.295   9.386  0.4206  1.1363 -0.4737
  289MOL0     C38032   2.092   2.267   9.505  0.3145  0.3766 -0.1168
  289MOL0     N38033   2.103   2.357   9.621 -0.1956  0.0234  0.2576
  289MOL0     C38034   2.094   2.493   9.625  0.0265  0.5589  0.1269
  289MOL0     C38035   2.106   2.524   9.760  0.4039 -0.0674  0.3607
  289MOL0     C38036   2.111   2.653   9.828  0.4353 -0.0091 -0.7695
  289MOL0     C38037   2.262   2.696   9.838 -0.5564 -0.4439 -0.4779
  289MOL0     C38038   2.311   2.778   9.719  0.8087  0.1486  0.9717
  289MOL0     C38039   2.450   2.765   9.708 -0.4678  0.1929  0.3249
  289MOL0     O38040   2.496   2.827   9.589  0.0649  0.9502 -0.4670
  289MOL0     C38041   2.626   2.808   9.557  0.4067  0.0420 -0.6316
  289MOL0     C38042   2.728   2.789   9.652  0.0039  0.2301  0.6325
  289MOL0     C38043   2.858   2.758   9.618 -0.2203 -0.5853 -0.0373
  289MOL0     C38044   2.887   2.758   9.483  0.2161 -0.1873 -0.1967
  289MOL0     C38045   3.019   2.716   9.434  0.1649 -0.4600 -0.3096
  289MOL0     O38046   3.043   2.587   9.463  0.3628  0.0866  0.6380
  289MOL0     C38047   3.161   2.525   9.435 -1.0259 -0.5774  0.1417
  289MOL0     C38048   3.201   2.413   9.517  0.3479  0.1724  0.3426
  289MOL0     C38049   3.308   2.329   9.483  0.0025 -2.0297  0.1619
  289MOL0     C38050   3.381   2.353   9.364  1.0011  0.3319  0.8253
  289MOL0     O38051   3.480   2.274   9.324 -0.2316 -0.5902  0.1021
  289MOL0     C38052   3.443   2.135   9.313 -0.1533 -0.4715 -0.3737
  289MOL0     C38053   3.547   2.068   9.216  0.5567  0.4008 -1.1697
  289MOL0     C38054   3.493   1.931   9.195 -0.3755  0.5284 -0.4638
  289MOL0     C38055   3.610   1.852   9.142  0.1696  1.2586  0.7915
  289MOL0     C38056   3.573   1.720   9.080  0.3107 -0.1828  0.1628
  289MOL0     C38057   3.702   1.645   9.036  0.2329 -0.5142  0.3009
  289MOL0     C38058   3.794   1.715   8.928 -0.4435  0.0439 -0.2024
  289MOL0     C38059   3.894   1.631   8.845 -0.9556 -0.3490 -0.3115
  289MOL0    Cl38060   3.971   1.716   8.698  0.2979 -0.9165  0.6328
  289MOL0     C38061   3.331   2.449   9.271  0.1121 -0.7422  0.6106
  289MOL0     C38062   3.226   2.538   9.308 -0.3945 -0.4145 -0.1054
  289MOL0     O38063   3.096   2.792   9.379 -0.6284 -0.1434  0.1610
  289MOL0     C38064   2.790   2.782   9.383 -0.7751  0.6612  0.3840
  289MOL0     C38065   2.668   2.805   9.419  1.2736  0.9555 -0.2202
  289MOL0     N38066   2.134   2.405   9.829 -0.1625  0.2535  0.7756
  289MOL0     N38067   2.128   2.311   9.749 -0.2994 -0.0938 -0.1207
  289MOL0     C38068   2.452   2.655   8.683  0.6709  0.5192  0.6183
  289MOL0     C38069   2.550   2.732   8.614  0.1505  0.1321 -0.1976
  289MOL0     C38070   2.693   2.992   8.285  0.2063 -0.0171 -0.5274
  289MOL0     C38071   2.800   3.068   8.345 -0.1174  0.2946 -0.1989
  289MOL0     C38072   2.870   3.158   8.262  1.0895  0.2098  0.0569
  289MOL0     C38073   2.837   3.170   8.125 -0.2515 -0.8275  0.1661
  289MOL0     O38074   2.910   3.251   8.029 -1.1351 -0.3666 -0.0909
  289MOL0     C38075   2.994   3.356   8.072  0.4565 -0.0123 -0.2270
  289MOL0     C38076   3.052   3.430   7.965 -0.2397 -0.3982 -0.9002
  289MOL0     C38077   2.934   3.515   7.907  1.2477  0.6793  0.3416
  289MOL0     C38078   2.968   3.587   7.785 -0.4151  0.5848 -0.8608
  289MOL0     C38079   3.080   3.686   7.812  0.6425  1.2332 -0.2132
  289MOL0     C38080   3.163   3.761   7.829 -1.1251  0.3986 -0.2195
  289MOL0     C38081   2.735   3.095   8.078  0.6358 -0.1509  0.5443
  289MOL0     C38082   2.657   3.009   8.152 -0.6020 -1.6458  0.1493
  289MOL0     H38083   2.385   3.035   8.628  2.9433  1.1681  0.2562
  289MOL0     H38084   2.219   2.897   8.735  1.1014  4.6824 -0.1869
  289MOL0     H38085   2.194   2.536   8.961 -4.0750 -0.3638 -2.7378
  289MOL0     H38086   2.365   2.559   8.942  1.9199 -4.3006  0.7237
  289MOL0     H38087   2.362   2.381   8.765 -0.3707 -1.0371  0.6751
  289MOL0     H38088   2.183   2.376   8.788 -1.4668  0.9222  1.1697
  289MOL0     H38089   2.419   2.319   8.960 -0.8501 -1.8060  4.9820
  289MOL0     H38090   2.312   2.194   8.903 -0.6282 -1.4683  4.3194
  289MOL0     H38091   2.241   2.392   9.114 -1.5711  0.0954 -2.0454
  289MOL0     H38092   2.129   2.275   9.051  0.2121  0.1998 -1.1412
  289MOL0     H38093   2.377   2.235   9.217 -1.9260  2.7145 -1.5390
  289MOL0     H38094   2.300   2.098   9.127  0.5022 -0.0131 -0.6110
  289MOL0     H38095   2.213   2.098   9.325  1.7890 -0.1829 -1.5768
  289MOL0     H38096   2.081   2.196   9.241 -0.7409 -1.0886  1.2388
  289MOL0     H38097   2.289   2.306   9.436  1.0884 -1.2856 -1.0846
  289MOL0     H38098   2.172   2.387   9.331 -0.8755  2.3434  1.8652
  289MOL0     H38099   2.102   2.159   9.524 -2.2222 -0.2003 -1.6657
  289MOL0     H38100   1.990   2.286   9.471 -0.6552 -0.4857  2.1111
  289MOL0     H38101   2.075   2.564   9.545 -2.2247 -0.1995 -0.0910
  289MOL0     H38102   2.056   2.648   9.922 -1.2500 -0.0446 -1.7219
  289MOL0     H38103   2.057   2.720   9.760 -1.4670 -0.7531 -0.0747
  289MOL0     H38104   2.320   2.604   9.849 -1.8101 -1.2487 -0.3709
  289MOL0     H38105   2.278   2.748   9.933 -0.0776 -0.2680 -0.6528
  289MOL0     H38106   2.270   2.716   9.638  0.1208  3.2641 -1.2292
  289MOL0     H38107   2.274   2.880   9.720  1.6541  0.4715  0.4901
  289MOL0     H38108   2.480   2.660   9.702  0.2087  0.3469  0.9232
  289MOL0     H38109   2.496   2.816   9.793 -1.9226  2.3687 -0.1027
  289MOL0     H38110   2.695   2.780   9.755 -0.6068 -0.4949  0.3813
  289MOL0     H38111   2.925   2.718   9.693 -1.7127  0.1492  1.7674
  289MOL0     H38112   3.143   2.400   9.608  0.4565 -0.9805  0.2725
  289MOL0     H38113   3.352   2.257   9.552  0.3210 -2.6764 -0.6863
  289MOL0     H38114   3.340   2.134   9.276 -0.1409  0.7343 -0.4722
  289MOL0     H38115   3.441   2.106   9.418  0.2802  1.9276  0.3540
  289MOL0     H38116   3.646   2.072   9.262  1.0184  1.6095 -2.2210
  289MOL0     H38117   3.542   2.126   9.124 -2.3036 -0.0513 -1.4199
  289MOL0     H38118   3.409   1.941   9.125 -0.2749  1.1135 -0.5019
  289MOL0     H38119   3.452   1.885   9.286  2.7101 -2.0295 -0.2071
  289MOL0     H38120   3.649   1.925   9.070  0.1289  2.9849  2.4262
  289MOL0     H38121   3.696   1.838   9.207  0.3115 -0.4227  0.2836
  289MOL0     H38122   3.518   1.744   8.988  0.9958  2.1538  0.2908
  289MOL0     H38123   3.513   1.659   9.148 -4.2413 -1.6577 -4.4813
  289MOL0     H38124   3.662   1.552   8.994 -1.0766 -0.5398  1.5242
  289MOL0     H38125   3.763   1.636   9.126 -2.8210  0.5384  2.6814
  289MOL0     H38126   3.722   1.743   8.850  0.0588 -2.0321 -1.4772
  289MOL0     H38127   3.843   1.802   8.973 -1.4634  1.3084 -1.4229
  289MOL0     H38128   3.851   1.543   8.796 -2.6092  1.7520 -2.9113
  289MOL0     H38129   3.978   1.603   8.909 -2.0089  1.3658  1.9891
  289MOL0     H38130   3.395   2.450   9.184  3.9599  2.7539  3.1506
  289MOL0     H38131   3.187   2.610   9.236 -1.5051 -0.4336  0.4529
  289MOL0     H38132   2.804   2.782   9.276 -1.0384 -1.7396  0.3075
  289MOL0     H38133   2.585   2.819   9.349 -0.8377 -2.1368  1.4488
  289MOL0     H38134   2.457   2.547   8.695 -2.1749  0.1726 -0.5259
  289MOL0     H38135   2.643   2.691   8.576  0.0769 -2.1200  1.7912
  289MOL0     H38136   2.803   3.065   8.454 -4.2962  0.1626  0.0502
  289MOL0     H38137   2.947   3.226   8.297  2.4815 -0.7641 -0.9919
  289MOL0     H38138   3.071   3.316   8.138  1.0199  0.9997 -0.2536
  289MOL0     H38139   2.937   3.417   8.143 -2.0078 -1.3177 -0.9604
  289MOL0     H38140   3.120   3.505   8.006 -1.7378  0.1182  0.8071
  289MOL0     H38141   3.102   3.365   7.893  1.6689  1.2760 -1.1803
  289MOL0     H38142   2.892   3.588   7.977 -1.7697 -0.2186 -0.4009
  289MOL0     H38143   2.857   3.445   7.874  5.2614 -3.6236 -1.0269
  289MOL0     H38144   2.997   3.515   7.708  1.5484 -1.2183  1.3793
  289MOL0     H38145   2.883   3.649   7.755 -1.7459 -1.6718 -2.0319
  289MOL0     H38146   3.241   3.834   7.841  1.6542 -2.6975  2.2727
  289MOL0     H38147   2.711   3.126   7.977 -1.8385  0.4326  1.2564
  289MOL0     H38148   2.573   2.961   8.103  0.5125 -3.4558 -0.0700
  290MOL0     O38149   3.428   4.870   7.177  0.5513  0.2116 -0.4732
  290MOL0     C38150   3.501   4.956   7.132  0.4384  0.4006  0.5089
  290MOL0     O38151   3.523   5.078   7.194  0.6551  0.0936  0.2859
  290MOL0     C38152   3.443   5.130   7.284  0.9488  0.9642  0.2397
  290MOL0     C38153   3.456   5.080   7.415  0.1753 -0.0269  0.0680
  290MOL0     C38154   3.400   5.159   7.521 -0.8992  0.1036 -0.5827
  290MOL0     C38155   3.327   5.269   7.502 -0.0001 -1.1383 -0.2454
  290MOL0     O38156   3.284   5.347   7.609 -0.0687 -0.3959 -0.1513
  290MOL0     C38157   3.363   5.364   7.735 -0.0946  0.0292 -0.7402
  290MOL0     C38158   3.328   5.255   7.840  0.0004 -0.8628 -0.3725
  290MOL0     C38159   3.386   5.256   7.981  0.3827  0.8037 -0.0597
  290MOL0     C38160   3.535   5.271   7.966  0.3355 -1.0236 -0.7891
  290MOL0     C38161   3.603   5.274   8.108  0.1371 -0.0502 -0.3754
  290MOL0     C38162   3.757   5.266   8.112 -0.2344  0.3485  0.1667
  290MOL0     C38163   3.824   5.223   8.247 -0.2140  0.4977 -0.1595
  290MOL0     C38164   3.877   5.076   8.249 -0.7059 -0.0408  0.2486
  290MOL0     N38165   4.021   5.069   8.235 -0.3388  1.1467 -0.6050
  290MOL0     C38166   4.127   5.050   8.329  1.2719 -0.4419 -0.6166
  290MOL0     C38167   4.235   5.012   8.257  0.3777 -0.2229  0.1301
  290MOL0     C38168   4.379   4.982   8.301 -0.4139  0.4762 -0.4309
  290MOL0     C38169   4.404   4.999   8.449 -0.2030  0.1648  0.0839
  290MOL0     C38170   4.439   5.150   8.490 -1.0225 -0.4476  0.3669
  290MOL0     C38171   4.450   5.176   8.643 -0.5454 -0.2651 -0.2846
  290MOL0     O38172   4.324   5.162   8.711 -0.4986 -0.5573 -0.1116
  290MOL0     C38173   4.316   5.193   8.844  0.3169  0.6345  0.4227
  290MOL0     C38174   4.205   5.143   8.909  0.3481  0.4270  0.7115
  290MOL0     C38175   4.185   5.155   9.050 -0.3333 -0.5281 -0.2779
  290MOL0     C38176   4.292   5.219   9.125  0.4369 -0.0623 -0.0989
  290MOL0     C38177   4.296   5.238   9.266 -0.8067  0.1088  0.0536
  290MOL0     O38178   4.242   5.129   9.334 -0.2702  0.3328  0.7003
  290MOL0     C38179   4.230   5.143   9.473 -0.8165 -0.2494  0.0325
  290MOL0     C38180   4.326   5.206   9.553  0.3993 -0.0897  0.7230
  290MOL0     C38181   4.304   5.216   9.689  0.2651 -0.5408  0.7953
  290MOL0     C38182   4.172   5.191   9.737  0.7691  0.1399 -0.2478
  290MOL0     O38183   4.156   5.223   9.871  0.0896 -0.1583 -0.6547
  290MOL0     C38184   4.032   5.162   9.926  0.7357  0.2669  0.1118
  290MOL0     C38185   4.029   5.187  10.079  0.1023  0.5475 -0.6798
  290MOL0     C38186   3.880   5.204  10.125  0.8118  0.1680  0.8086
  290MOL0     C38187   3.859   5.228  10.279  0.1121  0.2516 -0.3819
  290MOL0     C38188   3.929   5.360  10.318 -0.0611 -0.2466  0.1569
  290MOL0     C38189   3.881   5.412  10.455  0.3603  0.0298  0.3721
  290MOL0     C38190   3.902   5.325  10.581 -0.1514 -0.1024  0.8393
  290MOL0     C38191   3.869   5.387  10.711  0.4959 -0.6758 -0.0100
  290MOL0    Cl38192   3.686   5.402  10.717  0.1174 -0.1335  0.1576
  290MOL0     C38193   4.076   5.132   9.657  0.6436  0.9738 -0.4617
  290MOL0     C38194   4.106   5.109   9.527 -0.4325  1.0760 -0.7955
  290MOL0     O38195   4.327   5.347   9.304  0.1036 -0.0189  0.1226
  290MOL0     C38196   4.403   5.265   9.064  0.0787 -0.3880 -0.1399
  290MOL0     C38197   4.417   5.251   8.924  0.2977  0.7411  0.1001
  290MOL0     N38198   4.196   5.029   8.127  0.6271  0.2314  0.3863
  290MOL0     N38199   4.076   5.067   8.120 -0.2784  0.0538 -0.2157
  290MOL0     C38200   3.304   5.316   7.369 -0.4210  0.5147 -0.2710
  290MOL0     C38201   3.365   5.247   7.259  0.9298 -0.4387 -1.5130
  290MOL0     C38202   3.586   4.915   7.016  0.4813 -0.2488  0.5754
  290MOL0     C38203   3.565   4.790   6.953 -0.8184 -0.8220  0.0508
  290MOL0     C38204   3.631   4.759   6.839  0.8206  0.5985 -0.6532
  290MOL0     C38205   3.733   4.849   6.788  0.0091 -0.1607 -0.2528
  290MOL0     O38206   3.822   4.827   6.685  0.4285  1.6941 -0.5844
  290MOL0     C38207   3.863   4.692   6.649 -0.1383  0.7529 -1.2113
  290MOL0     C38208   4.001   4.711   6.587 -0.6999 -0.5036 -0.2014
  290MOL0     C38209   4.013   4.626   6.462  1.0736 -0.1748  0.3802
  290MOL0     C38210   4.149   4.608   6.395  0.8554  0.0715 -0.1012
  290MOL0     C38211   4.221   4.511   6.476 -0.6087  0.3656 -0.5834
  290MOL0     C38212   4.300   4.466   6.549 -0.1578 -0.5370 -0.2020
  290MOL0     C38213   3.737   4.981   6.843  0.3323  0.6919 -0.5018
  290MOL0     C38214   3.665   5.008   6.958 -0.3735  0.0937  0.2765
  290MOL0     H38215   3.521   4.994   7.427 -0.8406 -1.0623 -1.5145
  290MOL0     H38216   3.405   5.113   7.620  2.4783 -3.2539 -2.0327
  290MOL0     H38217   3.337   5.466   7.764 -0.6694 -0.6061  1.0769
  290MOL0     H38218   3.471   5.362   7.714 -0.1361  1.5443 -1.1738
  290MOL0     H38219   3.354   5.154   7.808  3.2143 -0.6274  1.1435
  290MOL0     H38220   3.218   5.259   7.847 -0.1799 -2.9680 -1.3147
  290MOL0     H38221   3.365   5.165   8.038 -0.3812  1.6250  1.0094
  290MOL0     H38222   3.342   5.333   8.044 -0.7453  1.4422 -1.5660
  290MOL0     H38223   3.567   5.181   7.913  0.9421  0.4860 -3.1377
  290MOL0     H38224   3.565   5.357   7.905  0.8900 -1.1586 -0.7129
  290MOL0     H38225   3.564   5.192   8.169 -0.7249 -1.1989 -2.3645
  290MOL0     H38226   3.572   5.366   8.159 -1.4443 -2.0402  2.4978
  290MOL0     H38227   3.797   5.355   8.062  0.8532  0.8055  1.7650
  290MOL0     H38228   3.786   5.187   8.042  0.9822 -1.2442  2.3725
  290MOL0     H38229   3.914   5.281   8.270  0.1639 -0.9148  2.2605
  290MOL0     H38230   3.756   5.241   8.331 -1.2192  0.0036 -0.8444
  290MOL0     H38231   3.839   5.008   8.172  3.6518 -0.1615 -2.1038
  290MOL0     H38232   3.837   5.039   8.345 -3.4374 -1.6092 -1.3390
  290MOL0     H38233   4.109   5.039   8.436  0.9181 -0.1803 -0.6479
  290MOL0     H38234   4.448   5.043   8.242  2.1035 -2.3642 -0.6852
  290MOL0     H38235   4.401   4.880   8.268 -0.7518  0.2930 -0.1032
  290MOL0     H38236   4.482   4.934   8.489  0.0259 -0.1207 -0.7996
  290MOL0     H38237   4.313   4.970   8.503 -0.1411 -2.2210 -0.9767
  290MOL0     H38238   4.536   5.178   8.448 -1.9592  2.7889  0.0882
  290MOL0     H38239   4.355   5.213   8.459 -3.1246 -3.2432 -0.0443
  290MOL0     H38240   4.470   5.282   8.661  2.2363 -0.5408 -1.3476
  290MOL0     H38241   4.520   5.103   8.685 -0.6980  0.0831  0.5949
  290MOL0     H38242   4.130   5.094   8.847  0.0875  1.9054 -0.2146
  290MOL0     H38243   4.096   5.123   9.103 -0.2548  1.5106  1.1847
  290MOL0     H38244   4.420   5.239   9.510 -0.0947  1.8514  1.0156
  290MOL0     H38245   4.380   5.257   9.754  3.3225 -1.9173 -1.6108
  290MOL0     H38246   4.045   5.054   9.911  2.5348  0.2838  1.2304
  290MOL0     H38247   3.937   5.193   9.884  1.0457  3.6651  1.6098
  290MOL0     H38248   4.087   5.278  10.094 -0.7977  1.3586 -1.9582
  290MOL0     H38249   4.067   5.102  10.137  0.7925  2.7087  2.2434
  290MOL0     H38250   3.820   5.114  10.110 -3.8289  3.2196 -1.2264
  290MOL0     H38251   3.831   5.284  10.069  1.5703 -1.3124 -2.2339
  290MOL0     H38252   3.752   5.227  10.302  0.5822 -0.0513  2.0401
  290MOL0     H38253   3.905   5.144  10.332  0.4147 -0.2178 -1.3482
  290MOL0     H38254   3.921   5.436  10.241  3.8782 -1.6628 -1.8922
  290MOL0     H38255   4.029   5.317  10.319 -0.6836 -1.8857  2.2671
  290MOL0     H38256   3.774   5.436  10.451  0.7165  1.6839 -0.6056
  290MOL0     H38257   3.932   5.508  10.468 -1.3526  1.5266 -2.8140
  290MOL0     H38258   3.859   5.225  10.569 -1.5047  0.5281  0.1719
  290MOL0     H38259   4.009   5.302  10.578 -0.5506 -2.8759 -4.8071
  290MOL0     H38260   3.916   5.485  10.725  1.2629 -0.9068 -0.8400
  290MOL0     H38261   3.913   5.319  10.785 -0.7476 -1.1951  0.2783
  290MOL0     H38262   3.972   5.108   9.674  0.6301  1.4560  0.1744
  290MOL0     H38263   4.027   5.073   9.462  1.8265  0.2768 -3.2816
  290MOL0     H38264   4.479   5.331   9.106  1.2497 -2.0172  0.3737
  290MOL0     H38265   4.507   5.292   8.878 -0.3601  0.4622 -1.4839
  290MOL0     H38266   3.240   5.403   7.356 -1.0028  0.7435  3.1131
  290MOL0     H38267   3.356   5.287   7.159 -5.7267  3.5407  0.0713
  290MOL0     H38268   3.492   4.722   6.993 -1.7342  0.0375 -0.1060
  290MOL0     H38269   3.620   4.659   6.797  1.7283 -0.7405  2.0852
  290MOL0     H38270   3.782   4.667   6.580 -1.2886  1.2877 -0.0993
  290MOL0     H38271   3.873   4.615   6.726  1.0266  1.4248 -0.6696
  290MOL0     H38272   4.023   4.814   6.560  0.1189  0.0698  2.3229
  290MOL0     H38273   4.082   4.694   6.659 -1.2803 -2.3107  0.0760
  290MOL0     H38274   3.950   4.679   6.391 -0.0220  1.2646  2.3235
  290MOL0     H38275   3.976   4.527   6.489 -1.6433  0.2462 -1.4656
  290MOL0     H38276   4.128   4.562   6.298 -3.0293  0.6552  0.3366
  290MOL0     H38277   4.203   4.702   6.380  0.5756  0.3185  0.4256
  290MOL0     H38278   4.375   4.437   6.620  0.4144  0.4555 -0.3857
  290MOL0     H38279   3.802   5.062   6.813  0.2551  0.2163 -2.0825
  290MOL0     H38280   3.683   5.105   7.003  1.6865  0.2987 -0.8611
  291MOL0     O38281  11.015   0.731   8.069  0.6383  0.1015 -0.2526
  291MOL0     C38282  10.929   0.730   8.156 -0.3997  0.0982  0.1423
  291MOL0     O38283  10.869   0.620   8.209  0.0085  0.7766 -0.3140
  291MOL0     C38284  10.885   0.495   8.162  0.6494  0.6709 -1.2892
  291MOL0     C38285  11.010   0.453   8.113  0.7379  0.5553 -0.3440
  291MOL0     C38286  11.023   0.321   8.062  0.4005  0.2375 -0.6173
  291MOL0     C38287  10.916   0.229   8.086 -0.5178 -0.9992  1.4316
  291MOL0     O38288  10.920   0.102   8.032  0.4235  0.6703 -0.2460
  291MOL0     C38289  11.028   0.025   8.072  0.2749 -0.9641 -0.7551
  291MOL0     C38290  11.004  -0.114   8.047  0.4391  0.7076  0.1922
  291MOL0     C38291  11.132  -0.188   8.058  0.3061 -0.1056  0.1422
  291MOL0     C38292  11.125  -0.335   8.028 -1.0389  0.2399  0.0464
  291MOL0     C38293  11.246  -0.424   8.068 -0.3421 -0.0228  0.1671
  291MOL0     C38294  11.293  -0.404   8.213  0.2487  0.0219  0.8267
  291MOL0     C38295  11.410  -0.508   8.251 -0.2474  0.2326  0.1353
  291MOL0     C38296  11.395  -0.556   8.393  1.1522  0.2094 -0.8417
  291MOL0     N38297  11.515  -0.599   8.466 -0.5646  0.3108  0.5922
  291MOL0     C38298  11.610  -0.685   8.410 -0.3669 -0.9588  0.1156
  291MOL0     C38299  11.690  -0.705   8.516 -0.5627  0.1142 -0.3189
  291MOL0     C38300  11.821  -0.786   8.508  0.7492 -0.3355  0.0210
  291MOL0     C38301  11.806  -0.925   8.576  0.7971 -0.2037 -0.4133
  291MOL0     C38302  11.843  -1.032   8.477  0.1874  0.4227  0.4461
  291MOL0     C38303  11.792  -1.159   8.533  1.2193  1.5001  1.0546
  291MOL0     O38304  11.820  -1.256   8.435 -0.9292  0.0866  0.1859
  291MOL0     C38305  11.787  -1.388   8.444 -0.7550  0.2442  0.3783
  291MOL0     C38306  11.884  -1.473   8.421 -0.0243  1.2968  0.5867
  291MOL0     C38307  11.864  -1.616   8.415 -0.0801 -0.5339 -0.6155
  291MOL0     C38308  11.744  -1.667   8.446 -0.9179 -0.5941  0.4995
  291MOL0     C38309  11.713  -1.813   8.422  0.6545 -0.4599  0.8319
  291MOL0     O38310  11.585  -1.853   8.460 -0.5622  0.5002 -0.1556
  291MOL0     C38311  11.556  -1.981   8.417 -0.1145  0.3036 -0.4404
  291MOL0     C38312  11.562  -2.080   8.513  0.9880 -0.4359  0.7733
  291MOL0     C38313  11.529  -2.220   8.464 -0.1317 -0.2481 -0.3981
  291MOL0     C38314  11.494  -2.245   8.327 -0.1552 -0.9478 -0.1825
  291MOL0     O38315  11.461  -2.373   8.295 -0.3897 -0.5305 -0.1758
  291MOL0     C38316  11.328  -2.393   8.251 -0.2115 -0.0612  0.1712
  291MOL0     C38317  11.324  -2.538   8.195 -0.5106 -0.0759 -0.9626
  291MOL0     C38318  11.207  -2.565   8.112  0.2460  0.5912  0.5133
  291MOL0     C38319  11.224  -2.698   8.032 -0.1294  0.2619  0.1315
  291MOL0     C38320  11.088  -2.764   8.016 -0.9449 -0.7078  0.3446
  291MOL0     C38321  11.103  -2.899   7.944 -0.6426  0.6254  0.8720
  291MOL0     C38322  10.968  -2.976   7.940 -0.7870 -0.6376  0.5675
  291MOL0     C38323  10.954  -3.063   8.067  0.1355 -0.1825  0.2419
  291MOL0    Cl38324  11.048  -3.211   8.075 -0.3566 -0.6084  0.1687
  291MOL0     C38325  11.496  -2.138   8.228  0.4857  0.3920 -0.8972
  291MOL0     C38326  11.527  -2.008   8.278 -0.3370  0.5172 -1.0576
  291MOL0     O38327  11.807  -1.885   8.386  0.4387 -0.3211  0.2246
  291MOL0     C38328  11.635  -1.574   8.475  0.4542  0.5601 -0.0181
  291MOL0     C38329  11.652  -1.435   8.463  0.3719 -0.0174  0.8533
  291MOL0     N38330  11.631  -0.649   8.630  0.1993 -0.1728 -0.5884
  291MOL0     N38331  11.528  -0.594   8.598 -0.6317 -0.1484  0.8269
  291MOL0     C38332  10.800   0.270   8.136 -0.2352  0.4360 -0.1117
  291MOL0     C38333  10.775   0.396   8.174 -0.5493 -0.9907 -0.7574
  291MOL0     C38334  10.899   0.860   8.218 -0.8389  0.2961 -0.2206
  291MOL0     C38335  10.800   0.881   8.299  0.6128  0.1604 -0.7218
  291MOL0     C38336  10.768   0.997   8.373  0.2785  0.0845 -1.1461
  291MOL0     C38337  10.848   1.110   8.362 -0.3356 -0.0202  0.0392
  291MOL0     O38338  10.825   1.207   8.453 -0.5134  0.8812 -0.2973
  291MOL0     C38339  10.853   1.342   8.428  0.1516 -0.7471 -0.1584
  291MOL0     C38340  10.754   1.398   8.335  0.8789 -0.4649  0.4104
  291MOL0     C38341  10.609   1.363   8.373  0.2506 -0.4079 -0.2931
  291MOL0     C38342  10.513   1.370   8.249  0.0097 -0.3349 -0.2310
  291MOL0     C38343  10.368   1.375   8.278 -0.5563 -0.0933 -0.3239
  291MOL0     C38344  10.248   1.386   8.302  0.5607 -0.5427 -0.0718
  291MOL0     C38345  10.952   1.101   8.274  0.3068  0.3269  1.0128
  291MOL0     C38346  10.971   0.983   8.196 -0.6585 -0.1326 -0.7157
  291MOL0     H38347  11.088   0.527   8.096  0.3994  0.3164 -3.4912
  291MOL0     H38348  11.115   0.303   8.007 -0.7547 -2.6982 -1.8059
  291MOL0     H38349  11.050   0.039   8.178  0.5874 -1.1731 -0.7924
  291MOL0     H38350  11.111   0.082   8.029 -1.4254  7.1505  4.4748
  291MOL0     H38351  10.966  -0.132   7.946  0.5519  0.3787  0.2070
  291MOL0     H38352  10.933  -0.167   8.111  1.3031  0.3737  0.8899
  291MOL0     H38353  11.160  -0.185   8.164  0.2688 -1.0868  0.1918
  291MOL0     H38354  11.214  -0.136   8.008  2.9746 -0.3407  3.8098
  291MOL0     H38355  11.038  -0.368   8.084 -1.0370 -0.7673 -0.5080
  291MOL0     H38356  11.111  -0.351   7.920 -3.5415 -3.4925  0.7287
  291MOL0     H38357  11.328  -0.394   8.001 -2.7936  1.7261 -2.2867
  291MOL0     H38358  11.212  -0.528   8.070 -0.8486  0.1412  2.1731
  291MOL0     H38359  11.219  -0.424   8.291  1.2901 -2.3074  1.3303
  291MOL0     H38360  11.331  -0.303   8.229  0.7419 -0.0928  0.3846
  291MOL0     H38361  11.407  -0.599   8.190 -0.2132  0.6105 -0.4291
  291MOL0     H38362  11.511  -0.466   8.241  0.3196 -1.4380 -1.7024
  291MOL0     H38363  11.320  -0.635   8.381  0.1091  1.3527 -2.3659
  291MOL0     H38364  11.336  -0.484   8.450  3.4976  2.4962 -1.1111
  291MOL0     H38365  11.631  -0.721   8.309 -2.8090  1.0009 -1.1991
  291MOL0     H38366  11.885  -0.712   8.558 -1.5207  1.6326  0.1783
  291MOL0     H38367  11.849  -0.783   8.403 -4.9737 -0.2014 -1.8272
  291MOL0     H38368  11.702  -0.930   8.608  0.2304  3.9187 -1.1272
  291MOL0     H38369  11.867  -0.934   8.667  0.3785  0.7659 -0.0226
  291MOL0     H38370  11.791  -1.015   8.383 -0.0508 -0.5863  0.3824
  291MOL0     H38371  11.947  -1.047   8.446 -0.2196 -1.8782  0.0134
  291MOL0     H38372  11.683  -1.160   8.545  1.0962 -0.9178  0.2629
  291MOL0     H38373  11.823  -1.187   8.634  1.2869 -0.7716  0.4747
  291MOL0     H38374  11.979  -1.435   8.384  0.7513  0.6705  1.8538
  291MOL0     H38375  11.940  -1.691   8.396 -0.7151 -1.2401 -0.4225
  291MOL0     H38376  11.583  -2.057   8.617 -0.9398  4.5013  0.3325
  291MOL0     H38377  11.542  -2.298   8.539 -0.7943  0.6506  0.6935
  291MOL0     H38378  11.318  -2.320   8.170  0.7625  1.5191  1.4204
  291MOL0     H38379  11.250  -2.370   8.324 -0.0353  1.1111  0.0044
  291MOL0     H38380  11.322  -2.610   8.278 -2.1613 -0.7435 -1.5383
  291MOL0     H38381  11.409  -2.558   8.130 -1.2486 -3.1609 -1.1515
  291MOL0     H38382  11.173  -2.477   8.058 -3.8067 -0.7994  0.4525
  291MOL0     H38383  11.123  -2.576   8.181 -0.0339  0.0450  0.0859
  291MOL0     H38384  11.276  -2.691   7.936  0.6229 -1.0746  0.4129
  291MOL0     H38385  11.283  -2.772   8.087 -2.1892 -1.6675 -0.0884
  291MOL0     H38386  11.016  -2.696   7.968 -0.3034 -0.5259 -0.3797
  291MOL0     H38387  11.056  -2.783   8.119 -0.9850 -2.5452  0.0241
  291MOL0     H38388  11.170  -2.957   8.008  1.1305  3.0606  1.3603
  291MOL0     H38389  11.151  -2.884   7.848 -0.0986  4.2137  1.5570
  291MOL0     H38390  10.883  -2.908   7.931  0.2128  0.8570  1.8154
  291MOL0     H38391  10.968  -3.033   7.846  0.5350 -1.1581  0.8487
  291MOL0     H38392  10.849  -3.094   8.076 -1.1061  2.2554 -3.2725
  291MOL0     H38393  10.986  -3.005   8.154  3.0462  1.0917 -1.5552
  291MOL0     H38394  11.479  -2.157   8.122  0.5573  1.1307 -1.0423
  291MOL0     H38395  11.536  -1.921   8.214  2.1435 -0.4106 -2.0739
  291MOL0     H38396  11.533  -1.606   8.497  0.6444  0.6983  1.0884
  291MOL0     H38397  11.572  -1.361   8.460  1.4070  1.1371  1.1134
  291MOL0     H38398  10.708   0.213   8.136 -3.0067  4.3823 -1.7831
  291MOL0     H38399  10.675   0.428   8.203 -1.2196 -1.5074 -2.3748
  291MOL0     H38400  10.739   0.791   8.305 -0.9083  1.1827 -0.1818
  291MOL0     H38401  10.703   0.989   8.460 -0.4834  0.6876 -1.6504
  291MOL0     H38402  10.956   1.369   8.405 -0.2609  1.2473  0.1458
  291MOL0     H38403  10.827   1.392   8.522 -2.6059 -1.0365 -0.6977
  291MOL0     H38404  10.765   1.506   8.326 -3.3028  0.0937  0.1940
  291MOL0     H38405  10.775   1.366   8.233 -1.6549 -1.3189  0.0836
  291MOL0     H38406  10.573   1.446   8.436 -0.2623  0.7178 -1.9887
  291MOL0     H38407  10.583   1.271   8.426 -0.0408 -0.2913 -0.2280
  291MOL0     H38408  10.534   1.464   8.197 -0.9292  0.1169  0.1974
  291MOL0     H38409  10.537   1.286   8.183  1.9785 -0.4853  0.5806
  291MOL0     H38410  10.146   1.383   8.335  1.5329 -3.3004  3.3156
  291MOL0     H38411  11.027   1.178   8.260  1.4209 -0.8066  0.5389
  291MOL0     H38412  11.059   0.982   8.132  0.6884  0.8500  1.0505
  292MOL0     O38413   1.531  10.177   8.223  0.1506  0.5603 -0.2502
  292MOL0     C38414   1.446  10.266   8.238 -0.3043 -0.2359  0.4449
  292MOL0     O38415   1.447  10.388   8.185 -0.6913 -1.5275  0.6552
  292MOL0     C38416   1.557  10.421   8.108  0.7302  0.2036 -0.8519
  292MOL0     C38417   1.545  10.420   7.976 -0.8023 -0.4088  1.5873
  292MOL0     C38418   1.650  10.449   7.885  0.1520  0.2362 -0.3652
  292MOL0     C38419   1.782  10.486   7.940  0.8227 -0.4999 -0.5802
  292MOL0     O38420   1.894  10.518   7.869  0.5175 -0.4095 -0.7001
  292MOL0     C38421   1.904  10.451   7.744  0.0167  0.0648 -1.5548
  292MOL0     C38422   1.917  10.294   7.760 -0.5975 -0.4429  0.3030
  292MOL0     C38423   2.066  10.257   7.800 -0.1501 -0.4760  0.1401
  292MOL0     C38424   2.169  10.252   7.691 -0.2490  0.6877  0.2245
  292MOL0     C38425   2.302  10.177   7.729 -0.3614  0.5028 -0.7028
  292MOL0     C38426   2.378  10.243   7.844 -0.0240  0.1282 -0.0058
  292MOL0     C38427   2.514  10.171   7.875 -1.3991 -0.3307  0.8918
  292MOL0     C38428   2.579  10.231   8.006  1.0261 -0.2433 -0.0819
  292MOL0     N38429   2.711  10.182   8.039  0.2592  0.3910  0.7838
  292MOL0     C38430   2.811  10.259   8.094  0.2625 -0.1064  0.0615
  292MOL0     C38431   2.905  10.173   8.144 -0.5516  0.1049 -0.0465
  292MOL0     C38432   3.044  10.229   8.191  0.0212  0.7940 -0.5398
  292MOL0     C38433   3.125  10.116   8.271  0.0442 -0.7089  0.4439
  292MOL0     C38434   3.255  10.171   8.309 -0.3915 -0.1938 -0.1467
  292MOL0     C38435   3.242  10.277   8.431 -0.2478  0.4983 -0.3199
  292MOL0     O38436   3.378  10.330   8.434  0.5020  0.4658 -0.4255
  292MOL0     C38437   3.423  10.414   8.533 -0.3440 -0.0890 -0.3275
  292MOL0     C38438   3.341  10.471   8.628 -0.7857  0.2823  0.3555
  292MOL0     C38439   3.391  10.569   8.716  0.0446  0.3498 -0.1854
  292MOL0     C38440   3.527  10.596   8.709 -0.3326 -0.7080 -0.5727
  292MOL0     C38441   3.579  10.701   8.796 -0.2285 -0.3736 -0.0671
  292MOL0     O38442   3.522  10.724   8.918 -0.6278 -0.5402 -0.4024
  292MOL0     C38443   3.547  10.843   8.976 -0.4984 -0.2129 -0.5328
  292MOL0     C38444   3.625  10.841   9.096 -0.1482  0.7207  1.2449
  292MOL0     C38445   3.663  10.959   9.160  0.5629 -0.7367  0.2162
  292MOL0     C38446   3.610  11.084   9.107 -0.0325  1.4532  0.2528
  292MOL0     O38447   3.631  11.210   9.156  0.0785 -0.2042 -0.4701
  292MOL0     C38448   3.699  11.241   9.275 -0.5002 -0.3882  0.5317
  292MOL0     C38449   3.705  11.392   9.289  0.2672  0.2877 -0.4505
  292MOL0     C38450   3.755  11.441   9.421 -1.0156  0.2848  0.3916
  292MOL0     C38451   3.752  11.595   9.423  0.2053 -1.3163 -0.7367
  292MOL0     C38452   3.808  11.652   9.557 -0.3199 -0.6630 -0.1587
  292MOL0     C38453   3.837  11.804   9.555  0.7586  0.7531 -0.1856
  292MOL0     C38454   3.706  11.889   9.524 -0.4348 -0.0993  0.2951
  292MOL0     C38455   3.727  12.033   9.571  0.0813  0.4129 -0.6833
  292MOL0    Cl38456   3.867  12.093   9.475 -0.1167 -0.3656  0.2909
  292MOL0     C38457   3.537  11.086   8.989  0.6053 -0.6907  0.2541
  292MOL0     C38458   3.497  10.971   8.924 -0.4923 -0.3832  0.5206
  292MOL0     O38459   3.673  10.762   8.744 -0.0871  0.5914  1.3468
  292MOL0     C38460   3.606  10.539   8.613 -0.5096  0.3635 -0.3243
  292MOL0     C38461   3.559  10.447   8.525  0.2103  0.3559  0.3138
  292MOL0     N38462   2.859  10.042   8.118  0.3944 -0.2741 -0.0192
  292MOL0     N38463   2.750  10.051   8.047  0.1130 -0.0451  0.0531
  292MOL0     C38464   1.793  10.484   8.084 -0.6650 -0.2269  0.2765
  292MOL0     C38465   1.683  10.459   8.166  0.0861 -0.5838  0.2557
  292MOL0     C38466   1.336  10.238   8.321 -0.9891  0.0092 -0.0148
  292MOL0     C38467   1.252  10.347   8.363 -0.0035  0.3849  0.7795
  292MOL0     C38468   1.132  10.320   8.431  0.4690 -0.2830  0.2430
  292MOL0     C38469   1.113  10.194   8.477  0.8468  0.5198 -0.9289
  292MOL0     O38470   1.005  10.155   8.548  1.1146 -0.0069 -0.2181
  292MOL0     C38471   0.944  10.242   8.644 -0.4520  0.6890  0.1057
  292MOL0     C38472   0.917  10.189   8.779  0.5161 -0.4730 -1.1058
  292MOL0     C38473   0.821  10.062   8.783 -0.4784  0.2089  0.6262
  292MOL0     C38474   0.688  10.093   8.726 -0.3170  0.3073  0.2277
  292MOL0     C38475   0.612  10.169   8.825  0.8222 -0.1536 -0.0220
  292MOL0     C38476   0.546  10.248   8.901 -1.0516  0.9671 -1.0016
  292MOL0     C38477   1.191  10.088   8.443 -0.7182  0.2891  0.0670
  292MOL0     C38478   1.302  10.105   8.361  0.6389  0.1242 -0.4561
  292MOL0     H38479   1.450  10.389   7.931  0.9096 -0.6356 -2.3089
  292MOL0     H38480   1.638  10.453   7.777  2.8351 -0.3626 -0.7611
  292MOL0     H38481   1.989  10.504   7.702 -0.0431  1.6327  0.1953
  292MOL0     H38482   1.829  10.480   7.670  0.9279  0.3412 -2.3898
  292MOL0     H38483   1.899  10.237   7.668 -3.3802 -0.6438  0.8890
  292MOL0     H38484   1.849  10.250   7.833 -2.6791  5.2330  2.3699
  292MOL0     H38485   2.060  10.162   7.853 -0.0052 -0.4912  0.1324
  292MOL0     H38486   2.099  10.330   7.875 -1.8961  1.6964 -1.0695
  292MOL0     H38487   2.130  10.197   7.605 -0.2584  2.9712 -1.3440
  292MOL0     H38488   2.194  10.354   7.659 -1.4926  1.3662  1.3085
  292MOL0     H38489   2.376  10.161   7.650 -0.1217 -1.6499 -0.0920
  292MOL0     H38490   2.269  10.081   7.769  1.7692 -1.0670 -2.4973
  292MOL0     H38491   2.316  10.238   7.933 -0.4908 -3.0332 -0.3735
  292MOL0     H38492   2.397  10.348   7.822  2.1830 -0.3547 -0.6632
  292MOL0     H38493   2.494  10.066   7.896 -2.6112  0.0015  1.4684
  292MOL0     H38494   2.582  10.170   7.789 -3.8665 -0.9671 -1.1826
  292MOL0     H38495   2.509  10.204   8.084  2.9042 -1.4178  1.2727
  292MOL0     H38496   2.586  10.340   7.993 -0.5851  0.0039  0.9725
  292MOL0     H38497   2.826  10.366   8.087  0.8617 -0.2659 -1.5087
  292MOL0     H38498   3.024  10.321   8.248 -1.2098 -1.3659  2.8213
  292MOL0     H38499   3.115  10.253   8.112  0.7188 -0.5746 -0.3519
  292MOL0     H38500   3.155  10.024   8.219  1.7650 -1.8708  3.2874
  292MOL0     H38501   3.078  10.083   8.364  0.3279 -2.9956 -0.1603
  292MOL0     H38502   3.327  10.090   8.326  0.5672  0.5936 -0.3402
  292MOL0     H38503   3.294  10.229   8.225 -1.4359 -0.4835 -0.8606
  292MOL0     H38504   3.211  10.213   8.514 -1.7015  0.9595 -0.4729
  292MOL0     H38505   3.164  10.353   8.414 -2.1028 -1.3154 -0.2905
  292MOL0     H38506   3.234  10.465   8.608 -0.0905 -1.4831 -3.7561
  292MOL0     H38507   3.329  10.628   8.782  0.1624  1.9896 -1.4948
  292MOL0     H38508   3.645  10.741   9.133 -1.0464  0.5253  1.2242
  292MOL0     H38509   3.718  10.955   9.254  0.1601 -1.8847  0.4184
  292MOL0     H38510   3.806  11.218   9.270 -1.0783 -3.3388  0.1631
  292MOL0     H38511   3.640  11.209   9.361  0.7469 -0.7663  1.2693
  292MOL0     H38512   3.606  11.437   9.274  0.6386  0.6733 -1.9160
  292MOL0     H38513   3.780  11.430   9.220  1.5177  2.2261  1.8395
  292MOL0     H38514   3.853  11.401   9.448 -1.0812  2.3287  4.5264
  292MOL0     H38515   3.687  11.405   9.498  0.5530 -2.9818  0.4086
  292MOL0     H38516   3.810  11.637   9.340 -0.0134  0.6203  0.0318
  292MOL0     H38517   3.647  11.621   9.404 -0.0672 -1.4437  0.4999
  292MOL0     H38518   3.896  11.590   9.576  0.1896 -0.1983 -0.9888
  292MOL0     H38519   3.743  11.624   9.641 -0.6270  1.8341  0.5160
  292MOL0     H38520   3.911  11.823   9.476 -2.6779  0.0111 -3.9347
  292MOL0     H38521   3.865  11.827   9.658 -2.8676 -1.4466  1.4739
  292MOL0     H38522   3.680  11.881   9.418  0.0547  2.3419 -0.0858
  292MOL0     H38523   3.618  11.848   9.574 -0.6213  0.5802  0.5413
  292MOL0     H38524   3.754  12.034   9.677  3.8218  0.4602 -1.4758
  292MOL0     H38525   3.645  12.104   9.566  1.8380  2.6990  0.8632
  292MOL0     H38526   3.498  11.178   8.946  0.4269  0.2663  2.3338
  292MOL0     H38527   3.443  10.976   8.830  0.8264  0.1902 -0.2263
  292MOL0     H38528   3.711  10.562   8.597 -0.2756  1.0699  1.8591
  292MOL0     H38529   3.628  10.401   8.455 -2.4828 -1.0718 -1.5664
  292MOL0     H38530   1.892  10.506   8.124 -0.1982 -1.1592 -0.3292
  292MOL0     H38531   1.686  10.469   8.274  1.4726  1.5318  0.0724
  292MOL0     H38532   1.285  10.447   8.334  1.3743 -0.5370 -1.0571
  292MOL0     H38533   1.063  10.402   8.451  0.8691  0.4915 -1.4082
  292MOL0     H38534   0.853  10.290   8.605 -1.9591 -1.9797  0.1015
  292MOL0     H38535   1.008  10.325   8.675 -0.7729  0.6231  0.9800
  292MOL0     H38536   1.008  10.183   8.839  0.5281  3.2598 -0.5386
  292MOL0     H38537   0.862  10.268   8.831 -0.0853 -0.1267 -2.2555
  292MOL0     H38538   0.811  10.016   8.882  1.5761 -1.6627  0.0396
  292MOL0     H38539   0.869   9.983   8.725 -0.0572  0.0137  1.2307
  292MOL0     H38540   0.688  10.156   8.637 -2.2087  2.4967  1.6383
  292MOL0     H38541   0.632  10.005   8.693 -0.8624 -0.1582  2.2176
  292MOL0     H38542   0.487  10.322   8.951 -2.2914  0.5887 -1.8587
  292MOL0     H38543   1.176   9.986   8.477  3.9493 -0.8105 -0.5245
  292MOL0     H38544   1.359  10.017   8.335 -0.8542 -1.2776  0.7414
  293MOL0     O38545   1.435   6.935  11.116 -0.4697  0.5914  0.0518
  293MOL0     C38546   1.405   6.833  11.185 -0.0704 -0.9456 -0.2983
  293MOL0     O38547   1.355   6.835  11.315 -0.6302 -1.0947 -0.0576
  293MOL0     C38548   1.340   6.964  11.365  0.4344 -0.8353 -0.1180
  293MOL0     C38549   1.220   7.034  11.339 -0.0512 -0.1682 -0.3950
  293MOL0     C38550   1.195   7.156  11.407 -0.2278 -0.1740  0.5746
  293MOL0     C38551   1.288   7.215  11.493  0.7683  0.2625  0.4458
  293MOL0     O38552   1.266   7.336  11.561 -0.3202 -0.4352  0.6858
  293MOL0     C38553   1.128   7.356  11.595 -0.0394  0.3954  0.1516
  293MOL0     C38554   1.110   7.455  11.707 -0.3689 -0.0422 -1.2305
  293MOL0     C38555   1.148   7.596  11.657 -0.5419  0.1549 -0.8254
  293MOL0     C38556   1.130   7.701  11.770  0.1109 -0.5365  0.1436
  293MOL0     C38557   1.140   7.845  11.743  0.1902 -0.0765 -0.1340
  293MOL0     C38558   1.044   7.900  11.638 -0.0204  0.1262 -0.4512
  293MOL0     C38559   1.075   8.049  11.605  0.1421  0.0170 -0.0824
  293MOL0     C38560   0.984   8.110  11.506 -0.8146 -0.2261  0.5135
  293MOL0     N38561   1.011   8.056  11.369  0.1443 -0.0737  0.1106
  293MOL0     C38562   1.078   8.128  11.275 -0.0413  0.0396  0.2333
  293MOL0     C38563   1.082   8.059  11.163  0.3333  0.4400 -0.5592
  293MOL0     C38564   1.119   8.098  11.017  1.0504  0.2101  0.1763
  293MOL0     C38565   1.262   8.165  11.017  0.9423  0.0291  0.1057
  293MOL0     C38566   1.302   8.208  10.875 -0.4324  0.1764  0.8205
  293MOL0     C38567   1.450   8.259  10.875 -0.3242  0.3444  0.7313
  293MOL0     O38568   1.538   8.147  10.865  0.4871  0.6381  0.7487
  293MOL0     C38569   1.562   8.094  10.743 -0.2186  0.6582 -0.8509
  293MOL0     C38570   1.611   7.965  10.737 -0.7212  0.6773  0.1792
  293MOL0     C38571   1.640   7.901  10.617 -0.0126 -0.1761  0.4870
  293MOL0     C38572   1.642   7.974  10.492  0.4702  0.3343 -0.5059
  293MOL0     C38573   1.658   7.911  10.367  0.2951 -0.5076  0.7421
  293MOL0     O38574   1.668   7.780  10.372 -0.9546  0.0984  0.8496
  293MOL0     C38575   1.705   7.708  10.256 -0.0102  0.5203 -0.1908
  293MOL0     C38576   1.633   7.728  10.138  0.9956 -0.2655 -1.0237
  293MOL0     C38577   1.674   7.659  10.025  0.5689  0.5885  0.9248
  293MOL0     C38578   1.775   7.569  10.025  0.4218 -0.8253 -0.4186
  293MOL0     O38579   1.801   7.495   9.914  0.1222 -0.4496 -0.2728
  293MOL0     C38580   1.872   7.535   9.798  0.5568 -0.3887  0.0030
  293MOL0     C38581   2.027   7.521   9.808  0.0580 -0.7384  0.8083
  293MOL0     C38582   2.068   7.385   9.852  0.5452 -0.6251 -0.1686
  293MOL0     C38583   2.223   7.357   9.862  0.3324 -0.2767 -0.9303
  293MOL0     C38584   2.289   7.406   9.735 -0.1404 -1.1176 -0.6223
  293MOL0     C38585   2.269   7.323   9.610 -0.4525 -0.0485 -0.0698
  293MOL0     C38586   2.390   7.352   9.527  0.4316 -0.4650  0.0477
  293MOL0     C38587   2.363   7.265   9.406 -0.7108 -0.2054  0.7717
  293MOL0    Cl38588   2.472   7.335   9.283 -0.0315 -0.2858 -0.0500
  293MOL0     C38589   1.856   7.558  10.139 -0.2685 -0.2612 -0.4169
  293MOL0     C38590   1.824   7.635  10.255 -0.4244 -0.1442  0.3179
  293MOL0     O38591   1.656   7.979  10.262 -0.2828  0.1521  0.5854
  293MOL0     C38592   1.590   8.103  10.499  0.1021 -0.5704 -0.8045
  293MOL0     C38593   1.541   8.161  10.619 -0.0629  0.1858 -0.7551
  293MOL0     N38594   1.007   7.948  11.200 -0.6968 -0.1772 -0.3527
  293MOL0     N38595   0.957   7.943  11.318 -0.0339 -1.1995  0.1429
  293MOL0     C38596   1.402   7.141  11.515  0.7493 -0.2931  0.0019
  293MOL0     C38597   1.427   7.020  11.457 -0.5149  0.8805  0.5737
  293MOL0     C38598   1.393   6.705  11.106 -0.1112 -0.0561 -0.8287
  293MOL0     C38599   1.416   6.578  11.176 -0.0995  0.2496  0.3054
  293MOL0     C38600   1.396   6.458  11.104 -0.4388 -0.1638  0.4956
  293MOL0     C38601   1.376   6.454  10.970 -0.5732 -0.2099  0.3990
  293MOL0     O38602   1.365   6.329  10.913  0.0910 -0.5225  0.1456
  293MOL0     C38603   1.317   6.313  10.776 -0.3726  0.5728 -0.5847
  293MOL0     C38604   1.422   6.334  10.664 -0.1824  0.3298  0.2617
  293MOL0     C38605   1.371   6.294  10.524 -0.0723 -0.6587 -0.0281
  293MOL0     C38606   1.255   6.371  10.461 -0.1445 -0.5433  0.4212
  293MOL0     C38607   1.272   6.519  10.471 -0.7371 -0.1049  0.5042
  293MOL0     C38608   1.299   6.634  10.463 -0.2853 -0.5192  0.5678
  293MOL0     C38609   1.351   6.575  10.906  0.0847 -0.5165 -0.1730
  293MOL0     C38610   1.362   6.696  10.974  0.3397  0.8622 -0.0182
  293MOL0     H38611   1.145   6.993  11.270 -2.0022  0.0129  1.5117
  293MOL0     H38612   1.098   7.198  11.386  0.8526  1.6078 -1.2077
  293MOL0     H38613   1.091   7.262  11.636 -1.5296  0.8464 -0.1105
  293MOL0     H38614   1.072   7.374  11.503 -0.0054  0.2296  0.0984
  293MOL0     H38615   1.166   7.426  11.797  0.0992  1.7703 -0.9044
  293MOL0     H38616   1.004   7.447  11.730 -0.1586 -2.4070 -0.7697
  293MOL0     H38617   1.083   7.614  11.570 -2.2249 -0.9641  0.1291
  293MOL0     H38618   1.254   7.597  11.632 -0.3564 -2.0980 -0.3960
  293MOL0     H38619   1.032   7.686  11.815  0.4946 -4.1809  0.0389
  293MOL0     H38620   1.193   7.683  11.858  2.7569 -0.5089 -1.6560
  293MOL0     H38621   1.240   7.865  11.703  0.1633 -0.4989 -0.4171
  293MOL0     H38622   1.123   7.898  11.837 -3.8393 -0.8719 -0.2404
  293MOL0     H38623   0.939   7.890  11.666 -0.6755  0.8343 -2.4375
  293MOL0     H38624   1.067   7.836  11.552  1.0474 -1.4033  0.9205
  293MOL0     H38625   1.091   8.109  11.695 -0.3031  1.9399 -1.2352
  293MOL0     H38626   1.175   8.042  11.561 -0.0744  0.0111 -0.5850
  293MOL0     H38627   0.988   8.219  11.498  0.3306 -0.4208 -2.9271
  293MOL0     H38628   0.877   8.096  11.519 -0.7693 -0.6687  0.4384
  293MOL0     H38629   1.144   8.213  11.285  2.9699 -2.3057  2.2382
  293MOL0     H38630   1.039   8.168  10.990  0.6731 -0.2810 -0.0047
  293MOL0     H38631   1.122   8.006  10.957  0.8411 -0.6656  1.4636
  293MOL0     H38632   1.332   8.093  11.059  1.4201  1.1863  1.3690
  293MOL0     H38633   1.270   8.255  11.078  5.2136 -0.7412  1.0210
  293MOL0     H38634   1.284   8.129  10.801  0.1614 -0.6293  1.5296
  293MOL0     H38635   1.220   8.279  10.858 -0.0232  0.5880  0.5495
  293MOL0     H38636   1.466   8.306  10.972  1.0574 -1.9394  1.6885
  293MOL0     H38637   1.471   8.343  10.808 -1.7597  0.1964  0.0583
  293MOL0     H38638   1.622   7.920  10.836  0.4224  3.2696  1.3334
  293MOL0     H38639   1.661   7.795  10.613 -1.3169 -0.4316 -0.0898
  293MOL0     H38640   1.539   7.783  10.132 -0.4833 -1.9921  3.0410
  293MOL0     H38641   1.626   7.667   9.928 -1.2249 -0.3782  1.6891
  293MOL0     H38642   1.830   7.633   9.773 -2.2910 -1.6906 -0.7451
  293MOL0     H38643   1.844   7.463   9.721  2.0259  0.1380 -1.0769
  293MOL0     H38644   2.058   7.593   9.884 -1.9241 -0.5739  1.5029
  293MOL0     H38645   2.060   7.561   9.711  1.2848 -0.4213  1.3323
  293MOL0     H38646   2.016   7.307   9.794  2.0703 -2.1388  0.4035
  293MOL0     H38647   2.040   7.373   9.957 -0.8362  0.5195 -0.3790
  293MOL0     H38648   2.258   7.410   9.951 -0.2095 -0.0034 -0.8785
  293MOL0     H38649   2.238   7.253   9.890  0.7988  0.9096  4.0874
  293MOL0     H38650   2.395   7.402   9.760 -0.2482 -1.6880 -0.2277
  293MOL0     H38651   2.258   7.509   9.717  0.9251 -0.9264 -1.4111
  293MOL0     H38652   2.167   7.342   9.574  0.6080  2.7995 -1.8782
  293MOL0     H38653   2.273   7.218   9.642  1.2648  0.3538  1.1552
  293MOL0     H38654   2.405   7.459   9.508 -2.4345  0.9625  4.4091
  293MOL0     H38655   2.488   7.326   9.568  2.3998  5.3037 -0.0593
  293MOL0     H38656   2.259   7.277   9.373 -0.3989  0.5384  0.0324
  293MOL0     H38657   2.377   7.158   9.427 -0.1963 -1.2214 -3.6833
  293MOL0     H38658   1.948   7.501  10.135  0.8939  0.9463  3.7584
  293MOL0     H38659   1.883   7.628  10.346 -2.7125  3.6389  2.3544
  293MOL0     H38660   1.594   8.164  10.409  2.3333 -1.8657 -1.6685
  293MOL0     H38661   1.508   8.264  10.627 -2.1620 -0.3612 -1.6757
  293MOL0     H38662   1.468   7.171  11.595  1.4119 -2.8817  0.5419
  293MOL0     H38663   1.519   6.964  11.468 -2.0296 -1.4874  2.0467
  293MOL0     H38664   1.434   6.584  11.283 -3.6991  0.9458  1.0061
  293MOL0     H38665   1.408   6.371  11.168  2.0531 -0.2311  0.0248
  293MOL0     H38666   1.243   6.393  10.765 -2.1458 -1.0780 -1.2066
  293MOL0     H38667   1.274   6.215  10.754  1.4270 -0.7002  1.2544
  293MOL0     H38668   1.435   6.442  10.667  1.0329  0.2287 -0.6311
  293MOL0     H38669   1.519   6.295  10.697  1.8436  1.6325 -3.4748
  293MOL0     H38670   1.346   6.188  10.521  1.5109 -1.0893  0.7120
  293MOL0     H38671   1.458   6.314  10.461  0.7068  2.0600  1.7026
  293MOL0     H38672   1.248   6.353  10.353  1.6829  2.6316 -0.3640
  293MOL0     H38673   1.161   6.334  10.504 -1.4856  2.3321  0.2269
  293MOL0     H38674   1.321   6.739  10.452 -1.0791 -0.4710 -0.8068
  293MOL0     H38675   1.344   6.569  10.798  3.6980 -4.0100 -0.4379
  293MOL0     H38676   1.338   6.791  10.927 -2.1283  0.8385  1.0331
  294MOL0     O38677   8.673  10.936  10.909  0.6245  1.3035  0.2767
  294MOL0     C38678   8.673  11.058  10.930 -0.8564 -0.3004 -0.5280
  294MOL0     O38679   8.739  11.116  11.034 -0.5058  0.5792 -0.1120
  294MOL0     C38680   8.817  11.035  11.118 -0.1294  0.1953  0.5089
  294MOL0     C38681   8.782  11.026  11.250 -0.3785 -0.0564  0.6585
  294MOL0     C38682   8.867  10.952  11.341  0.5174 -0.4700 -0.3897
  294MOL0     C38683   8.975  10.887  11.291 -0.2240 -0.8389  0.6250
  294MOL0     O38684   9.061  10.830  11.384 -0.3395  0.2143  0.6452
  294MOL0     C38685   9.200  10.810  11.350  0.3333 -0.3909  0.4787
  294MOL0     C38686   9.263  10.756  11.469  0.7528  0.5674 -0.6121
  294MOL0     C38687   9.399  10.715  11.443  0.7424 -0.0107 -0.7163
  294MOL0     C38688   9.458  10.681  11.587  0.0428 -0.4698  0.4350
  294MOL0     C38689   9.612  10.680  11.607  0.3935 -1.0820  0.2980
  294MOL0     C38690   9.645  10.649  11.760 -0.0671  0.6600  0.0338
  294MOL0     C38691   9.791  10.584  11.768 -0.6811  0.0205  0.2727
  294MOL0     C38692   9.793  10.464  11.859 -1.0132 -0.0552  0.2445
  294MOL0     N38693   9.934  10.416  11.875  0.1984 -0.3175 -0.0373
  294MOL0     C38694   9.985  10.355  11.996  0.1028  0.3237 -0.2611
  294MOL0     C38695  10.111  10.308  11.968  0.3192 -0.1296  0.2857
  294MOL0     C38696  10.211  10.268  12.071  0.4526  0.9501  0.1883
  294MOL0     C38697  10.209  10.107  12.077  0.4694  0.0867 -0.1660
  294MOL0     C38698  10.253  10.033  11.950  0.4446 -0.0532  0.0705
  294MOL0     C38699  10.289   9.887  11.977  0.3108 -0.4780 -0.1327
  294MOL0     O38700  10.171   9.810  11.980 -0.4232  0.5697 -0.5285
  294MOL0     C38701  10.175   9.674  11.960 -0.2405  0.0274  0.4891
  294MOL0     C38702  10.043   9.617  11.952  0.1874  0.2133 -0.2818
  294MOL0     C38703  10.039   9.479  11.944 -0.2371 -1.7912  0.1390
  294MOL0     C38704  10.151   9.399  11.923  0.2419 -0.3188 -0.2788
  294MOL0     C38705  10.135   9.256  11.892 -0.4374 -0.2795  1.1805
  294MOL0     O38706  10.247   9.178  11.867 -0.0894 -0.1495 -0.6663
  294MOL0     C38707  10.243   9.042  11.855  0.3594 -0.5117  0.5179
  294MOL0     C38708  10.306   8.978  11.750 -1.0901  0.0117  0.1710
  294MOL0     C38709  10.301   8.841  11.738 -0.2476  0.7293  0.2482
  294MOL0     C38710  10.227   8.759  11.833 -0.3243 -0.7836 -0.0574
  294MOL0     O38711  10.209   8.620  11.815 -0.7975 -0.4421  0.6297
  294MOL0     C38712  10.246   8.552  11.936  0.2530 -0.5340  0.1854
  294MOL0     C38713  10.295   8.404  11.909 -0.1806 -0.2755 -0.4746
  294MOL0     C38714  10.421   8.402  11.836  0.0766 -0.2437 -0.1825
  294MOL0     C38715  10.456   8.255  11.810 -0.8530  0.6889  0.8364
  294MOL0     C38716  10.584   8.240  11.714  0.8638 -0.0348 -0.2668
  294MOL0     C38717  10.714   8.295  11.771  0.3336  0.0075 -0.7837
  294MOL0     C38718  10.837   8.251  11.689  0.5841  0.3258  0.6801
  294MOL0     C38719  10.866   8.346  11.576 -0.5769  0.0318  0.5344
  294MOL0    Cl38720  11.022   8.282  11.506 -0.2766  0.1408 -0.5839
  294MOL0     C38721  10.172   8.831  11.947 -1.1737 -0.2795  0.1200
  294MOL0     C38722  10.173   8.967  11.951  0.0703 -0.1536  0.5416
  294MOL0     O38723  10.016   9.216  11.872  0.4405 -0.8647 -0.6695
  294MOL0     C38724  10.273   9.459  11.929 -0.4003  1.0900 -0.1611
  294MOL0     C38725  10.284   9.595  11.945 -0.8691  0.6432 -0.5001
  294MOL0     N38726  10.127  10.322  11.830 -1.0483 -0.1203  0.3133
  294MOL0     N38727  10.013  10.376  11.772 -0.4713  0.1569 -0.4934
  294MOL0     C38728   9.009  10.893  11.154  0.5949 -0.2607 -0.4044
  294MOL0     C38729   8.935  10.978  11.068 -0.0168  0.0543 -0.6723
  294MOL0     C38730   8.570  11.148  10.870 -0.6381 -0.2261 -0.2359
  294MOL0     C38731   8.455  11.096  10.803  1.4490  0.7648 -0.0494
  294MOL0     C38732   8.364  11.176  10.741 -0.0969 -0.2306  0.4438
  294MOL0     C38733   8.378  11.313  10.738 -0.4861 -0.6104  0.0917
  294MOL0     O38734   8.288  11.390  10.668  0.3968  0.0773  0.3032
  294MOL0     C38735   8.308  11.536  10.664 -1.0182 -0.1840 -0.4168
  294MOL0     C38736   8.170  11.611  10.634 -0.5253 -0.5229 -0.0021
  294MOL0     C38737   8.065  11.607  10.745  0.6316 -0.5087  0.2710
  294MOL0     C38738   8.117  11.652  10.882  0.4255 -0.2460 -0.3684
  294MOL0     C38739   8.143  11.794  10.878 -0.0327 -0.6619  0.7095
  294MOL0     C38740   8.162  11.911  10.862  0.1468 -0.6968 -0.3845
  294MOL0     C38741   8.494  11.363  10.801  0.7417  0.1916 -0.0571
  294MOL0     C38742   8.594  11.284  10.860  0.9666 -1.2627  0.0233
  294MOL0     H38743   8.688  11.071  11.280 -0.5159 -0.8291  1.4153
  294MOL0     H38744   8.848  10.936  11.447  2.2398 -1.5237 -0.2087
  294MOL0     H38745   9.259  10.900  11.331  0.2562 -0.7083 -1.4743
  294MOL0     H38746   9.213  10.746  11.262  0.0483  1.0211 -0.6287
  294MOL0     H38747   9.207  10.667  11.502 -0.6421  1.5230 -0.3180
  294MOL0     H38748   9.260  10.837  11.543 -2.1211  0.3503 -0.3503
  294MOL0     H38749   9.450  10.800  11.397 -1.5019  1.8646  0.0843
  294MOL0     H38750   9.395  10.623  11.384  1.4294  1.0660 -2.5178
  294MOL0     H38751   9.423  10.754  11.661 -1.8675  0.3341 -1.1554
  294MOL0     H38752   9.415  10.583  11.610 -1.7572  0.2801  0.4450
  294MOL0     H38753   9.649  10.779  11.577 -2.7304 -0.2305 -1.1069
  294MOL0     H38754   9.651  10.603  11.540 -0.5222 -2.0721  0.8681
  294MOL0     H38755   9.576  10.572  11.796 -2.2650  1.6230 -1.9082
  294MOL0     H38756   9.635  10.729  11.835  1.0822  1.5369 -0.7078
  294MOL0     H38757   9.820  10.549  11.668 -1.4453  0.1014  0.0124
  294MOL0     H38758   9.847  10.670  11.805 -2.6048  1.2117  0.5746
  294MOL0     H38759   9.727  10.395  11.806 -2.6592  4.2165 -3.9876
  294MOL0     H38760   9.749  10.489  11.956  0.2376  2.4513  0.2515
  294MOL0     H38761   9.937  10.355  12.093 -0.3196  0.6159 -0.4671
  294MOL0     H38762  10.177  10.295  12.172 -4.4193  3.6296 -1.8232
  294MOL0     H38763  10.312  10.303  12.050  2.0822 -2.8619  0.7858
  294MOL0     H38764  10.108  10.083  12.112  0.2151  0.5715 -0.5592
  294MOL0     H38765  10.277  10.067  12.153  1.9540 -0.5891 -1.7884
  294MOL0     H38766  10.174  10.037  11.875  0.9060 -1.8401 -0.5513
  294MOL0     H38767  10.340  10.085  11.907 -1.6977  1.7842 -2.4044
  294MOL0     H38768  10.340   9.854  12.068  0.6289 -0.2008 -0.2072
  294MOL0     H38769  10.350   9.861  11.890 -1.3798 -0.1827 -1.4459
  294MOL0     H38770   9.956   9.679  11.972  1.8121  2.8829 -0.9878
  294MOL0     H38771   9.937   9.444  11.951 -0.2283 -2.3605 -1.9526
  294MOL0     H38772  10.367   9.031  11.677 -0.4707 -0.3427  0.4213
  294MOL0     H38773  10.359   8.789  11.663  2.7469 -2.1851  4.1005
  294MOL0     H38774  10.154   8.538  11.993  0.0242  1.6437  0.4371
  294MOL0     H38775  10.315   8.613  11.995  0.0543 -0.0355 -0.0861
  294MOL0     H38776  10.212   8.357  11.856 -1.2436  2.3173 -1.2972
  294MOL0     H38777  10.319   8.355  12.004 -1.4083  2.7604  1.5539
  294MOL0     H38778  10.493   8.443  11.907 -1.0312 -0.3261  1.0304
  294MOL0     H38779  10.402   8.451  11.740 -4.0171 -1.2528 -0.0556
  294MOL0     H38780  10.474   8.194  11.898 -2.9446 -2.7992 -0.9317
  294MOL0     H38781  10.375   8.202  11.759  0.6466 -0.6992 -0.1913
  294MOL0     H38782  10.559   8.284  11.617 -1.7802 -2.5919 -0.9085
  294MOL0     H38783  10.595   8.131  11.710  3.7456  0.2340 -3.6549
  294MOL0     H38784  10.725   8.250  11.870  1.4673 -0.2407 -1.0190
  294MOL0     H38785  10.708   8.404  11.764  1.2386 -0.0475 -3.1880
  294MOL0     H38786  10.916   8.242  11.764  0.8742  1.4858  0.5304
  294MOL0     H38787  10.819   8.150  11.650  0.5404 -0.0610  1.6709
  294MOL0     H38788  10.868   8.454  11.593 -0.8163  0.3686 -1.3499
  294MOL0     H38789  10.787   8.332  11.502 -1.7356  2.2847  1.2469
  294MOL0     H38790  10.110   8.765  12.008 -0.2620 -1.8769 -0.6139
  294MOL0     H38791  10.126   9.012  12.038 -2.0413 -1.5637  0.1985
  294MOL0     H38792  10.361   9.402  11.901 -2.2358 -1.7545 -0.4609
  294MOL0     H38793  10.381   9.639  11.927  0.7026 -1.3525  2.2753
  294MOL0     H38794   9.099  10.851  11.112 -0.0551  1.4484 -3.8741
  294MOL0     H38795   8.964  10.999  10.966 -1.0511 -0.7934 -1.1655
  294MOL0     H38796   8.438  10.989  10.816  2.9322  0.3520 -1.1082
  294MOL0     H38797   8.276  11.140  10.688  2.0643  0.0631 -3.7524
  294MOL0     H38798   8.365  11.562  10.575 -0.9430  2.3435  0.3126
  294MOL0     H38799   8.355  11.584  10.751 -1.0822  2.9476 -1.9935
  294MOL0     H38800   8.198  11.715  10.615  3.8275 -1.7630 -1.3370
  294MOL0     H38801   8.127  11.576  10.540  4.7078  0.4822 -3.1993
  294MOL0     H38802   8.015  11.509  10.748 -0.1576 -0.1926 -1.1975
  294MOL0     H38803   7.985  11.673  10.709  1.0800  1.2772  2.4105
  294MOL0     H38804   8.041  11.638  10.960  2.7440  0.1021  2.0952
  294MOL0     H38805   8.201  11.604  10.931  1.8802  2.1104 -0.4058
  294MOL0     H38806   8.165  12.018  10.867 -3.0647 -0.4079 -1.8483
  294MOL0     H38807   8.523  11.466  10.817 -1.4627  0.8434  0.0167
  294MOL0     H38808   8.677  11.343  10.898 -0.3916  0.9012 -0.1999
  295MOL0     O38809   4.306   2.720   1.911  0.2496 -0.3028 -0.9016
  295MOL0     C38810   4.397   2.744   1.988 -0.4090 -0.1395  0.1371
  295MOL0     O38811   4.524   2.722   1.959  0.7333 -0.0373 -0.0033
  295MOL0     C38812   4.562   2.659   1.845  0.3545  0.4501 -0.0309
  295MOL0     C38813   4.639   2.731   1.757  0.4463  0.2771 -1.1369
  295MOL0     C38814   4.659   2.680   1.640 -0.1827  0.1292  0.2965
  295MOL0     C38815   4.631   2.544   1.608  0.6894  0.6184  0.0972
  295MOL0     O38816   4.656   2.480   1.487 -0.3969  0.5761  0.2240
  295MOL0     C38817   4.785   2.420   1.475 -0.0615 -0.2279 -0.6819
  295MOL0     C38818   4.819   2.413   1.323  0.2964 -0.5165  1.4743
  295MOL0     C38819   4.931   2.323   1.286  0.2770 -0.1745 -0.2618
  295MOL0     C38820   4.924   2.187   1.360 -0.2132 -1.4368 -0.0590
  295MOL0     C38821   5.029   2.090   1.307 -0.2229  0.3131 -0.9090
  295MOL0     C38822   5.043   1.968   1.398  0.0308 -0.1306  0.1242
  295MOL0     C38823   5.165   1.884   1.362  0.0714 -0.4809 -0.2718
  295MOL0     C38824   5.146   1.795   1.236  0.2926 -0.4918 -0.1733
  295MOL0     N38825   5.023   1.718   1.229  0.8230 -0.5130 -0.1776
  295MOL0     C38826   5.018   1.592   1.190  0.5054 -0.1275 -0.4926
  295MOL0     C38827   4.893   1.575   1.129 -0.4361  0.7032 -0.4906
  295MOL0     C38828   4.825   1.462   1.056  0.5117 -0.2921 -0.1790
  295MOL0     C38829   4.888   1.442   0.928 -0.7304 -0.2909  0.8466
  295MOL0     C38830   4.907   1.289   0.904 -0.7790 -0.3364 -0.1875
  295MOL0     C38831   5.004   1.218   0.994  0.7157 -0.8181 -0.0959
  295MOL0     O38832   5.003   1.080   0.935 -0.5882  0.3517 -0.5311
  295MOL0     C38833   5.120   1.002   0.931  0.1665 -1.6670 -0.2110
  295MOL0     C38834   5.105   0.867   0.941 -0.1912  0.1626 -0.6659
  295MOL0     C38835   5.216   0.784   0.921  0.4696 -0.3694 -0.1815
  295MOL0     C38836   5.347   0.836   0.899  0.0710 -0.0600  0.5106
  295MOL0     C38837   5.462   0.750   0.869 -0.0167 -0.0006 -0.7151
  295MOL0     O38838   5.448   0.612   0.903 -0.5333 -0.1287  0.4271
  295MOL0     C38839   5.540   0.512   0.877  0.1530  0.8346 -0.0747
  295MOL0     C38840   5.507   0.390   0.912 -0.1620 -0.0990 -0.1471
  295MOL0     C38841   5.587   0.279   0.888 -0.4127 -0.1071 -0.5306
  295MOL0     C38842   5.720   0.293   0.839  0.3940  0.1435  0.1276
  295MOL0     O38843   5.785   0.176   0.818 -0.7439 -0.4652 -0.8543
  295MOL0     C38844   5.878   0.177   0.708 -0.0191 -0.0142  0.5911
  295MOL0     C38845   5.850   0.056   0.614  0.4239 -0.5030 -0.5303
  295MOL0     C38846   5.933   0.075   0.492  0.5812 -0.0206  0.4095
  295MOL0     C38847   5.910  -0.041   0.387  0.1551 -0.0557  0.5115
  295MOL0     C38848   5.970  -0.020   0.248 -0.5944 -0.6103  0.9014
  295MOL0     C38849   5.940   0.122   0.188 -0.8669  0.1738  0.1373
  295MOL0     C38850   5.993   0.116   0.043  1.1067  0.2905  0.7435
  295MOL0     C38851   5.979   0.245  -0.037 -0.2949  0.5286  0.1621
  295MOL0    Cl38852   6.036   0.387   0.060 -0.3543 -0.2010 -0.5009
  295MOL0     C38853   5.763   0.423   0.803 -0.6805 -0.1526  0.2170
  295MOL0     C38854   5.668   0.528   0.816  0.0474  0.3933  0.1142
  295MOL0     O38855   5.556   0.801   0.809 -0.5712 -0.5483  0.5134
  295MOL0     C38856   5.355   0.979   0.897 -0.7323 -1.4007  0.1285
  295MOL0     C38857   5.243   1.059   0.909 -0.4905  0.5198  1.0530
  295MOL0     N38858   4.822   1.704   1.135 -0.0487  0.5996  0.4251
  295MOL0     N38859   4.902   1.784   1.184  0.5913 -0.3491  0.7281
  295MOL0     C38860   4.564   2.466   1.699 -1.2108 -0.9148 -0.2203
  295MOL0     C38861   4.513   2.533   1.811  0.1404  0.7024  0.1920
  295MOL0     C38862   4.359   2.800   2.123  0.8546 -0.2049  0.5669
  295MOL0     C38863   4.464   2.852   2.199  0.4517 -0.0164  0.5750
  295MOL0     C38864   4.445   2.910   2.327  0.5247  0.1753  0.1829
  295MOL0     C38865   4.313   2.904   2.389 -0.6414 -0.5591 -0.8668
  295MOL0     O38866   4.279   2.964   2.510 -0.0679 -0.2986  0.0757
  295MOL0     C38867   4.383   3.003   2.603  1.6661 -1.2852  0.1854
  295MOL0     C38868   4.407   3.149   2.579 -0.3286 -0.3618 -0.1087
  295MOL0     C38869   4.494   3.205   2.697 -0.1899 -0.6601  0.6089
  295MOL0     C38870   4.571   3.333   2.676 -0.3678  0.3458  1.0699
  295MOL0     C38871   4.487   3.451   2.669  0.0420  0.1024  0.3865
  295MOL0     C38872   4.419   3.542   2.645 -0.0888  0.0345  0.1789
  295MOL0     C38873   4.212   2.847   2.310  0.1492  0.4743  0.5003
  295MOL0     C38874   4.229   2.792   2.179 -0.7386  0.7879  0.3844
  295MOL0     H38875   4.675   2.832   1.774 -1.7227  0.7526  1.3146
  295MOL0     H38876   4.694   2.752   1.566 -0.3388  1.8308  1.8253
  295MOL0     H38877   4.785   2.325   1.529  0.8342  0.2757  0.2379
  295MOL0     H38878   4.855   2.492   1.518  2.7492 -2.2584 -1.5282
  295MOL0     H38879   4.837   2.513   1.281  1.2007 -0.2932  2.3461
  295MOL0     H38880   4.726   2.377   1.280 -0.3179  2.5862 -0.0860
  295MOL0     H38881   5.025   2.379   1.301  0.4289  0.0010 -1.7163
  295MOL0     H38882   4.933   2.303   1.179 -0.6061 -3.3391  0.2319
  295MOL0     H38883   4.963   2.203   1.461  4.3336 -3.9160 -1.1003
  295MOL0     H38884   4.832   2.129   1.366 -0.2736 -1.2686  0.7283
  295MOL0     H38885   5.130   2.132   1.303  0.3019 -0.6842  0.7665
  295MOL0     H38886   5.001   2.070   1.203  0.7373  0.3762 -1.1853
  295MOL0     H38887   4.949   1.912   1.397 -0.2315  0.2698  1.4054
  295MOL0     H38888   5.049   2.009   1.499 -4.2831 -1.1554  0.9874
  295MOL0     H38889   5.256   1.942   1.346  0.3671 -1.8545 -4.9932
  295MOL0     H38890   5.171   1.827   1.456 -4.0481  0.7085  0.9192
  295MOL0     H38891   5.231   1.728   1.222 -2.6504 -4.8526  0.6602
  295MOL0     H38892   5.144   1.867   1.154  5.2535  0.8055  0.5203
  295MOL0     H38893   5.102   1.523   1.200  2.2430  1.8804 -0.4442
  295MOL0     H38894   4.720   1.480   1.033  0.6397  0.0280 -0.5336
  295MOL0     H38895   4.832   1.374   1.120  1.0087 -2.2164 -2.7345
  295MOL0     H38896   4.985   1.493   0.921 -2.8356  4.0488 -0.0951
  295MOL0     H38897   4.833   1.482   0.842  1.1266 -0.0901 -0.3007
  295MOL0     H38898   4.814   1.236   0.925 -1.0481 -0.1796 -0.9308
  295MOL0     H38899   4.953   1.269   0.807 -0.4267 -0.7423  0.0594
  295MOL0     H38900   4.962   1.220   1.095  0.8638  2.8856  0.0202
  295MOL0     H38901   5.095   1.278   0.990 -1.0564  1.9922 -1.1302
  295MOL0     H38902   5.011   0.821   0.970  1.2696 -0.1514  4.5416
  295MOL0     H38903   5.194   0.678   0.921 -0.4421 -0.2564  2.1359
  295MOL0     H38904   5.412   0.372   0.961  0.7729 -1.2439  1.3058
  295MOL0     H38905   5.548   0.183   0.920 -0.2999 -0.1674 -0.5725
  295MOL0     H38906   5.984   0.177   0.735  0.8783  2.1302 -2.3994
  295MOL0     H38907   5.870   0.272   0.654 -0.1436  0.6611  1.7488
  295MOL0     H38908   5.745   0.058   0.583 -0.1620  0.0866  1.3230
  295MOL0     H38909   5.876  -0.041   0.656 -1.8818 -0.7636  0.4751
  295MOL0     H38910   6.038   0.064   0.520  0.7405 -1.1309 -0.5381
  295MOL0     H38911   5.920   0.174   0.445  1.0459 -0.2693 -0.2628
  295MOL0     H38912   5.947  -0.130   0.437 -2.8091  0.1178  3.3698
  295MOL0     H38913   5.803  -0.062   0.375  0.0088  0.7351  0.3554
  295MOL0     H38914   5.935  -0.096   0.178  0.6003  0.5833 -1.0745
  295MOL0     H38915   6.077  -0.038   0.262 -0.9336 -1.5826  2.5408
  295MOL0     H38916   5.996   0.198   0.243  2.8568 -1.0240 -1.6318
  295MOL0     H38917   5.834   0.147   0.192  0.1754  6.4180 -0.7254
  295MOL0     H38918   6.097   0.083   0.032  0.6640 -0.7339 -0.8065
  295MOL0     H38919   5.942   0.039  -0.015  3.7421 -0.4713 -0.7376
  295MOL0     H38920   5.878   0.266  -0.074  1.2061  1.3773 -4.1114
  295MOL0     H38921   6.033   0.226  -0.130  2.4460 -1.2869  1.9846
  295MOL0     H38922   5.865   0.439   0.768  0.7622  1.1373  4.3965
  295MOL0     H38923   5.704   0.630   0.808  0.1382  0.2800 -1.0859
  295MOL0     H38924   5.453   1.026   0.891 -1.8239  1.3465  2.2545
  295MOL0     H38925   5.254   1.166   0.893  2.8668 -0.1803 -2.8208
  295MOL0     H38926   4.548   2.362   1.676 -0.8783 -0.5064 -2.6240
  295MOL0     H38927   4.445   2.469   1.867  1.3463  1.0018  2.0842
  295MOL0     H38928   4.570   2.846   2.178  0.0655  0.5469 -1.8653
  295MOL0     H38929   4.524   2.965   2.378 -0.9881  1.1216  1.6083
  295MOL0     H38930   4.471   2.945   2.575  0.2491 -1.5832 -4.5522
  295MOL0     H38931   4.334   2.986   2.700 -2.3561  0.8774 -1.2238
  295MOL0     H38932   4.467   3.158   2.488  0.6452 -1.8436  0.3412
  295MOL0     H38933   4.308   3.194   2.572 -1.2028 -1.7808  1.9897
  295MOL0     H38934   4.578   3.139   2.721 -1.3073 -1.5503  2.3075
  295MOL0     H38935   4.434   3.220   2.788  0.5248 -0.4981  1.0639
  295MOL0     H38936   4.658   3.351   2.739  1.4727 -1.6020 -0.7311
  295MOL0     H38937   4.617   3.322   2.577 -0.3034 -2.2825  1.3076
  295MOL0     H38938   4.359   3.627   2.618  4.4446  3.0640 -1.4591
  295MOL0     H38939   4.113   2.843   2.355 -1.2917  0.4270 -2.4177
  295MOL0     H38940   4.154   2.741   2.119 -0.4288  0.7434  0.0318
  296MOL0     O38941   2.124   6.082   8.468 -0.2739  0.0374  0.1419
  296MOL0     C38942   2.122   6.161   8.378  0.0022  0.2669 -0.3477
  296MOL0     O38943   2.223   6.238   8.325 -0.2202  0.2622 -0.1778
  296MOL0     C38944   2.346   6.211   8.374 -0.7643 -0.5363  0.5193
  296MOL0     C38945   2.416   6.305   8.453  0.4037  0.3708  0.7611
  296MOL0     C38946   2.554   6.286   8.477  0.5758  0.0772 -0.3619
  296MOL0     C38947   2.614   6.172   8.435 -1.3793  1.2553 -0.4436
  296MOL0     O38948   2.746   6.137   8.467  0.2591 -0.2550 -0.5330
  296MOL0     C38949   2.835   6.220   8.547  0.3427 -0.5880 -0.4185
  296MOL0     C38950   2.934   6.144   8.635 -0.4161  0.1279  1.0355
  296MOL0     C38951   2.876   6.079   8.764 -0.4359 -0.3937  0.0249
  296MOL0     C38952   2.789   5.957   8.740 -0.1291  0.3237  0.0275
  296MOL0     C38953   2.732   5.917   8.880 -0.1708 -0.7973 -0.1419
  296MOL0     C38954   2.648   5.787   8.857 -0.7922 -0.0956  0.4419
  296MOL0     C38955   2.518   5.799   8.794  0.2894 -0.5311  0.1318
  296MOL0     C38956   2.450   5.662   8.749  0.8847  0.6890  0.7001
  296MOL0     N38957   2.306   5.669   8.745 -0.4397 -0.4919 -0.3480
  296MOL0     C38958   2.209   5.611   8.658 -0.8578 -0.3111  0.1919
  296MOL0     C38959   2.092   5.672   8.690  0.5347 -0.3064  0.0903
  296MOL0     C38960   1.950   5.651   8.634  0.3163  0.1750 -0.5669
  296MOL0     C38961   1.935   5.672   8.488  0.3881  1.3425  0.4501
  296MOL0     C38962   1.787   5.667   8.443  0.5654  0.0174  0.0650
  296MOL0     C38963   1.760   5.720   8.305 -0.3938 -0.2744 -0.6459
  296MOL0     O38964   1.831   5.627   8.219 -0.0335  0.1482  0.1350
  296MOL0     C38965   1.826   5.636   8.081 -0.4959  0.9354 -0.8805
  296MOL0     C38966   1.753   5.724   8.005 -0.0485 -0.5241 -1.2288
  296MOL0     C38967   1.744   5.710   7.868 -0.3762 -0.3858 -0.9607
  296MOL0     C38968   1.814   5.613   7.798 -0.3872  0.6218  0.0927
  296MOL0     C38969   1.816   5.618   7.643  0.3121  0.5729  0.6906
  296MOL0     O38970   1.906   5.536   7.575  0.0337  0.5764 -0.4617
  296MOL0     C38971   1.927   5.538   7.438  0.4853 -0.8151  0.2466
  296MOL0     C38972   2.058   5.525   7.384  0.1705 -0.1415 -0.2309
  296MOL0     C38973   2.077   5.507   7.246  0.1075  0.7162 -0.1608
  296MOL0     C38974   1.973   5.482   7.168 -0.5015 -0.0585  0.6601
  296MOL0     O38975   2.001   5.462   7.038  0.1788  0.0162 -0.4493
  296MOL0     C38976   1.877   5.442   6.960 -0.9463 -0.3473 -0.3125
  296MOL0     C38977   1.908   5.424   6.809 -0.1792 -0.2214  0.0244
  296MOL0     C38978   1.987   5.538   6.756 -0.6283 -0.0307 -0.0249
  296MOL0     C38979   2.051   5.500   6.619 -0.8093  0.1954  0.0518
  296MOL0     C38980   1.948   5.455   6.511  0.1096 -0.4565 -0.1240
  296MOL0     C38981   2.018   5.470   6.376 -0.2666  0.7590 -0.0527
  296MOL0     C38982   1.925   5.403   6.262 -0.1823  0.1486  0.5138
  296MOL0     C38983   1.816   5.499   6.240 -0.7812  0.2988 -0.7285
  296MOL0    Cl38984   1.710   5.437   6.120  0.3779 -0.3097 -0.3450
  296MOL0     C38985   1.842   5.492   7.230  0.8191 -0.1453  0.1901
  296MOL0     C38986   1.816   5.516   7.364  0.8124  0.5568 -0.0805
  296MOL0     O38987   1.739   5.694   7.594  0.5341  0.2285 -0.0746
  296MOL0     C38988   1.898   5.528   7.871  0.1023  0.1020 -0.5505
  296MOL0     C38989   1.897   5.532   8.016  0.7577 -0.7328  0.9284
  296MOL0     N38990   2.122   5.745   8.810  0.4099  0.1759 -0.8391
  296MOL0     N38991   2.246   5.754   8.839  1.1024  0.0286  0.2405
  296MOL0     C38992   2.548   6.079   8.362 -0.9071  1.2265  0.6771
  296MOL0     C38993   2.411   6.098   8.322  0.0402  0.4412  0.4860
  296MOL0     C38994   1.987   6.173   8.311 -0.6177  0.6685  0.7286
  296MOL0     C38995   1.979   6.214   8.173  0.2177 -1.2748 -0.9999
  296MOL0     C38996   1.856   6.200   8.106 -1.1895 -0.7471  0.0440
  296MOL0     C38997   1.746   6.161   8.172  0.1020 -0.2233  0.5119
  296MOL0     O38998   1.633   6.154   8.099 -0.3063  0.4619 -0.1320
  296MOL0     C38999   1.515   6.075   8.138 -0.0225 -0.6624 -0.0511
  296MOL0     C39000   1.422   6.063   8.018  0.1555 -0.3108 -0.3851
  296MOL0     C39001   1.311   5.980   8.056  0.0072  0.4284  0.0689
  296MOL0     C39002   1.192   5.999   7.959 -1.3807  0.2280 -0.0832
  296MOL0     C39003   1.074   5.919   7.997  1.2952  0.3566 -0.1970
  296MOL0     C39004   0.973   5.856   8.011  0.9816 -0.2389 -1.0126
  296MOL0     C39005   1.753   6.113   8.303  0.0030  0.4023  0.6852
  296MOL0     C39006   1.871   6.115   8.375 -0.4037 -0.4724  0.8738
  296MOL0     H39007   2.349   6.381   8.492 -0.2699 -0.1915  0.7299
  296MOL0     H39008   2.613   6.349   8.543 -2.0124 -0.1057  2.3621
  296MOL0     H39009   2.774   6.284   8.612  0.4628  1.1059 -1.8629
  296MOL0     H39010   2.890   6.286   8.479  2.2276 -1.6983 -0.0217
  296MOL0     H39011   3.000   6.224   8.668  0.7822  0.3226 -1.5509
  296MOL0     H39012   2.987   6.067   8.577 -1.5415  0.1280 -0.0546
  296MOL0     H39013   2.825   6.165   8.808  0.3344  1.1478 -1.9306
  296MOL0     H39014   2.960   6.059   8.832  1.6942  2.0512 -1.6860
  296MOL0     H39015   2.706   5.986   8.675  0.5218  1.2265 -0.4200
  296MOL0     H39016   2.853   5.886   8.687  1.7138  1.4445  0.6456
  296MOL0     H39017   2.657   5.991   8.907 -0.3918 -1.0211 -0.1460
  296MOL0     H39018   2.800   5.889   8.961 -1.0343 -3.3094 -0.2052
  296MOL0     H39019   2.626   5.757   8.960 -2.5962  2.8060  1.0003
  296MOL0     H39020   2.720   5.720   8.809  1.1463  2.2480 -0.0831
  296MOL0     H39021   2.459   5.846   8.873 -0.2357  0.1615 -0.6604
  296MOL0     H39022   2.523   5.861   8.704  1.4893 -2.2080 -1.0038
  296MOL0     H39023   2.489   5.593   8.824  0.8207  0.6942  0.7377
  296MOL0     H39024   2.488   5.626   8.653  3.2792 -0.0337  1.8444
  296MOL0     H39025   2.218   5.538   8.578 -2.1410 -0.2703 -0.0258
  296MOL0     H39026   1.884   5.722   8.686 -0.5430 -0.5010 -0.7008
  296MOL0     H39027   1.911   5.555   8.669 -1.2888  2.0041  3.2550
  296MOL0     H39028   1.992   5.593   8.440  0.5558  1.2281  0.8309
  296MOL0     H39029   1.979   5.769   8.461  2.1661  0.0807 -1.4546
  296MOL0     H39030   1.751   5.564   8.448 -0.1407  0.2153 -0.7551
  296MOL0     H39031   1.736   5.729   8.518  2.6530 -1.1132  2.5631
  296MOL0     H39032   1.805   5.819   8.295 -1.0385  0.1113  0.1311
  296MOL0     H39033   1.655   5.724   8.273 -0.3626  1.4035 -0.6584
  296MOL0     H39034   1.716   5.808   8.063  3.3527 -1.5355  2.9767
  296MOL0     H39035   1.683   5.775   7.806  0.4372 -0.8187 -2.2589
  296MOL0     H39036   2.147   5.530   7.448 -0.0912  2.7873  0.0161
  296MOL0     H39037   2.181   5.498   7.214 -0.4722 -0.0158 -1.9725
  296MOL0     H39038   1.807   5.524   6.974  1.2938  1.2042  3.3971
  296MOL0     H39039   1.821   5.353   6.989 -1.4052 -0.8230 -2.4662
  296MOL0     H39040   1.814   5.426   6.754 -0.6713  1.0823  0.8744
  296MOL0     H39041   1.960   5.328   6.798  3.5050  1.5281  0.5664
  296MOL0     H39042   2.072   5.552   6.823 -0.9413 -1.1455  0.6205
  296MOL0     H39043   1.933   5.632   6.744 -0.3797  0.1604  0.3244
  296MOL0     H39044   2.100   5.593   6.588 -0.2056 -0.2733 -0.4339
  296MOL0     H39045   2.121   5.417   6.632  0.1315  0.9033 -0.3348
  296MOL0     H39046   1.855   5.513   6.511 -2.3301 -3.9595 -2.3961
  296MOL0     H39047   1.927   5.347   6.514 -0.1431 -0.4045  0.0116
  296MOL0     H39048   2.110   5.411   6.371 -1.1492 -0.5979 -0.9422
  296MOL0     H39049   2.041   5.576   6.362 -0.9235  0.9261  0.0913
  296MOL0     H39050   1.997   5.377   6.184 -1.6021  2.1756 -1.6150
  296MOL0     H39051   1.876   5.311   6.297  0.0768 -0.3500 -0.4062
  296MOL0     H39052   1.850   5.602   6.224  1.1358  0.0113  1.0167
  296MOL0     H39053   1.769   5.496   6.339  1.2641  1.3527  0.3453
  296MOL0     H39054   1.756   5.479   7.166  2.1539 -3.1929 -1.1770
  296MOL0     H39055   1.720   5.516   7.413  1.8202  1.2934  1.9816
  296MOL0     H39056   1.955   5.460   7.808 -1.8855 -2.6248  0.3768
  296MOL0     H39057   1.959   5.453   8.057  0.0239 -0.9473  1.6510
  296MOL0     H39058   2.603   5.991   8.331 -0.4018  1.9954 -0.6880
  296MOL0     H39059   2.374   6.030   8.245  2.7423  0.2370 -0.7581
  296MOL0     H39060   2.069   6.239   8.117  1.6368 -0.3204  1.5530
  296MOL0     H39061   1.860   6.230   8.002  0.1032 -2.8021 -0.5457
  296MOL0     H39062   1.475   6.118   8.230 -0.1260 -0.9503  0.0371
  296MOL0     H39063   1.550   5.973   8.155 -1.1441 -0.9353  0.7331
  296MOL0     H39064   1.382   6.157   7.980 -1.0286 -1.6127 -2.5613
  296MOL0     H39065   1.472   6.012   7.935 -0.0083  1.3068 -1.5261
  296MOL0     H39066   1.266   6.024   8.146 -2.2615 -1.7210  0.1068
  296MOL0     H39067   1.336   5.874   8.070  5.7720  0.7534 -4.0874
  296MOL0     H39068   1.161   6.103   7.969 -1.0168  0.1775  2.1735
  296MOL0     H39069   1.230   5.980   7.858  1.3509  0.6301  0.7790
  296MOL0     H39070   0.884   5.804   8.041  0.0209  2.6464  1.5491
  296MOL0     H39071   1.657   6.078   8.341 -1.5036  2.0665 -1.3808
  296MOL0     H39072   1.883   6.091   8.480  3.6280  0.5332  0.8143
  297MOL0     O39073   1.521   0.825  11.289 -0.5196 -0.8398 -0.4020
  297MOL0     C39074   1.486   0.903  11.202  0.8959  0.9711 -0.5254
  297MOL0     O39075   1.531   0.901  11.075  0.4008 -0.7402 -0.5808
  297MOL0     C39076   1.645   0.845  11.050 -0.5292  0.8086 -0.4781
  297MOL0     C39077   1.758   0.919  11.011  0.3682  0.0096 -0.7551
  297MOL0     C39078   1.877   0.860  10.986  0.0263 -0.3604 -0.0627
  297MOL0     C39079   1.883   0.718  10.984 -0.5826  0.3448  0.5508
  297MOL0     O39080   2.011   0.675  10.947  0.0403  1.0088  0.6346
  297MOL0     C39081   2.017   0.532  10.938  0.1368  0.0467 -0.0101
  297MOL0     C39082   2.165   0.487  10.911  0.0337  1.4586  0.6440
  297MOL0     C39083   2.239   0.558  10.803  0.1659 -0.0084 -0.2022
  297MOL0     C39084   2.206   0.523  10.662 -0.8717  0.2323 -0.3757
  297MOL0     C39085   2.230   0.625  10.554 -0.1981 -0.1214  0.2290
  297MOL0     C39086   2.167   0.588  10.420 -0.1241 -0.8113  0.3443
  297MOL0     C39087   2.183   0.715  10.327 -1.0692 -0.0980  1.0182
  297MOL0     C39088   2.060   0.796  10.350  0.3420  0.8752 -0.6558
  297MOL0     N39089   2.081   0.922  10.286 -1.1132 -0.4749 -0.3891
  297MOL0     C39090   2.059   1.045  10.358 -0.2504  0.6984  0.1427
  297MOL0     C39091   2.084   1.137  10.269  0.1534  0.7031  1.3290
  297MOL0     C39092   2.082   1.281  10.299 -1.1616  0.3855  0.2347
  297MOL0     C39093   2.223   1.316  10.320 -0.0201  0.0761  0.3803
  297MOL0     C39094   2.248   1.473  10.324  0.1997  0.6067 -0.9766
  297MOL0     C39095   2.288   1.537  10.195  0.2687 -0.1290 -0.4789
  297MOL0     O39096   2.427   1.493  10.156  0.7694 -0.4361 -0.4102
  297MOL0     C39097   2.463   1.505  10.024  0.1126 -0.3088 -0.1542
  297MOL0     C39098   2.405   1.597   9.941  0.0560  1.0870 -0.2591
  297MOL0     C39099   2.428   1.593   9.800  0.8853 -0.2311 -0.8956
  297MOL0     C39100   2.509   1.501   9.743 -0.4698  0.5977  0.3408
  297MOL0     C39101   2.526   1.492   9.595 -1.3568  0.1259 -0.0709
  297MOL0     O39102   2.652   1.457   9.541  0.3660 -0.1055 -0.0205
  297MOL0     C39103   2.679   1.402   9.413  1.1479 -0.2433 -0.0669
  297MOL0     C39104   2.811   1.402   9.357 -0.3500  0.5326  0.0354
  297MOL0     C39105   2.839   1.345   9.235 -1.3902  1.0144  0.9939
  297MOL0     C39106   2.735   1.280   9.155 -1.0690 -0.2524  0.2001
  297MOL0     O39107   2.749   1.242   9.024 -0.4473  0.3943 -0.0177
  297MOL0     C39108   2.878   1.271   8.967  0.0574  0.8230  0.3548
  297MOL0     C39109   2.860   1.278   8.817  0.5021  0.5748 -0.9274
  297MOL0     C39110   2.967   1.191   8.749 -0.2177  0.1672  0.6433
  297MOL0     C39111   3.108   1.240   8.764  0.1793  0.3312  0.3143
  297MOL0     C39112   3.216   1.200   8.657  0.3856  0.2303  0.1581
  297MOL0     C39113   3.349   1.253   8.689 -0.0040  0.4267  1.2975
  297MOL0     C39114   3.361   1.403   8.699  0.7229  0.5310 -0.6195
  297MOL0     C39115   3.498   1.453   8.722 -0.5850  0.3827 -0.1957
  297MOL0    Cl39116   3.484   1.634   8.716 -0.3680 -0.0973 -0.7213
  297MOL0     C39117   2.600   1.285   9.207  0.0954  0.0854  0.6015
  297MOL0     C39118   2.583   1.341   9.332  0.2062  0.3065  0.7764
  297MOL0     O39119   2.427   1.515   9.526 -0.1461  0.6003  0.5436
  297MOL0     C39120   2.588   1.420   9.831 -0.5269  0.0697 -0.9381
  297MOL0     C39121   2.566   1.427   9.971 -0.5616  0.6972 -0.2714
  297MOL0     N39122   2.111   1.077  10.145 -0.0750  1.0022  1.0741
  297MOL0     N39123   2.106   0.952  10.156  0.5719 -1.0866  0.1748
  297MOL0     C39124   1.774   0.644  11.013  0.8365 -0.8003 -0.0274
  297MOL0     C39125   1.652   0.709  11.049  0.0070  0.4204 -0.6533
  297MOL0     C39126   1.388   1.001  11.237  0.5150 -0.6107 -0.2451
  297MOL0     C39127   1.314   1.007  11.359  0.0737 -0.5945  1.0351
  297MOL0     C39128   1.205   1.099  11.376 -0.8767 -0.5451  0.0735
  297MOL0     C39129   1.180   1.186  11.270 -0.7571  0.1432 -0.0732
  297MOL0     O39130   1.081   1.280  11.295 -0.4039 -0.2397 -0.3279
  297MOL0     C39131   1.072   1.396  11.210  0.5274 -0.4860  0.7301
  297MOL0     C39132   0.980   1.505  11.273  0.0954  0.7891 -0.1496
  297MOL0     C39133   0.947   1.594  11.163 -0.9080 -0.7981  0.5594
  297MOL0     C39134   0.832   1.678  11.199 -1.0520 -0.1984  0.6461
  297MOL0     C39135   0.791   1.766  11.089  0.0751  0.3319  0.4746
  297MOL0     C39136   0.757   1.830  10.990  0.1835 -0.1417  0.2783
  297MOL0     C39137   1.259   1.195  11.153  0.1048 -0.3488 -0.9272
  297MOL0     C39138   1.364   1.108  11.141  0.1935  0.1177  0.2896
  297MOL0     H39139   1.738   1.025  11.022 -3.0856 -0.6660  0.5252
  297MOL0     H39140   1.957   0.926  10.952 -2.5777  2.1825 -1.6360
  297MOL0     H39141   1.952   0.492  10.860 -0.3825  2.9614 -1.1990
  297MOL0     H39142   1.989   0.489  11.035 -1.2299 -0.1183 -0.4495
  297MOL0     H39143   2.184   0.382  10.887  0.5592  2.2633 -2.9371
  297MOL0     H39144   2.213   0.513  11.006  2.9597  1.2518 -0.6558
  297MOL0     H39145   2.346   0.534  10.812  0.7157  1.8112 -1.3626
  297MOL0     H39146   2.230   0.665  10.828 -1.0151 -0.9126  4.2066
  297MOL0     H39147   2.265   0.436  10.632  2.3056  1.0170  2.9421
  297MOL0     H39148   2.108   0.475  10.649 -1.0038  0.2306  0.5380
  297MOL0     H39149   2.339   0.624  10.552 -0.1991 -0.2296  0.2281
  297MOL0     H39150   2.207   0.726  10.589 -0.3474  0.6128 -1.8440
  297MOL0     H39151   2.062   0.561  10.428 -1.0820  1.1643 -3.4028
  297MOL0     H39152   2.211   0.495  10.382 -1.1975 -1.3915  0.4777
  297MOL0     H39153   2.275   0.773  10.344  0.1837 -1.7079  0.0774
  297MOL0     H39154   2.180   0.684  10.223 -3.3029  0.2032  0.9610
  297MOL0     H39155   2.040   0.814  10.456 -1.2275  3.1258 -1.2529
  297MOL0     H39156   1.976   0.743  10.303 -1.2638  3.1180 -0.4893
  297MOL0     H39157   2.041   1.075  10.460  4.0770  5.0278  0.0264
  297MOL0     H39158   2.021   1.309  10.386  1.0841 -1.1253  2.4088
  297MOL0     H39159   2.042   1.334  10.212  0.2616  0.2721 -0.5095
  297MOL0     H39160   2.283   1.272  10.240  0.9273  0.7037  0.7283
  297MOL0     H39161   2.254   1.291  10.422  0.0866  1.5733  0.7372
  297MOL0     H39162   2.154   1.523  10.348  0.5766  3.1091 -4.1019
  297MOL0     H39163   2.320   1.505  10.400  0.2934  4.0892 -2.3400
  297MOL0     H39164   2.282   1.644  10.214  3.4686 -0.0194  0.4411
  297MOL0     H39165   2.219   1.511  10.114  0.7377 -0.8232 -0.6611
  297MOL0     H39166   2.336   1.673   9.977 -2.4751 -1.7446  1.2499
  297MOL0     H39167   2.374   1.658   9.732 -1.4597 -0.4367  0.6795
  297MOL0     H39168   2.897   1.443   9.408  0.7956  0.1803 -1.5611
  297MOL0     H39169   2.941   1.340   9.201 -1.7806  0.5394 -0.1310
  297MOL0     H39170   2.947   1.192   8.999  0.0490  0.2124 -1.0487
  297MOL0     H39171   2.906   1.374   8.994 -1.2280  1.6226 -1.2040
  297MOL0     H39172   2.882   1.381   8.788  0.3496  2.7766  5.3309
  297MOL0     H39173   2.758   1.262   8.779 -0.2477  1.4571  0.6144
  297MOL0     H39174   2.941   1.163   8.646 -1.7151 -2.3724  1.6066
  297MOL0     H39175   2.966   1.092   8.795  1.2043 -1.3774 -2.3554
  297MOL0     H39176   3.110   1.347   8.785  0.5183  0.5346 -0.7285
  297MOL0     H39177   3.138   1.190   8.857  0.4971 -2.8567 -1.3453
  297MOL0     H39178   3.186   1.246   8.562 -2.3792 -0.1704  0.7582
  297MOL0     H39179   3.219   1.092   8.643  1.5847  0.0282  1.6538
  297MOL0     H39180   3.422   1.216   8.617 -1.4138 -0.7797  0.4469
  297MOL0     H39181   3.382   1.223   8.788 -0.6466  1.3931  1.8285
  297MOL0     H39182   3.320   1.443   8.606  3.2619  0.7598 -1.7322
  297MOL0     H39183   3.302   1.440   8.783  4.8995 -0.6201  3.1743
  297MOL0     H39184   3.561   1.417   8.640  1.3061 -1.9137  2.0612
  297MOL0     H39185   3.540   1.429   8.820  0.4007  3.2787  0.2008
  297MOL0     H39186   2.526   1.234   9.147  0.4790  1.4394 -1.1148
  297MOL0     H39187   2.479   1.322   9.359 -0.0009  0.2810 -0.0108
  297MOL0     H39188   2.676   1.368   9.794  0.7667  0.8814  0.8772
  297MOL0     H39189   2.632   1.375  10.039  0.1744 -1.7896 -2.6962
  297MOL0     H39190   1.765   0.537  10.997 -2.8693 -0.2669 -2.9446
  297MOL0     H39191   1.567   0.653  11.083  1.5207 -2.7005 -1.6414
  297MOL0     H39192   1.332   0.926  11.428 -1.0967  0.3668  2.5230
  297MOL0     H39193   1.157   1.097  11.474 -1.5556  0.8439 -0.2018
  297MOL0     H39194   1.038   1.358  11.113 -1.6964 -0.3183  1.3690
  297MOL0     H39195   1.173   1.435  11.198 -0.0990  0.7927 -0.6864
  297MOL0     H39196   0.897   1.448  11.315  1.8940 -3.7619 -2.1109
  297MOL0     H39197   1.036   1.555  11.352  1.2102 -0.8904  0.1964
  297MOL0     H39198   0.922   1.532  11.076  1.1114 -1.5982  0.4930
  297MOL0     H39199   1.040   1.646  11.135 -3.3151  2.2611 -2.7075
  297MOL0     H39200   0.749   1.613  11.228 -0.1839 -0.8720  1.7191
  297MOL0     H39201   0.853   1.737  11.289 -0.5329 -2.7635  2.3427
  297MOL0     H39202   0.728   1.898  10.912  2.5395 -0.6358 -1.1423
  297MOL0     H39203   1.227   1.261  11.072 -1.9903  0.3394  0.3813
  297MOL0     H39204   1.419   1.120  11.048  1.7721  1.0604  1.2957
  298MOL0     O39205   6.996   5.524   4.525  0.2913 -0.1085 -0.7161
  298MOL0     C39206   6.940   5.494   4.418  1.3199 -0.2192  0.1631
  298MOL0     O39207   6.904   5.376   4.380  0.9176 -0.0779  1.0854
  298MOL0     C39208   6.929   5.266   4.456  0.0052  0.1571 -0.7426
  298MOL0     C39209   7.053   5.217   4.488 -0.5250 -0.0490 -0.7891
  298MOL0     C39210   7.077   5.110   4.578  0.6210 -0.8516  0.1216
  298MOL0     C39211   6.964   5.029   4.618 -0.4185  0.7035  0.0542
  298MOL0     O39212   6.989   4.935   4.707  0.1234 -0.3175 -0.7802
  298MOL0     C39213   6.884   4.861   4.777 -0.1542 -0.6147  0.6469
  298MOL0     C39214   6.941   4.740   4.844 -0.4228 -0.0383  1.3390
  298MOL0     C39215   6.994   4.642   4.737 -0.9968 -0.2391  1.0971
  298MOL0     C39216   7.022   4.507   4.786  0.7072 -0.3610 -0.4882
  298MOL0     C39217   7.069   4.417   4.664 -0.4971  0.0533 -0.3026
  298MOL0     C39218   6.960   4.389   4.560  0.1085  0.2850 -0.1322
  298MOL0     C39219   7.008   4.293   4.442  0.0837 -0.7706 -0.4145
  298MOL0     C39220   7.116   4.365   4.355  0.1565 -0.6990 -0.2369
  298MOL0     N39221   7.074   4.366   4.213  0.7166 -0.8607  0.4204
  298MOL0     C39222   7.097   4.282   4.111 -0.2090 -0.1019 -0.6615
  298MOL0     C39223   7.065   4.342   3.995  0.4850 -0.3104 -0.2987
  298MOL0     C39224   7.054   4.268   3.859  0.0163  0.0207 -0.9285
  298MOL0     C39225   7.191   4.254   3.797  0.2127  0.1334  0.7688
  298MOL0     C39226   7.197   4.161   3.673  0.0357  0.3740  0.2334
  298MOL0     C39227   7.305   4.227   3.570  0.0598  0.8745 -0.3925
  298MOL0     O39228   7.431   4.203   3.623 -0.4635  0.0268 -0.4162
  298MOL0     C39229   7.538   4.273   3.575  0.4784  0.4312  0.1739
  298MOL0     C39230   7.538   4.358   3.469  0.3848 -0.3768 -0.5362
  298MOL0     C39231   7.655   4.427   3.432  0.0329  0.7967 -0.3256
  298MOL0     C39232   7.774   4.409   3.500 -0.5793 -0.0365  0.1355
  298MOL0     C39233   7.887   4.497   3.477 -0.0946  0.1345  0.4816
  298MOL0     O39234   7.968   4.518   3.583  1.0417 -0.2302  0.3907
  298MOL0     C39235   8.078   4.596   3.583 -0.4153 -0.8520 -0.0829
  298MOL0     C39236   8.102   4.667   3.696  0.2834  0.2809 -0.6002
  298MOL0     C39237   8.211   4.761   3.713  0.8960 -0.1144 -1.4117
  298MOL0     C39238   8.306   4.786   3.613 -0.1128  0.2677  1.1461
  298MOL0     O39239   8.409   4.879   3.610 -0.5240  0.2883  0.0538
  298MOL0     C39240   8.455   4.918   3.739  0.1029 -0.3577 -0.7034
  298MOL0     C39241   8.600   4.961   3.760  0.0282  0.7421  0.0742
  298MOL0     C39242   8.645   5.083   3.672 -0.8248 -0.0706 -0.6002
  298MOL0     C39243   8.800   5.106   3.712 -0.3200 -0.8280 -0.0988
  298MOL0     C39244   8.882   5.205   3.621  0.0537 -0.5852 -0.2383
  298MOL0     C39245   9.023   5.223   3.684  0.0998  0.4007  0.7043
  298MOL0     C39246   9.014   5.344   3.781  0.2815 -1.0250  0.0166
  298MOL0     C39247   9.134   5.358   3.875 -0.1922 -0.5221 -0.5661
  298MOL0    Cl39248   9.109   5.272   4.035 -0.1978 -0.1770 -0.0085
  298MOL0     C39249   8.276   4.719   3.496 -0.2438  0.2709  0.3035
  298MOL0     C39250   8.173   4.626   3.479  0.3140  0.1494  0.2793
  298MOL0     O39251   7.907   4.535   3.361 -0.2373 -0.0777  0.4241
  298MOL0     C39252   7.779   4.316   3.598 -0.1456 -0.4340 -0.3906
  298MOL0     C39253   7.658   4.260   3.640  1.3012  1.2452  0.1395
  298MOL0     N39254   7.037   4.470   4.023 -0.6776 -0.3917 -0.5114
  298MOL0     N39255   7.041   4.490   4.155  0.1430 -0.6375  0.0234
  298MOL0     C39256   6.840   5.079   4.574 -0.1089  0.0980  1.2383
  298MOL0     C39257   6.821   5.192   4.506 -0.2434 -0.1688 -0.8161
  298MOL0     C39258   6.930   5.609   4.330 -0.3708 -0.3052 -0.1831
  298MOL0     C39259   6.879   5.605   4.202  0.7489 -0.5051 -0.0778
  298MOL0     C39260   6.885   5.709   4.110  0.4915 -0.1217  1.2103
  298MOL0     C39261   6.955   5.822   4.140  0.0014  0.1797  0.3206
  298MOL0     O39262   6.977   5.925   4.054 -0.3464  0.8253  0.9179
  298MOL0     C39263   6.862   5.999   4.026 -0.6575  0.5061 -0.1971
  298MOL0     C39264   6.889   6.091   3.910 -0.1851 -0.2766 -0.0084
  298MOL0     C39265   6.871   6.033   3.768 -1.2059  0.0911 -0.6763
  298MOL0     C39266   6.967   6.093   3.672  0.2741  0.0248 -0.5920
  298MOL0     C39267   7.105   6.075   3.702 -0.2730 -0.8584 -0.1919
  298MOL0     C39268   7.223   6.053   3.718  0.1348  0.0870  0.2796
  298MOL0     C39269   7.010   5.832   4.262  0.1944 -0.6732 -0.2126
  298MOL0     C39270   7.002   5.725   4.355  0.5548  0.6152  0.6276
  298MOL0     H39271   7.138   5.269   4.446 -0.1065 -1.6243 -2.0301
  298MOL0     H39272   7.175   5.084   4.615  0.3829 -1.0909  0.5898
  298MOL0     H39273   6.817   4.830   4.696  2.8893 -1.8479 -1.5928
  298MOL0     H39274   6.840   4.914   4.862  0.2311  0.4802  0.1832
  298MOL0     H39275   6.855   4.696   4.897  0.6707 -1.7104  1.8169
  298MOL0     H39276   7.023   4.757   4.914  1.7174 -3.4356 -0.0847
  298MOL0     H39277   7.080   4.686   4.685 -1.7141  1.4468  1.2575
  298MOL0     H39278   6.915   4.630   4.663 -1.0330  2.1266  0.6666
  298MOL0     H39279   7.109   4.512   4.852  0.2095  3.0578  0.0563
  298MOL0     H39280   6.942   4.452   4.836 -0.9167  0.5178 -2.0026
  298MOL0     H39281   7.115   4.326   4.702  1.4946  2.2384  3.0367
  298MOL0     H39282   7.141   4.474   4.605 -4.4420  1.5506 -4.3012
  298MOL0     H39283   6.930   4.481   4.510 -2.4751 -0.7795 -0.7066
  298MOL0     H39284   6.872   4.346   4.608 -0.6979 -0.5392 -2.2282
  298MOL0     H39285   7.058   4.211   4.495 -0.2604 -2.2593 -2.3143
  298MOL0     H39286   6.929   4.244   4.384  0.7371 -0.3151 -1.7140
  298MOL0     H39287   7.215   4.319   4.361  1.9977  2.2702 -3.8405
  298MOL0     H39288   7.120   4.472   4.377 -2.2697 -0.0357 -2.4481
  298MOL0     H39289   7.109   4.175   4.123  0.6873 -0.1272 -1.6492
  298MOL0     H39290   6.971   4.315   3.805 -0.7675 -1.3504 -0.9767
  298MOL0     H39291   7.014   4.172   3.892  1.7972 -0.4954 -0.1894
  298MOL0     H39292   7.259   4.207   3.868  1.7358  2.5856  1.0352
  298MOL0     H39293   7.222   4.353   3.765 -0.1423 -0.1946 -0.6623
  298MOL0     H39294   7.227   4.059   3.699 -0.0855  0.3334  0.2184
  298MOL0     H39295   7.102   4.156   3.618  0.1756 -1.4614  0.0900
  298MOL0     H39296   7.297   4.336   3.565  4.4438  1.3437 -0.9099
  298MOL0     H39297   7.302   4.186   3.469  0.7689  2.5366 -1.1283
  298MOL0     H39298   7.446   4.370   3.412 -0.6255  0.6677  1.2487
  298MOL0     H39299   7.652   4.497   3.349  0.3816  0.7345 -0.3928
  298MOL0     H39300   8.039   4.651   3.784  0.0269  3.5294 -0.0489
  298MOL0     H39301   8.208   4.810   3.810 -2.6824 -2.5789 -0.0821
  298MOL0     H39302   8.458   4.840   3.816  0.0952 -0.3055 -0.6496
  298MOL0     H39303   8.392   4.992   3.790  2.2891  3.0550 -2.5715
  298MOL0     H39304   8.660   4.876   3.727 -1.8986  0.1374 -2.1547
  298MOL0     H39305   8.613   4.993   3.864 -2.2829  0.7562  0.4206
  298MOL0     H39306   8.599   5.181   3.688  0.6288  0.1745  3.1063
  298MOL0     H39307   8.636   5.062   3.565  0.5888  0.2645 -0.8124
  298MOL0     H39308   8.807   5.142   3.815  0.6194  1.0499 -0.7665
  298MOL0     H39309   8.857   5.014   3.699  0.3691  0.0128 -4.9565
  298MOL0     H39310   8.818   5.290   3.596 -2.3460 -2.3714 -0.5628
  298MOL0     H39311   8.892   5.153   3.525 -1.8977  1.8485 -1.8575
  298MOL0     H39312   9.091   5.239   3.600  0.3720 -1.9226  0.4164
  298MOL0     H39313   9.050   5.139   3.749 -0.9663  0.2981  1.0440
  298MOL0     H39314   9.024   5.432   3.717  4.1544 -0.8894  0.5781
  298MOL0     H39315   8.916   5.334   3.829 -0.6275  0.2887 -1.4582
  298MOL0     H39316   9.163   5.462   3.891  0.4468 -1.2530  5.0862
  298MOL0     H39317   9.211   5.306   3.818  0.0973  0.7720 -1.3724
  298MOL0     H39318   8.343   4.717   3.411  0.7459 -4.1212  0.9201
  298MOL0     H39319   8.159   4.567   3.389 -5.1513 -1.3955  1.7737
  298MOL0     H39320   7.867   4.310   3.661  0.1288 -0.0970 -0.7451
  298MOL0     H39321   7.648   4.189   3.722 -0.8790  0.9425 -0.3339
  298MOL0     H39322   6.751   5.022   4.595 -0.8318  0.9575  0.5942
  298MOL0     H39323   6.722   5.230   4.484 -0.3558 -0.3432 -0.6144
  298MOL0     H39324   6.834   5.510   4.173 -1.7402  0.6938 -0.4244
  298MOL0     H39325   6.827   5.703   4.018 -0.0729 -0.1676  1.5617
  298MOL0     H39326   6.840   6.061   4.113  2.5460 -0.4774  1.4228
  298MOL0     H39327   6.783   5.931   3.991 -1.1750  1.2418 -0.4842
  298MOL0     H39328   6.817   6.171   3.929 -0.2188 -0.0472 -1.0471
  298MOL0     H39329   6.991   6.130   3.919  0.1589 -1.5067  2.2098
  298MOL0     H39330   6.773   6.057   3.726 -0.0905  0.8714 -2.9475
  298MOL0     H39331   6.885   5.926   3.788 -0.0080  0.7867  3.0440
  298MOL0     H39332   6.945   6.036   3.581 -1.9732  1.0683 -0.7555
  298MOL0     H39333   6.943   6.199   3.662  2.2495  0.5422 -0.2935
  298MOL0     H39334   7.323   6.027   3.745  2.4169  3.2104 -3.8617
  298MOL0     H39335   7.055   5.927   4.290  0.2412 -1.0190  0.9396
  298MOL0     H39336   7.055   5.742   4.448  1.7137  0.8880 -0.0657
  299MOL0     O39337   3.353   3.845   4.719  0.2431 -0.2187 -0.2438
  299MOL0     C39338   3.282   3.860   4.621  0.0131 -0.8592 -0.1887
  299MOL0     O39339   3.309   3.940   4.507 -0.0256  0.7281 -0.1767
  299MOL0     C39340   3.405   4.046   4.502  0.6970  0.0552  0.4698
  299MOL0     C39341   3.488   4.080   4.390  0.2301 -0.1650  0.2889
  299MOL0     C39342   3.587   4.182   4.397  1.0288  0.2066 -0.6154
  299MOL0     C39343   3.610   4.248   4.514  0.6289 -0.4504  0.3122
  299MOL0     O39344   3.703   4.341   4.517 -1.1259  0.0597  0.0490
  299MOL0     C39345   3.833   4.282   4.551  0.1107  0.5302 -0.4421
  299MOL0     C39346   3.949   4.388   4.572  0.0382  0.8367  0.9749
  299MOL0     C39347   4.088   4.326   4.579 -0.3365  0.3128  0.8680
  299MOL0     C39348   4.190   4.429   4.632  0.4060  0.6568 -0.4332
  299MOL0     C39349   4.332   4.377   4.596  0.6794  0.1308 -0.7465
  299MOL0     C39350   4.439   4.417   4.696  0.1527 -0.2254  0.2394
  299MOL0     C39351   4.429   4.319   4.805  0.3169 -0.0798  0.0815
  299MOL0     C39352   4.552   4.316   4.903 -0.4040 -0.4553  0.6072
  299MOL0     N39353   4.601   4.445   4.949 -0.0099 -0.1751 -0.0463
  299MOL0     C39354   4.724   4.472   4.982  0.4749 -0.3263 -0.5553
  299MOL0     C39355   4.731   4.604   4.988  0.3644  0.9708 -0.2077
  299MOL0     C39356   4.861   4.676   4.999  0.1753  0.2063  0.3387
  299MOL0     C39357   4.960   4.612   5.101  0.9648  0.2109  0.2911
  299MOL0     C39358   5.063   4.719   5.164 -1.5305  0.2721  0.6767
  299MOL0     C39359   5.016   4.858   5.214 -0.3158  0.1770 -0.2014
  299MOL0     O39360   4.889   4.842   5.273 -0.1105  0.2728  0.6437
  299MOL0     C39361   4.832   4.963   5.309 -1.0913 -0.2523  0.0905
  299MOL0     C39362   4.888   5.094   5.339  0.7579  0.8903  0.3734
  299MOL0     C39363   4.807   5.193   5.395 -0.2708 -0.8268  0.6269
  299MOL0     C39364   4.672   5.183   5.420 -0.1081  0.3379 -0.2724
  299MOL0     C39365   4.591   5.286   5.473  0.4906 -0.3012 -0.8031
  299MOL0     O39366   4.461   5.258   5.483  0.7159  0.1531 -0.8062
  299MOL0     C39367   4.370   5.319   5.572 -0.2108 -0.2705  0.4155
  299MOL0     C39368   4.241   5.325   5.527 -0.5096 -0.7996  0.3906
  299MOL0     C39369   4.145   5.387   5.603  0.6121 -1.4646 -0.4727
  299MOL0     C39370   4.158   5.430   5.737 -0.0731  0.3442 -0.7098
  299MOL0     O39371   4.065   5.469   5.832 -0.8353  0.5720  0.0240
  299MOL0     C39372   3.943   5.517   5.780  0.5999 -0.0358  0.4372
  299MOL0     C39373   3.849   5.520   5.899  1.1518 -0.2901 -0.0173
  299MOL0     C39374   3.707   5.564   5.866  0.4500 -0.5076 -0.1435
  299MOL0     C39375   3.610   5.582   5.984  0.4757  0.0556  0.1000
  299MOL0     C39376   3.463   5.588   5.936  0.1132  0.0416  0.2044
  299MOL0     C39377   3.433   5.702   5.828 -0.5631  0.5612  0.1572
  299MOL0     C39378   3.285   5.694   5.785  0.4979 -0.9749 -0.5548
  299MOL0     C39379   3.223   5.556   5.753 -0.3794 -0.1261 -0.2042
  299MOL0    Cl39380   3.293   5.479   5.607  0.0699 -0.1182  0.1790
  299MOL0     C39381   4.290   5.416   5.782 -0.0577 -0.1811  0.1443
  299MOL0     C39382   4.394   5.366   5.697  0.0256 -0.2001  0.4755
  299MOL0     O39383   4.639   5.396   5.508 -0.1719 -0.2107 -0.3494
  299MOL0     C39384   4.616   5.054   5.390  0.8892 -0.4031 -0.5447
  299MOL0     C39385   4.688   4.954   5.337 -0.5623 -0.2256 -0.8199
  299MOL0     N39386   4.608   4.656   4.988  0.2332 -0.8786 -0.0435
  299MOL0     N39387   4.525   4.562   4.969 -0.4868 -0.3124  0.3289
  299MOL0     C39388   3.525   4.216   4.622 -0.5327 -0.5381 -0.1767
  299MOL0     C39389   3.422   4.122   4.618 -0.2070  0.2768  0.0665
  299MOL0     C39390   3.157   3.784   4.638 -0.0404 -0.1387 -0.1005
  299MOL0     C39391   3.128   3.711   4.749 -0.1836 -0.5823 -0.3345
  299MOL0     C39392   3.012   3.633   4.762  0.0191  0.3072 -0.0321
  299MOL0     C39393   2.905   3.640   4.673  1.0518 -0.1417 -0.2138
  299MOL0     O39394   2.783   3.582   4.716 -0.4371 -0.0417  0.6198
  299MOL0     C39395   2.671   3.572   4.620 -0.1447  0.6393  0.4701
  299MOL0     C39396   2.710   3.445   4.531 -1.5263  0.0785  0.9514
  299MOL0     C39397   2.593   3.389   4.455  0.1160 -1.1065 -0.8407
  299MOL0     C39398   2.622   3.244   4.420  0.9888  0.1138  0.4121
  299MOL0     C39399   2.537   3.199   4.306 -0.4233 -0.2995  0.2406
  299MOL0     C39400   2.454   3.184   4.215 -1.0994 -0.1835  0.7129
  299MOL0     C39401   2.939   3.714   4.559 -0.3713  1.0713  0.1374
  299MOL0     C39402   3.060   3.780   4.535  0.1818  1.1821  0.7801
  299MOL0     H39403   3.490   4.020   4.300 -1.0946  0.6073 -0.2826
  299MOL0     H39404   3.643   4.205   4.307  3.8723  0.6892  1.1516
  299MOL0     H39405   3.866   4.227   4.462 -1.5326  1.2749 -1.5690
  299MOL0     H39406   3.824   4.209   4.632 -0.9272 -0.1696 -1.1608
  299MOL0     H39407   3.933   4.447   4.662 -0.2239  1.9761  0.2032
  299MOL0     H39408   3.948   4.454   4.485 -0.3544 -2.7852 -2.0775
  299MOL0     H39409   4.104   4.302   4.474  2.2667 -2.0849  1.6783
  299MOL0     H39410   4.088   4.235   4.640 -3.2984 -2.4391 -2.7556
  299MOL0     H39411   4.162   4.532   4.608 -1.9673  0.0738 -0.4345
  299MOL0     H39412   4.176   4.433   4.740  1.5388  3.5067 -0.2968
  299MOL0     H39413   4.371   4.421   4.504 -0.3788  2.6551 -0.0818
  299MOL0     H39414   4.347   4.270   4.580  3.0926  0.5745 -1.8692
  299MOL0     H39415   4.433   4.523   4.720 -0.5099  0.1551 -1.4287
  299MOL0     H39416   4.535   4.396   4.647  0.0728 -3.8908  1.3684
  299MOL0     H39417   4.347   4.361   4.864  2.0182  1.8007  1.1993
  299MOL0     H39418   4.420   4.213   4.779 -0.4067 -1.0638  3.8657
  299MOL0     H39419   4.630   4.266   4.845 -1.0641 -0.7574 -0.0482
  299MOL0     H39420   4.534   4.255   4.992  0.0662  1.7303  2.2829
  299MOL0     H39421   4.809   4.406   4.966  0.7713 -0.2846  0.7489
  299MOL0     H39422   4.848   4.784   5.015  1.1376  0.5567 -1.1170
  299MOL0     H39423   4.904   4.669   4.899  1.7557  0.7091  0.9468
  299MOL0     H39424   5.017   4.535   5.049  0.3735 -2.6821  3.5921
  299MOL0     H39425   4.902   4.573   5.185  1.7124  1.2259  1.3153
  299MOL0     H39426   5.100   4.659   5.247  0.8165 -1.8836 -1.7515
  299MOL0     H39427   5.146   4.739   5.095 -3.7747  1.0011 -2.0373
  299MOL0     H39428   5.001   4.932   5.135 -0.4538  0.1901 -0.1620
  299MOL0     H39429   5.088   4.890   5.290 -1.8163 -0.9705  1.7850
  299MOL0     H39430   4.992   5.120   5.325  0.1933  2.4091 -1.3767
  299MOL0     H39431   4.861   5.287   5.400  0.5416 -1.0208 -2.3407
  299MOL0     H39432   4.231   5.284   5.427 -1.8225 -1.0512  0.6200
  299MOL0     H39433   4.050   5.409   5.556 -0.0010  0.7357  1.6343
  299MOL0     H39434   3.904   5.453   5.701 -3.0633  0.0071  2.0060
  299MOL0     H39435   3.963   5.620   5.747 -1.1265  0.6963  1.5136
  299MOL0     H39436   3.899   5.583   5.973  1.5196  0.5641 -0.9661
  299MOL0     H39437   3.839   5.421   5.946 -0.1244  1.0832  2.8678
  299MOL0     H39438   3.662   5.485   5.805 -2.2802  0.1579  0.8502
  299MOL0     H39439   3.723   5.653   5.805  1.0846 -1.2646 -1.1251
  299MOL0     H39440   3.616   5.503   6.059 -0.2591  0.5528  0.6948
  299MOL0     H39441   3.633   5.676   6.035  1.6210  1.1390 -2.2453
  299MOL0     H39442   3.388   5.597   6.015 -0.2549  0.6522 -0.1998
  299MOL0     H39443   3.446   5.490   5.889 -0.8376  0.7227 -0.9426
  299MOL0     H39444   3.485   5.682   5.734 -0.5270  0.2764  0.2378
  299MOL0     H39445   3.450   5.799   5.875 -2.3618  0.4930  1.0426
  299MOL0     H39446   3.232   5.734   5.873 -1.3385  0.3093 -2.1532
  299MOL0     H39447   3.276   5.765   5.702 -4.0068 -0.5663  0.0072
  299MOL0     H39448   3.116   5.568   5.732  0.0234  1.9765 -1.3738
  299MOL0     H39449   3.237   5.488   5.837  0.6374 -0.7121 -0.8337
  299MOL0     H39450   4.298   5.464   5.879  0.4506  2.6674 -1.2278
  299MOL0     H39451   4.494   5.387   5.732  0.1836  0.7980 -0.5079
  299MOL0     H39452   4.509   5.044   5.405  1.0159 -0.3841  0.4748
  299MOL0     H39453   4.643   4.862   5.301 -0.2810  0.2861 -2.5436
  299MOL0     H39454   3.541   4.284   4.704 -4.3295  0.8517 -0.3690
  299MOL0     H39455   3.351   4.115   4.700 -0.2004  1.4961  0.1967
  299MOL0     H39456   3.196   3.695   4.831  0.6001  2.0820 -0.3978
  299MOL0     H39457   2.992   3.570   4.848 -0.4124  0.8111  0.2460
  299MOL0     H39458   2.660   3.664   4.562 -2.3920  1.7749  2.5095
  299MOL0     H39459   2.586   3.558   4.688 -0.5327 -4.2488 -0.6007
  299MOL0     H39460   2.784   3.464   4.453 -3.0514  0.5037 -0.4602
  299MOL0     H39461   2.747   3.365   4.595 -1.1097 -1.6633 -1.3646
  299MOL0     H39462   2.571   3.446   4.365 -1.2005 -0.2360 -0.0067
  299MOL0     H39463   2.514   3.400   4.530  0.4981  3.2388 -0.8232
  299MOL0     H39464   2.728   3.230   4.400  1.1690 -2.1850  2.4737
  299MOL0     H39465   2.600   3.173   4.500  0.9273  2.5667  2.6988
  299MOL0     H39466   2.398   3.144   4.133 -1.4320 -0.3227  1.0047
  299MOL0     H39467   2.866   3.716   4.478 -1.8351 -0.0232  1.3846
  299MOL0     H39468   3.082   3.830   4.442  3.1349 -0.4518  0.4777
  300MOL0     O39469   0.338   1.945   9.457 -0.0126 -0.4249 -0.4548
  300MOL0     C39470   0.383   1.973   9.567 -0.8254 -0.2967  0.0803
  300MOL0     O39471   0.453   2.086   9.593  0.1896 -0.6982  0.4858
  300MOL0     C39472   0.438   2.195   9.514  0.7001 -0.3589 -0.2481
  300MOL0     C39473   0.382   2.314   9.566 -0.0788  0.0260  0.0590
  300MOL0     C39474   0.362   2.421   9.477  0.3761  0.0574  0.4734
  300MOL0     C39475   0.413   2.418   9.345 -0.6735  0.2807 -0.5315
  300MOL0     O39476   0.378   2.526   9.272 -0.4884  0.1567  0.3930
  300MOL0     C39477   0.424   2.540   9.137 -0.3622  0.5524  0.4199
  300MOL0     C39478   0.337   2.446   9.043  0.5046  0.5541  0.3637
  300MOL0     C39479   0.190   2.475   9.053 -0.2016 -0.4713  0.6355
  300MOL0     C39480   0.126   2.396   8.930 -0.2352 -0.6979 -0.4301
  300MOL0     C39481  -0.011   2.455   8.893  0.3385  0.5939 -0.7044
  300MOL0     C39482  -0.110   2.436   9.005 -0.3689  0.4041  0.5891
  300MOL0     C39483  -0.237   2.379   8.950  0.7219 -0.1587  0.7798
  300MOL0     C39484  -0.356   2.360   9.063 -0.4699  0.2470 -0.2592
  300MOL0     N39485  -0.312   2.258   9.158 -1.0005  0.2061 -0.7095
  300MOL0     C39486  -0.299   2.123   9.118  0.1110 -1.1299  0.8830
  300MOL0     C39487  -0.221   2.063   9.215 -0.0122 -1.0454 -0.3318
  300MOL0     C39488  -0.178   1.920   9.204  0.5523 -0.3310 -0.1399
  300MOL0     C39489  -0.055   1.900   9.114 -0.6800  0.2072 -0.3856
  300MOL0     C39490   0.072   1.959   9.172  0.0667  0.5281  0.1200
  300MOL0     C39491   0.179   1.950   9.064 -0.2060 -0.0197  0.5645
  300MOL0     O39492   0.202   1.815   9.017 -0.5786  0.1271  0.0766
  300MOL0     C39493   0.288   1.721   9.070  0.4074  0.2720  0.3755
  300MOL0     C39494   0.389   1.748   9.162  0.2893  0.4447  0.6701
  300MOL0     C39495   0.472   1.637   9.197 -0.6198  0.0785  0.4615
  300MOL0     C39496   0.466   1.511   9.136  0.1558  0.5390  0.0145
  300MOL0     C39497   0.563   1.402   9.169 -0.5223  0.9532 -0.3840
  300MOL0     O39498   0.646   1.425   9.276  0.1512 -0.5149  0.4903
  300MOL0     C39499   0.768   1.358   9.297  0.4453 -0.5395 -0.1964
  300MOL0     C39500   0.750   1.231   9.351  0.5175  0.2395  0.6608
  300MOL0     C39501   0.857   1.143   9.393  0.3800 -0.6286 -0.3635
  300MOL0     C39502   0.985   1.180   9.382 -1.1061  1.0132 -0.3532
  300MOL0     O39503   1.084   1.087   9.425  0.4895 -0.2859 -0.0560
  300MOL0     C39504   1.222   1.127   9.431  0.5854 -0.0901 -0.6048
  300MOL0     C39505   1.297   1.000   9.439  0.3013  1.1782 -0.4283
  300MOL0     C39506   1.319   0.972   9.585 -0.1448  0.2828  0.4642
  300MOL0     C39507   1.374   0.829   9.604 -0.5459 -0.2799 -1.0553
  300MOL0     C39508   1.395   0.788   9.754 -0.1969 -0.7325 -0.2702
  300MOL0     C39509   1.446   0.637   9.751  0.1725 -0.5225 -0.0806
  300MOL0     C39510   1.592   0.619   9.700  0.9733 -0.0200 -0.2145
  300MOL0     C39511   1.646   0.480   9.743  0.3485  0.4719 -0.1315
  300MOL0    Cl39512   1.804   0.450   9.669 -0.4620 -0.3035 -0.0577
  300MOL0     C39513   0.999   1.312   9.334 -0.7477  0.0414 -1.0036
  300MOL0     C39514   0.897   1.403   9.309 -0.4907 -1.0096  0.4910
  300MOL0     O39515   0.571   1.303   9.096 -0.5440  0.2947 -0.0214
  300MOL0     C39516   0.365   1.487   9.049 -0.3538 -0.5344 -0.2371
  300MOL0     C39517   0.274   1.591   9.018 -0.2229  0.4669  0.4364
  300MOL0     N39518  -0.192   2.160   9.316 -0.3036  0.3790  0.7406
  300MOL0     N39519  -0.258   2.271   9.283 -0.1806  0.3036 -0.7248
  300MOL0     C39520   0.499   2.313   9.309 -0.8518  0.1567 -0.5159
  300MOL0     C39521   0.499   2.194   9.388  0.1080  0.1314 -0.3374
  300MOL0     C39522   0.379   1.875   9.670  0.5380 -0.5185  1.0165
  300MOL0     C39523   0.399   1.913   9.792  0.6937  0.5399  0.0228
  300MOL0     C39524   0.389   1.821   9.899 -0.0011 -0.1838  0.1393
  300MOL0     C39525   0.378   1.683   9.869 -0.0380  0.0708 -0.4149
  300MOL0     O39526   0.369   1.591   9.975 -0.2776  0.4481  0.4891
  300MOL0     C39527   0.313   1.639  10.105 -0.3578  0.8147  0.2809
  300MOL0     C39528   0.292   1.525  10.203 -0.0566 -0.3858 -0.2019
  300MOL0     C39529   0.162   1.453  10.181 -0.1329 -0.0459 -0.0183
  300MOL0     C39530   0.035   1.537  10.214 -0.3796 -0.1618  1.4279
  300MOL0     C39531  -0.085   1.465  10.259 -0.3499 -0.2258 -0.4653
  300MOL0     C39532  -0.188   1.431  10.310  0.3282 -0.4934  0.6239
  300MOL0     C39533   0.358   1.646   9.738  0.0021  0.2457 -0.5034
  300MOL0     C39534   0.361   1.739   9.635  0.4742 -0.5124 -0.1067
  300MOL0     H39535   0.351   2.323   9.670 -0.0229  1.1056 -0.0140
  300MOL0     H39536   0.313   2.516   9.495 -0.6433 -0.4433  0.3804
  300MOL0     H39537   0.531   2.518   9.129 -0.1791  1.8024 -0.8777
  300MOL0     H39538   0.419   2.646   9.110  0.6360 -0.1076 -2.8733
  300MOL0     H39539   0.338   2.339   9.065  0.5764  0.2278 -1.0912
  300MOL0     H39540   0.373   2.470   8.943  4.0726  1.6961  1.7809
  300MOL0     H39541   0.181   2.583   9.035 -0.8927 -0.3875  1.4141
  300MOL0     H39542   0.139   2.456   9.148 -2.0100  1.5122  0.1330
  300MOL0     H39543   0.184   2.423   8.841  1.1301 -0.2186  0.5832
  300MOL0     H39544   0.114   2.287   8.938 -1.4757 -0.5457 -0.0000
  300MOL0     H39545  -0.035   2.405   8.799  1.1024 -1.4185  0.1176
  300MOL0     H39546  -0.007   2.559   8.859  3.2123  0.6210 -0.5040
  300MOL0     H39547  -0.141   2.526   9.059 -2.9954  0.3599 -0.7062
  300MOL0     H39548  -0.061   2.361   9.067  0.9543 -0.6510 -1.5824
  300MOL0     H39549  -0.283   2.448   8.879 -0.2211  2.4941  3.7261
  300MOL0     H39550  -0.221   2.287   8.893 -0.2874  0.0777  0.0803
  300MOL0     H39551  -0.448   2.332   9.011 -0.5511  1.3230 -0.7214
  300MOL0     H39552  -0.377   2.458   9.106 -1.1721 -0.3219  0.7485
  300MOL0     H39553  -0.353   2.071   9.040 -0.4015  2.5675 -1.4430
  300MOL0     H39554  -0.268   1.867   9.170  1.4107 -1.3488 -0.8741
  300MOL0     H39555  -0.154   1.879   9.302  0.7262 -2.7014 -1.1080
  300MOL0     H39556  -0.081   1.939   9.015 -1.3789 -1.6053 -0.9439
  300MOL0     H39557  -0.045   1.792   9.106  0.1541  0.1267  1.3748
  300MOL0     H39558   0.057   2.065   9.194  1.4681  1.3590 -2.4691
  300MOL0     H39559   0.112   1.905   9.258  1.7878 -0.6041 -1.3051
  300MOL0     H39560   0.267   2.002   9.104  0.5688  0.0311 -1.1189
  300MOL0     H39561   0.152   2.018   8.983  2.3901  0.2108 -0.2152
  300MOL0     H39562   0.409   1.849   9.195 -0.1276  0.6531  0.3035
  300MOL0     H39563   0.556   1.662   9.262  0.0775  2.0252 -1.0964
  300MOL0     H39564   0.654   1.204   9.394  1.0420 -2.7825  0.0984
  300MOL0     H39565   0.841   1.042   9.430  1.4429 -1.1265 -1.1925
  300MOL0     H39566   1.243   1.193   9.515 -0.6451 -0.5458  0.0989
  300MOL0     H39567   1.254   1.179   9.340 -0.3214 -0.1274 -0.9601
  300MOL0     H39568   1.398   1.000   9.398  1.3945 -0.8636  2.0181
  300MOL0     H39569   1.248   0.910   9.400 -2.1412  1.3465  1.9134
  300MOL0     H39570   1.220   0.962   9.630  0.1223 -0.2925  0.9502
  300MOL0     H39571   1.367   1.056   9.637 -1.2895  1.0726  0.2649
  300MOL0     H39572   1.314   0.753   9.554 -2.0581  0.8096 -0.9410
  300MOL0     H39573   1.476   0.834   9.564 -0.0919  0.2387  0.1040
  300MOL0     H39574   1.307   0.812   9.814  2.9170 -0.5536  4.8036
  300MOL0     H39575   1.481   0.846   9.787  1.7044 -4.5552  2.2623
  300MOL0     H39576   1.378   0.570   9.697  0.2322 -0.2015 -0.5626
  300MOL0     H39577   1.443   0.608   9.856 -0.5791 -3.5433 -0.8532
  300MOL0     H39578   1.595   0.630   9.592  3.4646  1.3956 -0.0586
  300MOL0     H39579   1.652   0.691   9.756  0.2468  0.4405 -0.0106
  300MOL0     H39580   1.581   0.408   9.693  0.3860  0.8885 -0.7858
  300MOL0     H39581   1.644   0.475   9.853  3.0538 -4.3231 -0.0682
  300MOL0     H39582   1.098   1.357   9.344  1.3628 -4.2408 -0.0259
  300MOL0     H39583   0.914   1.502   9.268  0.4202 -0.7183  1.5157
  300MOL0     H39584   0.353   1.390   9.003 -0.7719 -0.2440 -0.7410
  300MOL0     H39585   0.198   1.556   8.949  3.5702 -0.4624 -3.6867
  300MOL0     H39586   0.540   2.312   9.208  1.9651 -0.1300  0.5460
  300MOL0     H39587   0.555   2.106   9.356 -2.4496 -0.5198 -3.7412
  300MOL0     H39588   0.418   2.016   9.819  0.0046  1.1761 -1.7535
  300MOL0     H39589   0.380   1.846  10.004 -0.2340 -2.1913  0.6279
  300MOL0     H39590   0.223   1.701  10.102 -0.2519  1.0538  1.4966
  300MOL0     H39591   0.393   1.699  10.150 -0.4295 -0.1579  1.7720
  300MOL0     H39592   0.375   1.455  10.195 -0.6522 -1.5465  2.5962
  300MOL0     H39593   0.285   1.569  10.303 -2.3044  2.2637 -1.3882
  300MOL0     H39594   0.155   1.364  10.243 -2.4989 -1.1667 -1.7205
  300MOL0     H39595   0.153   1.408  10.081  0.4289 -2.3173  0.8985
  300MOL0     H39596   0.055   1.613  10.291 -5.4315  0.7288  2.2518
  300MOL0     H39597   0.001   1.588  10.123  0.7208 -0.3850  0.8792
  300MOL0     H39598  -0.289   1.411  10.340 -1.8352 -0.7360 -5.3361
  300MOL0     H39599   0.333   1.541   9.724  0.3214  0.0905  0.0314
  300MOL0     H39600   0.342   1.721   9.530 -0.9946 -0.2905  0.1072
  301MOL0     O39601  10.526   8.109   4.629 -0.6087 -0.4262 -0.0283
  301MOL0     C39602  10.533   8.067   4.517 -0.7895  0.2971 -0.1921
  301MOL0     O39603  10.440   8.061   4.425 -1.1788 -0.3042  0.1406
  301MOL0     C39604  10.307   8.087   4.453  0.1918  0.0368  0.2503
  301MOL0     C39605  10.221   8.033   4.362  1.0902 -0.8039 -0.5140
  301MOL0     C39606  10.078   8.049   4.362 -1.2158  0.3096 -0.4252
  301MOL0     C39607  10.014   8.116   4.481 -1.0382 -0.2212  0.4629
  301MOL0     O39608   9.881   8.132   4.509 -0.8192 -0.7064  0.7242
  301MOL0     C39609   9.783   8.089   4.416 -0.1805 -0.9544 -0.3087
  301MOL0     C39610   9.657   8.110   4.502 -0.1304  0.3923 -0.9786
  301MOL0     C39611   9.527   8.077   4.424 -1.8201  0.2834 -0.2578
  301MOL0     C39612   9.449   8.202   4.387  0.2392  0.1156  0.1818
  301MOL0     C39613   9.321   8.179   4.310  0.0403  0.4594  1.1584
  301MOL0     C39614   9.247   8.309   4.276  0.3211  0.1567 -0.3230
  301MOL0     C39615   9.103   8.272   4.235  0.2213 -0.0208 -0.5046
  301MOL0     C39616   9.081   8.191   4.108 -0.1582  0.1455 -0.3942
  301MOL0     N39617   9.083   8.261   3.979 -0.3804 -0.0319 -1.0260
  301MOL0     C39618   9.203   8.296   3.913  1.2028 -0.3244 -0.0022
  301MOL0     C39619   9.160   8.355   3.794  0.3894 -0.2740 -0.9750
  301MOL0     C39620   9.253   8.405   3.687  0.3038 -0.0707  0.0097
  301MOL0     C39621   9.229   8.324   3.562 -0.0185  0.1388 -0.1384
  301MOL0     C39622   9.265   8.173   3.570  0.0048 -0.5103 -0.3943
  301MOL0     C39623   9.412   8.147   3.579 -0.1605 -0.2137 -0.1450
  301MOL0     O39624   9.461   8.185   3.709 -0.3103 -0.3448 -0.0838
  301MOL0     C39625   9.575   8.123   3.762  0.4775 -0.0185  0.0731
  301MOL0     C39626   9.674   8.065   3.691  0.5466  0.1899  0.7001
  301MOL0     C39627   9.783   8.009   3.747 -0.2319 -0.0283  0.3932
  301MOL0     C39628   9.785   7.984   3.883  0.5431  0.0375 -0.2978
  301MOL0     C39629   9.898   7.920   3.938  0.1769  0.2195  0.0412
  301MOL0     O39630   9.996   7.882   3.847 -0.8480  0.4966  0.9264
  301MOL0     C39631  10.115   7.827   3.886 -1.1598 -0.7788  0.5741
  301MOL0     C39632  10.217   7.907   3.948 -0.3251 -0.0255  0.0430
  301MOL0     C39633  10.333   7.841   3.999 -0.0999  0.6695  0.4759
  301MOL0     C39634  10.360   7.706   3.955 -0.4093 -0.2766  0.6551
  301MOL0     O39635  10.483   7.660   3.995  0.7440  0.3042  0.6310
  301MOL0     C39636  10.502   7.523   4.022  0.5138 -0.3624  0.1988
  301MOL0     C39637  10.638   7.504   4.083  0.0863  0.3764 -0.6629
  301MOL0     C39638  10.672   7.353   4.093 -0.2725 -0.3145  1.0857
  301MOL0     C39639  10.822   7.338   4.136 -0.5532  0.2333  0.2865
  301MOL0     C39640  10.854   7.196   4.186  0.1681 -0.3842 -0.3012
  301MOL0     C39641  10.860   7.100   4.061 -0.2798 -0.0993 -0.2289
  301MOL0     C39642  10.884   6.958   4.113  0.1883  0.8121  0.2085
  301MOL0     C39643  10.867   6.858   3.994 -0.4048  0.9165 -0.4927
  301MOL0    Cl39644  10.724   6.879   3.912  0.1963 -0.0164  0.4466
  301MOL0     C39645  10.269   7.626   3.883 -0.7344  0.0606  0.1116
  301MOL0     C39646  10.148   7.692   3.853 -0.8261 -0.1565 -0.3549
  301MOL0     O39647   9.916   7.918   4.060  0.3685  0.5118 -0.1619
  301MOL0     C39648   9.680   8.030   3.957  0.0255 -0.9430 -0.1748
  301MOL0     C39649   9.574   8.111   3.899  0.7039  0.4165 -0.5193
  301MOL0     N39650   9.018   8.361   3.796  0.2658 -0.0527 -0.2993
  301MOL0     N39651   8.979   8.308   3.908 -0.5134  0.7414  0.1311
  301MOL0     C39652  10.110   8.158   4.578  0.0565 -0.5741 -0.6303
  301MOL0     C39653  10.254   8.146   4.563  0.1765  0.1192  0.2970
  301MOL0     C39654  10.660   8.002   4.479 -0.3142 -0.6181 -0.7594
  301MOL0     C39655  10.686   7.932   4.353  0.0085  0.2732 -0.7550
  301MOL0     C39656  10.809   7.851   4.335 -0.2792  0.3346 -0.8670
  301MOL0     C39657  10.905   7.857   4.435  0.2340 -0.0381  0.8295
  301MOL0     O39658  11.033   7.805   4.421  0.9865  0.2505 -0.1985
  301MOL0     C39659  11.056   7.683   4.356  0.0256 -0.3166  0.7390
  301MOL0     C39660  11.083   7.690   4.203 -0.0968  0.6108  1.0662
  301MOL0     C39661  11.129   7.551   4.146  0.0011 -0.6117 -0.3806
  301MOL0     C39662  11.132   7.554   3.994  0.0378 -1.3300  0.0544
  301MOL0     C39663  11.195   7.432   3.962 -0.5257 -0.3284  0.3560
  301MOL0     C39664  11.214   7.335   3.900  0.9370  0.2316 -1.0092
  301MOL0     C39665  10.886   7.921   4.546 -0.1374 -0.3743 -0.8718
  301MOL0     C39666  10.762   7.987   4.578  0.2350  0.6623  0.1877
  301MOL0     H39667  10.264   8.005   4.266 -0.3070  3.0188 -2.4550
  301MOL0     H39668  10.022   8.004   4.280  2.5921  0.3482 -3.2807
  301MOL0     H39669   9.801   7.986   4.387  1.0771 -0.7606 -0.3023
  301MOL0     H39670   9.768   8.143   4.322  2.1461  0.8424  0.2442
  301MOL0     H39671   9.648   8.207   4.552  2.3880 -1.3848  3.4699
  301MOL0     H39672   9.662   8.038   4.583 -0.2351  1.6568  0.1852
  301MOL0     H39673   9.461   8.018   4.489  1.2720 -0.4251  2.4953
  301MOL0     H39674   9.550   8.028   4.329 -3.8180  1.5182 -1.4448
  301MOL0     H39675   9.434   8.278   4.464  2.9153  4.5395 -3.1817
  301MOL0     H39676   9.515   8.272   4.335 -0.3000  0.7898  0.3860
  301MOL0     H39677   9.259   8.104   4.359 -0.4598 -0.9607 -1.4348
  301MOL0     H39678   9.352   8.140   4.212 -0.5361  0.4709  0.9647
  301MOL0     H39679   9.309   8.346   4.194  2.9420 -3.0960 -0.0441
  301MOL0     H39680   9.252   8.377   4.361  4.4613  0.5349 -0.6716
  301MOL0     H39681   9.061   8.217   4.320  1.2730 -0.3697 -0.1942
  301MOL0     H39682   9.034   8.356   4.219 -0.9985 -0.8967 -0.0252
  301MOL0     H39683   8.986   8.136   4.115  1.1910 -2.1533  4.2367
  301MOL0     H39684   9.157   8.113   4.109  1.8651  2.0294 -0.0204
  301MOL0     H39685   9.309   8.284   3.934  1.1325  0.6558  1.0051
  301MOL0     H39686   9.360   8.414   3.707 -0.3596  3.2858  3.2078
  301MOL0     H39687   9.232   8.504   3.646  6.5661  1.2076 -1.0074
  301MOL0     H39688   9.294   8.365   3.484 -0.1671 -1.7787 -1.3549
  301MOL0     H39689   9.128   8.325   3.519  0.1361 -0.8250 -0.5630
  301MOL0     H39690   9.218   8.125   3.657 -1.4361 -0.1475 -0.9416
  301MOL0     H39691   9.212   8.128   3.485 -0.1122  2.0607 -1.7807
  301MOL0     H39692   9.445   8.203   3.490  0.4875  1.3097  1.0156
  301MOL0     H39693   9.437   8.041   3.565  0.4853  0.1633 -2.1913
  301MOL0     H39694   9.700   8.094   3.590  1.1408 -0.8649  0.5366
  301MOL0     H39695   9.860   7.970   3.681  0.3355  0.4062  0.7955
  301MOL0     H39696  10.195   8.011   3.966  0.9948  0.1071  1.0174
  301MOL0     H39697  10.409   7.887   4.061 -0.3196 -0.9966  2.0662
  301MOL0     H39698  10.500   7.469   3.927 -3.8244  2.6074 -1.7282
  301MOL0     H39699  10.419   7.474   4.075  0.6204  0.7655  1.4732
  301MOL0     H39700  10.634   7.550   4.182 -3.0602 -0.8316 -0.1324
  301MOL0     H39701  10.714   7.549   4.018  3.0995 -2.4357  0.5905
  301MOL0     H39702  10.665   7.298   3.999  1.5643  0.4276  0.4672
  301MOL0     H39703  10.600   7.317   4.166 -2.6319  1.0700 -0.4409
  301MOL0     H39704  10.898   7.358   4.060 -1.5214  0.4244 -0.6380
  301MOL0     H39705  10.833   7.404   4.223 -2.3892 -1.6604  2.0821
  301MOL0     H39706  10.795   7.156   4.269  4.5808 -2.3237  2.2189
  301MOL0     H39707  10.953   7.208   4.229  0.2314  1.1954 -0.8318
  301MOL0     H39708  10.942   7.131   3.997 -1.6236  2.4366 -0.8629
  301MOL0     H39709  10.768   7.105   4.001 -0.6138 -2.8017 -0.0500
  301MOL0     H39710  10.982   6.943   4.160  0.5222  2.0243 -0.0707
  301MOL0     H39711  10.798   6.943   4.179 -0.6457 -0.1350 -1.0420
  301MOL0     H39712  10.858   6.758   4.036 -2.5113  1.4589  0.4518
  301MOL0     H39713  10.960   6.862   3.937  1.0672 -0.3455  1.6499
  301MOL0     H39714  10.298   7.523   3.866  1.3080  0.6393 -0.1807
  301MOL0     H39715  10.070   7.625   3.818 -0.0795 -1.1964 -0.0514
  301MOL0     H39716   9.677   8.029   4.065  0.6822  0.7799 -0.1091
  301MOL0     H39717   9.497   8.141   3.970  0.0993 -0.8418 -0.6073
  301MOL0     H39718  10.076   8.201   4.672  2.0430  1.7958 -0.8914
  301MOL0     H39719  10.320   8.181   4.643  0.7015  1.0125 -0.5052
  301MOL0     H39720  10.611   7.950   4.276  1.0573  2.7553 -1.3024
  301MOL0     H39721  10.843   7.807   4.242  2.1985 -2.4371  1.1671
  301MOL0     H39722  10.963   7.626   4.363 -0.2407 -0.6116 -3.0541
  301MOL0     H39723  11.136   7.632   4.410  1.2281  0.7194  0.0172
  301MOL0     H39724  10.995   7.724   4.148  1.4160 -1.2614 -2.9913
  301MOL0     H39725  11.158   7.767   4.181 -0.7807  1.0411  0.1631
  301MOL0     H39726  11.069   7.472   4.193 -0.2682  0.0463  0.4135
  301MOL0     H39727  11.230   7.541   4.186  0.1239 -0.6021 -0.6873
  301MOL0     H39728  11.027   7.555   3.963 -0.7394  0.4961  2.3901
  301MOL0     H39729  11.182   7.643   3.955  0.7572 -1.2545  1.1153
  301MOL0     H39730  11.216   7.239   3.853  2.3110 -0.0214 -0.4957
  301MOL0     H39731  10.961   7.902   4.623 -3.7614  0.1091  3.1800
  301MOL0     H39732  10.760   8.036   4.674 -3.0409 -2.8092  2.1532
  302MOL0     O39733   8.149   1.849  10.839 -0.6978  0.3275 -0.0976
  302MOL0     C39734   8.240   1.835  10.918 -0.8386  0.2353 -0.3517
  302MOL0     O39735   8.244   1.871  11.050 -0.0344 -0.7473  0.3355
  302MOL0     C39736   8.132   1.936  11.095 -1.1375  0.5474 -0.6022
  302MOL0     C39737   8.083   1.889  11.218  0.1370  0.4449 -0.3901
  302MOL0     C39738   7.986   1.958  11.287 -1.0577  0.5598 -0.2724
  302MOL0     C39739   7.937   2.078  11.236 -0.6673  0.4203  0.6838
  302MOL0     O39740   7.839   2.134  11.308 -0.1007 -0.4166  0.4400
  302MOL0     C39741   7.837   2.280  11.297  0.2591 -0.5781  0.6626
  302MOL0     C39742   7.764   2.341  11.424  0.2223  0.0070  0.8303
  302MOL0     C39743   7.740   2.500  11.407 -0.4502  0.1073 -0.3596
  302MOL0     C39744   7.711   2.570  11.539 -0.1638  0.0945  0.1645
  302MOL0     C39745   7.586   2.533  11.622 -0.4241  0.3123 -1.0425
  302MOL0     C39746   7.460   2.514  11.533  0.2135 -0.4407  0.3998
  302MOL0     C39747   7.395   2.647  11.476 -0.0181 -0.2593  0.3670
  302MOL0     C39748   7.369   2.766  11.571  0.3644  0.4288  1.0030
  302MOL0     N39749   7.272   2.715  11.676 -0.7054 -0.1285 -0.0516
  302MOL0     C39750   7.304   2.639  11.784  0.2550 -0.3172 -0.7469
  302MOL0     C39751   7.185   2.609  11.841 -0.5239  0.1505 -0.1495
  302MOL0     C39752   7.171   2.557  11.978 -0.4928  1.0955 -0.5062
  302MOL0     C39753   7.095   2.425  11.986 -0.0014 -0.0416  0.8647
  302MOL0     C39754   7.102   2.372  12.128  0.4852  0.0886 -0.5000
  302MOL0     C39755   6.983   2.276  12.165 -1.2047 -0.0918  0.1266
  302MOL0     O39756   7.009   2.210  12.296  0.4428 -0.6773  0.4917
  302MOL0     C39757   7.022   2.282  12.410  0.1664 -0.8192 -0.5896
  302MOL0     C39758   6.984   2.415  12.424 -0.4978  0.2320 -0.8473
  302MOL0     C39759   6.996   2.485  12.542 -0.2994 -0.4971  0.0562
  302MOL0     C39760   7.059   2.420  12.648  0.0834  0.5049  0.1126
  302MOL0     C39761   7.070   2.481  12.780  0.3084 -0.0327 -0.1997
  302MOL0     O39762   7.112   2.394  12.886  0.5701 -0.3005  0.7863
  302MOL0     C39763   7.132   2.454  13.007  0.1493  0.5222 -0.0991
  302MOL0     C39764   7.242   2.536  13.029 -0.2257  0.2770  0.0773
  302MOL0     C39765   7.263   2.601  13.150 -0.1565  1.2323 -0.9246
  302MOL0     C39766   7.175   2.592  13.257 -0.6567  0.4867 -0.3108
  302MOL0     O39767   7.193   2.651  13.372 -0.6853 -0.1512 -0.4306
  302MOL0     C39768   7.289   2.588  13.457  0.3934  0.8201 -0.5985
  302MOL0     C39769   7.259   2.662  13.586  0.6434  0.0147 -0.1379
  302MOL0     C39770   7.343   2.614  13.705 -0.7206 -0.2274 -0.9406
  302MOL0     C39771   7.290   2.691  13.827 -0.0751  0.6544 -0.4977
  302MOL0     C39772   7.351   2.637  13.953  0.0730 -0.3625 -0.4369
  302MOL0     C39773   7.289   2.706  14.078  0.6718 -0.0541 -0.5613
  302MOL0     C39774   7.352   2.670  14.212  0.2934  0.5018  1.0531
  302MOL0     C39775   7.254   2.662  14.324  0.3300 -0.3600  0.0497
  302MOL0    Cl39776   7.307   2.547  14.444 -0.1937 -0.0416  0.1044
  302MOL0     C39777   7.069   2.503  13.233  0.6574 -0.0100 -0.0768
  302MOL0     C39778   7.050   2.438  13.111  0.2128  0.2649 -0.5965
  302MOL0     O39779   7.048   2.605  12.791 -0.5804 -0.2813 -0.0279
  302MOL0     C39780   7.101   2.289  12.626 -0.1559 -0.5257  0.2854
  302MOL0     C39781   7.081   2.218  12.510 -0.6220 -0.1518 -0.2345
  302MOL0     N39782   7.089   2.667  11.762  0.6958 -0.2611 -0.1548
  302MOL0     N39783   7.141   2.735  11.666 -0.0461  0.4386 -0.0496
  302MOL0     C39784   7.981   2.123  11.113  0.1938  0.1932  0.2136
  302MOL0     C39785   8.079   2.051  11.044  0.6595 -0.6225 -0.4061
  302MOL0     C39786   8.363   1.756  10.870  0.5102 -0.1215  0.7607
  302MOL0     C39787   8.376   1.725  10.733  0.1003 -0.3529 -0.3441
  302MOL0     C39788   8.473   1.631  10.696 -0.5859  0.2566  0.2785
  302MOL0     C39789   8.556   1.572  10.785 -0.2212  1.0577 -1.0867
  302MOL0     O39790   8.661   1.477  10.756 -0.1309 -1.0152  0.0703
  302MOL0     C39791   8.698   1.473  10.618 -0.0544 -0.1355  0.1650
  302MOL0     C39792   8.765   1.343  10.578 -0.4097  0.3241 -0.7260
  302MOL0     C39793   8.713   1.226  10.659  0.3613  0.5220  0.5202
  302MOL0     C39794   8.752   1.083  10.586 -0.2956 -0.9401 -0.7254
  302MOL0     C39795   8.899   1.056  10.594 -1.1856 -1.1573 -0.4256
  302MOL0     C39796   9.023   1.050  10.603  0.4116 -0.1144 -0.6129
  302MOL0     C39797   8.547   1.604  10.924 -0.8432 -0.0291  0.3346
  302MOL0     C39798   8.449   1.694  10.966 -0.3421 -0.7402 -0.1880
  302MOL0     H39799   8.125   1.795  11.252  1.3606 -0.3940 -3.7694
  302MOL0     H39800   7.951   1.916  11.381  3.5406 -0.7897  1.0767
  302MOL0     H39801   7.775   2.301  11.209 -0.2227 -1.0182  0.8920
  302MOL0     H39802   7.937   2.323  11.290 -0.7159  1.6600 -0.8347
  302MOL0     H39803   7.820   2.312  11.513 -0.3422  1.6676  1.7779
  302MOL0     H39804   7.675   2.278  11.423  0.7762 -0.7874  0.0625
  302MOL0     H39805   7.658   2.527  11.339  0.8151 -0.3843 -2.1595
  302MOL0     H39806   7.832   2.536  11.360 -1.1477  0.2522 -1.6545
  302MOL0     H39807   7.798   2.568  11.606 -0.2889  2.3643  0.4957
  302MOL0     H39808   7.698   2.677  11.516 -0.1506 -0.6444 -4.2840
  302MOL0     H39809   7.566   2.605  11.702 -0.6170  0.4390 -1.2031
  302MOL0     H39810   7.613   2.443  11.678  0.6211  0.3569 -1.4673
  302MOL0     H39811   7.377   2.479  11.596  0.6282  0.0440  1.2297
  302MOL0     H39812   7.479   2.449  11.447 -0.3149  1.2462 -1.0715
  302MOL0     H39813   7.454   2.687  11.393  1.4050 -0.3334  1.3165
  302MOL0     H39814   7.294   2.631  11.436 -0.6672 -1.6332  2.4014
  302MOL0     H39815   7.318   2.851  11.525 -1.0189 -1.2369 -0.6898
  302MOL0     H39816   7.467   2.803  11.602  0.2761  1.2103  0.3836
  302MOL0     H39817   7.403   2.613  11.820  0.4401 -0.4087 -1.3212
  302MOL0     H39818   7.114   2.624  12.043 -0.1146 -0.3378  1.3853
  302MOL0     H39819   7.269   2.537  12.021 -1.0013  1.4018  0.8223
  302MOL0     H39820   7.162   2.363  11.925  0.5160 -0.7445  2.1243
  302MOL0     H39821   6.993   2.430  11.947  1.0059  0.5332 -1.9999
  302MOL0     H39822   7.196   2.318  12.142  0.3096 -0.5939 -1.8324
  302MOL0     H39823   7.111   2.456  12.197  0.4393  0.6365 -1.1573
  302MOL0     H39824   6.971   2.197  12.089 -0.4924 -0.0054 -0.0791
  302MOL0     H39825   6.890   2.334  12.155 -2.0130 -1.4110 -0.3652
  302MOL0     H39826   6.923   2.459  12.346 -0.2168  0.0455 -1.1781
  302MOL0     H39827   6.973   2.590  12.556  0.4460 -0.3139 -0.0150
  302MOL0     H39828   7.310   2.529  12.945 -0.5157  1.6513 -0.3080
  302MOL0     H39829   7.353   2.663  13.153  1.1520 -0.6033  1.2281
  302MOL0     H39830   7.389   2.615  13.424  1.0398  2.7437  2.4833
  302MOL0     H39831   7.267   2.481  13.466 -0.8560  1.0143 -1.0664
  302MOL0     H39832   7.151   2.648  13.597  0.3360  0.4046 -2.1715
  302MOL0     H39833   7.260   2.770  13.567 -2.4706 -0.0392 -1.1988
  302MOL0     H39834   7.452   2.629  13.708 -1.0129  1.9944  1.0222
  302MOL0     H39835   7.324   2.506  13.702  0.3472 -0.4745  0.1516
  302MOL0     H39836   7.321   2.796  13.826 -1.4915  1.1713  1.8731
  302MOL0     H39837   7.183   2.709  13.842  0.0987 -0.0621  1.9552
  302MOL0     H39838   7.460   2.645  13.945  0.0007 -1.0536 -2.5576
  302MOL0     H39839   7.324   2.531  13.961  1.8908 -0.7405  2.5904
  302MOL0     H39840   7.182   2.687  14.080  0.4046  1.2368  2.0332
  302MOL0     H39841   7.301   2.814  14.066  0.3258  0.4074  2.3494
  302MOL0     H39842   7.381   2.565  14.200 -2.5795 -0.1428 -1.8037
  302MOL0     H39843   7.439   2.732  14.233  0.7344  0.2896 -0.1146
  302MOL0     H39844   7.160   2.624  14.283 -0.1818 -1.5600  2.1901
  302MOL0     H39845   7.232   2.758  14.371 -2.3017 -1.0845  0.4767
  302MOL0     H39846   6.994   2.483  13.310  1.3524  1.7261  1.0953
  302MOL0     H39847   6.959   2.385  13.085 -0.8876  0.8525  1.8199
  302MOL0     H39848   7.158   2.241  12.704 -1.7416 -1.4078  0.9356
  302MOL0     H39849   7.106   2.113  12.501 -0.1709 -0.1903  1.1669
  302MOL0     H39850   7.945   2.215  11.068  4.5289  0.5627 -3.1585
  302MOL0     H39851   8.109   2.084  10.945 -0.2280  3.6656  0.5605
  302MOL0     H39852   8.323   1.787  10.662 -0.2261 -1.1721 -0.8341
  302MOL0     H39853   8.471   1.627  10.588  0.9222 -1.7965  0.2687
  302MOL0     H39854   8.770   1.554  10.599 -0.6233  0.8400  1.8476
  302MOL0     H39855   8.617   1.498  10.549  0.5335 -2.7362 -1.6003
  302MOL0     H39856   8.753   1.333  10.469  1.5193  1.8779 -1.1402
  302MOL0     H39857   8.872   1.348  10.602 -0.7130 -2.9944  1.9171
  302MOL0     H39858   8.604   1.233  10.671  0.4975  1.6543  1.1451
  302MOL0     H39859   8.744   1.223  10.763  1.2442  2.8219  0.3640
  302MOL0     H39860   8.698   0.992  10.613 -0.6483 -1.6512 -3.4943
  302MOL0     H39861   8.727   1.084  10.479 -5.5405 -0.4318  0.2418
  302MOL0     H39862   9.124   1.055  10.639  0.1204 -3.2374  1.0036
  302MOL0     H39863   8.601   1.553  11.003  0.8198  0.1848 -0.6142
  302MOL0     H39864   8.444   1.720  11.071 -0.2536  1.2066 -0.6280
  303MOL0     O39865  11.003   3.278  10.842  1.3566 -0.6030 -0.3380
  303MOL0     C39866  10.933   3.364  10.904 -0.8457  0.8137  1.4353
  303MOL0     O39867  10.923   3.360  11.034  0.5936 -0.7539 -0.3535
  303MOL0     C39868  11.027   3.304  11.104 -0.2144  0.7522 -0.7384
  303MOL0     C39869  11.126   3.382  11.168  0.4150  0.0599 -0.8879
  303MOL0     C39870  11.214   3.320  11.260 -0.3524 -0.9966  0.3278
  303MOL0     C39871  11.216   3.184  11.297  0.8730  0.6133  0.0662
  303MOL0     O39872  11.285   3.153  11.411 -0.5672 -0.1870  0.5398
  303MOL0     C39873  11.248   3.034  11.478 -0.1332  0.5943  0.8804
  303MOL0     C39874  11.359   3.021  11.581  0.4679 -0.0793  0.1751
  303MOL0     C39875  11.344   2.883  11.659  0.0352  0.2966  0.1868
  303MOL0     C39876  11.408   2.892  11.794  1.0853  1.0862  0.7192
  303MOL0     C39877  11.402   2.754  11.875 -0.0571 -0.4873 -0.4049
  303MOL0     C39878  11.427   2.758  12.031 -0.6139 -0.6732  0.6008
  303MOL0     C39879  11.576   2.777  12.063 -0.2369 -0.0774  0.3122
  303MOL0     C39880  11.686   2.680  12.009  0.4109 -0.2836 -0.4328
  303MOL0     N39881  11.795   2.644  12.103  1.4289 -1.2990  0.3840
  303MOL0     C39882  11.925   2.623  12.052  0.4589  0.6739  0.4133
  303MOL0     C39883  11.984   2.558  12.153 -0.0305 -0.2093  0.1347
  303MOL0     C39884  12.127   2.513  12.145 -0.5067 -0.7063  0.2933
  303MOL0     C39885  12.224   2.621  12.118  0.5141 -0.3622  0.5761
  303MOL0     C39886  12.201   2.762  12.186  0.1128 -0.0715 -0.5976
  303MOL0     C39887  12.263   2.876  12.106  0.1361 -0.2282 -0.7577
  303MOL0     O39888  12.224   2.874  11.971  0.3845 -0.7919 -0.2701
  303MOL0     C39889  12.230   2.993  11.908  0.1395 -0.0976  1.2331
  303MOL0     C39890  12.151   3.011  11.790  0.1706  0.1355  0.0031
  303MOL0     C39891  12.170   3.124  11.709 -0.4777  0.4056 -0.5170
  303MOL0     C39892  12.260   3.227  11.742  0.2381 -0.2811 -0.6632
  303MOL0     C39893  12.270   3.345  11.666  0.1921 -0.0570 -0.8409
  303MOL0     O39894  12.180   3.351  11.555  0.2860 -0.4595  0.0057
  303MOL0     C39895  12.189   3.455  11.467  0.5394 -0.0319  0.1441
  303MOL0     C39896  12.238   3.429  11.339  0.0299  0.1170 -0.1731
  303MOL0     C39897  12.283   3.539  11.259 -0.1982 -0.0963  0.5854
  303MOL0     C39898  12.278   3.670  11.308 -1.0080  0.5582 -0.8763
  303MOL0     O39899  12.313   3.774  11.225 -0.2529  0.0954 -0.1482
  303MOL0     C39900  12.440   3.772  11.158  0.4582  0.3740  0.2408
  303MOL0     C39901  12.500   3.917  11.139  0.8650 -0.1977 -0.8073
  303MOL0     C39902  12.637   3.919  11.083 -0.1420  0.7990  0.7275
  303MOL0     C39903  12.668   4.057  11.030  0.0632  0.0463 -0.4613
  303MOL0     C39904  12.805   4.050  10.971  0.7162  0.3239  0.0497
  303MOL0     C39905  12.788   4.110  10.835 -0.7220  0.4785  0.1937
  303MOL0     C39906  12.924   4.135  10.769  0.5437 -0.5514 -0.7209
  303MOL0     C39907  12.907   4.196  10.636 -0.4384 -0.0731  0.8118
  303MOL0    Cl39908  13.071   4.216  10.559  0.5395  0.6088 -0.1526
  303MOL0     C39909  12.203   3.696  11.425  0.6460  0.3414  1.0842
  303MOL0     C39910  12.161   3.591  11.507 -0.2159 -0.0460 -0.4667
  303MOL0     O39911  12.357   3.430  11.699  0.3565  0.0711  1.3733
  303MOL0     C39912  12.339   3.210  11.862  1.7180 -0.0573  0.3514
  303MOL0     C39913  12.316   3.101  11.945  0.4182 -0.2306  0.1045
  303MOL0     N39914  11.885   2.525  12.245  0.1775  0.0166 -0.9805
  303MOL0     N39915  11.774   2.572  12.206 -0.0782  0.1246  0.4975
  303MOL0     C39916  11.123   3.103  11.223  0.0170 -0.4758  0.4530
  303MOL0     C39917  11.037   3.166  11.128  0.2750  0.7282 -0.2333
  303MOL0     C39918  10.872   3.474  10.828  0.0437 -0.7857 -0.3362
  303MOL0     C39919  10.786   3.570  10.890 -0.2398  0.3787 -0.5692
  303MOL0     C39920  10.729   3.666  10.810 -0.6863 -1.0174  0.0705
  303MOL0     C39921  10.756   3.678  10.680 -0.5658  0.0021 -0.4960
  303MOL0     O39922  10.694   3.768  10.595 -0.3934 -0.6714  0.1567
  303MOL0     C39923  10.767   3.878  10.545 -0.1953  0.3726  0.9005
  303MOL0     C39924  10.791   3.875  10.396  0.9103 -0.6137  0.7228
  303MOL0     C39925  10.864   3.997  10.371  0.1349 -0.5953 -0.0879
  303MOL0     C39926  10.918   4.003  10.236  0.8289  0.0049  0.7122
  303MOL0     C39927  10.950   4.145  10.216  0.0235 -0.3471  1.1279
  303MOL0     C39928  10.979   4.256  10.209  0.6260 -0.4831 -0.1655
  303MOL0     C39929  10.839   3.580  10.620  0.4648  0.2109 -0.2840
  303MOL0     C39930  10.902   3.473  10.690  0.2527 -0.5515 -0.3948
  303MOL0     H39931  11.127   3.481  11.123 -0.1946 -1.3844 -4.3828
  303MOL0     H39932  11.289   3.383  11.307 -2.2360  1.0881  0.7243
  303MOL0     H39933  11.245   2.944  11.417  3.5915  0.6834  0.3384
  303MOL0     H39934  11.145   3.045  11.516 -1.4887 -2.1968 -1.5731
  303MOL0     H39935  11.326   3.100  11.649 -0.9367 -0.1784 -0.3672
  303MOL0     H39936  11.461   3.023  11.541  0.5233 -0.8510  0.2663
  303MOL0     H39937  11.394   2.797  11.613  0.6679  1.4515 -1.3357
  303MOL0     H39938  11.238   2.856  11.669 -0.1905  1.3506  0.7458
  303MOL0     H39939  11.513   2.917  11.780  1.5394 -0.4313  1.1799
  303MOL0     H39940  11.365   2.971  11.856 -0.0207 -0.1175  1.5664
  303MOL0     H39941  11.470   2.684  11.825  0.2217 -1.4591  1.2481
  303MOL0     H39942  11.300   2.714  11.866 -0.5230 -0.8533  4.1364
  303MOL0     H39943  11.400   2.656  12.061 -2.2765 -1.5345 -3.2008
  303MOL0     H39944  11.363   2.833  12.078 -0.8039  0.4568 -1.3478
  303MOL0     H39945  11.604   2.873  12.019  3.3310 -0.2602  1.8486
  303MOL0     H39946  11.582   2.798  12.170 -1.0622 -1.9801  0.7821
  303MOL0     H39947  11.722   2.720  11.915 -0.5660 -0.3526 -0.8452
  303MOL0     H39948  11.636   2.586  11.981 -1.0630  0.1714  0.5556
  303MOL0     H39949  11.977   2.646  11.960  1.3496 -0.0139  0.7344
  303MOL0     H39950  12.141   2.437  12.068 -1.8416  1.6338 -2.4429
  303MOL0     H39951  12.164   2.478  12.242  3.5315 -0.5702 -0.9751
  303MOL0     H39952  12.224   2.640  12.010  2.1361 -0.7197  0.4937
  303MOL0     H39953  12.322   2.585  12.150  0.6131 -1.0465 -0.4389
  303MOL0     H39954  12.094   2.780  12.203  0.4773  1.9444 -0.1855
  303MOL0     H39955  12.250   2.763  12.284 -0.6748 -0.1775 -0.1877
  303MOL0     H39956  12.371   2.870  12.119  0.0191  0.7357  0.9826
  303MOL0     H39957  12.237   2.970  12.156  0.5359 -1.5939  2.2244
  303MOL0     H39958  12.089   2.926  11.765  0.1573 -0.5844  2.2699
  303MOL0     H39959  12.102   3.128  11.624 -2.5252  2.2686  1.0648
  303MOL0     H39960  12.241   3.325  11.308  0.9320  0.6432 -2.0082
  303MOL0     H39961  12.319   3.524  11.158  1.2010  1.1546  0.8614
  303MOL0     H39962  12.425   3.730  11.058 -4.6188 -1.0839  1.3048
  303MOL0     H39963  12.513   3.698  11.193  0.8098 -0.4223 -1.9812
  303MOL0     H39964  12.502   3.962  11.239  0.6343  0.9328 -1.3076
  303MOL0     H39965  12.434   3.975  11.075  0.4330  0.9277  0.6027
  303MOL0     H39966  12.618   3.848  11.002 -0.8858  1.5451  0.2349
  303MOL0     H39967  12.719   3.887  11.149  1.4243  2.7561 -0.1667
  303MOL0     H39968  12.583   4.078  10.965 -0.2610 -1.0342 -0.4116
  303MOL0     H39969  12.663   4.121  11.118  3.8449 -0.0011 -0.0303
  303MOL0     H39970  12.853   3.951  10.966 -0.2385 -0.1870  0.7918
  303MOL0     H39971  12.863   4.110  11.042 -0.3531  0.2280  1.0225
  303MOL0     H39972  12.745   4.210  10.830 -2.0626  0.0325  1.9762
  303MOL0     H39973  12.721   4.048  10.774 -3.5004  0.4091  3.0302
  303MOL0     H39974  12.985   4.189  10.842  4.1592 -1.0042 -3.1489
  303MOL0     H39975  12.970   4.036  10.758  3.1007  0.5001 -0.0274
  303MOL0     H39976  12.848   4.287  10.647 -1.6424 -0.9156  1.5347
  303MOL0     H39977  12.850   4.121  10.580  0.1848 -2.0525  2.7026
  303MOL0     H39978  12.172   3.797  11.451  2.8554  2.1126 -2.3429
  303MOL0     H39979  12.099   3.621  11.592 -0.9301 -2.3978 -0.0671
  303MOL0     H39980  12.399   3.292  11.900  2.3224 -0.7737  0.9747
  303MOL0     H39981  12.367   3.099  12.041  0.4224  0.8724  0.1315
  303MOL0     H39982  11.123   2.995  11.230  2.1559 -0.6417 -1.1823
  303MOL0     H39983  10.962   3.100  11.084  1.4272 -1.7377  1.2865
  303MOL0     H39984  10.762   3.561  10.995 -2.3137  0.1557 -1.0268
  303MOL0     H39985  10.665   3.745  10.848 -0.0876 -0.7566  0.5442
  303MOL0     H39986  10.869   3.880  10.586  0.9534  1.1549 -1.7806
  303MOL0     H39987  10.722   3.976  10.566  2.3941  2.0872 -0.8807
  303MOL0     H39988  10.856   3.788  10.380  1.1818 -0.3492  0.3526
  303MOL0     H39989  10.700   3.866  10.336 -0.4262 -1.4564  2.7885
  303MOL0     H39990  10.939   3.995  10.450 -3.2729 -3.2819  3.5049
  303MOL0     H39991  10.795   4.079  10.392  1.1125  0.5879 -1.2983
  303MOL0     H39992  10.992   3.926  10.216 -1.9905 -3.1001  1.3728
  303MOL0     H39993  10.836   3.977  10.169  1.6542 -0.9471  0.0499
  303MOL0     H39994  11.012   4.356  10.187  0.5238 -0.2604  0.6698
  303MOL0     H39995  10.851   3.582  10.513 -3.5317 -5.2451 -1.2659
  303MOL0     H39996  10.957   3.402  10.630 -1.3799  0.6636 -3.5758
  304MOL0     O39997   5.481   1.116   3.456  1.2807 -0.1369 -0.8109
  304MOL0     C39998   5.588   1.072   3.502 -1.4084 -0.1330  0.0313
  304MOL0     O39999   5.606   0.967   3.588 -0.6862  0.0512  0.2388
  304MOL0     C40000   5.502   0.885   3.624 -1.2519  0.5248 -0.0168
  304MOL0     C40001   5.531   0.738   3.616  0.0378 -0.7248  0.0621
  304MOL0     C40002   5.429   0.648   3.653 -0.0649 -0.0676 -0.2373
  304MOL0     C40003   5.313   0.693   3.706 -0.6886  0.2171  0.0581
  304MOL0     O40004   5.234   0.593   3.764 -0.1722  0.1186  0.3908
  304MOL0     C40005   5.097   0.615   3.809  0.4822  0.0703 -0.0102
  304MOL0     C40006   4.985   0.599   3.705 -0.5218 -0.0138 -0.1503
  304MOL0     C40007   4.986   0.459   3.635  0.0890  0.5433  0.3329
  304MOL0     C40008   4.913   0.454   3.501 -0.2636 -0.0804  0.0771
  304MOL0     C40009   4.797   0.349   3.508 -0.3670 -0.0805 -0.3728
  304MOL0     C40010   4.668   0.396   3.579 -1.0600  0.7273 -0.2661
  304MOL0     C40011   4.580   0.275   3.627  0.1208 -0.7346 -0.0571
  304MOL0     C40012   4.457   0.311   3.704  0.1991 -0.4816 -0.1882
  304MOL0     N40013   4.411   0.198   3.782  0.0875  0.0419 -0.5776
  304MOL0     C40014   4.344   0.084   3.740 -0.0200  1.1126 -0.1298
  304MOL0     C40015   4.330  -0.006   3.841 -1.0693 -0.1679  0.2965
  304MOL0     C40016   4.283  -0.151   3.840 -0.8055  0.6157  0.0310
  304MOL0     C40017   4.148  -0.159   3.770  0.5170 -0.3291 -0.1436
  304MOL0     C40018   4.040  -0.087   3.847  0.1612 -0.6840  0.2915
  304MOL0     C40019   3.903  -0.123   3.785  0.4868 -0.6601 -0.4057
  304MOL0     O40020   3.879  -0.264   3.791 -0.3604 -1.0787 -0.6942
  304MOL0     C40021   3.766  -0.313   3.736  0.3930  0.2418 -0.2799
  304MOL0     C40022   3.691  -0.391   3.821  0.3619 -0.4772 -0.0084
  304MOL0     C40023   3.576  -0.456   3.762 -0.5151 -0.9972 -0.5913
  304MOL0     C40024   3.524  -0.437   3.634 -0.5357  0.4416 -0.9769
  304MOL0     C40025   3.410  -0.520   3.569  0.0553 -0.3962  0.5320
  304MOL0     O40026   3.337  -0.592   3.657  0.1206 -0.6671 -0.1563
  304MOL0     C40027   3.237  -0.673   3.610  0.0003  0.5987  0.6935
  304MOL0     C40028   3.133  -0.629   3.529 -0.0198 -0.3996  0.6889
  304MOL0     C40029   3.035  -0.725   3.487  0.1650 -0.6713 -0.0143
  304MOL0     C40030   3.025  -0.850   3.539  0.2447 -0.8203  0.4770
  304MOL0     O40031   2.929  -0.943   3.510 -0.7302  0.0124 -0.2490
  304MOL0     C40032   2.849  -0.931   3.393 -0.4080  0.0661  0.5200
  304MOL0     C40033   2.746  -1.049   3.367 -0.8070  0.9898  0.6929
  304MOL0     C40034   2.818  -1.183   3.334  0.9805  0.2133 -0.1045
  304MOL0     C40035   2.722  -1.301   3.330 -0.8574 -0.1158  0.1585
  304MOL0     C40036   2.801  -1.431   3.291 -0.1572  1.3918 -0.1265
  304MOL0     C40037   2.891  -1.420   3.161  0.3901  0.1221  0.2137
  304MOL0     C40038   2.941  -1.550   3.094  0.7546 -0.7837 -0.1677
  304MOL0     C40039   2.933  -1.535   2.942 -0.1887 -0.1172 -0.3485
  304MOL0    Cl40040   3.065  -1.429   2.879  0.3923 -0.4480  0.1730
  304MOL0     C40041   3.129  -0.890   3.616 -0.5537  0.5574 -0.1381
  304MOL0     C40042   3.239  -0.806   3.650  0.5043  0.6671  1.0472
  304MOL0     O40043   3.388  -0.504   3.454  0.0794 -0.3404 -0.3382
  304MOL0     C40044   3.609  -0.345   3.559  0.5612  0.6571 -0.9570
  304MOL0     C40045   3.721  -0.277   3.610  1.1506 -0.0423  0.0740
  304MOL0     N40046   4.387   0.057   3.950 -0.2103 -0.1263 -0.0360
  304MOL0     N40047   4.434   0.174   3.915  0.0137  0.3374  0.3509
  304MOL0     C40048   5.294   0.835   3.733  0.2578  0.0881  0.7670
  304MOL0     C40049   5.388   0.921   3.689  1.4919 -0.3326 -0.5784
  304MOL0     C40050   5.727   1.137   3.469 -0.5965  0.8008 -0.0705
  304MOL0     C40051   5.745   1.209   3.340 -0.0699  1.0128  0.2919
  304MOL0     C40052   5.863   1.262   3.288  0.4871  0.7228 -0.9253
  304MOL0     C40053   5.976   1.246   3.358  0.2824  0.4937 -0.0900
  304MOL0     O40054   6.089   1.302   3.300  0.5529 -0.4474  0.5133
  304MOL0     C40055   6.192   1.332   3.390 -0.2866 -0.7545  0.3335
  304MOL0     C40056   6.160   1.440   3.488 -0.3012  0.3965 -0.9708
  304MOL0     C40057   6.294   1.489   3.554  0.7344  0.0286 -0.3642
  304MOL0     C40058   6.284   1.566   3.686 -0.7429 -0.2874  1.5117
  304MOL0     C40059   6.243   1.703   3.687  0.5258 -1.2281 -0.2790
  304MOL0     C40060   6.188   1.811   3.691 -0.5807 -0.2669  0.5721
  304MOL0     C40061   5.971   1.178   3.488 -0.4374 -0.2137 -0.5165
  304MOL0     C40062   5.849   1.124   3.541 -0.4796 -0.5216 -0.1916
  304MOL0     H40063   5.623   0.704   3.569  0.5203  0.3856  0.1663
  304MOL0     H40064   5.452   0.547   3.618  0.8250  0.7860 -2.3279
  304MOL0     H40065   5.091   0.715   3.853  1.4796  0.5156 -0.8506
  304MOL0     H40066   5.080   0.545   3.892  0.9463  1.3379  1.1969
  304MOL0     H40067   4.991   0.679   3.631 -2.7817  0.2089 -0.1656
  304MOL0     H40068   4.899   0.610   3.771 -0.1023  0.2459  0.3573
  304MOL0     H40069   4.942   0.380   3.698  1.1930 -0.6137 -0.2917
  304MOL0     H40070   5.090   0.430   3.620  0.5947  2.6535 -0.4904
  304MOL0     H40071   4.871   0.549   3.467  0.5240 -0.1399 -1.1457
  304MOL0     H40072   4.982   0.418   3.423 -1.1633 -1.9249  0.0855
  304MOL0     H40073   4.830   0.258   3.558 -0.3369  0.6572  0.9992
  304MOL0     H40074   4.764   0.319   3.407 -0.5365  1.8741 -0.9476
  304MOL0     H40075   4.614   0.465   3.515 -1.2070  0.1945 -0.7281
  304MOL0     H40076   4.697   0.447   3.671 -1.7474 -0.5905  0.7260
  304MOL0     H40077   4.559   0.207   3.544  3.4305 -2.3322  0.2730
  304MOL0     H40078   4.642   0.209   3.687  0.0663 -0.4672  0.2949
  304MOL0     H40079   4.376   0.344   3.638 -3.3506 -1.6570  3.1368
  304MOL0     H40080   4.483   0.396   3.769  1.9949  2.9345 -4.8471
  304MOL0     H40081   4.316   0.061   3.638  2.3332 -1.3833 -0.3501
  304MOL0     H40082   4.264  -0.188   3.941 -1.3623 -1.0606 -0.6478
  304MOL0     H40083   4.359  -0.212   3.791  0.0838  0.8924  1.0383
  304MOL0     H40084   4.117  -0.264   3.768 -1.1452  0.1394 -0.8782
  304MOL0     H40085   4.148  -0.124   3.666 -5.7005  1.1317 -0.0324
  304MOL0     H40086   4.034  -0.117   3.953  0.1414 -1.6982  0.0109
  304MOL0     H40087   4.042   0.022   3.849 -3.2166 -0.5127 -0.5244
  304MOL0     H40088   3.895  -0.081   3.684 -4.3411  0.1855  0.0682
  304MOL0     H40089   3.823  -0.074   3.843  0.0746  0.9146 -2.1842
  304MOL0     H40090   3.714  -0.416   3.924 -0.9232 -1.5355  0.0552
  304MOL0     H40091   3.529  -0.523   3.833  1.2314  0.3879  2.0356
  304MOL0     H40092   3.126  -0.531   3.484 -0.4819 -0.7078  0.0899
  304MOL0     H40093   2.946  -0.693   3.434 -1.0959 -1.6576  1.4103
  304MOL0     H40094   2.908  -0.913   3.303  1.7527 -0.9125  1.6775
  304MOL0     H40095   2.786  -0.843   3.414  0.3751  0.1792  2.6170
  304MOL0     H40096   2.681  -1.015   3.285 -0.8428 -1.1079 -0.2381
  304MOL0     H40097   2.689  -1.072   3.457  3.7987 -1.4748  3.3281
  304MOL0     H40098   2.892  -1.207   3.410  1.3846  1.2319 -0.1690
  304MOL0     H40099   2.884  -1.173   3.247  0.0068 -1.5876 -1.1089
  304MOL0     H40100   2.675  -1.313   3.428 -0.5373 -1.2981  0.1741
  304MOL0     H40101   2.656  -1.286   3.244 -0.0527  1.6917 -0.1871
  304MOL0     H40102   2.738  -1.520   3.285  2.6339 -0.6162 -1.4627
  304MOL0     H40103   2.871  -1.447   3.373 -0.3627 -2.2293 -0.4933
  304MOL0     H40104   2.974  -1.355   3.187  1.2517 -1.7055  2.2992
  304MOL0     H40105   2.819  -1.374   3.092 -2.2460 -1.1960  1.9241
  304MOL0     H40106   3.039  -1.563   3.141  0.6263  0.9280  0.6493
  304MOL0     H40107   2.876  -1.631   3.130  4.0810 -3.1294  1.0653
  304MOL0     H40108   2.830  -1.503   2.921 -0.9049 -2.1474 -0.1441
  304MOL0     H40109   2.940  -1.625   2.880  1.1848  0.9250 -1.7839
  304MOL0     H40110   3.122  -0.987   3.663 -2.5071  1.5325  1.7941
  304MOL0     H40111   3.309  -0.842   3.724  1.4049  0.4475  0.1183
  304MOL0     H40112   3.585  -0.317   3.456  1.5961  2.6714 -0.7019
  304MOL0     H40113   3.773  -0.204   3.549 -0.4631 -1.8489 -3.7831
  304MOL0     H40114   5.200   0.875   3.769 -0.1285 -1.3100  1.4166
  304MOL0     H40115   5.357   1.025   3.693 -0.7061 -0.9597  2.0953
  304MOL0     H40116   5.651   1.208   3.285 -0.6951  1.1652  1.3394
  304MOL0     H40117   5.866   1.315   3.193  1.1075  4.3445  0.9398
  304MOL0     H40118   6.280   1.351   3.328  0.5206 -1.3775  1.2375
  304MOL0     H40119   6.210   1.236   3.440 -1.3290 -1.4410 -0.5736
  304MOL0     H40120   6.122   1.525   3.431 -1.0960  0.6444 -0.0903
  304MOL0     H40121   6.086   1.414   3.564  0.4883 -3.3413 -1.2781
  304MOL0     H40122   6.347   1.556   3.486 -0.1344  1.3172  0.1785
  304MOL0     H40123   6.346   1.393   3.559  0.8337  0.0206 -1.3789
  304MOL0     H40124   6.210   1.511   3.745 -0.5320  0.0168  2.0676
  304MOL0     H40125   6.381   1.558   3.737 -1.6425 -0.5244  3.2467
  304MOL0     H40126   6.133   1.901   3.708 -0.7538  0.2290 -2.2185
  304MOL0     H40127   6.061   1.175   3.549  1.1893  0.8815 -2.7169
  304MOL0     H40128   5.848   1.079   3.639  2.5440  1.8180  1.0651
  305MOL0     O40129   3.334   6.661  10.900  0.8154 -0.2034 -0.1746
  305MOL0     C40130   3.396   6.629  10.805  0.0689  0.7563 -0.2331
  305MOL0     O40131   3.528   6.598  10.801  0.1783  0.0158  0.6144
  305MOL0     C40132   3.587   6.590  10.927 -0.1491  0.1540 -0.4832
  305MOL0     C40133   3.664   6.696  10.986 -0.0538  0.3845 -0.1996
  305MOL0     C40134   3.741   6.663  11.099  0.6604  0.4292 -1.1234
  305MOL0     C40135   3.721   6.541  11.174 -0.2312  0.3614 -0.3818
  305MOL0     O40136   3.809   6.526  11.274  0.4886 -0.0400 -0.0073
  305MOL0     C40137   3.824   6.399  11.334  0.1622 -0.0538  0.8188
  305MOL0     C40138   3.956   6.405  11.408  0.0194 -0.2755 -0.2436
  305MOL0     C40139   3.973   6.501  11.533  1.1581  0.5357  0.2817
  305MOL0     C40140   4.112   6.496  11.598 -0.4460  0.3808 -0.5108
  305MOL0     C40141   4.152   6.645  11.639 -0.6472  0.1489 -0.7307
  305MOL0     C40142   4.057   6.733  11.734 -0.0085  0.3020 -0.7583
  305MOL0     C40143   3.998   6.653  11.854 -0.0341  0.0774  0.6589
  305MOL0     C40144   4.076   6.697  11.979 -0.5355 -0.3972 -0.2008
  305MOL0     N40145   4.212   6.647  11.970 -0.3485  0.8226 -0.1423
  305MOL0     C40146   4.242   6.518  11.970  0.2860  0.4613  0.9770
  305MOL0     C40147   4.377   6.499  11.990  0.0809  0.6690  0.0723
  305MOL0     C40148   4.458   6.365  12.000 -0.1436 -0.2755 -0.4743
  305MOL0     C40149   4.390   6.245  11.941 -0.5944  0.1937  0.3332
  305MOL0     C40150   4.489   6.127  11.944 -0.4194  0.2600 -0.4251
  305MOL0     C40151   4.415   6.006  11.871 -0.2084  1.1435  0.2556
  305MOL0     O40152   4.395   6.030  11.731  0.0804  0.0120 -0.2520
  305MOL0     C40153   4.270   6.017  11.671 -0.1234  0.0594 -0.1023
  305MOL0     C40154   4.244   6.091  11.556 -0.7352 -0.2556  1.5567
  305MOL0     C40155   4.125   6.077  11.484 -0.6549 -0.4416  0.6307
  305MOL0     C40156   4.023   5.987  11.526  0.9083  0.9214 -0.7573
  305MOL0     C40157   3.901   5.956  11.447  0.4733  0.4834  0.3357
  305MOL0     O40158   3.887   6.043  11.342  0.0474  0.6436  0.5490
  305MOL0     C40159   3.785   6.040  11.243  0.8870 -0.9198 -0.3453
  305MOL0     C40160   3.807   6.020  11.110 -0.4785  0.2233 -0.5318
  305MOL0     C40161   3.703   6.032  11.019  0.6379  0.1882  1.0136
  305MOL0     C40162   3.576   6.061  11.059  0.4280 -0.0649  0.3711
  305MOL0     O40163   3.468   6.081  10.980 -0.8930  0.3837  1.2307
  305MOL0     C40164   3.376   5.978  11.002 -0.4763  1.0252  0.0349
  305MOL0     C40165   3.280   5.978  10.881  0.0308  0.9947  0.6214
  305MOL0     C40166   3.169   5.875  10.896  0.3071  0.7324  0.5208
  305MOL0     C40167   3.075   5.872  10.771 -0.0859 -0.2217  0.1158
  305MOL0     C40168   2.995   5.747  10.768  0.1403  0.0428 -0.8403
  305MOL0     C40169   2.885   5.766  10.656 -0.0500 -0.1441  1.1387
  305MOL0     C40170   2.783   5.652  10.658 -0.4285  0.1473  0.2081
  305MOL0     C40171   2.653   5.699  10.583 -0.4352 -0.7655 -0.9809
  305MOL0    Cl40172   2.530   5.570  10.594 -0.2824 -0.0697  0.0785
  305MOL0     C40173   3.549   6.079  11.196 -0.1629 -0.1867  0.1068
  305MOL0     C40174   3.656   6.072  11.285  0.9518 -0.0093 -0.3826
  305MOL0     O40175   3.825   5.856  11.471  0.2705  0.5607 -0.1003
  305MOL0     C40176   4.056   5.895  11.634 -0.3677 -0.6633  0.7840
  305MOL0     C40177   4.181   5.914  11.704  1.0239 -0.3949  0.4685
  305MOL0     N40178   4.428   6.627  12.015  0.1855 -0.2401 -0.3010
  305MOL0     N40179   4.326   6.714  12.005  0.6442  0.4998 -0.2398
  305MOL0     C40180   3.635   6.439  11.117  0.5832 -0.2991 -0.3674
  305MOL0     C40181   3.577   6.461  10.989  0.3183 -0.2447 -0.0955
  305MOL0     C40182   3.326   6.640  10.673  0.4092  0.1288  0.6568
  305MOL0     C40183   3.385   6.625  10.543 -0.1528  0.8914 -0.4979
  305MOL0     C40184   3.310   6.638  10.429  0.4147  0.2666 -0.2956
  305MOL0     C40185   3.166   6.663  10.436 -0.1893  1.2768  0.4224
  305MOL0     O40186   3.076   6.650  10.332 -0.3024 -0.0413 -0.2928
  305MOL0     C40187   3.132   6.610  10.207  0.3737  0.0522  0.9603
  305MOL0     C40188   3.143   6.459  10.195 -1.2789 -0.9531 -0.5847
  305MOL0     C40189   3.191   6.416  10.057 -0.5100 -0.0044 -0.5761
  305MOL0     C40190   3.096   6.457   9.938 -0.2444 -0.1669 -0.1005
  305MOL0     C40191   3.111   6.361   9.829  0.9354  0.2737 -0.0466
  305MOL0     C40192   3.107   6.296   9.726 -0.1155  0.4655 -0.2861
  305MOL0     C40193   3.107   6.675  10.564 -0.0725 -0.2966  1.4277
  305MOL0     C40194   3.188   6.667  10.678 -0.3006 -0.5002 -0.5363
  305MOL0     H40195   3.668   6.795  10.942 -1.1533 -0.4628 -2.3907
  305MOL0     H40196   3.803   6.741  11.143 -2.5045  1.0474  2.8032
  305MOL0     H40197   3.838   6.324  11.256 -0.0060  0.9966 -0.2535
  305MOL0     H40198   3.740   6.365  11.395 -0.8519 -0.6880 -0.8794
  305MOL0     H40199   4.022   6.435  11.327 -0.2865 -1.2048 -0.8488
  305MOL0     H40200   3.990   6.304  11.433  1.7569  0.6466  1.3685
  305MOL0     H40201   3.904   6.492  11.617  0.5790  0.2564 -0.2204
  305MOL0     H40202   3.948   6.601  11.495  1.2789  2.0383  3.7648
  305MOL0     H40203   4.113   6.426  11.683  1.1646  0.2618 -0.5975
  305MOL0     H40204   4.182   6.441  11.535 -1.6331 -0.6558 -0.9558
  305MOL0     H40205   4.170   6.694  11.542  0.6091 -3.2023 -2.3717
  305MOL0     H40206   4.250   6.643  11.688  0.5772  1.7175 -2.9030
  305MOL0     H40207   3.969   6.753  11.672 -2.3807 -1.6564  1.7869
  305MOL0     H40208   4.094   6.833  11.758 -1.2916  0.6935 -0.3570
  305MOL0     H40209   3.891   6.673  11.851  0.4951  3.3285 -1.4024
  305MOL0     H40210   3.998   6.544  11.843  3.2661  0.2100 -3.6577
  305MOL0     H40211   4.022   6.666  12.068  0.1110  1.0867  0.7468
  305MOL0     H40212   4.091   6.805  11.982 -2.9532 -0.0266  1.7757
  305MOL0     H40213   4.158   6.449  11.962  0.6320  0.0817  0.5922
  305MOL0     H40214   4.487   6.346  12.103 -1.8787 -1.0891 -0.1079
  305MOL0     H40215   4.552   6.385  11.947  0.0650  2.5561  0.7565
  305MOL0     H40216   4.373   6.270  11.836  0.1879  2.9833  0.7910
  305MOL0     H40217   4.297   6.224  11.995 -0.3689 -1.4721  0.1249
  305MOL0     H40218   4.583   6.151  11.893  0.8276  0.3083  1.7725
  305MOL0     H40219   4.497   6.106  12.051 -5.2596  1.3682  0.3828
  305MOL0     H40220   4.321   5.993  11.925 -0.1874 -1.2840 -0.1796
  305MOL0     H40221   4.472   5.913  11.877 -0.3439  0.9953 -0.5981
  305MOL0     H40222   4.334   6.141  11.522 -0.0576 -2.6717 -0.5201
  305MOL0     H40223   4.105   6.122  11.387 -3.7415  0.7864  1.7294
  305MOL0     H40224   3.907   5.995  11.075 -0.7636 -2.0902  0.1397
  305MOL0     H40225   3.719   6.021  10.913 -4.0457 -1.4658  0.2581
  305MOL0     H40226   3.330   6.000  11.099  0.0564 -0.1984  0.5818
  305MOL0     H40227   3.423   5.880  11.006 -0.2888  1.1597  2.9672
  305MOL0     H40228   3.347   5.936  10.806  0.7506  0.3236  1.6114
  305MOL0     H40229   3.251   6.080  10.852 -0.1765  1.2284  1.5894
  305MOL0     H40230   3.118   5.907  10.987 -0.6456  4.6245 -1.1638
  305MOL0     H40231   3.207   5.774  10.913 -0.0262  0.4655 -0.2736
  305MOL0     H40232   3.006   5.955  10.752 -1.4086 -2.0169 -4.0908
  305MOL0     H40233   3.128   5.871  10.675  0.2706 -0.5980  0.3116
  305MOL0     H40234   2.951   5.732  10.868  0.7206 -0.7711 -0.7007
  305MOL0     H40235   3.050   5.655  10.746 -1.0873 -1.1101  0.5919
  305MOL0     H40236   2.920   5.777  10.553 -1.9419  1.4895  0.6072
  305MOL0     H40237   2.843   5.864  10.683  0.6247  0.2982  0.6252
  305MOL0     H40238   2.824   5.567  10.603 -0.8367 -1.1664  1.8423
  305MOL0     H40239   2.764   5.626  10.763  2.2271 -1.2046  0.4338
  305MOL0     H40240   2.697   5.721  10.486  4.8209  0.7749  1.3960
  305MOL0     H40241   2.615   5.788  10.635 -0.8705 -1.4191 -0.1521
  305MOL0     H40242   3.451   6.119  11.222  0.0018 -0.3976  1.0802
  305MOL0     H40243   3.634   6.070  11.391  1.2800  0.3786 -0.3030
  305MOL0     H40244   3.984   5.818  11.660 -4.1494  2.2168 -0.2924
  305MOL0     H40245   4.190   5.843  11.786  2.1246  0.2557  0.9402
  305MOL0     H40246   3.627   6.350  11.180  0.9214 -0.8996 -1.1551
  305MOL0     H40247   3.514   6.381  10.950 -0.0832 -1.0733  2.1039
  305MOL0     H40248   3.493   6.611  10.539 -0.3313 -0.6453 -0.8311
  305MOL0     H40249   3.363   6.613  10.338  0.6254 -3.6686  0.7409
  305MOL0     H40250   3.229   6.654  10.183 -0.3220  1.3056  0.3131
  305MOL0     H40251   3.061   6.640  10.128  0.0748  1.1325  1.6204
  305MOL0     H40252   3.203   6.424  10.280 -0.8235  0.8472 -0.1220
  305MOL0     H40253   3.042   6.420  10.202 -1.2941 -1.1787 -1.8436
  305MOL0     H40254   3.183   6.307  10.064 -0.0269  0.0628  2.5358
  305MOL0     H40255   3.294   6.449  10.041 -0.1537 -0.9138 -0.2416
  305MOL0     H40256   2.992   6.442   9.966 -0.7909  0.3131 -1.7664
  305MOL0     H40257   3.108   6.561   9.907 -1.4600 -0.2540 -0.9286
  305MOL0     H40258   3.115   6.244   9.633 -0.3920  3.0499 -1.8604
  305MOL0     H40259   2.998   6.676  10.571 -0.2440 -0.0483 -0.7608
  305MOL0     H40260   3.132   6.687  10.769 -1.1929  1.6008 -1.4689
  306MOL0     O40261  10.488  10.259   4.900  0.5453 -0.4762  0.1862
  306MOL0     C40262  10.581  10.190   4.859 -0.1517  0.3099  0.0373
  306MOL0     O40263  10.606  10.155   4.728 -0.3361  0.7683  0.1541
  306MOL0     C40264  10.537  10.199   4.622  0.0872 -0.0697 -0.8451
  306MOL0     C40265  10.459  10.105   4.556 -0.3500 -0.8464  0.7877
  306MOL0     C40266  10.378  10.146   4.444 -0.4317 -0.4709  0.4946
  306MOL0     C40267  10.392  10.283   4.400 -1.2402 -0.7249  0.2297
  306MOL0     O40268  10.324  10.315   4.289 -0.5141  0.2624  0.2381
  306MOL0     C40269  10.189  10.365   4.293  0.6001  0.4768 -0.0111
  306MOL0     C40270  10.093  10.254   4.331  0.9845 -0.5320 -0.2174
  306MOL0     C40271  10.092  10.139   4.236 -0.1038  0.1696  0.8467
  306MOL0     C40272   9.982  10.032   4.262  0.0821  0.1302 -0.3836
  306MOL0     C40273  10.026   9.936   4.382  0.0789 -0.1861 -0.7780
  306MOL0     C40274   9.909   9.832   4.423  0.0521 -0.8353 -0.2247
  306MOL0     C40275   9.939   9.766   4.552  0.4542  1.1259  0.7721
  306MOL0     C40276   9.814   9.740   4.626  0.3366  0.8486 -0.0253
  306MOL0     N40277   9.846   9.663   4.748  0.5108  0.1233  0.1856
  306MOL0     C40278   9.909   9.546   4.751 -0.4564 -0.3745 -0.5379
  306MOL0     C40279   9.925   9.520   4.878  0.5761  1.0011  0.6845
  306MOL0     C40280   9.989   9.390   4.914  0.5407 -1.3173 -0.3414
  306MOL0     C40281  10.024   9.377   5.066  0.0412 -0.0709  0.3131
  306MOL0     C40282  10.082   9.234   5.114  1.1813  1.1008  0.6597
  306MOL0     C40283  10.124   9.246   5.257  0.0583  0.3706  0.0051
  306MOL0     O40284  10.007   9.259   5.338 -0.6258  0.2332  0.4649
  306MOL0     C40285  10.017   9.244   5.474 -0.3684 -0.2235 -1.7645
  306MOL0     C40286  10.135   9.283   5.548  0.6426 -0.4352  0.0318
  306MOL0     C40287  10.153   9.238   5.672  0.6479  0.1644 -0.2728
  306MOL0     C40288  10.054   9.162   5.746 -0.3373  0.1691  1.1748
  306MOL0     C40289  10.077   9.127   5.885 -0.0426  0.4023  0.6241
  306MOL0     O40290   9.971   9.065   5.953 -0.1679 -0.2470  0.3182
  306MOL0     C40291   9.981   9.051   6.091 -0.2807 -0.2166 -0.2460
  306MOL0     C40292  10.061   8.958   6.164  1.3412  0.3642  0.6845
  306MOL0     C40293  10.040   8.943   6.300  0.3030  0.5212 -0.5086
  306MOL0     C40294   9.940   9.018   6.370  0.5802  0.5548 -0.0234
  306MOL0     O40295   9.926   9.023   6.505 -0.4805 -0.6276 -0.6189
  306MOL0     C40296   9.996   8.924   6.581 -0.0670  0.2779  0.0181
  306MOL0     C40297   9.930   8.907   6.722 -0.1239 -0.1929 -0.0889
  306MOL0     C40298   9.970   8.779   6.794  0.3653  0.9378  1.4160
  306MOL0     C40299   9.855   8.713   6.876  0.5863 -0.0162 -0.1245
  306MOL0     C40300   9.909   8.597   6.955  1.0663 -0.3011  0.5334
  306MOL0     C40301   9.806   8.509   7.044 -0.4732 -0.0186 -0.4866
  306MOL0     C40302   9.895   8.432   7.149  1.1327 -1.3050 -0.4781
  306MOL0     C40303   9.968   8.317   7.084 -0.0439 -0.3634  0.6136
  306MOL0    Cl40304  10.075   8.239   7.207 -0.5893  0.2168  0.4571
  306MOL0     C40305   9.875   9.120   6.295  0.6793 -0.0237 -0.1294
  306MOL0     C40306   9.898   9.139   6.163  0.4361 -0.8267  0.4398
  306MOL0     O40307  10.172   9.170   5.941  0.0182 -0.2444  0.1062
  306MOL0     C40308   9.932   9.131   5.686 -0.2538 -0.6004  1.2072
  306MOL0     C40309   9.916   9.174   5.544 -0.6417 -0.4482  0.2943
  306MOL0     N40310   9.869   9.617   4.953 -0.5219 -0.8654 -0.3703
  306MOL0     N40311   9.831   9.712   4.884  0.3510  0.4906 -0.2398
  306MOL0     C40312  10.464  10.380   4.474 -0.0466 -0.3403 -0.1154
  306MOL0     C40313  10.535  10.338   4.581 -0.3853 -0.2902 -0.6453
  306MOL0     C40314  10.678  10.147   4.958  0.1030  0.6722  0.1840
  306MOL0     C40315  10.795  10.080   4.917  0.0747  0.0413  0.2527
  306MOL0     C40316  10.893  10.044   5.003 -1.0544  1.3285  0.0821
  306MOL0     C40317  10.893  10.075   5.134  0.7906 -0.4478 -0.1648
  306MOL0     O40318  10.985  10.020   5.215 -1.0828 -0.4548  0.4729
  306MOL0     C40319  10.983  10.057   5.355  0.4654 -0.1964 -0.1231
  306MOL0     C40320  11.112  10.000   5.410  0.0508  0.6819 -0.8939
  306MOL0     C40321  11.093   9.864   5.482  0.3006 -0.2691 -0.3044
  306MOL0     C40322  11.037   9.881   5.623  0.7760 -0.0574 -0.9310
  306MOL0     C40323  11.142   9.892   5.725 -0.4091 -0.0533  0.7918
  306MOL0     C40324  11.230   9.913   5.810 -0.0086  0.3717  0.6067
  306MOL0     C40325  10.788  10.158   5.172  0.0586 -0.2070 -0.1648
  306MOL0     C40326  10.675  10.179   5.097  0.1036 -0.2199  0.0014
  306MOL0     H40327  10.471   9.997   4.562  0.1606 -1.1152 -2.6300
  306MOL0     H40328  10.325  10.076   4.381 -0.9608 -0.8450  1.3347
  306MOL0     H40329  10.165  10.403   4.194  2.2280  1.3074 -0.1158
  306MOL0     H40330  10.174  10.452   4.358 -0.9109  0.6311 -0.5213
  306MOL0     H40331   9.991  10.295   4.334  0.9993  0.0403 -3.4693
  306MOL0     H40332  10.125  10.220   4.430 -1.0086  2.0186  1.4289
  306MOL0     H40333  10.188  10.089   4.221  0.4631  1.6153 -0.6598
  306MOL0     H40334  10.058  10.176   4.138  2.5861 -1.5805 -0.8742
  306MOL0     H40335   9.890  10.085   4.290 -1.0871 -1.5265 -0.9557
  306MOL0     H40336   9.961   9.967   4.177  4.2559  0.0216 -1.5642
  306MOL0     H40337  10.050   9.993   4.472  1.6197 -0.7522 -0.8083
  306MOL0     H40338  10.125   9.896   4.358  0.9553 -1.6002  4.1028
  306MOL0     H40339   9.888   9.762   4.342 -0.6187 -0.5386 -0.3152
  306MOL0     H40340   9.823   9.899   4.433  3.1231  4.0785 -2.4188
  306MOL0     H40341   9.992   9.671   4.536  0.8012  0.6571  4.0133
  306MOL0     H40342  10.007   9.835   4.603  1.5405  0.4378  0.3015
  306MOL0     H40343   9.748   9.677   4.566  1.7038 -2.7678  1.9230
  306MOL0     H40344   9.791   9.843   4.654  3.3724  1.7929 -0.6570
  306MOL0     H40345   9.950   9.495   4.664  2.4042 -1.5069  1.3288
  306MOL0     H40346  10.080   9.395   4.854  0.0982 -1.2246 -1.0157
  306MOL0     H40347   9.921   9.310   4.881 -1.5859  0.3174 -0.1801
  306MOL0     H40348   9.936   9.415   5.119  1.5813 -1.0251  3.8303
  306MOL0     H40349  10.107   9.448   5.071 -0.0589  0.7213 -4.2350
  306MOL0     H40350   9.999   9.163   5.105  1.2164  1.1452 -0.0610
  306MOL0     H40351  10.171   9.213   5.053  2.3722 -1.4216  3.0429
  306MOL0     H40352  10.187   9.336   5.262 -1.4937  1.4923  0.3043
  306MOL0     H40353  10.180   9.160   5.292  1.3414  0.1725 -2.3290
  306MOL0     H40354  10.209   9.333   5.488 -0.9706  2.1018  0.0167
  306MOL0     H40355  10.252   9.259   5.712  0.0897  3.2828 -0.2839
  306MOL0     H40356  10.128   8.886   6.118 -0.8749  0.0336 -2.3606
  306MOL0     H40357  10.104   8.875   6.357 -0.2453 -1.8269 -2.5527
  306MOL0     H40358  10.102   8.952   6.580 -0.0671  0.3612 -2.1297
  306MOL0     H40359   9.993   8.830   6.526  0.8008 -1.2501  2.4312
  306MOL0     H40360   9.821   8.915   6.715 -0.2219 -0.3404  1.0978
  306MOL0     H40361   9.965   8.987   6.788  0.6066 -3.2527  3.5566
  306MOL0     H40362  10.065   8.801   6.843  2.9721 -0.7447 -2.3507
  306MOL0     H40363  10.007   8.708   6.718  2.3423  2.3249  0.9953
  306MOL0     H40364   9.817   8.782   6.952  1.0543 -1.2053  1.2310
  306MOL0     H40365   9.770   8.683   6.816 -1.2102  2.0455  1.2499
  306MOL0     H40366   9.976   8.649   7.024  1.9808  2.1013 -1.9755
  306MOL0     H40367   9.966   8.527   6.893  0.3344 -2.1876  1.8943
  306MOL0     H40368   9.762   8.433   6.979  0.7185 -2.5655  1.4772
  306MOL0     H40369   9.737   8.576   7.095 -1.3483 -1.9986  1.0544
  306MOL0     H40370   9.965   8.505   7.191  1.0397 -1.1439 -0.6001
  306MOL0     H40371   9.838   8.388   7.231  0.8223 -0.2878 -0.1369
  306MOL0     H40372  10.038   8.364   7.014 -1.6645 -0.9262 -1.4708
  306MOL0     H40373   9.894   8.252   7.038 -0.8556  1.6535 -1.1119
  306MOL0     H40374   9.807   9.181   6.354 -0.3546 -0.1335 -1.1865
  306MOL0     H40375   9.832   9.211   6.117  1.7740 -0.0951 -0.4035
  306MOL0     H40376   9.868   9.058   5.735 -3.1595 -0.3703 -1.8304
  306MOL0     H40377   9.839   9.121   5.489 -0.1282 -1.3652  0.4241
  306MOL0     H40378  10.474  10.472   4.417 -3.5547 -0.7682 -1.6693
  306MOL0     H40379  10.614  10.406   4.610  0.7834 -1.3215 -1.3188
  306MOL0     H40380  10.808  10.041   4.817  1.9661  0.0792  0.4532
  306MOL0     H40381  10.982   9.987   4.978 -0.4484  0.1185  4.2050
  306MOL0     H40382  10.895  10.014   5.404 -0.4677 -0.1838 -1.7058
  306MOL0     H40383  10.988  10.162   5.385  0.3779 -0.9173  2.6846
  306MOL0     H40384  11.173   9.978   5.322 -1.6074  1.0105 -2.1833
  306MOL0     H40385  11.160  10.072   5.477 -1.1842 -0.0198  0.8147
  306MOL0     H40386  11.190   9.814   5.490  0.6170  0.4157  0.3887
  306MOL0     H40387  11.045   9.800   5.408  1.8475 -1.7027 -0.1344
  306MOL0     H40388  10.961   9.959   5.617 -1.9085 -2.5731 -2.6779
  306MOL0     H40389  10.991   9.785   5.649 -0.5775  0.9981  0.7668
  306MOL0     H40390  11.299   9.933   5.889  2.6137  3.8736 -2.2030
  306MOL0     H40391  10.792  10.192   5.275  0.4098 -2.1559  0.4973
  306MOL0     H40392  10.601  10.243   5.144  1.7972 -0.5142  3.3428
  307MOL0     O40393   4.553   4.504   7.339  0.0348 -0.2158 -0.0249
  307MOL0     C40394   4.570   4.502   7.463  0.4767  0.4289 -0.7072
  307MOL0     O40395   4.484   4.472   7.559  0.1096  0.0896 -0.2493
  307MOL0     C40396   4.358   4.434   7.513 -0.8851 -0.0699 -1.3462
  307MOL0     C40397   4.242   4.496   7.559 -0.1374  0.7627 -0.5409
  307MOL0     C40398   4.112   4.453   7.504 -0.9105 -0.3740 -1.2192
  307MOL0     C40399   4.110   4.343   7.418  0.2830  0.3310  0.2616
  307MOL0     O40400   3.997   4.271   7.392 -0.1586 -0.5091 -0.2943
  307MOL0     C40401   3.939   4.291   7.266 -0.1245  0.8591 -0.8034
  307MOL0     C40402   3.794   4.228   7.242 -0.8334 -0.4185 -0.5078
  307MOL0     C40403   3.806   4.077   7.260 -0.4055 -0.3037 -0.0814
  307MOL0     C40404   3.677   4.004   7.245  0.8257 -0.4112  0.4563
  307MOL0     C40405   3.675   3.896   7.356  1.5783 -0.3906  0.6546
  307MOL0     C40406   3.634   3.947   7.489  0.0753  0.0080 -0.0351
  307MOL0     C40407   3.654   3.855   7.604 -0.4910 -0.5200 -0.3395
  307MOL0     C40408   3.625   3.926   7.732  0.8308  0.2661 -0.6120
  307MOL0     N40409   3.613   3.836   7.851  0.5688  0.6767  0.4463
  307MOL0     C40410   3.656   3.710   7.854 -0.4349 -0.2902  0.7967
  307MOL0     C40411   3.599   3.649   7.957  0.7356  0.1524  0.3312
  307MOL0     C40412   3.623   3.499   7.971  0.6698  0.1861  0.2682
  307MOL0     C40413   3.501   3.425   7.933 -0.0514  0.5504  0.1706
  307MOL0     C40414   3.527   3.280   7.908 -0.9790  0.3797  0.2883
  307MOL0     C40415   3.429   3.195   7.825 -0.7909 -1.1989  0.2354
  307MOL0     O40416   3.322   3.163   7.922 -0.6006 -0.3940  0.1719
  307MOL0     C40417   3.333   3.038   7.971 -0.5756 -0.2856 -0.6238
  307MOL0     C40418   3.350   3.026   8.106  0.4584 -0.7897  0.1526
  307MOL0     C40419   3.380   2.914   8.175 -1.0006  0.0535  0.2613
  307MOL0     C40420   3.389   2.797   8.101 -0.0499 -0.2473 -0.8102
  307MOL0     C40421   3.395   2.669   8.178 -0.3932  0.0167 -0.2915
  307MOL0     O40422   3.484   2.661   8.290 -0.0098  0.1821  0.4594
  307MOL0     C40423   3.498   2.531   8.338 -1.0844  1.0456 -1.3069
  307MOL0     C40424   3.435   2.497   8.466  0.0508 -0.2049  0.6616
  307MOL0     C40425   3.456   2.370   8.511  0.3154  0.1393  0.0965
  307MOL0     C40426   3.526   2.270   8.434 -0.9125  0.9976  0.0569
  307MOL0     O40427   3.546   2.136   8.478 -0.3099  0.0306 -0.0507
  307MOL0     C40428   3.430   2.052   8.462 -0.2344 -0.2615  0.5408
  307MOL0     C40429   3.409   2.020   8.314  0.3473  0.4912 -0.0010
  307MOL0     C40430   3.512   1.917   8.270 -0.2682  0.2155  0.1016
  307MOL0     C40431   3.501   1.887   8.124 -1.3049  0.4836  0.3382
  307MOL0     C40432   3.369   1.850   8.080 -0.0268  0.1501 -0.0445
  307MOL0     C40433   3.370   1.740   7.967 -0.1952 -0.4770  0.1657
  307MOL0     C40434   3.228   1.740   7.896 -0.4983  0.1095 -0.1915
  307MOL0     C40435   3.238   1.773   7.745  0.7698 -0.0258 -1.4210
  307MOL0    Cl40436   3.308   1.940   7.718  0.5889  0.8268  0.7219
  307MOL0     C40437   3.588   2.313   8.309 -0.1979  0.5286  0.4143
  307MOL0     C40438   3.578   2.440   8.267  0.3481 -0.4093  0.2940
  307MOL0     O40439   3.332   2.573   8.131  0.1234  0.8518  0.3742
  307MOL0     C40440   3.378   2.809   7.962  0.2425  0.9600  0.3519
  307MOL0     C40441   3.359   2.926   7.894 -0.4592 -0.2114  0.9494
  307MOL0     N40442   3.517   3.740   8.022  0.6194 -0.0874 -0.8765
  307MOL0     N40443   3.532   3.858   7.954  0.4302  0.4321  0.5128
  307MOL0     C40444   4.229   4.283   7.377  0.3000  0.3526 -0.4437
  307MOL0     C40445   4.346   4.322   7.436 -0.1797  0.3981  0.3370
  307MOL0     C40446   4.712   4.505   7.511  0.4346  0.3118 -0.8003
  307MOL0     C40447   4.746   4.512   7.642  0.3927  0.1955 -0.1354
  307MOL0     C40448   4.876   4.518   7.673 -0.0311  0.0389 -0.3599
  307MOL0     C40449   4.984   4.519   7.581  0.2213 -0.0901  0.3788
  307MOL0     O40450   5.110   4.548   7.598  0.0910  0.2632 -0.4842
  307MOL0     C40451   5.132   4.619   7.714 -0.0371  0.4883  0.9247
  307MOL0     C40452   5.287   4.630   7.722  0.9186  0.2567 -0.7028
  307MOL0     C40453   5.341   4.714   7.836 -0.2076 -0.1198  0.4872
  307MOL0     C40454   5.482   4.670   7.871 -0.2322 -0.4966  0.9011
  307MOL0     C40455   5.568   4.680   7.759 -0.7407 -0.6364 -1.3769
  307MOL0     C40456   5.620   4.683   7.647 -0.3449 -0.4352 -0.0428
  307MOL0     C40457   4.944   4.490   7.451 -1.3038  0.1137  0.7838
  307MOL0     C40458   4.813   4.483   7.417  0.1923  0.2735 -0.8333
  307MOL0     H40459   4.242   4.571   7.638  2.8507  0.9766 -0.6201
  307MOL0     H40460   4.020   4.499   7.540  0.1016  0.7246  0.1094
  307MOL0     H40461   4.007   4.247   7.192  0.3009  1.3822 -0.7354
  307MOL0     H40462   3.933   4.399   7.252 -3.7528  1.4109  3.0519
  307MOL0     H40463   3.755   4.249   7.142  0.4081  2.7717 -0.4299
  307MOL0     H40464   3.722   4.263   7.316  1.8393  0.4288  1.8495
  307MOL0     H40465   3.862   4.063   7.353 -0.0387  2.9315  0.3187
  307MOL0     H40466   3.873   4.043   7.181 -0.9191 -1.7718  0.0939
  307MOL0     H40467   3.590   4.069   7.243  1.0167 -0.1473 -1.5453
  307MOL0     H40468   3.686   3.946   7.152 -1.0355 -0.3756  0.2192
  307MOL0     H40469   3.777   3.856   7.363  2.6341  1.8285 -0.9242
  307MOL0     H40470   3.620   3.807   7.324  2.7570 -0.0542 -2.7013
  307MOL0     H40471   3.528   3.975   7.481 -0.0175 -0.9047 -3.2634
  307MOL0     H40472   3.690   4.039   7.508 -0.7880  0.7819 -1.0898
  307MOL0     H40473   3.602   3.760   7.589 -0.4054 -0.6752  0.3057
  307MOL0     H40474   3.762   3.843   7.611 -0.1980  0.8552 -1.8248
  307MOL0     H40475   3.526   3.972   7.727 -0.3037 -1.6119  2.0497
  307MOL0     H40476   3.699   4.005   7.749  1.8759 -0.0716 -3.1276
  307MOL0     H40477   3.714   3.661   7.776 -0.6261 -1.4923  1.3904
  307MOL0     H40478   3.652   3.477   8.074 -0.2588 -2.8721 -0.0116
  307MOL0     H40479   3.700   3.471   7.899 -0.5063  0.1787 -1.0115
  307MOL0     H40480   3.457   3.472   7.845 -1.3895  1.8258  1.4732
  307MOL0     H40481   3.438   3.420   8.022  0.9945 -3.4093  0.9088
  307MOL0     H40482   3.629   3.267   7.870 -0.4167  0.7414  1.6265
  307MOL0     H40483   3.525   3.227   8.004  0.7706 -0.0236  0.1393
  307MOL0     H40484   3.484   3.107   7.792  0.7456  0.6246 -2.3967
  307MOL0     H40485   3.395   3.247   7.735  0.8074  0.8574  0.7628
  307MOL0     H40486   3.340   3.118   8.162  0.0647 -1.1747  0.7250
  307MOL0     H40487   3.390   2.919   8.283  0.9051  0.0059  0.1249
  307MOL0     H40488   3.378   2.573   8.517 -3.1836 -2.8077  1.2663
  307MOL0     H40489   3.414   2.336   8.605  2.7351 -1.6351  0.6533
  307MOL0     H40490   3.345   2.099   8.512 -0.5152 -0.1264 -0.0489
  307MOL0     H40491   3.442   1.954   8.509 -0.5243 -1.3275 -1.4699
  307MOL0     H40492   3.406   2.114   8.258 -1.8441  0.4657 -0.0120
  307MOL0     H40493   3.312   1.973   8.299  1.8940 -1.9078 -3.7067
  307MOL0     H40494   3.490   1.825   8.326 -1.5713 -0.6203 -1.7039
  307MOL0     H40495   3.616   1.948   8.281 -0.2293  0.4720 -0.9495
  307MOL0     H40496   3.547   1.967   8.065 -1.4201  0.9335  0.8430
  307MOL0     H40497   3.556   1.799   8.090 -3.6853 -1.2751  0.8244
  307MOL0     H40498   3.310   1.938   8.053  0.4489 -0.7964 -5.2099
  307MOL0     H40499   3.314   1.814   8.168 -1.0847 -1.8317 -1.4113
  307MOL0     H40500   3.395   1.638   7.997 -3.6149 -2.1104 -1.9372
  307MOL0     H40501   3.438   1.753   7.883 -2.1851  0.3456 -1.3961
  307MOL0     H40502   3.185   1.642   7.918 -2.1842  1.4186  3.0112
  307MOL0     H40503   3.169   1.808   7.958 -0.0610 -0.1066  0.4783
  307MOL0     H40504   3.135   1.777   7.707 -0.1776 -2.5680  0.6172
  307MOL0     H40505   3.281   1.690   7.689  1.6289 -1.2817  0.9594
  307MOL0     H40506   3.642   2.235   8.256 -2.5103  0.1295 -1.5288
  307MOL0     H40507   3.616   2.480   8.173  2.6312  0.0024  1.3392
  307MOL0     H40508   3.404   2.724   7.900  2.1734 -0.1337  2.5241
  307MOL0     H40509   3.363   2.936   7.786 -0.4451  2.3548  1.1220
  307MOL0     H40510   4.219   4.187   7.328 -0.9120  0.8766 -1.2404
  307MOL0     H40511   4.432   4.261   7.411 -1.6343 -2.5849  1.9465
  307MOL0     H40512   4.662   4.522   7.710 -3.2526  2.7345 -4.5010
  307MOL0     H40513   4.887   4.519   7.781  1.0356  0.0476 -0.4627
  307MOL0     H40514   5.095   4.562   7.800 -3.1893 -2.1716 -1.9525
  307MOL0     H40515   5.078   4.714   7.700 -1.0775  0.3598  3.4215
  307MOL0     H40516   5.329   4.530   7.739  0.7166  0.0673 -1.2937
  307MOL0     H40517   5.340   4.674   7.637  3.3846  0.5767  0.8997
  307MOL0     H40518   5.269   4.724   7.918 -1.1948  3.2392 -0.6191
  307MOL0     H40519   5.342   4.820   7.810  0.9515  0.4656  2.6890
  307MOL0     H40520   5.514   4.738   7.950 -0.6652  2.2649 -1.1623
  307MOL0     H40521   5.489   4.564   7.897  1.7454 -0.1505  1.9298
  307MOL0     H40522   5.675   4.691   7.556  3.3915 -0.7433  1.9946
  307MOL0     H40523   5.022   4.477   7.376 -0.6205 -0.7784  1.6198
  307MOL0     H40524   4.788   4.465   7.313  0.4535 -2.4881 -0.4916
  308MOL0     O40525   9.735   5.252   9.349  0.3931 -0.9110 -0.2970
  308MOL0     C40526   9.746   5.152   9.281  0.9119  1.0988 -0.9365
  308MOL0     O40527   9.674   5.035   9.312 -0.3808  0.2051  0.4717
  308MOL0     C40528   9.638   4.951   9.215 -0.0474 -0.0457  1.1756
  308MOL0     C40529   9.650   4.817   9.212 -0.1812 -0.4053  0.2488
  308MOL0     C40530   9.600   4.738   9.107 -0.3736  0.5008 -0.4177
  308MOL0     C40531   9.526   4.788   9.012  0.3543 -0.2930  0.2389
  308MOL0     O40532   9.471   4.701   8.923  0.3652 -0.4441 -0.2473
  308MOL0     C40533   9.380   4.618   8.994 -0.1713 -0.2344 -0.0378
  308MOL0     C40534   9.285   4.561   8.894 -0.0197  0.0946 -0.2753
  308MOL0     C40535   9.205   4.644   8.790  0.1007 -0.2195  0.6676
  308MOL0     C40536   9.108   4.557   8.709  0.7412  0.1864 -1.4133
  308MOL0     C40537   9.012   4.610   8.612 -0.0932  0.4262  0.5569
  308MOL0     C40538   8.905   4.700   8.679  0.8175 -0.6183 -0.1040
  308MOL0     C40539   8.784   4.736   8.591 -0.4856 -0.6763  0.1728
  308MOL0     C40540   8.670   4.811   8.656  1.1358  0.4784  0.3664
  308MOL0     N40541   8.701   4.934   8.724 -0.0186 -0.4074  0.5369
  308MOL0     C40542   8.689   4.970   8.860  0.3716  0.7391 -0.2264
  308MOL0     C40543   8.747   5.093   8.860  0.1709 -0.7791  0.0139
  308MOL0     C40544   8.795   5.168   8.984 -0.2016  1.0233  0.9978
  308MOL0     C40545   8.934   5.223   8.959 -0.5547  0.3977 -0.0466
  308MOL0     C40546   9.050   5.119   8.938  0.0304  0.1297  0.0294
  308MOL0     C40547   9.173   5.162   8.867  0.1565 -0.5351  0.1416
  308MOL0     O40548   9.250   5.063   8.788 -0.3118  0.5876 -0.3537
  308MOL0     C40549   9.234   5.018   8.657  1.2137 -0.0441  0.5344
  308MOL0     C40550   9.126   5.057   8.575  0.1639 -0.3662 -0.3407
  308MOL0     C40551   9.109   5.008   8.446 -0.0435  1.3280 -0.2201
  308MOL0     C40552   9.195   4.895   8.398  0.3258  0.0959 -0.4342
  308MOL0     C40553   9.182   4.825   8.271 -0.3441  0.0363  0.1466
  308MOL0     O40554   9.092   4.873   8.183 -0.2076 -0.5243  0.8015
  308MOL0     C40555   9.102   4.812   8.060 -0.3913 -0.2610 -0.5239
  308MOL0     C40556   9.193   4.862   7.964  0.5793 -0.6248  0.6819
  308MOL0     C40557   9.211   4.804   7.836 -0.0576 -0.4752 -0.6664
  308MOL0     C40558   9.122   4.702   7.804  0.1728 -0.2421 -0.1273
  308MOL0     O40559   9.140   4.661   7.676 -0.0565  0.0907  0.6123
  308MOL0     C40560   9.048   4.679   7.569 -0.5441  0.1011 -0.1999
  308MOL0     C40561   9.041   4.824   7.524 -0.1735 -0.6908 -1.4453
  308MOL0     C40562   8.917   4.835   7.439  0.0545 -0.1681  0.5429
  308MOL0     C40563   8.914   4.985   7.373 -0.2417  0.5110  0.3221
  308MOL0     C40564   8.919   5.085   7.487  0.1276  0.6015  0.8051
  308MOL0     C40565   8.880   5.225   7.445  0.2582 -0.3459  0.2443
  308MOL0     C40566   8.993   5.288   7.361 -1.0292  0.3447 -0.7759
  308MOL0     C40567   8.979   5.446   7.366 -0.3007  0.6088  0.5439
  308MOL0    Cl40568   9.025   5.502   7.532  0.1427 -0.0024 -0.2790
  308MOL0     C40569   9.020   4.662   7.894  0.6820  0.6564 -0.1240
  308MOL0     C40570   9.009   4.724   8.019  0.5608  0.3929  0.0852
  308MOL0     O40571   9.257   4.722   8.247 -0.1006  0.3586 -0.6487
  308MOL0     C40572   9.297   4.855   8.485  1.0355  0.3595 -0.4098
  308MOL0     C40573   9.317   4.911   8.614 -0.3948 -0.1128  0.2664
  308MOL0     N40574   8.771   5.133   8.725 -0.4989  1.5158  0.0476
  308MOL0     N40575   8.753   5.037   8.651  0.7210 -0.1494  0.0222
  308MOL0     C40576   9.498   4.924   9.012 -0.4125 -0.1717  0.1835
  308MOL0     C40577   9.556   5.004   9.111 -0.2341  0.2112 -0.3236
  308MOL0     C40578   9.829   5.170   9.157 -0.3344 -0.5778 -0.7158
  308MOL0     C40579   9.913   5.065   9.110 -0.0194 -0.3274 -1.1254
  308MOL0     C40580  10.004   5.085   9.007  0.2422 -0.6242  0.6108
  308MOL0     C40581  10.022   5.210   8.964  0.5707 -0.7673 -0.1073
  308MOL0     O40582  10.100   5.237   8.857 -0.0395  0.5413  0.4709
  308MOL0     C40583  10.218   5.154   8.840  0.2656 -0.2098  0.2988
  308MOL0     C40584  10.316   5.216   8.746 -0.0213  0.4616  0.8754
  308MOL0     C40585  10.395   5.340   8.811  0.9292  0.2102  0.0343
  308MOL0     C40586  10.435   5.436   8.698 -0.1595  0.0424 -0.4395
  308MOL0     C40587  10.540   5.518   8.750 -0.6557  0.4251 -0.2349
  308MOL0     C40588  10.629   5.590   8.781 -0.6987  1.0295 -0.1060
  308MOL0     C40589   9.940   5.314   9.001 -0.5699  0.4516 -1.2343
  308MOL0     C40590   9.849   5.303   9.099  0.2562  1.1668 -0.0045
  308MOL0     H40591   9.703   4.777   9.298  0.2735  2.0170  1.1830
  308MOL0     H40592   9.625   4.633   9.111 -0.8521  0.3943 -0.1547
  308MOL0     H40593   9.314   4.668   9.066 -0.3784  1.0650 -1.0910
  308MOL0     H40594   9.443   4.543   9.042  1.2423  0.7929 -0.2012
  308MOL0     H40595   9.205   4.528   8.962 -0.0882 -4.4451 -2.1995
  308MOL0     H40596   9.326   4.477   8.838 -3.1485 -1.2977 -0.6827
  308MOL0     H40597   9.274   4.691   8.719 -0.7627  0.5489  0.3203
  308MOL0     H40598   9.158   4.732   8.836 -5.7486 -1.5942 -1.9051
  308MOL0     H40599   9.155   4.477   8.651 -0.4090 -0.2834 -1.7217
  308MOL0     H40600   9.048   4.501   8.782 -1.0730  1.1966 -2.0870
  308MOL0     H40601   8.968   4.520   8.568  1.5135 -0.2132  0.1834
  308MOL0     H40602   9.053   4.672   8.532 -1.2938  2.8587  1.7169
  308MOL0     H40603   8.944   4.800   8.697  0.6161 -0.3768 -0.9612
  308MOL0     H40604   8.874   4.666   8.778  2.1302  0.6495  0.7698
  308MOL0     H40605   8.812   4.791   8.500 -0.2209 -0.4165  0.4098
  308MOL0     H40606   8.749   4.637   8.561  2.0808 -1.6816  0.2692
  308MOL0     H40607   8.623   4.743   8.729  3.0831 -1.5136 -0.1120
  308MOL0     H40608   8.596   4.829   8.578  1.1983  1.8117  0.6021
  308MOL0     H40609   8.671   4.916   8.952  3.7340 -2.2715 -1.0867
  308MOL0     H40610   8.780   5.098   9.067 -0.2249  2.5690  2.3466
  308MOL0     H40611   8.728   5.253   8.995 -0.0388  1.0577  1.7756
  308MOL0     H40612   8.957   5.280   9.050 -2.4503 -0.6746  1.1853
  308MOL0     H40613   8.940   5.294   8.876 -1.2940 -1.2428 -1.5719
  308MOL0     H40614   9.067   5.075   9.037  1.6617 -2.2475 -1.2080
  308MOL0     H40615   9.018   5.038   8.873  3.2927 -1.0750 -0.2554
  308MOL0     H40616   9.240   5.213   8.937  0.0628  1.4564 -1.1464
  308MOL0     H40617   9.141   5.249   8.808  2.1251 -1.0360 -1.8058
  308MOL0     H40618   9.068   5.145   8.602 -1.3381 -2.0021  2.1264
  308MOL0     H40619   9.037   5.047   8.375  0.1274  1.1094 -0.5160
  308MOL0     H40620   9.264   4.942   7.985 -1.6802  1.4354  0.8719
  308MOL0     H40621   9.292   4.832   7.770  2.0550 -0.5333  1.7496
  308MOL0     H40622   8.954   4.627   7.593  1.7805 -5.2893 -1.1876
  308MOL0     H40623   9.105   4.626   7.492  2.3003  0.0333  1.7921
  308MOL0     H40624   9.131   4.838   7.462  0.1162 -0.5465 -1.0000
  308MOL0     H40625   9.052   4.879   7.618  0.4170 -0.7661 -1.4654
  308MOL0     H40626   8.826   4.804   7.492 -0.5293  1.4087  0.5138
  308MOL0     H40627   8.921   4.760   7.360  3.2506  0.8598 -0.4222
  308MOL0     H40628   9.004   4.981   7.311 -1.4271 -3.1157 -1.3839
  308MOL0     H40629   8.832   5.020   7.310  1.3887  3.9234 -0.1635
  308MOL0     H40630   9.020   5.085   7.527 -0.1731  0.4464  1.5908
  308MOL0     H40631   8.856   5.044   7.567 -3.4798 -1.6324 -2.7675
  308MOL0     H40632   8.876   5.290   7.533  1.3822 -0.6441  0.5342
  308MOL0     H40633   8.780   5.222   7.402  0.4031 -2.0974 -0.0398
  308MOL0     H40634   9.098   5.277   7.391 -0.7555  2.4146 -0.8535
  308MOL0     H40635   8.978   5.241   7.263 -0.6744 -0.9430 -0.2357
  308MOL0     H40636   8.883   5.482   7.329 -1.1894 -3.0070 -1.1528
  308MOL0     H40637   9.057   5.485   7.299  0.2275 -0.2061  0.6584
  308MOL0     H40638   8.938   4.593   7.875  0.7164 -0.4570  3.0494
  308MOL0     H40639   8.925   4.691   8.078  1.0746 -1.2415 -0.0557
  308MOL0     H40640   9.363   4.771   8.467  1.7369  0.4616  1.4522
  308MOL0     H40641   9.399   4.879   8.678  0.2830  2.5349  0.8260
  308MOL0     H40642   9.439   4.970   8.933  0.0435 -0.9266 -0.6120
  308MOL0     H40643   9.544   5.112   9.109  0.1426  0.2587 -0.2784
  308MOL0     H40644   9.899   4.973   9.166 -0.4153  1.2171  1.4632
  308MOL0     H40645  10.058   4.997   8.972  1.1589 -0.0395  0.5127
  308MOL0     H40646  10.201   5.048   8.819 -1.8267  0.0779  0.3030
  308MOL0     H40647  10.272   5.139   8.934  4.4765 -2.0280 -2.1333
  308MOL0     H40648  10.380   5.130   8.725 -0.8239 -0.7315  3.0800
  308MOL0     H40649  10.267   5.235   8.650 -1.1731 -4.7059  0.1362
  308MOL0     H40650  10.483   5.312   8.869 -0.5754  0.3839  2.5989
  308MOL0     H40651  10.334   5.395   8.884  1.2434  0.2335  0.2801
  308MOL0     H40652  10.476   5.391   8.607 -1.0004  0.6370 -1.1395
  308MOL0     H40653  10.341   5.480   8.661 -1.7087 -1.8127  1.0850
  308MOL0     H40654  10.706   5.661   8.803  1.9153 -2.1932  1.9783
  308MOL0     H40655   9.948   5.411   8.951  0.5070  2.1064  1.8808
  308MOL0     H40656   9.786   5.386   9.130  0.0642  1.6822 -1.6750
  309MOL0     O40657   5.114   3.128   3.070  0.0460 -0.0052 -0.0988
  309MOL0     C40658   5.025   3.083   3.005  0.6427  0.1655 -0.1145
  309MOL0     O40659   4.928   2.989   3.061 -0.6162  0.1643 -0.0502
  309MOL0     C40660   4.981   2.931   3.161  0.3187 -0.0760 -0.4153
  309MOL0     C40661   4.955   2.984   3.286 -0.1016 -0.7242 -0.7743
  309MOL0     C40662   5.033   2.944   3.392 -1.1678  0.1568 -1.1608
  309MOL0     C40663   5.127   2.838   3.379 -0.0296 -0.2622  0.0724
  309MOL0     O40664   5.186   2.781   3.484  0.0443 -0.2094 -0.7988
  309MOL0     C40665   5.313   2.836   3.517  0.0239 -0.2842 -0.0532
  309MOL0     C40666   5.373   2.735   3.603  1.0657  0.6492 -0.3148
  309MOL0     C40667   5.514   2.760   3.654 -0.1357  0.3477 -0.0092
  309MOL0     C40668   5.562   2.654   3.757 -0.0958  0.2969  0.6780
  309MOL0     C40669   5.699   2.684   3.806 -0.5109 -0.0819 -0.5293
  309MOL0     C40670   5.751   2.595   3.916  1.1005  0.2282 -0.1403
  309MOL0     C40671   5.744   2.445   3.878  0.1434  0.7658 -0.1026
  309MOL0     C40672   5.834   2.408   3.759 -0.9334 -0.8341 -0.0589
  309MOL0     N40673   5.815   2.268   3.715  0.1394 -0.4057  0.5599
  309MOL0     C40674   5.714   2.198   3.656 -0.3976 -0.7887 -0.0161
  309MOL0     C40675   5.766   2.078   3.622 -0.3292  0.3049 -0.1812
  309MOL0     C40676   5.706   1.967   3.553 -1.1432 -0.0333 -0.3471
  309MOL0     C40677   5.660   2.002   3.415 -0.7694  0.1394 -0.7165
  309MOL0     C40678   5.610   1.893   3.327 -1.5476  0.4481  0.0927
  309MOL0     C40679   5.718   1.783   3.302 -0.4079 -0.4575  1.1390
  309MOL0     O40680   5.685   1.677   3.198 -0.2239 -0.6508 -0.1569
  309MOL0     C40681   5.784   1.613   3.132 -0.1989  0.2837 -0.1296
  309MOL0     C40682   5.913   1.591   3.181  0.7377 -0.8338  0.5312
  309MOL0     C40683   6.007   1.522   3.104  0.1624  0.0400 -0.1263
  309MOL0     C40684   5.968   1.464   2.981  0.0470 -0.0510 -0.2030
  309MOL0     C40685   6.074   1.398   2.902  0.3999  0.0142  0.0281
  309MOL0     O40686   6.030   1.319   2.799 -0.2459 -0.3251  0.4355
  309MOL0     C40687   6.126   1.276   2.707  0.2344  0.6161  0.2618
  309MOL0     C40688   6.083   1.282   2.569 -0.1849 -0.8725 -0.4125
  309MOL0     C40689   6.167   1.249   2.461 -0.0676 -0.1856  0.3782
  309MOL0     C40690   6.295   1.202   2.489 -0.1742 -0.0420  0.2723
  309MOL0     O40691   6.369   1.153   2.383  0.0048  0.1371  0.0292
  309MOL0     C40692   6.510   1.173   2.380  0.1577 -0.4368 -0.1947
  309MOL0     C40693   6.547   1.208   2.234 -0.4905  0.1223 -0.6090
  309MOL0     C40694   6.533   1.075   2.145  0.8245  0.0831  0.4192
  309MOL0     C40695   6.582   1.107   2.002 -0.1117  0.6271 -0.9082
  309MOL0     C40696   6.581   0.976   1.918  0.4440  0.4315  0.1264
  309MOL0     C40697   6.444   0.914   1.896  0.2784  0.0784 -0.3044
  309MOL0     C40698   6.468   0.783   1.823 -0.0624  1.0556 -0.4355
  309MOL0     C40699   6.337   0.709   1.787  0.0215  0.3319  0.0445
  309MOL0    Cl40700   6.272   0.601   1.930  0.0694  0.0357 -0.2069
  309MOL0     C40701   6.329   1.175   2.624  0.8389  0.1751  0.1703
  309MOL0     C40702   6.244   1.215   2.730 -0.0176  1.0636 -0.5439
  309MOL0     O40703   6.194   1.427   2.913  0.2549 -0.0129 -0.1816
  309MOL0     C40704   5.837   1.479   2.932  0.4074 -0.1828 -0.8948
  309MOL0     C40705   5.746   1.548   3.015 -0.0467  0.7468 -0.4045
  309MOL0     N40706   5.892   2.064   3.678 -0.1206  0.1200  0.9331
  309MOL0     N40707   5.915   2.177   3.731 -1.5675  0.3191 -0.1378
  309MOL0     C40708   5.142   2.783   3.255  0.8163 -0.3622 -0.1602
  309MOL0     C40709   5.066   2.826   3.146 -0.8353 -0.7118  0.3786
  309MOL0     C40710   4.994   3.146   2.871  0.3050 -0.8812 -0.1322
  309MOL0     C40711   5.075   3.250   2.816 -0.3050  0.4724  0.5285
  309MOL0     C40712   5.043   3.313   2.695  0.0795  0.1842 -0.4762
  309MOL0     C40713   4.935   3.263   2.611  0.3144  0.4127  0.0967
  309MOL0     O40714   4.889   3.314   2.490  0.6789 -0.0107  0.1435
  309MOL0     C40715   4.991   3.369   2.404 -0.2138  0.2226  1.0341
  309MOL0     C40716   4.951   3.312   2.262 -0.7014 -0.2258 -0.1619
  309MOL0     C40717   4.964   3.166   2.237  0.2515 -0.0213  0.4738
  309MOL0     C40718   4.942   3.144   2.083  0.0028  0.6414  0.3745
  309MOL0     C40719   4.875   3.023   2.048  0.5737 -0.3111  0.3703
  309MOL0     C40720   4.812   2.931   2.003 -0.1755  0.4743 -0.4983
  309MOL0     C40721   4.862   3.158   2.672  0.2712 -0.1771 -0.0105
  309MOL0     C40722   4.881   3.106   2.795  0.2471 -0.7080  0.5931
  309MOL0     H40723   4.889   3.069   3.300  0.2760 -0.6598  0.7962
  309MOL0     H40724   5.021   2.978   3.494 -0.5005 -1.2366 -0.5845
  309MOL0     H40725   5.297   2.931   3.568 -0.9753 -0.4390 -0.0482
  309MOL0     H40726   5.386   2.841   3.435  0.1091  0.8765  0.0748
  309MOL0     H40727   5.385   2.641   3.550  2.0714  2.6245 -3.9116
  309MOL0     H40728   5.316   2.734   3.697  3.8167  0.3079  1.4745
  309MOL0     H40729   5.515   2.863   3.689 -0.9821  0.8843 -1.4437
  309MOL0     H40730   5.583   2.753   3.570 -1.2528  2.3040 -1.1770
  309MOL0     H40731   5.492   2.660   3.841  1.4010 -0.0057  1.9966
  309MOL0     H40732   5.541   2.555   3.715 -0.0724  0.1987  0.9006
  309MOL0     H40733   5.696   2.783   3.852  1.4417 -1.6195  3.3814
  309MOL0     H40734   5.775   2.701   3.730 -0.8183  1.9211 -0.4367
  309MOL0     H40735   5.680   2.592   3.999  2.1439 -1.4185  0.7403
  309MOL0     H40736   5.848   2.636   3.947 -1.0627  2.9910  3.8756
  309MOL0     H40737   5.776   2.387   3.965  1.1539  0.0997 -0.8910
  309MOL0     H40738   5.645   2.404   3.861  0.7876 -1.2841  0.7875
  309MOL0     H40739   5.940   2.430   3.777 -0.4417 -4.0818  2.0284
  309MOL0     H40740   5.807   2.466   3.671 -5.1376 -0.9987  0.9346
  309MOL0     H40741   5.622   2.243   3.620 -1.1277 -2.0285  0.2489
  309MOL0     H40742   5.620   1.937   3.613 -1.0201 -0.3445 -0.3255
  309MOL0     H40743   5.778   1.884   3.551 -1.0815 -0.0162  0.8234
  309MOL0     H40744   5.744   2.049   3.363 -0.2688  0.0600 -0.0034
  309MOL0     H40745   5.571   2.064   3.426  0.4554  2.1818 -1.7413
  309MOL0     H40746   5.523   1.853   3.380 -1.5150  1.1950  0.7341
  309MOL0     H40747   5.587   1.932   3.228  2.5226  3.4622  0.0715
  309MOL0     H40748   5.737   1.725   3.393 -0.5862 -0.7570  0.9861
  309MOL0     H40749   5.815   1.830   3.285  0.5600 -2.7353  0.0189
  309MOL0     H40750   5.925   1.614   3.286 -0.2486 -1.5903  0.8246
  309MOL0     H40751   6.102   1.501   3.153  0.4893 -1.3270 -1.2874
  309MOL0     H40752   5.987   1.329   2.553  0.1689  0.5985  1.4359
  309MOL0     H40753   6.135   1.261   2.358 -0.9826 -3.2377  0.2130
  309MOL0     H40754   6.575   1.088   2.406  0.6350 -0.9888 -2.8547
  309MOL0     H40755   6.538   1.255   2.446  2.5199 -2.0206  0.9179
  309MOL0     H40756   6.654   1.234   2.233 -0.4384  0.0564  0.9607
  309MOL0     H40757   6.480   1.282   2.190 -2.0070  0.1311  1.5663
  309MOL0     H40758   6.426   1.052   2.136  0.9095 -1.2113  2.3069
  309MOL0     H40759   6.584   0.987   2.183  1.3043  0.6666  1.1647
  309MOL0     H40760   6.522   1.188   1.959  1.8488  1.4146 -2.2843
  309MOL0     H40761   6.686   1.141   2.003 -0.1185  0.6454 -0.2559
  309MOL0     H40762   6.644   0.900   1.964  1.4754  0.3561 -1.3432
  309MOL0     H40763   6.625   0.997   1.820  1.5236 -1.0312  0.2576
  309MOL0     H40764   6.386   0.989   1.842 -1.8244 -1.3763 -0.1693
  309MOL0     H40765   6.388   0.883   1.985  0.8745  0.2211  0.1259
  309MOL0     H40766   6.514   0.800   1.725 -0.5928  1.4148 -0.6248
  309MOL0     H40767   6.529   0.709   1.875 -1.0152  0.2270 -0.4823
  309MOL0     H40768   6.348   0.655   1.692 -2.8876  1.4541 -1.0679
  309MOL0     H40769   6.261   0.776   1.745 -0.2688 -0.5490 -0.8937
  309MOL0     H40770   6.418   1.114   2.636 -0.7295 -3.0062 -2.7199
  309MOL0     H40771   6.284   1.213   2.831 -0.8020  0.5245 -0.2324
  309MOL0     H40772   5.814   1.428   2.839 -1.7508 -0.1031 -0.4700
  309MOL0     H40773   5.642   1.564   2.988  0.5875  0.6119 -3.2431
  309MOL0     H40774   5.214   2.702   3.245  0.3754 -0.9361  1.0332
  309MOL0     H40775   5.092   2.778   3.052 -0.5766  1.9515 -0.9898
  309MOL0     H40776   5.164   3.286   2.868 -0.0235 -2.3661  2.2010
  309MOL0     H40777   5.116   3.383   2.657  0.8540 -0.4987 -0.2786
  309MOL0     H40778   5.089   3.325   2.424  0.1229  0.5968  0.2683
  309MOL0     H40779   5.001   3.477   2.416  1.1106  0.0300  1.8762
  309MOL0     H40780   4.851   3.351   2.242 -0.8740  0.8165  2.4341
  309MOL0     H40781   5.020   3.357   2.189 -0.9472 -1.1600 -0.9947
  309MOL0     H40782   4.888   3.107   2.289  2.1705 -4.4755 -1.2974
  309MOL0     H40783   5.058   3.124   2.274 -0.1345 -2.0754 -0.7673
  309MOL0     H40784   4.887   3.227   2.037 -0.4688 -0.1053 -0.4638
  309MOL0     H40785   5.038   3.134   2.032 -0.1377  1.0163  0.0231
  309MOL0     H40786   4.777   2.831   1.987  0.3079  0.5828 -2.5702
  309MOL0     H40787   4.779   3.114   2.618  0.5792 -0.9036  0.0938
  309MOL0     H40788   4.813   3.026   2.824  0.6976 -1.6152 -0.7701
  310MOL0     O40789   9.629  10.067   1.426  0.6578 -1.1579  0.2902
  310MOL0     C40790   9.698  10.152   1.376 -0.5426 -0.0650 -0.1927
  310MOL0     O40791   9.832  10.132   1.360 -0.6661 -0.2370  0.4388
  310MOL0     C40792   9.896  10.011   1.368  0.5275  0.3056  0.4159
  310MOL0     C40793  10.017  10.003   1.446  1.0028  0.2147  0.0351
  310MOL0     C40794  10.079   9.874   1.441  0.1282 -0.5396 -0.8202
  310MOL0     C40795  10.028   9.766   1.371  0.3822  0.6095 -0.3148
  310MOL0     O40796  10.092   9.644   1.382 -0.0458 -0.2526 -0.5102
  310MOL0     C40797  10.010   9.524   1.376  0.1281 -0.0632  1.1737
  310MOL0     C40798  10.090   9.415   1.439  0.1181  0.4308 -0.3093
  310MOL0     C40799  10.243   9.395   1.399  0.2639 -0.6159 -0.4135
  310MOL0     C40800  10.314   9.267   1.461 -0.2163  0.9245  0.8058
  310MOL0     C40801  10.465   9.278   1.449 -0.4946  0.4879  0.1050
  310MOL0     C40802  10.501   9.268   1.308  0.4406 -0.2545  0.3251
  310MOL0     C40803  10.639   9.220   1.271  0.9463  0.3639  1.2463
  310MOL0     C40804  10.743   9.268   1.376  0.6288 -1.1887  0.2438
  310MOL0     N40805  10.753   9.419   1.381 -1.3960  0.5213 -0.3570
  310MOL0     C40806  10.737   9.495   1.495  0.1950  0.5811 -0.2618
  310MOL0     C40807  10.761   9.622   1.462  0.2292  0.8963  0.4781
  310MOL0     C40808  10.758   9.747   1.543  0.3047  0.6285 -0.2001
  310MOL0     C40809  10.675   9.848   1.476 -0.0726 -0.2914 -0.3483
  310MOL0     C40810  10.606   9.946   1.583  0.3121 -0.2247 -0.4082
  310MOL0     C40811  10.513  10.049   1.503 -0.1804  0.9662  0.0144
  310MOL0     O40812  10.430  10.105   1.596 -0.4296 -0.1605 -0.2680
  310MOL0     C40813  10.348  10.197   1.554  0.2449  0.0700  0.0006
  310MOL0     C40814  10.316  10.294   1.655 -0.3090 -0.1682 -0.0287
  310MOL0     C40815  10.225  10.392   1.632  0.0980 -0.0938 -0.1653
  310MOL0     C40816  10.163  10.406   1.506 -0.8587 -0.0280  0.0457
  310MOL0     C40817  10.057  10.501   1.488 -0.9503 -0.1200  0.7405
  310MOL0     O40818  10.001  10.554   1.589  0.6749  0.0753  0.2802
  310MOL0     C40819   9.934  10.671   1.573  0.0366 -0.3854  0.5933
  310MOL0     C40820   9.802  10.682   1.527 -0.1852  0.2711  0.1336
  310MOL0     C40821   9.743  10.800   1.503 -0.4479  0.0447  0.6477
  310MOL0     C40822   9.813  10.919   1.546  0.7167 -0.1482 -0.0538
  310MOL0     O40823   9.741  11.039   1.532 -0.6959 -0.5676 -0.1726
  310MOL0     C40824   9.687  11.079   1.402  0.5597 -0.7836 -0.6311
  310MOL0     C40825   9.656  11.227   1.411 -0.6927 -0.6193 -0.2295
  310MOL0     C40826   9.537  11.264   1.497 -0.1909  0.5493  1.0947
  310MOL0     C40827   9.494  11.417   1.483  0.2076 -0.1742  0.1464
  310MOL0     C40828   9.602  11.523   1.524  1.2782 -0.1698  0.0336
  310MOL0     C40829   9.570  11.664   1.464 -0.7966  0.6201  0.1927
  310MOL0     C40830   9.673  11.773   1.515 -0.7911 -0.3032 -0.4242
  310MOL0     C40831   9.622  11.910   1.463  0.6078  0.1474 -0.1641
  310MOL0    Cl40832   9.673  11.920   1.289 -0.6902 -0.4896  0.3455
  310MOL0     C40833   9.937  10.910   1.606 -0.7731  0.0281  0.7743
  310MOL0     C40834   9.997  10.789   1.621 -0.2470  0.2033  1.6464
  310MOL0     O40835  10.031  10.519   1.372 -0.1982 -0.1402  0.5546
  310MOL0     C40836  10.207  10.322   1.406 -0.3696 -0.1668 -0.1148
  310MOL0     C40837  10.299  10.220   1.431  0.1885  0.2930  0.0216
  310MOL0     N40838  10.801   9.619   1.332  0.0458 -1.3832 -0.0894
  310MOL0     N40839  10.800   9.502   1.286 -0.0426  0.5818  0.7112
  310MOL0     C40840   9.915   9.784   1.298  0.9982  0.4059 -0.6930
  310MOL0     C40841   9.846   9.903   1.291 -0.0111  0.5698 -0.6074
  310MOL0     C40842   9.642  10.286   1.336  0.1840 -0.7455  0.7321
  310MOL0     C40843   9.515  10.329   1.390  0.1528  0.9168 -0.1190
  310MOL0     C40844   9.456  10.452   1.351  0.4987  0.1750  0.6224
  310MOL0     C40845   9.521  10.541   1.265 -0.3775 -0.6548 -0.5653
  310MOL0     O40846   9.465  10.662   1.244  0.1055 -0.2410 -0.3186
  310MOL0     C40847   9.517  10.750   1.146 -0.8942 -0.3352 -0.7312
  310MOL0     C40848   9.446  10.882   1.133  0.2852 -0.1678  0.0040
  310MOL0     C40849   9.303  10.858   1.081 -0.1951 -0.1196 -0.1568
  310MOL0     C40850   9.303  10.824   0.931  0.5096  0.1067 -0.0940
  310MOL0     C40851   9.173  10.799   0.880  0.2250  0.2451 -0.7059
  310MOL0     C40852   9.066  10.787   0.823  0.0675  0.3050  0.8093
  310MOL0     C40853   9.651  10.504   1.229  0.5774  0.0971  0.9432
  310MOL0     C40854   9.706  10.385   1.262  0.2482  0.1024  0.7276
  310MOL0     H40855  10.045  10.090   1.505  1.5285 -0.4499  0.7897
  310MOL0     H40856  10.166   9.869   1.506 -0.5110  2.4872  0.4110
  310MOL0     H40857   9.993   9.519   1.268  0.6511  2.1429  0.9342
  310MOL0     H40858   9.920   9.543   1.435 -0.4100 -0.2300  0.4251
  310MOL0     H40859  10.027   9.326   1.430 -0.3152  0.4857  1.8117
  310MOL0     H40860  10.090   9.446   1.544  2.2792  0.2443 -0.2064
  310MOL0     H40861  10.301   9.484   1.426  0.1443  0.4333 -3.3387
  310MOL0     H40862  10.239   9.385   1.291 -0.7659  1.9606 -0.6919
  310MOL0     H40863  10.276   9.257   1.564  2.3574  1.9308  1.9402
  310MOL0     H40864  10.278   9.178   1.409 -1.0324  0.8323  1.4995
  310MOL0     H40865  10.504   9.187   1.496  1.6221  1.3495  0.1362
  310MOL0     H40866  10.516   9.359   1.502 -0.6121 -0.9884  2.6515
  310MOL0     H40867  10.478   9.363   1.260 -0.5640 -0.6073  0.0986
  310MOL0     H40868  10.430   9.202   1.259 -0.4228 -0.4709  1.8176
  310MOL0     H40869  10.643   9.111   1.262 -0.2432  0.2026  2.3245
  310MOL0     H40870  10.662   9.264   1.173 -0.1111 -1.3087  0.1923
  310MOL0     H40871  10.835   9.221   1.339  1.5200 -0.6534  1.7022
  310MOL0     H40872  10.722   9.237   1.478  1.5325  1.2643  1.2499
  310MOL0     H40873  10.703   9.456   1.590  2.0496 -2.2929 -0.6645
  310MOL0     H40874  10.857   9.789   1.562  0.5313  0.8303 -1.7012
  310MOL0     H40875  10.706   9.717   1.634  0.6324 -2.8945 -1.0091
  310MOL0     H40876  10.598   9.783   1.434  1.2502 -2.6223  0.5862
  310MOL0     H40877  10.735   9.903   1.403  2.6575 -0.4882  1.5901
  310MOL0     H40878  10.544   9.890   1.654  2.6225 -1.0254  1.0787
  310MOL0     H40879  10.676  10.001   1.647  0.4246 -1.8712  0.9564
  310MOL0     H40880  10.458   9.992   1.427  1.7293  1.7239 -2.0385
  310MOL0     H40881  10.575  10.129   1.461  2.0446 -0.3309  0.6463
  310MOL0     H40882  10.357  10.280   1.755 -2.4071 -1.2245  0.7528
  310MOL0     H40883  10.200  10.451   1.719  0.1228  0.9637 -0.8530
  310MOL0     H40884   9.740  10.595   1.508 -0.3949  0.6591 -1.0534
  310MOL0     H40885   9.641  10.794   1.465 -1.8941 -5.3634  4.3241
  310MOL0     H40886   9.594  11.022   1.387 -2.2554  3.4711 -0.9677
  310MOL0     H40887   9.755  11.059   1.319  2.3788 -1.1931  0.8778
  310MOL0     H40888   9.636  11.257   1.308  3.5352 -0.1533 -1.0961
  310MOL0     H40889   9.742  11.278   1.455 -0.5327 -3.6281  3.4775
  310MOL0     H40890   9.577  11.247   1.597  3.4505  0.5051 -0.2276
  310MOL0     H40891   9.451  11.202   1.468 -0.2585  0.9471  0.4215
  310MOL0     H40892   9.479  11.433   1.376  3.0451  1.5636 -0.1032
  310MOL0     H40893   9.401  11.427   1.540 -0.2226 -1.8550 -0.1857
  310MOL0     H40894   9.697  11.493   1.480  2.9161  4.2289  0.1021
  310MOL0     H40895   9.604  11.527   1.633  0.3710  0.5955  0.0391
  310MOL0     H40896   9.467  11.690   1.492 -0.6608 -0.1254  1.4609
  310MOL0     H40897   9.577  11.651   1.356  3.7799 -2.3215  0.5786
  310MOL0     H40898   9.671  11.779   1.624 -2.7111  1.1176 -0.4840
  310MOL0     H40899   9.778  11.749   1.495 -0.6793 -0.4059  0.2623
  310MOL0     H40900   9.661  11.988   1.530  1.0028 -1.2130  1.2341
  310MOL0     H40901   9.514  11.922   1.476  0.4891 -1.9521  1.2862
  310MOL0     H40902   9.977  11.006   1.638  2.1487 -0.7058 -0.3272
  310MOL0     H40903  10.100  10.787   1.655  1.6069 -2.7093 -3.1664
  310MOL0     H40904  10.164  10.336   1.307  2.6343 -1.9873 -1.8015
  310MOL0     H40905  10.321  10.143   1.358  1.0791  1.1624 -0.6516
  310MOL0     H40906   9.887   9.708   1.225  3.1352 -0.0839 -1.0676
  310MOL0     H40907   9.755   9.925   1.236 -1.2310 -1.4222  0.5112
  310MOL0     H40908   9.460  10.260   1.453  1.3046  0.6044  0.5779
  310MOL0     H40909   9.360  10.480   1.393 -1.5536 -2.7462 -1.7455
  310MOL0     H40910   9.538  10.693   1.056  0.2365  0.9271 -1.3154
  310MOL0     H40911   9.615  10.781   1.185 -0.9098  1.7383 -2.1822
  310MOL0     H40912   9.442  10.939   1.227  2.5693  0.4242 -0.2030
  310MOL0     H40913   9.510  10.948   1.074  0.3326  0.2744  0.5322
  310MOL0     H40914   9.242  10.948   1.099  1.7871  1.7356 -2.0876
  310MOL0     H40915   9.266  10.775   1.142  0.2277 -0.7999 -0.8166
  310MOL0     H40916   9.331  10.915   0.878  0.4535 -1.1257 -2.3431
  310MOL0     H40917   9.377  10.751   0.897 -0.3339  0.0751 -1.9467
  310MOL0     H40918   8.974  10.788   0.768  1.2676  1.1511 -1.2954
  310MOL0     H40919   9.718  10.572   1.177  2.3896 -0.5960  2.2358
  310MOL0     H40920   9.812  10.370   1.247  0.2505 -2.1382  2.4797
  311MOL0     O40921  11.403   0.801   0.129 -0.8052 -0.1995 -0.4021
  311MOL0     C40922  11.292   0.788   0.087 -0.2775 -0.6971  0.2618
  311MOL0     O40923  11.195   0.706   0.131 -0.9590 -0.2537 -0.4170
  311MOL0     C40924  11.219   0.618   0.232  0.6706  0.4142 -0.1565
  311MOL0     C40925  11.334   0.542   0.249  0.3101  0.4408  0.9474
  311MOL0     C40926  11.356   0.485   0.373  0.2785  0.8634  0.0197
  311MOL0     C40927  11.254   0.466   0.466  0.5751  0.3131 -0.5419
  311MOL0     O40928  11.283   0.384   0.577 -0.8420 -0.0815 -1.3472
  311MOL0     C40929  11.161   0.325   0.645 -0.4122  0.3556 -0.4453
  311MOL0     C40930  11.196   0.229   0.762 -0.3452  0.3027  0.2784
  311MOL0     C40931  11.251   0.088   0.709  0.1084 -0.5078 -0.8175
  311MOL0     C40932  11.214  -0.035   0.789 -0.1929 -0.3584 -0.7290
  311MOL0     C40933  11.241  -0.008   0.943 -0.3477 -0.2118 -0.0205
  311MOL0     C40934  11.191  -0.128   1.018 -0.2506  0.6474 -0.5418
  311MOL0     C40935  11.200  -0.098   1.174  0.0039  0.2256 -0.2483
  311MOL0     C40936  11.112  -0.192   1.256 -0.2444 -0.8433 -0.4713
  311MOL0     N40937  11.112  -0.186   1.403 -0.2850 -1.3823  1.1957
  311MOL0     C40938  11.005  -0.202   1.492 -0.3508 -0.5360 -0.9093
  311MOL0     C40939  11.053  -0.163   1.615  0.4047 -0.2550  0.8071
  311MOL0     C40940  10.970  -0.162   1.746 -0.1920 -0.6260  0.0198
  311MOL0     C40941  11.019  -0.276   1.844  0.1755 -0.2304  1.4090
  311MOL0     C40942  10.922  -0.327   1.944 -0.5239 -0.0654  0.3114
  311MOL0     C40943  10.896  -0.241   2.057 -0.8976 -0.0562 -0.7171
  311MOL0     O40944  11.015  -0.197   2.117 -0.9145  0.5484 -0.1077
  311MOL0     C40945  11.048  -0.248   2.246  0.1757  0.2738  0.7546
  311MOL0     C40946  11.025  -0.377   2.295 -0.4852 -0.2388 -0.1702
  311MOL0     C40947  11.076  -0.414   2.415  0.1473  0.5550 -0.0010
  311MOL0     C40948  11.162  -0.321   2.484  0.0534 -0.2266  0.0711
  311MOL0     C40949  11.216  -0.349   2.614  0.1987 -0.8202  0.2325
  311MOL0     O40950  11.207  -0.256   2.721  0.5361  0.4646  0.3680
  311MOL0     C40951  11.252  -0.299   2.838 -0.3353 -0.6607 -0.4166
  311MOL0     C40952  11.169  -0.339   2.944  0.6599  0.4497  0.5735
  311MOL0     C40953  11.212  -0.355   3.075  0.5330  0.9106  0.3451
  311MOL0     C40954  11.341  -0.334   3.108 -0.5084 -0.3046 -0.2185
  311MOL0     O40955  11.388  -0.343   3.242 -0.0916 -0.5874  0.0468
  311MOL0     C40956  11.312  -0.279   3.346  0.6216 -1.0121  0.1352
  311MOL0     C40957  11.314  -0.126   3.336 -0.7632 -0.1074  0.6810
  311MOL0     C40958  11.457  -0.089   3.393 -0.0748 -0.4838  0.3811
  311MOL0     C40959  11.482   0.062   3.396 -1.5699 -0.3499  0.7065
  311MOL0     C40960  11.614   0.092   3.477  0.5320  0.0232  0.5945
  311MOL0     C40961  11.648   0.242   3.482  0.1598 -0.3140  0.5300
  311MOL0     C40962  11.765   0.282   3.575  0.9365  0.5359 -0.2438
  311MOL0     C40963  11.726   0.268   3.728  0.5907  0.4234 -0.5258
  311MOL0    Cl40964  11.661   0.424   3.779 -0.1443  0.0359 -0.3800
  311MOL0     C40965  11.431  -0.304   3.008 -0.7632  0.3934 -0.1063
  311MOL0     C40966  11.394  -0.290   2.870  0.2058  0.3059  0.5387
  311MOL0     O40967  11.260  -0.465   2.623  0.1625  0.2169 -0.7151
  311MOL0     C40968  11.186  -0.188   2.441 -0.6829  0.3656  0.7540
  311MOL0     C40969  11.134  -0.162   2.310  0.2905 -0.1356 -0.1727
  311MOL0     N40970  11.191  -0.136   1.597 -0.8516 -0.2174 -0.2578
  311MOL0     N40971  11.226  -0.150   1.476  0.4052  0.2913 -0.3900
  311MOL0     C40972  11.124   0.525   0.446  0.0545  0.0136  0.0820
  311MOL0     C40973  11.114   0.607   0.325  0.1773  0.6924 -1.5407
  311MOL0     C40974  11.245   0.890  -0.018  0.6524  0.7522 -0.0735
  311MOL0     C40975  11.312   1.010  -0.040  1.0616  0.5150  0.4426
  311MOL0     C40976  11.286   1.081  -0.157 -0.2845  0.1203  0.2161
  311MOL0     C40977  11.178   1.046  -0.243  0.2091 -0.3567  0.9973
  311MOL0     O40978  11.167   1.131  -0.347  0.1123  0.6677 -0.0657
  311MOL0     C40979  11.088   1.082  -0.456  1.3690  0.6035  0.8447
  311MOL0     C40980  11.080   1.186  -0.571 -0.0536  0.2675 -0.8501
  311MOL0     C40981  11.010   1.319  -0.523  0.3030 -0.9724  0.3274
  311MOL0     C40982  10.942   1.388  -0.638  0.3527  0.9354 -0.1797
  311MOL0     C40983  11.029   1.459  -0.727 -0.7576  1.3063 -0.2579
  311MOL0     C40984  11.107   1.531  -0.787 -0.5352  1.2742  0.2539
  311MOL0     C40985  11.112   0.922  -0.219  0.4841 -0.2180 -0.6312
  311MOL0     C40986  11.149   0.844  -0.109 -1.0790 -0.4336 -1.2607
  311MOL0     H40987  11.412   0.531   0.174 -2.0048  1.4083 -1.7925
  311MOL0     H40988  11.447   0.430   0.394  0.6559  1.6729  0.5740
  311MOL0     H40989  11.106   0.277   0.563  1.8038  0.4945 -2.1076
  311MOL0     H40990  11.109   0.413   0.684  0.3661  0.9528 -0.7397
  311MOL0     H40991  11.101   0.205   0.812 -1.1406 -2.0129 -2.0623
  311MOL0     H40992  11.267   0.277   0.829  3.1507 -3.5040 -0.2695
  311MOL0     H40993  11.360   0.086   0.701  0.1585 -1.7119 -0.0863
  311MOL0     H40994  11.202   0.083   0.612 -1.2850 -1.5651 -0.1064
  311MOL0     H40995  11.105  -0.036   0.778 -0.2750  0.2701 -0.0174
  311MOL0     H40996  11.253  -0.132   0.756  2.0665 -0.8180  2.8007
  311MOL0     H40997  11.183   0.079   0.976  0.1092 -0.4637  1.5418
  311MOL0     H40998  11.347   0.019   0.953  0.7795 -3.8153 -0.6855
  311MOL0     H40999  11.262  -0.208   0.993 -0.2288  0.8044 -0.9926
  311MOL0     H41000  11.088  -0.158   1.000 -0.9791  1.2107  2.2267
  311MOL0     H41001  11.293  -0.130   1.222  0.5482  1.4578 -0.4586
  311MOL0     H41002  11.171   0.005   1.198 -0.3083 -0.3850  2.3152
  311MOL0     H41003  11.120  -0.292   1.213 -0.8407 -1.1667  0.1506
  311MOL0     H41004  11.015  -0.150   1.229 -0.5067 -2.2451 -1.8823
  311MOL0     H41005  10.907  -0.246   1.479 -1.0618 -1.2139  4.4632
  311MOL0     H41006  10.861  -0.167   1.734 -0.0211 -2.5785 -0.9878
  311MOL0     H41007  10.981  -0.067   1.800  0.1639 -1.2419  1.0575
  311MOL0     H41008  11.113  -0.239   1.884 -0.4791  1.4735  1.4300
  311MOL0     H41009  11.058  -0.358   1.783  1.8917  0.4076  1.6002
  311MOL0     H41010  10.832  -0.355   1.888  0.6944 -1.0163 -1.2637
  311MOL0     H41011  10.972  -0.414   1.988 -1.4207 -2.0202 -2.2498
  311MOL0     H41012  10.836  -0.290   2.134  1.2116 -0.1651  0.9599
  311MOL0     H41013  10.842  -0.151   2.026 -1.9025  0.3381  1.8872
  311MOL0     H41014  10.964  -0.446   2.238  0.6582 -3.6689  2.3979
  311MOL0     H41015  11.034  -0.506   2.454  1.5975 -0.3527 -0.4908
  311MOL0     H41016  11.062  -0.339   2.922  0.9289  3.9833 -1.6538
  311MOL0     H41017  11.150  -0.396   3.155  1.8909 -1.1418  0.4316
  311MOL0     H41018  11.345  -0.304   3.447 -1.9694 -1.9454  0.8500
  311MOL0     H41019  11.206  -0.308   3.351  0.5608 -0.6848  3.6999
  311MOL0     H41020  11.239  -0.072   3.394  1.4948  2.9153  1.0489
  311MOL0     H41021  11.310  -0.095   3.231  1.1103  0.1598  0.6608
  311MOL0     H41022  11.531  -0.142   3.332  1.5380  0.3240  1.5541
  311MOL0     H41023  11.460  -0.112   3.500  0.5846  1.5735  0.8500
  311MOL0     H41024  11.491   0.105   3.296 -1.3737 -2.0737 -0.0319
  311MOL0     H41025  11.399   0.104   3.454  0.6024 -0.0475  3.8536
  311MOL0     H41026  11.694   0.027   3.442  1.4951  1.9033 -0.8910
  311MOL0     H41027  11.589   0.054   3.577  2.8537 -1.0767  0.8072
  311MOL0     H41028  11.554   0.295   3.499  0.1334  0.0712 -0.7210
  311MOL0     H41029  11.682   0.268   3.382  0.1278  3.0589  1.2881
  311MOL0     H41030  11.833   0.197   3.561 -2.5827 -2.2952 -1.7126
  311MOL0     H41031  11.795   0.379   3.535 -0.7836  0.3041 -2.2283
  311MOL0     H41032  11.820   0.257   3.783 -0.4808 -0.8723  1.1535
  311MOL0     H41033  11.666   0.180   3.752  1.5455 -0.0776  0.0873
  311MOL0     H41034  11.525  -0.283   3.056 -0.3091 -2.5970  0.5113
  311MOL0     H41035  11.469  -0.283   2.792 -1.0053 -1.0148 -0.8016
  311MOL0     H41036  11.260  -0.122   2.485 -0.2528  0.5083 -0.1459
  311MOL0     H41037  11.152  -0.068   2.258 -1.2705  0.4508  0.3096
  311MOL0     H41038  11.045   0.509   0.519 -0.7536 -0.9328 -0.9592
  311MOL0     H41039  11.019   0.660   0.331 -0.3583 -0.2886 -1.1255
  311MOL0     H41040  11.393   1.039   0.027  0.9298  3.1784 -0.4093
  311MOL0     H41041  11.343   1.168  -0.187 -3.6817  2.9777  1.3268
  311MOL0     H41042  10.984   1.060  -0.428  0.9670 -0.1017 -1.0712
  311MOL0     H41043  11.136   0.992  -0.495  3.4475  1.9035  0.2711
  311MOL0     H41044  11.184   1.209  -0.596 -0.1570 -0.9530 -2.6225
  311MOL0     H41045  11.028   1.128  -0.648 -0.8253 -2.1456  1.3305
  311MOL0     H41046  11.080   1.390  -0.477  0.3107 -0.4722 -0.4370
  311MOL0     H41047  10.934   1.308  -0.445  0.6785  0.3584  0.9129
  311MOL0     H41048  10.900   1.307  -0.698  0.3883 -0.3594  1.4545
  311MOL0     H41049  10.859   1.446  -0.597  0.9316  0.5381  1.6365
  311MOL0     H41050  11.175   1.588  -0.847 -0.6698  0.2547 -0.8952
  311MOL0     H41051  11.044   0.892  -0.298 -0.0910 -0.0548 -0.2070
  311MOL0     H41052  11.108   0.743  -0.106 -2.4502  0.1050  1.8454
  312MOL0     O41053   2.242   2.662   0.482 -0.9188 -0.1222 -0.6117
  312MOL0     C41054   2.288   2.735   0.570 -0.2264  0.0378  0.4434
  312MOL0     O41055   2.322   2.692   0.696 -0.1586 -0.1343 -0.0517
  312MOL0     C41056   2.309   2.560   0.745 -0.7269 -0.6028 -0.1188
  312MOL0     C41057   2.327   2.544   0.884 -0.6207 -0.5536 -0.5851
  312MOL0     C41058   2.294   2.423   0.946  0.7209 -0.6776 -1.0540
  312MOL0     C41059   2.263   2.319   0.871  1.2522  0.2014  0.4635
  312MOL0     O41060   2.242   2.194   0.922  0.3907  0.0850  0.0515
  312MOL0     C41061   2.264   2.156   1.059  0.2071 -0.8109  0.2784
  312MOL0     C41062   2.176   2.223   1.165  0.2224  1.2123 -0.0700
  312MOL0     C41063   2.230   2.223   1.303 -1.0509 -1.1027 -0.0162
  312MOL0     C41064   2.268   2.083   1.351 -0.6876 -0.0707  0.5768
  312MOL0     C41065   2.352   2.113   1.475  0.4250 -0.2153 -0.1209
  312MOL0     C41066   2.263   2.157   1.594 -0.4677 -0.0865 -0.1686
  312MOL0     C41067   2.159   2.064   1.641 -0.2430 -0.4856 -0.2438
  312MOL0     C41068   2.218   1.927   1.685  0.3481  1.6150  0.5678
  312MOL0     N41069   2.171   1.884   1.818  0.0454 -0.2941  0.5543
  312MOL0     C41070   2.049   1.846   1.861 -0.0539  0.4551  0.2114
  312MOL0     C41071   2.064   1.773   1.980 -0.4650 -0.7890 -0.5162
  312MOL0     C41072   1.977   1.683   2.055 -0.7021  0.3801 -0.1424
  312MOL0     C41073   1.830   1.730   2.039  0.5626 -0.1177  1.1497
  312MOL0     C41074   1.779   1.787   2.180 -0.8515 -0.3393  0.6756
  312MOL0     C41075   1.638   1.850   2.185 -0.0885  0.1553 -0.8053
  312MOL0     O41076   1.546   1.775   2.101 -0.5933  0.2077 -1.0871
  312MOL0     C41077   1.419   1.819   2.085  0.6868 -0.4539  0.1251
  312MOL0     C41078   1.324   1.720   2.049 -0.3485  0.2896 -0.7264
  312MOL0     C41079   1.192   1.743   2.041  0.5533  0.1714 -0.7240
  312MOL0     C41080   1.143   1.872   2.077  1.0379  0.2188 -0.6158
  312MOL0     C41081   0.997   1.908   2.061  0.6092  0.8348  0.2217
  312MOL0     O41082   0.914   1.829   1.985  0.7621 -0.5350  0.7537
  312MOL0     C41083   0.783   1.859   1.975 -0.8425 -0.1055  0.3265
  312MOL0     C41084   0.698   1.874   2.089 -0.1589 -0.0098 -0.2429
  312MOL0     C41085   0.556   1.894   2.067  0.3156  0.2572  1.0446
  312MOL0     C41086   0.496   1.902   1.940  0.2499 -0.2483 -1.1515
  312MOL0     O41087   0.361   1.933   1.926 -0.2881 -0.0709 -0.5781
  312MOL0     C41088   0.309   1.946   1.795  0.9270  0.5874 -0.4453
  312MOL0     C41089   0.160   1.968   1.813  0.4469 -0.2260  0.2122
  312MOL0     C41090   0.089   1.865   1.900 -0.9516  0.0083  0.6901
  312MOL0     C41091  -0.062   1.887   1.900 -0.1497  0.1330 -0.6888
  312MOL0     C41092  -0.135   1.834   1.782 -0.3290  0.1755 -0.7681
  312MOL0     C41093  -0.289   1.854   1.807  1.1609 -0.4402 -0.4558
  312MOL0     C41094  -0.339   2.000   1.845  0.0445  0.8698  0.1611
  312MOL0     C41095  -0.496   2.019   1.838 -0.8306 -0.3640  0.9157
  312MOL0    Cl41096  -0.534   2.180   1.905  0.1872  0.0994  0.0581
  312MOL0     C41097   0.584   1.897   1.833  1.0571  0.3507 -1.2943
  312MOL0     C41098   0.722   1.869   1.850 -0.9105 -0.7849  0.3467
  312MOL0     O41099   0.966   2.016   2.105  0.3447 -0.5728 -0.8389
  312MOL0     C41100   1.233   1.968   2.114 -0.4908 -0.5517 -0.3376
  312MOL0     C41101   1.373   1.942   2.126  0.5499  0.4020 -0.3427
  312MOL0     N41102   2.196   1.769   1.992  0.2148  0.1121 -0.2355
  312MOL0     N41103   2.265   1.846   1.904 -0.6143 -0.0496 -0.6370
  312MOL0     C41104   2.251   2.328   0.732 -0.4713  0.5103  0.3641
  312MOL0     C41105   2.265   2.453   0.671  0.9711 -0.1934 -0.8075
  312MOL0     C41106   2.286   2.882   0.541  0.3082 -0.4113  0.2055
  312MOL0     C41107   2.364   2.973   0.611  0.0240 -0.1652 -1.0185
  312MOL0     C41108   2.353   3.109   0.597  0.1639 -0.5978  0.1363
  312MOL0     C41109   2.255   3.165   0.511  0.0882  0.7533  0.6174
  312MOL0     O41110   2.235   3.305   0.521 -0.0671 -0.3721  0.4717
  312MOL0     C41111   2.218   3.377   0.400  0.0935  0.4789  0.2385
  312MOL0     C41112   2.170   3.514   0.442  0.2871  0.1381  1.0160
  312MOL0     C41113   2.016   3.520   0.468 -0.0364 -0.3582 -0.3023
  312MOL0     C41114   1.972   3.648   0.528  0.9253 -0.9401  0.3616
  312MOL0     C41115   1.839   3.633   0.571  0.1303  0.3622 -0.7915
  312MOL0     C41116   1.717   3.617   0.597 -0.5680  0.1117 -1.1523
  312MOL0     C41117   2.185   3.074   0.428  0.5566  0.7736  0.2099
  312MOL0     C41118   2.209   2.934   0.436 -0.1079 -0.5056  0.9107
  312MOL0     H41119   2.373   2.623   0.942 -0.2714 -2.5852  2.1314
  312MOL0     H41120   2.309   2.418   1.053  3.4339  3.8354 -0.9478
  312MOL0     H41121   2.369   2.170   1.087  0.0531 -1.8634  1.4320
  312MOL0     H41122   2.254   2.049   1.076 -0.1893 -0.3956  3.2106
  312MOL0     H41123   2.084   2.164   1.165 -0.0119  1.2886 -4.0630
  312MOL0     H41124   2.155   2.329   1.143 -2.2058  0.5317 -1.4752
  312MOL0     H41125   2.152   2.269   1.365  0.4807  1.2038  0.3272
  312MOL0     H41126   2.307   2.300   1.308 -4.5329  2.8294 -1.2948
  312MOL0     H41127   2.179   2.024   1.373 -0.2124 -1.3355 -0.7388
  312MOL0     H41128   2.331   2.022   1.286 -0.2868  1.0151 -0.0745
  312MOL0     H41129   2.423   2.196   1.461 -0.8556  1.0884  0.7578
  312MOL0     H41130   2.412   2.027   1.507 -1.0713 -1.4083 -0.4235
  312MOL0     H41131   2.212   2.249   1.566  3.6669  2.8505  1.0139
  312MOL0     H41132   2.330   2.183   1.677 -0.2632  1.8488 -0.9058
  312MOL0     H41133   2.109   2.120   1.721  1.0547 -1.3563  1.2304
  312MOL0     H41134   2.086   2.042   1.562 -1.8744  3.5031 -0.0789
  312MOL0     H41135   2.327   1.915   1.687  0.3274  0.5145 -1.6704
  312MOL0     H41136   2.185   1.856   1.609  0.0536  0.6832  1.5312
  312MOL0     H41137   1.959   1.858   1.802  0.1963  1.2865 -0.0123
  312MOL0     H41138   2.014   1.677   2.157  3.3454  4.1331 -1.0850
  312MOL0     H41139   1.974   1.583   2.009 -0.4899 -0.0177  0.6975
  312MOL0     H41140   1.771   1.645   2.001 -2.9914  2.4406  0.4300
  312MOL0     H41141   1.814   1.814   1.970 -1.6330 -0.4108  1.2318
  312MOL0     H41142   1.770   1.699   2.245 -2.5696 -1.3553 -0.8534
  312MOL0     H41143   1.850   1.860   2.220 -0.6441 -0.0682 -0.1723
  312MOL0     H41144   1.643   1.953   2.148  1.1482  0.3386 -0.1871
  312MOL0     H41145   1.599   1.851   2.287  2.5628 -3.7904  0.5214
  312MOL0     H41146   1.362   1.618   2.052 -1.0613  0.0347  0.2575
  312MOL0     H41147   1.128   1.660   2.015  0.6001  0.2190 -0.9918
  312MOL0     H41148   0.739   1.872   2.189 -0.5178  3.6251  0.0887
  312MOL0     H41149   0.483   1.901   2.147 -4.7581 -1.3757 -2.9414
  312MOL0     H41150   0.323   1.858   1.731  0.4911 -0.6144  1.0407
  312MOL0     H41151   0.357   2.023   1.733 -0.8149  0.1015 -2.5195
  312MOL0     H41152   0.109   1.957   1.717 -2.2789 -0.4610  1.6076
  312MOL0     H41153   0.142   2.068   1.852  2.4183 -0.8939  3.2043
  312MOL0     H41154   0.124   1.863   2.003  0.0387 -2.5767  0.3823
  312MOL0     H41155   0.112   1.765   1.862 -2.4161  0.4400 -1.5339
  312MOL0     H41156  -0.097   1.833   1.989 -2.6371 -0.4664 -1.9547
  312MOL0     H41157  -0.074   1.996   1.909 -0.4981  0.2486 -2.3185
  312MOL0     H41158  -0.108   1.735   1.746 -1.9431 -0.0017 -1.5639
  312MOL0     H41159  -0.103   1.900   1.701 -2.5555  1.7186 -0.4962
  312MOL0     H41160  -0.315   1.786   1.889  0.9487  1.1115  0.8178
  312MOL0     H41161  -0.331   1.818   1.712  2.8372  0.0875 -1.4269
  312MOL0     H41162  -0.296   2.033   1.941 -1.1950  1.6845  0.4468
  312MOL0     H41163  -0.295   2.059   1.764 -1.9331 -0.9198 -2.3605
  312MOL0     H41164  -0.553   1.949   1.900 -1.3249  1.1104  2.1705
  312MOL0     H41165  -0.530   2.010   1.734 -0.7897 -0.8389  0.9385
  312MOL0     H41166   0.562   1.904   1.727 -0.2266  2.5137 -0.9468
  312MOL0     H41167   0.782   1.860   1.760 -2.7812 -0.6006 -0.9651
  312MOL0     H41168   1.190   2.062   2.145  0.8139  1.2990 -3.6629
  312MOL0     H41169   1.434   2.022   2.168 -1.8053  1.5517  1.0644
  312MOL0     H41170   2.224   2.234   0.685 -1.3273  0.9728 -0.1117
  312MOL0     H41171   2.289   2.458   0.565  0.7528 -0.5520 -0.8771
  312MOL0     H41172   2.435   2.923   0.676 -3.3400 -2.3442  1.2696
  312MOL0     H41173   2.417   3.167   0.663  0.0392 -1.8411  1.4067
  312MOL0     H41174   2.155   3.329   0.325  0.3237  0.7831 -0.1559
  312MOL0     H41175   2.318   3.397   0.361 -0.5900 -0.5074 -2.1978
  312MOL0     H41176   2.214   3.550   0.535 -0.7030  0.0878  1.5156
  312MOL0     H41177   2.194   3.581   0.359 -1.6142 -1.3188 -0.8247
  312MOL0     H41178   2.003   3.435   0.536  1.6677  1.2112  2.1566
  312MOL0     H41179   1.965   3.509   0.372 -1.6228  0.4003  0.4144
  312MOL0     H41180   2.030   3.678   0.617 -1.8762  1.8462  1.4409
  312MOL0     H41181   1.977   3.730   0.456  1.7392  0.0359  1.4749
  312MOL0     H41182   1.614   3.596   0.619 -0.3192 -1.5434 -1.4896
  312MOL0     H41183   2.112   3.118   0.361  0.5670  1.8154  0.8486
  312MOL0     H41184   2.149   2.864   0.378 -1.3590 -2.2746  4.0539
  313MOL0     O41185  11.221   8.266  10.771 -0.2846 -0.0127  0.6934
  313MOL0     C41186  11.307   8.318  10.838  0.5678 -0.7138  0.0651
  313MOL0     O41187  11.287   8.413  10.938  0.2655  0.4647 -0.4998
  313MOL0     C41188  11.163   8.423  10.992  0.3880  0.2224 -0.3688
  313MOL0     C41189  11.056   8.457  10.902 -0.0255  0.0001  0.0415
  313MOL0     C41190  10.922   8.475  10.948 -0.1527 -0.0590 -0.3839
  313MOL0     C41191  10.885   8.456  11.082 -1.3203  0.4176  0.6129
  313MOL0     O41192  10.756   8.472  11.140 -0.1527 -0.4752 -0.9477
  313MOL0     C41193  10.670   8.564  11.066 -0.3318 -0.2954  0.0800
  313MOL0     C41194  10.538   8.566  11.122 -0.5470  0.7302 -0.0135
  313MOL0     C41195  10.533   8.645  11.255 -1.2291 -0.0630  0.1205
  313MOL0     C41196  10.398   8.630  11.338 -0.2888  0.0418 -0.4147
  313MOL0     C41197  10.284   8.613  11.241  0.3945  0.5462 -0.9322
  313MOL0     C41198  10.147   8.622  11.316  0.4276  0.7024  1.3779
  313MOL0     C41199  10.110   8.757  11.354  0.1543 -0.4038  0.3599
  313MOL0     C41200   9.979   8.771  11.445 -0.6885  0.3508  0.3774
  313MOL0     N41201   9.937   8.915  11.436  0.7355  0.0822 -0.7775
  313MOL0     C41202   9.983   9.009  11.512 -0.2631 -0.5465  0.1575
  313MOL0     C41203   9.932   9.125  11.455  1.0245 -0.2668  0.2521
  313MOL0     C41204   9.932   9.253  11.535  0.1133 -0.0590  0.3922
  313MOL0     C41205   9.904   9.379  11.437 -0.1199 -0.7780  0.1766
  313MOL0     C41206   9.750   9.413  11.450  0.8683  0.1185 -0.2250
  313MOL0     C41207   9.718   9.525  11.354 -0.2677  0.3366  0.5508
  313MOL0     O41208   9.815   9.634  11.358 -0.1110 -0.4623 -0.9105
  313MOL0     C41209   9.758   9.753  11.322 -0.6508  0.0447 -0.5145
  313MOL0     C41210   9.778   9.863  11.415 -0.4006  0.1928  0.2296
  313MOL0     C41211   9.716   9.993  11.397  0.1444  1.1085  0.5135
  313MOL0     C41212   9.626  10.012  11.291  0.5388  0.1177 -0.1132
  313MOL0     C41213   9.558  10.139  11.266 -0.1195 -0.2431 -0.5953
  313MOL0     O41214   9.448  10.130  11.192  1.2665  0.8739  0.3448
  313MOL0     C41215   9.349  10.230  11.199  0.9170  0.2042  0.0373
  313MOL0     C41216   9.355  10.362  11.160  0.1102 -0.3168  0.2345
  313MOL0     C41217   9.239  10.443  11.168 -1.4798  0.6099 -0.3959
  313MOL0     C41218   9.121  10.397  11.215 -0.1762 -0.1516 -0.1959
  313MOL0     O41219   9.023  10.490  11.208  0.4694 -0.6329 -0.5102
  313MOL0     C41220   8.888  10.448  11.179 -0.2899  0.1673  0.5318
  313MOL0     C41221   8.817  10.581  11.175 -0.0098 -0.9279 -0.3699
  313MOL0     C41222   8.671  10.563  11.161  1.0366 -0.3198  0.3645
  313MOL0     C41223   8.599  10.679  11.103  0.4502  0.7366  0.2278
  313MOL0     C41224   8.448  10.653  11.109 -0.7996  0.1938 -0.0821
  313MOL0     C41225   8.377  10.783  11.058 -0.1823 -1.0835  0.2185
  313MOL0     C41226   8.230  10.794  11.115  0.3062  0.8491  0.1905
  313MOL0     C41227   8.121  10.792  11.003 -0.3479 -0.0521 -0.4116
  313MOL0    Cl41228   8.134  10.929  10.880  0.3414  0.2356  0.4908
  313MOL0     C41229   9.113  10.263  11.260  0.1264 -0.9685  0.4778
  313MOL0     C41230   9.231  10.189  11.261 -0.2859 -0.2100 -0.2062
  313MOL0     O41231   9.595  10.246  11.330  0.5556  0.1163  0.0871
  313MOL0     C41232   9.615   9.903  11.199  0.5031 -0.3177 -0.8666
  313MOL0     C41233   9.672   9.773  11.221  0.0232  0.0975 -0.1398
  313MOL0     N41234   9.872   9.090  11.332  0.4025  0.2224 -0.3595
  313MOL0     N41235   9.868   8.963  11.327 -0.9253  0.1329  0.1492
  313MOL0     C41236  10.994   8.422  11.172 -0.5845  0.1521  0.6260
  313MOL0     C41237  11.128   8.405  11.131 -0.1065 -1.2953 -0.2841
  313MOL0     C41238  11.445   8.270  10.831 -0.0175 -0.2582 -0.6449
  313MOL0     C41239  11.487   8.201  10.714 -0.4568  1.2093 -1.1665
  313MOL0     C41240  11.623   8.154  10.712  0.5212  0.1329 -0.5833
  313MOL0     C41241  11.718   8.191  10.814  0.1729  1.0452 -0.0620
  313MOL0     O41242  11.849   8.142  10.824  0.2677 -0.7327 -0.6109
  313MOL0     C41243  11.922   8.125  10.700 -0.3329 -0.6348 -0.5755
  313MOL0     C41244  12.058   8.061  10.733 -0.2286  0.4153  1.2745
  313MOL0     C41245  12.045   7.905  10.723 -0.5376  0.3047  0.4798
  313MOL0     C41246  12.174   7.834  10.744 -0.3272  0.2339 -1.1514
  313MOL0     C41247  12.262   7.801  10.632 -0.1439 -0.1552 -0.0392
  313MOL0     C41248  12.352   7.782  10.554  0.1323 -1.4559  0.9228
  313MOL0     C41249  11.677   8.271  10.923  1.6225  1.0187 -0.5302
  313MOL0     C41250  11.542   8.304  10.931 -0.2141 -0.5337  0.1985
  313MOL0     H41251  11.073   8.485  10.799 -1.7946  2.3084  0.3038
  313MOL0     H41252  10.854   8.507  10.871 -0.0413 -0.0632 -0.4838
  313MOL0     H41253  10.668   8.529  10.963  0.2937 -0.1891  0.0308
  313MOL0     H41254  10.705   8.668  11.069 -3.7322  1.0179  4.3501
  313MOL0     H41255  10.504   8.462  11.133  0.4221  0.3814 -0.2315
  313MOL0     H41256  10.477   8.608  11.042 -0.5636 -1.0253 -0.9902
  313MOL0     H41257  10.566   8.747  11.233 -2.5035  0.7204  1.6083
  313MOL0     H41258  10.619   8.609  11.314 -1.3200  2.0804  1.6992
  313MOL0     H41259  10.399   8.541  11.401 -0.7640 -0.9457 -1.7569
  313MOL0     H41260  10.383   8.722  11.397 -2.7756  0.2682 -1.2991
  313MOL0     H41261  10.286   8.512  11.200 -2.7147 -0.4087  0.9301
  313MOL0     H41262  10.296   8.683  11.158 -0.4446  0.4226 -1.1636
  313MOL0     H41263  10.151   8.554  11.402 -0.3197  0.2479  1.0613
  313MOL0     H41264  10.073   8.574  11.252  1.4990  3.2998 -2.0894
  313MOL0     H41265  10.198   8.815  11.385  0.3806 -1.2780  1.4260
  313MOL0     H41266  10.073   8.804  11.263  1.7243  3.2726  1.4384
  313MOL0     H41267  10.015   8.755  11.547  0.5323 -0.1555 -0.1032
  313MOL0     H41268   9.894   8.706  11.423 -2.6326  1.8302  2.8978
  313MOL0     H41269  10.039   9.003  11.605 -0.5944  1.8306  0.5764
  313MOL0     H41270  10.028   9.274  11.583 -0.7690  0.8880  1.8471
  313MOL0     H41271   9.864   9.237  11.620  2.1142  0.4319  2.1743
  313MOL0     H41272   9.933   9.363  11.333  0.0209 -1.8745  0.3786
  313MOL0     H41273   9.969   9.460  11.472  1.8296 -3.4849  3.4668
  313MOL0     H41274   9.698   9.324  11.413  0.5113  0.3680 -0.3270
  313MOL0     H41275   9.697   9.417  11.545 -0.2746 -1.9012 -0.7196
  313MOL0     H41276   9.619   9.558  11.389  0.1222  2.2706 -0.0159
  313MOL0     H41277   9.713   9.469  11.260  5.5541  1.5217 -0.8430
  313MOL0     H41278   9.835   9.857  11.507  1.3927 -3.8883 -0.9376
  313MOL0     H41279   9.732  10.080  11.459 -0.4670  1.5864  0.0064
  313MOL0     H41280   9.443  10.413  11.122 -0.2067 -0.1682 -0.3101
  313MOL0     H41281   9.251  10.541  11.123  2.0865  0.6233  0.2612
  313MOL0     H41282   8.847  10.383  11.256  2.2137 -1.0322  0.9486
  313MOL0     H41283   8.884  10.398  11.081 -0.5279  1.7697 -0.3162
  313MOL0     H41284   8.855  10.647  11.096  2.9719 -1.1098  0.7925
  313MOL0     H41285   8.836  10.629  11.271 -1.9412 -0.1313 -0.3393
  313MOL0     H41286   8.635  10.551  11.264  1.6993  2.2491  0.9772
  313MOL0     H41287   8.638  10.475  11.106 -2.5876  0.6193  0.7473
  313MOL0     H41288   8.613  10.769  11.163 -1.3090  1.1106  0.1120
  313MOL0     H41289   8.617  10.692  10.996 -2.0261  0.0117 -0.3203
  313MOL0     H41290   8.412  10.634  11.211 -2.3609  0.2498 -0.5909
  313MOL0     H41291   8.414  10.564  11.056  4.2080 -2.5761  0.7295
  313MOL0     H41292   8.369  10.785  10.949 -2.2693  0.8640  0.3327
  313MOL0     H41293   8.424  10.875  11.095  1.1210 -2.9329  3.6128
  313MOL0     H41294   8.202  10.716  11.186  1.9416  0.4593  0.4607
  313MOL0     H41295   8.228  10.883  11.179  0.6845  0.7809  0.2997
  313MOL0     H41296   8.023  10.779  11.048  0.0493 -1.2112  0.1662
  313MOL0     H41297   8.134  10.698  10.949 -2.5124 -0.8645  0.4031
  313MOL0     H41298   9.021  10.229  11.307 -1.2184  2.1039  0.3230
  313MOL0     H41299   9.215  10.092  11.307  3.0472  0.8383  3.6650
  313MOL0     H41300   9.545   9.912  11.116 -0.1423  1.3335 -0.1943
  313MOL0     H41301   9.654   9.690  11.154  5.0407 -3.2080  2.0046
  313MOL0     H41302  10.970   8.411  11.277 -0.3727 -0.1828  0.6412
  313MOL0     H41303  11.212   8.400  11.200 -0.7453  3.3825  1.1690
  313MOL0     H41304  11.409   8.161  10.650 -1.8072  1.2785  0.3776
  313MOL0     H41305  11.644   8.095  10.622 -0.9377 -1.1261 -0.1392
  313MOL0     H41306  11.943   8.221  10.651  2.0366  0.1495  1.6956
  313MOL0     H41307  11.864   8.070  10.626 -1.4244  2.7782 -2.4698
  313MOL0     H41308  12.144   8.090  10.673 -0.3441  2.1119  1.8861
  313MOL0     H41309  12.082   8.097  10.833 -1.4081  3.3189  0.5966
  313MOL0     H41310  12.012   7.877  10.623 -0.1332 -0.4339  0.5455
  313MOL0     H41311  11.974   7.869  10.798  1.1170  0.4039  2.1587
  313MOL0     H41312  12.239   7.883  10.817 -0.4121 -1.1242 -0.1308
  313MOL0     H41313  12.155   7.734  10.784  4.4078  0.4657  2.5728
  313MOL0     H41314  12.432   7.760  10.487  0.0773  1.1768 -0.1261
  313MOL0     H41315  11.729   8.290  11.016  0.5534 -1.8390  0.7553
  313MOL0     H41316  11.504   8.374  11.005  1.9095  1.7244 -0.7098
  314MOL0     O41317   4.815   7.259   8.670  0.0328  0.5241 -0.5663
  314MOL0     C41318   4.796   7.183   8.765  0.0561 -0.1768  0.1841
  314MOL0     O41319   4.892   7.120   8.835  0.6115  0.1373 -0.0528
  314MOL0     C41320   5.012   7.074   8.770 -0.9193 -0.5317  1.5577
  314MOL0     C41321   5.018   7.050   8.632 -0.8221  0.3173  0.8094
  314MOL0     C41322   5.117   6.963   8.593  0.2173  0.2291  0.8509
  314MOL0     C41323   5.219   6.907   8.670 -0.4947  0.0372 -0.1060
  314MOL0     O41324   5.322   6.849   8.602  1.0175 -0.0299 -0.3129
  314MOL0     C41325   5.408   6.758   8.678 -0.4913  0.5250 -0.1779
  314MOL0     C41326   5.505   6.680   8.589 -0.1143 -0.4543 -0.2675
  314MOL0     C41327   5.604   6.590   8.670 -0.3113 -0.4960 -0.2634
  314MOL0     C41328   5.640   6.466   8.591  0.6976  0.5127  0.1866
  314MOL0     C41329   5.701   6.360   8.685 -0.5397  0.1467  0.2492
  314MOL0     C41330   5.826   6.295   8.625  0.5603 -0.0617 -1.1312
  314MOL0     C41331   5.855   6.163   8.708  0.2655  0.3687 -1.0407
  314MOL0     C41332   5.977   6.084   8.656 -0.0474  0.5632  0.7914
  314MOL0     N41333   5.972   5.944   8.701  0.0751 -1.0072 -0.7072
  314MOL0     C41334   5.873   5.853   8.681  0.0782  0.9360  0.1235
  314MOL0     C41335   5.906   5.743   8.744  0.0622  0.2921 -0.0348
  314MOL0     C41336   5.800   5.641   8.773 -1.3968  0.0132 -0.3839
  314MOL0     C41337   5.744   5.583   8.645 -0.4290  0.6659 -1.0707
  314MOL0     C41338   5.859   5.506   8.578  0.4812 -0.2529  0.7442
  314MOL0     C41339   5.814   5.405   8.477  0.2922 -0.9102  0.0844
  314MOL0     O41340   5.708   5.462   8.401  0.3007  0.1634 -0.3925
  314MOL0     C41341   5.671   5.403   8.291 -0.6892  0.8721  0.5048
  314MOL0     C41342   5.726   5.298   8.220 -0.5507 -0.1088 -0.1626
  314MOL0     C41343   5.684   5.259   8.094  0.0579 -0.4179  1.9249
  314MOL0     C41344   5.581   5.326   8.033  0.1806 -1.2034 -1.1315
  314MOL0     C41345   5.538   5.295   7.893  0.8267 -0.0253  0.2398
  314MOL0     O41346   5.446   5.389   7.840  0.1547  0.0001  0.4351
  314MOL0     C41347   5.371   5.372   7.731  0.5347 -0.1556  0.2351
  314MOL0     C41348   5.306   5.486   7.681 -0.3427  0.6430 -0.2248
  314MOL0     C41349   5.226   5.476   7.570 -0.1919 -0.2348  0.3721
  314MOL0     C41350   5.181   5.350   7.524  0.4500 -0.7441 -0.9089
  314MOL0     O41351   5.096   5.350   7.411  0.2427 -0.5729  0.2507
  314MOL0     C41352   5.115   5.242   7.321  1.2823 -0.9709  0.5804
  314MOL0     C41353   5.052   5.265   7.185  0.2385 -0.5103 -0.3975
  314MOL0     C41354   5.140   5.337   7.093 -0.1452  0.4963  0.1457
  314MOL0     C41355   5.071   5.340   6.958  0.1254  0.0527  0.2635
  314MOL0     C41356   5.139   5.437   6.865  0.0550 -0.5780 -0.3151
  314MOL0     C41357   5.077   5.484   6.731  0.1661  0.2955  0.7185
  314MOL0     C41358   5.083   5.368   6.634 -0.3075  0.8182 -0.6081
  314MOL0     C41359   5.040   5.402   6.489 -0.0184  0.5552 -0.3558
  314MOL0    Cl41360   4.868   5.425   6.478  0.9294  0.3223 -0.5330
  314MOL0     C41361   5.238   5.236   7.578 -0.0018 -0.2524  0.4152
  314MOL0     C41362   5.329   5.246   7.683 -0.0411  1.1831  0.3407
  314MOL0     O41363   5.585   5.199   7.836  0.0818  0.1901 -0.0811
  314MOL0     C41364   5.526   5.439   8.103 -0.2467  0.1136  0.5336
  314MOL0     C41365   5.580   5.479   8.224 -0.6158 -0.7115 -0.0260
  314MOL0     N41366   6.029   5.764   8.804 -0.3100  0.0704 -0.6341
  314MOL0     N41367   6.070   5.881   8.779 -0.3494  0.1520  0.5843
  314MOL0     C41368   5.219   6.948   8.808  0.4605 -0.2051  0.5815
  314MOL0     C41369   5.116   7.029   8.847  0.1925 -0.3942  0.2447
  314MOL0     C41370   4.661   7.166   8.813 -0.4087  0.1139  0.6518
  314MOL0     C41371   4.628   7.075   8.910 -0.1056 -0.8953 -1.0471
  314MOL0     C41372   4.502   7.066   8.966  0.1997 -0.9000 -0.5866
  314MOL0     C41373   4.401   7.137   8.913 -0.2123  0.4575 -0.4595
  314MOL0     O41374   4.275   7.121   8.949 -0.4037 -0.7234  0.4094
  314MOL0     C41375   4.242   7.068   9.074 -0.4868 -0.7202  0.5343
  314MOL0     C41376   4.085   7.068   9.091 -0.5836 -0.6576 -0.0725
  314MOL0     C41377   4.024   7.209   9.139 -0.2571  0.2042  0.3384
  314MOL0     C41378   3.911   7.186   9.237  0.8812 -0.3655  0.3222
  314MOL0     C41379   3.789   7.124   9.171  0.0561 -0.3403 -0.1242
  314MOL0     C41380   3.697   7.071   9.124  0.0684 -0.2494 -0.8538
  314MOL0     C41381   4.426   7.230   8.806 -0.0480 -0.2572  0.4785
  314MOL0     C41382   4.560   7.247   8.754 -1.2513 -0.9008  0.6382
  314MOL0     H41383   4.946   7.074   8.555 -0.1904 -0.4195 -0.0334
  314MOL0     H41384   5.123   6.930   8.490  1.3381 -0.8961  1.2566
  314MOL0     H41385   5.353   6.688   8.741  2.5101 -0.8077  1.1427
  314MOL0     H41386   5.464   6.815   8.753  0.1732 -0.3404 -0.0034
  314MOL0     H41387   5.555   6.736   8.510 -1.1329  0.0486 -0.5829
  314MOL0     H41388   5.442   6.605   8.540 -0.1542 -1.7799  1.7250
  314MOL0     H41389   5.546   6.561   8.758  0.5808 -3.1820 -0.4600
  314MOL0     H41390   5.685   6.648   8.716  0.4974 -0.4943 -1.6356
  314MOL0     H41391   5.551   6.422   8.546  0.7841  1.1373 -0.6301
  314MOL0     H41392   5.698   6.490   8.501  3.1537  0.3569  1.6546
  314MOL0     H41393   5.624   6.289   8.716 -0.4629  0.6759  1.7291
  314MOL0     H41394   5.729   6.414   8.776 -1.9403  0.9939  0.2193
  314MOL0     H41395   5.903   6.368   8.650  0.7411 -1.6463  4.2937
  314MOL0     H41396   5.822   6.268   8.519 -2.3238 -2.1070 -0.6352
  314MOL0     H41397   5.871   6.191   8.813  1.1626  0.5794 -1.2282
  314MOL0     H41398   5.767   6.100   8.724  1.4538 -0.9397  0.8334
  314MOL0     H41399   6.067   6.129   8.700  0.2719  0.9497 -0.2198
  314MOL0     H41400   5.981   6.088   8.547 -0.1757 -1.0884  0.7013
  314MOL0     H41401   5.775   5.866   8.636 -1.0919 -0.6170  2.0289
  314MOL0     H41402   5.720   5.693   8.827  0.6367  0.2451  2.6451
  314MOL0     H41403   5.852   5.573   8.841  0.9290  3.1408  1.1936
  314MOL0     H41404   5.700   5.646   8.567 -2.2246 -0.7361 -1.2507
  314MOL0     H41405   5.666   5.523   8.692 -0.9953  2.3021  0.2132
  314MOL0     H41406   5.920   5.580   8.525  0.6641 -0.5651  0.5146
  314MOL0     H41407   5.914   5.454   8.656  1.5170  0.7562  0.7135
  314MOL0     H41408   5.781   5.317   8.533  1.2827 -0.1085  2.0331
  314MOL0     H41409   5.903   5.378   8.418  1.9005  3.6140  0.0019
  314MOL0     H41410   5.803   5.236   8.265  1.3193  0.3362 -2.5211
  314MOL0     H41411   5.734   5.184   8.034  0.0262  1.1243 -0.1414
  314MOL0     H41412   5.316   5.578   7.739 -0.3281  0.6563 -0.2482
  314MOL0     H41413   5.187   5.567   7.526  0.0151 -1.0623 -1.6041
  314MOL0     H41414   5.067   5.153   7.362  1.9719 -1.1955  0.9228
  314MOL0     H41415   5.221   5.230   7.295  1.0358  2.0203 -2.4827
  314MOL0     H41416   4.957   5.317   7.199  2.6425  3.6586  3.0432
  314MOL0     H41417   5.050   5.169   7.133  1.1574 -1.7989  1.8018
  314MOL0     H41418   5.240   5.299   7.070  0.6346  3.0562 -1.1158
  314MOL0     H41419   5.150   5.439   7.134  3.8503 -0.0098  0.8617
  314MOL0     H41420   5.061   5.240   6.915  0.2712  0.5165 -0.8960
  314MOL0     H41421   4.970   5.378   6.974 -1.7081 -4.3270  0.3031
  314MOL0     H41422   5.240   5.397   6.855  0.1689 -0.0484 -1.5617
  314MOL0     H41423   5.147   5.533   6.917 -1.2085 -0.6628  0.0715
  314MOL0     H41424   5.132   5.569   6.690  0.5720  1.3038  3.1809
  314MOL0     H41425   4.973   5.513   6.753  0.6498  2.5083  0.3043
  314MOL0     H41426   5.186   5.333   6.619 -0.2882  1.2228 -1.5131
  314MOL0     H41427   5.021   5.286   6.672  1.0238 -0.3186 -0.7857
  314MOL0     H41428   5.068   5.319   6.425 -0.0577  0.2304  0.0432
  314MOL0     H41429   5.097   5.488   6.452 -0.5518  2.1169  2.1474
  314MOL0     H41430   5.214   5.134   7.551  1.8962 -0.2530 -1.5268
  314MOL0     H41431   5.365   5.152   7.724 -0.2835  0.7812 -0.3531
  314MOL0     H41432   5.449   5.500   8.057 -1.2627 -0.6207  1.1977
  314MOL0     H41433   5.538   5.571   8.263  3.9716  0.3632  3.1294
  314MOL0     H41434   5.299   6.929   8.879 -1.1936  2.9430  3.5892
  314MOL0     H41435   5.111   7.066   8.949 -1.2624 -4.0370  1.6738
  314MOL0     H41436   4.704   7.013   8.956 -1.4866 -0.6896  1.7633
  314MOL0     H41437   4.497   7.006   9.057 -0.0207 -0.3699 -0.2446
  314MOL0     H41438   4.298   7.124   9.149  0.1920  0.8726 -1.0922
  314MOL0     H41439   4.278   6.966   9.090  1.2061 -0.2094  0.0774
  314MOL0     H41440   4.036   7.033   9.000 -2.8391  0.4604  0.6391
  314MOL0     H41441   4.068   6.988   9.164  5.4985 -1.0982  1.4307
  314MOL0     H41442   3.993   7.268   9.053 -2.0880 -2.5487 -1.0347
  314MOL0     H41443   4.103   7.261   9.194  1.5424 -0.8565 -1.1258
  314MOL0     H41444   3.948   7.114   9.311 -0.0020 -1.2482 -0.0709
  314MOL0     H41445   3.879   7.273   9.295 -5.2539  0.0969 -3.0007
  314MOL0     H41446   3.613   7.009   9.098 -0.8543 -0.0054  1.3399
  314MOL0     H41447   4.332   7.270   8.770  1.8958  4.3158 -0.1537
  314MOL0     H41448   4.577   7.312   8.669  3.5241 -1.2263  1.0898
  315MOL0     O41449   7.133   3.117   2.462  0.9101  1.1921  1.1926
  315MOL0     C41450   7.158   3.215   2.398 -1.4713 -0.0267 -0.8774
  315MOL0     O41451   7.214   3.331   2.448 -0.2398  0.1507  0.4601
  315MOL0     C41452   7.259   3.359   2.569  0.6799  0.2267 -0.1443
  315MOL0     C41453   7.211   3.298   2.684  0.2499 -0.8490 -0.9215
  315MOL0     C41454   7.285   3.323   2.805  0.2512  0.9162  0.3250
  315MOL0     C41455   7.401   3.403   2.815  0.2261 -0.2979 -0.2387
  315MOL0     O41456   7.463   3.427   2.936 -0.4690  0.3322  0.1709
  315MOL0     C41457   7.600   3.405   2.946 -0.5028 -0.9673 -0.6100
  315MOL0     C41458   7.634   3.329   3.070 -1.1583 -0.5727  0.1750
  315MOL0     C41459   7.544   3.205   3.069 -0.3774 -0.3006 -0.4624
  315MOL0     C41460   7.600   3.105   3.176 -0.3945 -0.4456 -0.1184
  315MOL0     C41461   7.525   2.967   3.180  0.2940 -0.5347 -0.2763
  315MOL0     C41462   7.590   2.865   3.268  0.0792 -0.8792 -0.2362
  315MOL0     C41463   7.621   2.909   3.409 -0.2888 -0.1568 -0.9888
  315MOL0     C41464   7.507   2.962   3.501  0.8031 -0.8060  0.0937
  315MOL0     N41465   7.405   2.862   3.529  0.5456  0.4890 -0.2126
  315MOL0     C41466   7.283   2.855   3.486  0.3853  0.9812  0.3930
  315MOL0     C41467   7.234   2.746   3.545  0.1604 -0.2858 -0.7304
  315MOL0     C41468   7.103   2.679   3.525  0.2208 -1.3770 -0.1021
  315MOL0     C41469   6.989   2.739   3.608  0.6073  0.1213 -0.0011
  315MOL0     C41470   6.868   2.644   3.599 -0.2764  0.0039  0.6805
  315MOL0     C41471   6.793   2.634   3.461  0.0632  0.3323  0.3736
  315MOL0     O41472   6.660   2.606   3.494 -1.5361  0.0388 -0.3936
  315MOL0     C41473   6.574   2.583   3.392 -0.4164  0.3153 -0.2508
  315MOL0     C41474   6.444   2.536   3.418  0.8661 -0.5179  0.8266
  315MOL0     C41475   6.350   2.508   3.311 -0.9050 -0.5592  0.0157
  315MOL0     C41476   6.380   2.536   3.175  0.8291  0.3194 -0.1592
  315MOL0     C41477   6.284   2.510   3.063  0.9617  0.6378  0.1973
  315MOL0     O41478   6.170   2.438   3.096 -0.5536  0.4939  0.2750
  315MOL0     C41479   6.098   2.387   2.988 -0.2779 -0.0490  1.0666
  315MOL0     C41480   6.142   2.277   2.914 -0.7209 -0.7194  0.1826
  315MOL0     C41481   6.088   2.242   2.791 -0.4056 -0.9123 -0.0224
  315MOL0     C41482   5.973   2.310   2.742  0.2530 -0.1334 -0.4566
  315MOL0     O41483   5.906   2.287   2.619 -0.0107  0.4716  0.4121
  315MOL0     C41484   5.874   2.148   2.605 -0.2815  0.2061 -0.5301
  315MOL0     C41485   5.896   2.090   2.468 -0.2086  0.6951 -0.8364
  315MOL0     C41486   5.909   2.207   2.367  0.8393 -0.2637 -0.7291
  315MOL0     C41487   5.896   2.161   2.222 -0.5910  0.4746  1.0903
  315MOL0     C41488   5.747   2.126   2.182  0.4038  0.5053  0.3340
  315MOL0     C41489   5.720   2.097   2.038  0.3612  0.6898 -0.0222
  315MOL0     C41490   5.595   2.005   2.029 -0.2914 -0.3981  0.4969
  315MOL0     C41491   5.544   1.990   1.884 -1.1159  0.2275 -0.8247
  315MOL0    Cl41492   5.657   1.899   1.778  0.3595  0.5284  0.0592
  315MOL0     C41493   5.914   2.406   2.826  0.5700 -0.3872  0.3833
  315MOL0     C41494   5.986   2.456   2.947  0.2873  1.2928  0.2047
  315MOL0     O41495   6.319   2.556   2.952  0.6902 -0.3662  0.2558
  315MOL0     C41496   6.509   2.578   3.155  0.2766 -1.2680 -0.3662
  315MOL0     C41497   6.596   2.607   3.258 -0.0775 -0.8139  0.3584
  315MOL0     N41498   7.327   2.702   3.642 -0.4382 -1.3807 -0.2156
  315MOL0     N41499   7.427   2.771   3.628 -1.1147 -0.1911  0.0842
  315MOL0     C41500   7.437   3.469   2.691  0.5335  0.1121  0.6826
  315MOL0     C41501   7.381   3.430   2.567  0.0228  0.4731  0.2123
  315MOL0     C41502   7.130   3.213   2.261  0.8226 -0.9913  0.1642
  315MOL0     C41503   7.103   3.323   2.179 -0.5443  0.6389  0.0527
  315MOL0     C41504   7.065   3.301   2.041  0.6818 -0.6880 -1.0421
  315MOL0     C41505   7.068   3.180   1.984 -0.1059 -0.0327  0.4893
  315MOL0     O41506   7.040   3.162   1.850 -0.3321  0.5620  0.2581
  315MOL0     C41507   7.160   3.128   1.777 -0.0132  0.0289  0.3768
  315MOL0     C41508   7.121   3.110   1.624 -0.2923 -0.2943 -0.2511
  315MOL0     C41509   7.000   3.027   1.591  1.3172  0.5298  0.0966
  315MOL0     C41510   7.047   2.881   1.608  0.2579 -0.4417 -0.5788
  315MOL0     C41511   6.937   2.800   1.655  0.3284  0.0338  0.1174
  315MOL0     C41512   6.845   2.727   1.689  0.0061  0.0699  0.1276
  315MOL0     C41513   7.093   3.067   2.069  0.6549 -0.3314 -0.7401
  315MOL0     C41514   7.121   3.084   2.201 -0.5660 -0.6651 -0.0589
  315MOL0     H41515   7.128   3.228   2.686  1.4080 -2.2725 -1.0698
  315MOL0     H41516   7.254   3.265   2.892  1.2460  1.3314  0.9754
  315MOL0     H41517   7.642   3.505   2.961  0.2487 -1.2514 -0.7876
  315MOL0     H41518   7.632   3.358   2.853 -0.0110 -0.3531 -0.7602
  315MOL0     H41519   7.614   3.391   3.157  0.3680 -2.3912  1.9368
  315MOL0     H41520   7.742   3.310   3.079 -0.8204  1.3937  0.6505
  315MOL0     H41521   7.552   3.151   2.974  1.4346 -3.0589  1.1245
  315MOL0     H41522   7.440   3.219   3.099 -0.5172 -4.7306  1.8544
  315MOL0     H41523   7.709   3.104   3.160  0.1575  1.0246  2.8342
  315MOL0     H41524   7.591   3.156   3.272 -1.0668  1.5408 -1.1932
  315MOL0     H41525   7.533   2.924   3.080 -2.8437 -1.4696 -0.2266
  315MOL0     H41526   7.420   2.986   3.206 -0.6951 -3.6047 -1.6103
  315MOL0     H41527   7.685   2.832   3.226  1.4820  3.0686 -0.5558
  315MOL0     H41528   7.524   2.777   3.272  0.0532 -0.9077 -1.0818
  315MOL0     H41529   7.650   2.818   3.462  1.7721  1.0591  0.0996
  315MOL0     H41530   7.701   2.984   3.409 -1.0466  0.6820 -1.1131
  315MOL0     H41531   7.467   3.051   3.451 -0.6869 -2.2674 -1.4862
  315MOL0     H41532   7.556   2.989   3.594 -0.1152  4.4427 -0.6284
  315MOL0     H41533   7.219   2.917   3.424 -1.4882 -1.9695 -0.8855
  315MOL0     H41534   7.120   2.575   3.554 -3.2854 -1.6517  1.5291
  315MOL0     H41535   7.070   2.675   3.420 -0.9510 -0.1102  0.1881
  315MOL0     H41536   6.979   2.842   3.574  2.6442 -0.6544 -3.3759
  315MOL0     H41537   7.022   2.744   3.712  0.7678 -1.6006  0.0615
  315MOL0     H41538   6.880   2.549   3.652 -1.8085 -0.2999  0.5268
  315MOL0     H41539   6.803   2.692   3.673  1.9166  1.2759  1.9011
  315MOL0     H41540   6.832   2.565   3.386 -0.4521  1.5481 -1.0703
  315MOL0     H41541   6.799   2.734   3.418 -0.2777 -0.0482 -0.5744
  315MOL0     H41542   6.412   2.523   3.521  1.8638  0.8932  1.3504
  315MOL0     H41543   6.251   2.473   3.341 -1.0521  0.6391  1.0284
  315MOL0     H41544   6.224   2.218   2.953 -0.7583 -0.5219  0.5699
  315MOL0     H41545   6.131   2.176   2.716  1.4689  0.4928 -0.2277
  315MOL0     H41546   5.769   2.135   2.633 -0.3846  2.5697  0.4438
  315MOL0     H41547   5.930   2.086   2.675 -0.5508 -0.3351 -0.7926
  315MOL0     H41548   5.816   2.018   2.445  0.7955 -1.5977  2.1837
  315MOL0     H41549   5.988   2.030   2.476 -0.1922  0.7631 -0.5261
  315MOL0     H41550   6.004   2.261   2.373  0.8889 -0.4376  0.1581
  315MOL0     H41551   5.829   2.278   2.387  2.6543  2.0317 -1.2389
  315MOL0     H41552   5.936   2.242   2.161  0.4001 -2.1590 -2.0796
  315MOL0     H41553   5.964   2.077   2.205  0.5948  1.7412 -0.7248
  315MOL0     H41554   5.685   2.210   2.218  1.5598  2.5711 -2.1396
  315MOL0     H41555   5.723   2.028   2.223 -0.6478 -0.0938 -1.5847
  315MOL0     H41556   5.808   2.040   2.005  1.1326 -0.0951  3.0588
  315MOL0     H41557   5.707   2.188   1.980 -1.9585 -0.5374 -1.5803
  315MOL0     H41558   5.612   1.906   2.072  3.1140 -0.7494 -1.3343
  315MOL0     H41559   5.514   2.048   2.089 -0.1694 -1.5957  1.5661
  315MOL0     H41560   5.539   2.080   1.822  3.2472 -0.7183 -2.9608
  315MOL0     H41561   5.442   1.953   1.894 -1.1525  0.8546  5.6816
  315MOL0     H41562   5.816   2.445   2.802 -0.4513 -2.6979  0.5377
  315MOL0     H41563   5.937   2.523   3.017 -3.6220 -0.6024 -0.4597
  315MOL0     H41564   6.515   2.607   3.050 -3.0397 -0.5701 -0.4910
  315MOL0     H41565   6.686   2.664   3.234 -1.9931  2.0436 -0.5708
  315MOL0     H41566   7.524   3.534   2.691 -1.5673  3.1101  1.2263
  315MOL0     H41567   7.422   3.472   2.476  1.0178 -0.4457  0.2100
  315MOL0     H41568   7.108   3.426   2.213 -4.0578  0.4146  1.6685
  315MOL0     H41569   7.021   3.384   1.986 -3.0719 -0.4347  1.9012
  315MOL0     H41570   7.210   3.036   1.810  2.5133  0.4554 -1.9415
  315MOL0     H41571   7.233   3.207   1.794 -2.6175  2.5754  0.4658
  315MOL0     H41572   7.096   3.211   1.591 -2.3704 -0.2344  1.3426
  315MOL0     H41573   7.208   3.071   1.570 -0.7960  0.2970 -1.5349
  315MOL0     H41574   6.967   3.034   1.487 -0.9459 -0.6860  0.6696
  315MOL0     H41575   6.916   3.051   1.657  0.3810 -1.8699 -0.1197
  315MOL0     H41576   7.093   2.840   1.517  0.3845 -0.3956 -0.5350
  315MOL0     H41577   7.123   2.867   1.685 -0.4779 -0.6258  0.1158
  315MOL0     H41578   6.761   2.664   1.715  0.9745 -0.2847  2.7448
  315MOL0     H41579   7.077   2.966   2.034 -0.9789 -0.2011 -0.4086
  315MOL0     H41580   7.134   2.998   2.268  2.9092 -1.1892 -1.1996
  316MOL0     O41581   2.611   8.220   5.365  0.1625  0.3223  0.0052
  316MOL0     C41582   2.674   8.218   5.258 -0.8119 -1.0476  0.3585
  316MOL0     O41583   2.701   8.107   5.184  0.0789  0.0949  0.0946
  316MOL0     C41584   2.642   7.989   5.220  0.5238 -0.2402 -0.1137
  316MOL0     C41585   2.516   7.956   5.177  0.2211  0.3431 -1.1927
  316MOL0     C41586   2.465   7.827   5.194 -0.9466 -0.0866 -0.5673
  316MOL0     C41587   2.541   7.728   5.273  0.0281 -1.0270 -0.2744
  316MOL0     O41588   2.493   7.607   5.314 -0.4843  0.1236  0.1853
  316MOL0     C41589   2.382   7.607   5.416  0.2556  0.0987  0.9323
  316MOL0     C41590   2.439   7.554   5.559  0.4752 -0.7943  0.4294
  316MOL0     C41591   2.327   7.498   5.657 -1.0769 -0.2068  0.2058
  316MOL0     C41592   2.191   7.567   5.627 -0.8439 -0.7223 -0.6047
  316MOL0     C41593   2.094   7.550   5.747  0.1990  0.1759  0.1971
  316MOL0     C41594   2.030   7.408   5.761  0.0380 -0.1627  0.1022
  316MOL0     C41595   1.906   7.383   5.682 -0.0262  0.3615  0.7536
  316MOL0     C41596   1.834   7.254   5.711 -1.2207 -0.8192  0.0561
  316MOL0     N41597   1.800   7.215   5.848 -0.1499  0.0252 -0.2345
  316MOL0     C41598   1.889   7.167   5.940 -0.0570 -0.5856  0.0906
  316MOL0     C41599   1.810   7.111   6.041  0.2031 -0.3888 -0.0446
  316MOL0     C41600   1.846   7.038   6.170  0.6658 -0.1708 -0.0722
  316MOL0     C41601   1.976   7.095   6.226  0.3306  0.5868 -0.3939
  316MOL0     C41602   1.997   7.074   6.373 -0.0405  0.6050  0.3346
  316MOL0     C41603   2.046   6.924   6.407  1.0111 -0.2417 -0.1279
  316MOL0     O41604   2.178   6.906   6.355  0.6560  0.2826 -0.3951
  316MOL0     C41605   2.270   6.906   6.453 -0.4172 -0.6176  0.2670
  316MOL0     C41606   2.380   7.005   6.443 -0.8790  1.3143 -0.8184
  316MOL0     C41607   2.483   7.026   6.543  0.3852  0.2913  0.5136
  316MOL0     C41608   2.473   6.951   6.662  0.2987  0.6303  0.0284
  316MOL0     C41609   2.558   6.982   6.775  0.3285 -0.5075 -0.4437
  316MOL0     O41610   2.541   6.905   6.896  0.7745  0.3479  0.8893
  316MOL0     C41611   2.585   6.943   7.019 -0.4761 -0.3647 -0.0213
  316MOL0     C41612   2.505   6.899   7.124 -0.6623  0.6629  0.6741
  316MOL0     C41613   2.556   6.925   7.255  0.5907  0.0688 -0.7195
  316MOL0     C41614   2.684   6.977   7.288 -0.0949 -0.5630  0.0078
  316MOL0     O41615   2.724   6.982   7.418  0.7528  1.0964 -0.3649
  316MOL0     C41616   2.791   7.101   7.468  1.2255  0.2015  0.3523
  316MOL0     C41617   2.914   7.060   7.552 -0.7361  0.0329  0.4699
  316MOL0     C41618   3.009   7.172   7.528  0.2051  0.1386  1.0944
  316MOL0     C41619   3.154   7.119   7.552 -0.8364 -0.4180  0.3570
  316MOL0     C41620   3.250   7.226   7.558  0.4748 -0.5131 -0.3371
  316MOL0     C41621   3.389   7.171   7.563  0.5721  0.2804  0.3751
  316MOL0     C41622   3.507   7.276   7.537  0.0790  0.0246  0.3083
  316MOL0     C41623   3.638   7.200   7.560 -0.5167  0.8164  0.3928
  316MOL0    Cl41624   3.767   7.304   7.505 -0.2088  0.3640  0.0256
  316MOL0     C41625   2.762   7.016   7.182 -1.0084 -0.2212  0.2096
  316MOL0     C41626   2.709   7.002   7.053  0.2328  0.2242 -0.4625
  316MOL0     O41627   2.641   7.069   6.758  0.0361 -0.6581  0.1567
  316MOL0     C41628   2.367   6.855   6.677 -0.0047 -0.7622 -0.2748
  316MOL0     C41629   2.275   6.833   6.572  1.1724  0.1001  0.1032
  316MOL0     N41630   1.675   7.116   6.000 -0.1298  0.6208  0.6701
  316MOL0     N41631   1.671   7.171   5.886 -0.0465 -0.0821  0.1417
  316MOL0     C41632   2.672   7.760   5.314  0.3927 -1.0834  0.1992
  316MOL0     C41633   2.713   7.891   5.283 -0.2689 -0.8787 -0.6680
  316MOL0     C41634   2.734   8.347   5.215 -0.0110 -0.6152 -1.0128
  316MOL0     C41635   2.720   8.464   5.303  0.2085  0.7682  0.2274
  316MOL0     C41636   2.755   8.595   5.250  0.3972  0.2510 -0.7682
  316MOL0     C41637   2.824   8.598   5.132 -0.4811  0.8605  0.7171
  316MOL0     O41638   2.885   8.707   5.073 -0.6142  0.4117 -0.0181
  316MOL0     C41639   2.876   8.834   5.142 -0.0501  0.6382 -0.1930
  316MOL0     C41640   2.994   8.847   5.248 -1.2247 -0.6882 -0.0062
  316MOL0     C41641   2.980   8.780   5.380 -0.1140 -0.4889 -1.3655
  316MOL0     C41642   3.095   8.799   5.486  0.3566  0.5431  0.3354
  316MOL0     C41643   3.120   8.939   5.497 -0.1881  0.0695 -0.1607
  316MOL0     C41644   3.154   9.051   5.519  0.1908 -0.4064  0.0417
  316MOL0     C41645   2.854   8.488   5.058 -0.1596 -0.0264 -0.5924
  316MOL0     C41646   2.805   8.366   5.097 -0.8627 -0.0601 -0.1800
  316MOL0     H41647   2.463   8.033   5.121 -0.5359  2.2532  1.8729
  316MOL0     H41648   2.368   7.799   5.155 -0.8111 -2.1436  0.4539
  316MOL0     H41649   2.314   7.534   5.370  0.4325  0.6271 -0.2033
  316MOL0     H41650   2.332   7.702   5.434 -0.3184  0.4823 -2.1088
  316MOL0     H41651   2.506   7.627   5.605  3.0792 -3.3564  1.0119
  316MOL0     H41652   2.497   7.462   5.548 -1.3169 -2.0596  1.0617
  316MOL0     H41653   2.367   7.517   5.757  1.0704 -0.3880 -0.5535
  316MOL0     H41654   2.316   7.391   5.636  2.9073 -0.0942 -3.8733
  316MOL0     H41655   2.217   7.673   5.631  0.1294 -0.9328 -1.0297
  316MOL0     H41656   2.154   7.545   5.527  1.7117  0.8433 -1.9830
  316MOL0     H41657   2.023   7.630   5.725  0.7311  0.2471 -1.4709
  316MOL0     H41658   2.140   7.576   5.843  0.1435 -0.9776  0.5458
  316MOL0     H41659   2.008   7.404   5.868  4.5479  3.1877  1.4550
  316MOL0     H41660   2.111   7.335   5.748  0.3924 -0.1437  2.0157
  316MOL0     H41661   1.834   7.463   5.704 -1.0889 -0.4547  0.3382
  316MOL0     H41662   1.931   7.383   5.575 -0.8271  3.5927  0.4548
  316MOL0     H41663   1.902   7.177   5.673 -0.2374 -0.2727  0.6777
  316MOL0     H41664   1.741   7.256   5.654 -1.4296 -3.7098  0.1433
  316MOL0     H41665   1.994   7.195   5.947  0.2268 -1.5575 -0.0973
  316MOL0     H41666   1.877   6.940   6.130  0.7979 -0.5360  0.9127
  316MOL0     H41667   1.771   7.023   6.247 -0.7929  4.0530 -0.4344
  316MOL0     H41668   1.981   7.204   6.216  0.9674  0.6372  0.3826
  316MOL0     H41669   2.054   7.053   6.163 -1.5703 -0.3979 -2.2031
  316MOL0     H41670   2.078   7.142   6.400  1.0906 -1.1965  1.6734
  316MOL0     H41671   1.904   7.106   6.421 -0.3489  1.6392 -0.8930
  316MOL0     H41672   1.970   6.871   6.349 -0.8009 -0.4034  2.2623
  316MOL0     H41673   2.042   6.899   6.513 -0.0902  0.0916 -0.0809
  316MOL0     H41674   2.398   7.059   6.351 -1.3413 -1.7520 -2.8385
  316MOL0     H41675   2.568   7.087   6.514  2.8827 -2.8069  0.7665
  316MOL0     H41676   2.410   6.853   7.097 -0.9149  1.3175  0.4497
  316MOL0     H41677   2.505   6.905   7.349 -2.5597  0.0616 -2.3061
  316MOL0     H41678   2.727   7.164   7.529 -1.9542 -1.2785 -1.2130
  316MOL0     H41679   2.809   7.157   7.376  0.9681 -1.4321 -0.7312
  316MOL0     H41680   2.964   6.974   7.506  2.5468  2.0903 -0.2185
  316MOL0     H41681   2.899   7.043   7.658  3.2003 -0.9018  1.0558
  316MOL0     H41682   2.982   7.256   7.592  0.7861  0.3393  1.0779
  316MOL0     H41683   3.007   7.199   7.422 -1.0292  1.4298  1.4118
  316MOL0     H41684   3.168   7.062   7.645  0.0286  1.3526  1.3791
  316MOL0     H41685   3.191   7.060   7.468  1.3161 -1.2039  1.7667
  316MOL0     H41686   3.241   7.286   7.650 -0.4901  0.6807 -1.1707
  316MOL0     H41687   3.229   7.305   7.485 -2.9716 -1.1872 -0.2628
  316MOL0     H41688   3.403   7.091   7.489  0.1654 -0.9686  1.5939
  316MOL0     H41689   3.405   7.124   7.660  0.7740 -1.0009 -0.2548
  316MOL0     H41690   3.499   7.320   7.437 -2.0535 -0.0148  0.4228
  316MOL0     H41691   3.503   7.366   7.599  5.7115  0.8519  0.0022
  316MOL0     H41692   3.647   7.106   7.505 -0.3261  0.3323  1.2488
  316MOL0     H41693   3.650   7.176   7.666  0.2859  0.8648  0.3138
  316MOL0     H41694   2.863   7.051   7.198 -0.6907 -1.2756  0.5793
  316MOL0     H41695   2.781   7.015   6.973 -1.7245  1.3752 -2.1351
  316MOL0     H41696   2.358   6.805   6.773  2.7146 -1.5359 -0.3423
  316MOL0     H41697   2.214   6.744   6.586  1.0740  0.1841  0.2183
  316MOL0     H41698   2.739   7.681   5.346  0.4041 -3.2780 -4.4779
  316MOL0     H41699   2.814   7.916   5.311 -1.5189  2.5570  1.2582
  316MOL0     H41700   2.678   8.439   5.401 -0.1484 -1.1844 -0.3678
  316MOL0     H41701   2.730   8.684   5.307  1.6154 -1.7443  3.2318
  316MOL0     H41702   2.778   8.852   5.187 -0.6321 -0.0323 -1.1636
  316MOL0     H41703   2.872   8.905   5.059 -2.7709  2.4459  1.3320
  316MOL0     H41704   3.085   8.809   5.198 -0.2955  0.9339  0.3807
  316MOL0     H41705   3.014   8.953   5.266  0.7782 -0.9533 -0.3668
  316MOL0     H41706   2.968   8.672   5.369 -1.8053 -0.4075 -0.6155
  316MOL0     H41707   2.882   8.812   5.415 -1.0042  0.4978 -4.4690
  316MOL0     H41708   3.071   8.773   5.589  0.8843 -0.7662  0.1548
  316MOL0     H41709   3.184   8.741   5.457  2.1788  3.1480  0.3532
  316MOL0     H41710   3.170   9.156   5.534 -1.9283  0.1667 -1.2737
  316MOL0     H41711   2.914   8.509   4.970 -0.6923 -2.3376 -1.5895
  316MOL0     H41712   2.826   8.286   5.027 -2.8693  0.4744 -1.4941
  317MOL0     O41713  10.216  11.101  11.287  0.2763  0.0915 -0.7695
  317MOL0     C41714  10.256  11.060  11.395  0.0994 -0.0569 -0.1748
  317MOL0     O41715  10.302  11.151  11.492 -0.0910 -0.3013  0.3552
  317MOL0     C41716  10.238  11.271  11.510  0.5627 -0.2604 -0.1252
  317MOL0     C41717  10.109  11.311  11.462  0.1354 -0.4326 -0.0381
  317MOL0     C41718  10.058  11.434  11.495 -0.1528 -0.4933  0.2382
  317MOL0     C41719  10.130  11.535  11.555  0.3244  0.8048 -0.2163
  317MOL0     O41720  10.096  11.669  11.550 -0.0477  0.2667  0.8089
  317MOL0     C41721  10.150  11.754  11.444 -0.8469  0.0882 -1.2407
  317MOL0     C41722  10.038  11.803  11.356 -0.1798 -0.8467 -0.6801
  317MOL0     C41723  10.096  11.878  11.229  0.4420  0.3212  0.7182
  317MOL0     C41724   9.977  11.930  11.145 -0.1319 -0.5683 -0.0359
  317MOL0     C41725   9.919  12.068  11.182 -0.8747 -0.1860  0.3105
  317MOL0     C41726   9.809  12.114  11.082 -0.2999  0.4625  0.1303
  317MOL0     C41727   9.769  12.257  11.106  1.1424  0.0474  0.7814
  317MOL0     C41728   9.731  12.304  11.244  0.3508  0.5896 -0.3942
  317MOL0     N41729   9.669  12.435  11.244 -0.3078 -0.2641 -0.8040
  317MOL0     C41730   9.576  12.476  11.337 -1.4306  0.2544 -0.4253
  317MOL0     C41731   9.545  12.598  11.302  0.3451 -1.3582 -0.3018
  317MOL0     C41732   9.476  12.705  11.382 -0.2209  1.3393 -0.9990
  317MOL0     C41733   9.388  12.806  11.312 -0.2652  0.1669  1.3601
  317MOL0     C41734   9.483  12.927  11.266  0.1842 -0.5657 -0.4536
  317MOL0     C41735   9.401  13.045  11.218  0.3624  0.9406 -0.2361
  317MOL0     O41736   9.484  13.163  11.208  0.0650  0.1282  0.3160
  317MOL0     C41737   9.431  13.283  11.172  0.2777  0.7615  0.6118
  317MOL0     C41738   9.522  13.377  11.144  0.2185  1.0561 -0.4023
  317MOL0     C41739   9.478  13.498  11.102 -0.8023  0.8564 -0.4135
  317MOL0     C41740   9.350  13.535  11.083 -0.0140 -0.4301 -0.5521
  317MOL0     C41741   9.312  13.666  11.045 -0.7436  0.1907  0.5319
  317MOL0     O41742   9.186  13.689  10.996  0.0989  0.0338  0.8427
  317MOL0     C41743   9.167  13.800  10.920  0.0262  0.9135  1.0236
  317MOL0     C41744   9.206  13.793  10.787  0.6997 -0.9253  0.6710
  317MOL0     C41745   9.172  13.897  10.703  0.6431  0.8529 -0.2994
  317MOL0     C41746   9.103  14.012  10.742  0.3120  0.0591 -1.1239
  317MOL0     O41747   9.074  14.119  10.656  0.1620  1.0844 -0.4112
  317MOL0     C41748   8.950  14.183  10.683  0.2290 -0.9442  0.5044
  317MOL0     C41749   8.873  14.224  10.556  0.0693  0.2712  1.0920
  317MOL0     C41750   8.833  14.111  10.469  0.8443 -0.0415  0.6287
  317MOL0     C41751   8.758  14.159  10.344  0.4160  0.7285 -0.2787
  317MOL0     C41752   8.723  14.048  10.246 -1.0332  0.2668 -0.6121
  317MOL0     C41753   8.716  14.071  10.102 -0.0142 -0.1073  0.2335
  317MOL0     C41754   8.800  13.970  10.015 -0.8738 -0.4399  0.7452
  317MOL0     C41755   8.949  14.003  10.051 -0.4040 -0.3255 -0.8504
  317MOL0    Cl41756   9.060  13.907   9.947 -0.1152 -0.2288  0.0610
  317MOL0     C41757   9.082  14.020  10.879  1.0559  0.7595 -0.0283
  317MOL0     C41758   9.106  13.913  10.969  0.7285 -0.6641 -0.1891
  317MOL0     O41759   9.400  13.746  11.044 -0.1131  0.3866 -0.3311
  317MOL0     C41760   9.258  13.437  11.106  0.8375  0.6734 -0.7001
  317MOL0     C41761   9.302  13.306  11.138  0.1912 -0.5335 -0.3636
  317MOL0     N41762   9.592  12.623  11.172  0.7288 -0.3753  0.0225
  317MOL0     N41763   9.665  12.521  11.143  0.2233  0.9629 -0.4812
  317MOL0     C41764  10.252  11.498  11.612  0.4327 -0.0243 -0.1902
  317MOL0     C41765  10.304  11.373  11.581 -0.2098 -0.5998 -0.9478
  317MOL0     C41766  10.278  10.911  11.406 -0.7220  1.1575 -0.1529
  317MOL0     C41767  10.274  10.834  11.289  0.6387 -0.4327 -0.2003
  317MOL0     C41768  10.313  10.696  11.286  0.4171 -0.1275 -0.5625
  317MOL0     C41769  10.355  10.633  11.400  0.7318  0.1152 -0.0183
  317MOL0     O41770  10.377  10.497  11.386 -0.2760  0.5783 -0.6856
  317MOL0     C41771  10.367  10.404  11.497 -1.2294  0.2453 -0.1591
  317MOL0     C41772  10.512  10.367  11.548  0.4448  0.4618  0.2277
  317MOL0     C41773  10.538  10.308  11.681 -0.0436 -0.1325  0.9113
  317MOL0     C41774  10.536  10.429  11.785  0.5015  1.5229 -0.4471
  317MOL0     C41775  10.614  10.379  11.900 -0.0116 -0.0355 -0.5123
  317MOL0     C41776  10.681  10.341  12.000  0.0396  0.1821 -0.1530
  317MOL0     C41777  10.364  10.709  11.515  0.6656  0.1221 -0.6634
  317MOL0     C41778  10.332  10.852  11.517  0.0328  0.2937 -0.6187
  317MOL0     H41779  10.038  11.253  11.404  1.7740 -0.9077 -1.6584
  317MOL0     H41780   9.959  11.453  11.455  0.6919 -3.4811 -3.8713
  317MOL0     H41781  10.235  11.703  11.399 -0.3776  0.0036 -0.2878
  317MOL0     H41782  10.194  11.841  11.494 -0.6331  0.2294 -1.6715
  317MOL0     H41783   9.987  11.876  11.420  1.1877 -1.0981  0.7787
  317MOL0     H41784   9.964  11.729  11.325 -2.0063  1.7976 -3.1649
  317MOL0     H41785  10.149  11.804  11.167  0.1978 -0.0755  0.9753
  317MOL0     H41786  10.164  11.956  11.261  3.1593 -0.9970 -1.3949
  317MOL0     H41787  10.014  11.939  11.043  0.8810  0.7517  0.4229
  317MOL0     H41788   9.888  11.866  11.144 -0.7589  0.2013 -3.0656
  317MOL0     H41789  10.003  12.139  11.183  1.5476 -2.7972 -1.2795
  317MOL0     H41790   9.863  12.058  11.275 -0.0130  2.7395  1.2653
  317MOL0     H41791   9.725  12.046  11.096 -1.3888  1.8268  0.4597
  317MOL0     H41792   9.841  12.101  10.978  3.5747  0.1125  1.2197
  317MOL0     H41793   9.846  12.321  11.061 -1.2382  0.8702 -2.4696
  317MOL0     H41794   9.678  12.268  11.046  1.0565 -1.8330  0.4803
  317MOL0     H41795   9.810  12.308  11.320  0.3179 -0.6123 -0.2769
  317MOL0     H41796   9.655  12.238  11.287  2.1119 -2.1250 -1.2276
  317MOL0     H41797   9.539  12.427  11.426 -2.4442  0.5240 -0.6913
  317MOL0     H41798   9.545  12.751  11.453 -0.9209 -1.2135  1.5523
  317MOL0     H41799   9.405  12.646  11.442 -1.2609  4.2447  0.8272
  317MOL0     H41800   9.307  12.827  11.382 -0.1720  2.8702  0.7639
  317MOL0     H41801   9.350  12.765  11.218  1.5969 -1.2502  1.1500
  317MOL0     H41802   9.536  12.976  11.348  0.1352 -1.3290  0.0500
  317MOL0     H41803   9.553  12.892  11.189  1.0518  0.5990 -0.2169
  317MOL0     H41804   9.321  13.067  11.290 -2.0707  0.3960 -2.5918
  317MOL0     H41805   9.354  13.020  11.123 -3.0683  2.0202  0.9921
  317MOL0     H41806   9.625  13.347  11.157  0.1592 -0.2421 -2.4728
  317MOL0     H41807   9.561  13.567  11.109  1.0068 -1.3386  2.6371
  317MOL0     H41808   9.253  13.702  10.750 -1.9806 -2.6700  1.2770
  317MOL0     H41809   9.203  13.888  10.600  1.8351 -0.3998  0.1457
  317MOL0     H41810   8.950  14.265  10.756 -1.8080 -0.6163  0.1947
  317MOL0     H41811   8.893  14.114  10.745 -1.2210  1.4033  1.9253
  317MOL0     H41812   8.935  14.293  10.497  0.2867 -1.3690 -0.7266
  317MOL0     H41813   8.782  14.275  10.587 -2.5222 -1.6253 -2.5864
  317MOL0     H41814   8.780  14.036  10.528  0.4122 -0.8777 -0.7700
  317MOL0     H41815   8.925  14.064  10.433  0.5421  0.9447 -1.6461
  317MOL0     H41816   8.659  14.191  10.377 -0.8190 -2.1448 -0.8339
  317MOL0     H41817   8.792  14.243  10.284 -0.3204  0.0359 -1.7489
  317MOL0     H41818   8.626  14.006  10.276 -1.7194  1.0852 -1.6424
  317MOL0     H41819   8.801  13.976  10.274  1.3883  3.3768  1.3682
  317MOL0     H41820   8.741  14.175  10.080 -2.5586  0.6013  0.3943
  317MOL0     H41821   8.611  14.062  10.072 -0.4640 -1.9428  2.0901
  317MOL0     H41822   8.776  13.866  10.039  0.2923 -1.7737 -3.2237
  317MOL0     H41823   8.782  13.984   9.908 -0.5765  1.2047  0.8745
  317MOL0     H41824   8.985  13.968  10.149  1.8497  0.5535 -1.2951
  317MOL0     H41825   8.971  14.109  10.037 -1.0789 -0.5966 -5.3134
  317MOL0     H41826   9.038  14.112  10.919  2.6363  1.6036 -0.1575
  317MOL0     H41827   9.070  13.912  11.071 -0.5313  2.3436 -0.4837
  317MOL0     H41828   9.152  13.456  11.095  1.3339  2.4948 -3.2724
  317MOL0     H41829   9.231  13.227  11.161  0.6798 -1.1472 -0.9506
  317MOL0     H41830  10.308  11.572  11.669  0.3673 -0.5454  0.5516
  317MOL0     H41831  10.398  11.350  11.629 -2.1238 -3.3196  1.9375
  317MOL0     H41832  10.230  10.878  11.200  0.9516 -2.1240 -1.2534
  317MOL0     H41833  10.291  10.647  11.191  1.2242  0.9200 -1.3267
  317MOL0     H41834  10.330  10.310  11.455  0.1138 -0.5502  0.3921
  317MOL0     H41835  10.310  10.447  11.580  0.5726  2.3903  0.0540
  317MOL0     H41836  10.553  10.296  11.475  0.8204  0.1519  0.7301
  317MOL0     H41837  10.579  10.453  11.538  2.2244 -0.8114  0.7192
  317MOL0     H41838  10.641  10.272  11.669  0.5858  1.4162  1.3760
  317MOL0     H41839  10.477  10.220  11.700  1.5134 -1.1914  1.1731
  317MOL0     H41840  10.587  10.517  11.745  3.0850 -0.6616 -2.2987
  317MOL0     H41841  10.430  10.441  11.808 -0.3515 -4.7829  0.6905
  317MOL0     H41842  10.734  10.325  12.092 -1.0719 -1.5375  0.2283
  317MOL0     H41843  10.393  10.658  11.606 -1.4875  2.0775  1.2534
  317MOL0     H41844  10.323  10.894  11.617 -0.1245  0.0380 -0.5225
  318MOL0     O41845   7.627   3.577  10.756 -0.1261 -0.2296 -0.3223
  318MOL0     C41846   7.529   3.637  10.698 -0.7647  0.2097  0.6468
  318MOL0     O41847   7.407   3.663  10.747 -0.7537 -0.1766 -0.7437
  318MOL0     C41848   7.362   3.577  10.849 -0.0063 -0.2893  0.1581
  318MOL0     C41849   7.359   3.617  10.983  0.2371  0.9262 -0.2133
  318MOL0     C41850   7.323   3.535  11.083  1.5857  0.0695 -0.1087
  318MOL0     C41851   7.295   3.402  11.058  0.3552 -0.0436  1.0870
  318MOL0     O41852   7.265   3.321  11.162 -0.4510 -0.1947  0.1704
  318MOL0     C41853   7.188   3.201  11.145  0.1473 -0.7494  0.0802
  318MOL0     C41854   7.169   3.131  11.287  0.4196 -0.2110  0.7839
  318MOL0     C41855   7.036   3.046  11.296  0.5769 -0.4412 -0.3323
  318MOL0     C41856   7.039   2.909  11.218  0.6907  0.1703  0.2939
  318MOL0     C41857   6.916   2.817  11.236 -1.1118 -0.4146  0.7254
  318MOL0     C41858   6.919   2.746  11.368  0.3289 -0.0628 -1.2087
  318MOL0     C41859   6.789   2.663  11.396 -0.4037 -0.4832  0.2685
  318MOL0     C41860   6.817   2.530  11.459  0.7066  0.0528  1.0953
  318MOL0     N41861   6.697   2.446  11.443  0.0397  0.4377 -0.7161
  318MOL0     C41862   6.691   2.311  11.448  0.3279  0.4584  0.0909
  318MOL0     C41863   6.562   2.282  11.473  0.2534  1.2085 -0.5212
  318MOL0     C41864   6.519   2.144  11.508  1.3179  1.1737  0.2652
  318MOL0     C41865   6.485   2.058  11.389 -0.3762 -0.2182 -0.2751
  318MOL0     C41866   6.408   2.124  11.278 -0.8441 -0.4909  0.0398
  318MOL0     C41867   6.345   2.023  11.186 -1.1453 -1.2518  0.3686
  318MOL0     O41868   6.301   2.089  11.062  0.6784  0.2845  0.2369
  318MOL0     C41869   6.244   2.008  10.967 -0.3880  0.9390 -0.9827
  318MOL0     C41870   6.209   2.072  10.851 -0.5383 -0.5110 -0.3901
  318MOL0     C41871   6.141   2.009  10.747 -0.8350 -0.6235 -0.2696
  318MOL0     C41872   6.094   1.878  10.749 -0.2415 -0.3514  0.1269
  318MOL0     C41873   6.028   1.807  10.642  0.5098 -0.1569  0.0728
  318MOL0     O41874   5.968   1.688  10.671 -0.4164 -0.2051 -0.0276
  318MOL0     C41875   5.910   1.601  10.581  0.6943  0.8135 -0.0352
  318MOL0     C41876   5.867   1.484  10.640  0.1455  0.3217  0.2974
  318MOL0     C41877   5.807   1.380  10.560 -0.0064 -0.6861  0.1472
  318MOL0     C41878   5.784   1.409  10.422  0.6416 -0.6343 -1.2453
  318MOL0     O41879   5.717   1.326  10.337  0.0398  0.2035  0.9563
  318MOL0     C41880   5.690   1.196  10.377 -0.5385 -0.2105  0.3060
  318MOL0     C41881   5.607   1.129  10.272  0.4775  0.3899  1.2352
  318MOL0     C41882   5.570   0.992  10.314  0.0640 -1.0125  0.2785
  318MOL0     C41883   5.501   0.915  10.211  0.0822  0.4299 -0.1583
  318MOL0     C41884   5.438   0.784  10.254  0.4107  0.1009  0.3205
  318MOL0     C41885   5.298   0.774  10.206  0.3044  0.7411  0.3176
  318MOL0     C41886   5.289   0.767  10.045  0.2794  0.7094 -0.5932
  318MOL0     C41887   5.166   0.700   9.983  0.8459  0.7307  0.2536
  318MOL0    Cl41888   5.115   0.535  10.036  0.4127 -0.1556 -0.0743
  318MOL0     C41889   5.798   1.535  10.374 -0.7705 -0.5755  0.5438
  318MOL0     C41890   5.877   1.628  10.444 -0.5629 -0.0878  0.5464
  318MOL0     O41891   6.033   1.854  10.533 -0.1743  0.4580  0.7152
  318MOL0     C41892   6.124   1.816  10.874 -0.0102  0.6113 -0.1168
  318MOL0     C41893   6.200   1.877  10.977  0.6339 -0.0221  0.0631
  318MOL0     N41894   6.484   2.402  11.481 -0.2461  0.2073  0.4484
  318MOL0     N41895   6.572   2.489  11.460 -0.2188 -0.3807 -0.0993
  318MOL0     C41896   7.309   3.354  10.923  0.1239  0.5639  0.6911
  318MOL0     C41897   7.340   3.441  10.821  0.4771 -0.3199  0.8222
  318MOL0     C41898   7.543   3.667  10.549  0.5803 -0.2423 -0.1937
  318MOL0     C41899   7.664   3.643  10.488 -0.0985 -0.5508  0.5001
  318MOL0     C41900   7.681   3.652  10.343 -0.8838  0.2151  0.1753
  318MOL0     C41901   7.584   3.712  10.271  0.2239  0.0363  0.6359
  318MOL0     O41902   7.590   3.740  10.134  0.6200 -0.1576  0.0947
  318MOL0     C41903   7.714   3.754  10.083 -0.1592 -0.5237  0.6389
  318MOL0     C41904   7.717   3.842   9.959 -0.5096  0.4925 -0.7675
  318MOL0     C41905   7.715   3.986   9.996  0.0451  0.0243  0.3714
  318MOL0     C41906   7.825   4.038  10.085  0.4363 -0.1111  0.1029
  318MOL0     C41907   7.951   4.005  10.014  0.5083  0.3552 -0.5048
  318MOL0     C41908   8.048   3.973   9.944 -0.6147 -0.0671 -0.0698
  318MOL0     C41909   7.458   3.741  10.335 -0.0547  0.5086 -0.0821
  318MOL0     C41910   7.435   3.712  10.475  0.5450 -0.9295  0.0458
  318MOL0     H41911   7.370   3.720  11.015  0.2277  0.8983 -0.1222
  318MOL0     H41912   7.305   3.587  11.176  0.2518 -1.8551  0.7891
  318MOL0     H41913   7.239   3.125  11.085  1.9953  1.5530 -1.4456
  318MOL0     H41914   7.087   3.227  11.112  0.1528 -1.7372 -0.7839
  318MOL0     H41915   7.159   3.214  11.358  0.4500  0.2043  0.3154
  318MOL0     H41916   7.255   3.067  11.306  1.2067  1.3281  2.8234
  318MOL0     H41917   6.954   3.117  11.278  2.5904  2.2405  0.4573
  318MOL0     H41918   7.014   3.015  11.398 -0.6202  0.1691 -0.3775
  318MOL0     H41919   7.055   2.933  11.112 -1.2485 -0.5542 -0.2209
  318MOL0     H41920   7.129   2.861  11.257  1.8671  1.3225 -0.8768
  318MOL0     H41921   6.917   2.739  11.160 -0.1615  0.3030 -0.0314
  318MOL0     H41922   6.835   2.886  11.211  1.1953  1.4695 -2.2701
  318MOL0     H41923   6.935   2.816  11.450 -2.2826 -2.8099  1.9723
  318MOL0     H41924   7.003   2.676  11.376 -1.3349 -2.0747  0.0341
  318MOL0     H41925   6.725   2.716  11.467 -1.9938 -1.3077 -0.4933
  318MOL0     H41926   6.754   2.644  11.294  0.6459  0.4072 -0.2711
  318MOL0     H41927   6.860   2.537  11.559 -0.4325 -0.0136  1.5973
  318MOL0     H41928   6.890   2.485  11.390 -1.4687  3.6044 -4.2420
  318MOL0     H41929   6.773   2.239  11.448  1.4519  1.6068 -2.1931
  318MOL0     H41930   6.436   2.163  11.576 -0.6114 -0.8765 -1.3616
  318MOL0     H41931   6.603   2.093  11.557  3.3748  1.0987 -3.0535
  318MOL0     H41932   6.420   1.982  11.432 -0.6298 -0.8652 -1.7188
  318MOL0     H41933   6.580   2.009  11.364 -0.7496 -0.7288 -0.7322
  318MOL0     H41934   6.331   2.179  11.333  0.1468 -2.2223  3.3962
  318MOL0     H41935   6.476   2.186  11.219  1.1112 -2.9098 -0.3889
  318MOL0     H41936   6.267   1.973  11.244 -2.7348  0.8187  0.0959
  318MOL0     H41937   6.413   1.941  11.160 -0.2574 -0.5667  0.4709
  318MOL0     H41938   6.231   2.178  10.852 -2.9907  0.1243 -2.6552
  318MOL0     H41939   6.105   2.069  10.664 -1.8149  5.1600  3.7640
  318MOL0     H41940   5.885   1.476  10.747 -1.5099 -0.1487  0.5568
  318MOL0     H41941   5.784   1.283  10.601 -0.5343 -0.2588  0.8874
  318MOL0     H41942   5.639   1.195  10.474  0.0429  2.3585  0.7078
  318MOL0     H41943   5.781   1.136  10.387 -0.6394 -0.6284 -1.0006
  318MOL0     H41944   5.685   1.118  10.196  2.1573  1.2689  2.7518
  318MOL0     H41945   5.522   1.193  10.246  0.5496 -0.3748 -1.1089
  318MOL0     H41946   5.500   0.997  10.398 -0.9725 -1.0116 -0.5642
  318MOL0     H41947   5.666   0.943  10.332  0.0158 -1.7819 -1.4370
  318MOL0     H41948   5.429   0.982  10.164 -0.0934 -1.1236 -2.2481
  318MOL0     H41949   5.577   0.886  10.138  2.2287 -0.4590  2.2626
  318MOL0     H41950   5.427   0.777  10.363 -3.1546 -1.3873  0.0050
  318MOL0     H41951   5.499   0.702  10.216 -0.9373 -0.9715  0.4188
  318MOL0     H41952   5.229   0.848  10.247 -1.2750  2.7471 -5.1238
  318MOL0     H41953   5.260   0.678  10.244 -1.7592  0.2893 -2.6065
  318MOL0     H41954   5.308   0.867  10.007  1.4706  0.3928 -0.8715
  318MOL0     H41955   5.369   0.707  10.000  1.3860  2.7169 -1.3892
  318MOL0     H41956   5.189   0.688   9.877 -1.7620 -1.8453 -0.1254
  318MOL0     H41957   5.075   0.761   9.988 -0.5444 -0.9366 -2.6378
  318MOL0     H41958   5.768   1.559  10.272 -3.1980 -2.4194  0.7279
  318MOL0     H41959   5.902   1.721  10.395 -0.4575  1.1825  2.8486
  318MOL0     H41960   6.089   1.717  10.904 -1.1333  1.3070  0.9289
  318MOL0     H41961   6.223   1.822  11.068  4.0683  3.4453  1.5799
  318MOL0     H41962   7.286   3.250  10.904 -0.9098  0.7415  0.9064
  318MOL0     H41963   7.352   3.413  10.716  0.1691  1.4358  0.2911
  318MOL0     H41964   7.759   3.606  10.526 -0.3760 -2.3574 -0.4725
  318MOL0     H41965   7.767   3.620  10.285 -1.9933  0.6358 -1.8097
  318MOL0     H41966   7.728   3.655  10.039 -0.7755 -0.7258  0.8777
  318MOL0     H41967   7.800   3.773  10.148 -0.9058 -2.6050  2.3730
  318MOL0     H41968   7.805   3.812   9.902 -1.7263 -4.2532 -0.6231
  318MOL0     H41969   7.638   3.805   9.893 -1.1039 -2.3333  1.3376
  318MOL0     H41970   7.619   4.014  10.042 -0.8708  0.1665 -1.5185
  318MOL0     H41971   7.733   4.042   9.903 -0.4991  0.0798  0.2946
  318MOL0     H41972   7.805   4.145  10.086 -0.6332 -0.1985  4.0539
  318MOL0     H41973   7.825   3.994  10.186  2.0788 -2.0904 -0.6735
  318MOL0     H41974   8.135   3.946   9.889 -2.2777 -4.0145 -1.1002
  318MOL0     H41975   7.370   3.765  10.276 -0.0036 -0.5467 -0.6094
  318MOL0     H41976   7.338   3.723  10.522  0.8641 -0.4291  0.5998
  319MOL0     O41977   3.962  11.272   1.848  1.1449  0.1447  0.3273
  319MOL0     C41978   3.972  11.321   1.731 -0.2121 -0.2025 -0.8199
  319MOL0     O41979   3.873  11.363   1.643 -0.5116 -0.4021 -0.5192
  319MOL0     C41980   3.749  11.364   1.705 -0.8647 -0.4261  0.5121
  319MOL0     C41981   3.697  11.480   1.752 -0.1358  0.5811 -0.2895
  319MOL0     C41982   3.571  11.490   1.810 -0.2732 -0.1870 -0.4954
  319MOL0     C41983   3.485  11.387   1.803 -0.0425 -0.2256  0.5017
  319MOL0     O41984   3.365  11.381   1.864 -0.3733  0.7283 -0.0125
  319MOL0     C41985   3.377  11.401   2.005  0.1714  0.1248 -0.7756
  319MOL0     C41986   3.246  11.373   2.070  0.3001  0.6791  0.5498
  319MOL0     C41987   3.116  11.420   1.996 -0.1594  0.5276  0.0324
  319MOL0     C41988   2.996  11.421   2.089 -0.7451 -0.1605  0.1821
  319MOL0     C41989   2.951  11.290   2.145 -0.1997 -0.5028  0.7914
  319MOL0     C41990   2.830  11.301   2.239 -0.4997  0.5324  0.6036
  319MOL0     C41991   2.730  11.188   2.188 -0.0959 -0.6896  0.2281
  319MOL0     C41992   2.601  11.169   2.262  0.0973  0.0405 -0.0734
  319MOL0     N41993   2.528  11.296   2.267 -0.6152  0.4290  0.2792
  319MOL0     C41994   2.454  11.354   2.161  0.1178  0.0320  0.1356
  319MOL0     C41995   2.416  11.473   2.208 -0.1379 -0.2134  0.0463
  319MOL0     C41996   2.317  11.574   2.154  0.2740 -0.5775  0.6927
  319MOL0     C41997   2.176  11.518   2.175 -0.1273 -0.0191  0.7437
  319MOL0     C41998   2.114  11.575   2.290  0.7284 -0.8467  0.0126
  319MOL0     C41999   1.998  11.677   2.255  0.1892 -0.4053 -0.6640
  319MOL0     O42000   1.897  11.599   2.189 -0.1750  0.0992  0.5370
  319MOL0     C42001   1.770  11.645   2.154  0.8326 -0.0103 -0.4207
  319MOL0     C42002   1.690  11.737   2.210 -0.2417 -0.4827  0.9498
  319MOL0     C42003   1.562  11.758   2.151  0.4501 -0.4063 -0.3829
  319MOL0     C42004   1.517  11.697   2.035 -0.2903  0.9277  0.1194
  319MOL0     C42005   1.379  11.722   1.978 -0.0331 -0.7055  0.0254
  319MOL0     O42006   1.357  11.649   1.867  0.4426  0.8039  0.4132
  319MOL0     C42007   1.245  11.640   1.787 -0.3249  0.4673  0.5304
  319MOL0     C42008   1.111  11.662   1.823 -0.5710 -0.5284  0.9931
  319MOL0     C42009   0.999  11.663   1.727 -0.6739  0.8905 -0.6052
  319MOL0     C42010   1.028  11.626   1.595  0.3223  0.9372  0.8022
  319MOL0     O42011   0.919  11.645   1.516 -0.3259  0.8377  0.2213
  319MOL0     C42012   0.943  11.692   1.379 -0.3380 -1.3090 -0.1208
  319MOL0     C42013   0.807  11.718   1.316 -0.5074 -0.3780  0.5587
  319MOL0     C42014   0.837  11.814   1.196  0.0752  0.6952  0.9086
  319MOL0     C42015   0.958  11.784   1.104 -0.0130 -0.1966 -0.1463
  319MOL0     C42016   0.944  11.894   0.991 -0.7185  0.0111  0.2844
  319MOL0     C42017   1.064  11.883   0.885  0.1035 -0.7841 -0.3065
  319MOL0     C42018   1.058  11.988   0.771  1.4646 -0.2372  0.8248
  319MOL0     C42019   1.179  11.966   0.661  0.6624 -0.7427 -0.6269
  319MOL0    Cl42020   1.338  11.949   0.748  0.1032 -0.1801 -0.5974
  319MOL0     C42021   1.163  11.602   1.564  0.2160  0.8689  1.0963
  319MOL0     C42022   1.267  11.595   1.655  0.4530  0.6140 -0.3100
  319MOL0     O42023   1.293  11.789   2.035  0.5809  0.4205 -0.3293
  319MOL0     C42024   1.593  11.596   1.981 -0.4739  0.3042 -0.4942
  319MOL0     C42025   1.711  11.564   2.048 -0.5914 -0.3679  0.1270
  319MOL0     N42026   2.485  11.498   2.322  0.0054 -0.5515  0.2492
  319MOL0     N42027   2.537  11.388   2.366  0.0856  0.0744 -0.5846
  319MOL0     C42028   3.529  11.269   1.744 -0.4377  0.0981 -0.7110
  319MOL0     C42029   3.658  11.255   1.696 -0.6028  0.2209 -0.7219
  319MOL0     C42030   4.109  11.331   1.690  0.0208  0.5205 -0.1698
  319MOL0     C42031   4.214  11.279   1.767 -0.1604  0.0352 -0.2201
  319MOL0     C42032   4.348  11.299   1.731  0.1260  0.2424  0.0736
  319MOL0     C42033   4.382  11.364   1.617  0.3283  0.6096  0.4389
  319MOL0     O42034   4.513  11.401   1.583  0.3251 -0.6745 -0.2222
  319MOL0     C42035   4.625  11.386   1.676  0.0810 -0.7005 -0.2969
  319MOL0     C42036   4.751  11.446   1.621  0.2155 -0.4126  0.1125
  319MOL0     C42037   4.816  11.349   1.534 -1.1029  0.9123  0.5193
  319MOL0     C42038   4.943  11.402   1.453 -0.1975  0.7974  0.0873
  319MOL0     C42039   5.030  11.484   1.539 -0.3850 -0.3049  0.6176
  319MOL0     C42040   5.087  11.553   1.624 -0.3191 -1.0071 -0.2826
  319MOL0     C42041   4.281  11.405   1.539 -0.0239  0.4058  0.3203
  319MOL0     C42042   4.151  11.393   1.576  0.0467 -0.0479  0.4247
  319MOL0     H42043   3.751  11.574   1.744 -1.1765  1.1664 -0.7222
  319MOL0     H42044   3.522  11.572   1.860 -0.4769  0.1219 -1.1957
  319MOL0     H42045   3.401  11.508   2.010  2.6513 -0.4171  2.7140
  319MOL0     H42046   3.457  11.355   2.063  1.1204  2.1497 -0.3558
  319MOL0     H42047   3.246  11.425   2.166 -3.4700  1.0642  0.4873
  319MOL0     H42048   3.232  11.267   2.091  2.8052  0.5399  1.9874
  319MOL0     H42049   3.102  11.342   1.921 -1.6313 -2.4023  3.0556
  319MOL0     H42050   3.142  11.516   1.952  0.7164 -0.3662 -1.4589
  319MOL0     H42051   3.013  11.490   2.172 -1.8847  0.1258  0.1928
  319MOL0     H42052   2.915  11.470   2.034  1.6205 -1.8067 -5.4900
  319MOL0     H42053   3.032  11.249   2.205 -0.1804 -0.0998  1.0434
  319MOL0     H42054   2.934  11.225   2.058  0.7907 -0.7316  0.7588
  319MOL0     H42055   2.789  11.401   2.224  1.2227  0.9881 -1.6778
  319MOL0     H42056   2.849  11.298   2.347 -1.8775 -2.2734  0.8361
  319MOL0     H42057   2.718  11.206   2.081  0.4776  0.7135  0.3753
  319MOL0     H42058   2.780  11.091   2.190  2.9621  0.7061 -1.5364
  319MOL0     H42059   2.632  11.142   2.363  2.2390  0.0765 -0.6657
  319MOL0     H42060   2.546  11.085   2.218  2.5984 -1.6756 -0.1553
  319MOL0     H42061   2.428  11.316   2.062  0.2497 -2.4305  0.9790
  319MOL0     H42062   2.340  11.581   2.047  1.2775  1.1354  0.9897
  319MOL0     H42063   2.335  11.674   2.194  0.7800 -0.9154  1.3333
  319MOL0     H42064   2.176  11.409   2.184 -1.2886 -0.3708 -2.2954
  319MOL0     H42065   2.115  11.535   2.086 -1.2922 -0.7489  1.3792
  319MOL0     H42066   2.087  11.502   2.367  1.0419  2.5294  3.6876
  319MOL0     H42067   2.193  11.620   2.350  0.8403 -1.5299  0.3773
  319MOL0     H42068   2.034  11.757   2.190 -0.2347 -0.1048 -0.5378
  319MOL0     H42069   1.957  11.715   2.349  2.1900 -2.2731  1.0814
  319MOL0     H42070   1.714  11.790   2.302 -2.0616 -0.8888  1.7094
  319MOL0     H42071   1.495  11.824   2.205  0.2112 -2.8014  2.5182
  319MOL0     H42072   1.096  11.693   1.926 -1.4481  0.9734  0.4420
  319MOL0     H42073   0.897  11.691   1.754 -1.1688 -0.5351 -0.9311
  319MOL0     H42074   1.004  11.625   1.319  1.3870 -0.5097  0.6562
  319MOL0     H42075   0.997  11.787   1.390  0.4733 -1.7948  0.1403
  319MOL0     H42076   0.734  11.761   1.386  1.8877  0.2157  2.8201
  319MOL0     H42077   0.764  11.625   1.277 -1.2081  0.9554 -2.0782
  319MOL0     H42078   0.843  11.915   1.239  2.8127 -0.0585  2.5639
  319MOL0     H42079   0.746  11.803   1.136  0.4860  1.7619  0.0506
  319MOL0     H42080   1.051  11.787   1.162 -1.0900  3.1098  1.6571
  319MOL0     H42081   0.953  11.690   1.049  2.8770  0.5701 -1.9379
  319MOL0     H42082   0.965  11.994   1.029  1.1383  0.9230 -2.7395
  319MOL0     H42083   0.845  11.883   0.946 -0.5448  1.8400 -0.6393
  319MOL0     H42084   1.039  11.784   0.847 -2.1730 -1.0090  1.5528
  319MOL0     H42085   1.157  11.895   0.943  1.6804 -2.6302 -2.2725
  319MOL0     H42086   0.964  11.961   0.721  2.6297 -1.3607 -0.9062
  319MOL0     H42087   1.059  12.090   0.809  0.1129  0.4361 -0.8123
  319MOL0     H42088   1.178  12.050   0.590  0.7644 -0.0411  0.1757
  319MOL0     H42089   1.160  11.875   0.604  0.1425  1.0923 -3.6194
  319MOL0     H42090   1.186  11.578   1.461 -2.0445 -1.3437  1.0109
  319MOL0     H42091   1.372  11.579   1.633  1.1272  1.0563  2.1979
  319MOL0     H42092   1.574  11.542   1.889  1.0479  0.4198 -0.8889
  319MOL0     H42093   1.778  11.487   2.013 -1.0945 -0.4255 -0.7198
  319MOL0     H42094   3.475  11.175   1.739 -0.0778 -0.6620  4.5909
  319MOL0     H42095   3.692  11.165   1.647  2.7627 -0.6513  2.6849
  319MOL0     H42096   4.190  11.233   1.862 -1.4263 -0.4060 -0.7156
  319MOL0     H42097   4.430  11.275   1.797 -0.5828 -2.5549  0.0584
  319MOL0     H42098   4.650  11.280   1.691  1.3451 -0.7529 -2.3589
  319MOL0     H42099   4.592  11.432   1.769  3.1324  3.2457 -0.9140
  319MOL0     H42100   4.733  11.536   1.561 -2.4931 -1.2402 -0.4691
  319MOL0     H42101   4.812  11.468   1.709 -1.7758  3.9029  0.7221
  319MOL0     H42102   4.750  11.302   1.459 -1.0689 -2.8529  2.6074
  319MOL0     H42103   4.843  11.262   1.594  0.3269  0.0565 -1.2510
  319MOL0     H42104   4.986  11.312   1.407 -2.2632  0.3735 -1.1454
  319MOL0     H42105   4.898  11.457   1.370  2.0948  1.0986 -1.0568
  319MOL0     H42106   5.128  11.634   1.681 -0.2604 -1.9388  1.0240
  319MOL0     H42107   4.311  11.447   1.443 -1.5371 -0.4221 -0.5514
  319MOL0     H42108   4.080  11.435   1.506  0.1942 -0.1486  0.2148
  320MOL0     O42109   4.727   9.811  10.933  0.4099  0.0125  1.0056
  320MOL0     C42110   4.828   9.749  10.965  0.5750  0.6404  0.1213
  320MOL0     O42111   4.825   9.653  11.064 -0.0552  0.4739  0.1098
  320MOL0     C42112   4.710   9.600  11.130 -0.8712  0.7621 -0.8289
  320MOL0     C42113   4.595   9.671  11.147  0.1494 -0.1458  1.3520
  320MOL0     C42114   4.497   9.615  11.219  0.2689 -0.2656 -0.1472
  320MOL0     C42115   4.509   9.493  11.279  1.0206 -0.3733 -0.3538
  320MOL0     O42116   4.427   9.434  11.375 -0.1485  0.0050  0.7011
  320MOL0     C42117   4.319   9.503  11.417  0.8794 -0.3123  0.4137
  320MOL0     C42118   4.243   9.435  11.529  0.5931  1.4698 -0.4033
  320MOL0     C42119   4.327   9.433  11.659  0.0150  0.4381  1.0857
  320MOL0     C42120   4.237   9.379  11.770  0.4955 -0.4458 -0.5355
  320MOL0     C42121   4.317   9.333  11.891  0.3720 -0.5529  0.9237
  320MOL0     C42122   4.436   9.417  11.926 -1.0010 -0.1321  0.6993
  320MOL0     C42123   4.400   9.563  11.964  0.3625  0.3306 -0.3268
  320MOL0     C42124   4.514   9.650  12.032 -0.1201 -0.5895  0.2053
  320MOL0     N42125   4.640   9.644  11.956  0.2628  0.4134  0.7660
  320MOL0     C42126   4.761   9.633  12.011 -0.2627  0.3331  0.1103
  320MOL0     C42127   4.854   9.688  11.934 -0.6730  0.7125  0.1708
  320MOL0     C42128   5.000   9.708  11.965  1.1463 -1.1717  0.2110
  320MOL0     C42129   5.092   9.581  11.937  0.7096  1.5092 -0.2574
  320MOL0     C42130   5.107   9.481  12.063  0.0660  0.0007 -1.4661
  320MOL0     C42131   5.200   9.362  12.018  0.6699  0.0939 -0.6809
  320MOL0     O42132   5.196   9.266  12.125 -0.7843  0.0094  0.4125
  320MOL0     C42133   5.105   9.165  12.112 -0.4876 -0.7157  0.0975
  320MOL0     C42134   5.128   9.061  12.023 -0.0577  0.0672  0.0442
  320MOL0     C42135   5.034   8.955  12.014  0.2768  0.4339  0.4966
  320MOL0     C42136   4.922   8.945  12.102  1.1773  0.0115  0.0378
  320MOL0     C42137   4.823   8.833  12.101 -0.5743 -0.2027  0.1452
  320MOL0     O42138   4.875   8.717  12.059 -0.5483 -0.8157 -0.3498
  320MOL0     C42139   4.800   8.604  12.100 -0.1972 -1.2557  0.5619
  320MOL0     C42140   4.862   8.490  12.143 -0.6229 -0.4208 -0.1385
  320MOL0     C42141   4.792   8.381  12.182 -0.2399  0.6108 -0.6196
  320MOL0     C42142   4.656   8.375  12.180 -0.3345 -0.2172  0.2480
  320MOL0     O42143   4.582   8.265  12.228 -0.0667 -0.2614 -0.7634
  320MOL0     C42144   4.568   8.158  12.132  0.2679  0.1288  0.1806
  320MOL0     C42145   4.457   8.181  12.028  0.6431  0.4670  0.6491
  320MOL0     C42146   4.459   8.081  11.911 -0.4017  0.5563  0.9144
  320MOL0     C42147   4.333   8.086  11.831 -0.8583  0.1281  0.5566
  320MOL0     C42148   4.339   8.044  11.677  0.3510  0.9341 -0.3547
  320MOL0     C42149   4.422   7.906  11.676  1.1831 -0.1724  0.1915
  320MOL0     C42150   4.408   7.844  11.534 -0.1924  0.1473 -0.0870
  320MOL0     C42151   4.470   7.705  11.541  0.6041  0.2197 -1.5912
  320MOL0    Cl42152   4.420   7.626  11.407  0.1599  0.0555  0.1808
  320MOL0     C42153   4.587   8.482  12.118  0.2686  1.4234 -0.2268
  320MOL0     C42154   4.659   8.594  12.074  0.2292 -0.1160 -1.1515
  320MOL0     O42155   4.715   8.849  12.163  0.6421 -1.4573 -0.6624
  320MOL0     C42156   4.914   9.055  12.193  0.3175 -0.5402 -0.7758
  320MOL0     C42157   4.999   9.162  12.200  0.7152  0.3001  0.1073
  320MOL0     N42158   4.784   9.732  11.825 -0.3151 -0.1284 -0.4277
  320MOL0     N42159   4.661   9.701  11.831 -0.0479  0.2216 -0.7246
  320MOL0     C42160   4.621   9.422  11.258  0.2385 -0.1718 -0.6146
  320MOL0     C42161   4.728   9.478  11.195 -0.1847  0.0363  1.0517
  320MOL0     C42162   4.958   9.778  10.895 -0.8077 -0.3619 -0.7618
  320MOL0     C42163   5.058   9.682  10.899  0.3233  0.5373 -0.1339
  320MOL0     C42164   5.177   9.703  10.831 -0.4668  0.0663 -0.4251
  320MOL0     C42165   5.211   9.819  10.768 -0.0637 -1.4907 -0.1318
  320MOL0     O42166   5.334   9.820  10.707 -0.3006  0.1971  0.0816
  320MOL0     C42167   5.388   9.926  10.623  0.6865  0.0471 -0.5918
  320MOL0     C42168   5.529   9.885  10.573  0.0010  0.3817 -0.0312
  320MOL0     C42169   5.589   9.993  10.497 -0.5957  0.0332  0.1011
  320MOL0     C42170   5.555   9.987  10.352  0.6806  0.2271  0.7363
  320MOL0     C42171   5.658  10.054  10.276 -0.6080  0.6702 -0.0575
  320MOL0     C42172   5.754  10.103  10.211 -0.1416  0.1933 -0.7716
  320MOL0     C42173   5.115   9.924  10.774  0.2159  0.0230  0.3798
  320MOL0     C42174   4.987   9.906  10.834  0.1403  0.5761 -0.2282
  320MOL0     H42175   4.572   9.762  11.091  0.3046 -1.3445 -0.7939
  320MOL0     H42176   4.406   9.673  11.228  0.8783  0.7544 -0.3690
  320MOL0     H42177   4.259   9.518  11.327  0.2284  2.3409  1.2199
  320MOL0     H42178   4.338   9.602  11.457 -4.1453  1.2237 -0.2257
  320MOL0     H42179   4.230   9.331  11.500  0.6123  1.9465 -2.2693
  320MOL0     H42180   4.152   9.495  11.534  0.8451  1.7810  0.6109
  320MOL0     H42181   4.368   9.533  11.677  1.7499 -0.3535  1.7909
  320MOL0     H42182   4.417   9.371  11.652 -0.8348 -0.9939  2.2961
  320MOL0     H42183   4.150   9.442  11.794 -1.0855 -3.1131  1.2616
  320MOL0     H42184   4.188   9.287  11.740  0.7831  0.1776 -3.0970
  320MOL0     H42185   4.350   9.230  11.870 -0.2202 -1.3732  3.6360
  320MOL0     H42186   4.246   9.329  11.973 -1.8475  0.6557 -0.8195
  320MOL0     H42187   4.506   9.420  11.842 -2.5460 -1.7617 -0.7269
  320MOL0     H42188   4.478   9.364  12.011  0.4950 -2.8450 -1.5542
  320MOL0     H42189   4.374   9.621  11.875 -1.0580  3.7390  2.0606
  320MOL0     H42190   4.314   9.567  12.031  1.0186 -1.5740  0.6877
  320MOL0     H42191   4.542   9.614  12.132  2.5214  1.0721  0.1560
  320MOL0     H42192   4.495   9.756  12.047  1.4763 -0.5628  2.5764
  320MOL0     H42193   4.773   9.602  12.114  0.9014 -1.9605 -0.6514
  320MOL0     H42194   5.002   9.752  12.065 -1.7721  0.1806 -0.2377
  320MOL0     H42195   5.044   9.783  11.899  1.7572 -2.3199 -0.7379
  320MOL0     H42196   5.185   9.612  11.890  0.3275  3.5838  0.2281
  320MOL0     H42197   5.044   9.528  11.854 -0.3553 -2.3412  2.5210
  320MOL0     H42198   5.162   9.525  12.147  1.4998 -1.2610 -1.7038
  320MOL0     H42199   5.010   9.447  12.099 -0.9212  2.7714 -1.2124
  320MOL0     H42200   5.307   9.385  12.010  0.9609 -1.4505 -1.6600
  320MOL0     H42201   5.152   9.322  11.929  1.3972 -1.4830 -0.3933
  320MOL0     H42202   5.210   9.079  11.954  0.0845  1.9647  0.6440
  320MOL0     H42203   5.053   8.880  11.938  2.9591  1.8952 -0.4054
  320MOL0     H42204   4.970   8.475  12.142 -0.5181  0.1881  0.6476
  320MOL0     H42205   4.839   8.294  12.226 -3.8438 -0.6516  1.1653
  320MOL0     H42206   4.559   8.059  12.177 -0.2875 -2.1665 -4.3840
  320MOL0     H42207   4.660   8.144  12.075  0.3690  0.1222  0.3432
  320MOL0     H42208   4.446   8.285  11.997  1.5954  0.3562 -0.1253
  320MOL0     H42209   4.371   8.162  12.092 -0.1100  3.8044  0.8250
  320MOL0     H42210   4.473   7.981  11.954  0.5225  0.4659  0.4094
  320MOL0     H42211   4.546   8.100  11.848 -1.2958  0.2573 -0.4368
  320MOL0     H42212   4.269   8.017  11.887 -0.5185 -1.4287 -0.8892
  320MOL0     H42213   4.296   8.189  11.829  1.7927  1.1704  1.4654
  320MOL0     H42214   4.373   8.137  11.630 -0.8794  2.2442  1.2087
  320MOL0     H42215   4.235   8.030  11.644  1.3396 -3.9892 -2.1819
  320MOL0     H42216   4.380   7.838  11.750  2.7871 -1.3660  0.0699
  320MOL0     H42217   4.524   7.931  11.705  1.4050 -2.8114  2.0438
  320MOL0     H42218   4.300   7.844  11.516 -0.3837  2.8487  0.6076
  320MOL0     H42219   4.433   7.905  11.446 -1.0936 -1.5240 -1.5666
  320MOL0     H42220   4.411   7.657  11.620  2.4086 -2.7245 -1.8956
  320MOL0     H42221   4.577   7.693  11.556  0.3803 -2.5840 -1.7318
  320MOL0     H42222   4.478   8.484  12.109  0.2423 -2.5593 -2.7927
  320MOL0     H42223   4.595   8.669  12.030 -0.0638  2.3317  2.8982
  320MOL0     H42224   4.825   9.052  12.255  2.0103  2.4193  2.0893
  320MOL0     H42225   4.975   9.241  12.272 -0.2692 -0.1875  0.3397
  320MOL0     H42226   4.645   9.331  11.312 -0.2508  0.3251  0.4728
  320MOL0     H42227   4.823   9.427  11.184 -1.0082 -0.9182 -5.9944
  320MOL0     H42228   5.040   9.589  10.952  1.3358 -0.4147 -1.4022
  320MOL0     H42229   5.249   9.622  10.819  1.8546  1.7309  1.4050
  320MOL0     H42230   5.392  10.023  10.674 -1.4571 -0.0241 -0.2160
  320MOL0     H42231   5.322   9.939  10.538 -1.5727  1.5414  1.2575
  320MOL0     H42232   5.584   9.860  10.665 -3.4100 -1.5776  1.6942
  320MOL0     H42233   5.518   9.795  10.512  1.7277 -0.1597  0.3950
  320MOL0     H42234   5.697   9.976  10.502  0.3447  3.5809 -3.1230
  320MOL0     H42235   5.575  10.095  10.535 -0.6884 -0.2736  0.9119
  320MOL0     H42236   5.559   9.881  10.323  0.3951  0.7814 -1.5294
  320MOL0     H42237   5.459  10.031  10.324  1.6439  1.6097 -0.6004
  320MOL0     H42238   5.828  10.138  10.142 -0.4265 -0.2228 -1.2949
  320MOL0     H42239   5.152  10.014  10.725  3.6768 -0.1396  2.3709
  320MOL0     H42240   4.907   9.979  10.835 -1.5695 -1.1628 -1.8343
  321MOL0     O42241  10.474   5.179   1.780 -0.1794 -0.5304 -0.3982
  321MOL0     C42242  10.595   5.159   1.757 -0.4923  0.6703  0.7547
  321MOL0     O42243  10.699   5.249   1.758  0.7707 -0.5329 -0.7956
  321MOL0     C42244  10.677   5.377   1.797 -0.9248 -0.3678  0.4838
  321MOL0     C42245  10.734   5.474   1.716  0.0625 -0.1575  0.2583
  321MOL0     C42246  10.724   5.611   1.748 -0.5894  0.3615  0.4748
  321MOL0     C42247  10.653   5.651   1.861  0.0243  1.3493 -0.3710
  321MOL0     O42248  10.657   5.784   1.885  0.8730 -0.6403 -0.5282
  321MOL0     C42249  10.647   5.841   2.018  0.9682 -0.4491 -0.4975
  321MOL0     C42250  10.653   5.991   2.012 -0.2647  0.1595  0.2677
  321MOL0     C42251  10.644   6.055   2.149  0.3138 -1.0749  0.4555
  321MOL0     C42252  10.634   6.214   2.134 -0.3219 -0.0670 -0.4361
  321MOL0     C42253  10.596   6.283   2.264 -0.1674 -0.4710 -0.4339
  321MOL0     C42254  10.635   6.428   2.262  0.3491 -0.1522 -0.4211
  321MOL0     C42255  10.580   6.507   2.382  0.5137  0.3830 -0.3724
  321MOL0     C42256  10.646   6.477   2.520 -0.1477  0.5639  0.0655
  321MOL0     N42257  10.789   6.499   2.514 -0.5057  0.2203 -0.0606
  321MOL0     C42258  10.838   6.625   2.533  0.1357  0.4030  0.4828
  321MOL0     C42259  10.968   6.621   2.499  0.7311  0.9572  0.5079
  321MOL0     C42260  11.090   6.711   2.516 -0.1011  0.2328  0.3565
  321MOL0     C42261  11.183   6.667   2.640  0.1647  0.5282 -0.1583
  321MOL0     C42262  11.118   6.646   2.781 -0.4195 -0.3188  0.5837
  321MOL0     C42263  11.209   6.561   2.868  0.5374 -0.3418 -0.2220
  321MOL0     O42264  11.195   6.411   2.856 -0.3026 -0.4527 -0.6125
  321MOL0     C42265  11.256   6.327   2.957  0.1613  0.9391 -0.4265
  321MOL0     C42266  11.363   6.368   3.040 -0.5818 -0.5192 -0.3474
  321MOL0     C42267  11.433   6.284   3.126 -0.8126 -0.4587 -0.4230
  321MOL0     C42268  11.398   6.145   3.137  0.5011 -0.7916 -0.7467
  321MOL0     C42269  11.468   6.065   3.235  0.1054  1.4540  0.3907
  321MOL0     O42270  11.468   5.924   3.219 -0.3726 -0.3712 -0.3080
  321MOL0     C42271  11.550   5.840   3.292 -0.8164 -1.0294 -0.8766
  321MOL0     C42272  11.559   5.875   3.431  0.3734  0.5700 -0.5671
  321MOL0     C42273  11.642   5.795   3.512  0.4629 -0.8568  0.8817
  321MOL0     C42274  11.719   5.688   3.457 -0.0515 -0.1790  0.3077
  321MOL0     O42275  11.800   5.597   3.527  0.1665 -0.7350  0.4695
  321MOL0     C42276  11.781   5.576   3.661 -0.2174  0.0895 -0.2827
  321MOL0     C42277  11.874   5.450   3.681 -0.3071 -0.4125 -0.1192
  321MOL0     C42278  11.852   5.375   3.809 -0.5259 -0.2465 -0.9191
  321MOL0     C42279  11.981   5.286   3.824 -0.0855 -0.2642  0.0211
  321MOL0     C42280  11.971   5.198   3.937 -0.3449 -0.1534  0.4955
  321MOL0     C42281  12.077   5.095   3.964  0.3188  0.1454 -0.5090
  321MOL0     C42282  12.019   4.985   4.059 -0.3844 -0.2334 -0.3826
  321MOL0     C42283  12.012   5.047   4.207 -0.5639 -0.8405  0.5882
  321MOL0    Cl42284  12.166   5.027   4.294 -0.0055 -0.0978  0.0366
  321MOL0     C42285  11.704   5.658   3.322 -0.7795 -0.1323 -0.9178
  321MOL0     C42286  11.622   5.735   3.243 -0.5654 -0.6688 -0.4176
  321MOL0     O42287  11.546   6.125   3.319  0.2259 -0.3939  0.1633
  321MOL0     C42288  11.296   6.101   3.049  0.2682  0.4429 -0.2698
  321MOL0     C42289  11.225   6.191   2.973  0.2573 -0.2640  0.9945
  321MOL0     N42290  10.992   6.489   2.474 -0.0992  0.0641 -0.5086
  321MOL0     N42291  10.894   6.419   2.486 -0.6106  0.2397 -0.2778
  321MOL0     C42292  10.600   5.555   1.947 -0.0825 -0.0952 -0.7872
  321MOL0     C42293  10.611   5.423   1.915 -0.4137  0.1615  0.1360
  321MOL0     C42294  10.624   5.006   1.765 -0.9223 -0.4389  0.1471
  321MOL0     C42295  10.515   4.910   1.731 -0.2934  0.2692  0.8037
  321MOL0     C42296  10.538   4.776   1.730  1.2329  0.1039  0.3502
  321MOL0     C42297  10.668   4.723   1.754  0.0313  0.0277 -0.0705
  321MOL0     O42298  10.666   4.580   1.758  0.0176  0.1826 -1.4818
  321MOL0     C42299  10.646   4.518   1.889  0.0848 -0.4064 -0.7412
  321MOL0     C42300  10.758   4.546   1.994  0.2918 -0.2101 -0.8440
  321MOL0     C42301  10.891   4.499   1.940 -0.3909  0.0152 -1.5591
  321MOL0     C42302  11.016   4.541   2.030  0.2387 -0.5552 -0.3802
  321MOL0     C42303  11.047   4.680   2.023 -0.0395 -0.1252 -0.6334
  321MOL0     C42304  11.053   4.808   2.027 -0.1918 -0.5461  0.0054
  321MOL0     C42305  10.771   4.811   1.783 -0.0222 -0.3995 -0.1714
  321MOL0     C42306  10.751   4.950   1.785  0.4137  0.4143 -0.1830
  321MOL0     H42307  10.797   5.446   1.633  2.5957 -0.0530  2.0216
  321MOL0     H42308  10.755   5.688   1.678  0.6525  0.5713  1.2166
  321MOL0     H42309  10.722   5.797   2.084  0.8585 -0.6459 -0.5005
  321MOL0     H42310  10.550   5.813   2.062  2.6273 -3.5589  1.5931
  321MOL0     H42311  10.573   6.030   1.948 -0.4305 -3.1655 -1.8027
  321MOL0     H42312  10.747   6.006   1.958 -0.1262 -1.7833 -0.1231
  321MOL0     H42313  10.732   6.025   2.208  0.2945 -4.3482 -0.9638
  321MOL0     H42314  10.562   6.007   2.203  0.7272 -0.0343  2.0615
  321MOL0     H42315  10.735   6.238   2.102  0.4657 -1.8801  0.5462
  321MOL0     H42316  10.562   6.246   2.058  1.7775 -2.4450 -3.6889
  321MOL0     H42317  10.646   6.247   2.354 -0.8723  2.9310  1.5138
  321MOL0     H42318  10.487   6.281   2.264 -0.3226  2.5437  0.6894
  321MOL0     H42319  10.588   6.471   2.173 -1.7519 -0.4777  0.4828
  321MOL0     H42320  10.744   6.438   2.257  0.4005 -0.3752  0.2462
  321MOL0     H42321  10.600   6.609   2.347  0.5816  0.0944 -1.1821
  321MOL0     H42322  10.474   6.482   2.393  0.7671 -1.4295 -1.7469
  321MOL0     H42323  10.632   6.369   2.532 -2.8772  0.3029 -3.5547
  321MOL0     H42324  10.600   6.534   2.601 -0.5170  2.9157 -1.7197
  321MOL0     H42325  10.787   6.699   2.594 -1.4605 -1.3736  1.4053
  321MOL0     H42326  11.056   6.812   2.541  1.3208  1.2503 -1.5478
  321MOL0     H42327  11.145   6.725   2.423 -2.0931  0.4166 -0.8388
  321MOL0     H42328  11.255   6.749   2.645 -0.8214  1.8339 -3.9940
  321MOL0     H42329  11.238   6.579   2.605  2.1339  0.9329  1.7116
  321MOL0     H42330  11.090   6.742   2.826  2.3895  1.1093 -0.5200
  321MOL0     H42331  11.020   6.599   2.767  0.1261 -1.6180  0.9910
  321MOL0     H42332  11.178   6.592   2.969 -0.4813  2.3276 -1.2666
  321MOL0     H42333  11.314   6.590   2.869  0.0795  1.4462 -0.7730
  321MOL0     H42334  11.407   6.467   3.035 -0.9156 -0.3068  0.7780
  321MOL0     H42335  11.517   6.324   3.182 -2.5216  0.9556  1.2615
  321MOL0     H42336  11.513   5.966   3.467  2.4584  2.4590 -2.3726
  321MOL0     H42337  11.653   5.820   3.617  2.5664  2.7904 -0.0300
  321MOL0     H42338  11.677   5.557   3.688 -0.3076 -3.0257 -2.3399
  321MOL0     H42339  11.810   5.664   3.720 -1.0667  0.4648 -0.4132
  321MOL0     H42340  11.972   5.499   3.674 -0.1845 -0.7493 -0.8321
  321MOL0     H42341  11.866   5.378   3.598  0.2514 -1.3881  0.6458
  321MOL0     H42342  11.760   5.316   3.800  0.1964 -1.8307  1.3106
  321MOL0     H42343  11.845   5.437   3.899 -1.1901 -0.1323 -1.0391
  321MOL0     H42344  11.980   5.209   3.746  0.6621 -1.4751  1.1699
  321MOL0     H42345  12.077   5.337   3.812 -0.8218  0.8089 -1.6104
  321MOL0     H42346  11.881   5.139   3.916  1.4661 -2.2194 -2.1386
  321MOL0     H42347  11.959   5.254   4.031  0.0360 -1.3901  1.3178
  321MOL0     H42348  12.169   5.132   4.009 -1.2745  3.2651  0.4219
  321MOL0     H42349  12.091   5.053   3.864 -2.4917  0.7291 -1.2429
  321MOL0     H42350  11.929   4.952   4.005  0.8043 -0.4712 -2.2979
  321MOL0     H42351  12.081   4.895   4.059 -2.9142 -2.0934 -1.3403
  321MOL0     H42352  11.937   4.985   4.257  0.7168 -1.6960  1.5226
  321MOL0     H42353  11.981   5.152   4.200  0.9546 -0.4630 -1.8195
  321MOL0     H42354  11.761   5.576   3.279 -1.3905 -1.2905  0.4089
  321MOL0     H42355  11.606   5.726   3.136  1.7927 -3.4618 -0.6456
  321MOL0     H42356  11.250   6.004   3.040  0.7157  0.1881  0.1444
  321MOL0     H42357  11.138   6.158   2.918  2.2475  1.0899 -3.5224
  321MOL0     H42358  10.548   5.592   2.035  0.8053  2.3215 -1.1900
  321MOL0     H42359  10.563   5.358   1.987 -2.4995  0.7137 -0.6647
  321MOL0     H42360  10.414   4.946   1.712  0.4394  0.9877 -2.2892
  321MOL0     H42361  10.455   4.712   1.704  3.4704 -2.7610 -0.2088
  321MOL0     H42362  10.641   4.410   1.872 -1.9024  0.0408 -4.0464
  321MOL0     H42363  10.546   4.545   1.926  0.5884  2.5270 -1.3017
  321MOL0     H42364  10.778   4.653   2.008  2.1848 -0.7038  0.5057
  321MOL0     H42365  10.735   4.503   2.091 -1.7276  1.0917 -0.6778
  321MOL0     H42366  10.902   4.539   1.838  0.2624 -3.0390 -2.7864
  321MOL0     H42367  10.881   4.391   1.934 -0.7566 -0.1134  0.5720
  321MOL0     H42368  10.986   4.523   2.134 -4.1199 -0.1426 -1.4032
  321MOL0     H42369  11.107   4.481   2.014 -0.1878 -2.0140  2.1082
  321MOL0     H42370  11.072   4.913   2.017 -0.1350 -0.2630  2.4748
  321MOL0     H42371  10.872   4.778   1.807 -0.0180  0.5817  1.3695
  321MOL0     H42372  10.843   5.007   1.789  2.3564 -2.5633  0.9717
  322MOL0     O42373   1.257   7.130   1.896 -0.3452 -1.0764 -0.5179
  322MOL0     C42374   1.199   7.040   1.835 -0.7188  0.0903  0.0130
  322MOL0     O42375   1.243   6.970   1.732  0.1220  0.2692 -0.2405
  322MOL0     C42376   1.345   7.022   1.653 -0.4995 -0.2558 -0.1924
  322MOL0     C42377   1.472   7.035   1.713  0.0491  0.9357  0.4225
  322MOL0     C42378   1.572   7.108   1.637 -0.8153 -0.8972 -0.0944
  322MOL0     C42379   1.542   7.162   1.508  0.4282  0.0562  0.0428
  322MOL0     O42380   1.627   7.234   1.427 -0.3944  0.3662  0.9438
  322MOL0     C42381   1.756   7.282   1.465 -0.4710  0.3933  0.2695
  322MOL0     C42382   1.801   7.362   1.345 -0.1466  0.4382  0.0317
  322MOL0     C42383   1.930   7.425   1.396  0.0854  0.8516  0.0547
  322MOL0     C42384   2.005   7.477   1.263 -0.1683 -0.6474  0.7068
  322MOL0     C42385   1.933   7.599   1.204 -0.6875 -0.2460 -0.0967
  322MOL0     C42386   2.007   7.630   1.073 -0.5839  0.0236  0.2364
  322MOL0     C42387   1.983   7.537   0.957  0.4270  0.4344 -0.9626
  322MOL0     C42388   2.066   7.578   0.839  0.4293 -0.1043 -0.0847
  322MOL0     N42389   2.060   7.486   0.730 -0.6007 -0.0964 -0.1488
  322MOL0     C42390   2.026   7.515   0.602 -0.4310 -0.7462  0.8176
  322MOL0     C42391   2.018   7.392   0.542 -0.5200 -0.1964  0.5875
  322MOL0     C42392   1.981   7.387   0.397  0.5316  0.1772 -1.2588
  322MOL0     C42393   1.829   7.419   0.362 -0.2622  0.5985  0.6860
  322MOL0     C42394   1.722   7.320   0.422 -0.2017 -0.0437  0.0527
  322MOL0     C42395   1.740   7.171   0.385  0.9328 -0.4107 -0.0964
  322MOL0     O42396   1.744   7.152   0.246  0.1273 -0.6051  0.8631
  322MOL0     C42397   1.771   7.028   0.194  0.8016  0.8007  0.0681
  322MOL0     C42398   1.806   7.029   0.060  0.0870  0.3635 -0.2116
  322MOL0     C42399   1.824   6.907  -0.013  1.4428  0.6570 -0.1165
  322MOL0     C42400   1.823   6.782   0.059  0.0026  0.0222 -0.6511
  322MOL0     C42401   1.855   6.662  -0.020  0.3781  0.6415  0.0117
  322MOL0     O42402   1.817   6.666  -0.154  0.2108  0.5510  0.1041
  322MOL0     C42403   1.821   6.546  -0.227  0.0797 -0.4639 -0.6823
  322MOL0     C42404   1.923   6.447  -0.209  0.5340  0.7444  0.3432
  322MOL0     C42405   1.924   6.326  -0.274  0.5693  0.6073 -0.3522
  322MOL0     C42406   1.833   6.306  -0.385 -0.5970 -0.5417  0.3364
  322MOL0     O42407   1.853   6.191  -0.466  0.0971  0.7641  0.4402
  322MOL0     C42408   1.780   6.182  -0.591  1.1381 -0.2236  0.0548
  322MOL0     C42409   1.813   6.059  -0.685 -0.0954 -0.3399 -0.8654
  322MOL0     C42410   1.953   6.065  -0.749 -0.0996  0.8670  0.0060
  322MOL0     C42411   1.972   5.950  -0.852 -0.5291 -0.2775  0.3721
  322MOL0     C42412   2.108   5.949  -0.932 -0.3060  0.4638  0.1708
  322MOL0     C42413   2.138   5.808  -0.986  0.6970 -0.3801 -0.4803
  322MOL0     C42414   2.242   5.821  -1.097  1.1834  0.8259  0.0151
  322MOL0     C42415   2.372   5.873  -1.031  0.2377  0.2855 -0.0845
  322MOL0    Cl42416   2.502   5.869  -1.163 -0.1464 -0.0379 -0.4095
  322MOL0     C42417   1.734   6.402  -0.411 -0.5262  0.3556 -0.3615
  322MOL0     C42418   1.729   6.521  -0.337 -0.0896  0.6748 -0.2249
  322MOL0     O42419   1.896   6.558   0.036  0.2385 -0.7852  0.1980
  322MOL0     C42420   1.792   6.784   0.196 -0.0573  0.5743  0.0245
  322MOL0     C42421   1.780   6.905   0.263  0.8721 -0.3060 -0.3393
  322MOL0     N42422   2.060   7.297   0.620  0.5199  0.7978  0.1886
  322MOL0     N42423   2.086   7.356   0.741 -0.5289 -0.0414 -0.2742
  322MOL0     C42424   1.419   7.135   1.455 -0.4500  0.4735  0.0350
  322MOL0     C42425   1.316   7.072   1.523 -0.3834  0.9459 -1.0137
  322MOL0     C42426   1.076   6.997   1.894  0.1053  0.0417 -0.2648
  322MOL0     C42427   1.024   6.879   1.855  0.9591  0.4349  0.9026
  322MOL0     C42428   0.913   6.821   1.917 -1.2427  0.8662 -0.6608
  322MOL0     C42429   0.842   6.879   2.016  0.3632  0.4555  0.1515
  322MOL0     O42430   0.734   6.823   2.081 -0.2184  0.3703 -0.7685
  322MOL0     C42431   0.635   6.745   2.007 -1.1753  0.0580  1.1424
  322MOL0     C42432   0.591   6.813   1.877  0.2068 -0.2497  0.6913
  322MOL0     C42433   0.519   6.707   1.797 -0.1084 -0.2372  0.0706
  322MOL0     C42434   0.360   6.739   1.816 -0.3923  0.3352 -0.2785
  322MOL0     C42435   0.319   6.860   1.739 -0.3075 -0.1903 -0.6885
  322MOL0     C42436   0.288   6.969   1.702  0.4879  0.5593  0.6696
  322MOL0     C42437   0.890   7.001   2.067 -0.0504  0.4803 -0.2579
  322MOL0     C42438   1.002   7.063   2.006 -0.4345 -0.0143  0.0180
  322MOL0     H42439   1.495   6.991   1.810 -0.6199 -1.0103 -0.2419
  322MOL0     H42440   1.666   7.118   1.689 -1.7712 -1.3326  1.8404
  322MOL0     H42441   1.822   7.197   1.482 -0.9695 -0.2908 -1.1035
  322MOL0     H42442   1.760   7.343   1.556  0.1743  1.1675 -0.2611
  322MOL0     H42443   1.735   7.448   1.331  0.3232  1.1654  1.9298
  322MOL0     H42444   1.821   7.314   1.249 -1.2024 -0.0189  0.0237
  322MOL0     H42445   1.991   7.347   1.441 -2.2825 -1.0152  0.2326
  322MOL0     H42446   1.903   7.501   1.471  1.3901 -0.8346  2.3526
  322MOL0     H42447   2.110   7.491   1.291 -0.1494 -0.9556  0.8005
  322MOL0     H42448   2.003   7.395   1.191  2.2470 -0.3145  0.1772
  322MOL0     H42449   1.943   7.678   1.278  2.9440 -1.2654  0.7174
  322MOL0     H42450   1.830   7.573   1.176  0.0553 -2.5841 -0.9031
  322MOL0     H42451   2.116   7.633   1.088 -0.3551  1.2810 -1.4229
  322MOL0     H42452   1.974   7.731   1.049 -0.2944  0.0003 -0.2748
  322MOL0     H42453   2.019   7.437   0.981  0.0755 -0.4529 -3.7817
  322MOL0     H42454   1.875   7.535   0.941  0.2991  2.0946 -0.5540
  322MOL0     H42455   2.172   7.577   0.868  0.7457 -0.5421 -1.1998
  322MOL0     H42456   2.041   7.682   0.816  1.5843  0.5140  1.2715
  322MOL0     H42457   2.006   7.607   0.548  0.6550 -0.2766  1.1873
  322MOL0     H42458   2.011   7.293   0.351  0.0990 -0.8026  0.3760
  322MOL0     H42459   2.041   7.461   0.343  2.0031 -0.5795 -0.7167
  322MOL0     H42460   1.819   7.406   0.254  1.3606  1.5265  0.3925
  322MOL0     H42461   1.799   7.524   0.375  4.2630  2.5923 -2.3206
  322MOL0     H42462   1.732   7.346   0.528 -0.5297  1.7532 -0.3323
  322MOL0     H42463   1.624   7.345   0.381  0.4993  0.7892 -1.1786
  322MOL0     H42464   1.660   7.111   0.430  3.5402 -1.8042  3.0500
  322MOL0     H42465   1.835   7.145   0.432  0.5221 -0.6526  0.6047
  322MOL0     H42466   1.817   7.127   0.014  5.9705  0.0998 -0.0793
  322MOL0     H42467   1.849   6.917  -0.119  1.6418  2.1371  0.0477
  322MOL0     H42468   2.005   6.466  -0.140 -0.7811 -2.5520  3.1003
  322MOL0     H42469   1.994   6.250  -0.241 -1.6615 -0.0462  3.6520
  322MOL0     H42470   1.773   6.278  -0.643 -1.2905 -1.2429 -1.6885
  322MOL0     H42471   1.672   6.176  -0.573  1.1630  1.6020  1.0838
  322MOL0     H42472   1.743   6.044  -0.768  3.1477 -2.7379 -3.4373
  322MOL0     H42473   1.824   5.970  -0.623  1.9251 -0.4373 -1.3043
  322MOL0     H42474   2.040   6.061  -0.682 -0.3961  1.6024  0.4444
  322MOL0     H42475   1.955   6.163  -0.798  1.7629  1.4987  1.2013
  322MOL0     H42476   1.949   5.855  -0.803 -1.0290 -0.5116 -0.2904
  322MOL0     H42477   1.898   5.967  -0.931  2.8887 -0.9885 -3.2975
  322MOL0     H42478   2.179   5.978  -0.854 -1.6319 -1.4382  2.2267
  322MOL0     H42479   2.097   6.031  -1.003 -1.4327  1.5682  1.5708
  322MOL0     H42480   2.050   5.751  -1.018  0.1601 -1.5034  2.6751
  322MOL0     H42481   2.180   5.746  -0.907 -0.2632 -2.3439 -1.4435
  322MOL0     H42482   2.255   5.722  -1.141 -2.7638  0.7405 -1.3628
  322MOL0     H42483   2.215   5.885  -1.182 -2.2177  0.7029  0.8438
  322MOL0     H42484   2.397   5.801  -0.953 -2.6845 -0.8191 -0.0396
  322MOL0     H42485   2.374   5.973  -0.987  3.0111  0.4441 -0.3911
  322MOL0     H42486   1.650   6.373  -0.472  0.1682  0.8004 -1.5677
  322MOL0     H42487   1.661   6.603  -0.356  0.8906  1.3313 -1.0102
  322MOL0     H42488   1.812   6.685   0.235  1.1112  0.0593 -1.7725
  322MOL0     H42489   1.798   6.913   0.369 -1.0235  2.5105 -0.1355
  322MOL0     H42490   1.400   7.179   1.358  1.2068  2.8254  0.6885
  322MOL0     H42491   1.215   7.061   1.483  0.2432 -2.2445 -2.0672
  322MOL0     H42492   1.062   6.819   1.773 -2.3135  0.1810 -0.5914
  322MOL0     H42493   0.880   6.727   1.875 -0.5707  1.4554 -2.6178
  322MOL0     H42494   0.545   6.739   2.070 -1.7506 -0.5593  0.2790
  322MOL0     H42495   0.672   6.644   1.988  0.1892  1.0454 -2.0849
  322MOL0     H42496   0.529   6.900   1.897  2.1637  0.7493  2.8565
  322MOL0     H42497   0.674   6.842   1.811 -2.2284  5.5846 -0.3757
  322MOL0     H42498   0.549   6.608   1.832 -1.2710  0.2066  2.5440
  322MOL0     H42499   0.548   6.713   1.692  2.0433  1.3550  0.6741
  322MOL0     H42500   0.301   6.662   1.766  1.2093 -1.3334  0.2928
  322MOL0     H42501   0.329   6.746   1.920 -0.3250 -0.4376 -0.2023
  322MOL0     H42502   0.271   7.074   1.686 -0.5321  0.1466 -1.3135
  322MOL0     H42503   0.833   7.050   2.145 -0.8265 -0.9342  0.0999
  322MOL0     H42504   1.057   7.149   2.043  3.8608 -3.3156  2.2478
  323MOL0     O42505   4.218  10.786   9.519 -0.5731  0.0745 -0.4296
  323MOL0     C42506   4.332  10.749   9.511  0.1187  0.5573 -0.1258
  323MOL0     O42507   4.398  10.695   9.616  0.6490 -0.6505 -0.5710
  323MOL0     C42508   4.338  10.679   9.742 -0.4888 -0.9805  0.2034
  323MOL0     C42509   4.384  10.567   9.816  0.3534  0.4306 -0.6147
  323MOL0     C42510   4.321  10.527   9.937 -0.3389  0.0521 -1.1844
  323MOL0     C42511   4.225  10.604   9.996  0.1849  0.1005  0.0089
  323MOL0     O42512   4.163  10.537  10.101  0.2098  0.3499 -0.6080
  323MOL0     C42513   4.045  10.596  10.150 -0.1244  1.2129 -0.5890
  323MOL0     C42514   4.025  10.524  10.279  0.3073  1.3970 -0.6245
  323MOL0     C42515   4.130  10.537  10.386  0.1821 -1.0401  0.3417
  323MOL0     C42516   4.119  10.679  10.462 -0.4195 -0.7285  0.2366
  323MOL0     C42517   4.181  10.691  10.607 -0.6376  0.8015 -0.0814
  323MOL0     C42518   4.081  10.654  10.708  0.2055  0.9099  0.9913
  323MOL0     C42519   4.135  10.625  10.840 -0.4694  0.8214 -0.0701
  323MOL0     C42520   4.038  10.521  10.908 -0.6754  0.7410 -0.0215
  323MOL0     N42521   4.081  10.477  11.041 -0.4953  0.9101  0.4640
  323MOL0     C42522   4.156  10.543  11.131  0.3071 -0.5637  0.8509
  323MOL0     C42523   4.155  10.460  11.241  0.5148 -0.2978  0.1142
  323MOL0     C42524   4.229  10.502  11.370  0.1993 -0.1896 -0.1423
  323MOL0     C42525   4.367  10.435  11.383 -0.1955 -0.1213  0.0292
  323MOL0     C42526   4.461  10.447  11.256 -0.2049  0.0406  0.4291
  323MOL0     C42527   4.534  10.580  11.246  0.3130  0.3108 -0.2126
  323MOL0     O42528   4.663  10.573  11.194  0.2773  0.1418  0.4281
  323MOL0     C42529   4.671  10.587  11.051 -0.2859 -0.2224 -0.3047
  323MOL0     C42530   4.794  10.624  10.993 -0.0363 -0.1804  0.2878
  323MOL0     C42531   4.811  10.657  10.866 -0.0326 -0.6783 -0.8385
  323MOL0     C42532   4.703  10.674  10.784 -0.7146 -0.5195 -0.3593
  323MOL0     C42533   4.715  10.706  10.644 -0.4744 -0.1194  0.6749
  323MOL0     O42534   4.600  10.732  10.574 -0.0361  0.6318  0.2790
  323MOL0     C42535   4.607  10.768  10.446  0.3286  0.3478  1.5909
  323MOL0     C42536   4.701  10.868  10.398 -0.3800 -0.1861  0.7019
  323MOL0     C42537   4.717  10.890  10.263 -0.1123  0.1505 -0.0570
  323MOL0     C42538   4.631  10.825  10.171  0.5835 -0.3307  0.4038
  323MOL0     O42539   4.659  10.842  10.039 -0.1326 -0.1790 -0.0610
  323MOL0     C42540   4.640  10.977   9.989 -0.4821  0.8545 -0.6593
  323MOL0     C42541   4.695  10.945   9.853 -0.0456  0.3664  0.2169
  323MOL0     C42542   4.656  11.069   9.762 -0.6254  0.3123  0.1431
  323MOL0     C42543   4.751  11.068   9.631 -0.3055 -1.0093 -0.1986
  323MOL0     C42544   4.690  11.152   9.512 -0.8458  0.7914 -1.4714
  323MOL0     C42545   4.796  11.169   9.398 -0.8708  0.5492  0.3005
  323MOL0     C42546   4.742  11.252   9.288 -0.7865 -0.3767  0.0760
  323MOL0     C42547   4.614  11.209   9.212  0.4711  0.3204 -0.4839
  323MOL0    Cl42548   4.612  11.293   9.056  0.4650 -0.8885  0.4881
  323MOL0     C42549   4.527  10.742  10.218 -0.5591 -0.7401  0.3425
  323MOL0     C42550   4.514  10.714  10.353 -0.3767  1.2559  0.3277
  323MOL0     O42551   4.832  10.722  10.601  0.3134  0.3963 -0.1857
  323MOL0     C42552   4.568  10.639  10.837 -0.4068  0.0288  0.6970
  323MOL0     C42553   4.564  10.591  10.966  0.9492  1.1087  0.0413
  323MOL0     N42554   4.080  10.349  11.221 -0.2715  0.7240  1.0612
  323MOL0     N42555   4.032  10.363  11.103  0.6163  0.1004  1.0906
  323MOL0     C42556   4.179  10.727   9.938  0.8221 -0.1384  0.1610
  323MOL0     C42557   4.244  10.764   9.811  0.6343 -0.3492  0.8201
  323MOL0     C42558   4.412  10.771   9.386 -0.1549 -0.3581 -0.0830
  323MOL0     C42559   4.348  10.793   9.269  0.2122  0.4278 -0.5727
  323MOL0     C42560   4.415  10.831   9.162 -0.0031  0.1964 -0.9224
  323MOL0     C42561   4.561  10.848   9.164 -0.2753  0.5798  0.5042
  323MOL0     O42562   4.640  10.907   9.065  0.2364  0.1679 -0.6238
  323MOL0     C42563   4.565  10.951   8.945 -0.0958  0.9904  0.6482
  323MOL0     C42564   4.674  10.989   8.840  0.1891 -0.3039 -1.1848
  323MOL0     C42565   4.623  11.013   8.696 -0.1943 -0.9263  0.4620
  323MOL0     C42566   4.592  11.165   8.658 -0.5084  0.5711  0.1747
  323MOL0     C42567   4.460  11.207   8.719 -0.0780 -0.0328  0.4357
  323MOL0     C42568   4.366  11.265   8.771 -0.6220 -0.5736  1.0683
  323MOL0     C42569   4.627  10.816   9.280  0.1721  0.0000  0.0100
  323MOL0     C42570   4.554  10.769   9.392  0.5466 -1.2507 -0.8779
  323MOL0     H42571   4.458  10.499   9.775 -2.2141 -2.6803 -0.4402
  323MOL0     H42572   4.360  10.440   9.988 -1.2265  0.3756  0.0988
  323MOL0     H42573   3.968  10.557  10.083  1.5925 -2.7364 -0.5265
  323MOL0     H42574   4.043  10.705  10.164  1.2413  1.6222 -3.0682
  323MOL0     H42575   4.017  10.416  10.263 -1.8196  1.5267 -0.7469
  323MOL0     H42576   3.932  10.569  10.316  1.7517  1.7898  2.8859
  323MOL0     H42577   4.225  10.530  10.332 -0.6295  2.3359 -1.8250
  323MOL0     H42578   4.125  10.456  10.459  0.9416 -2.2738 -0.9309
  323MOL0     H42579   4.175  10.753  10.405 -1.8610  1.0981  1.1088
  323MOL0     H42580   4.016  10.714  10.454  1.1113  3.9511 -3.3089
  323MOL0     H42581   4.215  10.794  10.622  3.7789  0.1382 -3.3876
  323MOL0     H42582   4.273  10.632  10.617 -1.1592 -0.4751 -2.2753
  323MOL0     H42583   4.037  10.566  10.660 -2.6611  1.8543  1.6969
  323MOL0     H42584   4.010  10.736  10.718  0.4807  1.0102  2.3600
  323MOL0     H42585   4.227  10.566  10.834 -1.1884 -0.2905 -0.5617
  323MOL0     H42586   4.144  10.717  10.898  2.2194  0.2489  0.5636
  323MOL0     H42587   4.019  10.430  10.851 -0.9868  1.5025 -1.1541
  323MOL0     H42588   3.943  10.573  10.924 -1.4380 -0.4688 -0.5324
  323MOL0     H42589   4.202  10.640  11.149  0.3558 -1.0861  4.1333
  323MOL0     H42590   4.182  10.484  11.467 -0.5923  1.9853 -0.0640
  323MOL0     H42591   4.249  10.610  11.365  1.5790 -0.4747 -2.8710
  323MOL0     H42592   4.357  10.327  11.399  6.7692 -1.1208  0.3411
  323MOL0     H42593   4.428  10.468  11.467  1.0623  1.4317 -1.4554
  323MOL0     H42594   4.536  10.368  11.270 -1.1117 -0.7782  0.8277
  323MOL0     H42595   4.412  10.425  11.161  1.6899 -0.1482 -0.5428
  323MOL0     H42596   4.568  10.599  11.348  1.2439 -3.3311  0.2916
  323MOL0     H42597   4.470  10.664  11.217  0.3636  0.1287 -0.8575
  323MOL0     H42598   4.877  10.644  11.060 -0.6935  2.2910  0.4596
  323MOL0     H42599   4.912  10.680  10.835 -0.9676  0.2120 -3.4777
  323MOL0     H42600   4.773  10.917  10.464  3.5045 -3.3043 -0.8200
  323MOL0     H42601   4.801  10.946  10.224  2.0844 -1.9943  1.3246
  323MOL0     H42602   4.715  11.037  10.040  1.8791 -2.8922  0.7410
  323MOL0     H42603   4.539  11.015   9.974 -2.0377 -1.9607  1.6213
  323MOL0     H42604   4.659  10.851   9.808  1.6604  0.9186 -2.5450
  323MOL0     H42605   4.804  10.936   9.851 -0.0583  0.0779 -2.0661
  323MOL0     H42606   4.665  11.164   9.816  0.3301 -0.1065  0.7486
  323MOL0     H42607   4.549  11.061   9.738 -0.6389  0.2880  0.2123
  323MOL0     H42608   4.842  11.116   9.668 -0.0072 -2.8292  1.5741
  323MOL0     H42609   4.783  10.967   9.604  1.4287 -0.1356 -1.6853
  323MOL0     H42610   4.663  11.246   9.560  0.9292  1.2808 -1.3769
  323MOL0     H42611   4.604  11.100   9.469 -0.9387 -0.5433  0.2468
  323MOL0     H42612   4.828  11.070   9.363 -0.0233 -0.4762  3.6290
  323MOL0     H42613   4.893  11.199   9.438  0.7994 -2.6245 -0.9385
  323MOL0     H42614   4.716  11.350   9.328 -1.5758 -0.5681  0.0632
  323MOL0     H42615   4.813  11.256   9.206  0.0542  2.1939  0.8293
  323MOL0     H42616   4.525  11.213   9.276  1.5085 -0.3037  1.0720
  323MOL0     H42617   4.619  11.105   9.177  1.8321  0.5207 -0.9348
  323MOL0     H42618   4.463  10.696  10.143 -0.7093  0.6380 -0.4094
  323MOL0     H42619   4.442  10.642  10.389  2.4155 -1.9120  0.0958
  323MOL0     H42620   4.480  10.655  10.776  0.4013  2.9441  0.1472
  323MOL0     H42621   4.465  10.566  11.002  0.7139  1.5138 -0.3253
  323MOL0     H42622   4.101  10.795   9.970  0.3829  0.1719 -1.4496
  323MOL0     H42623   4.229  10.865   9.773 -1.2858 -1.1652 -0.8193
  323MOL0     H42624   4.241  10.780   9.254  0.3954 -0.1126 -1.4999
  323MOL0     H42625   4.354  10.854   9.075 -2.0854 -1.8184 -0.0980
  323MOL0     H42626   4.490  11.027   8.966 -0.1362  1.0446  0.3011
  323MOL0     H42627   4.506  10.872   8.898 -2.1972  2.6286  0.3846
  323MOL0     H42628   4.730  11.074   8.882 -1.5258  0.1038  0.3770
  323MOL0     H42629   4.740  10.903   8.825  0.3961 -0.2232 -0.7415
  323MOL0     H42630   4.539  10.948   8.672 -1.0871  0.1931  0.4934
  323MOL0     H42631   4.695  10.984   8.618 -1.1254 -1.3719 -0.2508
  323MOL0     H42632   4.671  11.234   8.689  0.5388  0.7045 -2.4873
  323MOL0     H42633   4.574  11.176   8.550 -2.1790  0.3324  0.4024
  323MOL0     H42634   4.284  11.315   8.816  0.7043  3.4300 -0.5174
  323MOL0     H42635   4.734  10.828   9.294  0.4074 -2.2295  0.4715
  323MOL0     H42636   4.621  10.767   9.477  0.9989 -1.4859 -1.2302
  324MOL0     O42637   0.011   4.055   9.203  0.7752  0.1077  0.2518
  324MOL0     C42638  -0.088   4.058   9.124 -0.4251 -0.0083 -0.3053
  324MOL0     O42639  -0.174   3.955   9.108 -0.2319 -0.1121  0.0625
  324MOL0     C42640  -0.156   3.827   9.150  0.0065  0.3548  0.0932
  324MOL0     C42641  -0.028   3.768   9.161 -0.6203 -0.2420 -0.2042
  324MOL0     C42642  -0.009   3.646   9.221  0.0264 -0.3653  0.7594
  324MOL0     C42643  -0.124   3.569   9.248 -0.8835 -0.6084  0.0535
  324MOL0     O42644  -0.124   3.442   9.290  0.0828 -0.7593 -0.1530
  324MOL0     C42645  -0.009   3.386   9.352  0.6484 -1.3604 -0.1212
  324MOL0     C42646  -0.039   3.264   9.438 -0.4173 -0.3490  0.3107
  324MOL0     C42647  -0.119   3.155   9.377 -0.9646 -0.1171 -0.2823
  324MOL0     C42648  -0.146   3.043   9.477  0.2545  0.3864 -0.1842
  324MOL0     C42649  -0.225   2.930   9.405 -0.0080  0.0911 -0.5963
  324MOL0     C42650  -0.142   2.825   9.352 -0.3888  1.9767  1.1931
  324MOL0     C42651  -0.098   2.722   9.458 -0.0402  0.0082  0.3741
  324MOL0     C42652  -0.047   2.588   9.392 -0.4961 -0.2493 -0.7328
  324MOL0     N42653  -0.021   2.480   9.494  0.6106  0.0706  0.3165
  324MOL0     C42654   0.018   2.347   9.469 -0.2122  0.4242 -1.0689
  324MOL0     C42655   0.045   2.290   9.584 -0.5985  0.0367  0.0549
  324MOL0     C42656   0.095   2.154   9.614  0.7876  0.0673 -0.1920
  324MOL0     C42657  -0.016   2.056   9.637 -0.1050  0.5588 -0.4936
  324MOL0     C42658   0.047   1.912   9.655 -0.8465 -0.5510 -0.1551
  324MOL0     C42659  -0.063   1.820   9.707 -0.5747  0.7888 -0.7189
  324MOL0     O42660  -0.017   1.679   9.693 -0.8083  0.2410  0.7634
  324MOL0     C42661  -0.061   1.573   9.765  0.1321 -0.3522 -0.6028
  324MOL0     C42662  -0.185   1.588   9.839 -1.2334  0.7568  1.0544
  324MOL0     C42663  -0.238   1.476   9.902 -0.4920  0.5473  0.5723
  324MOL0     C42664  -0.172   1.352   9.908 -0.1147 -0.1963 -0.2281
  324MOL0     C42665  -0.220   1.249   9.994  0.1922 -0.2698  0.0742
  324MOL0     O42666  -0.140   1.138   9.996  0.2784  1.4106 -0.5413
  324MOL0     C42667  -0.182   1.016  10.050  0.1250  0.1564  0.2629
  324MOL0     C42668  -0.262   1.007  10.166 -0.1347 -0.2518  0.4177
  324MOL0     C42669  -0.297   0.884  10.221  0.2348  0.4734 -0.8183
  324MOL0     C42670  -0.278   0.768  10.152  1.0077  0.5020 -0.6419
  324MOL0     O42671  -0.327   0.652  10.215 -0.0905  0.7862 -0.6765
  324MOL0     C42672  -0.330   0.524  10.154 -1.0439 -0.7077 -0.1611
  324MOL0     C42673  -0.417   0.431  10.221 -0.1672  0.0584 -0.1078
  324MOL0     C42674  -0.379   0.292  10.174 -0.0795  0.2884 -0.5113
  324MOL0     C42675  -0.482   0.200  10.227  0.0069 -0.2510 -0.7302
  324MOL0     C42676  -0.437   0.053  10.220 -0.6451 -0.4453 -0.8252
  324MOL0     C42677  -0.560  -0.037  10.270 -0.3219 -0.2365  1.1558
  324MOL0     C42678  -0.538  -0.182  10.204  0.3354 -1.3058 -0.3196
  324MOL0     C42679  -0.651  -0.278  10.243  0.3408  0.0136 -0.1840
  324MOL0    Cl42680  -0.674  -0.302  10.415  0.1377 -0.1703  0.0402
  324MOL0     C42681  -0.202   0.775  10.036  0.3141 -0.3808 -0.0483
  324MOL0     C42682  -0.160   0.895   9.988 -0.1851 -0.4783 -0.2889
  324MOL0     O42683  -0.331   1.253  10.046  0.5623  0.0250  0.3722
  324MOL0     C42684  -0.059   1.335   9.828  0.4221 -0.0655 -0.1533
  324MOL0     C42685   0.001   1.442   9.758 -0.1231 -0.3284 -0.0866
  324MOL0     N42686   0.038   2.398   9.678 -1.3936  0.0774  0.8426
  324MOL0     N42687  -0.009   2.507   9.624  0.7074 -0.1018 -0.2639
  324MOL0     C42688  -0.255   3.622   9.224 -0.2679 -0.0275  0.1807
  324MOL0     C42689  -0.266   3.755   9.185 -0.3993 -0.3590 -0.0316
  324MOL0     C42690  -0.122   4.182   9.052 -0.8990  0.2954  0.0401
  324MOL0     C42691  -0.046   4.297   9.081 -0.5436 -0.6315 -0.0621
  324MOL0     C42692  -0.042   4.412   9.000 -0.2006 -0.1145  0.6195
  324MOL0     C42693  -0.118   4.415   8.883 -0.5418  0.4038 -0.5027
  324MOL0     O42694  -0.135   4.526   8.801  0.5161 -0.1759 -0.4207
  324MOL0     C42695  -0.103   4.658   8.846 -0.4608 -0.2713 -0.7466
  324MOL0     C42696  -0.214   4.713   8.919  0.4922  0.1911 -0.8661
  324MOL0     C42697  -0.261   4.853   8.883  0.0624  0.1505  0.0020
  324MOL0     C42698  -0.382   4.860   8.787 -0.0283  0.2181 -0.0738
  324MOL0     C42699  -0.355   4.776   8.673 -0.5260 -0.5062  0.1201
  324MOL0     C42700  -0.327   4.710   8.571 -0.2740 -0.4860 -0.0047
  324MOL0     C42701  -0.198   4.302   8.861 -0.0030 -0.5363 -0.0230
  324MOL0     C42702  -0.204   4.188   8.945  0.2938 -0.0536 -0.2461
  324MOL0     H42703   0.061   3.823   9.131 -0.3603 -1.2290 -1.2900
  324MOL0     H42704   0.090   3.603   9.232  0.3863  0.0163 -0.7494
  324MOL0     H42705   0.029   3.457   9.426 -0.1996 -0.6296 -0.3758
  324MOL0     H42706   0.067   3.372   9.275 -0.0510 -2.1263 -0.6902
  324MOL0     H42707  -0.092   3.301   9.526 -2.1218  0.2604 -0.9244
  324MOL0     H42708   0.055   3.216   9.467 -0.1950  0.9949  1.9825
  324MOL0     H42709  -0.073   3.110   9.288  0.5476 -1.4171  1.0809
  324MOL0     H42710  -0.214   3.198   9.342  0.5739  0.6258 -4.1033
  324MOL0     H42711  -0.046   3.012   9.508 -0.0979 -1.7425 -0.9822
  324MOL0     H42712  -0.197   3.089   9.562  0.1445 -1.8334  1.0305
  324MOL0     H42713  -0.289   2.966   9.323  1.4586  0.0172 -1.8197
  324MOL0     H42714  -0.300   2.889   9.472  1.3428 -0.1300  0.8340
  324MOL0     H42715  -0.052   2.860   9.301 -0.0283  0.9244  1.0860
  324MOL0     H42716  -0.199   2.757   9.288  0.7958 -0.8150  2.9130
  324MOL0     H42717  -0.028   2.769   9.528 -3.7062  1.0442  3.7011
  324MOL0     H42718  -0.183   2.692   9.520 -0.9462  2.1497  0.2623
  324MOL0     H42719   0.033   2.600   9.318 -0.5734 -1.9185 -1.1236
  324MOL0     H42720  -0.132   2.547   9.336 -0.7971 -0.6754  0.0296
  324MOL0     H42721   0.021   2.298   9.372  3.2314  1.0819 -1.4255
  324MOL0     H42722   0.147   2.161   9.710 -3.7543  0.9333  2.5207
  324MOL0     H42723   0.159   2.115   9.535  0.2616 -2.3182  0.4675
  324MOL0     H42724  -0.074   2.053   9.545 -2.1353  2.1602  0.6388
  324MOL0     H42725  -0.076   2.083   9.725  1.6128 -0.0105  0.9235
  324MOL0     H42726   0.091   1.868   9.565 -2.2500  0.1387 -1.2145
  324MOL0     H42727   0.129   1.908   9.727 -1.3545 -2.3582  0.3644
  324MOL0     H42728  -0.152   1.831   9.644 -1.4581 -1.1715  0.0983
  324MOL0     H42729  -0.096   1.847   9.808 -1.3764  3.0608 -1.5277
  324MOL0     H42730  -0.237   1.683   9.835  1.4936  2.3225  0.0770
  324MOL0     H42731  -0.330   1.486   9.959 -0.6956  2.1983 -0.0147
  324MOL0     H42732  -0.290   1.098  10.220 -2.2564 -1.1105  0.8815
  324MOL0     H42733  -0.359   0.885  10.310  0.4708 -0.0146 -0.6428
  324MOL0     H42734  -0.227   0.491  10.169 -0.0887  1.5894 -1.1821
  324MOL0     H42735  -0.343   0.517  10.046 -0.0901 -2.2430 -0.2093
  324MOL0     H42736  -0.522   0.452  10.198  0.0783  1.4275 -0.0638
  324MOL0     H42737  -0.400   0.452  10.327 -1.8443 -0.2108  0.2456
  324MOL0     H42738  -0.277   0.261  10.198 -0.5736 -1.8877 -1.0131
  324MOL0     H42739  -0.380   0.289  10.064 -2.7888 -0.0919 -0.5277
  324MOL0     H42740  -0.490   0.233  10.331 -0.3880 -1.1542 -0.4681
  324MOL0     H42741  -0.579   0.210  10.176  0.3000  1.3614 -1.0407
  324MOL0     H42742  -0.354   0.034  10.289  1.4088  0.5475 -2.8680
  324MOL0     H42743  -0.404   0.029  10.119 -2.1332 -3.3584 -0.7267
  324MOL0     H42744  -0.658   0.002  10.239  0.6046  1.4071  0.1256
  324MOL0     H42745  -0.560  -0.037  10.379  0.3788  2.6581  1.2496
  324MOL0     H42746  -0.531  -0.177  10.095 -0.1980  2.1254 -0.3064
  324MOL0     H42747  -0.437  -0.216  10.230 -0.1777 -2.4748  0.1963
  324MOL0     H42748  -0.649  -0.374  10.191 -1.0730 -0.7450  1.0773
  324MOL0     H42749  -0.746  -0.240  10.203  0.2551  0.5459  0.4905
  324MOL0     H42750  -0.165   0.686   9.986 -0.2100 -2.2982  2.7507
  324MOL0     H42751  -0.087   0.905   9.909  3.6165  3.0488  3.1452
  324MOL0     H42752  -0.014   1.237   9.822  1.8960  0.4102  2.0345
  324MOL0     H42753   0.099   1.435   9.711  1.5977  2.9686  2.5421
  324MOL0     H42754  -0.340   3.563   9.255 -1.6074  1.5680 -0.3319
  324MOL0     H42755  -0.358   3.810   9.195 -0.2236 -0.1234  0.3125
  324MOL0     H42756   0.017   4.296   9.170  0.1094 -2.5811 -0.4976
  324MOL0     H42757   0.035   4.487   9.017  1.7828 -1.5605 -1.3969
  324MOL0     H42758  -0.081   4.704   8.750  1.1478 -0.9961 -0.7498
  324MOL0     H42759  -0.012   4.654   8.906 -1.1229 -1.0263  0.2655
  324MOL0     H42760  -0.305   4.652   8.928  0.3517  0.6884  4.1481
  324MOL0     H42761  -0.185   4.722   9.024  0.0769 -0.1811 -0.7193
  324MOL0     H42762  -0.176   4.904   8.838  1.2402  0.8520  2.8110
  324MOL0     H42763  -0.295   4.909   8.971  3.6006  0.6670  1.1920
  324MOL0     H42764  -0.474   4.821   8.831 -1.3210  2.5998 -0.4662
  324MOL0     H42765  -0.402   4.963   8.755 -1.1917  0.2202  0.6165
  324MOL0     H42766  -0.294   4.664   8.480  0.5311  1.9147 -1.0033
  324MOL0     H42767  -0.262   4.296   8.774 -0.3921  0.9691  0.1199
  324MOL0     H42768  -0.273   4.108   8.923 -1.3156  1.6954 -1.9723
  325MOL0     O42769   7.691   8.465   4.759  0.3048 -0.4029  0.1478
  325MOL0     C42770   7.593   8.426   4.704  0.3770 -0.9446  0.6764
  325MOL0     O42771   7.476   8.382   4.764  0.3470 -0.4492  0.6413
  325MOL0     C42772   7.493   8.381   4.900  0.4735  0.7700  0.5431
  325MOL0     C42773   7.468   8.495   4.969  0.3609  0.0683 -0.2280
  325MOL0     C42774   7.471   8.500   5.106  0.5676 -0.3444 -0.3610
  325MOL0     C42775   7.503   8.381   5.180 -0.2399  0.0660  0.6117
  325MOL0     O42776   7.497   8.375   5.317  0.2536 -0.6978 -0.8832
  325MOL0     C42777   7.435   8.475   5.403  0.5543 -0.9584 -0.1659
  325MOL0     C42778   7.422   8.422   5.547  0.0050  0.3375 -0.0153
  325MOL0     C42779   7.535   8.319   5.588 -0.0452  0.1875  0.6222
  325MOL0     C42780   7.547   8.266   5.733 -0.4258 -0.1969  0.8967
  325MOL0     C42781   7.670   8.329   5.803 -0.1900 -0.3658 -0.7600
  325MOL0     C42782   7.810   8.275   5.773  0.9234 -0.3496  0.2508
  325MOL0     C42783   7.924   8.331   5.862 -0.7507 -0.1468 -1.0197
  325MOL0     C42784   8.057   8.247   5.848  1.1012 -0.2962  1.0066
  325MOL0     N42785   8.173   8.332   5.889  0.1684 -0.1032  0.5363
  325MOL0     C42786   8.281   8.345   5.814  0.6059 -0.0679  0.4205
  325MOL0     C42787   8.376   8.417   5.885  0.0212 -0.0561 -0.2636
  325MOL0     C42788   8.510   8.464   5.845 -0.2086  0.8410  0.4968
  325MOL0     C42789   8.475   8.603   5.804  1.0622  0.1437  0.0185
  325MOL0     C42790   8.598   8.674   5.746  0.8078  0.5591  0.4168
  325MOL0     C42791   8.632   8.619   5.608  1.5607 -0.0701  0.5387
  325MOL0     O42792   8.510   8.628   5.513 -0.2348  0.2683 -0.0631
  325MOL0     C42793   8.540   8.593   5.385  0.0917  0.7064 -0.3269
  325MOL0     C42794   8.633   8.498   5.340 -0.0534  0.0752  0.2353
  325MOL0     C42795   8.665   8.478   5.202 -0.6224  0.2473 -0.3579
  325MOL0     C42796   8.599   8.550   5.099 -0.8375  0.3822 -0.7456
  325MOL0     C42797   8.631   8.524   4.955 -0.1953  0.6259  0.7494
  325MOL0     O42798   8.526   8.473   4.876 -0.2100  0.9719  0.1441
  325MOL0     C42799   8.555   8.444   4.744  0.3833  0.0095  0.4871
  325MOL0     C42800   8.550   8.316   4.701  1.1063  0.1312  0.3146
  325MOL0     C42801   8.600   8.289   4.571  0.2450 -0.2591 -0.3306
  325MOL0     C42802   8.610   8.389   4.474 -0.2472  0.3231 -0.4381
  325MOL0     O42803   8.628   8.368   4.335  0.1199  0.4560 -0.4688
  325MOL0     C42804   8.705   8.259   4.290 -0.3397 -1.0710  0.1511
  325MOL0     C42805   8.611   8.162   4.208  0.1711  0.2122  0.6470
  325MOL0     C42806   8.562   8.197   4.069  0.4260  0.1185 -0.3646
  325MOL0     C42807   8.677   8.223   3.970  0.8141 -0.2064  0.8463
  325MOL0     C42808   8.641   8.267   3.828  0.9483  0.1500  0.7437
  325MOL0     C42809   8.567   8.398   3.842 -0.4502 -0.0487  0.9949
  325MOL0     C42810   8.552   8.459   3.702 -0.1906 -0.3966 -0.6607
  325MOL0     C42811   8.477   8.582   3.702 -0.4593 -0.0028 -0.8312
  325MOL0    Cl42812   8.307   8.546   3.745  0.0457  0.0137 -0.1659
  325MOL0     C42813   8.606   8.519   4.511 -0.5624 -1.3990 -0.3112
  325MOL0     C42814   8.581   8.543   4.646  0.3424 -0.3051 -0.2676
  325MOL0     O42815   8.753   8.527   4.921  0.3625  0.3612 -0.2182
  325MOL0     C42816   8.485   8.627   5.143  0.0711 -0.0425  0.5884
  325MOL0     C42817   8.459   8.643   5.281  0.3732  1.0932 -0.1667
  325MOL0     N42818   8.314   8.445   6.011  0.2912 -0.1046  0.1442
  325MOL0     N42819   8.193   8.396   6.005  0.5615 -0.5183  1.1182
  325MOL0     C42820   7.527   8.259   5.113  0.4046  0.3196  0.2645
  325MOL0     C42821   7.522   8.259   4.972 -0.7505 -0.6962  0.4959
  325MOL0     C42822   7.597   8.419   4.557  0.3843 -1.4016 -0.3109
  325MOL0     C42823   7.505   8.338   4.486  0.0466  1.1238 -0.5348
  325MOL0     C42824   7.485   8.341   4.353 -0.8155 -0.5149 -0.2429
  325MOL0     C42825   7.542   8.441   4.280 -0.2433  0.3504 -0.1037
  325MOL0     O42826   7.534   8.476   4.149 -0.1739 -1.2242 -0.5208
  325MOL0     C42827   7.436   8.407   4.072  0.3336 -0.4623 -0.1028
  325MOL0     C42828   7.386   8.501   3.956 -0.2018  0.1525  0.0826
  325MOL0     C42829   7.309   8.631   3.999 -0.5878  0.2987  0.5034
  325MOL0     C42830   7.163   8.605   4.054  0.6062 -0.4514  0.2663
  325MOL0     C42831   7.091   8.554   3.935  0.0703  0.2682 -0.1395
  325MOL0     C42832   7.037   8.497   3.846 -0.1614 -0.1588 -1.0443
  325MOL0     C42833   7.632   8.529   4.340 -0.0018  0.4877  0.3764
  325MOL0     C42834   7.668   8.511   4.479  0.0633 -0.1023  0.4168
  325MOL0     H42835   7.430   8.584   4.922 -0.6321 -1.4592 -2.4563
  325MOL0     H42836   7.432   8.592   5.150  0.3307  0.7064 -2.6328
  325MOL0     H42837   7.330   8.500   5.383  0.7197 -1.3184 -1.5650
  325MOL0     H42838   7.499   8.562   5.417 -0.4128 -0.0844 -1.0314
  325MOL0     H42839   7.323   8.376   5.564  0.3016  0.5879  2.9516
  325MOL0     H42840   7.423   8.506   5.616 -5.0200  0.1603  0.6585
  325MOL0     H42841   7.629   8.364   5.554  0.6539 -2.2474 -0.9868
  325MOL0     H42842   7.512   8.234   5.522 -3.5488  1.2746  0.2321
  325MOL0     H42843   7.455   8.305   5.778 -1.4348  1.4839 -2.2710
  325MOL0     H42844   7.564   8.159   5.726  3.4153  0.3726 -3.4486
  325MOL0     H42845   7.647   8.313   5.909  0.4561  1.1559 -0.3597
  325MOL0     H42846   7.663   8.438   5.795 -6.7064 -0.3923 -0.4655
  325MOL0     H42847   7.828   8.283   5.666 -1.7079 -1.0059 -0.2916
  325MOL0     H42848   7.794   8.169   5.791 -1.3204 -0.1452 -0.3074
  325MOL0     H42849   7.942   8.435   5.832  0.7230  0.2685  1.0512
  325MOL0     H42850   7.906   8.327   5.970  1.4500  2.4794 -0.4409
  325MOL0     H42851   8.072   8.218   5.744 -0.7840 -0.3711  0.7074
  325MOL0     H42852   8.043   8.158   5.910 -1.2968  1.2878  2.9691
  325MOL0     H42853   8.290   8.304   5.714  0.6685 -1.1801  0.8705
  325MOL0     H42854   8.550   8.398   5.767  2.9204 -0.2732  2.8175
  325MOL0     H42855   8.585   8.458   5.925  0.5277 -0.9603 -0.2580
  325MOL0     H42856   8.437   8.659   5.891 -1.4544  1.5737 -1.8807
  325MOL0     H42857   8.395   8.602   5.730  0.4480 -0.6110  0.6818
  325MOL0     H42858   8.576   8.779   5.726  2.3731  1.1746  1.7058
  325MOL0     H42859   8.677   8.678   5.823  0.1375  2.7077  1.0593
  325MOL0     H42860   8.679   8.521   5.620 -1.9055 -1.7742  1.3899
  325MOL0     H42861   8.710   8.684   5.567 -0.5913  1.9586 -0.5844
  325MOL0     H42862   8.701   8.442   5.404 -0.3299 -1.2935 -0.6382
  325MOL0     H42863   8.746   8.413   5.171 -0.9609 -0.3436 -0.0131
  325MOL0     H42864   8.524   8.242   4.776 -1.2099  1.7708  1.2823
  325MOL0     H42865   8.597   8.188   4.531  1.7721  0.7087 -3.1477
  325MOL0     H42866   8.765   8.207   4.365  0.2076  0.4131  0.7954
  325MOL0     H42867   8.785   8.301   4.227  0.3127  1.1389  2.2696
  325MOL0     H42868   8.534   8.123   4.275 -0.2570 -0.2723 -0.1044
  325MOL0     H42869   8.680   8.079   4.198 -0.8090 -0.4282 -1.5117
  325MOL0     H42870   8.500   8.287   4.064  0.0725 -0.1947 -2.7262
  325MOL0     H42871   8.478   8.133   4.038 -3.0785  4.0074  0.1508
  325MOL0     H42872   8.739   8.306   4.006  0.0192  0.6539  0.2722
  325MOL0     H42873   8.728   8.127   3.960  3.3935  1.2628 -2.0060
  325MOL0     H42874   8.567   8.194   3.795 -0.9710  1.9696  0.7787
  325MOL0     H42875   8.729   8.273   3.763  1.5018 -2.1096  1.2037
  325MOL0     H42876   8.629   8.474   3.889  2.2850  0.5940 -3.0995
  325MOL0     H42877   8.474   8.384   3.898  0.0888 -2.6895  1.3980
  325MOL0     H42878   8.643   8.500   3.657 -0.4854  0.0091 -0.8891
  325MOL0     H42879   8.517   8.391   3.623  0.6160  0.8188 -2.1162
  325MOL0     H42880   8.492   8.634   3.607  4.9446 -0.0181 -0.2575
  325MOL0     H42881   8.517   8.649   3.779 -1.0224  1.4755 -1.7786
  325MOL0     H42882   8.627   8.598   4.440  0.5682  0.2949  1.8006
  325MOL0     H42883   8.587   8.641   4.691  0.0207 -0.3715 -0.0797
  325MOL0     H42884   8.426   8.674   5.064  1.7466 -1.0666 -1.3813
  325MOL0     H42885   8.366   8.689   5.313  1.0504  0.3028  3.3296
  325MOL0     H42886   7.529   8.169   5.173 -0.3789 -0.9387 -1.5162
  325MOL0     H42887   7.543   8.165   4.922  2.5389  1.3823 -2.5135
  325MOL0     H42888   7.435   8.274   4.539  0.8848  1.4022  0.9596
  325MOL0     H42889   7.405   8.279   4.315 -0.4796 -0.6806 -0.6894
  325MOL0     H42890   7.348   8.376   4.130  1.1151 -0.9500  0.8549
  325MOL0     H42891   7.475   8.311   4.038 -1.9405 -0.5974 -2.6589
  325MOL0     H42892   7.468   8.541   3.896  1.4324 -1.5970  1.0381
  325MOL0     H42893   7.328   8.452   3.878 -1.7431 -1.0234  1.8979
  325MOL0     H42894   7.299   8.710   3.923  1.9272 -1.2982 -1.6302
  325MOL0     H42895   7.366   8.686   4.074 -1.2357  0.1434  1.1276
  325MOL0     H42896   7.172   8.536   4.138  1.5698 -0.8151 -0.1231
  325MOL0     H42897   7.115   8.697   4.089  0.9556 -0.2442  0.2084
  325MOL0     H42898   6.983   8.449   3.766  0.5493 -0.9010 -1.0917
  325MOL0     H42899   7.671   8.612   4.283 -0.0900  0.0861 -0.2829
  325MOL0     H42900   7.747   8.573   4.520 -0.1827  0.5794 -0.1317
  326MOL0     O42901   3.694   6.937   6.198 -0.3883 -0.3148  0.1589
  326MOL0     C42902   3.791   6.907   6.124  0.6067  0.9749 -1.9122
  326MOL0     O42903   3.817   6.952   6.002 -0.6367  0.3928 -0.3788
  326MOL0     C42904   3.733   7.033   5.932  0.4014 -0.0730 -0.5626
  326MOL0     C42905   3.740   7.021   5.803  0.6236  0.5596 -0.1592
  326MOL0     C42906   3.665   7.101   5.715 -0.8572  0.1646  0.1744
  326MOL0     C42907   3.580   7.195   5.761 -0.4759  0.3114 -0.0204
  326MOL0     O42908   3.494   7.274   5.686 -0.4298 -0.7904 -0.4451
  326MOL0     C42909   3.559   7.362   5.597 -0.2655  0.4074 -0.3632
  326MOL0     C42910   3.597   7.493   5.665 -0.3657 -0.6527 -0.0008
  326MOL0     C42911   3.596   7.613   5.575  0.2249  0.1469  0.4246
  326MOL0     C42912   3.677   7.719   5.640 -0.4285 -0.7229  0.8072
  326MOL0     C42913   3.635   7.854   5.587  1.5062 -0.6120  0.0869
  326MOL0     C42914   3.485   7.892   5.630 -0.0188 -0.0961 -0.4913
  326MOL0     C42915   3.481   8.044   5.631  0.0388 -0.2070 -0.0375
  326MOL0     C42916   3.328   8.096   5.618  0.1295 -0.8139 -0.6394
  326MOL0     N42917   3.322   8.233   5.668 -0.2342  0.3799 -0.2650
  326MOL0     C42918   3.222   8.273   5.755 -0.4137  0.2404  0.4660
  326MOL0     C42919   3.247   8.401   5.772 -0.0954 -0.3802  0.0061
  326MOL0     C42920   3.143   8.493   5.842  0.4145  0.2768  0.5621
  326MOL0     C42921   3.121   8.446   5.989 -0.3763 -0.1944 -0.2160
  326MOL0     C42922   3.050   8.547   6.079 -0.1953  1.2516  0.8043
  326MOL0     C42923   2.901   8.555   6.044 -0.4236  0.4820  0.2710
  326MOL0     O42924   2.860   8.691   6.065 -0.1003  0.2614 -0.7591
  326MOL0     C42925   2.729   8.711   6.102  1.0861  0.6580 -1.3970
  326MOL0     C42926   2.690   8.825   6.170 -0.6760 -1.4737 -0.2446
  326MOL0     C42927   2.552   8.846   6.222 -1.2829  0.0281  0.1242
  326MOL0     C42928   2.449   8.759   6.177 -0.0194 -0.7589 -0.0839
  326MOL0     C42929   2.308   8.788   6.213  0.2926 -0.0808 -0.1222
  326MOL0     O42930   2.283   8.901   6.287 -1.1315  0.0515  0.0325
  326MOL0     C42931   2.155   8.947   6.278  0.1389 -0.2807 -0.1384
  326MOL0     C42932   2.114   9.038   6.177 -0.3710  0.6894  0.0349
  326MOL0     C42933   1.981   9.079   6.168  0.5012 -0.4545  0.4037
  326MOL0     C42934   1.886   9.039   6.270 -0.9254 -1.1551  0.7661
  326MOL0     O42935   1.762   9.093   6.261 -0.2299 -0.0973 -0.9109
  326MOL0     C42936   1.746   9.218   6.319  0.7209 -0.2266  0.6841
  326MOL0     C42937   1.763   9.225   6.471  0.6767 -0.3697 -0.1072
  326MOL0     C42938   1.703   9.348   6.529  0.1560  0.4263  0.2887
  326MOL0     C42939   1.699   9.340   6.675 -0.9131 -1.1145  0.0034
  326MOL0     C42940   1.709   9.485   6.723  0.0311  0.8399 -1.0238
  326MOL0     C42941   1.581   9.586   6.715 -0.2045  0.0846 -0.6852
  326MOL0     C42942   1.436   9.530   6.718  0.3559  0.3719 -0.9223
  326MOL0     C42943   1.339   9.647   6.719  0.7133 -0.4546  0.0093
  326MOL0    Cl42944   1.165   9.592   6.722 -0.0925 -0.1856  0.0744
  326MOL0     C42945   1.918   8.941   6.363 -0.7143  0.3476  0.1902
  326MOL0     C42946   2.050   8.902   6.359 -0.1893  0.7390 -0.0733
  326MOL0     O42947   2.221   8.706   6.173 -0.2801 -0.2547  0.2758
  326MOL0     C42948   2.494   8.635   6.128  0.0028 -0.2013  0.8374
  326MOL0     C42949   2.628   8.609   6.093  0.2676  0.0915  1.2526
  326MOL0     N42950   3.361   8.443   5.714  0.2634  0.6269 -0.2697
  326MOL0     N42951   3.406   8.340   5.648 -0.0249 -0.2791 -0.8676
  326MOL0     C42952   3.571   7.207   5.899  0.5834 -0.0061  0.8125
  326MOL0     C42953   3.653   7.137   5.986 -0.8581  0.8103  0.0918
  326MOL0     C42954   3.890   6.810   6.194  0.7311  0.1071 -0.0477
  326MOL0     C42955   4.007   6.755   6.134 -0.7205 -0.8560 -0.6581
  326MOL0     C42956   4.094   6.674   6.209 -0.2363  0.2007  0.6556
  326MOL0     C42957   4.064   6.638   6.343  0.0758 -1.1530  0.3208
  326MOL0     O42958   4.147   6.559   6.403  0.0717  0.4685 -0.7135
  326MOL0     C42959   4.131   6.532   6.547  1.0353  0.3412 -0.7768
  326MOL0     C42960   4.252   6.463   6.603  0.4250 -0.1612  0.3093
  326MOL0     C42961   4.251   6.396   6.739  0.6280 -1.0304  0.5645
  326MOL0     C42962   4.384   6.324   6.787 -0.2040  0.1245  0.6109
  326MOL0     C42963   4.370   6.218   6.886  0.7948  0.5319 -0.8894
  326MOL0     C42964   4.341   6.132   6.971 -0.0369  0.2445 -0.7087
  326MOL0     C42965   3.945   6.680   6.399  1.5641 -0.5031  0.6759
  326MOL0     C42966   3.859   6.769   6.324 -0.5322 -0.0099 -0.0541
  326MOL0     H42967   3.808   6.947   5.762  0.4685 -0.0324  0.6198
  326MOL0     H42968   3.680   7.094   5.608  2.8576  0.8557  0.5305
  326MOL0     H42969   3.483   7.375   5.520 -0.9366 -0.3274  0.1630
  326MOL0     H42970   3.646   7.326   5.541 -0.9392 -0.1460 -1.0736
  326MOL0     H42971   3.695   7.476   5.711 -0.6982 -1.4411  0.4325
  326MOL0     H42972   3.522   7.509   5.744  1.5202 -0.2445  1.8001
  326MOL0     H42973   3.491   7.642   5.571 -0.3130 -1.7974 -0.4331
  326MOL0     H42974   3.640   7.596   5.476  0.1927  3.4718 -0.2772
  326MOL0     H42975   3.679   7.718   5.750  1.0133 -1.5644  0.7933
  326MOL0     H42976   3.782   7.714   5.611 -0.7655 -0.0774 -0.5889
  326MOL0     H42977   3.635   7.871   5.479  1.1400  2.4808  0.4850
  326MOL0     H42978   3.708   7.923   5.630  0.4981  1.0732 -0.8276
  326MOL0     H42979   3.447   7.850   5.724  0.6593  1.5535  0.5723
  326MOL0     H42980   3.413   7.851   5.558 -1.0380  0.9857 -0.1023
  326MOL0     H42981   3.524   8.073   5.728  3.1465 -1.4522 -0.9097
  326MOL0     H42982   3.540   8.080   5.547  0.7091  1.2507  1.0005
  326MOL0     H42983   3.261   8.033   5.676 -0.8842  3.0369  2.8428
  326MOL0     H42984   3.292   8.099   5.515 -2.8025 -0.0769  0.3157
  326MOL0     H42985   3.136   8.219   5.795 -1.5737  1.0353 -0.8806
  326MOL0     H42986   3.048   8.494   5.789  0.3462 -1.7391  0.5682
  326MOL0     H42987   3.190   8.591   5.827  2.1971 -0.8245 -1.6817
  326MOL0     H42988   3.215   8.425   6.041 -0.4926 -2.0421 -0.6781
  326MOL0     H42989   3.056   8.358   5.988  0.9452 -1.2779  1.8394
  326MOL0     H42990   3.057   8.505   6.179  0.3865  0.7285  0.5526
  326MOL0     H42991   3.099   8.644   6.074 -0.5518  1.4307  0.7870
  326MOL0     H42992   2.855   8.490   6.119  0.6695  0.9406  1.3681
  326MOL0     H42993   2.878   8.520   5.943 -2.7106  1.1851  0.4957
  326MOL0     H42994   2.754   8.910   6.192 -1.2549 -0.0442 -3.4811
  326MOL0     H42995   2.528   8.944   6.263 -2.7320 -0.2981  0.1099
  326MOL0     H42996   2.181   9.063   6.095  1.5890 -1.7792  0.7282
  326MOL0     H42997   1.935   9.138   6.090 -0.3422 -1.3809  0.1819
  326MOL0     H42998   1.638   9.228   6.300  1.2623  1.6684 -1.9228
  326MOL0     H42999   1.806   9.292   6.266  0.8696 -0.9050 -0.1192
  326MOL0     H43000   1.871   9.231   6.488  1.0175  0.8120 -2.3199
  326MOL0     H43001   1.727   9.135   6.523  2.6235 -0.2742  1.5529
  326MOL0     H43002   1.603   9.363   6.487  0.2833 -0.4253 -0.3509
  326MOL0     H43003   1.762   9.433   6.495 -2.4475  2.7944  1.2882
  326MOL0     H43004   1.612   9.288   6.717 -0.7319 -1.3268  0.1160
  326MOL0     H43005   1.785   9.290   6.719 -0.5963  2.8132  4.5374
  326MOL0     H43006   1.794   9.531   6.672 -0.3959  0.9326 -1.6582
  326MOL0     H43007   1.746   9.480   6.826  0.2930  0.7986 -1.1173
  326MOL0     H43008   1.581   9.648   6.625  0.1151 -2.0120 -2.2060
  326MOL0     H43009   1.597   9.665   6.789  0.9900  1.2683 -2.1238
  326MOL0     H43010   1.415   9.467   6.632  1.3702 -0.3496 -0.6609
  326MOL0     H43011   1.436   9.464   6.806 -1.4898 -0.0956 -1.2385
  326MOL0     H43012   1.353   9.722   6.641  0.5866 -1.7031 -1.2449
  326MOL0     H43013   1.355   9.695   6.816 -0.8153 -0.5936  0.3552
  326MOL0     H43014   1.850   8.909   6.441 -0.4834  2.4306  1.3469
  326MOL0     H43015   2.081   8.835   6.439 -0.7357  2.5474  1.7289
  326MOL0     H43016   2.423   8.556   6.110  0.0850  0.0103 -0.5269
  326MOL0     H43017   2.651   8.508   6.060 -1.2250 -0.2350  1.1408
  326MOL0     H43018   3.486   7.269   5.927 -0.2624 -1.2528  1.0682
  326MOL0     H43019   3.636   7.161   6.090 -2.5342 -0.1246  0.0641
  326MOL0     H43020   4.036   6.779   6.032 -2.7987  1.1295 -0.8733
  326MOL0     H43021   4.191   6.633   6.180  0.3627  1.0280  1.4303
  326MOL0     H43022   4.049   6.463   6.570  2.8003 -1.3338  0.9200
  326MOL0     H43023   4.134   6.626   6.602  1.5694  0.3131 -0.7570
  326MOL0     H43024   4.264   6.381   6.532  0.7332  0.5626 -0.4920
  326MOL0     H43025   4.338   6.529   6.590  0.9402  0.0748  3.8703
  326MOL0     H43026   4.156   6.343   6.749 -0.5787  0.8819 -0.0769
  326MOL0     H43027   4.240   6.485   6.802  1.7653  1.5527 -2.5752
  326MOL0     H43028   4.428   6.276   6.699 -1.9128 -1.6965  0.6989
  326MOL0     H43029   4.454   6.396   6.832 -1.2734 -0.2344  2.9990
  326MOL0     H43030   4.317   6.049   7.034 -0.3365 -0.8647 -2.2139
  326MOL0     H43031   3.916   6.651   6.500 -3.1361  0.6601 -0.0824
  326MOL0     H43032   3.771   6.810   6.373  0.0354 -0.6880  1.6178
  327MOL0     O43033   5.002   3.672   7.185 -0.1038  0.0069  0.9438
  327MOL0     C43034   5.109   3.701   7.238 -0.8057  0.7696 -0.7158
  327MOL0     O43035   5.239   3.696   7.181  0.7497  0.6032 -0.4262
  327MOL0     C43036   5.253   3.639   7.054 -0.6740 -0.0323  0.1971
  327MOL0     C43037   5.172   3.544   6.989  0.6939 -0.7773 -1.2851
  327MOL0     C43038   5.188   3.501   6.856 -0.0310 -0.2721  0.0723
  327MOL0     C43039   5.294   3.557   6.789  1.4588 -1.0252 -0.4791
  327MOL0     O43040   5.311   3.500   6.667 -0.8060 -0.5015 -0.0389
  327MOL0     C43041   5.380   3.580   6.569  0.0403 -0.6154 -0.4727
  327MOL0     C43042   5.382   3.523   6.427 -0.0979 -0.4501 -0.3141
  327MOL0     C43043   5.246   3.533   6.362  0.4081  0.6824 -0.1005
  327MOL0     C43044   5.263   3.469   6.217 -0.0482 -0.1231  0.1679
  327MOL0     C43045   5.131   3.408   6.158 -0.2294 -0.1408 -0.0312
  327MOL0     C43046   5.164   3.323   6.046  0.8737  0.2399 -0.0897
  327MOL0     C43047   5.044   3.244   5.994 -0.0449  0.1434 -0.5051
  327MOL0     C43048   5.078   3.191   5.858 -0.2732 -1.0395  0.2129
  327MOL0     N43049   4.992   3.072   5.834 -0.1513 -1.2345 -0.4443
  327MOL0     C43050   4.872   3.084   5.777  0.4555 -1.2645 -0.0416
  327MOL0     C43051   4.828   2.956   5.744  0.2494 -1.5001 -0.3614
  327MOL0     C43052   4.703   2.911   5.675 -0.5188  0.3502 -0.2739
  327MOL0     C43053   4.635   3.019   5.585 -0.8064  0.0062  0.0720
  327MOL0     C43054   4.561   3.133   5.649 -0.4986  0.3693  0.1317
  327MOL0     C43055   4.531   3.236   5.542 -0.1600 -0.1395 -0.0714
  327MOL0     O43056   4.409   3.316   5.566 -0.5030  1.2336 -0.2001
  327MOL0     C43057   4.368   3.408   5.471  0.1230  0.1769 -0.0075
  327MOL0     C43058   4.459   3.464   5.384 -0.2326 -0.7041  0.0986
  327MOL0     C43059   4.422   3.574   5.300  0.0972  0.7039 -0.1109
  327MOL0     C43060   4.294   3.632   5.316 -0.3793  0.4511 -0.3595
  327MOL0     C43061   4.256   3.762   5.258 -0.1756 -0.2486 -0.3523
  327MOL0     O43062   4.349   3.860   5.252  0.0930 -0.1280  0.2467
  327MOL0     C43063   4.323   3.984   5.186 -0.0339 -0.1418 -0.7339
  327MOL0     C43064   4.338   4.114   5.245 -0.1528  0.2677 -0.7843
  327MOL0     C43065   4.285   4.227   5.193  0.2227  0.1715  0.6237
  327MOL0     C43066   4.214   4.225   5.065 -0.7108  0.3590 -0.2659
  327MOL0     O43067   4.146   4.335   5.007  0.2876 -0.6196  0.3993
  327MOL0     C43068   4.015   4.313   4.960 -0.8654  0.2955 -0.1877
  327MOL0     C43069   3.924   4.421   5.021 -0.8222 -0.1861  0.0518
  327MOL0     C43070   3.902   4.429   5.173  0.2142 -0.1969  0.2022
  327MOL0     C43071   3.796   4.537   5.204 -0.7123 -0.9173  1.3463
  327MOL0     C43072   3.706   4.483   5.316 -0.1004  0.8423 -0.8952
  327MOL0     C43073   3.598   4.581   5.363 -0.7434 -0.2098 -0.1461
  327MOL0     C43074   3.644   4.695   5.458 -0.0960  0.5117  0.2407
  327MOL0     C43075   3.632   4.830   5.388  0.2090  0.3327 -0.6493
  327MOL0    Cl43076   3.470   4.855   5.320  0.4509 -0.2800 -0.2862
  327MOL0     C43077   4.210   4.103   5.003  0.3114  0.2760 -0.3911
  327MOL0     C43078   4.272   3.982   5.056  1.2783 -0.0026  0.3726
  327MOL0     O43079   4.140   3.774   5.225  0.3165 -0.6835  0.2164
  327MOL0     C43080   4.206   3.579   5.420  0.7597  0.2159  0.6745
  327MOL0     C43081   4.238   3.461   5.483  0.0212  0.1555 -0.0883
  327MOL0     N43082   4.932   2.873   5.782 -0.3966 -1.1151  0.1305
  327MOL0     N43083   5.031   2.945   5.838 -0.3875  0.1291  0.8388
  327MOL0     C43084   5.367   3.670   6.842 -0.1198  0.8415  0.0587
  327MOL0     C43085   5.346   3.706   6.975 -0.8382 -0.4986 -0.4849
  327MOL0     C43086   5.104   3.725   7.385 -0.0184  0.1117  0.3879
  327MOL0     C43087   4.984   3.736   7.458 -0.1131 -0.1210 -0.1392
  327MOL0     C43088   4.986   3.741   7.597 -0.1302  0.3501 -0.3670
  327MOL0     C43089   5.110   3.734   7.666 -0.3868  0.4474 -0.7554
  327MOL0     O43090   5.111   3.736   7.801  0.2532 -0.9045  0.0123
  327MOL0     C43091   4.992   3.717   7.877  0.4220  0.1317 -0.0431
  327MOL0     C43092   5.018   3.733   8.029  0.4554  0.5008  0.3489
  327MOL0     C43093   4.905   3.665   8.107 -0.1109 -0.4504  0.2260
  327MOL0     C43094   4.937   3.642   8.256 -0.1280  0.3968 -0.0424
  327MOL0     C43095   4.925   3.771   8.332  0.6438  0.5925 -0.2233
  327MOL0     C43096   4.883   3.854   8.416 -0.0444 -0.5868  0.2687
  327MOL0     C43097   5.229   3.735   7.593  0.0291  0.1267 -0.0852
  327MOL0     C43098   5.229   3.736   7.454  0.9937 -0.0673 -0.1026
  327MOL0     H43099   5.108   3.488   7.056  1.3796  0.3403  0.3886
  327MOL0     H43100   5.129   3.416   6.823 -2.2234  1.6729 -1.3451
  327MOL0     H43101   5.480   3.601   6.607 -1.2749  1.7335  2.1094
  327MOL0     H43102   5.321   3.673   6.567 -3.2752 -2.5550 -0.4104
  327MOL0     H43103   5.426   3.423   6.425  2.2561  0.4415  1.4404
  327MOL0     H43104   5.446   3.583   6.362  0.7722  0.3435  1.2236
  327MOL0     H43105   5.230   3.641   6.353  1.6011  0.8740 -0.1214
  327MOL0     H43106   5.168   3.484   6.421  1.3813  0.9975  1.5092
  327MOL0     H43107   5.291   3.549   6.149  0.1927 -1.3925 -1.2684
  327MOL0     H43108   5.338   3.389   6.213 -0.7412 -0.7488 -0.9097
  327MOL0     H43109   5.071   3.499   6.144  1.2839  0.6045 -2.4925
  327MOL0     H43110   5.073   3.341   6.221  4.2444 -2.4527  2.0731
  327MOL0     H43111   5.239   3.251   6.082 -0.8690 -0.8844  1.5153
  327MOL0     H43112   5.208   3.383   5.966  1.3078 -1.1799 -0.9578
  327MOL0     H43113   5.017   3.168   6.068 -0.4034  2.0403  1.4148
  327MOL0     H43114   4.953   3.304   5.994 -0.6272 -0.7298 -0.6285
  327MOL0     H43115   5.181   3.161   5.841 -0.7280 -4.0903  2.0086
  327MOL0     H43116   5.060   3.266   5.780  0.6805 -0.8677  0.1459
  327MOL0     H43117   4.845   3.184   5.742  1.4704 -1.3209 -1.0580
  327MOL0     H43118   4.638   2.888   5.761  1.7895  1.5818  1.9484
  327MOL0     H43119   4.729   2.822   5.619 -2.4230 -0.4895  0.0809
  327MOL0     H43120   4.559   2.964   5.529  0.8157 -3.6741  1.2113
  327MOL0     H43121   4.714   3.057   5.519 -0.1130 -2.5196 -0.6579
  327MOL0     H43122   4.463   3.107   5.692 -0.7226 -1.2296 -1.2370
  327MOL0     H43123   4.625   3.174   5.728  1.4297  3.3119 -2.7024
  327MOL0     H43124   4.532   3.203   5.437  0.5395  2.1780 -0.8615
  327MOL0     H43125   4.621   3.298   5.537 -1.1298  1.2496 -2.1129
  327MOL0     H43126   4.562   3.432   5.371 -0.1769 -1.9009  2.8794
  327MOL0     H43127   4.498   3.606   5.229  0.3250  1.7703  0.5963
  327MOL0     H43128   4.382   4.116   5.344 -2.2199  0.7530  0.1768
  327MOL0     H43129   4.288   4.317   5.255 -1.7696 -0.1667  1.2842
  327MOL0     H43130   3.992   4.212   4.994  2.8004 -0.8437 -0.7320
  327MOL0     H43131   4.011   4.317   4.851  2.4887  1.2497 -0.3637
  327MOL0     H43132   3.827   4.393   4.978 -0.6151 -1.4718  0.4074
  327MOL0     H43133   3.950   4.516   4.973 -0.6162 -1.2865 -2.1165
  327MOL0     H43134   4.001   4.450   5.215  0.3552  0.9011 -0.6431
  327MOL0     H43135   3.871   4.329   5.204  3.1278 -1.0039  0.8952
  327MOL0     H43136   3.852   4.628   5.225 -2.5400  1.2519 -2.1257
  327MOL0     H43137   3.741   4.562   5.112  1.0992 -0.2884  0.3884
  327MOL0     H43138   3.755   4.465   5.412 -2.1762 -0.9054 -0.0882
  327MOL0     H43139   3.659   4.390   5.284  0.1246  0.0584  0.9525
  327MOL0     H43140   3.516   4.526   5.411  0.7434 -1.3823  1.1410
  327MOL0     H43141   3.553   4.616   5.269  3.5966  0.6539 -2.1277
  327MOL0     H43142   3.589   4.696   5.552 -2.4518  2.0690 -1.0600
  327MOL0     H43143   3.745   4.672   5.494 -0.7177 -3.1509  0.0128
  327MOL0     H43144   3.690   4.835   5.295 -1.2362  1.0874 -1.5347
  327MOL0     H43145   3.643   4.914   5.457 -1.1696  1.7021 -2.0148
  327MOL0     H43146   4.170   4.106   4.902 -2.3432  3.3563  0.5864
  327MOL0     H43147   4.260   3.886   5.006  2.3316  0.6795 -1.3076
  327MOL0     H43148   4.107   3.620   5.435  0.7097  0.8099 -1.0820
  327MOL0     H43149   4.166   3.428   5.556  1.1723  0.7778  1.3900
  327MOL0     H43150   5.439   3.730   6.788  0.9124  1.9742  2.5320
  327MOL0     H43151   5.386   3.801   7.010 -1.2454 -1.1208  1.8442
  327MOL0     H43152   4.886   3.725   7.412 -0.5382 -1.3126  1.0001
  327MOL0     H43153   4.888   3.754   7.641  1.0982 -0.5875  3.0126
  327MOL0     H43154   4.980   3.610   7.857  0.6576  0.6102 -3.2937
  327MOL0     H43155   4.901   3.777   7.864 -1.7797 -2.8236  0.5859
  327MOL0     H43156   5.113   3.685   8.055 -0.1953 -2.4512 -2.1456
  327MOL0     H43157   5.024   3.838   8.058  1.5350  0.8746 -1.1578
  327MOL0     H43158   4.885   3.569   8.058 -0.5129 -0.1540 -0.2045
  327MOL0     H43159   4.807   3.715   8.110 -0.2230 -0.6808  0.3747
  327MOL0     H43160   4.861   3.572   8.293 -1.4013  1.4614 -0.5353
  327MOL0     H43161   5.032   3.591   8.273  1.1412  1.8346 -2.3772
  327MOL0     H43162   4.868   3.934   8.485  3.3418  1.2917 -0.9373
  327MOL0     H43163   5.320   3.729   7.652 -0.1941 -0.0225  0.2541
  327MOL0     H43164   5.321   3.733   7.396  1.1352 -5.2251 -0.1387
  328MOL0     O43165  10.868   0.805   7.155 -0.0278 -0.0956 -0.1756
  328MOL0     C43166  10.765   0.871   7.122  0.2356  0.3881 -0.7647
  328MOL0     O43167  10.666   0.814   7.054 -0.2422 -0.6889  0.1234
  328MOL0     C43168  10.637   0.674   7.053  0.3613  0.4403 -0.4353
  328MOL0     C43169  10.699   0.575   7.126 -0.0289 -0.5343  0.1029
  328MOL0     C43170  10.654   0.437   7.128 -0.3004 -0.9117  0.2046
  328MOL0     C43171  10.544   0.400   7.041  0.5888 -0.3667 -1.2678
  328MOL0     O43172  10.506   0.270   7.048  0.4178  0.0940  0.2674
  328MOL0     C43173  10.363   0.234   7.034 -0.7579 -1.1648 -0.2474
  328MOL0     C43174  10.340   0.080   7.046 -0.3048  0.0630  0.2847
  328MOL0     C43175  10.439  -0.003   7.130 -0.3122 -1.0087  0.0334
  328MOL0     C43176  10.536  -0.085   7.041 -0.1462  0.0878 -0.4375
  328MOL0     C43177  10.601  -0.204   7.108 -0.6975 -0.2207 -0.3316
  328MOL0     C43178  10.690  -0.273   7.005 -0.3634  0.8134 -0.2092
  328MOL0     C43179  10.797  -0.366   7.055 -0.3396 -0.0937  0.1651
  328MOL0     C43180  10.731  -0.494   7.117  0.1996 -0.1998 -0.2836
  328MOL0     N43181  10.810  -0.618   7.103 -0.2934 -0.1868  0.1545
  328MOL0     C43182  10.822  -0.690   6.983 -0.0297  1.3382 -0.0764
  328MOL0     C43183  10.880  -0.805   7.005  0.2911  0.6059 -0.2770
  328MOL0     C43184  10.879  -0.917   6.899 -0.2175 -0.1565 -0.2149
  328MOL0     C43185  10.866  -1.056   6.956 -0.3878 -0.2569  0.8699
  328MOL0     C43186  10.987  -1.102   7.044 -1.4155 -0.1070 -0.0590
  328MOL0     C43187  11.122  -1.097   6.984  0.5002  0.3903 -0.7803
  328MOL0     O43188  11.152  -1.223   6.918 -0.3602  0.1880 -0.3532
  328MOL0     C43189  11.265  -1.233   6.844 -0.6740 -1.5095 -0.4003
  328MOL0     C43190  11.286  -1.349   6.781 -1.2284  1.0582 -0.2221
  328MOL0     C43191  11.393  -1.376   6.695  0.1566  0.0572 -0.3101
  328MOL0     C43192  11.502  -1.281   6.680  0.1240  0.3187  0.5763
  328MOL0     C43193  11.626  -1.317   6.606  0.6662 -0.2693  1.0337
  328MOL0     O43194  11.639  -1.442   6.561 -0.7264  0.8348  0.2439
  328MOL0     C43195  11.770  -1.485   6.530  0.8072  0.8605 -0.3226
  328MOL0     C43196  11.833  -1.583   6.614  0.0963  0.9544 -0.7724
  328MOL0     C43197  11.966  -1.615   6.621 -0.6814  0.2336  0.3008
  328MOL0     C43198  12.046  -1.543   6.532 -0.0729  0.4504  0.5616
  328MOL0     O43199  12.187  -1.540   6.531  0.6611  0.3389  0.2559
  328MOL0     C43200  12.229  -1.506   6.662 -1.0760  0.1677 -1.9151
  328MOL0     C43201  12.387  -1.522   6.671  1.1618 -0.0287 -1.1254
  328MOL0     C43202  12.470  -1.395   6.639  0.0909 -1.0155  0.9012
  328MOL0     C43203  12.621  -1.433   6.654 -0.7731  1.2483  0.1653
  328MOL0     C43204  12.717  -1.334   6.572  0.2926 -0.3882  0.2531
  328MOL0     C43205  12.847  -1.398   6.517 -1.0855 -0.0191 -0.5383
  328MOL0     C43206  12.930  -1.447   6.637  1.1382 -0.2502 -0.5329
  328MOL0     C43207  13.078  -1.451   6.596 -0.5410  0.9440 -0.9502
  328MOL0    Cl43208  13.173  -1.447   6.751  0.1217  0.1231  0.1847
  328MOL0     C43209  11.990  -1.459   6.433  0.3692 -0.8806 -0.0582
  328MOL0     C43210  11.856  -1.419   6.435 -0.6408 -0.0813 -0.6203
  328MOL0     O43211  11.711  -1.228   6.582  0.3999  0.4024 -0.6249
  328MOL0     C43212  11.474  -1.154   6.745 -0.8860 -0.4630  0.4098
  328MOL0     C43213  11.356  -1.133   6.823 -0.2433  0.2544  0.0292
  328MOL0     N43214  10.908  -0.808   7.140 -0.3753 -0.4356  0.1977
  328MOL0     N43215  10.868  -0.695   7.197  0.1909  1.4934  0.0040
  328MOL0     C43216  10.464   0.507   6.988 -0.9225 -0.1693 -0.3294
  328MOL0     C43217  10.518   0.638   6.994 -0.0867  0.2407 -0.0731
  328MOL0     C43218  10.752   1.009   7.158 -0.7896 -0.9271 -0.8694
  328MOL0     C43219  10.857   1.077   7.224 -0.7176  0.4108 -0.6635
  328MOL0     C43220  10.857   1.215   7.249 -0.1432  0.4342 -1.5616
  328MOL0     C43221  10.738   1.286   7.211  0.0265 -0.2866 -0.1084
  328MOL0     O43222  10.719   1.418   7.231 -0.1245 -0.3748 -0.1000
  328MOL0     C43223  10.808   1.484   7.321 -0.3562 -0.3826  0.0329
  328MOL0     C43224  10.752   1.615   7.370  0.2333 -0.8547  0.2926
  328MOL0     C43225  10.856   1.698   7.458  0.2592  0.1814  0.6652
  328MOL0     C43226  10.973   1.759   7.378  0.0114  1.3851 -0.1901
  328MOL0     C43227  11.092   1.794   7.470  0.0858  0.5274  0.6360
  328MOL0     C43228  11.163   1.823   7.563  0.2696 -0.4067  0.5121
  328MOL0     C43229  10.631   1.211   7.146 -0.2788 -0.2572 -0.0866
  328MOL0     C43230  10.634   1.078   7.126  0.4092  0.0839 -0.2847
  328MOL0     H43231  10.774   0.608   7.198  1.4925 -1.2486 -1.0811
  328MOL0     H43232  10.701   0.362   7.192  2.3974  1.0959  0.7677
  328MOL0     H43233  10.314   0.262   6.941 -2.9846 -1.5921  0.7296
  328MOL0     H43234  10.307   0.288   7.111 -2.0656  2.5107 -3.4768
  328MOL0     H43235  10.325   0.049   6.943  0.4621 -0.7812  0.4209
  328MOL0     H43236  10.244   0.070   7.097  0.4024 -2.2965  1.3123
  328MOL0     H43237  10.389  -0.077   7.194 -0.8334  0.6921  1.7122
  328MOL0     H43238  10.511   0.062   7.181 -0.5044  0.7180 -1.7986
  328MOL0     H43239  10.473  -0.123   6.961 -0.6491 -1.0651  0.4840
  328MOL0     H43240  10.618  -0.033   6.990 -0.4698  0.3492 -0.6984
  328MOL0     H43241  10.518  -0.270   7.135 -0.1833  0.2132  2.6205
  328MOL0     H43242  10.654  -0.176   7.199 -0.5830 -0.3812 -0.3499
  328MOL0     H43243  10.742  -0.197   6.946 -1.9748  0.6247 -1.9890
  328MOL0     H43244  10.624  -0.324   6.934  0.5488  1.2926 -1.4279
  328MOL0     H43245  10.870  -0.392   6.978 -0.4169  0.8849 -0.2621
  328MOL0     H43246  10.850  -0.316   7.136  0.7597  1.1449 -1.2542
  328MOL0     H43247  10.639  -0.515   7.062 -0.7569 -4.1690  2.3756
  328MOL0     H43248  10.695  -0.467   7.216  0.5714  2.5571 -0.8091
  328MOL0     H43249  10.789  -0.674   6.881  1.3479 -1.5177 -1.0840
  328MOL0     H43250  10.959  -0.915   6.825  1.2564 -1.3600  1.2888
  328MOL0     H43251  10.782  -0.910   6.849 -0.9329 -0.2981  1.0849
  328MOL0     H43252  10.858  -1.134   6.880  0.2159 -0.3625  0.9151
  328MOL0     H43253  10.780  -1.049   7.024 -1.2193  3.7610 -0.3164
  328MOL0     H43254  10.989  -1.059   7.144  0.1210 -3.8039  1.6666
  328MOL0     H43255  10.976  -1.206   7.076 -5.8840  0.7848  2.0281
  328MOL0     H43256  11.191  -1.089   7.069 -0.7508 -1.6239  0.4903
  328MOL0     H43257  11.129  -1.011   6.916  1.4369  1.3887  0.5227
  328MOL0     H43258  11.228  -1.436   6.810  0.5471 -0.5528 -1.2408
  328MOL0     H43259  11.393  -1.476   6.653  2.2179  0.0411 -0.3653
  328MOL0     H43260  11.777  -1.640   6.688  0.7676  0.1079 -0.8992
  328MOL0     H43261  12.001  -1.682   6.700  0.3165 -1.5633 -1.5638
  328MOL0     H43262  12.182  -1.572   6.735  2.3141 -0.9758 -0.5444
  328MOL0     H43263  12.228  -1.400   6.689  0.5553  0.2885 -2.1966
  328MOL0     H43264  12.403  -1.612   6.610 -1.7206 -1.4530  0.0403
  328MOL0     H43265  12.406  -1.546   6.776 -2.0623 -1.6437 -0.7774
  328MOL0     H43266  12.446  -1.313   6.707  3.4882  2.8125 -1.9790
  328MOL0     H43267  12.459  -1.364   6.534  1.1252  0.0136  1.0772
  328MOL0     H43268  12.653  -1.428   6.758  0.1105  2.2564 -0.1365
  328MOL0     H43269  12.640  -1.532   6.612  1.7198  1.4692  0.6091
  328MOL0     H43270  12.734  -1.252   6.641  1.3656  0.8902 -1.4551
  328MOL0     H43271  12.664  -1.306   6.480  0.7541 -3.8864 -1.2518
  328MOL0     H43272  12.896  -1.309   6.478 -1.8056  2.0320  2.8547
  328MOL0     H43273  12.844  -1.479   6.443  1.5340  1.5714 -2.5675
  328MOL0     H43274  12.916  -1.382   6.724  1.0225 -1.2393  0.1967
  328MOL0     H43275  12.911  -1.546   6.678  1.9524  0.4496  1.6838
  328MOL0     H43276  13.099  -1.355   6.548  0.0762  0.7394 -1.1082
  328MOL0     H43277  13.111  -1.528   6.526  1.7609  0.6779  0.2993
  328MOL0     H43278  12.062  -1.413   6.366  1.9359 -3.4025 -0.2123
  328MOL0     H43279  11.814  -1.336   6.381  2.0595  0.2775 -2.3937
  328MOL0     H43280  11.529  -1.064   6.720  1.3747 -1.2673  2.1447
  328MOL0     H43281  11.335  -1.035   6.865  1.5936 -0.3870  2.7327
  328MOL0     H43282  10.364   0.492   6.948 -1.3813  1.3874  0.1517
  328MOL0     H43283  10.449   0.718   6.970  0.2137 -0.1503 -2.4452
  328MOL0     H43284  10.943   1.016   7.250 -1.5790 -1.6488 -2.3352
  328MOL0     H43285  10.951   1.255   7.287  0.0306 -0.4752 -0.9945
  328MOL0     H43286  10.901   1.513   7.271 -0.9170  0.2393 -0.6821
  328MOL0     H43287  10.850   1.426   7.403  0.3630  0.1439  0.0480
  328MOL0     H43288  10.722   1.680   7.287 -0.0537 -1.2165  0.1120
  328MOL0     H43289  10.667   1.592   7.434 -1.3478 -4.2876 -2.7085
  328MOL0     H43290  10.898   1.627   7.529  4.6687  2.6137  0.8378
  328MOL0     H43291  10.804   1.772   7.520  2.7036  1.5316  1.2024
  328MOL0     H43292  11.011   1.687   7.304 -3.7373 -2.8035  1.4796
  328MOL0     H43293  10.926   1.835   7.316 -0.0395  1.5895  0.0979
  328MOL0     H43294  11.229   1.844   7.645  0.2938 -1.5165  0.7871
  328MOL0     H43295  10.536   1.263   7.142  0.7172  1.5780 -0.8707
  328MOL0     H43296  10.551   1.025   7.079  0.1367 -1.8369  2.1139
  329MOL0     O43297   3.234   6.689   3.650 -0.5220 -0.0641  0.2640
  329MOL0     C43298   3.332   6.614   3.638 -0.3074  0.1292 -0.5489
  329MOL0     O43299   3.372   6.542   3.528 -0.0235  0.1380 -0.2974
  329MOL0     C43300   3.306   6.567   3.410 -0.2826 -0.6039 -0.3399
  329MOL0     C43301   3.296   6.700   3.366 -0.0848 -0.4305 -0.7496
  329MOL0     C43302   3.228   6.728   3.254 -1.1297  0.0053 -0.5296
  329MOL0     C43303   3.160   6.626   3.185 -0.5872  0.5087  0.2325
  329MOL0     O43304   3.072   6.661   3.085  0.0404 -0.2287  0.0013
  329MOL0     C43305   3.111   6.607   2.963  0.6456 -0.1766  1.0341
  329MOL0     C43306   3.037   6.690   2.848 -0.2975  1.2636 -0.5054
  329MOL0     C43307   2.889   6.682   2.865 -0.5112  0.1689  0.0509
  329MOL0     C43308   2.832   6.539   2.878  0.5663  0.1669 -0.0914
  329MOL0     C43309   2.707   6.499   2.831  0.2287  0.0352  0.2067
  329MOL0     C43310   2.596   6.542   2.919  0.2115 -0.3421 -0.2786
  329MOL0     C43311   2.465   6.484   2.874  0.3095  0.3595  0.6704
  329MOL0     C43312   2.456   6.337   2.915  0.7017  0.4305  1.1357
  329MOL0     N43313   2.329   6.279   2.859  0.7498  0.1658 -0.8156
  329MOL0     C43314   2.214   6.252   2.932  0.4687 -0.3581 -0.6744
  329MOL0     C43315   2.139   6.168   2.861 -1.1318 -0.1041 -0.8515
  329MOL0     C43316   2.013   6.096   2.906 -0.1924  0.0853 -0.6969
  329MOL0     C43317   2.041   6.038   3.048 -0.2014 -0.2570  0.5438
  329MOL0     C43318   1.928   5.959   3.109  0.9485  0.1347  0.2228
  329MOL0     C43319   1.875   5.839   3.028  0.7660 -0.9272 -0.3394
  329MOL0     O43320   1.777   5.758   3.091 -0.4396  0.2878  0.9516
  329MOL0     C43321   1.799   5.722   3.220 -0.2291  0.4431 -0.4322
  329MOL0     C43322   1.737   5.799   3.324 -0.4413 -1.0101  0.6150
  329MOL0     C43323   1.741   5.776   3.452  0.1357  0.0576 -0.8386
  329MOL0     C43324   1.818   5.665   3.493 -0.1802  0.6566 -0.1802
  329MOL0     C43325   1.813   5.618   3.626 -0.2900  0.5827 -0.8082
  329MOL0     O43326   1.710   5.647   3.710  0.2979 -0.2827 -0.3255
  329MOL0     C43327   1.712   5.606   3.838  0.7637  0.5743 -0.3731
  329MOL0     C43328   1.738   5.469   3.871  1.0193  0.1579 -0.5101
  329MOL0     C43329   1.741   5.417   4.003  0.4757  0.1792  0.4474
  329MOL0     C43330   1.723   5.505   4.112  0.2043  1.2150  0.4499
  329MOL0     O43331   1.734   5.451   4.239  0.7810  0.2292 -0.4722
  329MOL0     C43332   1.682   5.519   4.352 -0.4340 -0.2557  0.4630
  329MOL0     C43333   1.729   5.458   4.482 -0.8556 -0.6086 -0.0769
  329MOL0     C43334   1.702   5.535   4.614  0.5590  0.6720  0.6033
  329MOL0     C43335   1.743   5.685   4.613 -0.1275  0.6463  0.6306
  329MOL0     C43336   1.740   5.746   4.750 -0.1413  0.3092  0.1919
  329MOL0     C43337   1.596   5.778   4.803  0.1039  0.5502  0.8413
  329MOL0     C43338   1.593   5.822   4.947  0.6109  0.1644 -0.8841
  329MOL0     C43339   1.462   5.879   4.995  0.0265  0.9174 -1.1577
  329MOL0    Cl43340   1.484   5.935   5.162  0.0189 -0.4499 -0.3653
  329MOL0     C43341   1.699   5.641   4.078 -0.6185 -0.8512 -0.5017
  329MOL0     C43342   1.685   5.686   3.948 -0.1436  0.0989 -0.8501
  329MOL0     O43343   1.907   5.538   3.654  0.8688 -0.7716 -0.0406
  329MOL0     C43344   1.885   5.587   3.392  0.6883  0.4243  0.3466
  329MOL0     C43345   1.867   5.610   3.255 -0.0544  0.4825  0.1481
  329MOL0     N43346   2.198   6.154   2.737 -0.5833 -0.1740  0.4389
  329MOL0     N43347   2.317   6.215   2.744  0.3623  0.6603 -0.3484
  329MOL0     C43348   3.169   6.496   3.230 -0.3191 -0.5526  0.0063
  329MOL0     C43349   3.248   6.465   3.331 -0.0396  0.1875 -0.4155
  329MOL0     C43350   3.408   6.609   3.763 -0.6352  1.0395 -0.2297
  329MOL0     C43351   3.370   6.675   3.881  0.1175 -0.1941 -0.4908
  329MOL0     C43352   3.442   6.669   4.003 -0.0964 -0.0046 -0.8524
  329MOL0     C43353   3.554   6.584   4.006  1.2827 -0.6695 -1.3330
  329MOL0     O43354   3.644   6.566   4.117  0.3248  0.8222 -0.3326
  329MOL0     C43355   3.605   6.631   4.241 -0.0884  1.0719 -0.7955
  329MOL0     C43356   3.494   6.557   4.325 -1.0493  1.0159 -0.5391
  329MOL0     C43357   3.490   6.401   4.320 -0.1253  0.3617 -0.8862
  329MOL0     C43358   3.588   6.345   4.422  0.3804  0.0288 -0.0997
  329MOL0     C43359   3.519   6.278   4.527  0.1542 -0.9596  0.0888
  329MOL0     C43360   3.443   6.228   4.605 -0.2685  0.8154 -0.0104
  329MOL0     C43361   3.597   6.525   3.896 -0.5698  0.8005  0.7007
  329MOL0     C43362   3.533   6.533   3.768 -0.1591  0.4219 -0.7015
  329MOL0     H43363   3.340   6.786   3.415 -3.6719  0.6305  0.9810
  329MOL0     H43364   3.220   6.828   3.211 -0.1335  0.6093  0.6304
  329MOL0     H43365   3.091   6.499   2.956 -0.0910 -0.0122  0.4357
  329MOL0     H43366   3.216   6.634   2.954 -0.0193  1.9082 -1.7693
  329MOL0     H43367   3.066   6.641   2.755  1.1744 -2.9584  1.9345
  329MOL0     H43368   3.068   6.795   2.840 -0.5255  1.2767 -1.3886
  329MOL0     H43369   2.845   6.718   2.772 -0.3936  3.0360  0.9846
  329MOL0     H43370   2.851   6.751   2.940 -0.6788  0.7518 -0.5587
  329MOL0     H43371   2.897   6.479   2.814 -1.5021 -2.4380  0.0513
  329MOL0     H43372   2.842   6.507   2.983 -2.8596 -0.9458  0.0287
  329MOL0     H43373   2.710   6.390   2.821 -3.1488 -0.0424 -1.3672
  329MOL0     H43374   2.687   6.552   2.737  0.3920 -1.5591 -0.7630
  329MOL0     H43375   2.591   6.650   2.931  1.3613 -0.4367  1.2856
  329MOL0     H43376   2.610   6.503   3.020  1.1713  1.2357  0.2182
  329MOL0     H43377   2.385   6.547   2.915 -1.0975 -1.3117  0.6520
  329MOL0     H43378   2.450   6.493   2.766  1.8644  0.8426  0.4709
  329MOL0     H43379   2.467   6.327   3.023  2.6222 -1.1656  0.8652
  329MOL0     H43380   2.539   6.282   2.869 -0.2174 -0.2761  0.2653
  329MOL0     H43381   2.195   6.272   3.037  0.6069 -4.5408  0.3171
  329MOL0     H43382   1.967   6.019   2.844 -4.4631  0.4288  1.6866
  329MOL0     H43383   1.935   6.171   2.919 -0.2070  0.1833 -1.3302
  329MOL0     H43384   2.069   6.105   3.129  0.9965 -2.0060  1.6405
  329MOL0     H43385   2.124   5.970   3.029 -3.2101 -3.4157 -3.0512
  329MOL0     H43386   1.952   5.933   3.212 -0.4358 -0.6768  0.3662
  329MOL0     H43387   1.843   6.028   3.103  1.3419  0.5481 -0.9380
  329MOL0     H43388   1.966   5.780   3.019  1.4331 -0.1034  0.7642
  329MOL0     H43389   1.845   5.875   2.929  3.2333  0.3967 -0.6720
  329MOL0     H43390   1.671   5.880   3.295  0.9353 -0.4715 -1.2455
  329MOL0     H43391   1.687   5.838   3.523 -0.6392 -1.4827 -0.0480
  329MOL0     H43392   1.751   5.398   3.790  2.7485 -2.4474  1.8729
  329MOL0     H43393   1.776   5.319   4.033 -0.1702  0.2894  1.6216
  329MOL0     H43394   1.573   5.520   4.350 -0.4246  0.6329  0.2641
  329MOL0     H43395   1.716   5.622   4.365 -3.0299  0.9098 -1.1697
  329MOL0     H43396   1.837   5.439   4.476 -0.8781 -0.6356 -0.4015
  329MOL0     H43397   1.674   5.365   4.498 -1.3044 -0.1002  1.5554
  329MOL0     H43398   1.767   5.487   4.689 -0.0600 -3.0725 -1.0389
  329MOL0     H43399   1.596   5.524   4.639  0.8312  0.9573  2.0000
  329MOL0     H43400   1.839   5.694   4.563 -1.9947 -1.6743 -3.9407
  329MOL0     H43401   1.681   5.740   4.542  1.0330 -2.1957 -2.8938
  329MOL0     H43402   1.790   5.843   4.737 -1.4574  0.7179 -2.2700
  329MOL0     H43403   1.790   5.685   4.826 -2.5918  0.0618  1.6926
  329MOL0     H43404   1.536   5.688   4.786 -0.1528  0.6712  1.0925
  329MOL0     H43405   1.559   5.867   4.751  0.0293  0.6323  1.0313
  329MOL0     H43406   1.620   5.741   5.016 -2.2183  0.6959  1.0099
  329MOL0     H43407   1.668   5.900   4.960  0.7066  0.1224 -1.1920
  329MOL0     H43408   1.401   5.790   5.015  2.5968 -0.1614  3.0476
  329MOL0     H43409   1.426   5.948   4.918 -1.7973  3.1403  1.5168
  329MOL0     H43410   1.688   5.717   4.155 -1.1190 -0.2147 -1.1982
  329MOL0     H43411   1.669   5.791   3.924 -1.9622 -0.4373 -2.1957
  329MOL0     H43412   1.950   5.502   3.407  2.3914  1.2070 -2.0284
  329MOL0     H43413   1.908   5.543   3.180 -1.5862 -2.4049  1.7289
  329MOL0     H43414   3.110   6.423   3.175  1.7227 -1.2643 -1.3716
  329MOL0     H43415   3.255   6.358   3.351 -2.6343 -0.1308 -0.8250
  329MOL0     H43416   3.286   6.742   3.869 -1.2652 -1.1995  2.5941
  329MOL0     H43417   3.402   6.711   4.095  1.1684  2.3390 -1.2964
  329MOL0     H43418   3.572   6.733   4.219  2.8794  1.8916 -2.0876
  329MOL0     H43419   3.692   6.646   4.306 -2.0576  0.4310  2.1586
  329MOL0     H43420   3.513   6.594   4.426  0.1721  0.3711 -0.5055
  329MOL0     H43421   3.394   6.583   4.288 -2.6419 -0.8900  2.0709
  329MOL0     H43422   3.501   6.349   4.224  2.0911 -0.1209 -0.4107
  329MOL0     H43423   3.389   6.365   4.344  0.7305  0.8463  4.5830
  329MOL0     H43424   3.662   6.281   4.374  0.1684 -0.1818 -0.1520
  329MOL0     H43425   3.649   6.423   4.468  0.2182  0.4610 -0.6038
  329MOL0     H43426   3.387   6.161   4.668  0.6999 -0.8641 -0.8469
  329MOL0     H43427   3.686   6.464   3.885  0.6186  2.8833 -2.7557
  329MOL0     H43428   3.573   6.493   3.676  2.3208  1.0634  0.0300
  330MOL0     O43429   1.104  10.805  10.403 -0.0124 -0.5485 -1.0632
  330MOL0     C43430   1.105  10.894  10.316  0.6313  0.1045 -0.2832
  330MOL0     O43431   1.212  10.938  10.247 -1.1261 -0.4654 -1.0579
  330MOL0     C43432   1.321  10.852  10.225  0.4413  0.8101  0.4731
  330MOL0     C43433   1.333  10.709  10.259  0.2931 -0.2652  0.1590
  330MOL0     C43434   1.442  10.631  10.211 -0.1189  0.2625 -1.5594
  330MOL0     C43435   1.545  10.691  10.152  0.4074 -0.4395 -0.4612
  330MOL0     O43436   1.656  10.630  10.110  0.0091  0.7578  0.1518
  330MOL0     C43437   1.688  10.503  10.170 -0.0234 -0.2952 -0.5428
  330MOL0     C43438   1.642  10.383  10.086  0.1851  1.0593  0.7202
  330MOL0     C43439   1.647  10.260  10.179 -0.0125 -0.7284  0.5291
  330MOL0     C43440   1.578  10.151  10.103 -0.3688  0.6388 -0.5991
  330MOL0     C43441   1.578  10.031  10.198  0.5833  0.9211  0.0642
  330MOL0     C43442   1.581   9.884  10.137 -1.3287  0.0909  0.1089
  330MOL0     C43443   1.452   9.822  10.089  0.1872  0.3015 -0.2001
  330MOL0     C43444   1.381   9.882   9.968  0.4191  0.6649 -0.2415
  330MOL0     N43445   1.468   9.940   9.867 -0.4262  0.5680 -0.1334
  330MOL0     C43446   1.458  10.060   9.809  1.2328 -0.2091 -0.2387
  330MOL0     C43447   1.503  10.048   9.684 -0.5803  0.1682  0.6162
  330MOL0     C43448   1.496  10.141   9.558  1.1246 -0.6013 -0.5411
  330MOL0     C43449   1.522  10.286   9.606 -0.1834 -0.1691  0.2666
  330MOL0     C43450   1.496  10.372   9.487  0.3829  0.3189 -0.3668
  330MOL0     C43451   1.558  10.514   9.505 -1.4106  0.6161  0.0299
  330MOL0     O43452   1.520  10.580   9.621  0.5657 -1.2029  0.6102
  330MOL0     C43453   1.565  10.706   9.661  0.6154  1.6738  0.4422
  330MOL0     C43454   1.663  10.773   9.591 -0.1282 -1.4662  0.1344
  330MOL0     C43455   1.711  10.904   9.622  0.5889 -1.0813  0.0148
  330MOL0     C43456   1.646  10.970   9.732  0.3876  0.1016 -0.8353
  330MOL0     C43457   1.686  11.102   9.772 -0.3056 -0.6398 -0.1700
  330MOL0     O43458   1.819  11.134   9.748 -0.4826  0.2379 -0.1068
  330MOL0     C43459   1.854  11.261   9.786  0.5964  1.2959  0.5176
  330MOL0     C43460   1.909  11.284   9.911  0.2389 -0.8148 -0.0057
  330MOL0     C43461   1.959  11.418   9.937  0.5083  0.1913  0.3012
  330MOL0     C43462   1.941  11.517   9.835 -0.4655  0.1673 -0.2143
  330MOL0     O43463   2.002  11.642   9.831  0.1204  0.2666 -0.2034
  330MOL0     C43464   2.129  11.638   9.760  0.8707 -0.0921  0.6255
  330MOL0     C43465   2.195  11.774   9.787 -0.3013  0.8609  0.5888
  330MOL0     C43466   2.250  11.788   9.932 -1.0113  0.1189 -0.5331
  330MOL0     C43467   2.312  11.921   9.960  0.9830  0.5365 -0.2081
  330MOL0     C43468   2.444  11.949   9.891  0.1615  0.4153  0.0388
  330MOL0     C43469   2.551  12.040   9.959 -0.1268  0.2351 -0.1530
  330MOL0     C43470   2.528  12.066  10.113 -0.8114  0.4532 -1.0853
  330MOL0     C43471   2.652  12.114  10.173  1.7463  0.0304 -0.0878
  330MOL0    Cl43472   2.643  12.129  10.350 -0.3530 -0.6880 -0.4007
  330MOL0     C43473   1.882  11.491   9.714  0.5165  0.1854 -0.7294
  330MOL0     C43474   1.838  11.360   9.687  1.0056 -0.4217 -1.0041
  330MOL0     O43475   1.599  11.181   9.813 -0.1418  0.3674  0.0968
  330MOL0     C43476   1.547  10.901   9.811  0.3040  0.1240  0.0942
  330MOL0     C43477   1.504  10.774   9.767 -1.3508  0.0655  0.2838
  330MOL0     N43478   1.556   9.922   9.672 -0.1079  0.1237 -0.9343
  330MOL0     N43479   1.550   9.863   9.790 -0.3802 -0.0238  0.0419
  330MOL0     C43480   1.542  10.827  10.132  0.0955 -0.5281  0.7044
  330MOL0     C43481   1.427  10.909  10.153 -0.3038 -0.2150  0.2784
  330MOL0     C43482   0.981  10.960  10.287 -0.2127 -0.4598  0.7009
  330MOL0     C43483   0.974  11.077  10.209 -0.2694  0.9279  0.4245
  330MOL0     C43484   0.847  11.137  10.181 -0.2898  0.3189  0.1141
  330MOL0     C43485   0.736  11.063  10.212 -0.2144 -0.7409 -0.0028
  330MOL0     O43486   0.608  11.097  10.160  0.0588  0.8130 -0.1913
  330MOL0     C43487   0.534  11.186  10.248  0.5772 -0.4968  0.4042
  330MOL0     C43488   0.403  11.211  10.168  0.6714  0.1416  0.4895
  330MOL0     C43489   0.328  11.081  10.167  0.2144 -0.0326 -0.4998
  330MOL0     C43490   0.236  11.065  10.282  0.8154  0.0845  0.7446
  330MOL0     C43491   0.196  10.935  10.288 -0.1449  0.1095 -0.6367
  330MOL0     C43492   0.168  10.817  10.293 -0.6938 -0.0127 -0.0612
  330MOL0     C43493   0.740  10.946  10.280  0.2328  0.6078  0.2491
  330MOL0     C43494   0.863  10.891  10.324 -0.1184 -1.3660  0.6578
  330MOL0     H43495   1.250  10.664  10.313  1.4260 -0.5250  1.7531
  330MOL0     H43496   1.441  10.527  10.244  3.4404  0.8737  0.9826
  330MOL0     H43497   1.655  10.493  10.273  2.2724 -1.2244  0.1838
  330MOL0     H43498   1.798  10.506  10.167 -0.0259 -0.7996 -2.9115
  330MOL0     H43499   1.691  10.361   9.991 -2.8493  0.7220 -0.8727
  330MOL0     H43500   1.534  10.391  10.071  0.0746 -0.9777  0.1635
  330MOL0     H43501   1.593  10.280  10.272 -1.5237  0.4162 -0.5454
  330MOL0     H43502   1.751  10.236  10.202  0.6504  1.4304 -0.0269
  330MOL0     H43503   1.473  10.167  10.077 -1.1609 -0.0746  1.8642
  330MOL0     H43504   1.632  10.126  10.011  0.1105  3.2141 -1.0954
  330MOL0     H43505   1.492  10.040  10.265 -0.1694 -0.2140 -0.7156
  330MOL0     H43506   1.657  10.036  10.273 -0.5224  1.7868  1.2237
  330MOL0     H43507   1.622   9.828  10.222  1.2364 -1.8494 -2.2491
  330MOL0     H43508   1.647   9.871  10.051 -1.0215 -0.4686  0.4239
  330MOL0     H43509   1.463   9.718  10.056 -0.8349  0.4744 -1.1782
  330MOL0     H43510   1.386   9.811  10.175 -1.4724 -0.1936 -1.4848
  330MOL0     H43511   1.313   9.958  10.009 -2.7859 -1.0028 -2.1478
  330MOL0     H43512   1.319   9.801   9.931  0.3414  0.5430  0.1549
  330MOL0     H43513   1.398  10.148   9.833  2.3945  0.3827  0.6483
  330MOL0     H43514   1.397  10.128   9.513  0.9223  0.1238 -0.3344
  330MOL0     H43515   1.566  10.117   9.477  2.3617  1.8502 -0.2944
  330MOL0     H43516   1.628  10.296   9.631 -0.3687 -0.2071  1.0964
  330MOL0     H43517   1.463  10.312   9.694 -1.1659 -0.1734 -0.3778
  330MOL0     H43518   1.545  10.318   9.405  0.1251  0.7150 -0.7829
  330MOL0     H43519   1.390  10.366   9.464 -1.0396  1.9642  4.4503
  330MOL0     H43520   1.549  10.564   9.408 -1.0073  1.5420  0.4541
  330MOL0     H43521   1.667  10.506   9.513 -1.4267  1.9173  2.7094
  330MOL0     H43522   1.704  10.722   9.504  0.2240 -2.4680  0.8659
  330MOL0     H43523   1.796  10.958   9.582  1.7158 -2.5899  0.2498
  330MOL0     H43524   1.916  11.197   9.975  5.1520 -0.0873  0.8108
  330MOL0     H43525   1.996  11.441  10.037 -0.0174 -0.0048  0.5441
  330MOL0     H43526   2.117  11.631   9.652  1.7755  0.1482  0.5040
  330MOL0     H43527   2.198  11.557   9.786  1.9055  1.2305  2.1736
  330MOL0     H43528   2.124  11.853   9.761  1.5089  2.0247 -1.1211
  330MOL0     H43529   2.273  11.785   9.712 -1.1785  2.7088 -0.1066
  330MOL0     H43530   2.321  11.709   9.957 -2.2087 -1.6627 -2.4895
  330MOL0     H43531   2.170  11.784  10.006  0.5466 -0.4594  1.2031
  330MOL0     H43532   2.242  12.004   9.946  1.7593  1.4543  1.1721
  330MOL0     H43533   2.321  11.914  10.069  1.8077 -3.6206 -0.3606
  330MOL0     H43534   2.420  11.987   9.792 -0.0234 -1.2580 -0.6047
  330MOL0     H43535   2.492  11.851   9.879  3.3479  1.7743  0.8212
  330MOL0     H43536   2.556  12.139   9.913 -0.0184  0.6642  0.7619
  330MOL0     H43537   2.651  12.000   9.942  2.3069  4.9690  1.1501
  330MOL0     H43538   2.454  12.144  10.132  0.2428  0.8243  2.1220
  330MOL0     H43539   2.502  11.970  10.159 -3.0767  1.3942 -0.2877
  330MOL0     H43540   2.671  12.220  10.152 -2.6841  1.0211 -0.0850
  330MOL0     H43541   2.736  12.044  10.163  1.3270 -0.7602  1.5786
  330MOL0     H43542   1.880  11.576   9.647  0.1346  1.7722  1.1976
  330MOL0     H43543   1.789  11.329   9.595  0.0055 -1.9315 -0.0084
  330MOL0     H43544   1.494  10.934   9.900 -3.0714  0.8058 -1.9655
  330MOL0     H43545   1.410  10.739   9.809 -0.8769 -2.9289 -0.9330
  330MOL0     H43546   1.620  10.870  10.070 -2.1900  0.2850 -1.7564
  330MOL0     H43547   1.417  11.010  10.114 -2.1867 -1.4740 -2.8417
  330MOL0     H43548   1.062  11.128  10.173 -1.4838  0.5968 -3.4713
  330MOL0     H43549   0.847  11.233  10.130  1.8347 -0.1768 -0.9694
  330MOL0     H43550   0.582  11.284  10.252 -2.0861  0.9937 -1.0168
  330MOL0     H43551   0.517  11.145  10.348  2.2570  0.6277  1.1849
  330MOL0     H43552   0.341  11.298  10.189 -1.2580 -0.3183 -2.6893
  330MOL0     H43553   0.423  11.231  10.062 -3.0103  0.7393 -0.2066
  330MOL0     H43554   0.388  10.991  10.150 -1.0142 -0.7436 -1.2085
  330MOL0     H43555   0.268  11.090  10.076 -2.2743 -0.1501  1.0435
  330MOL0     H43556   0.271  11.099  10.380 -3.1563 -2.7726  3.4767
  330MOL0     H43557   0.147  11.124  10.260 -0.4748 -2.5511 -1.7380
  330MOL0     H43558   0.148  10.713  10.308 -0.6048  0.1010  0.8940
  330MOL0     H43559   0.651  10.888  10.304 -0.5762  2.1655  1.1744
  330MOL0     H43560   0.862  10.808  10.393  1.8373 -1.6406  0.4053
  331MOL0     O43561   2.175   8.851  10.983  0.1470  0.6470  0.0249
  331MOL0     C43562   2.103   8.755  10.949  0.2593 -0.0636 -0.1487
  331MOL0     O43563   1.970   8.737  10.990 -0.6698  0.1537  0.8832
  331MOL0     C43564   1.921   8.818  11.086 -0.3923 -0.1868 -0.3436
  331MOL0     C43565   1.822   8.910  11.059 -0.0348 -0.2199 -0.0677
  331MOL0     C43566   1.772   8.991  11.169 -0.1983 -0.6869  0.2079
  331MOL0     C43567   1.832   8.984  11.296 -0.1702  0.2029  0.0663
  331MOL0     O43568   1.790   9.047  11.413 -0.2340 -0.2471 -0.1220
  331MOL0     C43569   1.746   9.186  11.400  0.4750  0.4714 -0.3496
  331MOL0     C43570   1.771   9.282  11.516  0.1179 -0.1946 -0.3201
  331MOL0     C43571   1.736   9.425  11.495  0.2481  0.0497 -0.6831
  331MOL0     C43572   1.773   9.509  11.617  1.1176 -0.3837  0.7326
  331MOL0     C43573   1.662   9.587  11.689  0.3707 -0.0212 -0.2265
  331MOL0     C43574   1.719   9.699  11.780  0.3644  0.2193  0.1007
  331MOL0     C43575   1.604   9.772  11.850  0.1835 -0.2144 -0.0761
  331MOL0     C43576   1.503   9.850  11.766 -0.0299 -1.9286 -0.2623
  331MOL0     N43577   1.391   9.908  11.843  0.2131  1.0702  0.0149
  331MOL0     C43578   1.392   9.907  11.981  0.7978  1.2701  0.3582
  331MOL0     C43579   1.275   9.970  12.008 -0.0213 -0.1114 -0.1977
  331MOL0     C43580   1.229   9.993  12.150 -0.3788  1.2254 -0.1799
  331MOL0     C43581   1.245  10.136  12.183 -0.9901  0.5831 -0.3979
  331MOL0     C43582   1.390  10.185  12.178 -0.4639 -0.4114  0.3688
  331MOL0     C43583   1.482  10.155  12.292  0.5295 -0.6174  1.1132
  331MOL0     O43584   1.610  10.179  12.244 -0.0689 -0.1456 -0.1220
  331MOL0     C43585   1.718  10.118  12.299 -1.1167 -0.3121  0.0741
  331MOL0     C43586   1.823  10.061  12.223  0.4416  0.9204  0.1859
  331MOL0     C43587   1.937   9.999  12.278 -0.4730 -0.8034  0.9926
  331MOL0     C43588   1.948   9.983  12.416  0.0735 -1.1622  0.7874
  331MOL0     C43589   2.064   9.926  12.475  0.2799 -0.2791 -1.2246
  331MOL0     O43590   2.072   9.923  12.618  0.3364  1.0332  0.3482
  331MOL0     C43591   2.177   9.872  12.696 -0.5875 -1.4284  0.3980
  331MOL0     C43592   2.272   9.782  12.647 -0.6927  0.0391  1.1418
  331MOL0     C43593   2.382   9.749  12.722 -0.3782  0.1800 -0.2011
  331MOL0     C43594   2.396   9.796  12.856  0.3995  0.0455  0.4634
  331MOL0     O43595   2.492   9.737  12.930 -0.0418  0.5726 -0.2248
  331MOL0     C43596   2.547   9.798  13.047  0.1601 -0.4701 -0.4496
  331MOL0     C43597   2.694   9.760  13.068  0.4462  0.3963  1.2793
  331MOL0     C43598   2.767   9.853  13.169  0.0537  0.7053  0.7721
  331MOL0     C43599   2.704   9.851  13.312  0.1895  0.3460 -0.6301
  331MOL0     C43600   2.817   9.864  13.419 -0.4015  0.6372 -1.8790
  331MOL0     C43601   2.772   9.831  13.565 -0.9217 -0.3351 -0.2333
  331MOL0     C43602   2.732   9.686  13.579 -0.5033  0.7298 -0.4867
  331MOL0     C43603   2.712   9.635  13.727  0.3496 -1.6031 -0.4967
  331MOL0    Cl43604   2.859   9.669  13.825 -0.0041  0.1533 -0.0382
  331MOL0     C43605   2.289   9.875  12.908 -0.7643  1.0178 -0.1487
  331MOL0     C43606   2.185   9.917  12.825 -0.2222  0.5627 -0.0886
  331MOL0     O43607   2.141   9.865  12.404  1.1447  0.4958 -0.5319
  331MOL0     C43608   1.857  10.063  12.492 -0.1664 -0.3006 -0.0318
  331MOL0     C43609   1.743  10.128  12.436 -1.1334  0.0112 -0.5091
  331MOL0     N43610   1.209  10.003  11.886 -0.5674  0.1522 -0.4206
  331MOL0     N43611   1.292   9.978  11.788 -0.4583  0.0322 -0.5108
  331MOL0     C43612   1.940   8.895  11.315 -0.3717  0.5815 -0.6156
  331MOL0     C43613   1.977   8.810  11.211 -0.2760  1.1920 -0.5923
  331MOL0     C43614   2.159   8.656  10.850  0.8227 -0.4236 -0.5747
  331MOL0     C43615   2.303   8.623  10.853  0.5431 -0.7246  1.0894
  331MOL0     C43616   2.351   8.539  10.757  0.3208  0.9714 -0.0974
  331MOL0     C43617   2.272   8.485  10.654 -0.0507  0.3915 -0.6414
  331MOL0     O43618   2.316   8.402  10.553  0.3690 -0.1735  0.4325
  331MOL0     C43619   2.370   8.281  10.606  0.0546  1.2901 -0.3828
  331MOL0     C43620   2.458   8.199  10.512  0.4729  1.0239  0.6776
  331MOL0     C43621   2.590   8.273  10.492 -0.2823 -0.2535 -0.5435
  331MOL0     C43622   2.693   8.199  10.398  0.3212 -0.1009 -0.5304
  331MOL0     C43623   2.791   8.112  10.476  0.3017  0.2130 -0.3357
  331MOL0     C43624   2.872   8.049  10.529 -0.8828  0.7512  0.4692
  331MOL0     C43625   2.128   8.506  10.664  0.2871  0.0683 -0.0468
  331MOL0     C43626   2.074   8.598  10.762 -0.7614  0.5473  0.1619
  331MOL0     H43627   1.771   8.917  10.963 -1.1538  1.1017  0.5910
  331MOL0     H43628   1.699   9.066  11.143  0.3829  0.8645  2.7078
  331MOL0     H43629   1.637   9.179  11.385  0.6611 -1.4418 -1.1403
  331MOL0     H43630   1.800   9.223  11.314  3.4827 -1.5697  0.5043
  331MOL0     H43631   1.880   9.279  11.519  0.2367 -1.2359 -3.0084
  331MOL0     H43632   1.735   9.244  11.612  1.8426 -0.2937  0.3107
  331MOL0     H43633   1.626   9.423  11.498  0.2128  1.4863 -0.0392
  331MOL0     H43634   1.767   9.461  11.396 -3.6694  4.1977 -0.7532
  331MOL0     H43635   1.827   9.457  11.697  0.1730 -0.7213  1.1613
  331MOL0     H43636   1.841   9.584  11.577  0.1824 -0.1967 -0.5488
  331MOL0     H43637   1.595   9.533  11.757  0.1020  2.2556  1.4205
  331MOL0     H43638   1.596   9.636  11.617  0.3701  0.4037  0.0612
  331MOL0     H43639   1.761   9.770  11.709 -1.9661  3.0897  1.3582
  331MOL0     H43640   1.800   9.676  11.850  3.0494  4.2765 -1.3365
  331MOL0     H43641   1.541   9.708  11.913 -0.3552 -0.2923 -0.6791
  331MOL0     H43642   1.649   9.833  11.929  0.7963 -0.2112 -0.4271
  331MOL0     H43643   1.453   9.790  11.690  1.3311 -1.8621 -1.2340
  331MOL0     H43644   1.555   9.935  11.720  1.2515 -1.9704  1.0242
  331MOL0     H43645   1.457   9.877  12.063 -1.9498  3.6565  3.7025
  331MOL0     H43646   1.290   9.939  12.224 -3.8740 -1.5977  0.9479
  331MOL0     H43647   1.126   9.958  12.161  0.0722  0.1604  0.8788
  331MOL0     H43648   1.212  10.156  12.286 -0.6860  0.7765 -0.3368
  331MOL0     H43649   1.184  10.193  12.112 -0.4904  1.7760  0.1063
  331MOL0     H43650   1.439  10.167  12.082  0.8785 -1.9170  1.2911
  331MOL0     H43651   1.380  10.294  12.191  1.1744 -0.3783  1.6715
  331MOL0     H43652   1.472  10.047  12.311 -1.8935 -0.8823 -1.0714
  331MOL0     H43653   1.450  10.217  12.376  3.0243  2.0974  0.2085
  331MOL0     H43654   1.812  10.056  12.115  2.3033 -3.1913 -0.0021
  331MOL0     H43655   2.017   9.964  12.214  2.3323  0.5054  3.5476
  331MOL0     H43656   2.265   9.745  12.545  0.5222  2.3909  0.1474
  331MOL0     H43657   2.453   9.671  12.695  0.3294 -0.7174  3.6768
  331MOL0     H43658   2.488   9.784  13.138  0.8695  1.2826  0.3059
  331MOL0     H43659   2.550   9.906  13.031 -4.0482  0.1478  1.6010
  331MOL0     H43660   2.737   9.744  12.968 -0.2936 -3.3650  1.4218
  331MOL0     H43661   2.697   9.657  13.104 -0.8608 -0.5635 -1.1025
  331MOL0     H43662   2.772   9.957  13.138  2.9061  0.2877 -0.4944
  331MOL0     H43663   2.872   9.822  13.174  0.1389  1.0844  1.4906
  331MOL0     H43664   2.626   9.927  13.325 -1.4568 -1.5311  1.0634
  331MOL0     H43665   2.649   9.760  13.337 -0.2514  0.3128 -1.6676
  331MOL0     H43666   2.847   9.969  13.417  0.9453  0.3038 -0.6481
  331MOL0     H43667   2.900   9.801  13.385 -1.1422  0.0682 -2.7190
  331MOL0     H43668   2.691   9.894  13.602 -2.0066 -2.8440  1.9695
  331MOL0     H43669   2.850   9.858  13.637 -1.1197 -0.8787  0.1850
  331MOL0     H43670   2.643   9.659  13.521 -0.6764  1.6972 -0.6985
  331MOL0     H43671   2.823   9.643  13.538 -0.5987 -0.4206  0.4607
  331MOL0     H43672   2.678   9.531  13.731  1.2932 -1.9449 -1.0502
  331MOL0     H43673   2.627   9.691  13.768  0.3006 -1.9209 -0.1611
  331MOL0     H43674   2.286   9.911  13.010 -0.0133  0.7642 -0.0281
  331MOL0     H43675   2.098   9.970  12.863 -0.6611 -1.3709  1.8138
  331MOL0     H43676   1.872  10.075  12.599 -1.8719  1.4421  0.0770
  331MOL0     H43677   1.673  10.177  12.503 -1.7685 -0.5066 -0.7913
  331MOL0     H43678   1.983   8.903  11.415 -0.9551  0.9024 -0.3842
  331MOL0     H43679   2.056   8.738  11.226 -1.2471 -0.3362 -2.3827
  331MOL0     H43680   2.365   8.668  10.930 -2.6099  0.9110  2.8515
  331MOL0     H43681   2.456   8.526  10.781  0.8322  3.3040 -0.8445
  331MOL0     H43682   2.287   8.213  10.628  0.6594  1.5124  3.1816
  331MOL0     H43683   2.421   8.300  10.701  2.4419  0.3475 -1.3907
  331MOL0     H43684   2.469   8.097  10.547 -3.7665 -0.6097 -1.9117
  331MOL0     H43685   2.407   8.189  10.415 -0.3453  0.3112  1.1669
  331MOL0     H43686   2.641   8.296  10.586  0.1454 -1.3914 -0.4821
  331MOL0     H43687   2.567   8.363  10.434  1.3202  0.5952  0.0767
  331MOL0     H43688   2.634   8.135  10.332  0.0963 -2.1345  1.4933
  331MOL0     H43689   2.747   8.270  10.335 -1.6188  0.4562 -1.6207
  331MOL0     H43690   2.949   8.006  10.590  0.3700  2.1786 -0.0588
  331MOL0     H43691   2.063   8.456  10.593  0.5063  0.4072 -0.4893
  331MOL0     H43692   1.966   8.602  10.768 -0.8002  0.7175 -0.5929
  332MOL0     O43693   4.712   1.111   5.644 -0.1138 -1.1427  0.1127
  332MOL0     C43694   4.803   1.150   5.708 -0.3296 -0.2286  0.3863
  332MOL0     O43695   4.860   1.084   5.812 -0.6161  0.3144  0.5938
  332MOL0     C43696   4.837   0.950   5.822 -0.2169  0.5637 -0.7705
  332MOL0     C43697   4.859   0.857   5.717  0.9094 -0.4726  0.1336
  332MOL0     C43698   4.828   0.725   5.735 -0.9404  0.3037  1.3557
  332MOL0     C43699   4.766   0.679   5.855  0.3764 -0.2824  0.1198
  332MOL0     O43700   4.721   0.558   5.868  0.0256 -0.6637  0.1307
  332MOL0     C43701   4.697   0.468   5.753 -0.2747  0.1019 -0.1398
  332MOL0     C43702   4.672   0.331   5.811  0.3265 -0.2390  1.0460
  332MOL0     C43703   4.537   0.305   5.878 -0.4855 -0.5675  0.2424
  332MOL0     C43704   4.424   0.296   5.777 -1.1837  0.6419  0.1736
  332MOL0     C43705   4.294   0.314   5.855  0.1920 -0.7775  0.0732
  332MOL0     C43706   4.165   0.326   5.773  0.1297  0.0567 -0.1265
  332MOL0     C43707   4.149   0.468   5.719 -1.1011  0.5109  0.0501
  332MOL0     C43708   4.039   0.486   5.625  0.2110 -0.2395 -0.3350
  332MOL0     N43709   3.913   0.441   5.687 -0.1358 -0.4026  0.0267
  332MOL0     C43710   3.819   0.372   5.613  0.4530  0.5776  0.1470
  332MOL0     C43711   3.734   0.348   5.712  0.1958 -0.2210  0.1549
  332MOL0     C43712   3.623   0.241   5.715  0.0175  0.4810  0.0896
  332MOL0     C43713   3.523   0.274   5.598 -0.6920  0.3396 -0.2843
  332MOL0     C43714   3.411   0.173   5.609  1.0392  0.9142 -0.2940
  332MOL0     C43715   3.283   0.244   5.546 -0.1935 -0.2514 -0.0068
  332MOL0     O43716   3.297   0.310   5.423  0.2853 -0.3222 -0.2472
  332MOL0     C43717   3.351   0.266   5.307 -0.3108 -0.3667 -0.4223
  332MOL0     C43718   3.436   0.340   5.225  0.6329  0.1738  0.6524
  332MOL0     C43719   3.504   0.287   5.111  0.4432 -0.1798  0.5845
  332MOL0     C43720   3.487   0.150   5.072  0.2385 -0.2889 -0.1309
  332MOL0     C43721   3.534   0.100   4.939 -0.6184 -0.0952 -0.8933
  332MOL0     O43722   3.550  -0.037   4.909 -0.3959  0.3160 -0.4133
  332MOL0     C43723   3.593  -0.071   4.780  0.7626  0.1737  0.6737
  332MOL0     C43724   3.701  -0.005   4.716  0.2358 -0.2973 -0.9136
  332MOL0     C43725   3.753  -0.048   4.598  0.1914  0.4292  0.6340
  332MOL0     C43726   3.703  -0.159   4.531  0.2045  0.0668  1.0551
  332MOL0     O43727   3.758  -0.195   4.411 -0.3465  0.3347  0.2329
  332MOL0     C43728   3.814  -0.324   4.388 -0.0896 -0.0054 -0.4382
  332MOL0     C43729   3.909  -0.319   4.266  0.6926  0.1815  0.1133
  332MOL0     C43730   4.013  -0.215   4.287 -0.0724  0.1104  0.0866
  332MOL0     C43731   4.146  -0.246   4.224  0.4379  0.4022  0.4088
  332MOL0     C43732   4.263  -0.146   4.247  0.4609  0.1265  0.7095
  332MOL0     C43733   4.280  -0.120   4.396  0.3647 -0.4273  0.5664
  332MOL0     C43734   4.425  -0.060   4.416 -0.0187 -0.6474 -1.3298
  332MOL0     C43735   4.427   0.013   4.556 -0.5353  0.0378 -1.3442
  332MOL0    Cl43736   4.598   0.066   4.602  0.0641  0.3109  0.3238
  332MOL0     C43737   3.592  -0.225   4.590  0.6647 -0.5254 -0.0929
  332MOL0     C43738   3.539  -0.185   4.719 -0.1163  0.0271  0.9673
  332MOL0     O43739   3.553   0.190   4.864  1.1645  0.3199 -0.0935
  332MOL0     C43740   3.402   0.079   5.158  0.8857 -0.6768  0.0789
  332MOL0     C43741   3.329   0.133   5.263 -0.3216 -0.1889  0.1973
  332MOL0     N43742   3.780   0.392   5.839  0.0138  0.7628 -0.6049
  332MOL0     N43743   3.882   0.465   5.818  0.3849  0.8231 -0.1001
  332MOL0     C43744   4.750   0.772   5.966 -0.1894 -1.2945 -0.2409
  332MOL0     C43745   4.788   0.910   5.947  1.3329 -0.1599  0.2375
  332MOL0     C43746   4.855   1.285   5.675  0.0851 -0.4115 -0.3247
  332MOL0     C43747   4.982   1.311   5.720  0.3580  0.8648 -0.4552
  332MOL0     C43748   5.029   1.440   5.684 -0.1102 -0.2109 -0.5975
  332MOL0     C43749   4.966   1.532   5.613 -0.5016  0.1317  0.8273
  332MOL0     O43750   5.033   1.646   5.581  0.6061  0.1704 -0.9589
  332MOL0     C43751   4.962   1.766   5.571  0.0371  0.1628  0.2692
  332MOL0     C43752   5.063   1.880   5.554  0.7129 -0.3764 -0.7714
  332MOL0     C43753   5.117   1.915   5.409  0.2935  0.5239 -0.7344
  332MOL0     C43754   5.207   2.041   5.430  0.0017  0.1762  0.4316
  332MOL0     C43755   5.353   2.021   5.418  0.0454 -0.1475 -0.2165
  332MOL0     C43756   5.467   2.029   5.379  0.9286 -0.6630  0.2002
  332MOL0     C43757   4.832   1.507   5.568 -0.4797  0.0761 -0.3628
  332MOL0     C43758   4.772   1.385   5.609  0.0763  0.0450 -0.4399
  332MOL0     H43759   4.903   0.889   5.623 -1.6412  0.1953 -0.9458
  332MOL0     H43760   4.844   0.657   5.651 -0.2338  0.1978  1.5708
  332MOL0     H43761   4.790   0.458   5.696 -0.1271 -0.5553  0.2025
  332MOL0     H43762   4.610   0.500   5.695 -2.8209 -1.5953  2.4958
  332MOL0     H43763   4.750   0.301   5.880 -0.9523  0.4258  2.8535
  332MOL0     H43764   4.686   0.264   5.726  0.6357  0.5778  0.4359
  332MOL0     H43765   4.514   0.390   5.944  0.2358 -1.3033  1.4900
  332MOL0     H43766   4.542   0.213   5.937  2.5693  0.4336  1.7553
  332MOL0     H43767   4.451   0.374   5.705  4.8661 -1.5495 -0.4932
  332MOL0     H43768   4.426   0.203   5.720  1.9560  0.9443 -0.3894
  332MOL0     H43769   4.299   0.406   5.914  1.3663 -0.7817  0.0117
  332MOL0     H43770   4.283   0.226   5.920 -0.3537 -1.2188 -0.6042
  332MOL0     H43771   4.081   0.302   5.839  2.5272  0.4317  3.3009
  332MOL0     H43772   4.161   0.250   5.694 -0.1192 -1.8133  1.6048
  332MOL0     H43773   4.131   0.535   5.804  2.2196  1.7791 -0.1346
  332MOL0     H43774   4.241   0.506   5.674 -2.0628  2.3393 -0.4530
  332MOL0     H43775   4.063   0.429   5.535  1.3744  0.8480 -0.7388
  332MOL0     H43776   4.042   0.592   5.601 -0.4499  0.3632  1.9810
  332MOL0     H43777   3.832   0.329   5.514 -1.5236  4.7847 -2.2335
  332MOL0     H43778   3.575   0.239   5.813  1.9166 -2.3394  1.0669
  332MOL0     H43779   3.670   0.143   5.706 -1.9286 -0.4868 -0.2504
  332MOL0     H43780   3.578   0.271   5.503  0.8684  0.7807  0.5661
  332MOL0     H43781   3.494   0.377   5.616 -0.9832  0.5232 -1.6641
  332MOL0     H43782   3.435   0.077   5.565  0.7113  0.3971  0.6232
  332MOL0     H43783   3.380   0.151   5.712 -0.9210 -1.9500 -1.3778
  332MOL0     H43784   3.250   0.314   5.624 -3.0605 -0.3589 -1.0432
  332MOL0     H43785   3.195   0.181   5.535 -0.6188  0.6412 -2.2368
  332MOL0     H43786   3.458   0.445   5.241  0.0588  0.2368  1.0666
  332MOL0     H43787   3.553   0.353   5.040 -1.2124  0.9150  0.3839
  332MOL0     H43788   3.732   0.092   4.753  0.1717  0.4995 -2.7964
  332MOL0     H43789   3.817   0.009   4.532  2.6088 -0.9904  1.6476
  332MOL0     H43790   3.732  -0.394   4.370  0.9196 -1.4950  0.4726
  332MOL0     H43791   3.864  -0.369   4.475  2.5755 -1.3043 -2.4873
  332MOL0     H43792   3.869  -0.315   4.164 -0.7460  3.0670  0.6890
  332MOL0     H43793   3.934  -0.425   4.265 -2.0361 -0.5396 -1.5072
  332MOL0     H43794   4.024  -0.204   4.395 -1.2809  1.5476  0.0932
  332MOL0     H43795   3.971  -0.118   4.258  0.5323  0.6164  0.8537
  332MOL0     H43796   4.181  -0.344   4.256  0.8074 -0.4785 -2.4310
  332MOL0     H43797   4.135  -0.257   4.116  1.7855  1.4925  0.1152
  332MOL0     H43798   4.240  -0.057   4.188  2.0511 -0.9768 -1.7709
  332MOL0     H43799   4.352  -0.196   4.208 -0.2056  0.5206 -1.4468
  332MOL0     H43800   4.249  -0.203   4.460 -0.8829  0.0332  0.5824
  332MOL0     H43801   4.211  -0.037   4.415 -1.4303 -1.8337  0.3883
  332MOL0     H43802   4.493  -0.146   4.410  0.2550 -0.5302 -0.0440
  332MOL0     H43803   4.456   0.016   4.344  1.4309  0.2088  0.1346
  332MOL0     H43804   4.405  -0.063   4.632 -0.0047  0.0573 -1.1678
  332MOL0     H43805   4.371   0.108   4.556 -1.4250 -0.4348 -3.7482
  332MOL0     H43806   3.541  -0.307   4.540 -0.2307 -0.3182  0.4596
  332MOL0     H43807   3.463  -0.234   4.779  0.1828 -0.3243  1.0634
  332MOL0     H43808   3.387  -0.029   5.150  3.8451 -1.4903  3.1599
  332MOL0     H43809   3.268   0.061   5.316 -2.9088 -0.3554 -2.7332
  332MOL0     H43810   4.725   0.740   6.066  1.6754  0.6109  0.9209
  332MOL0     H43811   4.764   0.968   6.035  2.5549 -1.2372  1.3166
  332MOL0     H43812   5.045   1.238   5.770  1.1681  0.8097 -1.5036
  332MOL0     H43813   5.133   1.447   5.714  0.1789  1.6406 -1.8394
  332MOL0     H43814   4.891   1.773   5.654  1.1715 -0.2514  1.3189
  332MOL0     H43815   4.908   1.759   5.476 -1.8111 -3.1259  1.3872
  332MOL0     H43816   5.010   1.973   5.577 -0.9534 -1.2725 -0.8973
  332MOL0     H43817   5.139   1.874   5.632 -1.6449 -0.5943  1.6335
  332MOL0     H43818   5.034   1.948   5.347 -0.5032  2.4318  1.1994
  332MOL0     H43819   5.178   1.835   5.366 -0.3824 -1.4398  1.7559
  332MOL0     H43820   5.179   2.098   5.341  1.6664 -0.2038 -0.3711
  332MOL0     H43821   5.192   2.112   5.512 -0.2346  0.1478  0.4119
  332MOL0     H43822   5.566   2.018   5.339  0.7305  0.6570 -0.6947
  332MOL0     H43823   4.795   1.573   5.490 -3.6686 -0.0416  0.9257
  332MOL0     H43824   4.667   1.360   5.596  0.2107 -1.0590  0.3939
  333MOL0     O43825   8.762   3.361   9.443 -0.1511 -0.5234 -0.5915
  333MOL0     C43826   8.757   3.434   9.547 -0.2504 -0.1332  0.4682
  333MOL0     O43827   8.835   3.419   9.660 -0.3635 -0.4307 -0.3209
  333MOL0     C43828   8.893   3.300   9.679 -0.6595  0.7588  0.2283
  333MOL0     C43829   8.847   3.224   9.791 -0.7458 -0.7037 -0.4522
  333MOL0     C43830   8.908   3.098   9.818  0.0498  0.6373 -0.0182
  333MOL0     C43831   9.017   3.052   9.745  0.5650 -0.0745 -0.3013
  333MOL0     O43832   9.088   2.953   9.796  0.1103  0.5532  0.3881
  333MOL0     C43833   9.107   2.834   9.708  0.6902 -0.0384  0.3921
  333MOL0     C43834   8.973   2.760   9.686 -0.1978  0.2448  0.1861
  333MOL0     C43835   9.007   2.637   9.586 -0.4903 -0.0416 -0.3978
  333MOL0     C43836   8.887   2.547   9.573 -0.0480  0.2437 -0.0508
  333MOL0     C43837   8.922   2.426   9.497  0.4358 -0.3746  0.2533
  333MOL0     C43838   8.804   2.328   9.486  1.1318  0.8305  0.4835
  333MOL0     C43839   8.698   2.371   9.385 -0.1799 -0.3786 -0.0772
  333MOL0     C43840   8.582   2.271   9.390 -0.5709 -0.1261 -1.3171
  333MOL0     N43841   8.463   2.338   9.354  0.6773  0.5858 -0.0607
  333MOL0     C43842   8.363   2.366   9.446  0.5804  0.4620 -0.5135
  333MOL0     C43843   8.286   2.450   9.373 -0.0612  0.1422  0.5130
  333MOL0     C43844   8.156   2.518   9.425 -0.5694 -0.6239 -0.3029
  333MOL0     C43845   8.180   2.607   9.553 -0.6129  0.7215  0.2399
  333MOL0     C43846   8.056   2.699   9.590  0.9848  0.0732 -0.5140
  333MOL0     C43847   8.079   2.799   9.698  0.0687  0.3300 -0.4838
  333MOL0     O43848   8.139   2.735   9.807  0.5340 -0.1679  0.4181
  333MOL0     C43849   8.194   2.792   9.922 -0.6023  0.7474  0.7392
  333MOL0     C43850   8.259   2.715  10.023  0.4871 -0.4010  0.7031
  333MOL0     C43851   8.332   2.783  10.126  1.0683 -0.3591  0.0842
  333MOL0     C43852   8.330   2.926  10.147  0.1695 -0.5723  0.2594
  333MOL0     C43853   8.388   3.006  10.259 -0.4911  1.0517  0.1200
  333MOL0     O43854   8.439   3.123  10.227  0.0871  0.5683  0.9930
  333MOL0     C43855   8.509   3.197  10.320 -1.2353 -0.2980 -0.0167
  333MOL0     C43856   8.498   3.330  10.353  0.2020 -0.5162  1.0477
  333MOL0     C43857   8.593   3.403  10.422 -0.0212 -0.9173  1.2871
  333MOL0     C43858   8.709   3.340  10.469  0.6856 -0.6996 -0.0370
  333MOL0     O43859   8.798   3.401  10.564  0.1324 -0.0354 -0.2177
  333MOL0     C43860   8.772   3.544  10.602 -0.4747  0.4298 -0.6565
  333MOL0     C43861   8.663   3.535  10.710  0.5459 -0.2200 -0.1231
  333MOL0     C43862   8.678   3.421  10.806  0.1722 -0.2828 -1.0213
  333MOL0     C43863   8.572   3.441  10.921 -0.4715 -0.0764  0.9122
  333MOL0     C43864   8.605   3.357  11.043 -0.0147 -1.6249  0.0698
  333MOL0     C43865   8.538   3.395  11.175  0.2504 -0.3856 -0.1305
  333MOL0     C43866   8.587   3.526  11.238 -0.2349 -0.5320  0.9602
  333MOL0     C43867   8.708   3.512  11.332 -0.0417  0.9375  0.4197
  333MOL0    Cl43868   8.762   3.683  11.357  0.6002 -0.2298 -0.0281
  333MOL0     C43869   8.727   3.203  10.434  0.3356 -0.2327 -0.0018
  333MOL0     C43870   8.627   3.125  10.364  0.0459  0.9007 -0.9590
  333MOL0     O43871   8.378   2.959  10.373  0.5024 -0.1655 -0.2308
  333MOL0     C43872   8.255   2.998  10.049  0.4612 -0.5920 -0.4839
  333MOL0     C43873   8.189   2.933   9.940 -0.5695  0.7655  1.1670
  333MOL0     N43874   8.335   2.477   9.251 -0.3374  0.6712 -0.1666
  333MOL0     N43875   8.445   2.404   9.241  0.5018 -0.4120  0.8650
  333MOL0     C43876   9.065   3.115   9.631 -0.2694 -0.1692 -0.4666
  333MOL0     C43877   9.003   3.243   9.602  0.7730 -0.2997 -0.7771
  333MOL0     C43878   8.674   3.555   9.541  0.2984  0.0299  0.5692
  333MOL0     C43879   8.681   3.622   9.415 -0.3167  0.2271 -0.6929
  333MOL0     C43880   8.631   3.758   9.413 -0.7628 -0.4893  1.1890
  333MOL0     C43881   8.607   3.833   9.535 -0.4181  0.7082  0.3025
  333MOL0     O43882   8.562   3.963   9.547 -0.2193  0.5159  0.0801
  333MOL0     C43883   8.531   4.034   9.426 -0.4613 -1.2553  0.5773
  333MOL0     C43884   8.463   4.170   9.455  0.8963  0.8062 -0.3673
  333MOL0     C43885   8.335   4.165   9.549  0.7763 -0.2931 -0.1192
  333MOL0     C43886   8.205   4.116   9.477  0.9848 -0.2273  0.6269
  333MOL0     C43887   8.208   3.967   9.466  0.0287  0.1956  0.2692
  333MOL0     C43888   8.231   3.850   9.454 -0.3272 -0.4366 -0.7951
  333MOL0     C43889   8.614   3.758   9.656  0.8032 -0.3834  0.9798
  333MOL0     C43890   8.641   3.616   9.661  0.0363 -0.7132  0.6191
  333MOL0     H43891   8.765   3.255   9.856  0.8792  2.5862  0.2626
  333MOL0     H43892   8.859   3.048   9.900 -1.5270 -0.8152 -1.7404
  333MOL0     H43893   9.171   2.765   9.763  2.2964  0.5281 -0.7089
  333MOL0     H43894   9.157   2.842   9.611  1.1122  1.6496  0.7320
  333MOL0     H43895   8.892   2.816   9.637 -0.7458 -1.9119 -1.5609
  333MOL0     H43896   8.938   2.723   9.783 -0.5097  0.0931  0.0182
  333MOL0     H43897   9.095   2.582   9.623 -1.0462  0.4877  1.8788
  333MOL0     H43898   9.024   2.682   9.488 -2.9589  4.8724  1.1237
  333MOL0     H43899   8.854   2.518   9.673  2.8693 -0.4233  0.8204
  333MOL0     H43900   8.805   2.596   9.520  1.3568 -0.7813 -3.4957
  333MOL0     H43901   8.999   2.374   9.555  1.3417  0.8788  0.2379
  333MOL0     H43902   8.953   2.450   9.394 -2.2847 -1.8051 -0.9807
  333MOL0     H43903   8.767   2.330   9.589  1.5958 -0.0230  0.6735
  333MOL0     H43904   8.839   2.227   9.464 -0.6227  0.6905 -2.1977
  333MOL0     H43905   8.659   2.470   9.410  0.7657  0.2458 -1.0189
  333MOL0     H43906   8.741   2.378   9.285 -0.4777 -1.9988 -0.3409
  333MOL0     H43907   8.580   2.231   9.492 -0.6542  1.5918 -0.6172
  333MOL0     H43908   8.600   2.181   9.331  2.1448 -1.9495  1.9101
  333MOL0     H43909   8.355   2.340   9.551 -0.7080  2.6223 -0.0278
  333MOL0     H43910   8.081   2.442   9.450  1.0062 -2.6078 -1.3327
  333MOL0     H43911   8.111   2.590   9.355  0.6814 -1.0954 -1.6329
  333MOL0     H43912   8.265   2.668   9.523 -0.5252  1.1567  1.3656
  333MOL0     H43913   8.216   2.540   9.631  1.2804 -0.7724 -1.7654
  333MOL0     H43914   8.014   2.750   9.504  1.2932  1.7466  0.2895
  333MOL0     H43915   7.984   2.630   9.634 -1.2247  2.6554  0.1371
  333MOL0     H43916   7.990   2.844   9.744 -0.5226  0.0960 -1.3781
  333MOL0     H43917   8.137   2.879   9.651  0.7046  2.8130  3.9354
  333MOL0     H43918   8.268   2.607  10.015 -0.7628 -0.4183 -0.8257
  333MOL0     H43919   8.391   2.719  10.190  0.4375  0.5635  1.6306
  333MOL0     H43920   8.416   3.386  10.308 -1.5833 -3.0858  0.8898
  333MOL0     H43921   8.572   3.508  10.437  2.4074 -0.2750  0.6948
  333MOL0     H43922   8.742   3.609  10.519 -0.6908 -0.1859 -1.0762
  333MOL0     H43923   8.857   3.590  10.652 -1.2765  2.7615 -1.2837
  333MOL0     H43924   8.560   3.534  10.674  1.0699 -0.6867 -1.6858
  333MOL0     H43925   8.683   3.629  10.761  0.8314  0.2230 -1.0377
  333MOL0     H43926   8.777   3.407  10.850 -0.1183 -0.2805 -0.3479
  333MOL0     H43927   8.645   3.330  10.756 -2.3765 -1.0623  1.8135
  333MOL0     H43928   8.573   3.548  10.945  1.0833  0.0627  0.3774
  333MOL0     H43929   8.475   3.408  10.883  0.0953 -0.6143 -0.0950
  333MOL0     H43930   8.712   3.367  11.064 -0.2489  1.1703  0.2506
  333MOL0     H43931   8.569   3.256  11.019 -1.0915 -1.1153 -0.5291
  333MOL0     H43932   8.536   3.321  11.255 -1.2543  0.5091  0.7161
  333MOL0     H43933   8.435   3.414  11.141  1.4724  0.9362 -3.5011
  333MOL0     H43934   8.606   3.600  11.160  0.3438 -0.7289  0.9054
  333MOL0     H43935   8.506   3.575  11.292 -0.0545  5.3993 -3.1477
  333MOL0     H43936   8.785   3.466  11.270 -1.1912  2.9630 -2.7124
  333MOL0     H43937   8.689   3.456  11.425  1.8274  1.3441  1.0857
  333MOL0     H43938   8.819   3.159  10.471  0.6036 -0.2472 -0.6612
  333MOL0     H43939   8.637   3.018  10.347 -1.9869  0.1706  1.7619
  333MOL0     H43940   8.235   3.104  10.044 -0.4853 -0.8010 -1.6766
  333MOL0     H43941   8.158   2.992   9.854 -0.0377 -2.2565 -1.2630
  333MOL0     H43942   9.146   3.067   9.577  0.2375  0.6970 -0.4969
  333MOL0     H43943   9.049   3.290   9.516  5.0418  0.2571  1.4998
  333MOL0     H43944   8.720   3.574   9.326  1.3207  0.2067 -0.0173
  333MOL0     H43945   8.619   3.806   9.316  0.4985 -1.1493  0.6852
  333MOL0     H43946   8.456   3.983   9.365 -2.3530  0.5529  1.2585
  333MOL0     H43947   8.621   4.049   9.365 -0.6498  0.5691  0.6932
  333MOL0     H43948   8.534   4.240   9.501  3.8292 -2.6081  0.8241
  333MOL0     H43949   8.433   4.211   9.358  2.1808 -0.2123 -1.2408
  333MOL0     H43950   8.311   4.264   9.587 -0.0235 -0.3892 -0.3503
  333MOL0     H43951   8.357   4.092   9.628  0.3199  0.2245  0.4861
  333MOL0     H43952   8.112   4.137   9.531 -0.9741 -2.3112 -1.6858
  333MOL0     H43953   8.194   4.168   9.381 -3.2860 -0.1719  0.9473
  333MOL0     H43954   8.286   3.758   9.464  3.1355  1.6477  1.5611
  333MOL0     H43955   8.612   3.806   9.753  1.8624 -2.0615  1.8619
  333MOL0     H43956   8.632   3.568   9.758 -1.7168  1.6730  1.7638
  334MOL0     O43957   3.343  11.113   5.893  0.2764  0.0745 -0.4191
  334MOL0     C43958   3.362  11.190   5.798 -0.6169 -0.3202 -1.3335
  334MOL0     O43959   3.421  11.319   5.802 -0.8522  0.7733 -0.4111
  334MOL0     C43960   3.477  11.343   5.924  0.3200 -1.4442  0.0375
  334MOL0     C43961   3.400  11.420   6.007  0.5428  0.7818  0.0730
  334MOL0     C43962   3.437  11.437   6.141 -0.0077 -0.4923 -1.3334
  334MOL0     C43963   3.567  11.403   6.171 -0.9056  0.2308  0.1012
  334MOL0     O43964   3.627  11.411   6.298 -0.0609 -0.0759  0.2000
  334MOL0     C43965   3.584  11.526   6.381  0.5276  0.4080 -0.2977
  334MOL0     C43966   3.666  11.536   6.515 -0.4795  0.1145  0.4629
  334MOL0     C43967   3.714  11.403   6.575 -0.1909 -0.5110 -0.0966
  334MOL0     C43968   3.731  11.396   6.732  0.5128  0.2634 -0.5241
  334MOL0     C43969   3.887  11.372   6.767 -0.7731  0.1322  0.4711
  334MOL0     C43970   3.984  11.500   6.748  0.8614  0.4913 -1.0375
  334MOL0     C43971   4.094  11.491   6.854 -0.6304 -0.0625 -0.3659
  334MOL0     C43972   4.176  11.361   6.826 -0.1448 -0.5127  0.1872
  334MOL0     N43973   4.327  11.389   6.834 -0.2192 -0.8661 -0.8095
  334MOL0     C43974   4.404  11.382   6.952 -0.5582  0.5190 -0.5977
  334MOL0     C43975   4.528  11.429   6.923 -0.2010  0.6260  0.9231
  334MOL0     C43976   4.630  11.436   7.029  0.8294  0.0385  0.7989
  334MOL0     C43977   4.738  11.546   7.001 -0.1548 -0.4291 -0.3973
  334MOL0     C43978   4.819  11.560   7.133 -1.0136 -0.6352  0.5724
  334MOL0     C43979   4.920  11.673   7.117  0.2278  0.0034 -0.7753
  334MOL0     O43980   4.965  11.695   7.251  0.0180 -1.0010 -0.5411
  334MOL0     C43981   5.107  11.683   7.277  1.4318 -0.3535 -0.0683
  334MOL0     C43982   5.200  11.704   7.175 -0.9303  0.8649 -0.2024
  334MOL0     C43983   5.342  11.693   7.198  0.1006 -0.4551  0.0433
  334MOL0     C43984   5.384  11.668   7.335 -0.5257 -0.4883  0.9670
  334MOL0     C43985   5.530  11.654   7.366 -0.5779  0.3987  0.2872
  334MOL0     O43986   5.622  11.653   7.263  0.3830 -0.1330 -0.1899
  334MOL0     C43987   5.738  11.588   7.269 -0.2128 -0.0831 -0.0292
  334MOL0     C43988   5.851  11.658   7.238  0.5456  0.1343  0.7684
  334MOL0     C43989   5.974  11.589   7.254 -0.8806 -0.1343 -0.1384
  334MOL0     C43990   5.987  11.449   7.277 -0.1528 -0.5613  0.1790
  334MOL0     O43991   6.101  11.377   7.283  0.4199  0.5423 -0.3857
  334MOL0     C43992   6.210  11.451   7.338  0.6988  0.0745  0.2847
  334MOL0     C43993   6.328  11.358   7.357 -1.2002 -1.0569 -0.0397
  334MOL0     C43994   6.455  11.428   7.413 -0.8164 -0.4629 -0.7883
  334MOL0     C43995   6.580  11.348   7.382  0.6647 -0.2472 -0.4290
  334MOL0     C43996   6.704  11.415   7.419 -0.3661 -0.4976 -0.5690
  334MOL0     C43997   6.712  11.424   7.566  0.0196  0.7192 -0.0341
  334MOL0     C43998   6.841  11.488   7.613  0.3434  0.9278 -0.2891
  334MOL0     C43999   6.857  11.642   7.585 -0.8631  0.6174  0.2818
  334MOL0    Cl44000   6.774  11.747   7.698 -0.0361  0.3137 -0.3640
  334MOL0     C44001   5.866  11.384   7.303 -0.5490  0.5535 -0.2764
  334MOL0     C44002   5.750  11.456   7.299  0.0495 -0.0545 -0.7954
  334MOL0     O44003   5.561  11.619   7.479  0.2355 -0.5122 -0.5301
  334MOL0     C44004   5.293  11.654   7.430 -0.2534 -1.2372  0.1870
  334MOL0     C44005   5.158  11.664   7.406 -0.5088  0.0510 -0.4931
  334MOL0     N44006   4.538  11.460   6.789  0.5212  0.4392  0.1651
  334MOL0     N44007   4.413  11.441   6.737  0.1175  0.4293  0.2099
  334MOL0     C44008   3.643  11.318   6.091  0.3185  0.3909  0.2258
  334MOL0     C44009   3.605  11.294   5.957  1.7027 -0.0610  0.1534
  334MOL0     C44010   3.312  11.135   5.664  0.2167 -0.0235  0.9455
  334MOL0     C44011   3.347  11.001   5.617  0.2753 -0.1018  0.4126
  334MOL0     C44012   3.290  10.944   5.502 -0.0380 -1.1043 -0.1586
  334MOL0     C44013   3.207  11.012   5.423  0.0821 -0.3671  1.2683
  334MOL0     O44014   3.167  10.952   5.305 -0.1014 -0.7358  0.5365
  334MOL0     C44015   3.160  11.043   5.196  0.5194 -1.2529 -0.0981
  334MOL0     C44016   3.199  10.976   5.064  0.6703  0.0678 -0.1111
  334MOL0     C44017   3.077  10.957   4.974 -0.8487  0.0446  0.1963
  334MOL0     C44018   3.112  10.875   4.837  0.5290 -0.3432 -0.6975
  334MOL0     C44019   3.051  10.738   4.839  0.1077 -0.0491 -0.2543
  334MOL0     C44020   3.005  10.627   4.823  0.6399 -0.2835  0.3998
  334MOL0     C44021   3.180  11.148   5.459 -0.2862  0.2336  0.4329
  334MOL0     C44022   3.224  11.201   5.576 -0.1529 -0.1092  0.0173
  334MOL0     H44023   3.302  11.459   5.980  1.4816  0.6627 -4.1340
  334MOL0     H44024   3.374  11.486   6.214 -0.0050 -0.1075 -1.5857
  334MOL0     H44025   3.477  11.512   6.397 -0.0507  3.4990 -0.7549
  334MOL0     H44026   3.608  11.618   6.327  3.0446 -1.9448 -3.6633
  334MOL0     H44027   3.600  11.592   6.582 -0.5973  1.1002 -0.4465
  334MOL0     H44028   3.748  11.607   6.495 -0.6078 -0.4561 -2.4387
  334MOL0     H44029   3.815  11.376   6.541  1.2132  1.4513  2.2065
  334MOL0     H44030   3.640  11.326   6.549  0.7588 -1.6535  0.4566
  334MOL0     H44031   3.690  11.480   6.788  0.6602 -0.1979  0.2973
  334MOL0     H44032   3.666  11.317   6.770  0.7056  1.3357  2.2540
  334MOL0     H44033   3.915  11.286   6.704  0.5031  1.1500 -0.4075
  334MOL0     H44034   3.876  11.353   6.874  0.6937  4.4234  1.5564
  334MOL0     H44035   3.921  11.586   6.768 -1.7383 -0.9306 -2.5157
  334MOL0     H44036   4.020  11.516   6.646  0.0255 -0.6020 -1.5341
  334MOL0     H44037   4.156  11.580   6.844 -1.7745  0.5530 -3.0191
  334MOL0     H44038   4.050  11.491   6.954  3.6525  2.9960  1.7986
  334MOL0     H44039   4.168  11.321   6.724  1.9092 -0.5596  0.0080
  334MOL0     H44040   4.152  11.289   6.905  1.5606  0.1769  1.3740
  334MOL0     H44041   4.362  11.345   7.044  0.0419 -0.8383 -0.8311
  334MOL0     H44042   4.679  11.338   7.038 -0.6822 -0.9204 -0.7538
  334MOL0     H44043   4.575  11.455   7.121 -2.4940 -0.8212 -0.8454
  334MOL0     H44044   4.695  11.647   6.991  2.0158  0.7324  1.1695
  334MOL0     H44045   4.803  11.526   6.916  2.5337  1.1451  1.1327
  334MOL0     H44046   4.749  11.585   7.213 -1.3800  1.8958 -0.4594
  334MOL0     H44047   4.888  11.475   7.148 -0.9037 -0.9958 -1.6614
  334MOL0     H44048   4.877  11.765   7.076 -1.5298 -1.3839 -2.2169
  334MOL0     H44049   4.996  11.640   7.045 -0.9972 -3.2262 -0.7463
  334MOL0     H44050   5.178  11.733   7.073  0.7116  3.1415  0.0156
  334MOL0     H44051   5.417  11.703   7.121 -1.5574  4.2944 -1.3217
  334MOL0     H44052   5.842  11.764   7.215 -2.6101 -0.4654 -1.4510
  334MOL0     H44053   6.066  11.645   7.239  0.0799 -1.8980 -1.0493
  334MOL0     H44054   6.192  11.491   7.438  2.8025 -1.6763  1.4456
  334MOL0     H44055   6.241  11.532   7.271 -4.8411  2.4061 -0.0008
  334MOL0     H44056   6.349  11.306   7.263 -0.3185  1.5716 -1.3767
  334MOL0     H44057   6.299  11.279   7.428 -1.3950 -0.8265  0.1354
  334MOL0     H44058   6.439  11.439   7.521  1.8470 -3.9048  0.1305
  334MOL0     H44059   6.470  11.532   7.380  1.7731 -0.0696  1.2823
  334MOL0     H44060   6.566  11.247   7.421  1.7969  0.2714  1.4905
  334MOL0     H44061   6.578  11.349   7.273 -2.9758  0.6154 -0.4971
  334MOL0     H44062   6.704  11.517   7.380 -2.2671  0.0236  0.6446
  334MOL0     H44063   6.783  11.360   7.367  1.0074 -0.1376  1.0218
  334MOL0     H44064   6.693  11.326   7.611 -0.5962  0.6821 -0.3524
  334MOL0     H44065   6.632  11.487   7.606  1.4459  1.6768  1.4694
  334MOL0     H44066   6.855  11.470   7.719  2.1404  3.6274  0.0412
  334MOL0     H44067   6.928  11.434   7.574  1.2536  1.6082  0.7489
  334MOL0     H44068   6.835  11.666   7.480 -2.8563 -1.4543  0.1507
  334MOL0     H44069   6.961  11.666   7.608 -1.7461  2.0605  3.1885
  334MOL0     H44070   5.867  11.277   7.325 -0.4555  0.4502 -0.7605
  334MOL0     H44071   5.660  11.402   7.329 -0.1658  0.8968  0.3647
  334MOL0     H44072   5.323  11.634   7.532 -1.2876  0.7253  0.9395
  334MOL0     H44073   5.092  11.641   7.489  0.0979  1.8512  0.5436
  334MOL0     H44074   3.736  11.280   6.130 -0.9142 -3.0252  0.1953
  334MOL0     H44075   3.663  11.237   5.885 -0.0453 -2.5848  0.6154
  334MOL0     H44076   3.404  10.947   5.692 -1.3870  0.4252  2.1605
  334MOL0     H44077   3.315  10.845   5.466  2.7442  0.1532 -2.0144
  334MOL0     H44078   3.216  11.137   5.198 -1.4504  0.0035  2.1892
  334MOL0     H44079   3.056  11.077   5.189  0.2714 -1.9999 -0.0427
  334MOL0     H44080   3.266  11.045   5.012  0.8971 -1.3991 -1.8892
  334MOL0     H44081   3.232  10.872   5.075  1.8791  0.6734  3.0467
  334MOL0     H44082   3.035  11.051   4.938  3.0522  0.8723 -2.8918
  334MOL0     H44083   3.007  10.893   5.029 -0.1097 -1.6682 -0.7911
  334MOL0     H44084   3.069  10.921   4.748  0.7532  0.7675 -0.2448
  334MOL0     H44085   3.221  10.868   4.837  0.5435 -0.5502  0.7526
  334MOL0     H44086   2.967  10.529   4.804 -1.4332  0.8840 -2.1500
  334MOL0     H44087   3.108  11.206   5.402 -0.0326 -1.5388 -1.8297
  334MOL0     H44088   3.202  11.305   5.599 -3.5303 -1.1850  2.5255
  335MOL0     O44089   4.713   7.653   6.627  0.0321 -0.2857 -0.5094
  335MOL0     C44090   4.808   7.629   6.704 -0.2123 -1.1243 -0.4614
  335MOL0     O44091   4.801   7.556   6.815  0.3585 -0.6999 -0.0782
  335MOL0     C44092   4.682   7.501   6.849 -0.8511  0.4356 -0.5767
  335MOL0     C44093   4.635   7.536   6.976  0.1047  0.2220  0.4798
  335MOL0     C44094   4.541   7.454   7.031  0.2188 -0.1717  0.1231
  335MOL0     C44095   4.473   7.356   6.951 -0.0321  0.1741  0.0486
  335MOL0     O44096   4.359   7.285   6.999 -0.0683 -0.2832 -0.2398
  335MOL0     C44097   4.319   7.295   7.140 -1.0319 -0.6202  0.6045
  335MOL0     C44098   4.212   7.191   7.168  0.3165 -0.3407 -0.5612
  335MOL0     C44099   4.081   7.174   7.080 -0.4779 -0.3091  0.3527
  335MOL0     C44100   3.972   7.283   7.113 -0.1284 -0.2533 -0.3459
  335MOL0     C44101   3.853   7.284   7.017 -0.6350  0.6666 -0.3119
  335MOL0     C44102   3.778   7.419   7.023  0.5706 -0.1445 -1.0447
  335MOL0     C44103   3.628   7.384   6.983  0.1926 -0.1561  0.1130
  335MOL0     C44104   3.622   7.353   6.829  0.2329 -0.8814 -0.0707
  335MOL0     N44105   3.481   7.349   6.793  0.6776  0.9176 -0.4476
  335MOL0     C44106   3.392   7.457   6.780 -1.2251 -0.5609 -0.1351
  335MOL0     C44107   3.270   7.402   6.755  0.2992 -0.7668  0.4792
  335MOL0     C44108   3.141   7.478   6.738 -0.2195 -0.2811 -0.4798
  335MOL0     C44109   3.030   7.406   6.675  0.3510  0.3233  1.1679
  335MOL0     C44110   2.913   7.495   6.640  0.1941  0.2904  0.3502
  335MOL0     C44111   2.774   7.456   6.711 -1.0367 -1.0282 -0.3012
  335MOL0     O44112   2.684   7.564   6.666 -0.0568  0.6268 -0.1521
  335MOL0     C44113   2.551   7.551   6.637  0.8095  0.3130 -0.3018
  335MOL0     C44114   2.488   7.428   6.654  0.9038 -0.1422 -0.4629
  335MOL0     C44115   2.346   7.409   6.620 -0.1063 -0.4242  0.1043
  335MOL0     C44116   2.280   7.518   6.560  0.1140 -0.7813 -0.4289
  335MOL0     C44117   2.137   7.506   6.516  0.3265  0.9884  0.1542
  335MOL0     O44118   2.072   7.389   6.544 -0.3082  0.6607 -0.0830
  335MOL0     C44119   1.935   7.389   6.533 -0.0867  0.1113  1.1504
  335MOL0     C44120   1.876   7.415   6.410 -0.7018 -0.3775  0.9963
  335MOL0     C44121   1.736   7.412   6.388  0.1150  0.6983 -0.7227
  335MOL0     C44122   1.656   7.372   6.501  0.4940 -0.4448  0.3999
  335MOL0     O44123   1.517   7.353   6.501  0.5307  0.0699 -0.0880
  335MOL0     C44124   1.457   7.312   6.380 -0.0489 -0.9125 -0.3428
  335MOL0     C44125   1.496   7.168   6.344 -0.5672  0.5417  0.1281
  335MOL0     C44126   1.441   7.061   6.441 -0.4384 -0.0592  0.1570
  335MOL0     C44127   1.511   7.037   6.581  0.2915 -0.0156 -1.0531
  335MOL0     C44128   1.654   6.978   6.581 -0.5278  0.6135 -0.5216
  335MOL0     C44129   1.687   6.932   6.725 -0.9044  0.5022  0.0713
  335MOL0     C44130   1.840   6.904   6.739  0.7533  0.5482 -0.0996
  335MOL0     C44131   1.868   6.808   6.855  0.5434  0.1786  0.5947
  335MOL0    Cl44132   2.038   6.760   6.897  0.2536  0.1095 -0.2443
  335MOL0     C44133   1.716   7.339   6.620  0.5160 -0.1789  0.3955
  335MOL0     C44134   1.855   7.349   6.634  0.0113 -0.3775 -0.4154
  335MOL0     O44135   2.088   7.609   6.464  0.6003  0.4716 -0.6116
  335MOL0     C44136   2.348   7.642   6.536 -0.2621  0.2022 -0.3633
  335MOL0     C44137   2.489   7.657   6.572 -0.0969 -0.3766 -0.2026
  335MOL0     N44138   3.276   7.270   6.770  0.8779  0.3204 -0.3478
  335MOL0     N44139   3.398   7.233   6.797  0.7202 -0.6118 -0.1715
  335MOL0     C44140   4.521   7.324   6.825 -0.3980  0.1359 -0.5309
  335MOL0     C44141   4.630   7.395   6.774  1.0220 -0.6727  0.0625
  335MOL0     C44142   4.934   7.693   6.684 -0.4771  0.0678 -0.5667
  335MOL0     C44143   5.035   7.657   6.775 -0.0443  0.3038  0.2103
  335MOL0     C44144   5.161   7.703   6.755  0.3121 -0.3775  0.5478
  335MOL0     C44145   5.197   7.773   6.637 -0.8993 -0.2503 -0.0226
  335MOL0     O44146   5.334   7.797   6.632 -0.7092  0.3627  0.2419
  335MOL0     C44147   5.400   7.849   6.511 -0.3936 -0.2255  0.7478
  335MOL0     C44148   5.394   7.761   6.388  0.2127 -0.3264 -0.6073
  335MOL0     C44149   5.404   7.611   6.422 -0.0154  0.2017  0.3884
  335MOL0     C44150   5.412   7.532   6.287  0.0877  0.0602 -0.6950
  335MOL0     C44151   5.551   7.514   6.243 -0.1965 -0.1167  0.6239
  335MOL0     C44152   5.668   7.485   6.217  0.5047 -0.4940 -1.0590
  335MOL0     C44153   5.099   7.826   6.556 -1.3219 -0.3994  0.3212
  335MOL0     C44154   4.962   7.782   6.582  0.1544 -0.5263  0.4972
  335MOL0     H44155   4.691   7.615   7.026  1.8864 -0.2379 -0.6730
  335MOL0     H44156   4.492   7.469   7.127 -0.9844 -0.4763 -0.4268
  335MOL0     H44157   4.279   7.395   7.161 -1.3102 -1.0248  2.0707
  335MOL0     H44158   4.398   7.279   7.213 -1.9010 -0.3961  1.6153
  335MOL0     H44159   4.183   7.198   7.273 -1.5048 -0.4488 -1.0284
  335MOL0     H44160   4.267   7.096   7.165  0.6753 -0.1789  0.3688
  335MOL0     H44161   4.050   7.073   7.109  1.3490 -0.7773  0.7968
  335MOL0     H44162   4.107   7.178   6.974  0.1192  6.1724  0.3726
  335MOL0     H44163   3.941   7.269   7.217  0.1539 -0.2437 -0.2587
  335MOL0     H44164   4.024   7.379   7.105  0.9460 -0.5564  2.1112
  335MOL0     H44165   3.788   7.198   7.037  0.7070 -0.3598 -0.1721
  335MOL0     H44166   3.890   7.271   6.914  1.0222  2.0910  0.0557
  335MOL0     H44167   3.816   7.486   6.946  2.5841  1.7649  1.4018
  335MOL0     H44168   3.782   7.464   7.123 -1.3542 -0.1449 -0.9451
  335MOL0     H44169   3.598   7.302   7.049 -0.0564 -1.1130 -1.1556
  335MOL0     H44170   3.575   7.477   7.005  2.4486  0.9578  1.2137
  335MOL0     H44171   3.674   7.257   6.817  1.4605 -0.6647  2.6439
  335MOL0     H44172   3.675   7.428   6.771  3.4957 -3.2220 -0.3773
  335MOL0     H44173   3.425   7.560   6.785 -0.9288 -0.6779  0.4359
  335MOL0     H44174   3.168   7.574   6.693 -3.2053  2.2031  2.4640
  335MOL0     H44175   3.104   7.500   6.839 -1.6412 -2.7086 -0.3875
  335MOL0     H44176   3.002   7.312   6.723  3.5375 -1.9918 -1.0709
  335MOL0     H44177   3.060   7.359   6.581 -2.7632  0.5178 -0.0602
  335MOL0     H44178   2.942   7.594   6.676  2.4907  1.1613 -3.2861
  335MOL0     H44179   2.890   7.490   6.533  0.2511 -2.8617  0.4066
  335MOL0     H44180   2.798   7.448   6.817  1.7558  2.0731 -0.5246
  335MOL0     H44181   2.746   7.359   6.670 -2.4978 -0.5817 -0.4317
  335MOL0     H44182   2.529   7.341   6.704 -0.5357 -0.0365  0.9839
  335MOL0     H44183   2.303   7.310   6.635 -0.1168 -0.9748 -2.9432
  335MOL0     H44184   1.944   7.452   6.334  0.0330 -2.7851  0.4162
  335MOL0     H44185   1.694   7.423   6.289 -3.7826  1.4525  0.8109
  335MOL0     H44186   1.474   7.389   6.304  2.1306 -1.1853 -0.1841
  335MOL0     H44187   1.350   7.309   6.404  0.3786 -3.6759  1.6622
  335MOL0     H44188   1.605   7.170   6.331 -0.2611  0.5556  2.3158
  335MOL0     H44189   1.455   7.146   6.245  3.3800  0.5869 -1.7320
  335MOL0     H44190   1.431   6.962   6.394 -3.5973 -0.8149  2.1060
  335MOL0     H44191   1.342   7.097   6.470 -1.0300 -1.9327  0.6499
  335MOL0     H44192   1.512   7.131   6.636  1.3996 -0.0790 -0.9377
  335MOL0     H44193   1.443   6.976   6.643 -0.7110  0.5752 -1.5418
  335MOL0     H44194   1.731   7.048   6.545  2.1468 -2.6118 -1.6254
  335MOL0     H44195   1.649   6.886   6.523  1.3760 -1.7519  2.7270
  335MOL0     H44196   1.629   6.849   6.765  0.8246 -0.9500 -0.3166
  335MOL0     H44197   1.652   7.010   6.793 -3.0059  2.9489 -3.4412
  335MOL0     H44198   1.876   6.860   6.645  0.6814 -0.7165  0.4462
  335MOL0     H44199   1.891   7.000   6.752  1.9830  0.1595 -1.7181
  335MOL0     H44200   1.825   6.712   6.823 -1.7256  0.8834  1.2960
  335MOL0     H44201   1.813   6.830   6.947 -0.1224 -0.6472  0.4112
  335MOL0     H44202   1.655   7.296   6.699 -0.1290  0.4311  0.2393
  335MOL0     H44203   1.889   7.317   6.732 -3.1082  0.9723  1.2609
  335MOL0     H44204   2.296   7.728   6.494  0.9219 -0.2669 -2.9838
  335MOL0     H44205   2.544   7.750   6.560 -0.0581 -0.5146 -1.1724
  335MOL0     H44206   4.465   7.258   6.759 -1.1999  1.1784 -0.9369
  335MOL0     H44207   4.675   7.386   6.675  1.9125 -0.6190  0.4594
  335MOL0     H44208   5.026   7.602   6.868  0.7903  1.6862  1.1622
  335MOL0     H44209   5.241   7.669   6.821  1.1086 -0.8175 -0.6114
  335MOL0     H44210   5.507   7.868   6.528  0.2109 -0.2185 -2.3591
  335MOL0     H44211   5.353   7.943   6.482  0.1472 -0.4518 -0.9820
  335MOL0     H44212   5.296   7.780   6.344 -0.8844  0.3089  1.9410
  335MOL0     H44213   5.467   7.782   6.309  1.6074  3.0935  1.3591
  335MOL0     H44214   5.311   7.579   6.470  0.2627 -2.2697 -0.5825
  335MOL0     H44215   5.479   7.570   6.489 -1.2287 -1.3509  0.8545
  335MOL0     H44216   5.370   7.433   6.310 -0.3886  1.0430  3.5097
  335MOL0     H44217   5.351   7.580   6.210 -1.6991 -2.7612 -1.2118
  335MOL0     H44218   5.767   7.489   6.178  0.1848  2.4259 -1.7789
  335MOL0     H44219   5.111   7.898   6.476 -0.6435 -1.5024 -0.5920
  335MOL0     H44220   4.885   7.831   6.523  0.5043  0.3452  0.7338
  336MOL0     O44221   0.803   8.761   9.202  0.5671  0.1329  0.4344
  336MOL0     C44222   0.743   8.744   9.306 -0.1546 -0.4128  0.5545
  336MOL0     O44223   0.766   8.820   9.427 -0.1204  0.1737  0.3545
  336MOL0     C44224   0.861   8.919   9.449  0.1810 -0.5943  0.6384
  336MOL0     C44225   0.930   8.991   9.351 -0.7820 -0.6522  0.1650
  336MOL0     C44226   1.030   9.079   9.388  0.2200  0.0296  0.1006
  336MOL0     C44227   1.059   9.105   9.519  0.3098 -0.3702 -0.6728
  336MOL0     O44228   1.177   9.180   9.542  0.5299 -0.2024 -1.4043
  336MOL0     C44229   1.191   9.244   9.666  0.3923  0.0683  0.5373
  336MOL0     C44230   1.309   9.341   9.664 -0.0265  0.0213  0.0552
  336MOL0     C44231   1.296   9.453   9.563  1.4149 -0.7527 -0.4486
  336MOL0     C44232   1.406   9.560   9.573 -0.8978 -1.2757  0.6846
  336MOL0     C44233   1.372   9.682   9.506  0.1394  0.4311 -0.2117
  336MOL0     C44234   1.336   9.649   9.356  0.0594 -0.1450 -0.2243
  336MOL0     C44235   1.323   9.765   9.261  0.5392 -0.1107  0.4424
  336MOL0     C44236   1.452   9.857   9.239  0.0834  0.2472 -0.0264
  336MOL0     N44237   1.423   9.939   9.114 -0.2388 -0.3664  0.0757
  336MOL0     C44238   1.396  10.074   9.096 -0.8538 -0.1167  0.8988
  336MOL0     C44239   1.383  10.086   8.960  0.2952  0.2351 -0.9810
  336MOL0     C44240   1.374  10.214   8.889 -0.6150 -0.1797  0.1172
  336MOL0     C44241   1.516  10.277   8.897  0.1781  0.3963  0.0289
  336MOL0     C44242   1.604  10.216   8.783  0.5346 -0.3983 -0.2517
  336MOL0     C44243   1.740  10.209   8.817 -0.5247  0.1651 -0.0412
  336MOL0     O44244   1.799  10.347   8.833 -0.2995 -0.5901 -0.9093
  336MOL0     C44245   1.859  10.408   8.721  0.5935  0.0791 -0.0114
  336MOL0     C44246   1.843  10.379   8.590 -0.1891  0.1479 -0.4198
  336MOL0     C44247   1.902  10.463   8.487 -0.2236 -0.0649 -0.4882
  336MOL0     C44248   1.993  10.569   8.512  0.4800  0.0313  0.2140
  336MOL0     C44249   2.055  10.659   8.399  0.3111  0.0999 -0.8926
  336MOL0     O44250   2.084  10.794   8.438 -0.1252  0.3677  0.1061
  336MOL0     C44251   2.112  10.896   8.353  0.3505  0.0785  0.2417
  336MOL0     C44252   2.091  10.905   8.213 -0.0485  0.7535  0.2381
  336MOL0     C44253   2.143  11.016   8.140 -0.4892  0.6917  0.2230
  336MOL0     C44254   2.213  11.115   8.194  0.4452 -0.0242  0.1889
  336MOL0     O44255   2.260  11.215   8.119 -0.1476  0.2189  0.0704
  336MOL0     C44256   2.250  11.221   7.975 -0.0647  0.4929 -0.2987
  336MOL0     C44257   2.288  11.365   7.919  0.1205 -0.7481  1.0008
  336MOL0     C44258   2.425  11.404   7.971 -0.0517 -0.1988 -0.3804
  336MOL0     C44259   2.441  11.555   7.968  0.4337  0.6291  0.2095
  336MOL0     C44260   2.489  11.604   7.834 -0.8312 -0.5393  0.8140
  336MOL0     C44261   2.515  11.759   7.828  1.2915  0.2163  0.2703
  336MOL0     C44262   2.583  11.814   7.713 -0.0011  0.1586 -0.0192
  336MOL0     C44263   2.724  11.750   7.684 -0.3856  0.3944 -0.2663
  336MOL0    Cl44264   2.831  11.781   7.825 -0.3380  0.2109  0.3863
  336MOL0     C44265   2.226  11.110   8.336 -0.0958 -0.0882  1.0818
  336MOL0     C44266   2.179  11.001   8.407  0.2198  1.0766 -0.4339
  336MOL0     O44267   2.079  10.614   8.286  0.2284  0.2017 -0.0719
  336MOL0     C44268   2.007  10.601   8.645 -0.1482 -0.5958  0.5093
  336MOL0     C44269   1.940  10.518   8.744  0.5144  0.0436  0.1551
  336MOL0     N44270   1.397   9.961   8.904 -0.1491  0.2239  0.5026
  336MOL0     N44271   1.407   9.880   8.994  0.2694  0.5161 -1.0531
  336MOL0     C44272   0.978   9.046   9.614 -0.7450 -0.0289 -1.2682
  336MOL0     C44273   0.893   8.942   9.578  0.4316 -0.8505 -0.2958
  336MOL0     C44274   0.666   8.621   9.322  0.6472 -0.6059 -0.5944
  336MOL0     C44275   0.620   8.580   9.455 -0.3938 -0.1139 -0.0524
  336MOL0     C44276   0.562   8.458   9.482 -0.1161  0.9023  0.4525
  336MOL0     C44277   0.544   8.368   9.373 -0.4384  0.2322 -0.5264
  336MOL0     O44278   0.504   8.233   9.393 -0.0173  0.1667 -0.4916
  336MOL0     C44279   0.374   8.204   9.353 -0.2458 -0.6772 -0.6239
  336MOL0     C44280   0.354   8.059   9.340 -0.6089 -0.4842  0.4353
  336MOL0     C44281   0.247   8.029   9.223  0.4779  0.6197 -0.4454
  336MOL0     C44282   0.106   8.055   9.277  0.3318 -1.1013  1.5305
  336MOL0     C44283   0.059   7.982   9.389  0.6857  0.4855 -0.8159
  336MOL0     C44284   0.020   7.939   9.491 -0.1601  0.1214 -0.6539
  336MOL0     C44285   0.586   8.404   9.242  0.0062 -0.6462 -0.8011
  336MOL0     C44286   0.634   8.532   9.211  0.1076  0.8545 -0.0028
  336MOL0     H44287   0.909   8.972   9.246 -0.9028  0.7540 -0.0816
  336MOL0     H44288   1.093   9.131   9.316  0.6598  1.0007  1.1667
  336MOL0     H44289   1.219   9.166   9.738  0.3939  1.1794  1.7851
  336MOL0     H44290   1.100   9.289   9.707 -1.0387 -2.9375  0.9666
  336MOL0     H44291   1.402   9.283   9.665 -1.2765 -2.1390  0.9211
  336MOL0     H44292   1.307   9.393   9.760  2.5073  0.9978 -0.3487
  336MOL0     H44293   1.198   9.500   9.577  2.0167  0.8915 -1.5530
  336MOL0     H44294   1.291   9.408   9.464  1.0412  1.3891 -1.4575
  336MOL0     H44295   1.443   9.575   9.675  0.5498 -4.7297  0.8015
  336MOL0     H44296   1.489   9.513   9.520 -2.7283 -2.5832 -1.1854
  336MOL0     H44297   1.453   9.755   9.513 -0.0641  0.5934  0.5163
  336MOL0     H44298   1.275   9.718   9.539 -1.7218 -3.8917 -0.2842
  336MOL0     H44299   1.248   9.584   9.361  0.7759 -1.0303  1.6168
  336MOL0     H44300   1.418   9.593   9.310  0.1272 -2.0443  2.0142
  336MOL0     H44301   1.294   9.721   9.165  1.2059  3.1343 -1.3756
  336MOL0     H44302   1.239   9.831   9.286  0.6827  0.1714  0.1744
  336MOL0     H44303   1.550   9.812   9.222 -0.4186 -0.7144 -0.4195
  336MOL0     H44304   1.451   9.931   9.320 -3.2736  1.2345 -0.8205
  336MOL0     H44305   1.400  10.151   9.173  1.6367  0.7587  0.0023
  336MOL0     H44306   1.299  10.276   8.939  1.2305  0.7714  1.8641
  336MOL0     H44307   1.340  10.198   8.786  0.4464 -0.1011 -0.2571
  336MOL0     H44308   1.565  10.277   8.995  2.3450 -0.4742 -0.9896
  336MOL0     H44309   1.512  10.382   8.869 -1.2808  0.7330  1.3944
  336MOL0     H44310   1.587  10.108   8.776 -0.3590 -0.3035  0.2578
  336MOL0     H44311   1.594  10.269   8.688  1.9886  1.6289  0.6774
  336MOL0     H44312   1.797  10.162   8.737  2.6756  1.2552  1.4445
  336MOL0     H44313   1.762  10.156   8.910 -2.2307  0.3834  0.5284
  336MOL0     H44314   1.783  10.290   8.571  0.5015 -0.0017 -2.0011
  336MOL0     H44315   1.867  10.446   8.386 -2.4077  1.3979 -0.0602
  336MOL0     H44316   2.047  10.819   8.164  3.2351  0.6452 -2.9834
  336MOL0     H44317   2.113  11.009   8.036 -1.4736  1.0620  0.4690
  336MOL0     H44318   2.152  11.197   7.933 -0.8353  2.6064  0.1555
  336MOL0     H44319   2.307  11.143   7.923 -0.8485  1.4617 -2.7677
  336MOL0     H44320   2.213  11.431   7.962 -0.1023 -1.5428  1.8645
  336MOL0     H44321   2.298  11.376   7.810  0.2355 -3.2778  0.7008
  336MOL0     H44322   2.509  11.355   7.922 -0.1321 -2.6767  1.7701
  336MOL0     H44323   2.438  11.384   8.077  2.2062 -0.5552 -0.6862
  336MOL0     H44324   2.342  11.593   7.993  0.6609 -1.4805  5.5953
  336MOL0     H44325   2.510  11.592   8.045  0.4399 -3.5069  2.5005
  336MOL0     H44326   2.425  11.576   7.749  1.0348  3.4423 -2.2074
  336MOL0     H44327   2.581  11.549   7.811  0.4163 -0.0957  4.2466
  336MOL0     H44328   2.564  11.787   7.921  1.1162  1.6806 -0.0609
  336MOL0     H44329   2.421  11.811   7.847  1.3610  1.5522 -2.5629
  336MOL0     H44330   2.514  11.805   7.629 -0.0070  0.2523 -0.0253
  336MOL0     H44331   2.604  11.921   7.726  1.1631 -0.1854  1.2002
  336MOL0     H44332   2.765  11.793   7.592 -0.3031  1.2042  0.1465
  336MOL0     H44333   2.722  11.641   7.678  2.0310  0.1993  1.1878
  336MOL0     H44334   2.280  11.194   8.378 -0.1499 -0.7083  2.4205
  336MOL0     H44335   2.206  10.991   8.512  0.0399 -2.2272 -0.5877
  336MOL0     H44336   2.055  10.695   8.667 -0.8758  0.3226 -1.5416
  336MOL0     H44337   1.938  10.559   8.845 -4.3390  2.2954 -0.5435
  336MOL0     H44338   0.994   9.068   9.719 -0.8982  2.7406 -1.7620
  336MOL0     H44339   0.853   8.890   9.664 -0.2526  0.7677  0.4075
  336MOL0     H44340   0.640   8.652   9.533  4.0830 -1.8724  0.6875
  336MOL0     H44341   0.533   8.445   9.586  1.6010  0.8973  0.9620
  336MOL0     H44342   0.365   8.252   9.255  2.1213  0.2887 -0.4449
  336MOL0     H44343   0.298   8.238   9.423  2.0546 -0.5344  1.9763
  336MOL0     H44344   0.443   8.007   9.302 -1.3484 -1.9168  0.6242
  336MOL0     H44345   0.328   8.014   9.436 -2.0642 -0.4560  0.0812
  336MOL0     H44346   0.265   7.931   9.179 -1.1353  1.0748 -2.2571
  336MOL0     H44347   0.262   8.085   9.130  0.6234 -0.9884 -1.4300
  336MOL0     H44348   0.081   8.161   9.290  0.2321 -0.5793 -1.9257
  336MOL0     H44349   0.034   8.033   9.197  0.7137 -2.0844  1.4442
  336MOL0     H44350  -0.012   7.904   9.587  3.1240  1.2054  0.9691
  336MOL0     H44351   0.579   8.328   9.165 -3.2565 -0.2838 -1.0027
  336MOL0     H44352   0.676   8.559   9.115 -0.5422  2.8145  0.2212
  337MOL0     O44353   0.955   8.340   3.505  0.9044  0.4692  0.2832
  337MOL0     C44354   1.006   8.437   3.447  0.7245 -0.2286 -0.1090
  337MOL0     O44355   0.958   8.564   3.442  0.0054  0.0339 -0.3535
  337MOL0     C44356   0.840   8.571   3.510  0.4004 -0.1402  0.6642
  337MOL0     C44357   0.814   8.550   3.651  0.7591 -0.1875 -0.2067
  337MOL0     C44358   0.685   8.564   3.709 -0.6372 -0.0074  0.0846
  337MOL0     C44359   0.582   8.610   3.636 -0.3840 -0.7223  0.0004
  337MOL0     O44360   0.460   8.652   3.690  0.4432  0.0721 -0.0335
  337MOL0     C44361   0.420   8.627   3.824  0.2239  0.8151  0.4312
  337MOL0     C44362   0.426   8.750   3.903 -0.1237  0.5243 -0.4052
  337MOL0     C44363   0.337   8.756   4.023 -1.2328  0.0461 -0.0283
  337MOL0     C44364   0.360   8.889   4.093 -0.9843  1.0973  0.1264
  337MOL0     C44365   0.294   8.893   4.232  0.6087  0.4520  0.0512
  337MOL0     C44366   0.150   8.851   4.228  0.4041 -0.4599 -1.0313
  337MOL0     C44367   0.074   8.874   4.358  0.7209  0.7304 -0.4054
  337MOL0     C44368   0.034   9.022   4.387  0.0931 -0.5911  0.1634
  337MOL0     N44369   0.064   9.092   4.513  0.6145 -0.0431 -0.3456
  337MOL0     C44370   0.183   9.137   4.559  0.8000 -0.3162 -0.0620
  337MOL0     C44371   0.155   9.196   4.673 -0.0158  0.9630  0.0761
  337MOL0     C44372   0.243   9.269   4.766 -0.1123  0.0691 -0.4297
  337MOL0     C44373   0.363   9.341   4.689  0.2358 -0.5736  0.3328
  337MOL0     C44374   0.419   9.451   4.784 -0.4870  0.0071 -0.0124
  337MOL0     C44375   0.513   9.531   4.700  0.7499  0.1939  0.4882
  337MOL0     O44376   0.607   9.440   4.637 -0.0213 -1.2010 -0.3945
  337MOL0     C44377   0.707   9.499   4.559 -0.6025 -0.1009  0.7187
  337MOL0     C44378   0.717   9.636   4.534  0.2700 -0.0563 -0.8149
  337MOL0     C44379   0.810   9.698   4.450 -0.1522  1.4247 -0.3036
  337MOL0     C44380   0.901   9.609   4.386 -0.3156 -0.2277 -0.6843
  337MOL0     C44381   1.016   9.648   4.305  1.1653 -0.2338 -0.0840
  337MOL0     O44382   1.044   9.778   4.282  0.1873 -0.4445 -0.1436
  337MOL0     C44383   1.164   9.798   4.218  0.5035 -0.8068 -0.2099
  337MOL0     C44384   1.271   9.848   4.294 -0.6927  1.1973  0.4181
  337MOL0     C44385   1.390   9.880   4.230 -1.0457 -0.3734 -0.5810
  337MOL0     C44386   1.409   9.848   4.096 -0.4511 -1.2964 -0.2152
  337MOL0     O44387   1.529   9.856   4.022  0.3400 -0.3688 -0.0692
  337MOL0     C44388   1.638   9.927   4.074 -0.8552 -1.2591 -0.1982
  337MOL0     C44389   1.744   9.945   3.955  0.0380 -0.8106  0.5474
  337MOL0     C44390   1.675  10.031   3.837 -0.0387  0.0217 -1.5340
  337MOL0     C44391   1.588  10.154   3.876  0.1682  0.5599  0.4741
  337MOL0     C44392   1.538  10.223   3.743  1.2154 -0.3817 -0.0549
  337MOL0     C44393   1.658  10.249   3.654  0.1250  0.6593 -1.0863
  337MOL0     C44394   1.623  10.344   3.535  0.4299 -0.0753  0.7701
  337MOL0     C44395   1.507  10.291   3.457 -1.2991 -0.6082 -0.0348
  337MOL0    Cl44396   1.495  10.104   3.438 -0.3124  0.0127  0.0289
  337MOL0     C44397   1.302   9.795   4.017 -0.9935  0.2991 -0.2678
  337MOL0     C44398   1.179   9.776   4.085 -0.4272  0.0719 -0.3041
  337MOL0     O44399   1.070   9.551   4.250 -0.0534 -0.7310 -0.0350
  337MOL0     C44400   0.891   9.466   4.412  0.0531 -0.0972 -0.4347
  337MOL0     C44401   0.790   9.410   4.492  0.1385 -0.2213  0.1714
  337MOL0     N44402   0.022   9.194   4.698 -0.3001  0.9942  1.1174
  337MOL0     N44403  -0.040   9.137   4.592 -0.0636  0.2316 -0.1143
  337MOL0     C44404   0.602   8.641   3.499 -0.9684 -0.3921 -0.3321
  337MOL0     C44405   0.729   8.619   3.440  0.3736 -0.8763 -0.0845
  337MOL0     C44406   1.143   8.413   3.407  0.1883  0.3754  0.9026
  337MOL0     C44407   1.204   8.287   3.420  0.6201  0.2555 -0.0615
  337MOL0     C44408   1.336   8.259   3.383 -0.7636  0.0150  0.7075
  337MOL0     C44409   1.417   8.356   3.327  0.3597 -0.8074 -0.1715
  337MOL0     O44410   1.550   8.342   3.283  0.9303 -0.3127  0.6677
  337MOL0     C44411   1.618   8.218   3.310  0.2588  0.1611 -1.1192
  337MOL0     C44412   1.751   8.238   3.242 -0.5465 -0.1993  0.6922
  337MOL0     C44413   1.726   8.201   3.092  0.1002  0.5293 -0.3070
  337MOL0     C44414   1.841   8.250   3.000 -0.0961  1.0992  0.1403
  337MOL0     C44415   1.958   8.165   3.020  0.8556 -0.5225  0.1665
  337MOL0     C44416   2.060   8.107   3.018  0.4794 -0.1231  0.0368
  337MOL0     C44417   1.361   8.476   3.309  0.1060  0.2208 -0.1582
  337MOL0     C44418   1.233   8.512   3.356  0.2271  0.4965  0.8429
  337MOL0     H44419   0.884   8.516   3.727 -1.2492 -0.6275  1.5289
  337MOL0     H44420   0.681   8.567   3.817  0.5761  2.7584  0.1332
  337MOL0     H44421   0.484   8.545   3.860  1.0493  0.4396 -1.7654
  337MOL0     H44422   0.323   8.578   3.833  1.0443 -0.8820  0.5354
  337MOL0     H44423   0.403   8.837   3.840  2.0352  1.9600  0.6629
  337MOL0     H44424   0.530   8.764   3.935  0.6866 -3.1492 -1.0089
  337MOL0     H44425   0.365   8.684   4.100 -0.4916 -0.6503 -0.9205
  337MOL0     H44426   0.232   8.738   3.997 -1.0772 -4.5470  1.6256
  337MOL0     H44427   0.466   8.915   4.099 -0.3292 -1.4369  0.9436
  337MOL0     H44428   0.329   8.974   4.031 -1.0698  1.3610  0.5316
  337MOL0     H44429   0.286   8.995   4.270 -3.0455 -0.3503  1.8948
  337MOL0     H44430   0.347   8.847   4.316 -1.6651 -2.7701 -0.0896
  337MOL0     H44431   0.163   8.743   4.216  0.9913 -0.6077  0.7003
  337MOL0     H44432   0.087   8.892   4.148  1.0824  0.4170 -1.1302
  337MOL0     H44433  -0.020   8.819   4.351  2.1555 -2.0197  0.4503
  337MOL0     H44434   0.135   8.837   4.441 -0.6748 -2.3297 -0.6286
  337MOL0     H44435  -0.075   9.023   4.374  0.3062  1.1259 -2.1229
  337MOL0     H44436   0.081   9.093   4.319 -0.4617 -0.3753 -0.0004
  337MOL0     H44437   0.286   9.137   4.523  1.6627 -3.3803  1.9780
  337MOL0     H44438   0.273   9.196   4.842 -1.9333  1.4915  1.8083
  337MOL0     H44439   0.189   9.341   4.829  1.7093  0.6167  0.5771
  337MOL0     H44440   0.316   9.385   4.601 -2.0556 -3.0448  0.2005
  337MOL0     H44441   0.434   9.261   4.665 -1.0323 -1.6732  0.1311
  337MOL0     H44442   0.337   9.504   4.833 -3.0421 -1.3902 -2.5308
  337MOL0     H44443   0.482   9.418   4.867  1.1958  3.4845  0.3071
  337MOL0     H44444   0.564   9.612   4.754  1.2860 -0.0331  0.3308
  337MOL0     H44445   0.457   9.583   4.622 -0.1170  0.8269  1.5095
  337MOL0     H44446   0.651   9.709   4.580  0.6549  1.8679 -3.1084
  337MOL0     H44447   0.809   9.804   4.424 -0.0903  0.9836 -2.2157
  337MOL0     H44448   1.260   9.862   4.401 -0.5647 -4.1990  1.4204
  337MOL0     H44449   1.466   9.933   4.285 -2.4087 -0.4852  1.5300
  337MOL0     H44450   1.698   9.879   4.153  0.4988 -0.9619 -1.0124
  337MOL0     H44451   1.609  10.025   4.112 -0.0334 -1.0241 -0.1589
  337MOL0     H44452   1.779   9.856   3.902  0.1898  0.7957 -2.2496
  337MOL0     H44453   1.828  10.004   3.993 -0.1872 -0.7474  0.9569
  337MOL0     H44454   1.633   9.952   3.774 -0.8043  0.2854 -1.3702
  337MOL0     H44455   1.760  10.056   3.773  1.9578 -2.7385 -0.1670
  337MOL0     H44456   1.512  10.119   3.946 -1.4194  0.3084 -1.2923
  337MOL0     H44457   1.653  10.227   3.925  1.3551  0.5837 -1.0571
  337MOL0     H44458   1.489  10.319   3.764  2.5320 -0.2769  3.0031
  337MOL0     H44459   1.470  10.152   3.695  2.4125 -1.1964 -0.5747
  337MOL0     H44460   1.695  10.153   3.616  3.3831  1.6714 -0.7434
  337MOL0     H44461   1.742  10.298   3.703  1.2748 -2.0814 -0.1415
  337MOL0     H44462   1.613  10.450   3.561 -0.9982  0.1277 -0.4721
  337MOL0     H44463   1.708  10.348   3.467 -1.5123 -0.3234 -1.7983
  337MOL0     H44464   1.520  10.322   3.353 -0.9475  0.1222  0.2197
  337MOL0     H44465   1.412  10.329   3.496 -0.9373 -0.4330  0.6916
  337MOL0     H44466   1.322   9.762   3.916  1.0023 -5.8051  1.7017
  337MOL0     H44467   1.102   9.747   4.015  0.8087 -2.0818 -0.8867
  337MOL0     H44468   0.958   9.394   4.366  0.5099 -1.2225  1.8588
  337MOL0     H44469   0.781   9.302   4.494  1.0129 -0.2998  0.0805
  337MOL0     H44470   0.514   8.673   3.444 -1.0804 -2.7754 -1.6505
  337MOL0     H44471   0.733   8.647   3.335 -2.9675 -0.0543 -0.0782
  337MOL0     H44472   1.150   8.208   3.471 -0.0230  1.1588  0.6882
  337MOL0     H44473   1.374   8.157   3.381 -0.4628  0.1288 -1.5230
  337MOL0     H44474   1.568   8.127   3.277  0.2515  0.1935 -1.1972
  337MOL0     H44475   1.629   8.217   3.419 -1.8564  1.1122 -0.8374
  337MOL0     H44476   1.786   8.341   3.242 -1.3724  0.1578 -1.9121
  337MOL0     H44477   1.827   8.175   3.290 -0.5512 -1.3240 -0.7323
  337MOL0     H44478   1.646   8.267   3.056  0.5338  1.3076  0.1272
  337MOL0     H44479   1.695   8.097   3.080  0.4674  0.2186  1.2453
  337MOL0     H44480   1.816   8.259   2.894  1.0003 -4.0661 -0.8090
  337MOL0     H44481   1.882   8.350   3.015  2.1889  0.1125  0.8247
  337MOL0     H44482   2.142   8.038   3.019  1.1325  0.5076 -2.2720
  337MOL0     H44483   1.421   8.557   3.270  0.6492 -0.7076 -1.3409
  337MOL0     H44484   1.209   8.618   3.357 -0.9455  0.2434  2.3091
  338MOL0     O44485   6.969   7.612   0.590 -0.2761  0.4032  0.0941
  338MOL0     C44486   7.022   7.652   0.692 -0.0088  0.1582 -0.6244
  338MOL0     O44487   6.968   7.643   0.817  0.8602 -0.2763 -0.4326
  338MOL0     C44488   6.841   7.593   0.836 -0.3883  0.3986  0.2459
  338MOL0     C44489   6.812   7.454   0.807 -0.5697  0.7481 -0.4001
  338MOL0     C44490   6.680   7.418   0.825 -1.1806  0.8791  0.4618
  338MOL0     C44491   6.592   7.507   0.875  1.2949  0.3411  1.1560
  338MOL0     O44492   6.465   7.463   0.892 -0.4178 -0.0273  0.4650
  338MOL0     C44493   6.400   7.426   0.765 -0.5791  0.7892  0.7306
  338MOL0     C44494   6.333   7.284   0.773 -0.2630 -0.8060  0.3283
  338MOL0     C44495   6.236   7.256   0.649  0.6866  0.1949  0.1646
  338MOL0     C44496   6.142   7.371   0.616 -0.4836  0.6174 -0.4407
  338MOL0     C44497   6.074   7.337   0.482  0.4802 -0.2516 -0.8586
  338MOL0     C44498   5.980   7.451   0.443 -0.5535 -0.5165 -0.0817
  338MOL0     C44499   5.921   7.431   0.302 -0.9427  0.7336 -0.2290
  338MOL0     C44500   5.828   7.544   0.257  0.3580  0.0522  1.2642
  338MOL0     N44501   5.712   7.565   0.338 -0.7822 -1.1707 -0.1241
  338MOL0     C44502   5.621   7.470   0.368  0.2249  0.7165 -0.0568
  338MOL0     C44503   5.546   7.511   0.468  0.6739  0.0310  0.7523
  338MOL0     C44504   5.427   7.443   0.532  0.1714 -0.0103 -0.2189
  338MOL0     C44505   5.328   7.391   0.428  0.2646  0.8265  0.3078
  338MOL0     C44506   5.185   7.376   0.499  0.1596  0.6395  0.9977
  338MOL0     C44507   5.091   7.283   0.431  0.4069 -0.5573  0.2039
  338MOL0     O44508   5.136   7.145   0.436  0.0059  0.1010 -0.1061
  338MOL0     C44509   5.050   7.051   0.393 -0.6230 -0.3021  0.7803
  338MOL0     C44510   4.911   7.074   0.353 -0.8235 -0.3285  0.9877
  338MOL0     C44511   4.830   6.974   0.308  0.4646  0.3743  0.1431
  338MOL0     C44512   4.877   6.843   0.314 -1.2919 -0.4720  0.9325
  338MOL0     C44513   4.780   6.733   0.298 -0.4297  0.4925 -0.2438
  338MOL0     O44514   4.682   6.757   0.203  0.3920 -0.8580 -0.8192
  338MOL0     C44515   4.619   6.658   0.143 -0.3563  0.7016  0.0926
  338MOL0     C44516   4.558   6.553   0.210  0.4814  0.7893 -0.2160
  338MOL0     C44517   4.469   6.467   0.144  0.1129 -0.6217  0.4695
  338MOL0     C44518   4.452   6.468   0.007  0.2283  0.0060  0.0055
  338MOL0     O44519   4.389   6.357  -0.048 -0.3830 -0.4516  0.3105
  338MOL0     C44520   4.432   6.313  -0.181 -0.0716 -0.5104  0.3736
  338MOL0     C44521   4.354   6.172  -0.197 -0.5518  0.6522 -0.3690
  338MOL0     C44522   4.400   6.095  -0.321 -0.3771 -0.0157  1.3665
  338MOL0     C44523   4.306   5.990  -0.360 -0.0839  0.4073 -0.2760
  338MOL0     C44524   4.375   5.885  -0.440 -0.2814 -0.9014  1.1948
  338MOL0     C44525   4.448   5.927  -0.571  0.1918  0.2804 -0.4837
  338MOL0     C44526   4.347   5.951  -0.684 -0.1191  0.3207 -0.1686
  338MOL0     C44527   4.412   6.039  -0.788  0.8202 -0.3825 -0.7801
  338MOL0    Cl44528   4.413   6.209  -0.727 -0.6814 -0.0697 -0.2549
  338MOL0     C44529   4.512   6.569  -0.065  0.4063  0.3766 -0.3408
  338MOL0     C44530   4.597   6.667  -0.000 -0.2965 -0.4258  0.3853
  338MOL0     O44531   4.815   6.622   0.342  0.1287  0.2125  0.8846
  338MOL0     C44532   5.008   6.817   0.356  0.5980 -0.1908 -0.2759
  338MOL0     C44533   5.095   6.914   0.398 -0.9493 -0.9265 -0.1421
  338MOL0     N44534   5.590   7.639   0.491 -0.2609  0.1460  0.3952
  338MOL0     N44535   5.693   7.670   0.417  0.3676 -0.0418 -0.1960
  338MOL0     C44536   6.623   7.640   0.901 -0.4625  1.5454  0.1403
  338MOL0     C44537   6.747   7.682   0.884  0.0083  0.4788 -0.3443
  338MOL0     C44538   7.157   7.688   0.680 -1.3074  0.2295 -0.1354
  338MOL0     C44539   7.206   7.738   0.556 -0.7926  0.4939  0.1265
  338MOL0     C44540   7.335   7.785   0.545 -0.7264 -0.0387  0.4072
  338MOL0     C44541   7.424   7.784   0.650 -0.0460 -0.3002 -0.4556
  338MOL0     O44542   7.545   7.851   0.639 -0.6606 -0.0200  0.1735
  338MOL0     C44543   7.527   7.991   0.612  0.7289 -0.9853  0.2946
  338MOL0     C44544   7.615   8.063   0.508  0.8181  0.0399  0.1511
  338MOL0     C44545   7.607   8.014   0.362  0.4291 -1.0942  0.3473
  338MOL0     C44546   7.686   7.885   0.343  0.0886 -0.0659 -0.5291
  338MOL0     C44547   7.713   7.846   0.197  0.2467  0.3815 -0.4060
  338MOL0     C44548   7.708   7.820   0.080  0.6000  0.6190  1.4695
  338MOL0     C44549   7.390   7.722   0.769 -0.5214  0.5463 -0.2240
  338MOL0     C44550   7.251   7.684   0.781 -0.4654  0.2177 -0.9863
  338MOL0     H44551   6.893   7.385   0.786 -1.4653 -1.0143  1.5799
  338MOL0     H44552   6.655   7.314   0.809 -6.1336  1.7055  1.1356
  338MOL0     H44553   6.462   7.422   0.675 -0.7943 -1.8740  0.6037
  338MOL0     H44554   6.338   7.510   0.734 -1.9260  0.5351  2.5772
  338MOL0     H44555   6.278   7.280   0.868  2.2967 -0.0485  1.9470
  338MOL0     H44556   6.410   7.206   0.767 -1.0834 -1.5195 -2.3325
  338MOL0     H44557   6.180   7.162   0.655  1.2229 -0.2200 -0.9417
  338MOL0     H44558   6.304   7.242   0.565  1.4775  1.8097  0.4895
  338MOL0     H44559   6.071   7.396   0.695 -0.4025  1.4190 -0.6149
  338MOL0     H44560   6.205   7.458   0.595 -0.0961  0.3359 -0.4627
  338MOL0     H44561   6.023   7.241   0.479 -0.0605  0.0096 -0.1933
  338MOL0     H44562   6.148   7.338   0.401 -0.4551 -2.4073 -1.8074
  338MOL0     H44563   6.027   7.550   0.444 -2.2696  0.3358  0.7757
  338MOL0     H44564   5.901   7.465   0.517 -2.7574 -0.2141 -2.3454
  338MOL0     H44565   5.997   7.414   0.225 -0.8628 -3.0015  0.4929
  338MOL0     H44566   5.871   7.334   0.315  1.5715 -0.3397  2.8264
  338MOL0     H44567   5.789   7.524   0.157  0.4377  2.2331  0.7598
  338MOL0     H44568   5.886   7.636   0.246  0.3689 -0.0926 -0.0513
  338MOL0     H44569   5.629   7.370   0.327  2.4762  0.6100  0.5333
  338MOL0     H44570   5.379   7.511   0.604  0.6426 -0.3570  0.4379
  338MOL0     H44571   5.448   7.352   0.588 -3.1299 -2.4005 -2.5058
  338MOL0     H44572   5.359   7.288   0.407  0.6886  1.0910 -0.3963
  338MOL0     H44573   5.324   7.457   0.341 -0.7281 -0.5534 -0.7319
  338MOL0     H44574   5.203   7.352   0.604  2.9247 -1.3157  0.2013
  338MOL0     H44575   5.133   7.471   0.489 -1.7527 -0.5878 -3.3400
  338MOL0     H44576   5.078   7.315   0.328 -3.8229  0.6403  0.9450
  338MOL0     H44577   4.992   7.297   0.475  2.4148  0.9993  4.9908
  338MOL0     H44578   4.867   7.174   0.353 -2.8589 -1.1721 -0.3716
  338MOL0     H44579   4.726   6.992   0.284 -0.0486  0.1794  2.0163
  338MOL0     H44580   4.576   6.536   0.315  0.3896 -1.9476 -0.5838
  338MOL0     H44581   4.428   6.380   0.194 -2.2057 -0.7080 -1.3556
  338MOL0     H44582   4.540   6.294  -0.191 -0.2182 -1.6726  0.8667
  338MOL0     H44583   4.399   6.382  -0.259 -0.5890 -1.3869 -0.1932
  338MOL0     H44584   4.245   6.183  -0.193 -0.4676  1.3674  3.7614
  338MOL0     H44585   4.370   6.106  -0.112 -2.5895  0.0716 -0.3770
  338MOL0     H44586   4.499   6.061  -0.293 -0.6583 -3.0582 -0.8222
  338MOL0     H44587   4.414   6.173  -0.397  2.1832  0.8762  2.6521
  338MOL0     H44588   4.254   5.950  -0.272 -2.1612  1.5170 -0.9184
  338MOL0     H44589   4.225   6.037  -0.417  0.8143  1.1232 -0.9842
  338MOL0     H44590   4.300   5.810  -0.465 -0.4635  0.3402 -2.8505
  338MOL0     H44591   4.449   5.834  -0.378  1.8755  1.0901  0.4253
  338MOL0     H44592   4.506   5.839  -0.603  0.5088  1.0426 -2.1225
  338MOL0     H44593   4.520   6.003  -0.542 -2.2183  1.9843  1.4964
  338MOL0     H44594   4.313   5.858  -0.730  0.5602  0.7060 -1.5165
  338MOL0     H44595   4.257   6.003  -0.651  0.5424  0.0263  2.2603
  338MOL0     H44596   4.353   6.042  -0.880  1.8706 -0.7242 -1.4838
  338MOL0     H44597   4.510   5.994  -0.807  1.6875  0.3123  1.6346
  338MOL0     H44598   4.506   6.562  -0.173  1.2751 -0.8338 -0.3296
  338MOL0     H44599   4.641   6.734  -0.073 -0.2842 -1.0117 -0.1587
  338MOL0     H44600   5.038   6.714   0.367 -0.2220 -0.1718  3.1892
  338MOL0     H44601   5.193   6.880   0.430 -0.9579 -0.6689  0.1611
  338MOL0     H44602   6.552   7.715   0.932 -1.0625  0.7665  0.6626
  338MOL0     H44603   6.782   7.785   0.886  0.2079  0.4571 -1.5975
  338MOL0     H44604   7.139   7.734   0.471  1.3699 -0.9963 -1.6467
  338MOL0     H44605   7.365   7.821   0.447 -2.8065 -0.7216 -0.5412
  338MOL0     H44606   7.540   8.040   0.709  0.6941  1.1547 -0.7188
  338MOL0     H44607   7.432   8.020   0.567  0.1940 -3.1358 -0.0693
  338MOL0     H44608   7.567   8.162   0.506  1.3334  0.3267  1.1514
  338MOL0     H44609   7.714   8.088   0.548  0.1040  0.1439  1.9445
  338MOL0     H44610   7.657   8.086   0.296  1.4950  0.8600  3.1107
  338MOL0     H44611   7.501   8.005   0.336 -0.6768 -0.7923  4.1475
  338MOL0     H44612   7.783   7.894   0.394 -0.3661 -0.7163  0.4907
  338MOL0     H44613   7.628   7.810   0.397 -0.7041  1.1686  0.3880
  338MOL0     H44614   7.693   7.788  -0.021  0.1292  0.5883  1.5499
  338MOL0     H44615   7.453   7.737   0.856 -0.0934 -0.3122 -0.3722
  338MOL0     H44616   7.233   7.637   0.877 -1.5031  1.8766 -0.3212
  339MOL0     O44617   8.771   4.948   2.332 -0.1659 -1.0588  0.3362
  339MOL0     C44618   8.858   4.985   2.407 -1.3154  0.8947  0.2001
  339MOL0     O44619   8.868   5.106   2.471 -0.6711 -0.6055 -0.8522
  339MOL0     C44620   8.778   5.207   2.473  0.4830 -0.2349  0.4498
  339MOL0     C44621   8.671   5.234   2.383  0.2361 -0.1461  0.2419
  339MOL0     C44622   8.586   5.335   2.419  0.2396 -1.1042  0.1663
  339MOL0     C44623   8.602   5.426   2.517  0.3992 -0.8624  0.1127
  339MOL0     O44624   8.517   5.530   2.543  0.6337 -0.0957 -0.0041
  339MOL0     C44625   8.447   5.598   2.437 -0.3000 -0.7441 -0.2956
  339MOL0     C44626   8.391   5.734   2.485 -0.0083 -0.9734 -0.5589
  339MOL0     C44627   8.288   5.721   2.599  0.3919 -0.1100 -0.2369
  339MOL0     C44628   8.180   5.620   2.577 -0.3479 -0.2305  0.1141
  339MOL0     C44629   8.107   5.592   2.710 -0.0034  0.8888  0.5195
  339MOL0     C44630   7.975   5.667   2.708 -0.1415 -0.2255 -0.3027
  339MOL0     C44631   7.903   5.678   2.854  0.2132 -0.3065  0.2616
  339MOL0     C44632   7.854   5.550   2.907 -0.5091  0.4326  0.0139
  339MOL0     N44633   7.787   5.579   3.032  0.6898  0.4132  1.1874
  339MOL0     C44634   7.647   5.597   3.045  0.6188 -0.6925  0.1657
  339MOL0     C44635   7.633   5.621   3.177 -0.4850 -0.4851  0.2210
  339MOL0     C44636   7.506   5.663   3.246  0.2668  0.4653 -0.4221
  339MOL0     C44637   7.506   5.618   3.389  0.5599  0.6128  0.4704
  339MOL0     C44638   7.401   5.677   3.486  0.3673 -0.3178  0.4328
  339MOL0     C44639   7.277   5.587   3.496 -0.2624 -0.0078  0.4304
  339MOL0     O44640   7.168   5.642   3.568 -0.0780 -0.7305 -0.7515
  339MOL0     C44641   7.094   5.550   3.634 -0.3573 -0.2901  1.0859
  339MOL0     C44642   7.037   5.433   3.580 -0.4131  0.3127  0.2117
  339MOL0     C44643   6.956   5.352   3.648  0.1992 -0.5242 -0.8312
  339MOL0     C44644   6.963   5.363   3.788  0.9043  0.2046 -0.7236
  339MOL0     C44645   6.910   5.254   3.880  0.5249 -0.9233  0.2794
  339MOL0     O44646   6.894   5.281   4.016 -0.0917 -0.3859  0.3231
  339MOL0     C44647   6.849   5.180   4.104 -0.4275 -0.3595 -0.3039
  339MOL0     C44648   6.941   5.075   4.145 -0.7215 -0.4682  0.0150
  339MOL0     C44649   6.899   4.958   4.215 -0.2192  0.5053 -0.1126
  339MOL0     C44650   6.763   4.941   4.243  0.1994 -0.3623  0.1054
  339MOL0     O44651   6.716   4.857   4.343 -0.4396  0.5131 -0.3990
  339MOL0     C44652   6.768   4.726   4.355 -0.1881  1.3325  0.3975
  339MOL0     C44653   6.645   4.632   4.358  0.0890  0.0393  0.3900
  339MOL0     C44654   6.536   4.656   4.454  0.3516  0.4283 -0.7885
  339MOL0     C44655   6.564   4.589   4.586 -0.1102 -0.6160  0.6427
  339MOL0     C44656   6.511   4.450   4.595 -0.5465 -0.3873 -1.0245
  339MOL0     C44657   6.499   4.393   4.730  0.0520 -0.0492 -0.0179
  339MOL0     C44658   6.425   4.257   4.735  0.5020 -0.6028 -0.2364
  339MOL0     C44659   6.406   4.194   4.880  0.1838  0.2041 -0.0560
  339MOL0    Cl44660   6.332   4.317   4.997  0.3781  0.2886 -0.3382
  339MOL0     C44661   6.672   5.041   4.202  0.1707 -0.1541  0.2261
  339MOL0     C44662   6.713   5.162   4.131 -0.2173  0.4047 -0.8825
  339MOL0     O44663   6.910   5.144   3.825 -0.1754 -0.4668  0.5619
  339MOL0     C44664   7.018   5.480   3.846  0.2369 -0.1660  0.6814
  339MOL0     C44665   7.082   5.576   3.768  0.0265  0.5242 -0.6617
  339MOL0     N44666   7.762   5.614   3.240 -0.3550  0.1089  0.0452
  339MOL0     N44667   7.842   5.580   3.156 -0.5287 -0.7436  0.0470
  339MOL0     C44668   8.709   5.411   2.596  0.1030  0.4832 -0.0711
  339MOL0     C44669   8.801   5.296   2.577  0.5873  0.4963 -0.3531
  339MOL0     C44670   8.972   4.893   2.421  0.6739  0.1963 -1.0178
  339MOL0     C44671   9.080   4.920   2.503  0.8011 -0.0123 -0.5433
  339MOL0     C44672   9.183   4.829   2.517  0.6703 -0.3897 -0.6210
  339MOL0     C44673   9.187   4.718   2.437 -0.0071  0.7266  0.0083
  339MOL0     O44674   9.292   4.622   2.462 -0.1337 -0.5840  0.8001
  339MOL0     C44675   9.354   4.565   2.339  0.3895  0.5584 -0.3054
  339MOL0     C44676   9.503   4.579   2.319  0.0594 -1.3935 -1.0173
  339MOL0     C44677   9.574   4.717   2.375 -0.5812 -0.0463 -0.5358
  339MOL0     C44678   9.519   4.837   2.340 -0.2647 -1.1715 -0.4009
  339MOL0     C44679   9.579   4.948   2.402  0.7894 -1.1850 -1.1674
  339MOL0     C44680   9.610   5.058   2.454  1.3244  0.6089  0.3711
  339MOL0     C44681   9.078   4.682   2.350 -0.1143 -0.6080  0.2034
  339MOL0     C44682   8.966   4.763   2.350  0.7808 -0.6232  1.2201
  339MOL0     H44683   8.649   5.184   2.289 -0.0024 -0.5701  0.5185
  339MOL0     H44684   8.506   5.349   2.348  2.1254 -0.7624 -2.0046
  339MOL0     H44685   8.369   5.537   2.389  0.6722 -0.8587 -1.8057
  339MOL0     H44686   8.517   5.620   2.355 -1.1757  0.5285 -0.7345
  339MOL0     H44687   8.340   5.783   2.402  1.5361 -0.3433 -1.1785
  339MOL0     H44688   8.469   5.800   2.523 -1.0953  0.4535 -0.7342
  339MOL0     H44689   8.234   5.816   2.590 -0.2865 -0.6307 -2.0902
  339MOL0     H44690   8.345   5.712   2.692  3.5765  2.1032 -1.7663
  339MOL0     H44691   8.119   5.658   2.495  1.4899  1.2138 -0.6681
  339MOL0     H44692   8.211   5.519   2.548 -2.2281 -2.2990  4.4610
  339MOL0     H44693   8.150   5.610   2.809 -5.1545  1.4341  2.9697
  339MOL0     H44694   8.082   5.485   2.709 -0.4626  0.9994 -0.0472
  339MOL0     H44695   7.906   5.605   2.650 -0.6450 -2.0366  2.0690
  339MOL0     H44696   7.983   5.770   2.672 -1.5265  0.6985  1.7856
  339MOL0     H44697   7.975   5.715   2.927  1.1547 -1.7491  0.1106
  339MOL0     H44698   7.822   5.752   2.850 -0.0937 -0.6913 -1.3187
  339MOL0     H44699   7.943   5.491   2.932 -0.8748  0.2628  0.9277
  339MOL0     H44700   7.799   5.492   2.832  1.0688 -0.7172 -0.3099
  339MOL0     H44701   7.567   5.619   2.976 -1.0482 -0.1991  2.1474
  339MOL0     H44702   7.426   5.614   3.189 -0.6688  0.4414  0.8803
  339MOL0     H44703   7.490   5.771   3.246 -2.6368  0.1398 -0.6988
  339MOL0     H44704   7.602   5.644   3.434  0.2154  1.3425  0.8134
  339MOL0     H44705   7.506   5.509   3.385 -1.5198  0.5949 -0.8140
  339MOL0     H44706   7.435   5.703   3.587  0.6736 -1.0517  0.5255
  339MOL0     H44707   7.365   5.770   3.441 -1.8907 -1.6320 -0.6672
  339MOL0     H44708   7.317   5.497   3.544 -0.7042 -0.4338  0.0107
  339MOL0     H44709   7.235   5.565   3.398 -2.6973  2.8394  0.6929
  339MOL0     H44710   7.053   5.428   3.473  0.5620 -0.4732  0.3765
  339MOL0     H44711   6.906   5.266   3.606  0.0321 -2.3881  2.7973
  339MOL0     H44712   7.047   5.088   4.125 -0.6846  0.7453  0.8624
  339MOL0     H44713   6.967   4.885   4.258 -1.2572  1.4559  3.4733
  339MOL0     H44714   6.827   4.725   4.447  0.9611 -0.2546 -0.3189
  339MOL0     H44715   6.835   4.703   4.272  0.1636  0.1755  0.9737
  339MOL0     H44716   6.679   4.528   4.353  0.7789  0.3047 -1.2998
  339MOL0     H44717   6.590   4.649   4.265 -0.6120 -1.8749  0.4194
  339MOL0     H44718   6.455   4.617   4.393  0.4751 -0.2486 -0.5247
  339MOL0     H44719   6.524   4.763   4.473 -2.2978 -0.1004  0.9041
  339MOL0     H44720   6.669   4.587   4.617 -0.1280 -1.0452  0.6849
  339MOL0     H44721   6.507   4.648   4.658 -1.0155  3.7514 -3.1648
  339MOL0     H44722   6.572   4.388   4.527 -0.5265 -1.4226 -0.0911
  339MOL0     H44723   6.411   4.444   4.552  0.1973  1.3430 -3.1996
  339MOL0     H44724   6.437   4.460   4.791 -0.8539  0.2099 -1.1909
  339MOL0     H44725   6.592   4.383   4.787  0.5186  2.0115 -0.3303
  339MOL0     H44726   6.326   4.269   4.690  1.6359 -1.0442 -3.0642
  339MOL0     H44727   6.478   4.177   4.681  0.9246 -0.9648  0.7041
  339MOL0     H44728   6.499   4.149   4.916 -0.4698 -2.2378 -1.1945
  339MOL0     H44729   6.331   4.116   4.863 -0.1768  0.4294  0.4823
  339MOL0     H44730   6.565   5.027   4.215  0.1367 -1.1200 -0.9169
  339MOL0     H44731   6.631   5.226   4.101 -2.7237 -1.1632  2.0293
  339MOL0     H44732   7.032   5.504   3.951  2.6315  1.0017  0.1619
  339MOL0     H44733   7.135   5.652   3.824  0.0373 -0.1481  0.2663
  339MOL0     H44734   8.731   5.486   2.671  2.3036 -0.3921  0.2571
  339MOL0     H44735   8.894   5.277   2.630  1.2541 -1.0594 -2.0049
  339MOL0     H44736   9.080   5.015   2.555 -0.4161 -0.2388 -0.1014
  339MOL0     H44737   9.274   4.848   2.573 -1.5155  0.0988  3.0566
  339MOL0     H44738   9.305   4.607   2.251 -0.5670 -4.3081 -2.4370
  339MOL0     H44739   9.333   4.458   2.325 -1.6135  1.1542 -2.5461
  339MOL0     H44740   9.550   4.494   2.370  1.1161 -0.3605 -0.2028
  339MOL0     H44741   9.530   4.574   2.213  2.8468 -0.5591 -0.4430
  339MOL0     H44742   9.670   4.719   2.323 -1.4918  1.0693 -2.3118
  339MOL0     H44743   9.583   4.715   2.484 -0.7142  2.3119 -0.4266
  339MOL0     H44744   9.518   4.858   2.233  0.8761  0.5382 -0.1168
  339MOL0     H44745   9.414   4.820   2.365 -0.2107 -1.0015 -0.0509
  339MOL0     H44746   9.628   5.160   2.480  0.4097  1.1572 -0.9987
  339MOL0     H44747   9.084   4.587   2.299  4.1631 -1.2953  1.6188
  339MOL0     H44748   8.883   4.722   2.294  0.3689 -1.9522  2.7242
  340MOL0     O44749   9.179   2.957   1.413 -0.5125 -0.4232 -0.1051
  340MOL0     C44750   9.274   2.956   1.332  0.2372  0.2790  0.0049
  340MOL0     O44751   9.360   3.055   1.312  0.0202 -0.1161 -0.1559
  340MOL0     C44752   9.343   3.183   1.365  1.1214 -0.0891 -0.3813
  340MOL0     C44753   9.219   3.247   1.386 -0.1665  0.0593  0.3170
  340MOL0     C44754   9.208   3.375   1.431 -0.3677 -1.4765 -0.3160
  340MOL0     C44755   9.320   3.445   1.466  0.0137 -0.3017 -0.1188
  340MOL0     O44756   9.313   3.572   1.523  0.2491 -0.5681 -0.0112
  340MOL0     C44757   9.432   3.650   1.548  0.1953 -0.8205  0.5429
  340MOL0     C44758   9.400   3.753   1.646  0.2546  0.1284  0.2494
  340MOL0     C44759   9.520   3.817   1.713 -0.1473  0.3603  0.9352
  340MOL0     C44760   9.462   3.949   1.766 -0.6968 -0.0781  0.6442
  340MOL0     C44761   9.558   4.024   1.858  0.6346 -0.6338 -0.4654
  340MOL0     C44762   9.484   4.151   1.904  0.0665  0.0583  0.4662
  340MOL0     C44763   9.378   4.131   2.002 -0.8907  0.2247 -0.2342
  340MOL0     C44764   9.369   4.258   2.099  0.9269 -0.1129 -0.7308
  340MOL0     N44765   9.323   4.383   2.029 -0.0470  0.2687 -0.6389
  340MOL0     C44766   9.194   4.399   1.981  0.2541 -1.0771  0.6121
  340MOL0     C44767   9.212   4.518   1.913 -0.5637  0.3610  0.3453
  340MOL0     C44768   9.102   4.574   1.840  1.1148 -0.4603  0.4937
  340MOL0     C44769   9.066   4.698   1.908  0.1962  0.0742 -0.0568
  340MOL0     C44770   8.971   4.778   1.820 -0.5229  0.2132  0.5772
  340MOL0     C44771   8.821   4.746   1.820 -0.8591  0.8011 -0.3205
  340MOL0     O44772   8.772   4.714   1.943  0.7388 -0.1405 -0.5081
  340MOL0     C44773   8.635   4.688   1.960 -0.6841  0.2360 -0.0671
  340MOL0     C44774   8.549   4.637   1.863 -0.1221 -1.2492 -0.1634
  340MOL0     C44775   8.421   4.599   1.899 -0.3878 -0.7546 -0.3682
  340MOL0     C44776   8.374   4.634   2.031 -0.6875  0.5777  0.4863
  340MOL0     C44777   8.233   4.613   2.057 -0.2443 -0.4436  0.7341
  340MOL0     O44778   8.147   4.538   1.975  0.2777 -0.4939 -0.1370
  340MOL0     C44779   8.013   4.507   1.996 -0.9056  0.1751 -0.1533
  340MOL0     C44780   7.936   4.495   1.879  0.0554 -0.9463  0.6437
  340MOL0     C44781   7.800   4.468   1.891  0.3211 -0.5194  0.6853
  340MOL0     C44782   7.741   4.452   2.018  0.5754 -0.0904 -1.3360
  340MOL0     O44783   7.608   4.412   2.034 -0.4203  1.0040 -1.0359
  340MOL0     C44784   7.524   4.443   2.149 -0.2543  0.8511  0.2058
  340MOL0     C44785   7.391   4.363   2.148  0.7258  0.4240  0.4004
  340MOL0     C44786   7.406   4.209   2.142 -0.4699  1.0422 -0.6166
  340MOL0     C44787   7.459   4.146   2.270 -0.7764  0.4655 -0.6514
  340MOL0     C44788   7.352   4.117   2.380  0.9077 -1.4726  0.7340
  340MOL0     C44789   7.434   4.055   2.499  0.0672 -0.6127 -0.7703
  340MOL0     C44790   7.333   4.011   2.602 -0.2857 -0.4527 -0.0787
  340MOL0     C44791   7.398   3.916   2.705 -0.1597 -0.2421  0.3679
  340MOL0    Cl44792   7.534   3.988   2.805  0.3077  0.9730  0.1908
  340MOL0     C44793   7.820   4.462   2.130  0.1433 -0.3193  0.5199
  340MOL0     C44794   7.960   4.485   2.120 -0.7032  0.5754  0.2894
  340MOL0     O44795   8.199   4.678   2.148 -0.3640  1.0896 -1.1464
  340MOL0     C44796   8.461   4.673   2.127  0.1072 -0.2383  1.1363
  340MOL0     C44797   8.599   4.682   2.097 -0.7449  0.4823  0.2579
  340MOL0     N44798   9.340   4.569   1.926 -0.0583 -0.2523  0.1807
  340MOL0     N44799   9.402   4.491   2.000 -0.5653  0.1177  0.4896
  340MOL0     C44800   9.446   3.384   1.445  0.0955 -0.1116  0.0077
  340MOL0     C44801   9.455   3.260   1.390 -0.6160  0.6608  0.8999
  340MOL0     C44802   9.299   2.827   1.270 -0.3115  0.1376  0.7774
  340MOL0     C44803   9.396   2.806   1.169 -0.1709 -0.6069 -0.6390
  340MOL0     C44804   9.435   2.679   1.125  1.1459  0.2593  0.4281
  340MOL0     C44805   9.355   2.571   1.161 -0.1856  0.7426 -0.2971
  340MOL0     O44806   9.372   2.442   1.106 -0.4881  0.1064  0.2432
  340MOL0     C44807   9.455   2.417   0.994 -1.0728 -0.2559  0.4196
  340MOL0     C44808   9.411   2.472   0.858  0.1473 -0.3324 -0.5012
  340MOL0     C44809   9.522   2.431   0.754 -0.1783 -0.6072  0.0451
  340MOL0     C44810   9.506   2.522   0.624 -0.2130 -0.0155  0.4780
  340MOL0     C44811   9.371   2.521   0.565 -0.1828 -0.4018 -0.4561
  340MOL0     C44812   9.261   2.516   0.509 -0.4644  0.1878 -0.1220
  340MOL0     C44813   9.250   2.590   1.243 -0.4047  0.1963  0.7700
  340MOL0     C44814   9.218   2.716   1.305 -0.1154  0.2465  0.1235
  340MOL0     H44815   9.130   3.186   1.378 -2.1563  2.5080  2.1166
  340MOL0     H44816   9.104   3.398   1.452 -0.1484 -0.6690 -0.0870
  340MOL0     H44817   9.467   3.692   1.454  1.6698 -1.6791  0.6756
  340MOL0     H44818   9.511   3.593   1.599 -0.1687  1.0000  3.3965
  340MOL0     H44819   9.337   3.712   1.726  1.9964  0.0670  1.6570
  340MOL0     H44820   9.351   3.835   1.594  0.4645  0.1516  0.0861
  340MOL0     H44821   9.593   3.847   1.637  1.4597 -1.0564  1.8462
  340MOL0     H44822   9.576   3.756   1.784  1.8304  0.9556 -0.0170
  340MOL0     H44823   9.447   4.008   1.675  1.7375  0.3481  0.4681
  340MOL0     H44824   9.365   3.932   1.814 -1.0629  2.2786  0.8315
  340MOL0     H44825   9.656   4.040   1.812  1.3742  3.6897  2.0381
  340MOL0     H44826   9.570   3.968   1.951  0.5747  0.7315  0.3858
  340MOL0     H44827   9.451   4.208   1.817  0.8499 -1.2426 -0.7135
  340MOL0     H44828   9.564   4.209   1.952  0.6992 -0.9830  0.7138
  340MOL0     H44829   9.280   4.117   1.955 -1.7479  1.1471  1.2141
  340MOL0     H44830   9.398   4.042   2.062  1.5070  0.3227 -0.8001
  340MOL0     H44831   9.469   4.269   2.144  0.3799 -1.0767  0.8046
  340MOL0     H44832   9.298   4.233   2.178  3.1400 -1.4199  0.9491
  340MOL0     H44833   9.109   4.332   1.988 -0.9297  0.1339 -1.1108
  340MOL0     H44834   9.019   4.503   1.830  0.6483  0.1029  0.2856
  340MOL0     H44835   9.132   4.592   1.736 -4.5405  2.5827 -1.0524
  340MOL0     H44836   9.150   4.759   1.944 -1.3290  0.4640  3.1961
  340MOL0     H44837   9.010   4.675   1.999  0.4983  1.6302  0.5611
  340MOL0     H44838   8.987   4.881   1.853  0.8486 -0.6400  2.7495
  340MOL0     H44839   9.012   4.783   1.719 -0.2580  0.4361  0.6934
  340MOL0     H44840   8.806   4.669   1.745  0.5105  0.2785 -0.0954
  340MOL0     H44841   8.764   4.830   1.780 -2.5087  0.6145  1.4880
  340MOL0     H44842   8.578   4.632   1.759 -2.1301  4.2804 -1.3026
  340MOL0     H44843   8.357   4.558   1.822 -1.8707  3.7361 -1.8730
  340MOL0     H44844   7.980   4.494   1.780  0.4910  2.3319  0.6938
  340MOL0     H44845   7.742   4.431   1.807  0.0836 -2.6007  1.7049
  340MOL0     H44846   7.494   4.548   2.148  0.1241  1.0576  2.9538
  340MOL0     H44847   7.579   4.426   2.242 -1.5928 -2.1893  0.5949
  340MOL0     H44848   7.345   4.395   2.054  0.7075  0.9822  0.5970
  340MOL0     H44849   7.328   4.380   2.236 -2.2963 -1.6441 -1.1854
  340MOL0     H44850   7.472   4.185   2.057  0.4437  0.2778  0.2882
  340MOL0     H44851   7.315   4.159   2.110  0.6438 -2.5048  1.2524
  340MOL0     H44852   7.502   4.047   2.251 -0.8797  0.1383  0.7133
  340MOL0     H44853   7.544   4.190   2.324 -0.1458 -2.3084  0.8206
  340MOL0     H44854   7.282   4.046   2.335  1.4370  0.0801 -2.8926
  340MOL0     H44855   7.285   4.196   2.414 -3.9839 -5.0092  0.2899
  340MOL0     H44856   7.497   4.134   2.540  2.1611 -3.0378  1.0750
  340MOL0     H44857   7.504   3.973   2.479  1.3679  0.6246 -1.4681
  340MOL0     H44858   7.304   4.102   2.655  2.3100 -0.1294  0.9089
  340MOL0     H44859   7.248   3.963   2.552  0.1913 -0.5417 -0.8254
  340MOL0     H44860   7.448   3.829   2.661  0.1842 -0.4812  1.2198
  340MOL0     H44861   7.331   3.884   2.785  1.2238 -2.8527  0.5966
  340MOL0     H44862   7.789   4.458   2.234 -1.3325  0.3547  0.1370
  340MOL0     H44863   8.022   4.488   2.209  0.8926 -0.4686 -0.7169
  340MOL0     H44864   8.421   4.711   2.220  0.8752 -1.1601  1.8632
  340MOL0     H44865   8.666   4.728   2.169  1.5287 -2.0780 -0.0805
  340MOL0     H44866   9.540   3.440   1.449  0.2913 -0.3853 -0.7519
  340MOL0     H44867   9.553   3.230   1.353 -0.7336  0.9477  0.3417
  340MOL0     H44868   9.460   2.890   1.145 -0.6445  0.5987  1.9974
  340MOL0     H44869   9.511   2.663   1.049  0.6714  0.3680 -0.0737
  340MOL0     H44870   9.474   2.309   0.993 -0.2614 -0.2067  2.9861
  340MOL0     H44871   9.553   2.462   1.013 -1.6823  0.3807  2.2776
  340MOL0     H44872   9.317   2.417   0.844  0.8695 -3.1060  3.7967
  340MOL0     H44873   9.386   2.578   0.853  2.1407  0.1172 -3.0826
  340MOL0     H44874   9.512   2.330   0.715  1.2354 -1.7404  2.4100
  340MOL0     H44875   9.624   2.426   0.793  1.0675  0.5448 -2.7354
  340MOL0     H44876   9.502   2.625   0.661 -4.4943 -0.0793  0.6341
  340MOL0     H44877   9.582   2.493   0.551  0.8992  1.1584  1.1088
  340MOL0     H44878   9.162   2.527   0.469 -0.9008  0.1564  0.8935
  340MOL0     H44879   9.184   2.506   1.262  1.6155 -1.8700 -0.7243
  340MOL0     H44880   9.132   2.736   1.368  0.7178  0.4880  1.2372
  341MOL0     O44881   6.941   8.117   8.992 -0.6088 -0.0691 -0.0650
  341MOL0     C44882   6.901   8.003   9.018  1.1112 -0.4408 -0.2322
  341MOL0     O44883   6.922   7.931   9.124  0.6138 -0.7950 -1.1044
  341MOL0     C44884   6.998   7.985   9.223  0.2930 -0.0616 -0.4979
  341MOL0     C44885   6.936   8.066   9.315  0.2538  0.4913 -0.0048
  341MOL0     C44886   7.000   8.112   9.433  0.8942 -0.1953 -0.3213
  341MOL0     C44887   7.133   8.081   9.454 -1.7379 -0.2669  0.1746
  341MOL0     O44888   7.192   8.124   9.570  0.5941  0.4604 -0.2745
  341MOL0     C44889   7.329   8.174   9.561  0.2834 -0.2759 -0.6199
  341MOL0     C44890   7.398   8.175   9.705  0.5354  0.8912 -0.0302
  341MOL0     C44891   7.372   8.062   9.807  0.1071 -0.2334  0.0438
  341MOL0     C44892   7.380   7.913   9.743 -0.0577 -0.4111  0.3575
  341MOL0     C44893   7.413   7.822   9.860  0.9790 -0.5530  0.2710
  341MOL0     C44894   7.346   7.688   9.856  0.7441  0.7440 -0.4773
  341MOL0     C44895   7.392   7.597   9.978 -0.1395 -1.0205  1.2312
  341MOL0     C44896   7.334   7.641  10.116  0.3493 -0.4246  0.5180
  341MOL0     N44897   7.365   7.550  10.232  0.0474  0.3273  0.0710
  341MOL0     C44898   7.265   7.462  10.280 -0.2351  0.2717 -0.4947
  341MOL0     C44899   7.333   7.393  10.372 -0.7635  0.2834 -0.2653
  341MOL0     C44900   7.292   7.312  10.490  0.4870 -0.2237  0.1239
  341MOL0     C44901   7.139   7.334  10.527 -0.0188 -0.1829 -0.6638
  341MOL0     C44902   7.111   7.450  10.626 -0.2727 -0.0040  0.9158
  341MOL0     C44903   7.088   7.577  10.551  0.3795 -0.7208  0.7321
  341MOL0     O44904   7.212   7.627  10.498 -0.5190  0.3913  0.0176
  341MOL0     C44905   7.306   7.711  10.573 -0.0409 -0.4121 -0.4022
  341MOL0     C44906   7.452   7.693  10.572  0.4964 -0.7343 -0.0751
  341MOL0     C44907   7.532   7.790  10.645  0.3605 -0.0432  0.8123
  341MOL0     C44908   7.468   7.888  10.721 -1.0858 -0.0067  0.2713
  341MOL0     C44909   7.556   7.975  10.809  1.2938 -0.1410  0.2956
  341MOL0     O44910   7.495   8.058  10.901  0.3506 -0.2124  1.2541
  341MOL0     C44911   7.556   8.100  11.008  0.3349 -0.1555  0.1004
  341MOL0     C44912   7.662   8.037  11.068 -0.0345 -0.4358 -1.3385
  341MOL0     C44913   7.713   8.093  11.191 -0.0526  1.1875 -0.4257
  341MOL0     C44914   7.660   8.217  11.245 -0.5657  0.7569  0.7112
  341MOL0     O44915   7.698   8.260  11.370 -0.1114  0.0384  1.1146
  341MOL0     C44916   7.831   8.230  11.424 -0.1488 -0.2975  0.0568
  341MOL0     C44917   7.880   8.322  11.538 -0.2764 -0.5017  0.0175
  341MOL0     C44918   7.934   8.460  11.483  0.2074  0.4666  0.5602
  341MOL0     C44919   7.992   8.534  11.598 -0.9581 -0.0838 -0.3659
  341MOL0     C44920   8.055   8.663  11.545  0.1872  0.9521  0.2919
  341MOL0     C44921   8.086   8.761  11.661  0.2970 -0.0502  0.6629
  341MOL0     C44922   8.144   8.889  11.608 -0.1633  0.0506 -0.6542
  341MOL0     C44923   8.151   8.990  11.720  0.1822 -0.2127  0.5285
  341MOL0    Cl44924   8.210   8.942  11.883 -0.1778 -0.2227  0.5428
  341MOL0     C44925   7.549   8.270  11.187  0.5696 -0.2262  0.5836
  341MOL0     C44926   7.494   8.212  11.076 -0.0649  0.0083  0.3811
  341MOL0     O44927   7.677   7.955  10.796  0.3702  0.1211 -0.3913
  341MOL0     C44928   7.330   7.909  10.717 -0.2312  0.6057 -0.3074
  341MOL0     C44929   7.251   7.813  10.656 -1.4426  1.4458 -0.2040
  341MOL0     N44930   7.472   7.415  10.362 -0.5363 -0.2576 -0.7121
  341MOL0     N44931   7.487   7.506  10.261 -0.6966 -0.8231 -0.4369
  341MOL0     C44932   7.199   7.998   9.359  0.5145  0.7791 -0.2761
  341MOL0     C44933   7.120   7.943   9.250 -0.4701 -0.0819  0.9926
  341MOL0     C44934   6.828   7.943   8.908 -0.7136 -0.1948  0.0687
  341MOL0     C44935   6.828   7.999   8.776 -0.0829  0.6021 -0.8131
  341MOL0     C44936   6.756   7.939   8.676 -0.5562  0.0232  1.0393
  341MOL0     C44937   6.687   7.819   8.705 -0.2151  0.0946  0.3332
  341MOL0     O44938   6.629   7.745   8.606 -0.4596 -0.2603 -0.0369
  341MOL0     C44939   6.598   7.794   8.479  0.8291 -0.7037  0.2319
  341MOL0     C44940   6.455   7.745   8.445  0.1668 -0.0256 -0.7365
  341MOL0     C44941   6.348   7.828   8.528  0.4730  0.4771  0.6775
  341MOL0     C44942   6.203   7.773   8.516  0.0727 -0.7393  0.2695
  341MOL0     C44943   6.155   7.773   8.377 -0.3446 -0.1090 -0.5141
  341MOL0     C44944   6.120   7.800   8.266 -1.4779 -0.1422 -0.4654
  341MOL0     C44945   6.684   7.763   8.827 -0.9683  0.4057 -0.8286
  341MOL0     C44946   6.759   7.818   8.929 -0.2205 -0.6393 -0.6733
  341MOL0     H44947   6.828   8.067   9.307  0.0902  0.7778  1.8076
  341MOL0     H44948   6.942   8.164   9.509  1.3154 -1.9637  1.2898
  341MOL0     H44949   7.326   8.275   9.521  2.0041 -0.1324 -0.4531
  341MOL0     H44950   7.390   8.101   9.506  1.9207  1.4092 -1.1586
  341MOL0     H44951   7.365   8.264   9.760  2.6863 -0.3969  3.6960
  341MOL0     H44952   7.505   8.193   9.691  1.2227 -2.0227  0.6744
  341MOL0     H44953   7.268   8.060   9.843 -1.3371  0.2077 -3.6239
  341MOL0     H44954   7.446   8.080   9.885 -0.2932  0.1913  0.3340
  341MOL0     H44955   7.290   7.875   9.695 -0.5838  1.5331 -0.2613
  341MOL0     H44956   7.458   7.903   9.666 -3.4032 -1.5161 -3.1843
  341MOL0     H44957   7.385   7.874   9.952 -0.2638 -1.5625  0.4958
  341MOL0     H44958   7.520   7.799   9.858  1.2473  0.5155 -3.0111
  341MOL0     H44959   7.371   7.626   9.769 -2.1671 -3.3970  1.3013
  341MOL0     H44960   7.237   7.697   9.852  0.4590  0.0030  3.0618
  341MOL0     H44961   7.370   7.491   9.963  1.9926 -1.1628 -1.6927
  341MOL0     H44962   7.501   7.601   9.972 -0.1798  1.8919  1.3156
  341MOL0     H44963   7.227   7.659  10.107  0.5356  0.4067 -0.2238
  341MOL0     H44964   7.384   7.736  10.137  2.2867 -0.3794 -3.3429
  341MOL0     H44965   7.159   7.479  10.265 -0.9576 -1.8252  1.7377
  341MOL0     H44966   7.352   7.337  10.578 -0.3846  1.5419  0.2623
  341MOL0     H44967   7.299   7.208  10.458  1.5546  0.3578 -1.6927
  341MOL0     H44968   7.097   7.240  10.565  1.9506 -0.8131  0.0444
  341MOL0     H44969   7.084   7.355  10.434 -0.6615  2.4681  0.2197
  341MOL0     H44970   7.016   7.421  10.672  0.2127 -1.2630  1.1670
  341MOL0     H44971   7.188   7.465  10.702  0.3175  0.9398  0.1591
  341MOL0     H44972   7.057   7.652  10.625  0.8203 -0.6567  0.8596
  341MOL0     H44973   7.012   7.561  10.474  0.1588  0.6621  0.6419
  341MOL0     H44974   7.489   7.609  10.514  2.2601 -0.2622  0.2996
  341MOL0     H44975   7.639   7.775  10.641  0.1757 -1.7563 -3.4721
  341MOL0     H44976   7.710   7.953  11.020  3.7629  1.4948 -1.3416
  341MOL0     H44977   7.795   8.046  11.243  0.7519  2.5241 -0.4319
  341MOL0     H44978   7.891   8.241  11.333 -4.5950 -1.2463 -3.3886
  341MOL0     H44979   7.836   8.129  11.466  2.6423  0.2197  1.1485
  341MOL0     H44980   7.952   8.259  11.590 -1.0527 -1.1088  0.3725
  341MOL0     H44981   7.792   8.330  11.603  0.3370 -1.5878  1.0232
  341MOL0     H44982   7.851   8.517  11.441 -1.3706 -0.7035  1.9762
  341MOL0     H44983   8.008   8.452  11.403 -2.4760  3.2103 -2.5224
  341MOL0     H44984   7.910   8.536  11.670 -0.2393 -1.3221  0.5400
  341MOL0     H44985   8.061   8.464  11.645 -0.3131  1.4486  1.0403
  341MOL0     H44986   7.985   8.705  11.472 -0.1319  1.0095  0.6324
  341MOL0     H44987   8.146   8.639  11.488  0.1956  3.7048 -1.0528
  341MOL0     H44988   8.155   8.710  11.729 -0.3349 -0.4306  1.0241
  341MOL0     H44989   7.994   8.785  11.716 -0.7665  1.8444 -1.7523
  341MOL0     H44990   8.244   8.867  11.571 -0.0341 -1.8305  0.6543
  341MOL0     H44991   8.090   8.929  11.521  1.6296  2.9220 -0.5930
  341MOL0     H44992   8.047   9.017  11.742 -0.1374 -0.7051 -0.3203
  341MOL0     H44993   8.202   9.082  11.693 -0.9993 -0.3377 -2.5579
  341MOL0     H44994   7.499   8.359  11.225  0.4007 -1.1589  2.7160
  341MOL0     H44995   7.406   8.253  11.028  1.1884  1.0860 -1.1022
  341MOL0     H44996   7.276   7.983  10.775  1.7649 -0.0044  2.5437
  341MOL0     H44997   7.143   7.826  10.667 -2.0275 -0.4409 -2.7367
  341MOL0     H44998   7.297   7.956   9.383 -0.5009 -0.1542  2.6323
  341MOL0     H44999   7.155   7.861   9.188 -0.4956  1.1839 -0.7413
  341MOL0     H45000   6.901   8.077   8.755  0.2198 -0.1554 -2.8153
  341MOL0     H45001   6.761   7.982   8.576  0.0696 -0.8336  0.6944
  341MOL0     H45002   6.665   7.742   8.409 -1.0021 -1.9445 -0.6747
  341MOL0     H45003   6.597   7.904   8.474  0.9263 -0.6989  0.3129
  341MOL0     H45004   6.438   7.732   8.337 -1.4537 -2.5927 -0.2638
  341MOL0     H45005   6.444   7.649   8.496  1.0138  0.3663  0.2052
  341MOL0     H45006   6.344   7.928   8.483  1.9340  0.3473  0.2063
  341MOL0     H45007   6.380   7.838   8.632  3.1496 -0.8919  0.0760
  341MOL0     H45008   6.200   7.675   8.563  2.2961  0.3052  2.8261
  341MOL0     H45009   6.135   7.823   8.585  1.8338 -0.0613  1.6022
  341MOL0     H45010   6.097   7.839   8.168 -2.4090  0.9159  0.1529
  341MOL0     H45011   6.620   7.679   8.850 -1.2472 -0.2939 -3.7941
  341MOL0     H45012   6.765   7.762   9.022  0.3345  0.5819  0.0373
  342MOL0     O45013   2.824   1.408   0.860  0.1651  0.4669  0.1535
  342MOL0     C45014   2.842   1.396   0.732 -0.4169 -0.2758 -0.6326
  342MOL0     O45015   2.846   1.501   0.646  0.7647 -0.2285  0.1419
  342MOL0     C45016   2.812   1.626   0.693 -0.9877  0.2420  0.2953
  342MOL0     C45017   2.689   1.647   0.769 -0.5178 -0.1713  0.1354
  342MOL0     C45018   2.656   1.774   0.816 -0.1045 -0.3047 -0.7129
  342MOL0     C45019   2.749   1.877   0.789  0.3589 -0.9758  0.2588
  342MOL0     O45020   2.731   2.004   0.839  0.0971 -0.2989 -1.1115
  342MOL0     C45021   2.617   2.076   0.789  0.5107 -0.0675 -0.0839
  342MOL0     C45022   2.645   2.226   0.773  0.2940 -0.7322  0.6090
  342MOL0     C45023   2.742   2.274   0.665  0.0415 -0.0676  1.1475
  342MOL0     C45024   2.672   2.299   0.533  0.2734  0.5337 -0.6851
  342MOL0     C45025   2.781   2.313   0.432  0.3747 -0.5211  0.2907
  342MOL0     C45026   2.722   2.291   0.284  0.6308  0.1681  0.0642
  342MOL0     C45027   2.679   2.151   0.249  0.4290 -0.1045  1.3297
  342MOL0     C45028   2.610   2.147   0.112  0.6643 -0.5784 -0.7241
  342MOL0     N45029   2.704   2.172   0.011 -0.4668  1.8478  0.1215
  342MOL0     C45030   2.809   2.088  -0.023 -0.1029  0.2747 -0.1025
  342MOL0     C45031   2.884   2.166  -0.110  0.7603 -0.1828 -0.0103
  342MOL0     C45032   3.006   2.119  -0.172  0.3083 -0.3415  0.5410
  342MOL0     C45033   3.063   2.202  -0.275 -0.7851 -1.1920  0.3769
  342MOL0     C45034   3.120   2.326  -0.197  0.6517 -0.6908  0.0162
  342MOL0     C45035   3.200   2.404  -0.292  0.0687 -0.3404  0.1504
  342MOL0     O45036   3.325   2.332  -0.330 -0.1123  0.7563  0.3349
  342MOL0     C45037   3.401   2.373  -0.437  0.4369 -0.8087 -0.3725
  342MOL0     C45038   3.524   2.314  -0.456 -1.3221 -0.4714  0.3798
  342MOL0     C45039   3.621   2.352  -0.547  0.2934 -0.4008 -0.0930
  342MOL0     C45040   3.582   2.447  -0.641  0.2898 -1.1112 -0.8193
  342MOL0     C45041   3.682   2.509  -0.733 -1.0215  0.0440 -0.6103
  342MOL0     O45042   3.796   2.441  -0.737  0.0146 -0.2093  0.9590
  342MOL0     C45043   3.905   2.511  -0.782  0.2420 -0.3884 -0.1111
  342MOL0     C45044   3.962   2.495  -0.906 -0.4424 -0.4864 -0.9127
  342MOL0     C45045   4.083   2.554  -0.931  0.2227  1.0966 -0.1670
  342MOL0     C45046   4.163   2.610  -0.833  0.5012  0.5089 -0.9492
  342MOL0     O45047   4.282   2.663  -0.839 -0.6896 -0.7759  0.5136
  342MOL0     C45048   4.335   2.684  -0.972  0.2442  0.2125 -0.9128
  342MOL0     C45049   4.442   2.795  -0.956  0.1443 -0.2679  0.0302
  342MOL0     C45050   4.561   2.763  -0.868  0.0593 -0.3427  0.2852
  342MOL0     C45051   4.547   2.844  -0.733 -0.8077  0.0262  0.1946
  342MOL0     C45052   4.652   2.805  -0.636  0.0686 -0.3459 -0.3431
  342MOL0     C45053   4.676   2.662  -0.603 -0.4151  0.2955 -0.0934
  342MOL0     C45054   4.776   2.649  -0.489  0.6274 -0.6042  0.4253
  342MOL0     C45055   4.732   2.574  -0.366  0.1819 -0.0774  0.7669
  342MOL0    Cl45056   4.705   2.392  -0.406  0.3354 -0.0823  0.2807
  342MOL0     C45057   4.112   2.612  -0.705 -0.3729  0.2202  0.1370
  342MOL0     C45058   3.984   2.565  -0.678  0.1445 -0.9169 -0.8896
  342MOL0     O45059   3.656   2.596  -0.805  0.4762 -1.2013 -0.4006
  342MOL0     C45060   3.459   2.513  -0.627  0.0266  0.0001 -0.4287
  342MOL0     C45061   3.363   2.469  -0.527 -0.5915  0.0827 -0.1602
  342MOL0     N45062   2.813   2.274  -0.143  1.2805  0.5575  0.1250
  342MOL0     N45063   2.706   2.281  -0.065 -0.3106  0.4520  0.9660
  342MOL0     C45064   2.863   1.864   0.713  0.2559 -0.5734  0.0274
  342MOL0     C45065   2.897   1.730   0.674 -1.2360 -0.8270  0.0976
  342MOL0     C45066   2.892   1.266   0.668  0.2348 -0.1441 -0.0847
  342MOL0     C45067   2.923   1.251   0.532 -0.3646 -0.2542  0.0112
  342MOL0     C45068   2.990   1.129   0.484 -0.2553 -0.3958 -0.0939
  342MOL0     C45069   3.008   1.019   0.562  0.1641  0.6803  0.2203
  342MOL0     O45070   3.048   0.889   0.516 -0.1832  0.7488  0.3905
  342MOL0     C45071   3.042   0.860   0.375 -0.6179  0.2154  0.4760
  342MOL0     C45072   3.071   0.719   0.326 -0.1943  0.0694  0.1286
  342MOL0     C45073   3.011   0.688   0.195 -0.2184 -0.0450  0.8027
  342MOL0     C45074   3.061   0.553   0.135  0.5640 -0.7469  0.0291
  342MOL0     C45075   3.027   0.443   0.227  0.1790  0.0623  0.1344
  342MOL0     C45076   2.996   0.353   0.307  0.1642 -0.4295  0.0142
  342MOL0     C45077   2.987   1.039   0.697 -0.8777 -0.1909  0.5257
  342MOL0     C45078   2.941   1.167   0.750  0.0122  0.3524  0.4770
  342MOL0     H45079   2.620   1.566   0.791 -0.2675 -0.1302  1.1499
  342MOL0     H45080   2.565   1.780   0.874  0.6835 -0.9849  0.6344
  342MOL0     H45081   2.532   2.060   0.855 -0.0894 -0.2126 -0.8748
  342MOL0     H45082   2.597   2.039   0.688  0.2818  2.6010 -1.0980
  342MOL0     H45083   2.675   2.264   0.871  1.2863 -0.8901  0.3782
  342MOL0     H45084   2.547   2.271   0.753  0.7825 -0.3952 -1.1881
  342MOL0     H45085   2.822   2.204   0.639  1.3724  2.7701 -3.5225
  342MOL0     H45086   2.786   2.369   0.697  1.3671 -0.9078  1.9085
  342MOL0     H45087   2.610   2.213   0.507  0.0508 -0.1515  1.8164
  342MOL0     H45088   2.611   2.389   0.536  2.7740  2.6044  6.0629
  342MOL0     H45089   2.872   2.254   0.446  1.0258  0.1320 -0.9918
  342MOL0     H45090   2.822   2.415   0.432  2.1121 -1.1785  1.0502
  342MOL0     H45091   2.800   2.313   0.210  0.0727  0.5297 -0.4222
  342MOL0     H45092   2.639   2.361   0.274  0.6695  0.2538  0.3390
  342MOL0     H45093   2.773   2.096   0.236  1.0665  0.7267  2.2866
  342MOL0     H45094   2.614   2.107   0.325  1.5836 -1.6286  1.4730
  342MOL0     H45095   2.525   2.216   0.098  0.1143 -0.3496  2.6909
  342MOL0     H45096   2.544   2.061   0.094 -1.7484  1.3427 -1.7611
  342MOL0     H45097   2.840   1.992   0.016 -0.7309 -0.2230 -0.8115
  342MOL0     H45098   2.972   2.028  -0.222  0.2627  1.1910 -2.4722
  342MOL0     H45099   3.081   2.079  -0.102 -1.0870 -1.1188  1.6526
  342MOL0     H45100   2.987   2.230  -0.349  0.3497 -0.5210 -0.5809
  342MOL0     H45101   3.139   2.151  -0.336  1.3454  2.7731 -0.6546
  342MOL0     H45102   3.045   2.380  -0.139  0.5814 -0.3726 -0.3626
  342MOL0     H45103   3.190   2.294  -0.119 -0.8817 -0.1879  1.6618
  342MOL0     H45104   3.226   2.493  -0.234  0.4039  0.6026 -1.3928
  342MOL0     H45105   3.144   2.437  -0.380 -0.6924 -0.7169  0.4852
  342MOL0     H45106   3.542   2.231  -0.389  0.3014 -0.0644  0.5100
  342MOL0     H45107   3.725   2.322  -0.553  0.7016  1.1436 -3.2262
  342MOL0     H45108   3.931   2.431  -0.987  2.0858 -0.8970 -1.6162
  342MOL0     H45109   4.115   2.538  -1.033  2.2541  1.8363  0.3063
  342MOL0     H45110   4.253   2.733  -1.025 -0.9775 -0.3506  0.3764
  342MOL0     H45111   4.362   2.595  -1.029  0.2203 -0.7694  0.5560
  342MOL0     H45112   4.392   2.882  -0.912 -0.2351 -0.6306  0.3203
  342MOL0     H45113   4.481   2.833  -1.051  0.0767  3.0552  1.1831
  342MOL0     H45114   4.661   2.763  -0.914 -0.9212 -0.8073 -1.9947
  342MOL0     H45115   4.556   2.655  -0.848 -1.7897  0.1013  2.6506
  342MOL0     H45116   4.558   2.952  -0.748 -1.5387  0.3015  1.5524
  342MOL0     H45117   4.447   2.820  -0.695 -1.5627  0.9410 -1.1329
  342MOL0     H45118   4.610   2.839  -0.541  1.7389 -1.0417  0.6993
  342MOL0     H45119   4.749   2.854  -0.653  0.6725 -1.9241 -1.7029
  342MOL0     H45120   4.714   2.616  -0.694  3.2887  2.0726  0.3663
  342MOL0     H45121   4.577   2.631  -0.567  0.1714 -0.5962  0.7936
  342MOL0     H45122   4.851   2.576  -0.523  0.3778 -1.2668  1.2648
  342MOL0     H45123   4.827   2.744  -0.469  1.3416 -1.4651  3.1070
  342MOL0     H45124   4.639   2.620  -0.334  0.7005 -0.5284  3.0635
  342MOL0     H45125   4.809   2.580  -0.289  0.8614  1.1825  0.0141
  342MOL0     H45126   4.177   2.659  -0.632 -1.8759  3.5507 -0.4863
  342MOL0     H45127   3.957   2.552  -0.573  0.9407  0.4547 -0.4837
  342MOL0     H45128   3.440   2.597  -0.693 -2.0780 -0.9961 -1.1794
  342MOL0     H45129   3.268   2.520  -0.525 -1.7385 -1.6437 -3.3213
  342MOL0     H45130   2.931   1.949   0.708  0.9258 -0.5677  4.7820
  342MOL0     H45131   2.988   1.699   0.622 -0.9046 -1.6032  1.1127
  342MOL0     H45132   2.901   1.334   0.466  2.9704 -1.4242 -2.8973
  342MOL0     H45133   3.010   1.130   0.378  4.7674  0.4626  0.6437
  342MOL0     H45134   3.123   0.916   0.327 -0.0890  2.6899  3.8888
  342MOL0     H45135   2.940   0.889   0.345 -0.7902 -0.8988 -0.0779
  342MOL0     H45136   3.180   0.715   0.326 -0.1669  0.2757  1.6381
  342MOL0     H45137   3.028   0.654   0.402 -1.8108  1.9293  0.9018
  342MOL0     H45138   3.034   0.771   0.128  4.1010  0.6722  2.8894
  342MOL0     H45139   2.902   0.681   0.207 -0.2480  1.3315  1.5134
  342MOL0     H45140   3.004   0.551   0.042  1.6781 -0.3402 -0.6780
  342MOL0     H45141   3.169   0.549   0.119  0.2278 -0.7588 -2.5312
  342MOL0     H45142   2.973   0.273   0.374  0.2571  2.1398  3.3961
  342MOL0     H45143   3.004   0.951   0.760  1.7268 -0.7282 -0.7807
  342MOL0     H45144   2.936   1.180   0.858 -0.4964 -0.0808  0.5106
  343MOL0     O45145   2.712   8.700   6.624 -0.4209  0.1607  0.0187
  343MOL0     C45146   2.660   8.617   6.556  0.8188  0.7934 -0.0229
  343MOL0     O45147   2.718   8.519   6.485 -0.8189 -0.0856 -0.3254
  343MOL0     C45148   2.857   8.507   6.478 -0.0119  0.0593 -0.5782
  343MOL0     C45149   2.936   8.614   6.444 -0.5386 -0.2859  0.2049
  343MOL0     C45150   3.074   8.607   6.453  0.4963 -0.0470 -0.9337
  343MOL0     C45151   3.137   8.493   6.499 -0.5525 -0.5946  1.0039
  343MOL0     O45152   3.277   8.506   6.517  0.3298  0.4604 -0.3236
  343MOL0     C45153   3.342   8.420   6.615  0.3321  0.2722 -0.2452
  343MOL0     C45154   3.484   8.473   6.622  0.9618  0.3870  0.7182
  343MOL0     C45155   3.512   8.623   6.639  0.7998 -0.7741 -0.0011
  343MOL0     C45156   3.450   8.685   6.768 -0.4951 -0.9891  0.0665
  343MOL0     C45157   3.495   8.833   6.765  0.3731 -0.0483 -0.3008
  343MOL0     C45158   3.427   8.916   6.660  0.6569 -0.1013 -0.8464
  343MOL0     C45159   3.451   9.066   6.681 -0.0262 -0.4171 -0.8089
  343MOL0     C45160   3.361   9.145   6.764  0.0126 -0.1956 -0.7649
  343MOL0     N45161   3.417   9.271   6.795  0.3931  0.6143 -0.2050
  343MOL0     C45162   3.399   9.371   6.703  0.5173  0.3039  0.4261
  343MOL0     C45163   3.426   9.483   6.776  0.9403  0.0472  0.6763
  343MOL0     C45164   3.404   9.615   6.725 -1.0720 -0.4849  1.0089
  343MOL0     C45165   3.257   9.646   6.718 -1.0314  0.1489  0.3521
  343MOL0     C45166   3.230   9.786   6.781 -0.1115  1.0800  0.3617
  343MOL0     C45167   3.079   9.820   6.772 -0.2730 -1.1006 -0.9304
  343MOL0     O45168   3.013   9.766   6.888  0.3633 -0.2648  0.3721
  343MOL0     C45169   2.870   9.772   6.896 -0.7499 -0.3314  0.5406
  343MOL0     C45170   2.810   9.722   7.010 -0.0110 -0.6383  0.6666
  343MOL0     C45171   2.672   9.719   7.010  0.4271  0.2984 -1.0299
  343MOL0     C45172   2.593   9.768   6.909  1.0933 -0.4970 -0.1364
  343MOL0     C45173   2.445   9.774   6.916 -0.4362  0.2669  0.1002
  343MOL0     O45174   2.387   9.675   6.993  0.2882 -0.2584 -0.7822
  343MOL0     C45175   2.249   9.679   6.990 -0.5532  0.1850 -1.2568
  343MOL0     C45176   2.188   9.758   7.095 -0.2256  0.3238 -0.2596
  343MOL0     C45177   2.055   9.772   7.105  0.6645  0.2348  0.2048
  343MOL0     C45178   1.973   9.691   7.014 -0.5014 -0.3491 -0.3317
  343MOL0     O45179   1.835   9.691   7.004  0.5478  0.0151  0.4527
  343MOL0     C45180   1.770   9.716   7.127  0.5594 -0.5411 -0.1795
  343MOL0     C45181   1.624   9.683   7.111  0.1329 -0.0786 -0.2381
  343MOL0     C45182   1.590   9.545   7.174 -0.7936  0.2244  0.7598
  343MOL0     C45183   1.459   9.490   7.137 -0.7470 -0.4143  0.2509
  343MOL0     C45184   1.346   9.545   7.221 -0.3020 -0.2758  0.0205
  343MOL0     C45185   1.205   9.494   7.174 -0.8144  0.4260  0.1880
  343MOL0     C45186   1.101   9.562   7.254  0.3199 -0.2700  0.6154
  343MOL0     C45187   0.959   9.508   7.216 -0.0920 -0.5983 -0.3267
  343MOL0    Cl45188   0.865   9.593   7.083  0.1867  0.1838 -0.1771
  343MOL0     C45189   2.038   9.612   6.923 -0.5361  0.4785  0.3306
  343MOL0     C45190   2.173   9.593   6.909  0.6182 -0.7841 -0.2266
  343MOL0     O45191   2.383   9.845   6.841 -0.5833 -0.2173  0.4614
  343MOL0     C45192   2.654   9.832   6.796 -0.4139  0.2256  0.2396
  343MOL0     C45193   2.793   9.841   6.795 -0.5048 -1.1042 -0.4840
  343MOL0     N45194   3.474   9.440   6.901  0.8921 -0.0579  0.1302
  343MOL0     N45195   3.463   9.314   6.910  1.1169  0.0678  0.5430
  343MOL0     C45196   3.061   8.379   6.528 -0.2585  0.6937  0.9746
  343MOL0     C45197   2.917   8.395   6.527 -0.5464  0.8630 -0.2451
  343MOL0     C45198   2.510   8.622   6.549  0.2974  0.4505  0.7283
  343MOL0     C45199   2.428   8.677   6.657 -0.2893 -0.2765 -0.4676
  343MOL0     C45200   2.296   8.644   6.662 -0.1783 -0.8483 -0.4237
  343MOL0     C45201   2.228   8.586   6.557 -0.4322  1.1482  0.2744
  343MOL0     O45202   2.090   8.575   6.566  0.0877 -0.7976  0.3062
  343MOL0     C45203   2.004   8.537   6.451 -0.2765 -0.9422 -0.1954
  343MOL0     C45204   1.863   8.515   6.500  0.3741  0.1437  0.3808
  343MOL0     C45205   1.820   8.627   6.591 -0.0835  0.0815  0.2483
  343MOL0     C45206   1.669   8.640   6.616  0.3215  0.3047  0.5438
  343MOL0     C45207   1.607   8.691   6.489  0.5992  0.6446 -0.7032
  343MOL0     C45208   1.546   8.747   6.399  0.4331  0.2012 -0.4914
  343MOL0     C45209   2.305   8.534   6.444 -0.3339  0.3139 -0.4409
  343MOL0     C45210   2.447   8.545   6.440  0.8855 -0.3917 -0.3197
  343MOL0     H45211   2.888   8.702   6.401 -0.6546 -1.4044 -2.1044
  343MOL0     H45212   3.141   8.688   6.429 -0.1365  0.6146 -0.5028
  343MOL0     H45213   3.330   8.317   6.581 -2.1296  0.5246 -0.3603
  343MOL0     H45214   3.293   8.427   6.713  2.4466 -2.3317  1.1215
  343MOL0     H45215   3.527   8.456   6.523 -1.3912 -1.1396 -0.1154
  343MOL0     H45216   3.532   8.423   6.707  1.8576  1.0425  0.6207
  343MOL0     H45217   3.484   8.668   6.543 -0.2280 -4.3500 -1.5386
  343MOL0     H45218   3.620   8.634   6.649  0.9542 -0.5522 -1.5742
  343MOL0     H45219   3.341   8.679   6.776 -0.7820  1.8219 -0.6998
  343MOL0     H45220   3.500   8.646   6.857 -2.1203 -3.3666  0.0293
  343MOL0     H45221   3.604   8.835   6.753  0.4597 -1.6935 -0.0173
  343MOL0     H45222   3.483   8.874   6.866  2.3079 -0.5564  0.1874
  343MOL0     H45223   3.320   8.896   6.654  1.1369 -3.9585  0.4365
  343MOL0     H45224   3.479   8.884   6.570  0.2460 -2.7690 -0.2176
  343MOL0     H45225   3.554   9.074   6.719 -0.3764  1.4536 -0.1743
  343MOL0     H45226   3.470   9.127   6.591 -1.9620 -1.2033 -1.8068
  343MOL0     H45227   3.339   9.094   6.858  0.9251 -0.8339 -0.8867
  343MOL0     H45228   3.261   9.159   6.723 -1.3919  2.0583  2.9731
  343MOL0     H45229   3.340   9.357   6.613  1.1955 -2.6775  0.3308
  343MOL0     H45230   3.448   9.630   6.626 -1.1276  3.2540  1.4159
  343MOL0     H45231   3.466   9.684   6.781 -3.5227  1.7623  1.1413
  343MOL0     H45232   3.192   9.582   6.778 -3.8470  2.2771 -0.2144
  343MOL0     H45233   3.228   9.643   6.612  0.3289  1.7768 -0.1212
  343MOL0     H45234   3.269   9.790   6.883 -0.4130 -1.2896  0.6137
  343MOL0     H45235   3.283   9.856   6.716  1.0127 -0.0314  0.0546
  343MOL0     H45236   3.040   9.791   6.674 -1.5112  0.1521 -0.8369
  343MOL0     H45237   3.067   9.929   6.769  1.4683 -0.8987 -2.8954
  343MOL0     H45238   2.871   9.675   7.087  0.0275 -0.8059  0.5333
  343MOL0     H45239   2.624   9.689   7.103 -1.4673  2.2018 -1.3281
  343MOL0     H45240   2.248   9.817   7.164 -1.5205  1.2406  0.1113
  343MOL0     H45241   2.016   9.836   7.184  1.7097 -1.6683  2.3877
  343MOL0     H45242   1.788   9.823   7.142 -1.0470  0.1926 -2.6861
  343MOL0     H45243   1.803   9.655   7.211 -2.7948 -2.2879  0.0231
  343MOL0     H45244   1.604   9.689   7.004 -0.9681  0.8698  0.0041
  343MOL0     H45245   1.566   9.764   7.157  0.5059 -0.0457  0.1835
  343MOL0     H45246   1.606   9.546   7.282 -0.7636 -2.7349  0.8625
  343MOL0     H45247   1.666   9.473   7.143  0.2828  1.9698 -0.8365
  343MOL0     H45248   1.456   9.519   7.032 -1.6190 -0.2440  0.3194
  343MOL0     H45249   1.467   9.382   7.153 -0.6834 -0.8255 -2.1958
  343MOL0     H45250   1.353   9.654   7.210 -2.1436  0.1762  2.3323
  343MOL0     H45251   1.363   9.520   7.326  0.8856 -0.7968 -0.2779
  343MOL0     H45252   1.206   9.386   7.189  1.0405  0.1909 -1.2982
  343MOL0     H45253   1.200   9.521   7.068  1.3219 -0.5933 -0.2243
  343MOL0     H45254   1.118   9.541   7.360  0.2264  0.2238  0.7290
  343MOL0     H45255   1.109   9.670   7.263 -2.6164  0.1129 -0.2860
  343MOL0     H45256   0.892   9.536   7.298  0.4499  0.6567 -0.2934
  343MOL0     H45257   0.943   9.400   7.210 -1.5150 -0.4070 -0.4493
  343MOL0     H45258   1.985   9.547   6.854  2.2277 -1.9552  0.2871
  343MOL0     H45259   2.225   9.541   6.830  1.9903 -1.5286  1.1231
  343MOL0     H45260   2.613   9.878   6.706  2.5879  5.0410  0.9647
  343MOL0     H45261   2.835   9.894   6.710 -4.4572 -2.0004 -3.2922
  343MOL0     H45262   3.109   8.289   6.565  0.6852  1.0604  0.6822
  343MOL0     H45263   2.853   8.311   6.553  0.1828 -0.3188 -2.0749
  343MOL0     H45264   2.483   8.719   6.740  2.8403  0.1678 -2.5850
  343MOL0     H45265   2.233   8.678   6.744 -0.4372 -0.7861 -0.6481
  343MOL0     H45266   2.031   8.450   6.391  1.7568  0.2894 -1.1776
  343MOL0     H45267   2.016   8.615   6.375  0.4599 -1.6475 -0.8188
  343MOL0     H45268   1.784   8.499   6.427 -1.4918  3.9265  1.2962
  343MOL0     H45269   1.860   8.431   6.570 -0.6198  0.1621  0.3746
  343MOL0     H45270   1.847   8.724   6.548 -0.6538  0.8963  1.6601
  343MOL0     H45271   1.871   8.608   6.686 -1.3211 -0.9920  0.7308
  343MOL0     H45272   1.631   8.549   6.663  0.4666  1.8822  4.0692
  343MOL0     H45273   1.650   8.701   6.705  1.4202  2.2819 -0.5118
  343MOL0     H45274   1.485   8.806   6.334 -0.0219  0.0740 -0.1912
  343MOL0     H45275   2.257   8.481   6.363  2.5868 -1.5339 -1.0871
  343MOL0     H45276   2.498   8.499   6.356 -0.6709 -1.8253 -0.5268
  344MOL0     O45277   1.981   3.309   2.333  0.5371 -0.0060  0.3746
  344MOL0     C45278   2.098   3.273   2.353 -0.5470 -0.5756 -0.5977
  344MOL0     O45279   2.197   3.353   2.412 -0.9241  0.2645  0.3580
  344MOL0     C45280   2.182   3.489   2.437 -0.1107 -0.3279  0.8664
  344MOL0     C45281   2.264   3.549   2.531 -0.2026  0.1745  0.0228
  344MOL0     C45282   2.262   3.684   2.558 -0.5942 -0.5970  0.3060
  344MOL0     C45283   2.186   3.765   2.486  0.2346 -0.6878  0.8748
  344MOL0     O45284   2.207   3.901   2.500 -0.2547  0.1341 -0.8676
  344MOL0     C45285   2.107   3.985   2.559  0.3229  0.4817  0.7929
  344MOL0     C45286   2.101   4.125   2.489 -0.2770  0.5485 -0.9420
  344MOL0     C45287   1.978   4.214   2.536  0.9755  0.6756 -0.2062
  344MOL0     C45288   1.964   4.343   2.444 -0.8484 -0.2614 -0.3867
  344MOL0     C45289   1.865   4.440   2.513  0.6443 -0.8541 -0.1980
  344MOL0     C45290   1.837   4.570   2.442  0.4270  0.0904 -1.3457
  344MOL0     C45291   1.740   4.559   2.322 -0.3131  1.3354  0.5754
  344MOL0     C45292   1.697   4.698   2.263 -0.8277  0.4394 -0.3168
  344MOL0     N45293   1.594   4.677   2.160 -0.3484  0.2991 -0.7537
  344MOL0     C45294   1.454   4.692   2.155  0.7650 -1.0621 -0.1854
  344MOL0     C45295   1.421   4.662   2.026 -0.4688  0.5192  0.3580
  344MOL0     C45296   1.287   4.645   1.967  0.3881 -0.9931  0.0278
  344MOL0     C45297   1.242   4.763   1.885  0.4383  0.8935  0.7295
  344MOL0     C45298   1.322   4.781   1.753  0.1083  0.1957  0.5550
  344MOL0     C45299   1.254   4.870   1.645  0.8908 -0.3568 -0.0975
  344MOL0     O45300   1.303   4.999   1.659 -0.0812  0.0565 -0.8551
  344MOL0     C45301   1.427   5.039   1.610 -0.5871  0.4614  1.1512
  344MOL0     C45302   1.452   5.173   1.627  0.7731 -0.6559  0.1449
  344MOL0     C45303   1.562   5.239   1.586  0.6121 -0.5501  0.0329
  344MOL0     C45304   1.663   5.159   1.528 -0.5215  0.3340  0.0960
  344MOL0     C45305   1.783   5.215   1.483  0.2428  0.4214  0.3810
  344MOL0     O45306   1.775   5.349   1.443  0.3472 -0.1615 -0.7922
  344MOL0     C45307   1.894   5.420   1.429  0.8990  0.7399  0.2055
  344MOL0     C45308   1.947   5.436   1.301 -0.0359 -0.2604 -0.3926
  344MOL0     C45309   2.069   5.506   1.279  0.4585 -0.3854  0.6059
  344MOL0     C45310   2.132   5.569   1.386  0.1137 -0.8264 -0.3531
  344MOL0     O45311   2.251   5.623   1.347 -0.2329 -0.3708  0.7520
  344MOL0     C45312   2.326   5.704   1.441  0.4283 -0.8352 -0.9765
  344MOL0     C45313   2.473   5.717   1.415  0.1778 -0.5397 -0.0181
  344MOL0     C45314   2.536   5.800   1.535 -0.3554  0.6547  0.4384
  344MOL0     C45315   2.679   5.825   1.491  0.1476 -0.7215  0.6640
  344MOL0     C45316   2.782   5.829   1.603 -0.2306 -0.0937 -0.0854
  344MOL0     C45317   2.779   5.958   1.690 -0.1346  0.2130  0.1379
  344MOL0     C45318   2.909   5.977   1.783 -0.5167  0.1588  1.2386
  344MOL0     C45319   2.901   5.883   1.902 -0.7702 -0.3554  0.0648
  344MOL0    Cl45320   2.787   5.956   2.016 -0.0776 -0.3926  0.3629
  344MOL0     C45321   2.067   5.576   1.510  0.3207  0.4987  0.2321
  344MOL0     C45322   1.960   5.488   1.523 -0.0644 -0.6768  0.2662
  344MOL0     O45323   1.887   5.144   1.474  0.0530 -0.1690 -1.0070
  344MOL0     C45324   1.639   5.020   1.507 -0.4568  0.1360  0.2320
  344MOL0     C45325   1.522   4.958   1.553 -0.4423 -0.2648  0.3874
  344MOL0     N45326   1.534   4.652   1.955 -0.4550  0.6366  0.6023
  344MOL0     N45327   1.634   4.647   2.034  0.2100 -0.7156 -0.2234
  344MOL0     C45328   2.103   3.717   2.377  0.2483 -0.1231  0.1548
  344MOL0     C45329   2.097   3.580   2.363  0.7849 -0.0302 -0.0506
  344MOL0     C45330   2.130   3.131   2.327 -0.8739 -0.7987 -0.8046
  344MOL0     C45331   2.262   3.089   2.310  1.2553  0.5227 -0.5581
  344MOL0     C45332   2.291   2.948   2.287  0.5688 -0.8686  0.3392
  344MOL0     C45333   2.189   2.858   2.264 -0.2127  0.4286 -0.8673
  344MOL0     O45334   2.192   2.723   2.236  0.3251 -0.3084  0.2743
  344MOL0     C45335   2.313   2.653   2.241 -1.4881  0.4354  0.0249
  344MOL0     C45336   2.423   2.695   2.129  0.0089  0.3759 -0.3630
  344MOL0     C45337   2.433   2.591   2.008 -0.0358 -0.3580 -0.6845
  344MOL0     C45338   2.511   2.655   1.889  0.9676 -0.9525 -0.3891
  344MOL0     C45339   2.525   2.549   1.786  0.1731  0.2303 -0.8497
  344MOL0     C45340   2.555   2.460   1.703  0.5275 -0.3239  0.1569
  344MOL0     C45341   2.058   2.907   2.293  0.8585 -0.0929  0.2906
  344MOL0     C45342   2.028   3.029   2.323 -0.6740 -0.0466  0.4502
  344MOL0     H45343   2.336   3.480   2.573 -0.9430 -1.3185 -1.0527
  344MOL0     H45344   2.330   3.720   2.635 -2.9348  0.5143  1.9604
  344MOL0     H45345   2.109   3.980   2.669 -2.8902 -2.6028  0.8917
  344MOL0     H45346   2.018   3.927   2.535 -0.1295  0.6307  2.0161
  344MOL0     H45347   2.089   4.105   2.382 -2.0485 -3.5253 -0.1562
  344MOL0     H45348   2.191   4.184   2.507 -0.6183  1.6274 -2.5487
  344MOL0     H45349   1.984   4.228   2.644 -1.0529  1.1208 -0.1134
  344MOL0     H45350   1.884   4.158   2.535  2.5999 -2.5295  2.9304
  344MOL0     H45351   2.060   4.395   2.448 -0.5542 -0.8569  0.3788
  344MOL0     H45352   1.957   4.333   2.335  0.0915 -1.8369 -0.3272
  344MOL0     H45353   1.911   4.458   2.611  2.2039 -5.0027  0.0395
  344MOL0     H45354   1.766   4.399   2.538 -0.4322  0.3057 -2.2815
  344MOL0     H45355   1.927   4.614   2.399 -0.5861 -0.5689 -4.4820
  344MOL0     H45356   1.786   4.642   2.506  2.0537  1.0482 -1.0831
  344MOL0     H45357   1.799   4.502   2.249 -2.6254  1.8810 -1.8435
  344MOL0     H45358   1.645   4.507   2.335 -0.5859  1.9277  0.9466
  344MOL0     H45359   1.786   4.749   2.224 -2.1512 -0.2215 -4.7198
  344MOL0     H45360   1.641   4.769   2.325  0.8488  2.4935 -1.0255
  344MOL0     H45361   1.383   4.691   2.237 -0.1488  1.8743 -0.8557
  344MOL0     H45362   1.211   4.642   2.046 -2.6230 -0.1855 -2.5952
  344MOL0     H45363   1.286   4.548   1.915  0.0201 -1.9340  1.7156
  344MOL0     H45364   1.242   4.855   1.944 -0.3177  2.0330 -0.9720
  344MOL0     H45365   1.139   4.742   1.858  0.7299  0.1379  0.1558
  344MOL0     H45366   1.426   4.812   1.763  0.1546  0.2791 -0.1599
  344MOL0     H45367   1.320   4.681   1.709  1.0630  1.6822 -3.1757
  344MOL0     H45368   1.145   4.865   1.649  0.6972  1.7726 -1.4871
  344MOL0     H45369   1.278   4.833   1.545 -0.9598 -1.2619 -0.2438
  344MOL0     H45370   1.380   5.221   1.693 -0.6119 -1.8738 -0.4268
  344MOL0     H45371   1.576   5.340   1.622 -0.1085 -1.1021  1.9612
  344MOL0     H45372   1.891   5.402   1.214  0.5328  1.2405 -1.3933
  344MOL0     H45373   2.103   5.515   1.176  0.7800  2.1516  0.8505
  344MOL0     H45374   2.303   5.669   1.542  0.6579  0.0691 -0.6069
  344MOL0     H45375   2.288   5.806   1.442 -2.0163 -1.6990  0.1810
  344MOL0     H45376   2.480   5.772   1.321  1.2083  0.2718  0.5151
  344MOL0     H45377   2.525   5.621   1.417  0.2048 -0.5175  0.9982
  344MOL0     H45378   2.531   5.738   1.624 -0.5396 -0.6313 -0.4318
  344MOL0     H45379   2.490   5.893   1.570  4.9663  2.3818  3.9302
  344MOL0     H45380   2.708   5.747   1.420 -0.7079  0.4534 -1.0458
  344MOL0     H45381   2.677   5.912   1.425  0.6786 -0.5398  0.8769
  344MOL0     H45382   2.882   5.835   1.557 -0.0004  1.7064  0.5555
  344MOL0     H45383   2.776   5.748   1.677 -0.4533  1.4528  1.6687
  344MOL0     H45384   2.690   5.977   1.751 -0.4590  0.0785 -0.2916
  344MOL0     H45385   2.770   6.043   1.622 -2.1817  0.3456  0.5200
  344MOL0     H45386   2.995   5.944   1.724 -2.5388 -0.2560 -1.6858
  344MOL0     H45387   2.924   6.083   1.809 -0.3397  1.1781 -2.3913
  344MOL0     H45388   2.999   5.881   1.951 -0.7600  4.4050  0.6781
  344MOL0     H45389   2.875   5.783   1.865  0.7354 -2.2426  3.5615
  344MOL0     H45390   2.116   5.616   1.599 -1.4502  1.6948  0.7308
  344MOL0     H45391   1.926   5.485   1.625 -1.8571  0.4992 -0.2626
  344MOL0     H45392   1.720   4.958   1.469 -0.8557  1.6962 -3.5454
  344MOL0     H45393   1.516   4.850   1.553  1.3560 -0.4196 -1.1704
  344MOL0     H45394   2.040   3.790   2.327 -2.1177 -2.1047  0.0515
  344MOL0     H45395   2.037   3.539   2.282  0.0398  1.4412 -0.2654
  344MOL0     H45396   2.350   3.152   2.315  0.9359  0.9112  0.8676
  344MOL0     H45397   2.396   2.926   2.271  0.2192 -1.4399 -1.3950
  344MOL0     H45398   2.285   2.548   2.233 -3.3063  0.7582  1.5033
  344MOL0     H45399   2.362   2.650   2.339 -0.6805 -0.7541 -0.3994
  344MOL0     H45400   2.414   2.798   2.093  0.2539  2.2958  4.4031
  344MOL0     H45401   2.520   2.688   2.178  0.7719  1.2345 -1.6825
  344MOL0     H45402   2.333   2.562   1.976 -1.8802  1.9806  2.3971
  344MOL0     H45403   2.481   2.500   2.045 -3.1831 -1.6054  0.6773
  344MOL0     H45404   2.463   2.746   1.852 -2.6638 -2.1876  0.8377
  344MOL0     H45405   2.610   2.681   1.929  0.1722  0.5239  0.7302
  344MOL0     H45406   2.548   2.389   1.624 -1.0303  0.7234 -0.6955
  344MOL0     H45407   1.987   2.825   2.302  2.0438 -1.2771 -0.6412
  344MOL0     H45408   1.923   3.053   2.339 -1.2562  0.0562 -2.8080
  345MOL0     O45409  10.414   0.164   4.981 -0.6167 -0.1974  0.0102
  345MOL0     C45410  10.470   0.139   4.872  1.1586 -0.0967 -0.9128
  345MOL0     O45411  10.600   0.102   4.862  0.3624 -0.1773  0.8136
  345MOL0     C45412  10.667   0.045   4.969  0.0643 -0.4905 -0.5028
  345MOL0     C45413  10.679   0.116   5.083 -0.7717  0.5287 -1.3897
  345MOL0     C45414  10.738   0.052   5.204 -0.7247  0.5033  0.0361
  345MOL0     C45415  10.804  -0.074   5.193  0.8846  0.0708 -0.0326
  345MOL0     O45416  10.879  -0.148   5.275 -0.3056 -0.8146 -0.1330
  345MOL0     C45417  10.881  -0.137   5.421  0.1242 -0.5597 -0.1652
  345MOL0     C45418  11.014  -0.182   5.489  0.7432 -0.0405  0.0370
  345MOL0     C45419  11.110  -0.078   5.450  0.2090  0.2697  0.0897
  345MOL0     C45420  11.230  -0.071   5.536 -0.5445 -0.3381  0.8099
  345MOL0     C45421  11.300  -0.206   5.548 -0.2089 -0.6469 -1.7370
  345MOL0     C45422  11.420  -0.190   5.647 -0.1388 -0.8254 -0.1515
  345MOL0     C45423  11.458  -0.332   5.695  0.8668  0.0471 -0.1858
  345MOL0     C45424  11.553  -0.399   5.591  0.0708  2.0480 -0.0507
  345MOL0     N45425  11.632  -0.517   5.639  0.2658  0.0590 -0.2574
  345MOL0     C45426  11.751  -0.512   5.696 -0.0104  0.2224  0.7309
  345MOL0     C45427  11.777  -0.639   5.732 -0.8334  1.3128 -1.2760
  345MOL0     C45428  11.906  -0.692   5.801  0.0470 -0.6648 -0.3712
  345MOL0     C45429  11.909  -0.686   5.962  0.1515 -0.2815 -0.5870
  345MOL0     C45430  12.019  -0.775   6.016  0.7666 -0.1020  1.0670
  345MOL0     C45431  12.066  -0.735   6.151  0.6392  0.6885  0.0076
  345MOL0     O45432  11.952  -0.714   6.231 -0.6432 -0.1517 -0.3890
  345MOL0     C45433  11.972  -0.652   6.360 -0.5012  0.4930 -0.7398
  345MOL0     C45434  11.851  -0.632   6.433  1.1501 -0.3253  0.5205
  345MOL0     C45435  11.850  -0.571   6.555 -0.9729 -0.2508 -0.4602
  345MOL0     C45436  11.969  -0.540   6.630  0.1140  0.0415  0.8788
  345MOL0     C45437  11.963  -0.483   6.765  1.0054 -0.1012  0.1831
  345MOL0     O45438  12.075  -0.493   6.846 -0.1261  0.1153  0.3455
  345MOL0     C45439  12.042  -0.514   6.974 -0.6539  0.5234 -0.4695
  345MOL0     C45440  11.999  -0.645   7.006 -0.4357  0.2504 -0.2521
  345MOL0     C45441  11.956  -0.685   7.131  0.1627  0.8032  0.6652
  345MOL0     C45442  11.959  -0.589   7.233 -0.3169  0.2524  0.7654
  345MOL0     O45443  11.931  -0.592   7.367 -0.1464  0.0417  0.0960
  345MOL0     C45444  11.890  -0.708   7.432  1.0301  0.2003  0.5920
  345MOL0     C45445  12.012  -0.789   7.480  0.3746  0.2692 -0.1194
  345MOL0     C45446  11.978  -0.928   7.531  0.2986  0.6390  0.0483
  345MOL0     C45447  12.094  -1.009   7.585  0.3257  0.0105 -0.2846
  345MOL0     C45448  12.058  -1.144   7.656 -1.2005 -0.2815 -0.2094
  345MOL0     C45449  12.182  -1.203   7.740 -0.7449 -0.3805 -0.4513
  345MOL0     C45450  12.158  -1.351   7.765 -1.0367  1.2630 -0.0820
  345MOL0     C45451  12.282  -1.416   7.834 -0.1794 -0.4881 -0.2181
  345MOL0    Cl45452  12.291  -1.605   7.835  0.1130 -0.2085 -0.7180
  345MOL0     C45453  12.006  -0.465   7.205  0.3525 -0.9140  0.8827
  345MOL0     C45454  12.050  -0.422   7.073  0.6843  0.0807 -0.4524
  345MOL0     O45455  11.842  -0.442   6.801 -0.3569 -0.3686 -0.7197
  345MOL0     C45456  12.087  -0.573   6.559  0.0778 -0.2846 -0.4344
  345MOL0     C45457  12.087  -0.621   6.428 -0.8301  0.4566 -0.0541
  345MOL0     N45458  11.670  -0.718   5.702  1.2248 -0.2232  0.7899
  345MOL0     N45459  11.575  -0.642   5.648  0.4426 -0.9534  0.0608
  345MOL0     C45460  10.786  -0.136   5.073  0.0020 -0.3882  0.4399
  345MOL0     C45461  10.737  -0.076   4.952  0.5390  0.8691 -0.5644
  345MOL0     C45462  10.409   0.184   4.752  1.0088 -0.0850  0.8148
  345MOL0     C45463  10.294   0.258   4.767  0.7579  0.3167  1.1316
  345MOL0     C45464  10.226   0.297   4.647 -0.0666  1.1166 -0.6360
  345MOL0     C45465  10.279   0.267   4.526 -0.2271  0.1909  0.3158
  345MOL0     O45466  10.233   0.315   4.402  0.6748  0.2758  0.3730
  345MOL0     C45467  10.237   0.456   4.387 -0.2774  0.7400  0.9436
  345MOL0     C45468  10.212   0.490   4.241  0.0514 -1.0036  1.1951
  345MOL0     C45469  10.268   0.634   4.217 -0.7326  0.1738 -0.3064
  345MOL0     C45470  10.339   0.637   4.074  0.1145  0.4801 -0.0009
  345MOL0     C45471  10.408   0.749   4.026  0.0391 -0.2671  0.5091
  345MOL0     C45472  10.475   0.837   3.987  0.3238  0.2043  0.5681
  345MOL0     C45473  10.401   0.186   4.511 -0.1328  0.3747 -0.4921
  345MOL0     C45474  10.465   0.143   4.632  0.0880  0.8428 -0.3459
  345MOL0     H45475  10.626   0.209   5.099 -3.4659 -0.3210 -4.3243
  345MOL0     H45476  10.734   0.091   5.305  1.5101  0.1209  0.3178
  345MOL0     H45477  10.817  -0.213   5.466  0.6500 -0.5387  0.6330
  345MOL0     H45478  10.854  -0.039   5.463  1.5872  0.3819 -1.3184
  345MOL0     H45479  11.049  -0.279   5.452  0.8624  0.3116 -0.7785
  345MOL0     H45480  11.002  -0.177   5.598 -0.5929  3.5904 -0.1430
  345MOL0     H45481  11.064   0.021   5.459  3.7417  1.9821  1.1210
  345MOL0     H45482  11.142  -0.088   5.346  4.0713  0.0189  1.1512
  345MOL0     H45483  11.288   0.016   5.503  0.0637 -1.2651 -0.6617
  345MOL0     H45484  11.202  -0.038   5.636 -0.8122  1.1741  0.2631
  345MOL0     H45485  11.349  -0.238   5.456  2.4580 -2.3864  0.1421
  345MOL0     H45486  11.229  -0.284   5.578  1.3231 -0.9137  1.5779
  345MOL0     H45487  11.405  -0.120   5.730  2.5368 -0.4464  0.0985
  345MOL0     H45488  11.505  -0.142   5.598 -0.7748  0.7848  0.2707
  345MOL0     H45489  11.515  -0.334   5.789  0.5329 -3.1809  0.0749
  345MOL0     H45490  11.365  -0.387   5.711 -1.0603  2.9881 -0.6066
  345MOL0     H45491  11.626  -0.326   5.556  1.3854 -0.3619 -2.7145
  345MOL0     H45492  11.498  -0.429   5.501 -0.3972  1.6578  0.3571
  345MOL0     H45493  11.810  -0.422   5.709  3.1815 -0.7589 -4.1789
  345MOL0     H45494  11.985  -0.631   5.757 -1.3053  0.7809 -0.8705
  345MOL0     H45495  11.926  -0.797   5.776  2.4185 -0.9012  2.0828
  345MOL0     H45496  11.816  -0.729   5.999  2.3431 -4.6772  0.4566
  345MOL0     H45497  11.905  -0.583   5.998 -2.0696 -1.6710  3.8608
  345MOL0     H45498  11.996  -0.881   6.012  0.6265 -0.1433  2.4522
  345MOL0     H45499  12.091  -0.772   5.934 -1.5989  2.1139 -1.1190
  345MOL0     H45500  12.114  -0.637   6.136  0.7353  0.1307 -5.2082
  345MOL0     H45501  12.133  -0.811   6.190 -1.3681 -2.8260 -2.8020
  345MOL0     H45502  11.750  -0.645   6.396  0.8717  0.1062  1.1334
  345MOL0     H45503  11.755  -0.546   6.601 -0.7631 -1.2744  0.5679
  345MOL0     H45504  12.008  -0.703   6.914 -1.2001  3.9048 -2.8746
  345MOL0     H45505  11.947  -0.792   7.149  2.0508  0.7449  1.4509
  345MOL0     H45506  11.823  -0.756   7.360  0.3244 -1.0942  2.0492
  345MOL0     H45507  11.834  -0.684   7.523 -1.3115  1.3050 -1.0335
  345MOL0     H45508  12.054  -0.733   7.564 -4.6168  1.9443  1.5844
  345MOL0     H45509  12.075  -0.791   7.391  4.6536  2.4061  2.5213
  345MOL0     H45510  11.932  -0.974   7.444 -0.0950  0.9762  0.0736
  345MOL0     H45511  11.905  -0.921   7.613 -0.3711 -0.0950 -0.4767
  345MOL0     H45512  12.170  -1.037   7.511  2.5435  1.0026  1.5246
  345MOL0     H45513  12.149  -0.954   7.662  0.7994  0.5631 -1.0071
  345MOL0     H45514  12.015  -1.218   7.588  0.4804  0.5208 -2.2307
  345MOL0     H45515  11.975  -1.122   7.725 -1.5759 -0.6821 -0.5246
  345MOL0     H45516  12.183  -1.140   7.830 -1.3816 -0.1062 -0.6242
  345MOL0     H45517  12.280  -1.196   7.693  0.5672  0.9003  2.3031
  345MOL0     H45518  12.065  -1.360   7.821 -2.4696  4.6962 -1.6373
  345MOL0     H45519  12.143  -1.406   7.671  0.2333  2.3207 -0.9389
  345MOL0     H45520  12.289  -1.377   7.936 -0.0059  0.8961 -0.7436
  345MOL0     H45521  12.370  -1.376   7.783  0.1203 -1.3154 -0.3657
  345MOL0     H45522  12.020  -0.396   7.288  0.7119  0.3638 -0.2032
  345MOL0     H45523  12.081  -0.326   7.033  0.4024 -0.6700 -2.6327
  345MOL0     H45524  12.184  -0.563   6.608  0.3384 -1.0976 -0.7802
  345MOL0     H45525  12.176  -0.650   6.373 -0.3942 -1.9888  1.8085
  345MOL0     H45526  10.840  -0.230   5.077 -0.2346 -0.4858  2.6889
  345MOL0     H45527  10.728  -0.130   4.858  0.8574  0.2517 -0.2520
  345MOL0     H45528  10.253   0.282   4.865  1.8911 -1.0968  1.9923
  345MOL0     H45529  10.142   0.366   4.660 -1.5687 -1.0077  1.9017
  345MOL0     H45530  10.337   0.483   4.419 -0.2540  0.6175  0.9721
  345MOL0     H45531  10.161   0.500   4.452 -0.6513 -0.7850  1.5924
  345MOL0     H45532  10.271   0.420   4.181 -1.3119  0.6958 -2.3793
  345MOL0     H45533  10.105   0.493   4.221  0.1865  0.1011  0.5870
  345MOL0     H45534  10.333   0.671   4.297 -0.8787  0.1382 -0.1709
  345MOL0     H45535  10.184   0.704   4.221 -0.3067  0.6554  2.5104
  345MOL0     H45536  10.422   0.567   4.087  1.0609  1.6823  0.6362
  345MOL0     H45537  10.274   0.587   4.002  1.3183 -1.4994  0.2064
  345MOL0     H45538  10.543   0.918   3.977 -0.3830  0.6718 -0.7944
  345MOL0     H45539  10.448   0.162   4.416  3.6963  0.4625  1.2050
  345MOL0     H45540  10.561   0.091   4.630  0.1030  0.8400  0.2176
  346MOL0     O45541   5.939   7.875   1.014  0.8486  0.1823  0.3010
  346MOL0     C45542   5.947   7.756   1.014  1.0428 -0.3659 -0.9524
  346MOL0     O45543   5.970   7.678   0.910 -0.0641  0.2240 -0.7058
  346MOL0     C45544   6.009   7.735   0.791 -0.3189 -0.4323 -0.4366
  346MOL0     C45545   6.140   7.783   0.777  0.5790  0.2950 -0.7049
  346MOL0     C45546   6.169   7.856   0.659 -0.4351 -0.7283  0.1250
  346MOL0     C45547   6.081   7.863   0.545  0.5663  0.7997 -0.0758
  346MOL0     O45548   6.108   7.936   0.430  0.2164 -0.2422  0.0314
  346MOL0     C45549   6.239   7.929   0.384  0.5519 -0.0585  0.2143
  346MOL0     C45550   6.334   8.041   0.431 -1.2453 -0.4190 -0.2808
  346MOL0     C45551   6.295   8.180   0.375  0.4039  0.3248 -0.3363
  346MOL0     C45552   6.373   8.287   0.445  0.5265  0.7194 -0.8839
  346MOL0     C45553   6.357   8.412   0.372  0.2764 -1.0329  0.5356
  346MOL0     C45554   6.396   8.536   0.459 -0.0116  0.1983  0.0956
  346MOL0     C45555   6.392   8.663   0.377 -0.3350 -0.1928  0.5786
  346MOL0     C45556   6.431   8.774   0.463  0.0750  0.1822  0.3750
  346MOL0     N45557   6.564   8.756   0.502  0.8026  0.0709  0.3026
  346MOL0     C45558   6.667   8.783   0.418 -0.3651 -0.0134  0.8795
  346MOL0     C45559   6.773   8.754   0.493 -0.3434  0.2133  0.4666
  346MOL0     C45560   6.915   8.784   0.449  0.2147  0.4643 -0.4322
  346MOL0     C45561   6.977   8.668   0.377 -0.4358 -0.8155  0.7452
  346MOL0     C45562   6.894   8.650   0.248  0.0428  1.0453 -0.5118
  346MOL0     C45563   6.941   8.524   0.179 -0.4442  0.5433 -0.6294
  346MOL0     O45564   6.854   8.474   0.085  0.9383 -0.8146  0.4189
  346MOL0     C45565   6.802   8.354   0.106 -0.2953  0.4058  0.3962
  346MOL0     C45566   6.806   8.261   0.002 -0.0063  0.2997  0.6146
  346MOL0     C45567   6.748   8.139   0.016  0.2030 -0.0347  0.5792
  346MOL0     C45568   6.696   8.100   0.147 -0.4091 -0.4775  0.7336
  346MOL0     C45569   6.647   7.963   0.161 -0.4890 -0.7371 -0.6310
  346MOL0     O45570   6.639   7.922   0.288  0.2209 -0.0190  0.1169
  346MOL0     C45571   6.603   7.797   0.315  0.1369 -0.0179  0.2208
  346MOL0     C45572   6.680   7.726   0.405 -0.3650 -0.5052  0.0269
  346MOL0     C45573   6.634   7.600   0.452  0.2987 -0.6006  0.4430
  346MOL0     C45574   6.512   7.544   0.395 -0.6947 -0.1826  0.5754
  346MOL0     O45575   6.477   7.415   0.417 -0.0295 -0.5960 -0.4384
  346MOL0     C45576   6.562   7.318   0.349 -1.2593  0.1748 -0.5564
  346MOL0     C45577   6.612   7.221   0.447 -0.1066  0.2612  0.7906
  346MOL0     C45578   6.670   7.107   0.358 -0.4286 -0.0329 -0.3113
  346MOL0     C45579   6.721   6.984   0.433  0.4319 -0.8813 -0.1760
  346MOL0     C45580   6.755   6.859   0.348  0.9842  1.4523  0.3068
  346MOL0     C45581   6.833   6.743   0.419 -0.3803 -0.6290  0.7128
  346MOL0     C45582   6.828   6.607   0.342  0.6185  0.4543  0.5103
  346MOL0     C45583   6.934   6.500   0.361 -0.0125  0.1564 -0.3103
  346MOL0    Cl45584   7.064   6.541   0.253  0.2114 -0.6429 -0.4744
  346MOL0     C45585   6.444   7.611   0.293 -0.7869  1.3552 -0.4907
  346MOL0     C45586   6.500   7.730   0.255  0.4506 -0.6395  0.0901
  346MOL0     O45587   6.606   7.909   0.064  0.3081 -0.2181 -0.2273
  346MOL0     C45588   6.686   8.197   0.248 -0.0276 -0.6169  0.0079
  346MOL0     C45589   6.740   8.325   0.226  0.0444  0.2644  0.9996
  346MOL0     N45590   6.730   8.703   0.617 -0.1588 -0.3827 -0.1398
  346MOL0     N45591   6.603   8.718   0.627 -0.3090  0.3757 -0.3027
  346MOL0     C45592   5.957   7.807   0.564  1.2831  0.3891 -0.6678
  346MOL0     C45593   5.917   7.752   0.688  0.3617  0.1895  0.4106
  346MOL0     C45594   5.916   7.687   1.145  0.5037  0.3796 -0.9260
  346MOL0     C45595   5.884   7.755   1.262 -0.3911 -0.0970 -0.6223
  346MOL0     C45596   5.842   7.684   1.379 -0.2362 -0.6560  1.2496
  346MOL0     C45597   5.822   7.550   1.379 -0.1861 -0.4760 -0.0475
  346MOL0     O45598   5.778   7.478   1.494 -0.3322 -0.0898 -0.3450
  346MOL0     C45599   5.797   7.541   1.623  0.5670  0.5016  0.4279
  346MOL0     C45600   5.939   7.579   1.658  0.1928  0.0673 -1.1602
  346MOL0     C45601   5.951   7.629   1.804 -0.7974 -0.6298  0.2880
  346MOL0     C45602   5.902   7.775   1.813  0.4741 -0.7167  1.0183
  346MOL0     C45603   5.998   7.875   1.746  0.9246  0.6926  0.4943
  346MOL0     C45604   6.069   7.945   1.677  0.8932 -0.0564 -0.1861
  346MOL0     C45605   5.865   7.482   1.268 -0.2987  0.3040  0.5203
  346MOL0     C45606   5.890   7.549   1.147  0.1333  0.5543  0.3087
  346MOL0     H45607   6.212   7.755   0.853  1.1770  0.1877 -1.3026
  346MOL0     H45608   6.267   7.902   0.660 -1.2460  1.1196  0.2349
  346MOL0     H45609   6.234   7.944   0.276  1.9646  2.1780  0.3859
  346MOL0     H45610   6.278   7.829   0.401  2.3189  0.6749  0.7420
  346MOL0     H45611   6.436   8.014   0.403 -0.1663  2.9899 -0.0763
  346MOL0     H45612   6.338   8.049   0.540 -0.0311  2.4205 -0.4671
  346MOL0     H45613   6.190   8.204   0.392  0.6327  1.0324  0.1363
  346MOL0     H45614   6.319   8.190   0.269 -0.9957 -0.2342 -0.7260
  346MOL0     H45615   6.337   8.296   0.548  2.3413  0.5480 -0.1879
  346MOL0     H45616   6.476   8.254   0.465 -0.2007 -4.0107 -3.3534
  346MOL0     H45617   6.254   8.408   0.334  1.0346 -1.5600 -1.6450
  346MOL0     H45618   6.417   8.404   0.281 -1.8598 -3.8605 -0.8011
  346MOL0     H45619   6.490   8.515   0.512 -0.3149 -2.3084 -0.2648
  346MOL0     H45620   6.319   8.554   0.533 -3.2522  3.2321 -3.5389
  346MOL0     H45621   6.458   8.655   0.290 -1.3316  3.0354 -0.6023
  346MOL0     H45622   6.289   8.681   0.344  0.3919  3.5614 -0.0418
  346MOL0     H45623   6.364   8.773   0.549 -1.6488 -3.4639 -0.8182
  346MOL0     H45624   6.424   8.870   0.411 -3.0254  0.2862  0.8448
  346MOL0     H45625   6.653   8.824   0.318  0.9119 -1.4045  0.0818
  346MOL0     H45626   6.968   8.788   0.544 -2.7352 -2.4791  1.5559
  346MOL0     H45627   6.921   8.873   0.386 -0.5826 -0.6441 -2.1471
  346MOL0     H45628   6.970   8.577   0.437 -1.5185 -1.0113  0.3534
  346MOL0     H45629   7.082   8.686   0.355 -0.3099 -0.5710  1.4980
  346MOL0     H45630   6.788   8.640   0.271  0.6732 -2.0058  1.5952
  346MOL0     H45631   6.910   8.741   0.188 -0.6332  1.8955  0.5577
  346MOL0     H45632   6.967   8.448   0.253  1.3966  1.1576 -0.6096
  346MOL0     H45633   7.037   8.543   0.131  0.1598 -0.7527  0.0129
  346MOL0     H45634   6.855   8.290  -0.090 -1.7363  2.9606  0.4381
  346MOL0     H45635   6.760   8.057  -0.055 -0.7726 -1.4425  1.9634
  346MOL0     H45636   6.771   7.768   0.447 -2.4018  2.8531  1.5096
  346MOL0     H45637   6.684   7.533   0.522 -0.4721 -0.1332  1.4657
  346MOL0     H45638   6.643   7.358   0.288 -2.4660  2.5753 -0.6728
  346MOL0     H45639   6.500   7.274   0.270 -2.0444 -1.6037  0.9666
  346MOL0     H45640   6.542   7.183   0.522  1.1762 -1.3616  1.2266
  346MOL0     H45641   6.693   7.262   0.509  1.1248  0.2891 -0.7708
  346MOL0     H45642   6.751   7.160   0.306  0.3394 -0.2843  0.6060
  346MOL0     H45643   6.601   7.067   0.282 -2.7218  0.5789  1.3438
  346MOL0     H45644   6.806   7.022   0.490  0.1965  0.7450 -0.8426
  346MOL0     H45645   6.646   6.961   0.509 -2.1362 -0.4730 -2.4411
  346MOL0     H45646   6.810   6.889   0.258 -0.8750  0.6367 -1.1614
  346MOL0     H45647   6.655   6.825   0.318  1.3262 -2.7846  3.0842
  346MOL0     H45648   6.786   6.718   0.515  1.1367 -1.2560  1.3202
  346MOL0     H45649   6.935   6.780   0.428 -0.2987 -0.2527 -1.2566
  346MOL0     H45650   6.729   6.577   0.377 -2.0566  3.3836 -3.5782
  346MOL0     H45651   6.825   6.627   0.234  2.4787 -1.0483  0.1415
  346MOL0     H45652   6.904   6.398   0.337 -2.4191  1.0668 -1.5702
  346MOL0     H45653   6.969   6.506   0.464  0.3816  1.0096 -0.4846
  346MOL0     H45654   6.366   7.547   0.253  0.4662 -1.8428  1.7439
  346MOL0     H45655   6.445   7.786   0.180  0.4260 -0.9913 -0.1579
  346MOL0     H45656   6.629   8.162   0.334  1.1760  0.1007  1.1312
  346MOL0     H45657   6.733   8.399   0.305 -0.9432  1.3472 -0.0547
  346MOL0     H45658   5.891   7.812   0.478  0.7105  0.5260 -0.2270
  346MOL0     H45659   5.816   7.714   0.701  1.3597 -2.4864  0.8962
  346MOL0     H45660   5.877   7.863   1.252  0.7303 -0.1029 -1.7688
  346MOL0     H45661   5.823   7.739   1.470  4.1555 -0.7213  2.4263
  346MOL0     H45662   5.754   7.479   1.702 -2.2052 -0.2058 -1.4986
  346MOL0     H45663   5.728   7.626   1.627 -2.4026 -1.5459 -2.3354
  346MOL0     H45664   6.003   7.491   1.648 -0.0973 -0.3460  0.3545
  346MOL0     H45665   5.982   7.655   1.593  1.2270 -0.3583 -0.9967
  346MOL0     H45666   6.052   7.611   1.843 -1.3335 -3.6397  0.5385
  346MOL0     H45667   5.885   7.560   1.858 -1.8860 -2.2901 -2.9154
  346MOL0     H45668   5.807   7.786   1.759  1.1089  2.0069  0.2864
  346MOL0     H45669   5.882   7.794   1.919 -0.1673  0.1062  0.7651
  346MOL0     H45670   6.131   8.007   1.616 -0.5372  0.0653 -1.5609
  346MOL0     H45671   5.845   7.377   1.285  0.1557  0.3386  1.3220
  346MOL0     H45672   5.890   7.493   1.054  2.5308  4.8656 -2.6128
  347MOL0     O45673  10.433   7.066   0.550  0.2960  0.0027  0.1361
  347MOL0     C45674  10.505   7.072   0.441  0.4621  0.5023 -0.2116
  347MOL0     O45675  10.568   7.181   0.406  0.2797  0.6175  0.8503
  347MOL0     C45676  10.537   7.298   0.467  0.1859 -0.4904  0.2001
  347MOL0     C45677  10.422   7.376   0.443  0.1369  0.3120 -0.0764
  347MOL0     C45678  10.396   7.493   0.510  0.0826  0.1115 -0.0613
  347MOL0     C45679  10.490   7.533   0.614  0.4422 -0.8983 -1.4342
  347MOL0     O45680  10.456   7.650   0.679 -0.6728  0.4251  0.1627
  347MOL0     C45681  10.365   7.637   0.784 -0.7851  0.8080  0.0427
  347MOL0     C45682  10.357   7.768   0.868  0.7955  0.3811  0.5559
  347MOL0     C45683  10.221   7.838   0.849  0.3447  0.4208 -0.4792
  347MOL0     C45684  10.232   7.991   0.887 -0.1899  0.9910  0.3915
  347MOL0     C45685  10.104   8.052   0.931 -0.1739  0.8632 -0.2220
  347MOL0     C45686  10.116   8.207   0.928  1.1164 -0.1121 -0.7500
  347MOL0     C45687  10.159   8.259   1.064 -0.7538 -0.6299 -0.4281
  347MOL0     C45688  10.213   8.401   1.061 -0.5215  0.7830 -0.1539
  347MOL0     N45689  10.160   8.492   0.968  1.2173 -0.3478 -0.4034
  347MOL0     C45690  10.021   8.520   0.964 -0.1107  0.0980 -0.3263
  347MOL0     C45691  10.027   8.595   0.849 -0.1360  0.5515  0.6303
  347MOL0     C45692   9.928   8.675   0.778 -0.0512 -0.3919  0.1048
  347MOL0     C45693   9.784   8.653   0.845  0.5715 -0.6757 -0.6366
  347MOL0     C45694   9.673   8.736   0.779  0.3414  0.1217 -0.0687
  347MOL0     C45695   9.534   8.720   0.831  0.7775  0.9371  0.0978
  347MOL0     O45696   9.458   8.823   0.768  0.5181 -0.3508 -0.0891
  347MOL0     C45697   9.328   8.843   0.804  0.9992  1.1802 -0.2107
  347MOL0     C45698   9.282   8.966   0.826  0.3307 -0.3893  0.6118
  347MOL0     C45699   9.155   8.985   0.863  0.2435 -0.0340 -0.5700
  347MOL0     C45700   9.064   8.883   0.890  0.0276 -0.4777 -0.2106
  347MOL0     C45701   8.927   8.912   0.936  0.3922  1.0478 -0.6416
  347MOL0     O45702   8.887   9.042   0.910  0.4237  0.3690 -0.8810
  347MOL0     C45703   8.752   9.056   0.914  0.4151  0.8110 -0.3593
  347MOL0     C45704   8.689   9.071   1.031  0.4891 -0.4302 -0.2304
  347MOL0     C45705   8.548   9.068   1.030 -0.2738 -0.3673 -0.2082
  347MOL0     C45706   8.469   9.042   0.919 -0.1944  0.1637  0.3176
  347MOL0     O45707   8.338   9.010   0.935 -0.1555 -0.8573 -0.8285
  347MOL0     C45708   8.250   9.099   0.868  1.4109 -0.8258  0.1013
  347MOL0     C45709   8.216   9.225   0.932  0.5207 -0.5620 -0.8598
  347MOL0     C45710   8.134   9.207   1.060 -0.9633 -1.5019 -0.5018
  347MOL0     C45711   8.043   9.340   1.088  0.6592 -0.6267 -0.5173
  347MOL0     C45712   8.128   9.478   1.107  0.6632  0.1195 -0.4494
  347MOL0     C45713   8.250   9.479   1.208  0.0701 -0.0320 -0.6288
  347MOL0     C45714   8.363   9.572   1.157 -0.3563 -0.5433  0.0664
  347MOL0     C45715   8.319   9.715   1.112 -0.0849 -0.0046 -0.4961
  347MOL0    Cl45716   8.262   9.801   1.264 -0.3762 -0.1751 -0.2168
  347MOL0     C45717   8.532   9.048   0.793  0.3494  0.0769  0.1533
  347MOL0     C45718   8.676   9.053   0.794  0.3223  1.1718  0.6569
  347MOL0     O45719   8.861   8.819   0.975  0.5094  0.5497  0.1579
  347MOL0     C45720   9.108   8.752   0.867 -0.1705  0.5501  0.2655
  347MOL0     C45721   9.236   8.734   0.826 -1.7143 -0.1004 -0.9960
  347MOL0     N45722  10.159   8.618   0.810 -0.4202  1.0494 -0.9015
  347MOL0     N45723  10.242   8.547   0.876  0.5255  1.0014  0.2286
  347MOL0     C45724  10.609   7.464   0.636 -0.1060 -0.6530 -0.9215
  347MOL0     C45725  10.631   7.350   0.561  0.4996 -0.7227  0.4452
  347MOL0     C45726  10.534   6.944   0.374  0.3436 -0.2702  0.1383
  347MOL0     C45727  10.621   6.945   0.261  0.1260  0.4947 -1.1488
  347MOL0     C45728  10.653   6.833   0.190 -0.5447 -0.2593 -0.2360
  347MOL0     C45729  10.580   6.711   0.212  0.6018  0.5172 -0.2537
  347MOL0     O45730  10.618   6.589   0.137  0.0337  0.0724 -0.1746
  347MOL0     C45731  10.726   6.606   0.045  0.3997 -0.0096  0.3370
  347MOL0     C45732  10.748   6.466   0.002 -0.1173 -0.2686 -0.0784
  347MOL0     C45733  10.837   6.372   0.092 -0.6286 -0.1874 -0.6454
  347MOL0     C45734  10.954   6.429   0.169  1.0627 -0.0012  1.7161
  347MOL0     C45735  11.056   6.330   0.204 -0.2178 -0.4418  0.2805
  347MOL0     C45736  11.141   6.251   0.228 -0.0162  0.8281 -0.9248
  347MOL0     C45737  10.498   6.699   0.326 -0.2628 -0.8274  0.3434
  347MOL0     C45738  10.465   6.819   0.398 -0.1597 -0.3040  0.3994
  347MOL0     H45739  10.348   7.342   0.372 -0.0704  2.7274 -1.0936
  347MOL0     H45740  10.307   7.554   0.495  0.8060  0.6564 -2.6492
  347MOL0     H45741  10.374   7.549   0.848 -1.5677  1.0854  0.5563
  347MOL0     H45742  10.266   7.622   0.740 -2.0182 -0.5232  3.0058
  347MOL0     H45743  10.422   7.845   0.825 -0.3532  1.8240  1.3012
  347MOL0     H45744  10.372   7.742   0.973 -3.5979  0.7761  1.5027
  347MOL0     H45745  10.155   7.779   0.913 -1.9583  1.5433 -1.6962
  347MOL0     H45746  10.182   7.822   0.748  1.1089 -3.5779 -0.3237
  347MOL0     H45747  10.315   8.007   0.956  1.9497  0.4210 -1.9351
  347MOL0     H45748  10.260   8.033   0.791 -2.2528 -0.4700 -0.9513
  347MOL0     H45749  10.087   8.022   1.035  0.5414  2.2413  0.3251
  347MOL0     H45750  10.027   8.016   0.862 -0.4521  1.4183 -0.2050
  347MOL0     H45751  10.015   8.245   0.913  0.7007  0.1979  2.1258
  347MOL0     H45752  10.185   8.250   0.855  0.2612  0.5181 -1.2034
  347MOL0     H45753  10.066   8.262   1.122 -0.3821  1.5665  0.1171
  347MOL0     H45754  10.241   8.197   1.102  2.8187  4.7549  1.9202
  347MOL0     H45755  10.318   8.379   1.037 -0.0368  1.3570  1.3576
  347MOL0     H45756  10.208   8.441   1.162 -1.2175  1.0320 -0.2790
  347MOL0     H45757   9.940   8.482   1.026  0.4429  1.2721  1.2044
  347MOL0     H45758   9.929   8.658   0.670 -3.0274  1.1875 -0.2927
  347MOL0     H45759   9.956   8.781   0.789  2.6340 -1.2040  2.4708
  347MOL0     H45760   9.799   8.678   0.951  0.4227  1.4908 -1.0909
  347MOL0     H45761   9.746   8.551   0.847 -0.5549 -0.2668  1.6148
  347MOL0     H45762   9.695   8.842   0.793 -1.0393  0.6927 -1.7381
  347MOL0     H45763   9.669   8.720   0.671 -1.6035  1.5355 -0.2593
  347MOL0     H45764   9.526   8.737   0.938 -1.4742 -0.4302  0.2048
  347MOL0     H45765   9.492   8.622   0.804 -0.4520  1.9565 -1.9508
  347MOL0     H45766   9.340   9.055   0.804 -2.2817  0.8020 -2.1496
  347MOL0     H45767   9.125   9.088   0.878 -2.2509 -0.8961  0.8323
  347MOL0     H45768   8.727   9.087   1.131  1.9238 -1.6230 -0.5504
  347MOL0     H45769   8.511   9.072   1.132 -2.9520  1.5715 -1.1635
  347MOL0     H45770   8.163   9.042   0.833 -0.2468 -0.3499  3.0873
  347MOL0     H45771   8.299   9.129   0.775 -0.0951 -1.3928 -0.9037
  347MOL0     H45772   8.177   9.308   0.872  0.4832  0.6219  0.7211
  347MOL0     H45773   8.304   9.277   0.970  0.0841  0.0073 -0.5998
  347MOL0     H45774   8.193   9.205   1.152 -0.4656  3.0712 -0.4933
  347MOL0     H45775   8.079   9.113   1.047  2.0592 -3.2987 -1.6440
  347MOL0     H45776   7.977   9.354   1.002 -0.1099  2.0722  0.3753
  347MOL0     H45777   7.995   9.329   1.186 -0.1438 -1.0378 -0.9505
  347MOL0     H45778   8.046   9.545   1.135  0.5691  0.8151 -2.2615
  347MOL0     H45779   8.157   9.491   1.003  1.9236 -0.6465 -0.2201
  347MOL0     H45780   8.294   9.379   1.204 -1.6264 -0.7931 -0.8243
  347MOL0     H45781   8.230   9.493   1.314  1.2869 -0.4833 -0.3246
  347MOL0     H45782   8.434   9.574   1.240  0.3369 -0.1094 -0.5188
  347MOL0     H45783   8.435   9.531   1.085  1.5358 -0.9422  2.0666
  347MOL0     H45784   8.242   9.706   1.035  0.3144 -0.0512 -0.8975
  347MOL0     H45785   8.406   9.767   1.068  0.4956 -1.6952 -1.4381
  347MOL0     H45786   8.473   9.026   0.705 -1.6828 -0.9765  1.6808
  347MOL0     H45787   8.737   9.034   0.706 -0.3943 -0.7876  0.5468
  347MOL0     H45788   9.040   8.672   0.894 -0.3963  0.1558 -1.3592
  347MOL0     H45789   9.269   8.633   0.804  0.3534  0.0581  0.9856
  347MOL0     H45790  10.680   7.515   0.700  0.1714  0.5635 -2.1679
  347MOL0     H45791  10.730   7.304   0.560 -0.5614 -3.2352 -1.4039
  347MOL0     H45792  10.671   7.039   0.239  1.5341  0.1973  0.6025
  347MOL0     H45793  10.737   6.840   0.122  2.2893 -2.3807  2.7106
  347MOL0     H45794  10.815   6.650   0.091 -0.4482  2.3943 -0.1656
  347MOL0     H45795  10.692   6.681  -0.029  1.3641 -0.4590 -0.5863
  347MOL0     H45796  10.649   6.423  -0.014  1.0665 -2.0413 -4.1428
  347MOL0     H45797  10.805   6.466  -0.092 -0.4193 -0.5203 -0.2606
  347MOL0     H45798  10.873   6.286   0.034  0.4577 -0.4196  0.3424
  347MOL0     H45799  10.771   6.317   0.160 -0.6823 -0.4550 -0.9077
  347MOL0     H45800  11.011   6.505   0.115 -1.8571  1.1981  0.1433
  347MOL0     H45801  10.909   6.482   0.253  0.5096  0.9431  0.8370
  347MOL0     H45802  11.209   6.176   0.264  0.8523  1.2277 -1.7006
  347MOL0     H45803  10.449   6.610   0.363 -0.4330 -0.5239  0.8611
  347MOL0     H45804  10.392   6.803   0.477 -0.5167  0.3681  0.2118
  348MOL0     O45805   8.972   1.223   1.946  0.3592 -0.0620  0.1071
  348MOL0     C45806   9.084   1.195   1.914  0.1088 -1.0857 -0.3830
  348MOL0     O45807   9.129   1.076   1.865  0.4139 -0.0068  0.6092
  348MOL0     C45808   9.046   0.964   1.880  1.1986  0.5174 -0.2107
  348MOL0     C45809   9.000   0.897   1.767  0.3180 -0.5346 -0.7674
  348MOL0     C45810   8.923   0.779   1.782 -0.0353  0.7365  0.1889
  348MOL0     C45811   8.882   0.739   1.914  0.9808  0.9280  0.3111
  348MOL0     O45812   8.805   0.628   1.911 -0.2518  0.0693  0.7906
  348MOL0     C45813   8.721   0.598   2.026 -0.8575  0.0668 -0.3278
  348MOL0     C45814   8.644   0.473   1.995 -0.1605  0.0562  0.8128
  348MOL0     C45815   8.525   0.448   2.084 -0.6081 -0.3721  0.2032
  348MOL0     C45816   8.573   0.405   2.226 -0.0882 -0.1995 -0.8823
  348MOL0     C45817   8.453   0.368   2.312  0.2929 -0.4199 -0.0253
  348MOL0     C45818   8.480   0.289   2.449 -0.5695  0.0450  0.3749
  348MOL0     C45819   8.355   0.283   2.538  0.2512 -0.1774 -0.3059
  348MOL0     C45820   8.390   0.209   2.670  0.7638 -0.1412  0.1168
  348MOL0     N45821   8.387   0.070   2.652  0.6774  0.5930  0.4529
  348MOL0     C45822   8.268  -0.007   2.653  0.0474  0.4813  0.3552
  348MOL0     C45823   8.317  -0.136   2.644  0.9222  0.5184  0.4413
  348MOL0     C45824   8.236  -0.260   2.602 -1.8022 -0.3505  1.0541
  348MOL0     C45825   8.193  -0.344   2.735  0.5318  0.6315  0.0647
  348MOL0     C45826   8.137  -0.492   2.699 -0.0997  0.2117 -0.5439
  348MOL0     C45827   8.076  -0.563   2.820 -0.9989  0.2650 -0.0191
  348MOL0     O45828   8.184  -0.614   2.898  0.3127 -0.5958  0.1492
  348MOL0     C45829   8.159  -0.664   3.016 -0.2534 -0.3538  0.0892
  348MOL0     C45830   8.238  -0.627   3.132 -0.4152  0.0158 -1.3369
  348MOL0     C45831   8.207  -0.680   3.261  1.1860 -0.5440 -0.5566
  348MOL0     C45832   8.092  -0.768   3.277  0.8439  0.2962  0.1546
  348MOL0     C45833   8.046  -0.815   3.421  1.3824  0.2264  0.6540
  348MOL0     O45834   8.142  -0.792   3.522  0.2709  0.5089 -0.4441
  348MOL0     C45835   8.130  -0.873   3.639 -0.4445  0.3322  0.2064
  348MOL0     C45836   8.157  -0.817   3.763  0.1425 -0.4986 -0.3858
  348MOL0     C45837   8.126  -0.884   3.884  0.5778  0.3565 -0.8726
  348MOL0     C45838   8.054  -1.007   3.877  0.0806 -0.4922 -0.7131
  348MOL0     O45839   8.031  -1.095   3.987  0.3429  0.2187  0.1865
  348MOL0     C45840   8.003  -1.022   4.106  1.3556 -0.5709  0.2961
  348MOL0     C45841   7.974  -1.119   4.227 -0.5016  0.6936  0.6613
  348MOL0     C45842   8.003  -1.048   4.364  0.0818  0.2614  0.6139
  348MOL0     C45843   8.157  -1.041   4.377  0.0187  1.1245 -0.3457
  348MOL0     C45844   8.199  -0.949   4.485 -1.5768 -0.7821 -0.5878
  348MOL0     C45845   8.184  -0.799   4.447  0.0434 -0.0261  0.7298
  348MOL0     C45846   8.217  -0.707   4.571  0.3113  0.3721 -0.5900
  348MOL0     C45847   8.362  -0.706   4.616 -0.5267  0.7014  0.0217
  348MOL0    Cl45848   8.374  -0.838   4.729 -0.2860  0.6132  0.1554
  348MOL0     C45849   8.055  -1.075   3.755  0.5424 -1.1486  0.1690
  348MOL0     C45850   8.088  -1.012   3.631 -0.1900 -0.1487 -0.9387
  348MOL0     O45851   7.943  -0.875   3.425  0.4014 -0.5322 -0.6296
  348MOL0     C45852   8.020  -0.794   3.162  0.0557  0.7237  0.9862
  348MOL0     C45853   8.055  -0.756   3.033 -0.2132  0.1423  0.7005
  348MOL0     N45854   8.453  -0.126   2.629 -0.2250  1.0332  1.4696
  348MOL0     N45855   8.500  -0.003   2.636 -0.4039  0.5355  0.0437
  348MOL0     C45856   8.916   0.813   2.025 -0.4470  1.3543  0.1648
  348MOL0     C45857   9.006   0.914   2.009 -0.0840  0.0521  0.1000
  348MOL0     C45858   9.186   1.299   1.947  1.1830  0.0279 -0.5360
  348MOL0     C45859   9.318   1.267   1.955  0.5200 -0.0049  0.2503
  348MOL0     C45860   9.404   1.368   1.983 -0.9113  0.4687 -0.3472
  348MOL0     C45861   9.377   1.504   1.993 -0.5596 -1.1281 -0.4217
  348MOL0     O45862   9.477   1.593   2.027  0.6207 -0.3974 -0.6025
  348MOL0     C45863   9.458   1.731   1.994 -0.2760 -0.2052  1.1750
  348MOL0     C45864   9.594   1.801   1.969 -1.1725 -1.2330  0.0435
  348MOL0     C45865   9.653   1.756   1.827  0.3630 -0.0982 -0.4615
  348MOL0     C45866   9.805   1.769   1.815  0.5064  0.8983 -0.6551
  348MOL0     C45867   9.851   1.788   1.671  0.6333 -0.8533  0.2945
  348MOL0     C45868   9.901   1.790   1.556  0.7040  0.3260 -0.0289
  348MOL0     C45869   9.239   1.529   1.990 -0.3284 -0.6274 -0.2403
  348MOL0     C45870   9.150   1.433   1.948 -0.3682  0.5489  0.9828
  348MOL0     H45871   9.014   0.917   1.661  0.1596  1.3654 -0.4670
  348MOL0     H45872   8.897   0.718   1.696  1.0514  1.6922 -0.8390
  348MOL0     H45873   8.645   0.676   2.028 -1.7405 -0.7767 -0.0727
  348MOL0     H45874   8.770   0.594   2.124 -1.4989 -3.0363 -0.0200
  348MOL0     H45875   8.711   0.387   2.002 -1.1485 -0.6409  2.2209
  348MOL0     H45876   8.616   0.479   1.889 -0.2390  0.5402  0.8602
  348MOL0     H45877   8.464   0.372   2.034 -0.8318  1.1288 -1.9230
  348MOL0     H45878   8.467   0.540   2.090 -2.8344 -1.7267  0.4477
  348MOL0     H45879   8.644   0.322   2.219 -0.0517 -0.2513  0.0190
  348MOL0     H45880   8.631   0.478   2.283 -1.0025 -0.1550  0.0138
  348MOL0     H45881   8.392   0.309   2.243  1.5322  0.5162 -1.9932
  348MOL0     H45882   8.397   0.458   2.341  1.6639  1.3232 -2.4079
  348MOL0     H45883   8.551   0.343   2.512 -0.2153  0.7176 -0.5775
  348MOL0     H45884   8.520   0.188   2.432 -1.3862 -0.0023 -1.4492
  348MOL0     H45885   8.310   0.379   2.564  0.5509 -0.3619  0.9284
  348MOL0     H45886   8.273   0.230   2.490 -3.0565  4.0185  0.1225
  348MOL0     H45887   8.318   0.231   2.749 -0.2707 -1.6059 -0.3596
  348MOL0     H45888   8.482   0.237   2.723  1.8017 -0.1939 -1.5605
  348MOL0     H45889   8.169   0.033   2.669  0.6624  2.5699 -0.6802
  348MOL0     H45890   8.293  -0.318   2.529 -0.5548  2.9227 -0.7717
  348MOL0     H45891   8.150  -0.218   2.549 -0.1927  0.3072 -1.1607
  348MOL0     H45892   8.116  -0.287   2.787  0.9244  1.7282 -0.5110
  348MOL0     H45893   8.285  -0.353   2.793  0.5651 -0.1919 -0.1114
  348MOL0     H45894   8.056  -0.486   2.626 -0.3665  1.3290 -0.1867
  348MOL0     H45895   8.217  -0.551   2.655  0.2871  3.3635 -4.6679
  348MOL0     H45896   8.011  -0.646   2.788 -1.1631 -0.2265  1.4803
  348MOL0     H45897   8.017  -0.495   2.882 -0.1384  2.3061 -1.3525
  348MOL0     H45898   8.328  -0.567   3.131 -0.1435 -0.0614  3.0505
  348MOL0     H45899   8.258  -0.641   3.348  0.1680 -2.4625  0.9637
  348MOL0     H45900   8.200  -0.718   3.770  1.8763 -1.2252 -0.1772
  348MOL0     H45901   8.153  -0.837   3.978 -0.3446  2.8972 -1.7887
  348MOL0     H45902   7.917  -0.960   4.079  1.7530  0.1974  0.7278
  348MOL0     H45903   8.084  -0.960   4.147  0.7821 -1.1012  2.3682
  348MOL0     H45904   8.037  -1.208   4.217 -3.4795 -1.3059 -4.5523
  348MOL0     H45905   7.870  -1.150   4.208 -0.3585 -0.0816  1.1258
  348MOL0     H45906   7.970  -1.096   4.457  0.9410 -0.1827  0.6937
  348MOL0     H45907   7.946  -0.955   4.350 -0.1157  0.2038  1.0169
  348MOL0     H45908   8.200  -1.138   4.402 -1.6305  0.8935  1.9063
  348MOL0     H45909   8.205  -1.010   4.283 -0.6204  1.1252 -0.6747
  348MOL0     H45910   8.303  -0.977   4.504 -1.6841 -0.0245  1.3424
  348MOL0     H45911   8.150  -0.977   4.579  0.2687 -2.3568 -0.0218
  348MOL0     H45912   8.077  -0.789   4.427  0.2713  0.1015 -0.5115
  348MOL0     H45913   8.238  -0.767   4.357 -1.5468 -2.3327 -1.1870
  348MOL0     H45914   8.191  -0.609   4.530  0.6014  0.8876  0.4255
  348MOL0     H45915   8.155  -0.733   4.657  1.3824  1.7407  0.6416
  348MOL0     H45916   8.395  -0.611   4.661 -0.7123  1.2079 -0.8754
  348MOL0     H45917   8.421  -0.729   4.526 -0.8548 -0.5215  0.1142
  348MOL0     H45918   8.021  -1.176   3.736 -2.0380 -0.0037 -2.0553
  348MOL0     H45919   8.076  -1.053   3.532 -3.4935 -0.5196 -0.4918
  348MOL0     H45920   7.928  -0.852   3.165  1.3810 -1.7736 -1.5350
  348MOL0     H45921   7.999  -0.777   2.942  2.2665  3.6208 -1.9201
  348MOL0     H45922   8.875   0.783   2.121  1.2105  0.5115  0.6387
  348MOL0     H45923   9.046   0.980   2.085  0.5513 -0.9647  0.6691
  348MOL0     H45924   9.353   1.164   1.953  1.6836  0.3848 -0.8092
  348MOL0     H45925   9.507   1.335   1.994 -0.4383  1.1759 -2.2816
  348MOL0     H45926   9.400   1.786   2.068 -1.3536  1.2737 -0.6667
  348MOL0     H45927   9.406   1.738   1.897  0.8628  1.9919  0.6671
  348MOL0     H45928   9.575   1.908   1.976 -3.8826 -1.5784 -0.8131
  348MOL0     H45929   9.663   1.778   2.051 -1.1819 -2.4312 -0.2611
  348MOL0     H45930   9.610   1.818   1.748  0.0398  0.7078  0.3351
  348MOL0     H45931   9.627   1.651   1.807 -0.4653  0.2714 -1.4276
  348MOL0     H45932   9.828   1.862   1.869  5.5172  0.0986 -0.9993
  348MOL0     H45933   9.857   1.685   1.861 -1.1836  0.6994  1.0099
  348MOL0     H45934   9.944   1.767   1.460 -0.0026 -1.0782 -0.0363
  348MOL0     H45935   9.202   1.627   2.018 -2.9903 -2.0412  1.7413
  348MOL0     H45936   9.047   1.464   1.934  0.2246  1.9178 -0.6805
  349MOL0     O45937   0.305   7.414   4.152 -0.6606  0.6125 -0.8780
  349MOL0     C45938   0.306   7.292   4.171 -0.5681 -0.2512 -1.0848
  349MOL0     O45939   0.419   7.216   4.174  0.0026  0.6725 -0.1691
  349MOL0     C45940   0.546   7.258   4.138  0.8926  0.0839 -0.0874
  349MOL0     C45941   0.591   7.390   4.144 -1.0402  0.3836 -1.0344
  349MOL0     C45942   0.720   7.418   4.103  0.4826 -0.2323  0.2584
  349MOL0     C45943   0.812   7.323   4.053 -0.1170  0.0640 -0.5748
  349MOL0     O45944   0.941   7.346   4.021 -0.2726  0.4319  0.3369
  349MOL0     C45945   0.985   7.473   3.994 -0.8629 -0.2682  0.0551
  349MOL0     C45946   1.107   7.464   3.900 -1.7518  0.5405  0.2590
  349MOL0     C45947   1.230   7.393   3.947 -0.0144  0.6984 -0.6602
  349MOL0     C45948   1.368   7.439   3.888 -0.3973 -0.7145  0.2237
  349MOL0     C45949   1.487   7.367   3.946  0.4015 -0.3824  0.8616
  349MOL0     C45950   1.516   7.419   4.081 -0.6271 -0.1582  1.0235
  349MOL0     C45951   1.645   7.368   4.157 -0.6809  0.1966  0.4564
  349MOL0     C45952   1.614   7.254   4.253 -0.1026  0.3961 -0.0760
  349MOL0     N45953   1.575   7.129   4.190  0.6736  0.5457  1.0233
  349MOL0     C45954   1.446   7.100   4.203 -0.7280 -0.2316  0.5832
  349MOL0     C45955   1.434   7.007   4.097 -0.2387 -0.0568  0.2913
  349MOL0     C45956   1.300   6.961   4.056  0.5026  0.1404 -0.3972
  349MOL0     C45957   1.314   6.811   4.074 -1.3360  1.0735  0.3728
  349MOL0     C45958   1.182   6.743   4.067  0.1261 -0.4741 -0.2229
  349MOL0     C45959   1.190   6.595   4.041  0.4439 -0.2959  0.7236
  349MOL0     O45960   1.045   6.560   4.050 -0.1015 -0.1786 -0.3852
  349MOL0     C45961   1.020   6.453   3.964 -0.6524 -0.4169  0.0899
  349MOL0     C45962   0.965   6.462   3.839 -0.5461  0.1295  0.8076
  349MOL0     C45963   0.921   6.346   3.761  0.1705  1.2071 -0.0159
  349MOL0     C45964   0.950   6.215   3.819 -0.2547  0.1695  0.2187
  349MOL0     C45965   0.900   6.096   3.746  0.2702  0.2012  0.0359
  349MOL0     O45966   0.932   5.975   3.806  0.6159 -0.5881 -0.4021
  349MOL0     C45967   0.917   5.859   3.730 -0.5531  0.1064  0.3536
  349MOL0     C45968   0.788   5.810   3.703  0.4893  0.5326 -0.0808
  349MOL0     C45969   0.777   5.701   3.614  0.3534  0.1478  0.5107
  349MOL0     C45970   0.893   5.629   3.564 -0.4066 -0.7708 -0.0878
  349MOL0     O45971   0.895   5.516   3.487  0.4569  1.0445  0.0591
  349MOL0     C45972   0.779   5.453   3.431  0.0075 -0.9706  0.6933
  349MOL0     C45973   0.720   5.524   3.310  0.5829 -0.4930  0.8377
  349MOL0     C45974   0.769   5.464   3.177 -0.3951  0.6169  0.0101
  349MOL0     C45975   0.884   5.543   3.117  1.4058 -0.0716 -1.0014
  349MOL0     C45976   0.917   5.478   2.977 -1.3254 -0.1240 -0.1127
  349MOL0     C45977   0.838   5.546   2.871  0.6153 -0.1596 -0.4384
  349MOL0     C45978   0.891   5.686   2.825 -0.4289  0.4902  0.9954
  349MOL0     C45979   1.038   5.692   2.774 -1.1032  0.0620 -0.2968
  349MOL0    Cl45980   1.066   5.548   2.679  0.2955  0.1825 -0.3605
  349MOL0     C45981   1.021   5.674   3.606 -0.0780  0.1184  0.3708
  349MOL0     C45982   1.039   5.789   3.689  0.4094 -0.4025 -1.3045
  349MOL0     O45983   0.847   6.110   3.636 -0.4932  0.3266 -0.1342
  349MOL0     C45984   0.996   6.205   3.952  0.1726  0.4147  0.1353
  349MOL0     C45985   1.029   6.324   4.016  0.2058  0.1350  0.4581
  349MOL0     N45986   1.557   6.984   4.036 -0.3739 -0.8471  0.5428
  349MOL0     N45987   1.640   7.061   4.090  0.0187  0.5833 -0.4268
  349MOL0     C45988   0.766   7.194   4.057  0.2892 -0.3924 -0.5799
  349MOL0     C45989   0.633   7.153   4.087  0.0189 -1.3145  0.1374
  349MOL0     C45990   0.189   7.216   4.218 -0.0746 -0.4087 -0.2396
  349MOL0     C45991   0.062   7.283   4.212 -1.2842 -0.2170 -0.4268
  349MOL0     C45992  -0.052   7.217   4.255  0.1746  0.5415 -0.4225
  349MOL0     C45993  -0.045   7.091   4.300  0.3113  1.3065 -0.8861
  349MOL0     O45994  -0.157   7.036   4.359  0.2884  0.2786 -0.1086
  349MOL0     C45995  -0.139   7.027   4.496  0.9999  1.0664  0.1106
  349MOL0     C45996  -0.273   7.029   4.578 -0.1509 -0.1323  0.4977
  349MOL0     C45997  -0.372   6.922   4.517 -0.5829 -0.6407  0.0139
  349MOL0     C45998  -0.501   6.904   4.605  0.5919 -0.4372  0.2916
  349MOL0     C45999  -0.579   7.025   4.602 -0.7229 -0.0634 -0.0807
  349MOL0     C46000  -0.648   7.123   4.580  0.1546  1.0177 -0.2532
  349MOL0     C46001   0.075   7.023   4.303  0.6984  0.2973  0.5752
  349MOL0     C46002   0.198   7.087   4.267  0.2497  0.7815  0.7173
  349MOL0     H46003   0.526   7.473   4.170  1.4208  2.5936 -1.5002
  349MOL0     H46004   0.751   7.521   4.116  0.5436 -0.2612  0.3431
  349MOL0     H46005   1.009   7.519   4.091 -1.3282 -2.0914  1.0809
  349MOL0     H46006   0.912   7.540   3.948  0.3004  1.7489  0.9921
  349MOL0     H46007   1.133   7.568   3.881  0.6828 -0.6185 -4.1288
  349MOL0     H46008   1.084   7.431   3.799  3.3985 -1.6406 -0.5352
  349MOL0     H46009   1.223   7.285   3.934 -1.2068  0.6266  0.3747
  349MOL0     H46010   1.229   7.399   4.056 -6.0018  0.8250 -0.3824
  349MOL0     H46011   1.358   7.414   3.782 -0.4573  1.2331 -0.2485
  349MOL0     H46012   1.379   7.547   3.893  1.4563 -0.9254  2.0804
  349MOL0     H46013   1.573   7.382   3.880 -1.0018  1.6275 -0.6191
  349MOL0     H46014   1.464   7.260   3.954 -0.3120 -0.2139  1.1701
  349MOL0     H46015   1.424   7.396   4.135 -0.8051 -0.3482  0.6394
  349MOL0     H46016   1.516   7.528   4.066 -1.3151 -0.5373 -2.6197
  349MOL0     H46017   1.722   7.342   4.084  0.4263  4.5022 -0.1787
  349MOL0     H46018   1.696   7.447   4.214  1.4936  0.1659 -1.2821
  349MOL0     H46019   1.539   7.287   4.326  0.7122  1.2592  0.4018
  349MOL0     H46020   1.709   7.242   4.306 -0.0587  0.0840 -0.2242
  349MOL0     H46021   1.362   7.140   4.259 -0.4415  1.7767 -0.3241
  349MOL0     H46022   1.288   6.985   3.950 -0.7436  2.5601  0.2385
  349MOL0     H46023   1.214   7.006   4.106  1.4607  0.7826  0.7169
  349MOL0     H46024   1.360   6.790   4.171 -5.1150 -0.7944  1.9907
  349MOL0     H46025   1.380   6.760   4.004 -4.2005  0.4094 -2.0233
  349MOL0     H46026   1.142   6.752   4.168 -0.4350  0.3678 -0.5042
  349MOL0     H46027   1.118   6.795   3.995  0.4054 -2.2852 -1.8673
  349MOL0     H46028   1.246   6.537   4.115  0.3988  1.4914  2.2429
  349MOL0     H46029   1.234   6.578   3.942  0.5800  0.8647  0.5699
  349MOL0     H46030   0.945   6.548   3.777 -0.7980 -0.6228 -0.1764
  349MOL0     H46031   0.876   6.357   3.663 -2.9234 -3.7197  0.5159
  349MOL0     H46032   0.706   5.872   3.736 -0.0053 -2.4064  5.1656
  349MOL0     H46033   0.677   5.680   3.578  0.1089  3.3874 -1.0957
  349MOL0     H46034   0.704   5.452   3.511 -1.4580  3.1812 -0.3360
  349MOL0     H46035   0.822   5.354   3.416  3.1063  0.0975  1.6983
  349MOL0     H46036   0.753   5.628   3.315 -0.7924  0.0018  0.1280
  349MOL0     H46037   0.612   5.513   3.321  0.7214 -1.9644  0.9346
  349MOL0     H46038   0.686   5.467   3.105  0.7927 -2.2514 -1.6463
  349MOL0     H46039   0.786   5.357   3.189 -1.9908  0.3033 -0.3052
  349MOL0     H46040   0.849   5.647   3.117 -3.1671 -1.0754  5.1052
  349MOL0     H46041   0.965   5.546   3.190 -0.2042  1.0624  0.8608
  349MOL0     H46042   0.899   5.371   2.991 -1.4667  0.1329  1.9585
  349MOL0     H46043   1.024   5.488   2.955 -1.2550  0.4308  0.4454
  349MOL0     H46044   0.742   5.574   2.915 -0.8594  1.3530 -4.2146
  349MOL0     H46045   0.821   5.479   2.785  0.2257  0.0350 -0.5135
  349MOL0     H46046   0.836   5.717   2.735  1.7832 -0.5673 -0.8284
  349MOL0     H46047   0.868   5.759   2.903 -2.3234 -0.6441  1.5450
  349MOL0     H46048   1.108   5.695   2.858 -2.6208 -1.3714  1.0840
  349MOL0     H46049   1.063   5.776   2.709 -0.1914 -0.7096 -0.9703
  349MOL0     H46050   1.107   5.621   3.568 -0.6080  0.8382 -1.9889
  349MOL0     H46051   1.136   5.828   3.717 -0.6338 -0.1814  2.6506
  349MOL0     H46052   1.023   6.116   4.009  2.8811  0.9857 -0.0815
  349MOL0     H46053   1.066   6.329   4.118 -3.1956  0.9450  1.7696
  349MOL0     H46054   0.826   7.107   4.034 -1.6314 -1.5148 -1.6449
  349MOL0     H46055   0.578   7.060   4.077 -3.6320  0.8318 -2.8372
  349MOL0     H46056   0.048   7.388   4.192 -1.6290 -0.3770 -1.0597
  349MOL0     H46057  -0.154   7.250   4.245 -0.7585 -1.9617 -0.0437
  349MOL0     H46058  -0.076   7.108   4.535 -0.6750  1.6428  1.7774
  349MOL0     H46059  -0.089   6.933   4.519 -0.6386  0.4961  1.5236
  349MOL0     H46060  -0.254   6.993   4.679 -2.2543 -4.2899 -0.3571
  349MOL0     H46061  -0.309   7.132   4.581  0.1326 -0.0590  1.7417
  349MOL0     H46062  -0.315   6.829   4.509 -0.7718 -0.6617 -1.1645
  349MOL0     H46063  -0.405   6.932   4.413 -0.6565 -3.0467 -0.2570
  349MOL0     H46064  -0.572   6.827   4.574  0.2715  0.5969 -1.7110
  349MOL0     H46065  -0.474   6.876   4.708  2.6520 -0.7677 -0.2864
  349MOL0     H46066  -0.710   7.208   4.556 -0.8866  1.7956  4.3299
  349MOL0     H46067   0.100   6.930   4.353 -0.4825  0.7540  2.0892
  349MOL0     H46068   0.292   7.033   4.260 -0.2035  0.0012  0.6188
  350MOL0     O46069   9.934   4.228   1.063  0.9737  0.0253 -0.0096
  350MOL0     C46070   9.985   4.226   0.950 -0.0072 -0.7223 -0.9487
  350MOL0     O46071   9.940   4.155   0.847 -0.4085 -0.9281 -0.4202
  350MOL0     C46072   9.822   4.078   0.844  0.6791  0.5019  0.1129
  350MOL0     C46073   9.780   4.035   0.717  0.6263 -0.0148 -0.3079
  350MOL0     C46074   9.669   3.940   0.713 -0.3656 -0.6499  0.4459
  350MOL0     C46075   9.595   3.906   0.828  0.4534 -0.1359  0.4937
  350MOL0     O46076   9.490   3.825   0.827  0.0256 -0.4703  0.3870
  350MOL0     C46077   9.503   3.707   0.751  0.2213  0.1076 -0.5605
  350MOL0     C46078   9.362   3.647   0.753  0.1727 -0.9868 -0.6545
  350MOL0     C46079   9.345   3.519   0.673 -0.7208  0.0728 -0.7501
  350MOL0     C46080   9.350   3.548   0.516  0.5854  0.5319  0.2923
  350MOL0     C46081   9.362   3.414   0.424  0.3845  0.7324  0.7878
  350MOL0     C46082   9.477   3.331   0.485 -0.2540 -0.0111  0.2349
  350MOL0     C46083   9.563   3.246   0.382 -0.1226  0.2823 -0.0642
  350MOL0     C46084   9.495   3.168   0.274  0.0449 -0.2168  0.2817
  350MOL0     N46085   9.430   3.043   0.327 -0.1565 -0.3467 -0.1100
  350MOL0     C46086   9.295   3.031   0.306 -0.8867  0.0076 -0.0923
  350MOL0     C46087   9.284   2.908   0.365  0.9297  0.0594  0.3975
  350MOL0     C46088   9.148   2.831   0.391 -0.8906 -0.2217  0.6061
  350MOL0     C46089   9.066   2.859   0.513 -1.9714 -0.3242 -0.4123
  350MOL0     C46090   9.123   2.808   0.651 -0.4316  0.1293  0.8223
  350MOL0     C46091   9.271   2.858   0.656  0.1628  1.2044 -0.2609
  350MOL0     O46092   9.322   2.855   0.787  0.4141  0.8742  0.0622
  350MOL0     C46093   9.397   2.954   0.837 -0.0668 -0.3972 -0.3802
  350MOL0     C46094   9.334   3.051   0.905  0.0141 -0.1162 -0.2815
  350MOL0     C46095   9.419   3.137   0.971  1.1227  0.3193 -0.4292
  350MOL0     C46096   9.562   3.138   0.964  1.4183  1.2730 -0.2449
  350MOL0     C46097   9.655   3.249   1.010  0.9607 -0.3509  0.1702
  350MOL0     O46098   9.586   3.346   1.069 -0.6526 -1.0752 -0.7184
  350MOL0     C46099   9.643   3.446   1.140  0.9352 -0.5564  0.4273
  350MOL0     C46100   9.589   3.569   1.122 -0.4070 -0.5233  0.2278
  350MOL0     C46101   9.630   3.678   1.198 -0.5900 -0.6448  0.4141
  350MOL0     C46102   9.743   3.659   1.290 -0.0930  0.3735 -0.4185
  350MOL0     O46103   9.775   3.766   1.372  0.7067 -0.4074 -0.0312
  350MOL0     C46104   9.913   3.802   1.404  0.0351  0.7408  0.3814
  350MOL0     C46105   9.942   3.944   1.339 -0.1590  0.6703  0.4034
  350MOL0     C46106   9.880   4.058   1.408 -0.1068 -0.6287 -0.4949
  350MOL0     C46107   9.935   4.087   1.550 -0.3373 -0.0113 -0.0043
  350MOL0     C46108   9.874   4.224   1.600  0.4979  0.2148 -0.2557
  350MOL0     C46109   9.937   4.257   1.737 -0.3626 -0.0689  0.3007
  350MOL0     C46110   9.876   4.370   1.808 -0.0981 -0.0479 -0.4357
  350MOL0     C46111   9.931   4.396   1.949 -0.0033  0.4089  0.4805
  350MOL0    Cl46112   9.828   4.504   2.044 -0.1056 -0.0720 -0.1278
  350MOL0     C46113   9.794   3.536   1.303  0.0152  0.2139 -0.8301
  350MOL0     C46114   9.756   3.424   1.220 -0.3547 -0.8738  0.0318
  350MOL0     O46115   9.778   3.239   0.992  0.7014 -0.3428  0.5475
  350MOL0     C46116   9.614   3.043   0.875  0.5172  1.1083  0.1690
  350MOL0     C46117   9.537   2.948   0.812 -0.7546  0.4045  0.2608
  350MOL0     N46118   9.401   2.849   0.380  0.0747 -0.6300  0.1867
  350MOL0     N46119   9.496   2.926   0.358  0.2971  0.2303  0.1781
  350MOL0     C46120   9.634   3.956   0.943 -1.0163 -0.3150 -0.2960
  350MOL0     C46121   9.739   4.036   0.951  0.8923 -1.0603 -0.0969
  350MOL0     C46122  10.107   4.313   0.921 -0.1400 -1.2170  0.4492
  350MOL0     C46123  10.145   4.430   0.988 -0.3409 -0.5529  0.2033
  350MOL0     C46124  10.268   4.492   0.956  0.0409 -0.4156 -0.1812
  350MOL0     C46125  10.360   4.441   0.864  0.5057  0.1041 -0.0683
  350MOL0     O46126  10.479   4.510   0.853  0.1005  0.4253  0.3149
  350MOL0     C46127  10.589   4.455   0.770 -0.7054  0.2259  0.0782
  350MOL0     C46128  10.707   4.458   0.860 -0.5860  0.1026 -0.5743
  350MOL0     C46129  10.762   4.592   0.892 -0.2639 -0.0906  0.0764
  350MOL0     C46130  10.778   4.681   0.767  0.5723  0.6453 -0.1032
  350MOL0     C46131  10.866   4.625   0.655  0.1966  0.3343 -0.0397
  350MOL0     C46132  10.938   4.572   0.565 -0.1995 -0.6008 -1.2783
  350MOL0     C46133  10.310   4.326   0.784  0.4103 -0.9164 -0.1860
  350MOL0     C46134  10.185   4.266   0.814  0.1739 -0.5451  0.3891
  350MOL0     H46135   9.834   4.068   0.628 -0.6428  1.1739 -0.6728
  350MOL0     H46136   9.640   3.928   0.609  4.0785 -0.7213 -0.9752
  350MOL0     H46137   9.571   3.634   0.796 -1.2032  0.8758  3.1604
  350MOL0     H46138   9.528   3.735   0.648  1.7789 -1.0384 -0.5319
  350MOL0     H46139   9.297   3.729   0.721 -1.2426 -0.8725  2.1501
  350MOL0     H46140   9.345   3.608   0.854 -0.4480 -0.3277 -0.5016
  350MOL0     H46141   9.250   3.466   0.685  0.2444 -1.8954 -1.3495
  350MOL0     H46142   9.428   3.453   0.701 -1.4435  0.2840  2.2920
  350MOL0     H46143   9.247   3.582   0.497 -0.4743 -2.4760  0.0995
  350MOL0     H46144   9.422   3.626   0.490  0.9338 -0.0121 -0.4074
  350MOL0     H46145   9.390   3.449   0.324  0.2749  0.2182  0.5735
  350MOL0     H46146   9.272   3.354   0.408  0.9979 -0.2742  1.0433
  350MOL0     H46147   9.432   3.279   0.570  0.0124  0.5231  0.7105
  350MOL0     H46148   9.549   3.405   0.520 -1.1433  0.7897  0.4245
  350MOL0     H46149   9.633   3.320   0.343  0.0187  1.6328  2.4911
  350MOL0     H46150   9.642   3.190   0.433  0.5432  2.8752  2.0094
  350MOL0     H46151   9.556   3.152   0.184 -0.9579  0.1202 -0.4712
  350MOL0     H46152   9.410   3.230   0.244 -2.3000 -3.0257  0.7599
  350MOL0     H46153   9.209   3.086   0.268 -1.1231  0.1015  0.5554
  350MOL0     H46154   9.155   2.722   0.387 -0.7698 -0.1920 -0.3345
  350MOL0     H46155   9.093   2.861   0.301  1.9263 -1.7473 -1.8386
  350MOL0     H46156   8.965   2.821   0.492 -1.2273 -2.6829 -0.0381
  350MOL0     H46157   9.055   2.968   0.518 -3.4739 -0.4121 -1.2033
  350MOL0     H46158   9.083   2.863   0.736 -3.1196  0.8729 -0.7830
  350MOL0     H46159   9.121   2.701   0.674  0.9041 -0.1012  0.0162
  350MOL0     H46160   9.278   2.961   0.622 -2.8598  1.1754 -1.2425
  350MOL0     H46161   9.337   2.798   0.593 -0.5480  2.3324 -2.1500
  350MOL0     H46162   9.229   3.063   0.932  0.5313  0.9265  1.4117
  350MOL0     H46163   9.387   3.216   1.038  0.7428 -1.6495  1.8453
  350MOL0     H46164   9.508   3.586   1.051  1.2737  3.0019 -1.0633
  350MOL0     H46165   9.571   3.768   1.189 -1.9178 -1.5983 -0.6778
  350MOL0     H46166   9.977   3.728   1.355 -1.2926  0.2539 -0.6916
  350MOL0     H46167   9.927   3.795   1.512  0.9294 -0.8881  0.1861
  350MOL0     H46168   9.908   3.928   1.236  2.4527  0.6806 -0.5255
  350MOL0     H46169  10.049   3.968   1.341  0.3343 -1.2040 -0.4433
  350MOL0     H46170   9.771   4.057   1.399 -0.2360  1.7608  0.1163
  350MOL0     H46171   9.891   4.154   1.356  1.1444  0.1427  1.1114
  350MOL0     H46172   9.903   4.002   1.611  0.3582  0.1311  0.5812
  350MOL0     H46173  10.045   4.081   1.553 -0.2393 -0.9591 -2.9815
  350MOL0     H46174   9.768   4.217   1.624  0.3085 -2.6771 -1.5061
  350MOL0     H46175   9.882   4.300   1.521  1.2693  1.5601  1.0637
  350MOL0     H46176  10.037   4.296   1.720 -1.9911  3.0784 -3.6199
  350MOL0     H46177   9.945   4.170   1.803  3.0171 -3.1467 -3.6313
  350MOL0     H46178   9.889   4.461   1.748 -5.1559  0.5884 -0.9319
  350MOL0     H46179   9.770   4.347   1.818  0.5982 -4.4018 -1.0305
  350MOL0     H46180  10.020   4.455   1.930 -2.4339  3.0653 -4.4994
  350MOL0     H46181   9.956   4.301   1.998  1.0992  0.0347 -0.7413
  350MOL0     H46182   9.879   3.509   1.365  1.4105  2.5036 -1.6266
  350MOL0     H46183   9.807   3.328   1.224  0.0620 -0.6632 -0.2149
  350MOL0     H46184   9.722   3.031   0.878  0.3765 -0.3446  3.1884
  350MOL0     H46185   9.571   2.867   0.749  2.9906  2.1280 -0.1872
  350MOL0     H46186   9.581   3.923   1.032 -0.3813 -1.9624 -0.5001
  350MOL0     H46187   9.771   4.069   1.049  0.0861 -0.0261 -0.1617
  350MOL0     H46188  10.086   4.467   1.071  0.9797 -3.4445  2.5898
  350MOL0     H46189  10.283   4.584   1.012 -1.1016 -0.1900 -0.2215
  350MOL0     H46190  10.602   4.510   0.676  0.9548  0.6952  0.5556
  350MOL0     H46191  10.580   4.348   0.748 -0.4305  0.6413 -2.3033
  350MOL0     H46192  10.687   4.393   0.945  0.8632  2.3998  1.6673
  350MOL0     H46193  10.790   4.404   0.813  1.0271  0.4259  1.7539
  350MOL0     H46194  10.857   4.565   0.939 -0.9326 -2.7642  0.0791
  350MOL0     H46195  10.696   4.649   0.958 -0.0017  0.1762  0.1084
  350MOL0     H46196  10.677   4.689   0.727 -0.2449  0.5446  1.8181
  350MOL0     H46197  10.806   4.787   0.780 -0.7304  0.7059  3.0898
  350MOL0     H46198  10.997   4.519   0.493  3.6265  1.5850 -0.0525
  350MOL0     H46199  10.376   4.291   0.705 -1.2976 -0.6874 -1.7752
  350MOL0     H46200  10.148   4.183   0.756 -0.1872  1.1621 -1.9757
  351MOL0     O46201  10.898  11.415   3.501  0.4269 -0.3239  0.2744
  351MOL0     C46202  10.938  11.316   3.561  0.7216 -0.3012 -0.6048
  351MOL0     O46203  11.003  11.327   3.680  0.5654  0.6986 -0.7112
  351MOL0     C46204  11.052  11.447   3.715 -0.4186  0.0077 -0.4078
  351MOL0     C46205  11.192  11.485   3.703 -0.2326  0.3070 -0.3622
  351MOL0     C46206  11.250  11.590   3.772  0.6390 -0.1012  1.1883
  351MOL0     C46207  11.166  11.681   3.834 -0.0784  0.7132 -0.4152
  351MOL0     O46208  11.219  11.788   3.902 -0.8920 -0.6027  1.3842
  351MOL0     C46209  11.179  11.797   4.041  0.4688  1.0061 -0.8382
  351MOL0     C46210  11.264  11.894   4.118  0.9258  0.7579 -0.1625
  351MOL0     C46211  11.247  11.886   4.271 -0.9102  0.0046 -0.4120
  351MOL0     C46212  11.319  11.768   4.338 -0.2496  0.1495  0.2587
  351MOL0     C46213  11.462  11.807   4.384  0.0698  0.2957  0.1191
  351MOL0     C46214  11.443  11.881   4.517 -0.3903 -0.7126 -0.1111
  351MOL0     C46215  11.568  11.948   4.586 -0.1379 -0.5426  0.8096
  351MOL0     C46216  11.613  12.078   4.509 -0.2794  0.2288  0.5542
  351MOL0     N46217  11.671  12.185   4.597 -0.9870  0.5866 -0.6883
  351MOL0     C46218  11.787  12.181   4.663 -0.2420  0.0152  0.0923
  351MOL0     C46219  11.781  12.272   4.761 -0.0783  0.0699 -1.1493
  351MOL0     C46220  11.899  12.337   4.840  0.7694  0.9938 -0.5963
  351MOL0     C46221  11.944  12.474   4.783 -0.0618  0.0305  0.3421
  351MOL0     C46222  12.004  12.462   4.639  0.0912  0.1482 -0.3857
  351MOL0     C46223  12.042  12.602   4.582  1.1173  0.5595 -0.2028
  351MOL0     O46224  12.109  12.697   4.659  0.0560 -0.1686 -0.3157
  351MOL0     C46225  12.231  12.675   4.710  0.0820  0.4355  0.2280
  351MOL0     C46226  12.279  12.762   4.812  0.4517  0.5059  1.0144
  351MOL0     C46227  12.409  12.742   4.871 -0.0795  0.3023 -0.8347
  351MOL0     C46228  12.489  12.631   4.831  0.2889 -0.4614  0.2126
  351MOL0     C46229  12.625  12.610   4.884 -0.2473 -0.4531 -0.2386
  351MOL0     O46230  12.674  12.715   4.950 -0.4401  0.2385 -0.2836
  351MOL0     C46231  12.798  12.709   5.010 -0.4555 -0.3215 -0.7056
  351MOL0     C46232  12.921  12.687   4.944 -1.0077  0.1096  0.4668
  351MOL0     C46233  13.048  12.682   4.998 -0.3727  0.0541 -0.5831
  351MOL0     C46234  13.051  12.708   5.136  0.0058 -0.9979  0.2178
  351MOL0     O46235  13.153  12.698   5.226 -0.3562 -0.4646  0.1064
  351MOL0     C46236  13.287  12.680   5.190  0.8133 -0.1015  0.8608
  351MOL0     C46237  13.384  12.715   5.290 -0.2366  0.1636 -0.1701
  351MOL0     C46238  13.388  12.604   5.398 -0.9521  0.3529  0.3906
  351MOL0     C46239  13.271  12.614   5.500  0.2142  0.2567 -0.3245
  351MOL0     C46240  13.318  12.556   5.640 -0.0334 -1.5175  1.1135
  351MOL0     C46241  13.334  12.407   5.631 -0.7293 -0.2651  0.0005
  351MOL0     C46242  13.419  12.353   5.743  0.4189  0.2735 -0.3075
  351MOL0     C46243  13.564  12.372   5.710  0.1614  0.1293  0.8738
  351MOL0    Cl46244  13.673  12.301   5.840  0.0352  0.0664 -0.2217
  351MOL0     C46245  12.935  12.758   5.197  0.4639 -0.2341  0.7142
  351MOL0     C46246  12.811  12.749   5.137  0.1136  0.2591  0.2515
  351MOL0     O46247  12.684  12.503   4.865 -0.2953  0.2899 -0.4402
  351MOL0     C46248  12.431  12.546   4.738 -0.9009 -0.4906  0.5845
  351MOL0     C46249  12.313  12.568   4.676  0.9222  0.0530  0.4418
  351MOL0     N46250  11.656  12.323   4.774  0.1769 -0.3498 -0.6855
  351MOL0     N46251  11.596  12.274   4.669  0.3682  0.7931 -0.3028
  351MOL0     C46252  11.035  11.659   3.842  0.0445 -0.2739  0.7867
  351MOL0     C46253  10.978  11.540   3.787 -0.2288 -0.5027  0.5965
  351MOL0     C46254  10.912  11.194   3.497  0.1135 -0.0844  0.1357
  351MOL0     C46255  10.875  11.183   3.367  0.1357  0.3868 -0.5222
  351MOL0     C46256  10.859  11.049   3.314 -0.4906  0.2714 -1.0123
  351MOL0     C46257  10.863  10.936   3.389  0.4473 -0.1402 -1.1767
  351MOL0     O46258  10.836  10.800   3.352  1.4162 -0.4876  0.3330
  351MOL0     C46259  10.791  10.777   3.220  0.1583  0.1161 -0.6454
  351MOL0     C46260  10.913  10.763   3.137 -0.0431 -0.3333  1.0477
  351MOL0     C46261  10.989  10.631   3.164 -0.0250 -1.0242 -0.8656
  351MOL0     C46262  10.984  10.521   3.049 -0.6622  1.1866  0.4155
  351MOL0     C46263  10.859  10.464   3.016  0.0050 -0.3056  0.8275
  351MOL0     C46264  10.750  10.412   2.996  0.2381  0.6902 -0.5561
  351MOL0     C46265  10.893  10.954   3.530  1.0596 -0.4689 -0.2996
  351MOL0     C46266  10.917  11.077   3.577 -0.4876 -0.2965 -0.3324
  351MOL0     H46267  11.256  11.415   3.651 -0.9500 -0.4048 -0.2935
  351MOL0     H46268  11.357  11.606   3.767  0.5148  0.4606 -2.0205
  351MOL0     H46269  11.184  11.696   4.084 -3.2385  0.0848 -2.2143
  351MOL0     H46270  11.079  11.839   4.048 -0.3990 -1.0645  0.3437
  351MOL0     H46271  11.226  11.993   4.090 -1.1686  0.5277  1.5561
  351MOL0     H46272  11.362  11.875   4.074  0.1587 -0.2608 -1.5240
  351MOL0     H46273  11.143  11.876   4.303 -0.9147  0.1252 -0.3904
  351MOL0     H46274  11.280  11.984   4.306  3.1934 -1.0088 -0.8389
  351MOL0     H46275  11.262  11.724   4.421 -2.6997  1.5262 -0.5991
  351MOL0     H46276  11.324  11.696   4.256  1.3264  1.1869 -0.6197
  351MOL0     H46277  11.511  11.857   4.300 -0.4530 -0.9909 -1.0000
  351MOL0     H46278  11.525  11.719   4.400 -1.7646 -0.8801  1.1518
  351MOL0     H46279  11.408  11.818   4.600 -0.9103 -0.5898 -0.2353
  351MOL0     H46280  11.375  11.966   4.503  0.2903  0.0613  1.0803
  351MOL0     H46281  11.522  11.988   4.676 -1.1208  1.0953 -0.3660
  351MOL0     H46282  11.650  11.882   4.615  0.4836 -0.4667 -0.6707
  351MOL0     H46283  11.518  12.117   4.471  0.6842  3.0500  0.8134
  351MOL0     H46284  11.678  12.050   4.425 -0.0588 -3.7602  1.8365
  351MOL0     H46285  11.883  12.138   4.639  0.2726  0.8534  0.5867
  351MOL0     H46286  11.989  12.275   4.836  0.1214 -0.0541  0.3302
  351MOL0     H46287  11.882  12.344   4.948  2.7067  1.7786 -0.3141
  351MOL0     H46288  12.005  12.526   4.857 -2.8803  0.9819  2.1485
  351MOL0     H46289  11.850  12.527   4.769  0.6543  0.8204 -1.9784
  351MOL0     H46290  12.092  12.398   4.639 -0.8946 -1.5029 -4.1330
  351MOL0     H46291  11.932  12.408   4.576 -1.5745  4.5187 -2.6795
  351MOL0     H46292  11.942  12.641   4.559  0.2113 -1.5289  0.0132
  351MOL0     H46293  12.091  12.589   4.485 -2.6635  2.4995 -2.6301
  351MOL0     H46294  12.217  12.836   4.861 -1.2276 -0.0814 -0.1231
  351MOL0     H46295  12.435  12.803   4.957  0.5666 -0.8562 -0.1755
  351MOL0     H46296  12.925  12.657   4.840  0.3254  0.4981  0.3869
  351MOL0     H46297  13.135  12.639   4.949  1.8122  0.2695  2.8337
  351MOL0     H46298  13.306  12.747   5.105 -0.9735 -2.1562 -1.3210
  351MOL0     H46299  13.308  12.575   5.165  0.1634 -0.8670  3.2865
  351MOL0     H46300  13.362  12.810   5.340 -0.3306 -1.4619  3.1383
  351MOL0     H46301  13.483  12.715   5.244  1.2155 -3.0567  2.5839
  351MOL0     H46302  13.478  12.614   5.459 -0.3455 -1.8239 -0.0674
  351MOL0     H46303  13.385  12.505   5.352  1.2891  0.7998 -0.8299
  351MOL0     H46304  13.231  12.716   5.505  3.5879  1.6849 -0.0411
  351MOL0     H46305  13.185  12.554   5.468  2.3462 -1.8764 -2.4923
  351MOL0     H46306  13.246  12.576   5.720  1.6988 -0.1221  2.3908
  351MOL0     H46307  13.414  12.591   5.679 -1.4927 -1.3071  4.9480
  351MOL0     H46308  13.386  12.380   5.539 -0.8808 -0.9460  0.1049
  351MOL0     H46309  13.234  12.363   5.633 -1.2274  0.6861  3.8991
  351MOL0     H46310  13.394  12.396   5.841  0.6267  0.2676 -0.2526
  351MOL0     H46311  13.407  12.244   5.745 -0.3421  0.3594  0.7150
  351MOL0     H46312  13.574  12.481   5.706 -0.7664  0.2080  0.3686
  351MOL0     H46313  13.582  12.329   5.611 -1.4750 -1.5657  1.2558
  351MOL0     H46314  12.943  12.792   5.300  5.8119 -0.3538  0.6558
  351MOL0     H46315  12.725  12.791   5.187  0.8651  1.4799  0.5698
  351MOL0     H46316  12.491  12.469   4.692  1.3945  0.3128  2.0046
  351MOL0     H46317  12.270  12.496   4.608  0.4705  1.9084 -1.3420
  351MOL0     H46318  10.969  11.706   3.915 -2.3680 -0.5164 -1.1086
  351MOL0     H46319  10.872  11.517   3.798 -0.3241  0.0573  0.8762
  351MOL0     H46320  10.865  11.268   3.300 -1.8997 -0.2691 -1.1272
  351MOL0     H46321  10.839  11.044   3.207 -3.5550  1.8831 -0.6242
  351MOL0     H46322  10.718  10.852   3.187 -0.1350  0.0202 -0.2357
  351MOL0     H46323  10.732  10.685   3.232  0.3574 -0.4691 -3.5391
  351MOL0     H46324  10.897  10.772   3.029 -0.6740  2.3867  1.2802
  351MOL0     H46325  10.990  10.839   3.155 -1.1617  1.4454 -1.0310
  351MOL0     H46326  10.942  10.589   3.253  1.9411 -0.6402  0.4355
  351MOL0     H46327  11.095  10.653   3.183 -0.3700 -0.2347  0.2439
  351MOL0     H46328  11.029  10.563   2.959 -2.7295  2.8224  0.0780
  351MOL0     H46329  11.051  10.444   3.087  2.7967  3.0175 -1.5167
  351MOL0     H46330  10.667  10.348   2.978  1.9109 -0.9862 -2.9386
  351MOL0     H46331  10.902  10.868   3.596  0.5880 -0.3088 -0.0199
  351MOL0     H46332  10.934  11.101   3.682 -2.5293  0.7871 -0.1949
  352MOL0     O46333   6.364   1.386   0.025  0.2006 -1.5399 -0.3126
  352MOL0     C46334   6.243   1.377   0.049 -0.3155 -0.5907 -0.5376
  352MOL0     O46335   6.160   1.287  -0.015 -0.0380  0.2749  0.3539
  352MOL0     C46336   6.216   1.181  -0.080  0.0350 -0.2494  0.9669
  352MOL0     C46337   6.331   1.109  -0.032 -0.1070 -0.4488  0.3765
  352MOL0     C46338   6.383   1.003  -0.101  0.3363 -0.1692  1.2580
  352MOL0     C46339   6.315   0.951  -0.215 -0.1507  0.2001  0.4982
  352MOL0     O46340   6.357   0.846  -0.293 -0.2253 -0.3288 -0.3468
  352MOL0     C46341   6.491   0.781  -0.285 -0.2151  0.2322 -0.1312
  352MOL0     C46342   6.496   0.643  -0.345 -0.1478  1.2091  0.1291
  352MOL0     C46343   6.424   0.539  -0.254 -0.4523  0.4144  0.6800
  352MOL0     C46344   6.391   0.425  -0.335  0.3446  0.0271 -0.3753
  352MOL0     C46345   6.290   0.325  -0.264 -0.1827 -0.1465  0.4425
  352MOL0     C46346   6.283   0.199  -0.351  0.2384 -0.1113  0.2740
  352MOL0     C46347   6.175   0.220  -0.455  0.4535  1.1750  0.1021
  352MOL0     C46348   6.201   0.181  -0.599 -0.8568  0.3893 -0.7629
  352MOL0     N46349   6.089   0.243  -0.673  0.1280 -0.1253 -0.0619
  352MOL0     C46350   5.961   0.200  -0.695 -0.9293  0.3087 -0.6780
  352MOL0     C46351   5.905   0.282  -0.785  0.2163  0.1541 -0.4296
  352MOL0     C46352   5.765   0.279  -0.840  0.6593 -0.1929 -0.0223
  352MOL0     C46353   5.699   0.410  -0.799 -0.3920  0.5353 -0.9343
  352MOL0     C46354   5.599   0.384  -0.679 -0.5919  0.1140 -0.0197
  352MOL0     C46355   5.559   0.497  -0.596 -0.1027 -1.7120  0.1204
  352MOL0     O46356   5.484   0.594  -0.676  0.1602  0.3551  0.8879
  352MOL0     C46357   5.474   0.709  -0.616 -0.1106 -0.6344 -0.7692
  352MOL0     C46358   5.556   0.820  -0.651 -0.6902  0.5079 -0.0767
  352MOL0     C46359   5.538   0.946  -0.585  0.0463 -0.8420 -0.0424
  352MOL0     C46360   5.438   0.969  -0.490  0.5466 -0.2355 -0.5144
  352MOL0     C46361   5.417   1.092  -0.424  0.0394 -0.5498  0.8826
  352MOL0     O46362   5.349   1.084  -0.308 -0.0205 -1.0228  0.0538
  352MOL0     C46363   5.305   1.205  -0.263 -0.1214 -0.2313  0.1272
  352MOL0     C46364   5.195   1.289  -0.305  0.6372 -0.1613  0.2402
  352MOL0     C46365   5.144   1.400  -0.226  1.0903 -0.3799 -0.5545
  352MOL0     C46366   5.207   1.437  -0.110 -0.4853 -0.1878 -0.3605
  352MOL0     O46367   5.154   1.545  -0.046 -0.0163  0.5894 -0.5909
  352MOL0     C46368   5.242   1.603   0.047 -0.9161  0.2114 -0.0449
  352MOL0     C46369   5.204   1.751   0.084 -1.0905 -0.7683 -0.4006
  352MOL0     C46370   5.062   1.762   0.141 -0.1196  0.5058  0.4054
  352MOL0     C46371   5.021   1.910   0.166  0.0182  0.1186  0.4441
  352MOL0     C46372   4.994   1.967   0.034  0.2693  1.2036 -0.3741
  352MOL0     C46373   5.014   2.119   0.047  0.9184 -0.4437  0.9311
  352MOL0     C46374   4.976   2.188  -0.092 -0.1586  0.4235 -0.6324
  352MOL0     C46375   5.030   2.328  -0.102 -0.3375 -0.5642  0.4895
  352MOL0    Cl46376   4.948   2.424   0.025  0.1222  0.0332  0.1373
  352MOL0     C46377   5.319   1.364  -0.071 -0.5413 -0.1144  0.5503
  352MOL0     C46378   5.367   1.252  -0.142 -0.5350  0.4534 -0.1792
  352MOL0     O46379   5.486   1.184  -0.462 -0.0125  0.0483 -0.1727
  352MOL0     C46380   5.346   0.863  -0.469 -0.5300  0.2030 -0.0411
  352MOL0     C46381   5.369   0.739  -0.522 -0.3633  0.6954 -0.3644
  352MOL0     N46382   5.985   0.381  -0.812 -1.2334  0.0315  0.3647
  352MOL0     N46383   6.092   0.359  -0.748 -0.0521  0.0110 -0.5865
  352MOL0     C46384   6.199   1.019  -0.251  0.2942 -0.5415 -0.0884
  352MOL0     C46385   6.156   1.133  -0.191 -0.8994 -0.7208  0.7115
  352MOL0     C46386   6.187   1.450   0.164  0.2040 -0.3028  0.2089
  352MOL0     C46387   6.052   1.464   0.180  0.6765 -0.1794 -0.5105
  352MOL0     C46388   5.996   1.540   0.286 -0.2862 -0.6021  0.0256
  352MOL0     C46389   6.086   1.605   0.385  0.4198 -0.3478  0.7573
  352MOL0     O46390   6.044   1.674   0.496  0.4710  0.2817  0.4435
  352MOL0     C46391   5.894   1.704   0.511 -0.5255 -0.2097 -0.1469
  352MOL0     C46392   5.817   1.644   0.623 -0.5060  0.2483  0.8434
  352MOL0     C46393   5.838   1.698   0.768  0.2455 -0.1317 -0.6435
  352MOL0     C46394   5.730   1.808   0.811 -0.5850  0.1488  0.4743
  352MOL0     C46395   5.742   1.930   0.715  0.5174 -1.1127 -0.2459
  352MOL0     C46396   5.731   2.005   0.619  0.3909  0.4432  0.7803
  352MOL0     C46397   6.224   1.589   0.371 -0.3299  0.5489  1.0317
  352MOL0     C46398   6.270   1.511   0.266  0.3285 -0.1526  0.0781
  352MOL0     H46399   6.380   1.142   0.059 -1.0678  0.1404  0.6910
  352MOL0     H46400   6.477   0.962  -0.065  1.3564 -0.5193 -1.5102
  352MOL0     H46401   6.522   0.768  -0.181  1.6830 -0.0676 -0.7012
  352MOL0     H46402   6.557   0.857  -0.328 -1.3341  1.3339  0.0398
  352MOL0     H46403   6.589   0.608  -0.392 -2.2873 -3.7817 -1.0649
  352MOL0     H46404   6.432   0.652  -0.433  0.8556  1.1204 -0.6288
  352MOL0     H46405   6.331   0.584  -0.217 -1.9855 -1.5739 -0.5586
  352MOL0     H46406   6.483   0.509  -0.167  1.6745  0.6868 -0.5767
  352MOL0     H46407   6.344   0.462  -0.426  1.3810 -0.8312 -1.2748
  352MOL0     H46408   6.480   0.369  -0.364  0.1757 -1.5083  1.7938
  352MOL0     H46409   6.195   0.376  -0.244 -0.0999  0.1456  0.1105
  352MOL0     H46410   6.337   0.287  -0.173 -1.2103 -1.9689  0.2624
  352MOL0     H46411   6.252   0.109  -0.297  1.7769 -1.7688 -1.4817
  352MOL0     H46412   6.374   0.176  -0.406  0.7196 -3.3750  2.1224
  352MOL0     H46413   6.084   0.168  -0.423  1.4975 -2.2169 -1.9120
  352MOL0     H46414   6.144   0.324  -0.460 -0.0419  0.9726 -1.3172
  352MOL0     H46415   6.199   0.073  -0.618  1.7875 -0.0408  0.8872
  352MOL0     H46416   6.304   0.215  -0.614  0.0942  0.2143  3.8750
  352MOL0     H46417   5.908   0.117  -0.649  0.8573 -1.1204 -1.0613
  352MOL0     H46418   5.716   0.189  -0.800  1.6702 -0.6784  0.1688
  352MOL0     H46419   5.776   0.278  -0.949  1.0655  1.6006 -0.0160
  352MOL0     H46420   5.635   0.432  -0.885 -0.7432 -2.7185 -1.6348
  352MOL0     H46421   5.775   0.483  -0.769 -1.0290  0.5042  0.8751
  352MOL0     H46422   5.512   0.347  -0.733 -0.6101  0.2414 -0.0797
  352MOL0     H46423   5.635   0.305  -0.613  0.5468  1.1551  0.6592
  352MOL0     H46424   5.643   0.545  -0.545 -2.6967  0.3864  2.7704
  352MOL0     H46425   5.478   0.471  -0.528 -3.1563  1.2060 -2.0226
  352MOL0     H46426   5.648   0.803  -0.706  1.5171  3.2157  2.4330
  352MOL0     H46427   5.610   1.027  -0.599 -1.2455  0.4046  0.2538
  352MOL0     H46428   5.150   1.265  -0.400 -1.5458 -0.7130  1.3639
  352MOL0     H46429   5.059   1.460  -0.257  0.0331 -1.8755 -0.6147
  352MOL0     H46430   5.347   1.607   0.018 -0.6577 -2.3220  0.3940
  352MOL0     H46431   5.243   1.543   0.138  0.3566  1.9424  1.1451
  352MOL0     H46432   5.214   1.807  -0.010 -2.1045  1.4314  0.7258
  352MOL0     H46433   5.282   1.793   0.149 -0.1120  0.2694 -2.1614
  352MOL0     H46434   5.060   1.705   0.235 -2.4788  0.6452  0.5122
  352MOL0     H46435   5.000   1.721   0.061  1.4240  2.7014 -2.0771
  352MOL0     H46436   4.927   1.921   0.221 -1.5544 -0.8293 -1.8925
  352MOL0     H46437   5.103   1.968   0.210 -1.3724  1.2955  1.5978
  352MOL0     H46438   4.895   1.934   0.000 -0.2600  0.1264  1.9823
  352MOL0     H46439   5.070   1.935  -0.038 -0.1377 -2.1055  0.4864
  352MOL0     H46440   5.117   2.143   0.075  0.9316  1.5848 -0.5995
  352MOL0     H46441   4.961   2.162   0.133  0.2264 -0.3559  0.4670
  352MOL0     H46442   5.020   2.127  -0.172 -2.1229  0.7218 -2.0087
  352MOL0     H46443   4.870   2.187  -0.118 -0.0521 -1.4523 -1.1246
  352MOL0     H46444   5.015   2.364  -0.204  0.0054 -3.1097 -0.5457
  352MOL0     H46445   5.137   2.319  -0.083 -0.9938 -1.9011  4.7030
  352MOL0     H46446   5.387   1.400   0.006 -1.7874  0.2757  1.5170
  352MOL0     H46447   5.450   1.206  -0.089  0.4054  1.4021 -0.7834
  352MOL0     H46448   5.253   0.872  -0.414 -0.4638 -2.4326  0.6647
  352MOL0     H46449   5.293   0.664  -0.505  0.4530  0.2002  1.1838
  352MOL0     H46450   6.141   0.971  -0.329 -0.8222  1.6109 -0.6555
  352MOL0     H46451   6.063   1.175  -0.226 -0.8205 -1.7115 -0.7319
  352MOL0     H46452   5.979   1.425   0.110  1.2552  0.2630 -1.3813
  352MOL0     H46453   5.888   1.545   0.291 -0.1942  0.6405  1.3678
  352MOL0     H46454   5.845   1.684   0.415 -0.6511 -0.8126  0.0397
  352MOL0     H46455   5.873   1.811   0.515 -1.6424 -0.3519 -1.3226
  352MOL0     H46456   5.713   1.651   0.593 -0.7538  0.3977  1.7156
  352MOL0     H46457   5.835   1.536   0.628  0.5043  0.0930 -3.0776
  352MOL0     H46458   5.940   1.732   0.790  1.7287 -0.2620 -5.9319
  352MOL0     H46459   5.814   1.613   0.833 -0.1989  0.3032 -0.2315
  352MOL0     H46460   5.629   1.768   0.819 -0.5812 -0.0482 -0.3866
  352MOL0     H46461   5.763   1.852   0.906  2.7409  0.5356 -0.7331
  352MOL0     H46462   5.720   2.062   0.529  0.0659 -0.4807  0.2226
  352MOL0     H46463   6.303   1.633   0.431  1.5673  1.9024 -2.2288
  352MOL0     H46464   6.377   1.498   0.250  0.3837 -2.4695  1.8728
  353MOL0     O46465   6.612  10.923   4.508 -0.1523 -0.5861 -0.2327
  353MOL0     C46466   6.609  10.997   4.612  0.2666  0.3247  0.2872
  353MOL0     O46467   6.692  11.099   4.628  0.0517  0.3554 -0.0229
  353MOL0     C46468   6.783  11.128   4.523 -0.4223 -0.2392 -0.0180
  353MOL0     C46469   6.784  11.261   4.478 -0.4119  1.1198 -0.4373
  353MOL0     C46470   6.881  11.290   4.379 -0.3374  0.4238 -0.1183
  353MOL0     C46471   6.988  11.195   4.349  0.3475 -1.8994 -0.9725
  353MOL0     O46472   7.085  11.236   4.255 -0.5573  0.4082 -0.4761
  353MOL0     C46473   7.212  11.185   4.261  0.4494 -0.2942 -0.0854
  353MOL0     C46474   7.309  11.286   4.335 -0.5475  0.4783 -0.8898
  353MOL0     C46475   7.460  11.247   4.336  0.1392  0.8840  0.1409
  353MOL0     C46476   7.508  11.241   4.194 -0.2057 -0.1993 -0.3687
  353MOL0     C46477   7.662  11.227   4.176  0.5654  0.3273  0.4756
  353MOL0     C46478   7.735  11.122   4.262  0.7612  0.6557  0.1204
  353MOL0     C46479   7.868  11.083   4.189 -0.0065  0.6493 -0.4523
  353MOL0     C46480   7.933  10.972   4.270 -0.0333  0.2738  0.7177
  353MOL0     N46481   8.058  10.938   4.204  0.4868 -0.5223 -0.1569
  353MOL0     C46482   8.172  11.015   4.226 -0.1836  0.5947 -0.2321
  353MOL0     C46483   8.261  10.949   4.149 -1.1163 -0.8016 -1.0125
  353MOL0     C46484   8.412  10.978   4.149  0.6341 -0.5867 -0.3431
  353MOL0     C46485   8.441  11.125   4.137 -0.7214 -0.6122  0.5091
  353MOL0     C46486   8.416  11.174   4.001 -0.2503  0.7707 -0.4735
  353MOL0     C46487   8.428  11.321   3.992 -0.0912  0.3280  0.4880
  353MOL0     O46488   8.385  11.366   3.866  0.0261 -0.3043 -0.1115
  353MOL0     C46489   8.258  11.413   3.845 -0.0822  1.0761 -0.5522
  353MOL0     C46490   8.149  11.377   3.923  0.6587 -0.3061 -0.3813
  353MOL0     C46491   8.018  11.409   3.875  0.1478  0.0495  1.2026
  353MOL0     C46492   7.989  11.492   3.755  0.6587 -0.4836  0.1668
  353MOL0     C46493   7.857  11.522   3.706  0.2522 -1.4129  0.0068
  353MOL0     O46494   7.760  11.428   3.725 -0.5768  0.0136 -0.4389
  353MOL0     C46495   7.623  11.446   3.703  0.3845 -0.7871 -0.5439
  353MOL0     C46496   7.569  11.540   3.611  1.3734 -1.1519 -0.6489
  353MOL0     C46497   7.433  11.557   3.607  0.1625  0.3418 -0.7467
  353MOL0     C46498   7.344  11.468   3.674 -0.3186 -0.4689 -0.0599
  353MOL0     O46499   7.208  11.481   3.668  0.8228 -0.1233  0.2469
  353MOL0     C46500   7.148  11.598   3.618  0.6065 -1.0629 -0.3165
  353MOL0     C46501   6.996  11.592   3.633 -0.1234 -0.1913 -0.1472
  353MOL0     C46502   6.919  11.536   3.513 -0.6614  0.4949 -0.3634
  353MOL0     C46503   6.764  11.570   3.510 -0.5693 -0.0669  0.5948
  353MOL0     C46504   6.696  11.491   3.403 -0.2985 -0.4778  0.2598
  353MOL0     C46505   6.694  11.566   3.264  0.8692 -0.2122 -0.1686
  353MOL0     C46506   6.658  11.467   3.148  0.6285  0.3242  0.6558
  353MOL0     C46507   6.644  11.545   3.017  0.6640 -0.3503  0.0851
  353MOL0    Cl46508   6.799  11.633   2.989 -0.0533 -0.0321  0.0632
  353MOL0     C46509   7.397  11.373   3.752 -0.7042 -1.1755 -0.5845
  353MOL0     C46510   7.540  11.361   3.766  0.0645 -0.1117  0.1363
  353MOL0     O46511   7.833  11.632   3.653 -0.7458  0.9234 -0.1051
  353MOL0     C46512   8.109  11.522   3.676 -0.4140  1.2690 -0.9320
  353MOL0     C46513   8.234  11.484   3.724 -0.5155  0.6560 -0.2460
  353MOL0     N46514   8.202  10.836   4.090  0.0933 -0.7518  0.1752
  353MOL0     N46515   8.083  10.833   4.120  0.8355 -0.4219  0.3049
  353MOL0     C46516   6.984  11.069   4.403 -0.5276  0.4706 -0.2484
  353MOL0     C46517   6.882  11.034   4.489 -0.6652  0.5491  0.2817
  353MOL0     C46518   6.518  10.960   4.724  1.3103 -0.4310 -0.1085
  353MOL0     C46519   6.538  11.016   4.848 -0.0340 -0.6169  0.3476
  353MOL0     C46520   6.456  10.992   4.955  0.3074  0.9105 -0.0253
  353MOL0     C46521   6.336  10.919   4.940  0.1209 -0.2515  0.0722
  353MOL0     O46522   6.263  10.889   5.050  0.3092 -0.5027 -0.8537
  353MOL0     C46523   6.280  10.752   5.082 -0.1583  0.5346  0.0132
  353MOL0     C46524   6.176  10.723   5.197 -0.3285 -0.0913  0.2876
  353MOL0     C46525   6.197  10.816   5.312 -0.0994  0.9652  0.1656
  353MOL0     C46526   6.085  10.786   5.414 -0.1671 -0.5003 -0.4938
  353MOL0     C46527   6.120  10.850   5.545 -0.3431  0.4127  0.3721
  353MOL0     C46528   6.153  10.893   5.661  0.1021  0.3231  0.5054
  353MOL0     C46529   6.307  10.869   4.819 -1.5655  0.0630  0.2900
  353MOL0     C46530   6.396  10.884   4.706 -0.5435 -0.3460  0.2339
  353MOL0     H46531   6.715  11.342   4.498  0.4997  1.8696 -0.2678
  353MOL0     H46532   6.878  11.390   4.337  0.4139  0.1627 -0.8283
  353MOL0     H46533   7.249  11.158   4.162 -0.2484  0.4054 -0.5389
  353MOL0     H46534   7.221  11.102   4.332  0.3760 -0.2093  0.0226
  353MOL0     H46535   7.276  11.299   4.439  1.8071 -1.1635  0.1435
  353MOL0     H46536   7.293  11.382   4.284 -4.5217 -1.4740 -3.8315
  353MOL0     H46537   7.473  11.157   4.397 -1.1542  1.3594  1.1543
  353MOL0     H46538   7.523  11.326   4.377 -1.1507  3.4541 -2.4710
  353MOL0     H46539   7.456  11.153   4.156 -1.3863 -0.2379  1.2310
  353MOL0     H46540   7.473  11.329   4.139  2.1897 -0.0327 -1.7454
  353MOL0     H46541   7.699  11.326   4.203 -2.6537  2.0476 -0.8386
  353MOL0     H46542   7.678  11.219   4.068 -2.8564  0.2442 -0.1447
  353MOL0     H46543   7.659  11.045   4.276 -1.0754  2.7394  2.7783
  353MOL0     H46544   7.756  11.162   4.362  0.6941 -0.5472  0.6364
  353MOL0     H46545   7.850  11.040   4.090  2.4651 -0.6800 -0.4000
  353MOL0     H46546   7.932  11.171   4.177  0.5071  0.7075  2.0895
  353MOL0     H46547   7.864  10.889   4.291  2.0509 -1.1377  2.3888
  353MOL0     H46548   7.957  11.010   4.370 -1.1142  0.2488  1.0034
  353MOL0     H46549   8.180  11.106   4.284  0.7317  0.5286 -0.2474
  353MOL0     H46550   8.452  10.918   4.067  0.5891  0.6638 -1.3064
  353MOL0     H46551   8.467  10.938   4.235 -1.8272 -0.3279  1.4932
  353MOL0     H46552   8.548  11.137   4.155 -0.2275 -2.9398 -0.4226
  353MOL0     H46553   8.377  11.174   4.211  1.5679  0.7010  1.7254
  353MOL0     H46554   8.487  11.122   3.936 -1.5439 -1.6415 -0.0557
  353MOL0     H46555   8.315  11.144   3.971 -0.7488  2.5440 -0.6761
  353MOL0     H46556   8.533  11.344   4.013 -0.0767  2.1452 -1.2648
  353MOL0     H46557   8.366  11.374   4.065 -0.3783  1.2406 -0.3967
  353MOL0     H46558   8.152  11.316   4.013 -1.0884  0.8618  0.5258
  353MOL0     H46559   7.933  11.361   3.922  0.5343 -1.6993  0.1698
  353MOL0     H46560   7.623  11.608   3.546  0.1185 -1.3441 -1.9526
  353MOL0     H46561   7.397  11.633   3.539  1.9646 -0.8260 -3.1637
  353MOL0     H46562   7.178  11.620   3.515 -0.4797  0.0675 -0.4201
  353MOL0     H46563   7.178  11.677   3.688 -0.8513 -2.5470  2.1177
  353MOL0     H46564   6.963  11.696   3.646  1.8945  0.3040  1.5266
  353MOL0     H46565   6.968  11.545   3.727  0.5020 -0.6051 -0.1624
  353MOL0     H46566   6.942  11.430   3.523  0.7794  0.8220  0.0352
  353MOL0     H46567   6.968  11.569   3.420  0.6932 -1.1638 -0.2833
  353MOL0     H46568   6.728  11.544   3.610 -0.0431 -0.3678  0.7087
  353MOL0     H46569   6.758  11.678   3.495 -0.4680  0.2108  2.3369
  353MOL0     H46570   6.597  11.465   3.442  0.7804  0.2116  3.8539
  353MOL0     H46571   6.752  11.398   3.397 -1.9366 -1.4521 -0.5385
  353MOL0     H46572   6.793  11.605   3.241  0.2561 -0.1488 -3.1415
  353MOL0     H46573   6.624  11.649   3.279 -1.9599 -2.6834  1.6499
  353MOL0     H46574   6.729  11.384   3.139 -0.4605 -1.4170  5.1326
  353MOL0     H46575   6.565  11.414   3.168  0.7907  0.2757  1.3119
  353MOL0     H46576   6.560  11.614   3.022  0.3446 -0.6734 -0.5591
  353MOL0     H46577   6.620  11.487   2.927 -1.1673  1.2526 -0.5112
  353MOL0     H46578   7.329  11.305   3.803 -2.6029  1.2475  0.3338
  353MOL0     H46579   7.570  11.287   3.838 -1.6502 -0.4031  0.6071
  353MOL0     H46580   8.095  11.567   3.578 -4.0110 -2.2546 -2.2914
  353MOL0     H46581   8.314  11.497   3.653  0.0950  0.8534  0.4599
  353MOL0     H46582   7.053  10.994   4.368  0.4036  1.4490 -0.5745
  353MOL0     H46583   6.881  10.937   4.537  1.9600 -0.3731 -1.3262
  353MOL0     H46584   6.628  11.073   4.867 -1.7216  2.2893  0.2897
  353MOL0     H46585   6.486  11.022   5.055 -1.9646 -0.1377  1.0228
  353MOL0     H46586   6.380  10.729   5.119 -0.1009 -0.7042 -0.8408
  353MOL0     H46587   6.259  10.679   5.004 -1.8848 -1.9660  2.5848
  353MOL0     H46588   6.072  10.732   5.166 -0.1743 -1.2868 -0.6572
  353MOL0     H46589   6.177  10.616   5.223  0.2812  0.4450  2.7216
  353MOL0     H46590   6.183  10.921   5.286  0.3390  1.0569  0.2787
  353MOL0     H46591   6.297  10.794   5.352 -0.5673 -0.4642  0.5985
  353MOL0     H46592   5.986  10.822   5.385 -0.4592  0.2406  1.3119
  353MOL0     H46593   6.069  10.684   5.447 -1.2716 -0.2976 -0.3830
  353MOL0     H46594   6.185  10.914   5.761  0.2069  0.1352  0.5118
  353MOL0     H46595   6.211  10.821   4.804 -2.0173  1.2383 -0.7604
  353MOL0     H46596   6.356  10.844   4.613  1.7243  1.4581 -1.6333
  354MOL0     O46597   6.355   0.587   1.199  0.5383  0.0742 -0.0912
  354MOL0     C46598   6.443   0.601   1.288  1.5222 -0.2837  0.8651
  354MOL0     O46599   6.464   0.510   1.386  0.5515 -0.2292  0.0929
  354MOL0     C46600   6.497   0.391   1.343  0.4668 -0.2462  0.1637
  354MOL0     C46601   6.400   0.293   1.317 -1.0254  1.0540  0.4997
  354MOL0     C46602   6.438   0.173   1.259 -0.4608  0.6478  0.2718
  354MOL0     C46603   6.566   0.154   1.209  0.4293  0.5017 -0.5921
  354MOL0     O46604   6.589   0.042   1.136  0.2677  0.0682  0.3800
  354MOL0     C46605   6.685  -0.041   1.196  1.1325  0.5141 -0.5310
  354MOL0     C46606   6.614  -0.099   1.327 -0.9354  0.9580 -0.4462
  354MOL0     C46607   6.473  -0.150   1.304 -0.4723 -0.4809  0.2461
  354MOL0     C46608   6.485  -0.289   1.236  0.8608  0.0897 -0.7858
  354MOL0     C46609   6.341  -0.336   1.217 -0.9788  0.5094  0.2940
  354MOL0     C46610   6.261  -0.344   1.352 -0.3149 -0.2700  0.5359
  354MOL0     C46611   6.127  -0.420   1.328  1.0824  0.6543  0.4025
  354MOL0     C46612   6.060  -0.454   1.460 -0.1668 -0.7719  0.3860
  354MOL0     N46613   5.930  -0.523   1.449  0.7764  0.5208 -0.3161
  354MOL0     C46614   5.897  -0.636   1.527 -0.0225 -0.4619  0.3503
  354MOL0     C46615   5.766  -0.658   1.484 -0.2718 -0.6985 -0.9093
  354MOL0     C46616   5.666  -0.761   1.535  1.1694 -0.4936  0.7364
  354MOL0     C46617   5.616  -0.729   1.676 -0.0290 -0.9085 -0.1358
  354MOL0     C46618   5.536  -0.839   1.749 -1.4533 -0.6497  0.4072
  354MOL0     C46619   5.412  -0.872   1.667  0.2552 -0.1201  0.0924
  354MOL0     O46620   5.338  -0.959   1.758 -0.3805  0.0567 -0.2385
  354MOL0     C46621   5.226  -1.022   1.723  0.9498  0.1006  0.6113
  354MOL0     C46622   5.168  -1.098   1.825  0.5193  0.3719 -0.5719
  354MOL0     C46623   5.054  -1.180   1.806  0.4579  0.6911 -0.4575
  354MOL0     C46624   4.993  -1.193   1.678  0.4838 -0.2165 -1.1791
  354MOL0     C46625   4.872  -1.261   1.663  0.2370 -0.2851  0.5284
  354MOL0     O46626   4.804  -1.293   1.780  0.1935 -0.1984  0.2829
  354MOL0     C46627   4.678  -1.347   1.766 -0.2908  0.2838  0.0219
  354MOL0     C46628   4.555  -1.285   1.806 -0.1488 -1.3332  0.2711
  354MOL0     C46629   4.436  -1.355   1.819 -0.5230  0.3651 -0.0746
  354MOL0     C46630   4.432  -1.488   1.771  0.2224  0.4742  0.2660
  354MOL0     O46631   4.311  -1.545   1.792 -0.0558  0.5256 -0.3276
  354MOL0     C46632   4.265  -1.627   1.681  0.0446  0.6523  0.7108
  354MOL0     C46633   4.126  -1.683   1.711  0.7118  0.8937 -0.5301
  354MOL0     C46634   4.018  -1.574   1.711  0.3915  0.3742  0.5999
  354MOL0     C46635   3.876  -1.618   1.679 -0.0627 -0.0175 -0.1920
  354MOL0     C46636   3.778  -1.502   1.703 -1.2199 -0.8457  0.2463
  354MOL0     C46637   3.628  -1.539   1.702 -0.6745  1.1101 -0.2153
  354MOL0     C46638   3.592  -1.618   1.832  0.2613  0.3331 -0.6365
  354MOL0     C46639   3.622  -1.565   1.972  0.5345  0.1112 -0.7896
  354MOL0    Cl46640   3.543  -1.408   1.980 -0.2877 -0.2533 -0.1343
  354MOL0     C46641   4.548  -1.549   1.725  0.5327 -0.4176 -0.1220
  354MOL0     C46642   4.666  -1.474   1.725  0.1402  0.8652  0.0301
  354MOL0     O46643   4.827  -1.282   1.547 -0.2639  0.5147 -0.9845
  354MOL0     C46644   5.055  -1.127   1.573 -0.1807 -0.0518  0.2414
  354MOL0     C46645   5.168  -1.049   1.587 -0.7239  0.2669 -0.2217
  354MOL0     N46646   5.721  -0.547   1.419  0.4221  0.1069  0.6883
  354MOL0     N46647   5.822  -0.473   1.382  0.1927  0.6779 -0.9254
  354MOL0     C46648   6.658   0.254   1.232  0.0085  0.2939 -0.4435
  354MOL0     C46649   6.626   0.376   1.287 -0.5631 -0.0668  0.1380
  354MOL0     C46650   6.503   0.734   1.302  1.3793 -0.3662  0.2185
  354MOL0     C46651   6.449   0.853   1.244  0.0231 -0.2568  0.5566
  354MOL0     C46652   6.507   0.977   1.278 -0.1387 -0.2740  0.1970
  354MOL0     C46653   6.621   0.997   1.353 -0.8380  0.6202  0.9634
  354MOL0     O46654   6.678   1.122   1.365 -0.4664  0.3650 -0.1000
  354MOL0     C46655   6.773   1.144   1.478 -0.1951 -0.3626  0.2459
  354MOL0     C46656   6.808   1.291   1.467  0.7952 -1.1596 -0.2330
  354MOL0     C46657   6.887   1.341   1.579 -0.8397  0.8279 -0.5501
  354MOL0     C46658   6.889   1.490   1.590  0.0720  0.4461 -0.0975
  354MOL0     C46659   6.971   1.551   1.487 -0.3745  0.0714 -0.1754
  354MOL0     C46660   7.024   1.604   1.385 -0.2822 -0.7390 -1.4991
  354MOL0     C46661   6.681   0.875   1.401 -0.7566 -0.3992 -0.9522
  354MOL0     C46662   6.618   0.749   1.382 -0.5445 -0.3409 -0.9716
  354MOL0     H46663   6.296   0.321   1.334 -1.4007 -0.7787  1.4063
  354MOL0     H46664   6.357   0.103   1.249 -1.1023  1.6801 -2.6970
  354MOL0     H46665   6.775   0.009   1.231  0.8296 -1.6131  4.0604
  354MOL0     H46666   6.712  -0.119   1.124  1.6382 -1.4608  1.6366
  354MOL0     H46667   6.618  -0.024   1.406 -1.7587 -1.0453  1.5879
  354MOL0     H46668   6.669  -0.187   1.363 -0.5211  1.5822  0.4666
  354MOL0     H46669   6.418  -0.087   1.234  0.8119  0.3608 -0.0333
  354MOL0     H46670   6.427  -0.149   1.403  0.7133 -1.1027  0.8261
  354MOL0     H46671   6.512  -0.275   1.131 -1.3518 -3.9381 -2.0922
  354MOL0     H46672   6.550  -0.351   1.298  0.4761  0.3687 -0.0871
  354MOL0     H46673   6.336  -0.441   1.184 -3.6728  1.2162 -1.9183
  354MOL0     H46674   6.295  -0.277   1.138  1.6415 -0.9563 -2.5183
  354MOL0     H46675   6.250  -0.248   1.402  0.4359  0.0536  0.0958
  354MOL0     H46676   6.325  -0.400   1.420  1.0589 -0.1563 -0.6124
  354MOL0     H46677   6.073  -0.339   1.277 -1.9435 -1.9836 -0.9016
  354MOL0     H46678   6.138  -0.509   1.265  3.9844  1.5991 -0.6002
  354MOL0     H46679   6.035  -0.357   1.504  0.5897  1.0717 -2.9052
  354MOL0     H46680   6.133  -0.517   1.511  2.4474  0.5365 -1.5369
  354MOL0     H46681   5.958  -0.691   1.597 -3.3438 -0.8835  3.1753
  354MOL0     H46682   5.692  -0.867   1.525 -1.3868 -0.9638 -3.0007
  354MOL0     H46683   5.585  -0.746   1.462  0.6631  2.1383  1.7160
  354MOL0     H46684   5.555  -0.638   1.675 -0.1676 -0.9691  1.0404
  354MOL0     H46685   5.699  -0.711   1.745 -1.7561 -1.1792  2.1514
  354MOL0     H46686   5.591  -0.929   1.775  1.2798  0.8081  0.0084
  354MOL0     H46687   5.504  -0.801   1.847  1.0027 -0.6933  1.2870
  354MOL0     H46688   5.438  -0.925   1.575  0.5351  2.1410 -1.2147
  354MOL0     H46689   5.351  -0.785   1.643 -0.6139 -1.4255 -2.7756
  354MOL0     H46690   5.218  -1.098   1.921 -0.9238  1.6518  0.2296
  354MOL0     H46691   5.009  -1.238   1.887  1.8104 -1.3196 -1.0504
  354MOL0     H46692   4.569  -1.186   1.849 -0.6071 -1.3933  0.5696
  354MOL0     H46693   4.350  -1.314   1.871  0.4373  1.4303  0.7211
  354MOL0     H46694   4.338  -1.708   1.674  0.5563  0.8924  2.7129
  354MOL0     H46695   4.255  -1.581   1.582 -0.4757  1.2508  1.0332
  354MOL0     H46696   4.118  -1.737   1.806 -0.4629  2.5534  0.3745
  354MOL0     H46697   4.124  -1.754   1.628  4.9847 -0.1869  0.0215
  354MOL0     H46698   4.035  -1.496   1.636 -0.7143  1.1668  1.1505
  354MOL0     H46699   4.026  -1.535   1.813 -0.7334  2.5128 -0.0943
  354MOL0     H46700   3.864  -1.655   1.577 -2.1680  4.1816 -1.6952
  354MOL0     H46701   3.839  -1.701   1.740  1.1438 -0.2487  0.2608
  354MOL0     H46702   3.771  -1.434   1.618  0.9347 -2.2400 -1.1529
  354MOL0     H46703   3.805  -1.441   1.790  2.5954 -0.6604 -0.8842
  354MOL0     H46704   3.595  -1.601   1.618 -2.0460 -2.9871  3.0033
  354MOL0     H46705   3.565  -1.449   1.700 -1.4911  0.5353 -2.3324
  354MOL0     H46706   3.486  -1.641   1.819  0.3803  0.6954 -2.6032
  354MOL0     H46707   3.637  -1.718   1.837  1.0561  0.6102 -1.7752
  354MOL0     H46708   3.731  -1.561   1.983  0.4584 -1.9296  1.3140
  354MOL0     H46709   3.574  -1.624   2.051  3.5917  0.6861  1.7071
  354MOL0     H46710   4.541  -1.654   1.698 -0.1831 -0.5634  0.6025
  354MOL0     H46711   4.760  -1.519   1.695 -0.4130  1.0228 -2.0786
  354MOL0     H46712   5.011  -1.135   1.474 -1.5810 -0.3222  0.8560
  354MOL0     H46713   5.200  -1.005   1.494 -0.4854 -0.9155 -0.7160
  354MOL0     H46714   6.753   0.232   1.184 -0.4852 -1.6977 -0.6331
  354MOL0     H46715   6.700   0.456   1.285  1.5112 -1.9172 -0.2926
  354MOL0     H46716   6.368   0.851   1.172  0.7630 -1.0553 -0.2886
  354MOL0     H46717   6.451   1.060   1.234 -2.1649 -0.6783  1.8467
  354MOL0     H46718   6.862   1.081   1.487  0.4395  0.6630  1.6599
  354MOL0     H46719   6.708   1.119   1.563 -1.0706 -3.4794 -1.1960
  354MOL0     H46720   6.858   1.311   1.372  1.5343 -4.3113 -0.6174
  354MOL0     H46721   6.716   1.351   1.469  1.8287  0.4715  1.5994
  354MOL0     H46722   6.988   1.301   1.569 -1.7716 -1.5282 -1.1241
  354MOL0     H46723   6.839   1.307   1.670 -3.1603  3.4872 -0.6393
  354MOL0     H46724   6.785   1.523   1.581 -0.4246 -1.2228 -0.7320
  354MOL0     H46725   6.918   1.512   1.693  0.0155 -1.1141  0.2670
  354MOL0     H46726   7.066   1.664   1.307  1.5899 -0.4623 -0.3351
  354MOL0     H46727   6.773   0.879   1.459 -2.0120  0.5336  1.1306
  354MOL0     H46728   6.679   0.667   1.418 -0.5326 -0.2964 -0.8888
  355MOL0     O46729   3.462   6.586   7.319 -0.3060 -0.2833 -0.9788
  355MOL0     C46730   3.357   6.632   7.367  0.2794  0.7979 -0.3014
  355MOL0     O46731   3.341   6.681   7.496  0.1756 -0.2441  0.2449
  355MOL0     C46732   3.442   6.656   7.586 -0.1035  0.3650  0.9917
  355MOL0     C46733   3.430   6.548   7.686  0.7869 -0.9717  0.3281
  355MOL0     C46734   3.522   6.517   7.784 -0.5782 -0.2739 -0.4932
  355MOL0     C46735   3.642   6.591   7.784  0.6065  0.9157  0.5269
  355MOL0     O46736   3.733   6.546   7.878  0.3109 -0.3340  0.2453
  355MOL0     C46737   3.784   6.644   7.964  0.0870 -0.9613 -0.2347
  355MOL0     C46738   3.927   6.594   7.990 -0.4528  0.7077 -0.2466
  355MOL0     C46739   4.029   6.710   8.027  0.2787  0.7406 -0.1687
  355MOL0     C46740   4.162   6.652   8.072  0.1509  1.2275  0.3009
  355MOL0     C46741   4.164   6.564   8.194 -1.2992  0.2622  0.0142
  355MOL0     C46742   4.298   6.487   8.205  0.1597 -0.2682 -0.0125
  355MOL0     C46743   4.413   6.590   8.234 -0.5859 -0.1138  0.0253
  355MOL0     C46744   4.543   6.524   8.221 -0.6255  0.0830  0.3621
  355MOL0     N46745   4.661   6.607   8.234 -0.6479  0.6143  0.0324
  355MOL0     C46746   4.729   6.639   8.349 -0.7313  0.0719 -0.3698
  355MOL0     C46747   4.848   6.686   8.301  0.1484  0.1375  0.3541
  355MOL0     C46748   4.972   6.722   8.390  1.4197  0.4375 -0.0274
  355MOL0     C46749   5.077   6.620   8.382 -0.5106  0.5456 -0.4624
  355MOL0     C46750   5.034   6.474   8.417 -0.0027  0.3306 -0.0451
  355MOL0     C46751   4.975   6.471   8.561 -0.3823 -0.3111  1.0775
  355MOL0     O46752   4.944   6.339   8.592  1.4498  0.0505 -0.4027
  355MOL0     C46753   4.810   6.296   8.547 -0.2391  0.2504  0.2291
  355MOL0     C46754   4.718   6.289   8.649  0.5211 -0.9360  0.2916
  355MOL0     C46755   4.589   6.247   8.614  0.1057  0.4311  0.4700
  355MOL0     C46756   4.555   6.209   8.487  0.1630 -0.5488 -0.8039
  355MOL0     C46757   4.412   6.196   8.446 -0.1389 -0.4745 -0.1845
  355MOL0     O46758   4.389   6.177   8.310  0.2607 -0.1512 -0.3317
  355MOL0     C46759   4.259   6.154   8.250  0.6144  0.8873  0.3158
  355MOL0     C46760   4.266   6.136   8.111 -0.6085 -0.4622 -0.0929
  355MOL0     C46761   4.156   6.091   8.043  0.3192 -0.1285  0.1962
  355MOL0     C46762   4.027   6.096   8.107 -0.2854 -0.1544  0.4484
  355MOL0     O46763   3.912   6.059   8.048 -0.6733 -0.5171  0.3736
  355MOL0     C46764   3.880   6.124   7.926 -0.2620 -1.3693 -0.3856
  355MOL0     C46765   3.737   6.086   7.873  0.0865  0.1570 -0.0665
  355MOL0     C46766   3.724   5.941   7.828  0.2593 -0.1701 -0.4268
  355MOL0     C46767   3.573   5.924   7.776  0.3923  0.4385 -0.8542
  355MOL0     C46768   3.538   5.786   7.718  0.2024  0.4666 -0.4746
  355MOL0     C46769   3.628   5.751   7.601 -0.7208 -1.2757  0.6074
  355MOL0     C46770   3.550   5.761   7.470  0.8371  0.0110 -0.8994
  355MOL0     C46771   3.468   5.638   7.433 -0.3438 -0.6249  0.0641
  355MOL0    Cl46772   3.587   5.499   7.427 -0.2491 -0.1379  0.5448
  355MOL0     C46773   4.020   6.132   8.238  1.0076 -0.2829  0.8056
  355MOL0     C46774   4.135   6.159   8.310 -0.0188  0.5438 -0.3302
  355MOL0     O46775   4.323   6.216   8.527  0.6360  0.2503  0.3167
  355MOL0     C46776   4.652   6.202   8.387  0.1918 -0.3726 -1.0922
  355MOL0     C46777   4.784   6.232   8.420  0.9253  0.0752  0.5784
  355MOL0     N46778   4.857   6.678   8.163 -0.1019 -1.2438  0.3259
  355MOL0     N46779   4.746   6.635   8.123 -0.8370 -0.7297 -0.0310
  355MOL0     C46780   3.665   6.691   7.685  0.3144  0.4035 -0.0899
  355MOL0     C46781   3.563   6.726   7.586  0.1260 -0.0928 -1.1321
  355MOL0     C46782   3.245   6.633   7.279 -0.6141  0.6846 -0.0757
  355MOL0     C46783   3.254   6.575   7.157 -0.1922  0.0180  0.2827
  355MOL0     C46784   3.147   6.571   7.075  0.2793  0.9015  0.2107
  355MOL0     C46785   3.022   6.626   7.111  0.3588 -1.3910 -0.0168
  355MOL0     O46786   2.925   6.616   7.019  1.1385  0.6429 -0.3751
  355MOL0     C46787   2.820   6.525   7.048 -0.6387  0.1077 -0.1071
  355MOL0     C46788   2.808   6.424   6.931  0.3203 -0.7722  0.4809
  355MOL0     C46789   2.797   6.490   6.794  0.6462 -0.7787  0.7631
  355MOL0     C46790   2.702   6.620   6.776 -0.9216 -1.1386  1.0558
  355MOL0     C46791   2.664   6.630   6.637  1.0937  0.3724  0.0547
  355MOL0     C46792   2.639   6.655   6.526  0.0713  0.1690 -0.6745
  355MOL0     C46793   3.011   6.686   7.231  0.0478  0.2710  0.5293
  355MOL0     C46794   3.121   6.682   7.321  0.6421 -0.4351 -0.1695
  355MOL0     H46795   3.338   6.491   7.677 -1.2873  2.1971 -0.5829
  355MOL0     H46796   3.515   6.433   7.852 -1.3560  1.5861  1.8820
  355MOL0     H46797   3.726   6.657   8.056  0.5748 -3.1189  0.4535
  355MOL0     H46798   3.783   6.740   7.913  1.2079 -0.0306  1.3998
  355MOL0     H46799   3.968   6.543   7.902  4.8182  1.0563  1.6479
  355MOL0     H46800   3.921   6.528   8.076  0.6932  0.9846  0.0563
  355MOL0     H46801   3.992   6.767   8.113  1.7076  1.9306 -0.2994
  355MOL0     H46802   4.044   6.775   7.941  1.7088 -0.4756 -0.8843
  355MOL0     H46803   4.192   6.601   7.980 -3.1999 -0.4254 -0.0373
  355MOL0     H46804   4.234   6.733   8.087  0.2409  0.8729  1.9079
  355MOL0     H46805   4.091   6.483   8.190 -1.5731  0.5359 -0.6859
  355MOL0     H46806   4.152   6.628   8.281 -0.0433  2.7363 -1.5138
  355MOL0     H46807   4.309   6.431   8.112 -0.7069  0.4838 -0.5778
  355MOL0     H46808   4.281   6.415   8.286  3.2708 -2.3605 -1.0377
  355MOL0     H46809   4.413   6.669   8.158  1.9613 -0.2252 -0.1789
  355MOL0     H46810   4.395   6.632   8.333  0.1889 -1.1197  0.6133
  355MOL0     H46811   4.553   6.491   8.117  0.5612  0.2135  0.4219
  355MOL0     H46812   4.555   6.443   8.293  3.3721  0.0745 -0.1028
  355MOL0     H46813   4.687   6.614   8.446  1.1762  0.9999  0.7399
  355MOL0     H46814   4.934   6.738   8.491 -0.4995 -2.1829 -0.2148
  355MOL0     H46815   5.018   6.813   8.353  1.7337  0.8106  1.2240
  355MOL0     H46816   5.158   6.648   8.450 -1.0333  1.3083 -0.1396
  355MOL0     H46817   5.117   6.639   8.283 -2.9954  4.0668 -0.9661
  355MOL0     H46818   4.963   6.427   8.348  1.3713 -2.6245  0.3609
  355MOL0     H46819   5.117   6.402   8.418  3.5538  3.9829  2.6845
  355MOL0     H46820   4.890   6.537   8.581  0.6393  1.6107 -0.6197
  355MOL0     H46821   5.059   6.506   8.622 -1.5953  1.6509  1.7064
  355MOL0     H46822   4.751   6.319   8.748  1.4573  0.4141 -0.4096
  355MOL0     H46823   4.518   6.250   8.696  1.1733  0.8554  1.3974
  355MOL0     H46824   4.360   6.139   8.057 -0.7182 -0.3477 -0.2768
  355MOL0     H46825   4.152   6.053   7.941  0.7382 -3.1237  1.2061
  355MOL0     H46826   3.946   6.074   7.853  0.3358  0.0539 -0.8540
  355MOL0     H46827   3.897   6.232   7.935 -0.5114 -1.3428 -0.2476
  355MOL0     H46828   3.712   6.151   7.789 -0.2393 -0.1304 -0.1930
  355MOL0     H46829   3.667   6.108   7.954  2.3808 -0.7679  2.3307
  355MOL0     H46830   3.742   5.870   7.910  1.1072 -0.7227 -1.0789
  355MOL0     H46831   3.798   5.932   7.749  0.6000  1.3629 -0.3043
  355MOL0     H46832   3.511   5.937   7.865  0.2279 -0.3211 -0.8539
  355MOL0     H46833   3.542   6.001   7.705 -2.0041 -0.3750 -0.7877
  355MOL0     H46834   3.434   5.786   7.684  0.8440  0.1679 -2.6484
  355MOL0     H46835   3.552   5.708   7.793  0.3379 -1.9569 -2.8397
  355MOL0     H46836   3.673   5.654   7.623 -2.0511 -1.6206  1.9394
  355MOL0     H46837   3.712   5.822   7.596 -0.7953 -1.2525 -0.7437
  355MOL0     H46838   3.481   5.846   7.476  1.1460  0.1765  2.4448
  355MOL0     H46839   3.617   5.772   7.384  0.1415 -2.2849 -1.7970
  355MOL0     H46840   3.422   5.645   7.334 -1.4129 -0.4175  0.5601
  355MOL0     H46841   3.399   5.620   7.515  2.8884  0.2516  3.2356
  355MOL0     H46842   3.927   6.136   8.294  0.8980 -2.4440  0.8787
  355MOL0     H46843   4.131   6.173   8.417 -0.9973 -0.9719 -0.1539
  355MOL0     H46844   4.626   6.164   8.288  0.6750  0.0864 -1.4011
  355MOL0     H46845   4.859   6.212   8.343  1.0244 -4.0755  1.5101
  355MOL0     H46846   3.764   6.733   7.675 -0.0440  0.9698 -1.6008
  355MOL0     H46847   3.586   6.807   7.518  2.3100  0.2009 -0.1206
  355MOL0     H46848   3.351   6.544   7.119 -0.4037  1.1484 -1.2331
  355MOL0     H46849   3.166   6.529   6.977 -2.6874 -0.1592 -0.0248
  355MOL0     H46850   2.729   6.584   7.054 -0.5371  0.1216  1.6276
  355MOL0     H46851   2.841   6.473   7.142 -1.0449  2.4770  1.3783
  355MOL0     H46852   2.891   6.353   6.926  0.6191 -0.5222  1.5768
  355MOL0     H46853   2.712   6.380   6.959 -0.2956 -0.0163 -0.4020
  355MOL0     H46854   2.761   6.409   6.730  4.6070 -1.8620 -0.3974
  355MOL0     H46855   2.899   6.516   6.762  0.8495 -3.7130 -1.4239
  355MOL0     H46856   2.609   6.606   6.831  0.5391 -3.7866  3.1394
  355MOL0     H46857   2.755   6.708   6.815 -2.3783  0.1162  0.3104
  355MOL0     H46858   2.629   6.667   6.420  0.4358 -1.3757 -0.9103
  355MOL0     H46859   2.914   6.709   7.274  1.1914 -0.2153  3.6894
  355MOL0     H46860   3.108   6.724   7.421  2.4279  0.2868 -0.2033
  356MOL0     O46861  10.737  11.355   5.697  0.2469 -0.4842 -0.5285
  356MOL0     C46862  10.696  11.462   5.739  0.1992 -0.2827  0.0472
  356MOL0     O46863  10.570  11.516   5.714  0.3760  0.0736 -0.6186
  356MOL0     C46864  10.483  11.434   5.644 -0.1991  1.2523  0.4133
  356MOL0     C46865  10.466  11.297   5.670  0.6096  0.6254  0.4879
  356MOL0     C46866  10.385  11.223   5.583 -0.1215 -0.8966 -0.7294
  356MOL0     C46867  10.318  11.287   5.479  0.0232  0.8277  1.5312
  356MOL0     O46868  10.224  11.220   5.396  0.0325  0.4024  0.1016
  356MOL0     C46869  10.224  11.077   5.396 -1.0420 -0.1378 -0.1792
  356MOL0     C46870  10.345  11.036   5.314  0.7152 -0.3549  0.2661
  356MOL0     C46871  10.345  11.101   5.175  0.3951  0.5454  0.7902
  356MOL0     C46872  10.449  11.032   5.078  0.1198  0.2493 -0.3325
  356MOL0     C46873  10.463  11.086   4.937 -0.2027 -0.2556 -0.3836
  356MOL0     C46874  10.543  11.009   4.843  0.1141  0.6794  0.6175
  356MOL0     C46875  10.503  10.866   4.806  1.2908  0.6126 -0.6967
  356MOL0     C46876  10.603  10.814   4.714 -0.0720 -0.4461 -0.4670
  356MOL0     N46877  10.723  10.743   4.773  0.6409  0.2704 -0.3510
  356MOL0     C46878  10.725  10.609   4.791 -0.7573  1.0473 -0.3006
  356MOL0     C46879  10.844  10.586   4.858  0.5173 -0.0296 -0.5684
  356MOL0     C46880  10.889  10.442   4.891 -0.4399 -0.4079 -1.2657
  356MOL0     C46881  11.043  10.433   4.878  0.9928  0.5901 -0.2532
  356MOL0     C46882  11.095  10.291   4.892 -0.2319  1.1461 -0.5439
  356MOL0     C46883  11.240  10.275   4.839 -0.2171 -0.6334  1.3178
  356MOL0     O46884  11.255  10.133   4.829  0.0759 -0.3635  0.5365
  356MOL0     C46885  11.382  10.086   4.845  0.8506  0.2327 -0.4485
  356MOL0     C46886  11.497  10.155   4.877 -0.4324  0.4842  0.1314
  356MOL0     C46887  11.626  10.091   4.889 -0.4458 -0.2245 -0.0319
  356MOL0     C46888  11.634   9.943   4.869  0.3165 -1.4977 -0.2331
  356MOL0     C46889  11.767   9.886   4.861  0.4023 -0.9581  0.0584
  356MOL0     O46890  11.869   9.959   4.914 -0.2101  0.1815  0.4659
  356MOL0     C46891  11.994   9.897   4.928  0.8436  0.3477  0.2597
  356MOL0     C46892  12.092   9.928   4.832  0.9627 -0.3678  0.1264
  356MOL0     C46893  12.221   9.875   4.841 -0.6789  0.3230  0.8615
  356MOL0     C46894  12.241   9.773   4.931  0.2271 -0.6396 -0.2074
  356MOL0     O46895  12.352   9.694   4.896 -0.0005  0.7415 -0.0092
  356MOL0     C46896  12.336   9.554   4.871 -0.3575 -1.5222  0.2193
  356MOL0     C46897  12.434   9.500   4.767 -1.1236  0.1596  0.4783
  356MOL0     C46898  12.581   9.556   4.776 -0.9312  0.5830  1.0052
  356MOL0     C46899  12.660   9.520   4.654 -0.2865 -0.5422 -0.4067
  356MOL0     C46900  12.797   9.562   4.666  0.8867  0.2900  0.6251
  356MOL0     C46901  12.851   9.584   4.522  0.1354  0.9452 -0.1135
  356MOL0     C46902  12.886   9.465   4.437 -0.7363  0.3401 -0.9082
  356MOL0     C46903  12.944   9.496   4.296 -0.2243  0.1641 -0.5084
  356MOL0    Cl46904  13.063   9.627   4.317 -0.5581  0.0376  0.5633
  356MOL0     C46905  12.145   9.741   5.030 -0.8035  0.0347  0.6224
  356MOL0     C46906  12.025   9.800   5.033  1.4288  0.0060  0.0407
  356MOL0     O46907  11.773   9.766   4.824  0.5446 -0.2268  0.0963
  356MOL0     C46908  11.516   9.880   4.832 -0.0462 -0.2957  0.4084
  356MOL0     C46909  11.396   9.951   4.827  0.5720 -0.3436 -0.0644
  356MOL0     N46910  10.908  10.705   4.884  0.2559  0.0210  0.2660
  356MOL0     N46911  10.829  10.801   4.836 -0.2553  0.3187  0.3620
  356MOL0     C46912  10.328  11.418   5.463 -0.5011  0.1500 -0.5916
  356MOL0     C46913  10.421  11.498   5.535  0.5313 -0.4234  0.3239
  356MOL0     C46914  10.788  11.556   5.813  0.6401  0.5906 -0.6785
  356MOL0     C46915  10.744  11.673   5.875 -0.0379 -0.0670 -0.1624
  356MOL0     C46916  10.837  11.765   5.915  0.7944 -0.2112  0.1342
  356MOL0     C46917  10.978  11.742   5.908 -0.3113  0.2248  0.4242
  356MOL0     O46918  11.082  11.827   5.944  0.9444  0.4148 -0.9644
  356MOL0     C46919  11.031  11.961   5.963 -0.3360 -0.5894  0.0200
  356MOL0     C46920  10.995  11.977   6.118 -0.0718 -0.3372  0.3956
  356MOL0     C46921  11.101  11.939   6.224 -0.5123 -0.3851 -0.3111
  356MOL0     C46922  11.059  11.996   6.363 -0.3350 -0.0939  0.1395
  356MOL0     C46923  10.928  11.949   6.402 -0.3859  0.7349 -0.8516
  356MOL0     C46924  10.819  11.907   6.452 -0.2472 -1.2959 -0.0576
  356MOL0     C46925  11.012  11.616   5.877  0.2993 -0.2167  0.5243
  356MOL0     C46926  10.929  11.532   5.813  0.0402  0.1914 -0.4356
  356MOL0     H46927  10.515  11.254   5.757  2.9594 -0.1367 -1.1220
  356MOL0     H46928  10.384  11.115   5.595 -1.9047 -0.6065  3.8001
  356MOL0     H46929  10.131  11.056   5.342 -1.0551  0.8704 -0.5764
  356MOL0     H46930  10.211  11.037   5.497  0.7443 -1.5579 -0.4689
  356MOL0     H46931  10.350  10.929   5.294  2.5845  0.2777 -3.3268
  356MOL0     H46932  10.441  11.067   5.356 -0.5770  1.3441  2.1939
  356MOL0     H46933  10.360  11.209   5.160  0.0150  0.5311  0.3040
  356MOL0     H46934  10.253  11.076   5.122  1.0845 -0.7243  0.1712
  356MOL0     H46935  10.546  11.046   5.128  0.5717 -2.5879 -0.2773
  356MOL0     H46936  10.424  10.926   5.065  0.1765  0.3320 -1.1578
  356MOL0     H46937  10.510  11.184   4.937 -0.5008 -0.1098 -0.0090
  356MOL0     H46938  10.359  11.086   4.902 -0.5982 -0.5927  0.7586
  356MOL0     H46939  10.648  11.013   4.873  0.1308 -0.5222  0.7561
  356MOL0     H46940  10.536  11.068   4.751  3.0866 -1.1713 -0.9295
  356MOL0     H46941  10.488  10.788   4.881  3.3821 -1.9064 -2.7283
  356MOL0     H46942  10.407  10.875   4.753  1.4481 -0.4454 -1.1690
  356MOL0     H46943  10.644  10.889   4.646 -0.2875  1.5686  1.5135
  356MOL0     H46944  10.544  10.735   4.666  1.4318 -2.3091  0.6012
  356MOL0     H46945  10.647  10.542   4.757 -1.5701  1.1088  1.3583
  356MOL0     H46946  10.831  10.366   4.838 -2.2125  2.0314 -3.0311
  356MOL0     H46947  10.872  10.424   4.998  0.5271  0.0620 -1.0134
  356MOL0     H46948  11.092  10.494   4.954  0.1125 -1.2092  1.8664
  356MOL0     H46949  11.071  10.471   4.779  1.3232  0.4188 -0.2262
  356MOL0     H46950  11.098  10.280   5.001  0.6410 -1.2907 -0.7560
  356MOL0     H46951  11.025  10.224   4.840 -1.9586  2.5078 -0.0815
  356MOL0     H46952  11.313  10.335   4.894  0.9488  2.7535 -3.3702
  356MOL0     H46953  11.241  10.317   4.738 -0.0866  1.6522  2.2217
  356MOL0     H46954  11.512  10.259   4.906  0.8193  0.2091  0.5688
  356MOL0     H46955  11.708  10.152   4.926 -2.0860  0.7977  2.2063
  356MOL0     H46956  12.059   9.999   4.758  1.1063 -1.3030 -0.8553
  356MOL0     H46957  12.287   9.905   4.760 -0.5275 -1.2691  0.3716
  356MOL0     H46958  12.235   9.547   4.829 -0.0374  1.3493 -1.2778
  356MOL0     H46959  12.336   9.501   4.967 -5.7966 -1.3896  0.6312
  356MOL0     H46960  12.405   9.525   4.664 -0.8792  3.0405  1.0336
  356MOL0     H46961  12.445   9.391   4.767  0.5446  0.2679 -1.0484
  356MOL0     H46962  12.633   9.512   4.862  2.0512  0.3904 -0.7561
  356MOL0     H46963  12.581   9.663   4.801  1.2360  0.3200  2.4382
  356MOL0     H46964  12.657   9.411   4.645  2.2023 -0.5621 -1.8974
  356MOL0     H46965  12.616   9.557   4.560  0.0713 -1.5099 -0.9651
  356MOL0     H46966  12.858   9.491   4.723  0.3052 -2.2339 -1.6723
  356MOL0     H46967  12.793   9.653   4.727 -1.3009 -1.4302  3.2766
  356MOL0     H46968  12.940   9.646   4.539 -0.4805  1.2524  2.4550
  356MOL0     H46969  12.773   9.638   4.468 -1.5660  0.9220  2.1368
  356MOL0     H46970  12.962   9.405   4.488  0.2547  1.7120 -0.7201
  356MOL0     H46971  12.793   9.411   4.415 -1.1669  1.0450 -0.8630
  356MOL0     H46972  12.859   9.523   4.232 -1.1038  0.0492  0.5827
  356MOL0     H46973  12.999   9.408   4.262  0.5509 -0.3409  1.8242
  356MOL0     H46974  12.168   9.668   5.106 -0.6880  0.9423  1.4810
  356MOL0     H46975  11.935   9.763   5.080  0.6388 -0.8160 -2.0158
  356MOL0     H46976  11.514   9.772   4.824  2.5013 -0.3594 -0.6233
  356MOL0     H46977  11.306   9.894   4.809  0.9444 -1.7856  2.1575
  356MOL0     H46978  10.262  11.455   5.385 -1.3819 -0.1800 -0.0111
  356MOL0     H46979  10.430  11.605   5.522  2.6104 -0.6790 -0.7666
  356MOL0     H46980  10.638  11.696   5.878 -0.2537 -0.2769 -3.0347
  356MOL0     H46981  10.789  11.861   5.925 -0.8729 -0.4638 -3.6403
  356MOL0     H46982  10.951  11.987   5.894 -1.2622 -0.9264  0.9406
  356MOL0     H46983  11.111  12.033   5.940 -0.9778  0.0840 -0.1378
  356MOL0     H46984  10.967  12.082   6.117 -2.6019 -0.9021 -2.4003
  356MOL0     H46985  10.900  11.929   6.143 -1.6258  1.6825 -1.3095
  356MOL0     H46986  11.195  11.988   6.199 -0.0047 -0.0162  2.0557
  356MOL0     H46987  11.125  11.833   6.232 -0.9147 -0.4643 -0.1209
  356MOL0     H46988  11.139  11.982   6.437  1.2529  0.3769 -1.4242
  356MOL0     H46989  11.048  12.105   6.354  0.8371  0.2573  2.1795
  356MOL0     H46990  10.723  11.870   6.480 -1.4341 -0.6390 -2.9679
  356MOL0     H46991  11.114  11.581   5.866 -0.2450 -1.8937  0.5249
  356MOL0     H46992  10.960  11.441   5.763 -3.3702 -0.7757 -1.0752
  357MOL0     O46993   7.018   8.254   8.654  0.3568 -0.3335 -0.1041
  357MOL0     C46994   7.121   8.218   8.598 -0.0162  0.4769  0.0035
  357MOL0     O46995   7.133   8.126   8.502 -0.4953  1.6175  0.5084
  357MOL0     C46996   7.033   8.074   8.417 -0.3132  0.0981  0.0379
  357MOL0     C46997   7.012   7.942   8.401 -0.9597  0.5327 -0.3991
  357MOL0     C46998   6.902   7.896   8.331 -0.1758 -0.7283  0.6534
  357MOL0     C46999   6.809   7.977   8.268  0.1868 -0.1990  0.1889
  357MOL0     O47000   6.709   7.925   8.193 -0.0676 -0.2861 -0.2160
  357MOL0     C47001   6.609   8.015   8.139  0.2331 -0.1054  0.4385
  357MOL0     C47002   6.511   7.931   8.051 -0.0633 -0.4150  0.0274
  357MOL0     C47003   6.373   7.988   8.023 -0.0120  0.7615  0.0603
  357MOL0     C47004   6.328   7.942   7.886  0.5019  1.0240  0.2403
  357MOL0     C47005   6.209   8.022   7.831  0.5676 -0.2545 -0.0176
  357MOL0     C47006   6.162   7.976   7.692 -0.5192  0.1556 -0.0280
  357MOL0     C47007   6.135   8.104   7.612 -0.0519 -0.5254 -0.5363
  357MOL0     C47008   5.986   8.090   7.577 -0.0528  1.0028  0.2968
  357MOL0     N47009   5.972   8.056   7.439 -0.2402 -0.0390  1.0208
  357MOL0     C47010   5.971   8.144   7.330  0.6484 -0.6836 -0.8611
  357MOL0     C47011   5.974   8.068   7.224 -0.4829 -0.4740 -0.5129
  357MOL0     C47012   5.989   8.125   7.083 -0.3746 -0.8521  0.1112
  357MOL0     C47013   5.860   8.153   7.020  0.4310 -0.6602  0.4165
  357MOL0     C47014   5.795   8.034   6.955 -0.3760  0.0087  0.7201
  357MOL0     C47015   5.646   8.036   6.950 -0.3040  0.3918  0.6986
  357MOL0     O47016   5.604   8.167   6.902 -0.2339  0.1299  0.3037
  357MOL0     C47017   5.470   8.165   6.875  0.6530 -0.6131  0.3707
  357MOL0     C47018   5.432   8.126   6.747  1.1053  0.1116 -0.7136
  357MOL0     C47019   5.294   8.137   6.717  0.3157 -0.1658  0.4250
  357MOL0     C47020   5.198   8.157   6.817  0.4582 -0.0016  0.8052
  357MOL0     C47021   5.058   8.129   6.790 -0.3728 -0.0918  0.2054
  357MOL0     O47022   4.992   8.069   6.894  0.6403  0.0406 -0.1501
  357MOL0     C47023   4.862   8.037   6.887  0.5145 -0.4961 -0.6924
  357MOL0     C47024   4.773   8.046   6.773  0.5325  0.7448 -0.3111
  357MOL0     C47025   4.643   7.983   6.778  0.4347 -0.5469 -0.2693
  357MOL0     C47026   4.593   7.929   6.891  0.4308  0.0664  0.1040
  357MOL0     O47027   4.471   7.872   6.912  0.0140  0.1142  0.0471
  357MOL0     C47028   4.405   7.808   6.797  0.0158  0.1159 -0.1382
  357MOL0     C47029   4.307   7.703   6.856 -0.8537 -1.5537 -0.1019
  357MOL0     C47030   4.278   7.613   6.747  0.1782  0.4841  0.1018
  357MOL0     C47031   4.157   7.520   6.774  0.2546  0.6704 -0.3569
  357MOL0     C47032   4.018   7.592   6.777  0.6991 -0.6984  0.3226
  357MOL0     C47033   3.912   7.517   6.697 -0.5702  0.0082 -0.0357
  357MOL0     C47034   3.908   7.548   6.553  0.4298  0.0539 -0.6701
  357MOL0     C47035   3.827   7.446   6.475 -0.5995 -1.0198 -0.1774
  357MOL0    Cl47036   3.803   7.513   6.310 -0.0082  0.0526  0.1764
  357MOL0     C47037   4.663   7.936   7.004 -0.6714  0.1114 -0.0829
  357MOL0     C47038   4.799   7.992   7.003  0.0076  0.2359  0.5506
  357MOL0     O47039   5.011   8.163   6.681 -0.3060 -0.1556  0.4567
  357MOL0     C47040   5.242   8.188   6.951  0.1334 -0.0832  0.3317
  357MOL0     C47041   5.375   8.196   6.977 -0.9571  0.5613 -0.9551
  357MOL0     N47042   5.991   7.933   7.261  0.5338 -0.0956  0.0901
  357MOL0     N47043   5.969   7.935   7.390 -0.8389  0.9480 -0.4449
  357MOL0     C47044   6.823   8.117   8.296  0.0007  0.0541 -0.4266
  357MOL0     C47045   6.941   8.163   8.363 -0.1651  0.2504  0.4875
  357MOL0     C47046   7.249   8.269   8.650 -0.1999  0.2040  0.1546
  357MOL0     C47047   7.366   8.228   8.577 -0.8293  0.1463  0.1528
  357MOL0     C47048   7.493   8.279   8.627 -0.8782  0.6160  0.1281
  357MOL0     C47049   7.508   8.356   8.743 -0.5439 -0.3842 -0.0833
  357MOL0     O47050   7.632   8.390   8.793 -0.0769  0.1773 -0.8874
  357MOL0     C47051   7.747   8.367   8.709 -0.4246  0.2484 -0.0036
  357MOL0     C47052   7.886   8.416   8.753  0.2541 -0.5413 -0.0090
  357MOL0     C47053   7.958   8.324   8.852  0.6467  0.0685  1.5445
  357MOL0     C47054   8.096   8.381   8.877  0.2286  0.4790  0.9652
  357MOL0     C47055   8.180   8.267   8.918  0.6314  0.1707  0.0667
  357MOL0     C47056   8.243   8.176   8.972  0.2791 -0.8663  0.0904
  357MOL0     C47057   7.395   8.397   8.808 -0.1259 -0.4943 -0.6382
  357MOL0     C47058   7.264   8.354   8.763  0.0149  0.2189  0.7284
  357MOL0     H47059   7.082   7.870   8.444  3.0003  3.7894 -0.7691
  357MOL0     H47060   6.889   7.788   8.328 -0.3995 -0.6840 -0.3721
  357MOL0     H47061   6.647   8.097   8.077 -0.6173 -1.0322 -1.3799
  357MOL0     H47062   6.559   8.057   8.227 -0.1589 -1.2396  0.7686
  357MOL0     H47063   6.506   7.825   8.075  0.0938 -0.6124 -0.7572
  357MOL0     H47064   6.556   7.926   7.951 -2.7615 -1.6523 -1.2249
  357MOL0     H47065   6.371   8.095   8.048  0.2494  0.3792  1.8927
  357MOL0     H47066   6.300   7.944   8.092 -1.7278 -2.5673 -3.5217
  357MOL0     H47067   6.408   7.935   7.812  1.6387 -2.0667  1.5838
  357MOL0     H47068   6.292   7.838   7.892  0.1492  1.0194 -1.3714
  357MOL0     H47069   6.266   8.115   7.821  0.7522 -0.3509  0.1360
  357MOL0     H47070   6.128   8.028   7.904 -2.1016 -1.7446 -2.6347
  357MOL0     H47071   6.082   7.902   7.704  0.7902 -1.3454 -0.1461
  357MOL0     H47072   6.245   7.925   7.642  0.1149  0.2130  0.9239
  357MOL0     H47073   6.141   8.191   7.677 -1.8434 -1.0211  0.3521
  357MOL0     H47074   6.197   8.107   7.521 -2.5893 -5.5873 -2.8526
  357MOL0     H47075   5.934   8.184   7.598 -0.0667  0.5703  2.3747
  357MOL0     H47076   5.942   8.021   7.649  2.1082 -0.7508  0.0433
  357MOL0     H47077   5.978   8.253   7.332  0.2882 -0.6653 -0.5330
  357MOL0     H47078   6.039   8.047   7.025 -1.0048 -1.9660  1.0045
  357MOL0     H47079   6.045   8.217   7.097 -0.9709 -0.1506 -1.7586
  357MOL0     H47080   5.870   8.228   6.941 -3.2373 -0.2611  0.1280
  357MOL0     H47081   5.800   8.201   7.098  1.7888  1.6884  0.0927
  357MOL0     H47082   5.835   8.019   6.854 -1.1906  3.6495 -0.3236
  357MOL0     H47083   5.805   7.936   7.002 -1.8506 -0.4444  0.1634
  357MOL0     H47084   5.604   8.002   7.045 -0.5802  1.5594  1.0189
  357MOL0     H47085   5.628   7.966   6.868 -2.3120  3.2387 -1.4989
  357MOL0     H47086   5.507   8.111   6.669 -0.3120  1.9913 -2.5522
  357MOL0     H47087   5.264   8.099   6.620 -0.4648  1.2080  0.1031
  357MOL0     H47088   4.804   8.085   6.677  0.2090  1.1838 -0.2418
  357MOL0     H47089   4.571   7.993   6.697 -1.0792 -4.6136  0.3445
  357MOL0     H47090   4.480   7.756   6.737  1.1253 -0.2576  1.5278
  357MOL0     H47091   4.337   7.875   6.742 -3.2506 -3.1443 -0.4997
  357MOL0     H47092   4.221   7.753   6.901  1.3134 -0.5458  3.2944
  357MOL0     H47093   4.363   7.655   6.937  0.0871  1.3379  1.0865
  357MOL0     H47094   4.366   7.554   6.720  0.0276  0.0747  0.4822
  357MOL0     H47095   4.248   7.672   6.660 -1.5073 -1.9172 -1.0662
  357MOL0     H47096   4.164   7.434   6.707  1.2641 -0.1598  0.7615
  357MOL0     H47097   4.159   7.471   6.871 -2.0269 -2.3841 -1.7205
  357MOL0     H47098   4.024   7.693   6.735  1.8437 -1.3939 -1.2368
  357MOL0     H47099   3.978   7.595   6.879 -1.8463  0.9569 -0.6251
  357MOL0     H47100   3.825   7.569   6.736  1.6681  1.5028  3.4677
  357MOL0     H47101   3.919   7.409   6.711 -0.9415 -0.1368 -0.9538
  357MOL0     H47102   3.867   7.649   6.552  2.9570  1.2935  2.5482
  357MOL0     H47103   4.007   7.546   6.507  0.8469  2.9703 -0.0569
  357MOL0     H47104   3.737   7.412   6.527  1.0134 -0.5344  3.2224
  357MOL0     H47105   3.893   7.360   6.463  1.3683  0.1547  1.5881
  357MOL0     H47106   4.629   7.900   7.101 -1.3891  1.5241  0.2168
  357MOL0     H47107   4.860   7.998   7.092  1.4060  1.6832 -0.4577
  357MOL0     H47108   5.165   8.220   7.020  1.3899  1.2660  1.1727
  357MOL0     H47109   5.411   8.213   7.078 -2.7485 -0.9312 -0.0095
  357MOL0     H47110   6.758   8.188   8.246  0.1691  0.9562  0.5867
  357MOL0     H47111   6.937   8.270   8.382  2.5167  0.8081 -1.5188
  357MOL0     H47112   7.359   8.166   8.488  0.9224  0.3118 -0.1365
  357MOL0     H47113   7.577   8.238   8.573 -2.5311  0.3457 -2.3791
  357MOL0     H47114   7.725   8.412   8.612 -3.4950  1.6872  1.2139
  357MOL0     H47115   7.759   8.258   8.702  1.0150  0.4104 -0.3050
  357MOL0     H47116   7.959   8.424   8.672  2.5017  0.3729  1.9733
  357MOL0     H47117   7.869   8.517   8.789  2.5548  0.7412 -2.2101
  357MOL0     H47118   7.977   8.227   8.807  1.0291  0.7268  0.2311
  357MOL0     H47119   7.897   8.309   8.942 -0.4137 -1.2896  0.6313
  357MOL0     H47120   8.148   8.431   8.794  3.1598 -1.3297  1.5546
  357MOL0     H47121   8.078   8.455   8.956 -2.2297  1.4001 -0.3606
  357MOL0     H47122   8.301   8.111   9.035  0.9181  0.4489  0.8981
  357MOL0     H47123   7.405   8.474   8.885 -0.7777  0.3874 -1.4159
  357MOL0     H47124   7.169   8.379   8.809 -0.5322 -2.9565  1.5186
  358MOL0     O47125   5.802   4.069  11.375  0.1025  0.6713  0.0987
  358MOL0     C47126   5.915   4.025  11.364 -0.7971  0.6029  0.4229
  358MOL0     O47127   6.014   4.087  11.280 -0.1584  0.7167 -0.0325
  358MOL0     C47128   5.977   4.191  11.195 -0.2122 -0.3240  0.1907
  358MOL0     C47129   5.851   4.215  11.144  0.2994  0.0355  0.3904
  358MOL0     C47130   5.828   4.317  11.052  1.5487  0.3755 -0.1763
  358MOL0     C47131   5.927   4.407  11.016 -0.4265 -1.4704 -0.4373
  358MOL0     O47132   5.893   4.486  10.913 -0.3603  1.1453  0.7376
  358MOL0     C47133   5.977   4.591  10.865  0.0156 -0.0875  0.2717
  358MOL0     C47134   6.044   4.576  10.724  0.3390 -0.0968  0.0751
  358MOL0     C47135   6.128   4.444  10.725 -0.3400 -0.0723  0.1557
  358MOL0     C47136   6.157   4.403  10.584  0.2659  0.4030  0.6189
  358MOL0     C47137   6.216   4.264  10.575  0.0365 -0.1139  0.4047
  358MOL0     C47138   6.277   4.225  10.440 -1.0957  0.1130  0.3201
  358MOL0     C47139   6.435   4.220  10.449  0.3952 -0.4580  0.2583
  358MOL0     C47140   6.488   4.165  10.328 -0.1457 -0.4505 -0.2713
  358MOL0     N47141   6.469   4.248  10.210 -0.4107  0.8453  0.6430
  358MOL0     C47142   6.467   4.382  10.193 -0.1354 -0.2465 -0.2044
  358MOL0     C47143   6.388   4.409  10.086  0.0253 -0.2257 -0.2641
  358MOL0     C47144   6.343   4.544  10.017 -0.2753  0.8391  0.2893
  358MOL0     C47145   6.453   4.643  10.016 -0.8391 -0.3113 -0.0062
  358MOL0     C47146   6.561   4.635   9.912 -0.7699  0.8594  0.4653
  358MOL0     C47147   6.669   4.748   9.932  0.3059 -0.0633 -0.7512
  358MOL0     O47148   6.780   4.741   9.847  0.3376  0.9465  0.0509
  358MOL0     C47149   6.890   4.679   9.905  0.1661 -0.5877 -0.1203
  358MOL0     C47150   6.913   4.636  10.032 -0.8068  1.1483 -0.0514
  358MOL0     C47151   7.039   4.579  10.075 -0.3193  0.3043 -0.4160
  358MOL0     C47152   7.136   4.558   9.984  0.1184  0.5270 -0.1776
  358MOL0     C47153   7.265   4.494  10.023  0.1801  0.4347 -0.3298
  358MOL0     O47154   7.257   4.431  10.141  0.0505 -0.1280 -0.5643
  358MOL0     C47155   7.375   4.366  10.178  1.6584  1.0672 -0.3303
  358MOL0     C47156   7.478   4.440  10.211 -0.7723 -0.4101  0.0620
  358MOL0     C47157   7.571   4.375  10.300 -0.1164 -0.5923  0.3999
  358MOL0     C47158   7.544   4.267  10.372 -0.7492  1.2666  0.5427
  358MOL0     O47159   7.637   4.225  10.474 -0.6792  0.3597 -0.1340
  358MOL0     C47160   7.684   4.089  10.487  1.2649 -0.4406  0.0493
  358MOL0     C47161   7.764   4.091  10.616  0.3724 -0.3377  0.6649
  358MOL0     C47162   7.801   3.944  10.633  0.4797 -0.2921  1.1909
  358MOL0     C47163   7.883   3.905  10.761  0.4946  0.0907 -0.0382
  358MOL0     C47164   8.031   3.944  10.737  1.1622 -0.6757  0.2572
  358MOL0     C47165   8.128   3.911  10.846  0.8967  0.2119  0.1969
  358MOL0     C47166   8.139   3.762  10.882  0.4695 -0.0836  0.4068
  358MOL0     C47167   8.283   3.705  10.861  0.4235  0.4075 -0.3503
  358MOL0    Cl47168   8.313   3.645  10.694 -0.3912 -0.6920  0.1050
  358MOL0     C47169   7.440   4.187  10.329 -0.4503 -0.3674  0.0847
  358MOL0     C47170   7.350   4.233  10.238 -0.8164  0.2371  0.0792
  358MOL0     O47171   7.371   4.495   9.956 -0.4794  0.0228  0.1338
  358MOL0     C47172   7.104   4.598   9.856  0.4842  0.4996  0.4516
  358MOL0     C47173   6.988   4.655   9.812 -0.6398  0.5785  0.0835
  358MOL0     N47174   6.362   4.282  10.027  0.0134 -0.9217 -0.5610
  358MOL0     N47175   6.407   4.199  10.107  0.0676  0.2157  0.5344
  358MOL0     C47176   6.051   4.387  11.074 -0.5131 -0.1471  0.8625
  358MOL0     C47177   6.084   4.284  11.159 -0.1757 -0.6563 -0.5234
  358MOL0     C47178   5.953   3.889  11.422 -0.5905 -1.1591 -0.9346
  358MOL0     C47179   6.070   3.819  11.381  0.5152 -0.0880  0.0112
  358MOL0     C47180   6.096   3.693  11.429  0.8298  0.1131  0.3581
  358MOL0     C47181   6.013   3.640  11.534  0.0956  0.6395 -0.2241
  358MOL0     O47182   6.028   3.517  11.591 -0.7193  0.1292  0.4946
  358MOL0     C47183   6.137   3.430  11.568  0.1061  0.7045  1.5472
  358MOL0     C47184   6.105   3.292  11.644  0.8616 -0.4238 -0.5092
  358MOL0     C47185   6.123   3.308  11.797  0.4461 -0.0862 -0.4253
  358MOL0     C47186   6.005   3.383  11.876 -0.2107  0.7151  0.1938
  358MOL0     C47187   5.873   3.336  11.841  0.1826 -0.6939  0.1226
  358MOL0     C47188   5.756   3.291  11.825  0.2262 -0.2646  1.4043
  358MOL0     C47189   5.910   3.709  11.578  0.5355 -0.1032  0.1310
  358MOL0     C47190   5.869   3.825  11.513  0.5991  0.1884  0.3255
  358MOL0     H47191   5.766   4.148  11.151 -1.3739  1.6390 -2.6788
  358MOL0     H47192   5.730   4.318  11.006  0.2223  2.8356  2.3978
  358MOL0     H47193   6.060   4.596  10.936  1.2623 -2.7718 -0.8568
  358MOL0     H47194   5.917   4.682  10.853  0.0045 -0.1617 -0.2690
  358MOL0     H47195   6.114   4.655  10.696  4.6229 -2.1391  3.6664
  358MOL0     H47196   5.966   4.555  10.650  0.0024 -2.0387  0.9195
  358MOL0     H47197   6.073   4.368  10.780  3.2437 -2.6450  0.5448
  358MOL0     H47198   6.217   4.457  10.788 -0.8098 -3.2015  1.6573
  358MOL0     H47199   6.060   4.399  10.533  1.1451  1.4173 -1.2032
  358MOL0     H47200   6.227   4.472  10.537 -0.2458 -1.8366 -3.9644
  358MOL0     H47201   6.141   4.189  10.601 -0.7098  1.3392  2.7759
  358MOL0     H47202   6.294   4.276  10.650  1.7004 -1.5912 -1.0208
  358MOL0     H47203   6.242   4.299  10.367 -1.3498 -0.1939  0.1257
  358MOL0     H47204   6.236   4.133  10.397  1.6693 -0.1284 -2.1531
  358MOL0     H47205   6.475   4.319  10.471 -1.1464 -0.1807  2.0843
  358MOL0     H47206   6.471   4.167  10.538  1.0575 -2.3333 -1.0483
  358MOL0     H47207   6.446   4.065  10.318  1.3609 -1.1415 -0.0288
  358MOL0     H47208   6.597   4.158  10.327  0.1862  3.0123 -1.1743
  358MOL0     H47209   6.504   4.452  10.267 -0.1680 -1.3312  0.8730
  358MOL0     H47210   6.254   4.577  10.071 -2.8486 -1.2179 -2.3992
  358MOL0     H47211   6.305   4.523   9.917 -4.0928  1.3424  1.4751
  358MOL0     H47212   6.501   4.648  10.114 -1.0285  1.8806  0.0239
  358MOL0     H47213   6.413   4.745  10.013 -1.2380 -0.4197  1.0553
  358MOL0     H47214   6.614   4.539   9.913 -0.5075  0.9756 -0.6997
  358MOL0     H47215   6.514   4.639   9.814  0.2116 -0.7359 -0.1063
  358MOL0     H47216   6.698   4.761  10.037  0.1431 -0.3793 -0.6636
  358MOL0     H47217   6.615   4.842   9.920 -1.6653 -0.8276  1.2778
  358MOL0     H47218   6.844   4.643  10.116 -1.2010  3.1176 -0.4856
  358MOL0     H47219   7.057   4.555  10.179  0.1332 -1.4455 -0.8529
  358MOL0     H47220   7.495   4.541  10.176 -2.3721 -0.9497 -2.5766
  358MOL0     H47221   7.662   4.426  10.330 -2.6820  5.4685 -0.6128
  358MOL0     H47222   7.749   4.067  10.402  1.6193  0.3303  0.1101
  358MOL0     H47223   7.597   4.023  10.496  0.4898  0.7435  2.2188
  358MOL0     H47224   7.712   4.123  10.707  2.9628  0.6639  1.8921
  358MOL0     H47225   7.854   4.152  10.613 -0.6314  1.1585 -0.8180
  358MOL0     H47226   7.859   3.922  10.543  0.2697 -1.4138  1.3170
  358MOL0     H47227   7.713   3.880  10.637  0.9223 -0.8710  1.9520
  358MOL0     H47228   7.839   3.956  10.847 -0.6172 -1.2302  0.2116
  358MOL0     H47229   7.864   3.799  10.782 -0.7378  0.7300  2.4857
  358MOL0     H47230   8.037   4.053  10.740 -0.0871 -0.5369 -1.2793
  358MOL0     H47231   8.065   3.914  10.638  1.4528  0.5527 -0.0387
  358MOL0     H47232   8.086   3.954  10.938 -0.8387  0.3813 -0.6371
  358MOL0     H47233   8.227   3.954  10.826  0.2804  1.5972 -0.0173
  358MOL0     H47234   8.100   3.744  10.983 -0.7960 -1.9988 -0.3597
  358MOL0     H47235   8.068   3.698  10.829  1.2069  1.8088 -3.1530
  358MOL0     H47236   8.302   3.619  10.926  2.9389  2.5902  2.0802
  358MOL0     H47237   8.356   3.783  10.885  1.8682 -0.7545 -0.7700
  358MOL0     H47238   7.424   4.094  10.382 -1.1584 -2.4100 -3.3945
  358MOL0     H47239   7.263   4.175  10.208 -1.7509  1.2009  0.8595
  358MOL0     H47240   7.171   4.570   9.777 -3.0569  1.5530 -3.2836
  358MOL0     H47241   6.964   4.679   9.708  0.4249  1.1926 -0.0277
  358MOL0     H47242   6.139   4.450  11.064  0.0110 -0.9591  0.0650
  358MOL0     H47243   6.183   4.260  11.197 -1.0470 -1.3098  1.4454
  358MOL0     H47244   6.129   3.854  11.296  0.3985  1.0628  0.3851
  358MOL0     H47245   6.168   3.636  11.372  1.0257 -0.1990  0.9056
  358MOL0     H47246   6.234   3.472  11.596  2.0122 -1.0649 -1.7595
  358MOL0     H47247   6.142   3.408  11.461 -2.5631  3.1980  0.7828
  358MOL0     H47248   6.002   3.261  11.623  0.1069  1.2133  0.5262
  358MOL0     H47249   6.171   3.208  11.622  1.8335 -1.3538  4.5580
  358MOL0     H47250   6.219   3.359  11.799  0.7776 -0.6838 -0.9230
  358MOL0     H47251   6.141   3.205  11.831  0.5451 -0.6356 -2.0655
  358MOL0     H47252   6.021   3.363  11.983  0.6028 -3.5101 -0.5525
  358MOL0     H47253   6.020   3.489  11.856 -2.5721  2.0845  4.3618
  358MOL0     H47254   5.657   3.252  11.814  0.9203 -2.4280  2.2597
  358MOL0     H47255   5.854   3.670  11.663 -2.3345  0.8771 -1.1797
  358MOL0     H47256   5.780   3.863  11.562  2.8062  2.5834  2.7751
  359MOL0     O47257   3.096   4.047   8.976  0.2082  0.2948  0.8339
  359MOL0     C47258   3.030   4.142   9.014  0.6642 -0.0915  0.0924
  359MOL0     O47259   2.921   4.192   8.955 -0.0948 -0.4847 -0.0471
  359MOL0     C47260   2.909   4.161   8.816  0.4692 -0.6660 -0.2022
  359MOL0     C47261   2.826   4.064   8.774 -0.4922 -0.1756  0.1761
  359MOL0     C47262   2.811   4.035   8.638  0.4732  0.6707 -0.2723
  359MOL0     C47263   2.888   4.091   8.540  0.3156 -0.0519 -0.1174
  359MOL0     O47264   2.891   4.064   8.412 -0.4825 -0.0807  0.1226
  359MOL0     C47265   2.769   4.024   8.340  0.1173  0.4140  0.3037
  359MOL0     C47266   2.774   3.868   8.317  0.2098 -0.0135 -0.1307
  359MOL0     C47267   2.649   3.807   8.256  0.0270  0.2330 -0.1245
  359MOL0     C47268   2.633   3.652   8.261 -0.5707 -0.6882  0.4089
  359MOL0     C47269   2.498   3.606   8.207 -0.1765 -0.3525  0.3434
  359MOL0     C47270   2.497   3.472   8.137 -0.4225 -0.1705 -0.3729
  359MOL0     C47271   2.364   3.428   8.078  0.4081 -0.4403  0.0129
  359MOL0     C47272   2.318   3.477   7.939 -0.4460 -0.2684 -0.0373
  359MOL0     N47273   2.396   3.439   7.824 -0.3637 -0.9310  0.1531
  359MOL0     C47274   2.437   3.314   7.794 -1.0853  1.1489 -0.9247
  359MOL0     C47275   2.459   3.312   7.661 -0.3489  0.1222  0.1703
  359MOL0     C47276   2.526   3.210   7.572  0.5665  0.0277  0.0999
  359MOL0     C47277   2.679   3.189   7.589  0.0095  0.4259 -0.0802
  359MOL0     C47278   2.775   3.308   7.602  0.1357  0.4301  0.6543
  359MOL0     C47279   2.755   3.411   7.481  0.4830  0.1572  0.5371
  359MOL0     O47280   2.862   3.510   7.472 -0.3135 -0.5392 -0.8202
  359MOL0     C47281   2.862   3.596   7.366 -0.8784  0.3004  0.1757
  359MOL0     C47282   2.809   3.567   7.244  0.5999 -0.4239  0.1120
  359MOL0     C47283   2.834   3.660   7.134 -0.0096  0.1683 -0.1995
  359MOL0     C47284   2.890   3.790   7.162 -0.6407  0.1363  0.1593
  359MOL0     C47285   2.908   3.884   7.052 -0.1273 -0.1619  0.0228
  359MOL0     O47286   2.895   3.838   6.919  0.0088 -0.3496  0.3328
  359MOL0     C47287   2.875   3.922   6.820 -0.0435 -0.2432  0.3140
  359MOL0     C47288   2.965   4.022   6.777  0.1507 -0.1331 -0.4585
  359MOL0     C47289   2.939   4.106   6.672  0.6366  0.5557  0.2475
  359MOL0     C47290   2.821   4.093   6.601 -0.6281 -0.7484  1.1609
  359MOL0     O47291   2.794   4.174   6.495 -0.5209  0.7879  0.4514
  359MOL0     C47292   2.854   4.311   6.485  0.4432  0.5916  0.3768
  359MOL0     C47293   2.772   4.394   6.390  0.0613  0.0458 -0.0430
  359MOL0     C47294   2.808   4.376   6.241 -0.2937 -0.4588  0.4888
  359MOL0     C47295   2.705   4.450   6.147  0.0962  0.3113 -0.2428
  359MOL0     C47296   2.704   4.418   5.995 -0.4039 -0.1170  0.1479
  359MOL0     C47297   2.691   4.270   5.972 -0.0745 -0.6477 -0.3341
  359MOL0     C47298   2.693   4.227   5.823  0.2717  0.0140  0.2934
  359MOL0     C47299   2.683   4.075   5.816 -0.2803  0.1169  0.1695
  359MOL0    Cl47300   2.544   4.019   5.915 -0.1783  0.3113 -0.2156
  359MOL0     C47301   2.732   3.994   6.638  0.8219 -0.4367  0.3336
  359MOL0     C47302   2.755   3.914   6.746  0.8677  0.3474 -0.0374
  359MOL0     O47303   2.940   4.004   7.084  0.7830 -0.2060 -0.4700
  359MOL0     C47304   2.937   3.811   7.291  0.5378 -0.7831  0.3501
  359MOL0     C47305   2.915   3.720   7.387 -0.5115  0.3324  0.2853
  359MOL0     N47306   2.418   3.432   7.610 -0.1782  0.3818 -0.5602
  359MOL0     N47307   2.387   3.511   7.708  0.2062  0.3253  0.3675
  359MOL0     C47308   2.979   4.190   8.584 -0.3925 -0.0759 -0.2340
  359MOL0     C47309   2.982   4.219   8.721  0.4225 -0.4826  0.2914
  359MOL0     C47310   3.058   4.196   9.152 -0.9606  0.1566  0.3400
  359MOL0     C47311   2.990   4.304   9.203 -0.2619  0.1775 -0.5971
  359MOL0     C47312   3.028   4.369   9.326 -0.3288  0.0665 -0.0678
  359MOL0     C47313   3.126   4.311   9.415 -0.4862 -0.6855  1.5218
  359MOL0     O47314   3.145   4.359   9.543 -1.3596 -0.0629 -0.0179
  359MOL0     C47315   3.043   4.319   9.631 -0.4933  0.2881  1.2816
  359MOL0     C47316   3.034   4.419   9.753 -1.1033  0.5077  0.1914
  359MOL0     C47317   3.179   4.448   9.821  0.2940 -0.1385  1.2074
  359MOL0     C47318   3.209   4.360   9.942 -0.5035 -0.0542 -0.0637
  359MOL0     C47319   3.175   4.218   9.927  0.4383 -0.0350  0.6218
  359MOL0     C47320   3.146   4.102   9.912 -0.1818  0.4078  0.1577
  359MOL0     C47321   3.185   4.199   9.364  0.9392 -0.0743  0.8575
  359MOL0     C47322   3.158   4.153   9.233 -0.0383 -0.7422  0.0711
  359MOL0     H47323   2.759   4.011   8.841  0.8036 -1.3788  0.5665
  359MOL0     H47324   2.733   3.966   8.606  2.4623 -1.1143 -1.5416
  359MOL0     H47325   2.767   4.069   8.240 -3.1129 -1.9323 -0.8443
  359MOL0     H47326   2.688   4.059   8.404  0.5099 -0.8633  1.5437
  359MOL0     H47327   2.805   3.828   8.414  0.7783  1.4226  0.3095
  359MOL0     H47328   2.854   3.839   8.248  1.1167  0.9246  0.4965
  359MOL0     H47329   2.652   3.849   8.155 -0.7156 -2.2013 -1.2606
  359MOL0     H47330   2.558   3.846   8.303  0.0594 -1.3832  1.3903
  359MOL0     H47331   2.705   3.600   8.198  0.7948 -3.1475  3.7120
  359MOL0     H47332   2.667   3.605   8.353  0.0399 -0.4290  0.3205
  359MOL0     H47333   2.464   3.680   8.134  1.1559  0.2811  0.3324
  359MOL0     H47334   2.422   3.611   8.286  0.5914 -0.9862  1.1327
  359MOL0     H47335   2.514   3.398   8.216 -2.3826  0.7328  0.9785
  359MOL0     H47336   2.573   3.473   8.058 -2.5570  0.3915 -2.5588
  359MOL0     H47337   2.365   3.318   8.079  1.6161 -0.4576 -0.6862
  359MOL0     H47338   2.289   3.469   8.146  0.6722  0.0859 -0.0079
  359MOL0     H47339   2.308   3.586   7.937  0.1456 -0.2180 -0.6990
  359MOL0     H47340   2.224   3.423   7.923  0.7719 -3.5619  2.6881
  359MOL0     H47341   2.436   3.228   7.860  2.0780  0.2063 -1.9495
  359MOL0     H47342   2.498   3.234   7.469  0.3988  1.1696  0.3994
  359MOL0     H47343   2.483   3.113   7.598  0.5050 -0.7191 -2.5318
  359MOL0     H47344   2.722   3.142   7.500  2.3546  0.2752  1.0662
  359MOL0     H47345   2.696   3.128   7.679 -1.6618 -0.8947 -0.5873
  359MOL0     H47346   2.758   3.362   7.695  0.4718  1.4808  0.1189
  359MOL0     H47347   2.878   3.271   7.596 -0.6806 -2.2034  1.5108
  359MOL0     H47348   2.654   3.451   7.486 -1.7124 -4.6259  0.3844
  359MOL0     H47349   2.765   3.352   7.389  3.1784  1.6478 -0.2576
  359MOL0     H47350   2.757   3.471   7.241 -0.0239 -0.2570  2.7400
  359MOL0     H47351   2.783   3.649   7.039  1.2932  0.3410 -0.9352
  359MOL0     H47352   3.058   4.037   6.832 -0.9499 -2.2717  2.2314
  359MOL0     H47353   3.004   4.190   6.649  1.1423  0.2482  0.5237
  359MOL0     H47354   2.952   4.306   6.435 -0.3901  0.3760 -1.3198
  359MOL0     H47355   2.873   4.363   6.579  0.4711  0.8417  0.2347
  359MOL0     H47356   2.783   4.495   6.429 -0.7038  0.8116 -1.6952
  359MOL0     H47357   2.667   4.366   6.407 -0.0266 -0.0640 -0.7069
  359MOL0     H47358   2.818   4.269   6.223 -1.3887 -0.4967  0.0505
  359MOL0     H47359   2.909   4.415   6.227 -0.0229 -1.2882  0.0642
  359MOL0     H47360   2.606   4.417   6.181 -0.4267  2.1365  0.1344
  359MOL0     H47361   2.709   4.560   6.153  0.8631  0.3058 -0.6071
  359MOL0     H47362   2.795   4.458   5.948  0.6955 -2.3018  0.2602
  359MOL0     H47363   2.618   4.470   5.953  1.5211  0.2154 -3.8958
  359MOL0     H47364   2.600   4.249   6.029 -0.5787  0.8158 -0.5456
  359MOL0     H47365   2.775   4.214   6.013  1.0492  0.6939 -0.7505
  359MOL0     H47366   2.614   4.268   5.758  1.9955 -0.7567 -2.4370
  359MOL0     H47367   2.790   4.264   5.789 -0.1742 -1.3589 -2.8270
  359MOL0     H47368   2.775   4.025   5.849  0.9568  2.2947  0.2136
  359MOL0     H47369   2.662   4.037   5.715 -2.5157  0.3049  0.5082
  359MOL0     H47370   2.639   3.978   6.584  1.1062 -1.1249  0.0310
  359MOL0     H47371   2.686   3.832   6.764 -1.0076  1.5974 -1.2754
  359MOL0     H47372   2.972   3.914   7.300 -0.2248 -0.5551  0.8068
  359MOL0     H47373   2.939   3.729   7.493  3.6447  1.2877 -0.5613
  359MOL0     H47374   3.041   4.247   8.516 -2.7431  4.2474  0.8704
  359MOL0     H47375   3.046   4.294   8.766 -1.2930 -1.5298  5.0556
  359MOL0     H47376   2.906   4.339   9.143  0.8392 -1.7008 -3.4126
  359MOL0     H47377   2.986   4.462   9.363  0.7464 -0.6896  3.4326
  359MOL0     H47378   3.056   4.215   9.662 -0.1185 -0.1425 -0.2692
  359MOL0     H47379   2.945   4.323   9.582 -0.6781 -1.7129  1.3848
  359MOL0     H47380   3.003   4.519   9.722  0.2154  0.6839 -0.6509
  359MOL0     H47381   2.967   4.370   9.824 -3.0957 -0.3766 -2.1484
  359MOL0     H47382   3.183   4.553   9.854  1.6119  0.4695 -0.7226
  359MOL0     H47383   3.268   4.435   9.759 -0.6129  1.3921 -0.5363
  359MOL0     H47384   3.317   4.359   9.957  0.1735 -0.7996 -3.9661
  359MOL0     H47385   3.157   4.413  10.022 -2.6769  2.3123 -2.8442
  359MOL0     H47386   3.132   3.996   9.903 -3.7845  0.4988  2.6711
  359MOL0     H47387   3.270   4.158   9.419  2.0968  1.5673  0.3957
  359MOL0     H47388   3.221   4.069   9.205 -0.0942 -0.5470 -0.6537
  360MOL0     O47389   7.176   1.305   3.304 -0.2082  1.6310 -0.2929
  360MOL0     C47390   7.138   1.262   3.201 -0.0378 -0.5594  0.9081
  360MOL0     O47391   7.049   1.160   3.190  0.4234 -0.5232  0.8017
  360MOL0     C47392   7.034   1.066   3.284  0.5434 -1.1002 -0.2298
  360MOL0     C47393   7.144   0.998   3.346 -0.0980  0.2206  0.1699
  360MOL0     C47394   7.122   0.897   3.430  0.2491  0.3862  0.1795
  360MOL0     C47395   6.989   0.866   3.472 -1.2124  0.5236  0.9764
  360MOL0     O47396   6.984   0.756   3.558  0.6988 -0.2583  0.5185
  360MOL0     C47397   6.856   0.719   3.626  0.7057  0.2572  0.4273
  360MOL0     C47398   6.819   0.818   3.731  0.4221  0.8701  0.1179
  360MOL0     C47399   6.685   0.780   3.807  0.1847 -0.7218 -0.1117
  360MOL0     C47400   6.661   0.886   3.919  0.1742  0.8185  0.1378
  360MOL0     C47401   6.524   0.859   4.000  0.2624 -0.2417  0.7435
  360MOL0     C47402   6.520   0.727   4.064 -0.1674  1.0123 -0.1244
  360MOL0     C47403   6.385   0.715   4.149  0.6901  0.6533  0.5112
  360MOL0     C47404   6.370   0.574   4.209  0.6971 -1.2305 -0.5880
  360MOL0     N47405   6.253   0.585   4.301 -0.7888 -0.1188 -0.1302
  360MOL0     C47406   6.256   0.648   4.428 -0.1195  0.7475  0.4786
  360MOL0     C47407   6.131   0.625   4.478  0.9738 -0.5673 -0.5401
  360MOL0     C47408   6.065   0.676   4.613 -0.9554  0.1306 -0.3010
  360MOL0     C47409   5.960   0.783   4.585 -0.5183 -0.5618 -0.5524
  360MOL0     C47410   5.985   0.897   4.482  0.4199  0.2005 -0.7297
  360MOL0     C47411   5.869   0.987   4.455  1.0995 -0.3329  0.5202
  360MOL0     O47412   5.903   1.112   4.385 -0.1840  0.2374 -1.2241
  360MOL0     C47413   5.798   1.190   4.351 -0.1283 -0.6447 -0.0855
  360MOL0     C47414   5.825   1.308   4.277 -0.5709  0.1699  0.2568
  360MOL0     C47415   5.734   1.405   4.232  0.7328 -0.5853  0.2687
  360MOL0     C47416   5.603   1.391   4.286 -0.4613 -0.1397  0.1514
  360MOL0     C47417   5.494   1.485   4.261 -0.3742  0.8186 -0.1045
  360MOL0     O47418   5.517   1.588   4.176 -0.3670 -0.7687  0.0205
  360MOL0     C47419   5.410   1.659   4.143  0.9856  0.0239 -0.2264
  360MOL0     C47420   5.302   1.610   4.074 -0.0132 -0.4431 -0.5109
  360MOL0     C47421   5.197   1.694   4.024 -0.2766 -0.5517  0.1288
  360MOL0     C47422   5.187   1.831   4.058 -0.2418  0.5546  0.9519
  360MOL0     O47423   5.076   1.907   4.017  0.1596  0.0092 -0.0036
  360MOL0     C47424   5.065   2.042   4.072 -1.0078  0.7282 -0.1630
  360MOL0     C47425   4.934   2.086   4.019 -0.7714 -0.7444 -1.5375
  360MOL0     C47426   4.954   2.130   3.873 -0.3434  0.8332  0.3776
  360MOL0     C47427   4.902   2.268   3.852 -0.4462  0.6341 -0.0063
  360MOL0     C47428   4.868   2.284   3.709 -0.6615  0.0349 -0.5606
  360MOL0     C47429   4.826   2.434   3.678 -0.3647  0.2975  0.3901
  360MOL0     C47430   4.866   2.459   3.526 -0.2210 -0.2943 -0.4027
  360MOL0     C47431   4.838   2.609   3.481  0.3395 -0.1112  0.2075
  360MOL0    Cl47432   4.907   2.722   3.593 -0.5418  0.4090 -0.2336
  360MOL0     C47433   5.297   1.882   4.133  1.1473 -0.1820  0.4458
  360MOL0     C47434   5.400   1.801   4.174 -0.2112  0.2774 -0.9454
  360MOL0     O47435   5.387   1.474   4.340 -0.1959  0.3055  1.0932
  360MOL0     C47436   5.581   1.294   4.379  0.0041  0.0478  0.9893
  360MOL0     C47437   5.660   1.187   4.396 -0.4811 -0.1849  0.0598
  360MOL0     N47438   6.057   0.554   4.380 -0.4562  0.6861 -0.8332
  360MOL0     N47439   6.133   0.529   4.282  0.2268 -0.4607  0.2775
  360MOL0     C47440   6.880   0.931   3.416  0.2279 -0.6540 -0.3192
  360MOL0     C47441   6.902   1.031   3.321 -0.2892  0.6512  0.5676
  360MOL0     C47442   7.183   1.331   3.077  0.1116 -0.2786 -0.1348
  360MOL0     C47443   7.121   1.299   2.956 -0.7109 -0.2312 -0.8445
  360MOL0     C47444   7.143   1.381   2.845 -0.0924  0.0710  0.0091
  360MOL0     C47445   7.230   1.493   2.854  0.0598  0.2357  0.0503
  360MOL0     O47446   7.248   1.563   2.742 -0.3064  0.1299 -0.9651
  360MOL0     C47447   7.239   1.710   2.747  0.3036  0.2116 -0.8460
  360MOL0     C47448   7.243   1.776   2.603  0.4343  0.3384  0.4939
  360MOL0     C47449   7.118   1.743   2.512  0.4114 -0.2453  0.2361
  360MOL0     C47450   7.160   1.767   2.373 -0.3860  1.0321  0.6889
  360MOL0     C47451   7.038   1.776   2.292 -0.9669 -0.4129 -0.2172
  360MOL0     C47452   6.945   1.787   2.220 -0.0937  0.4438  0.2160
  360MOL0     C47453   7.290   1.514   2.973 -0.4185 -0.2310 -0.3997
  360MOL0     C47454   7.276   1.433   3.086 -0.2031  0.7587 -0.7747
  360MOL0     H47455   7.236   1.026   3.296 -0.8659 -0.1792 -1.5263
  360MOL0     H47456   7.203   0.836   3.468 -0.8321 -0.2362  1.5948
  360MOL0     H47457   6.882   0.622   3.670  2.5722 -1.4801 -3.9533
  360MOL0     H47458   6.782   0.705   3.547  1.8958  1.9685 -1.0547
  360MOL0     H47459   6.794   0.909   3.675  0.8077  0.8866 -0.0283
  360MOL0     H47460   6.897   0.843   3.803 -0.3252  2.6986  0.3673
  360MOL0     H47461   6.694   0.681   3.852 -1.5038 -1.7781 -1.9301
  360MOL0     H47462   6.603   0.771   3.735  0.7745 -2.8825 -0.5635
  360MOL0     H47463   6.739   0.882   3.996 -1.7704 -0.6257  2.1860
  360MOL0     H47464   6.656   0.980   3.864 -0.9102  0.5903 -0.1789
  360MOL0     H47465   6.436   0.868   3.936  1.6179  0.7569 -1.0448
  360MOL0     H47466   6.528   0.942   4.072 -2.6288 -0.3830  1.1823
  360MOL0     H47467   6.613   0.695   4.113 -0.2977 -1.8428 -1.5053
  360MOL0     H47468   6.512   0.650   3.986 -3.8799 -1.4082  2.3098
  360MOL0     H47469   6.391   0.784   4.233 -2.1637 -3.4588  4.6029
  360MOL0     H47470   6.294   0.733   4.091 -1.6399  3.5883  4.5983
  360MOL0     H47471   6.461   0.546   4.262  1.0063 -0.1222 -0.5084
  360MOL0     H47472   6.362   0.500   4.129 -1.8631  0.3611 -1.9447
  360MOL0     H47473   6.343   0.702   4.465  0.4921  0.0265  0.1082
  360MOL0     H47474   6.140   0.716   4.683 -0.1909 -0.5181 -0.7264
  360MOL0     H47475   6.018   0.589   4.659  0.3757  0.9269  2.9225
  360MOL0     H47476   5.933   0.831   4.680  0.6966  1.7974 -1.2992
  360MOL0     H47477   5.870   0.731   4.551 -0.7145 -1.0477  0.6491
  360MOL0     H47478   6.064   0.960   4.523  1.6725 -0.7088 -1.6527
  360MOL0     H47479   6.028   0.858   4.389  0.0946 -1.7652 -0.1028
  360MOL0     H47480   5.822   1.011   4.551  1.0226 -1.3527  0.7450
  360MOL0     H47481   5.791   0.941   4.394  0.0684  0.0326  1.5150
  360MOL0     H47482   5.931   1.315   4.257 -0.4535 -0.0721  0.7768
  360MOL0     H47483   5.762   1.485   4.164  1.2794 -1.5280 -0.6454
  360MOL0     H47484   5.297   1.505   4.049  1.2490 -0.3114 -1.3862
  360MOL0     H47485   5.117   1.654   3.963 -0.1444 -1.1626  0.3462
  360MOL0     H47486   5.148   2.110   4.049 -0.4338 -0.1815 -0.8687
  360MOL0     H47487   5.064   2.045   4.181  5.5919 -0.2864  0.3015
  360MOL0     H47488   4.913   2.175   4.079  0.1067 -0.4433 -1.6621
  360MOL0     H47489   4.856   2.010   4.029 -0.9557 -0.5656 -1.6210
  360MOL0     H47490   4.897   2.059   3.812  0.3974 -2.3950  3.1514
  360MOL0     H47491   5.058   2.120   3.843  0.2224 -1.8236  2.7808
  360MOL0     H47492   4.810   2.270   3.911 -0.3304 -1.1478  0.3167
  360MOL0     H47493   4.987   2.333   3.875  0.6792  0.5016 -3.3525
  360MOL0     H47494   4.785   2.222   3.673 -1.2960  2.3311 -3.4936
  360MOL0     H47495   4.949   2.254   3.642  1.4259 -0.1627  1.9368
  360MOL0     H47496   4.879   2.500   3.747 -0.0114 -1.4281  1.8360
  360MOL0     H47497   4.718   2.450   3.675 -0.5414 -0.6620  1.1700
  360MOL0     H47498   4.974   2.446   3.518  0.5402  3.4056  1.6690
  360MOL0     H47499   4.813   2.385   3.466 -1.5828  1.3025 -1.2674
  360MOL0     H47500   4.731   2.627   3.468  0.3179 -1.5478 -2.4412
  360MOL0     H47501   4.881   2.644   3.387 -0.2748  1.6454  0.5442
  360MOL0     H47502   5.306   1.984   4.168  3.1099 -0.4629  0.8702
  360MOL0     H47503   5.487   1.846   4.221  1.9168 -2.9431 -1.4623
  360MOL0     H47504   5.480   1.279   4.416 -1.4438 -0.9845 -2.9256
  360MOL0     H47505   5.629   1.101   4.453  0.2077  0.7832  1.9813
  360MOL0     H47506   6.787   0.888   3.451  0.3976  0.7533  2.0955
  360MOL0     H47507   6.825   1.095   3.278  1.7535  2.3304 -0.7881
  360MOL0     H47508   7.062   1.208   2.955  1.5689 -1.8666  1.3463
  360MOL0     H47509   7.087   1.364   2.753 -0.5558 -0.9592  0.4745
  360MOL0     H47510   7.322   1.740   2.811 -0.1044 -0.6148  0.1147
  360MOL0     H47511   7.146   1.740   2.796 -0.5190 -2.8639 -0.3216
  360MOL0     H47512   7.245   1.883   2.623  0.7155  0.0568  2.1314
  360MOL0     H47513   7.333   1.749   2.547 -2.0373 -4.5803 -1.7070
  360MOL0     H47514   7.037   1.811   2.541  0.3859 -0.0173 -0.3531
  360MOL0     H47515   7.086   1.639   2.512  0.8220 -0.4323  2.9373
  360MOL0     H47516   7.233   1.846   2.355 -1.1920  1.2833 -1.9118
  360MOL0     H47517   7.208   1.676   2.336 -1.7994  0.6912 -0.3688
  360MOL0     H47518   6.865   1.816   2.155  0.1135  2.2861  0.7527
  360MOL0     H47519   7.358   1.598   2.985 -1.7928  0.7421  0.9155
  360MOL0     H47520   7.328   1.454   3.179  0.6890 -0.9124 -0.8611
  361MOL0     O47521   3.770   8.272   7.844 -0.1743 -1.0607  1.0165
  361MOL0     C47522   3.734   8.318   7.952  0.1244 -1.0459  0.2899
  361MOL0     O47523   3.604   8.359   7.993 -0.2777 -0.6608  0.6551
  361MOL0     C47524   3.505   8.340   7.901 -0.4283  0.2518  0.2210
  361MOL0     C47525   3.511   8.413   7.784 -0.3084 -0.3952  0.0909
  361MOL0     C47526   3.400   8.409   7.697  0.0738 -1.0585  0.4225
  361MOL0     C47527   3.277   8.345   7.730 -0.2896 -0.0937  0.0354
  361MOL0     O47528   3.171   8.338   7.641  0.0551  1.1707 -0.0285
  361MOL0     C47529   3.209   8.324   7.501  0.2339  0.0074 -0.0230
  361MOL0     C47530   3.094   8.284   7.421  0.2638 -0.2038  0.2847
  361MOL0     C47531   3.075   8.122   7.424 -0.2420 -0.4920 -0.3604
  361MOL0     C47532   2.966   8.076   7.333  0.7396  1.0286  0.8762
  361MOL0     C47533   2.820   8.116   7.391 -0.1388  0.3038  0.2088
  361MOL0     C47534   2.716   8.070   7.294 -0.0407  0.1197 -0.2445
  361MOL0     C47535   2.571   8.083   7.345 -0.5329  0.2780  0.5124
  361MOL0     C47536   2.469   8.014   7.253 -0.3341  1.1458 -0.3709
  361MOL0     N47537   2.370   8.116   7.211  0.3006  0.3602  0.1665
  361MOL0     C47538   2.404   8.229   7.134 -0.0836  0.4238 -0.5456
  361MOL0     C47539   2.284   8.291   7.112 -0.0164 -0.4229 -0.3830
  361MOL0     C47540   2.276   8.419   7.044  1.1548  0.2531  0.3039
  361MOL0     C47541   2.316   8.542   7.129 -0.2309  0.2948  0.6632
  361MOL0     C47542   2.328   8.653   7.033  0.0638  0.6102  0.0724
  361MOL0     C47543   2.397   8.784   7.090  0.0436  0.1903  0.3947
  361MOL0     O47544   2.322   8.834   7.200  1.3765  0.1694  0.4937
  361MOL0     C47545   2.266   8.965   7.212 -0.3861 -0.6365 -0.4484
  361MOL0     C47546   2.308   9.079   7.130  0.0119 -0.6353  0.4154
  361MOL0     C47547   2.240   9.200   7.138 -0.0377 -0.0174 -0.1036
  361MOL0     C47548   2.140   9.224   7.238 -0.6684  0.0842  0.1072
  361MOL0     C47549   2.081   9.353   7.259  0.6507  0.2589  0.2511
  361MOL0     O47550   2.159   9.464   7.280  0.3568 -0.0273 -0.2145
  361MOL0     C47551   2.282   9.452   7.336 -0.1294 -0.1243  0.0248
  361MOL0     C47552   2.293   9.447   7.468  0.2805 -0.5561 -0.4059
  361MOL0     C47553   2.414   9.444   7.534  0.3329  0.5917 -0.5606
  361MOL0     C47554   2.533   9.453   7.462  0.2247 -0.4532  0.4356
  361MOL0     O47555   2.641   9.464   7.545  0.0526 -0.1842  1.2325
  361MOL0     C47556   2.765   9.477   7.477 -0.5790 -0.0037  0.4409
  361MOL0     C47557   2.876   9.501   7.582 -0.3056  0.4480 -0.0160
  361MOL0     C47558   3.007   9.565   7.524  0.4258  0.8202  0.1588
  361MOL0     C47559   3.104   9.597   7.629  0.2656  0.4942  0.8552
  361MOL0     C47560   3.247   9.647   7.572  0.1912  0.3921 -0.8776
  361MOL0     C47561   3.349   9.644   7.682 -0.0582  0.1906 -0.9690
  361MOL0     C47562   3.501   9.663   7.642 -0.8857 -0.3367  0.4468
  361MOL0     C47563   3.552   9.535   7.581 -0.6192 -0.6915  0.9478
  361MOL0    Cl47564   3.704   9.559   7.493 -0.5024  0.2456 -0.2612
  361MOL0     C47565   2.527   9.461   7.318 -0.5981 -0.9676 -0.1236
  361MOL0     C47566   2.399   9.454   7.257  0.4720 -1.2171 -0.1768
  361MOL0     O47567   1.964   9.359   7.233 -0.1667 -0.0194 -0.6878
  361MOL0     C47568   2.103   9.112   7.314 -0.0838 -0.2096 -0.4339
  361MOL0     C47569   2.156   8.985   7.295 -0.4684  0.0160 -0.3428
  361MOL0     N47570   2.195   8.207   7.168  0.3885  0.1943  0.5370
  361MOL0     N47571   2.234   8.102   7.222  0.2229  0.0126  0.1375
  361MOL0     C47572   3.274   8.272   7.853  0.1323  0.4940  0.4295
  361MOL0     C47573   3.388   8.270   7.937 -0.0538 -0.3655 -0.1883
  361MOL0     C47574   3.836   8.335   8.048 -1.1635 -0.5490  0.4592
  361MOL0     C47575   3.835   8.444   8.141  0.6546 -0.7504  0.0782
  361MOL0     C47576   3.944   8.480   8.226  0.0214  0.7027  0.5770
  361MOL0     C47577   4.056   8.395   8.220  0.5372 -0.1172  0.4643
  361MOL0     O47578   4.153   8.422   8.308 -0.1972 -0.7786 -0.4436
  361MOL0     C47579   4.293   8.391   8.277 -0.7245 -0.0840  0.0604
  361MOL0     C47580   4.371   8.334   8.399  1.1178  0.6783  0.5531
  361MOL0     C47581   4.295   8.214   8.464  0.4222  0.1343  0.4555
  361MOL0     C47582   4.342   8.190   8.606  0.1713 -0.7166  0.9850
  361MOL0     C47583   4.483   8.144   8.593  0.0921  1.1710 -0.2634
  361MOL0     C47584   4.595   8.091   8.592  0.3039  0.8007  0.8145
  361MOL0     C47585   4.057   8.283   8.133 -0.4160 -0.7466 -0.1488
  361MOL0     C47586   3.949   8.255   8.049 -0.4166  0.2410 -0.2978
  361MOL0     H47587   3.590   8.484   7.763  0.1295 -1.0042 -0.3491
  361MOL0     H47588   3.402   8.464   7.604 -0.7578  0.5880  1.3311
  361MOL0     H47589   3.286   8.249   7.486 -0.5632 -1.1375  1.3500
  361MOL0     H47590   3.240   8.422   7.463  1.7846  0.0125  1.1498
  361MOL0     H47591   3.111   8.327   7.322 -0.8960 -2.3116 -0.9049
  361MOL0     H47592   3.005   8.328   7.466 -2.6514 -1.6776 -3.5311
  361MOL0     H47593   3.054   8.087   7.525  1.8974 -0.6944  0.0573
  361MOL0     H47594   3.165   8.063   7.405 -1.0731 -1.5601 -1.1145
  361MOL0     H47595   2.982   8.109   7.230  0.3417 -1.2974 -0.0021
  361MOL0     H47596   2.964   7.967   7.324 -2.9214  0.8018  2.5493
  361MOL0     H47597   2.805   8.224   7.402  3.6409  0.7883  2.2614
  361MOL0     H47598   2.818   8.067   7.489 -0.7036  2.6186  1.4077
  361MOL0     H47599   2.744   7.972   7.253  1.2630 -0.3220  1.5939
  361MOL0     H47600   2.733   8.139   7.211  3.4073 -0.9466 -0.6015
  361MOL0     H47601   2.568   8.056   7.451  2.3536 -1.0535  0.3485
  361MOL0     H47602   2.563   8.192   7.338  1.9407  0.4567 -0.4346
  361MOL0     H47603   2.427   7.932   7.312  1.0447  1.0351  0.4981
  361MOL0     H47604   2.516   7.962   7.168 -1.9876 -1.5566  0.2274
  361MOL0     H47605   2.504   8.261   7.107  1.5209 -2.3657  1.5583
  361MOL0     H47606   2.176   8.427   7.000 -0.0263 -5.6764  1.0591
  361MOL0     H47607   2.349   8.401   6.964  0.5862 -0.1262 -0.1346
  361MOL0     H47608   2.401   8.529   7.196 -2.4685  0.3941  3.7143
  361MOL0     H47609   2.231   8.581   7.185 -0.9388 -2.4540  1.6831
  361MOL0     H47610   2.394   8.623   6.951 -1.1727 -3.1464  0.2787
  361MOL0     H47611   2.232   8.687   6.994  0.9832  1.1043 -1.9148
  361MOL0     H47612   2.399   8.851   7.004  0.7813 -0.0152  0.2447
  361MOL0     H47613   2.500   8.769   7.121  0.6078 -1.4566 -2.0010
  361MOL0     H47614   2.379   9.068   7.048 -2.0867  1.2104 -1.7844
  361MOL0     H47615   2.274   9.275   7.068 -3.7800 -0.1981 -2.3751
  361MOL0     H47616   2.200   9.437   7.522 -1.1573  2.4108 -2.1307
  361MOL0     H47617   2.413   9.418   7.639 -2.4230 -2.1611 -1.1193
  361MOL0     H47618   2.767   9.567   7.415  4.3498 -0.6072 -0.7103
  361MOL0     H47619   2.794   9.399   7.405  1.7143  1.9063 -0.8329
  361MOL0     H47620   2.894   9.413   7.645 -1.7869  1.3620  1.8080
  361MOL0     H47621   2.833   9.583   7.641  1.2696  1.7937 -0.6530
  361MOL0     H47622   2.970   9.657   7.477  0.4523  0.6137 -0.2695
  361MOL0     H47623   3.045   9.489   7.456 -2.0320  0.3852 -0.8458
  361MOL0     H47624   3.065   9.682   7.687 -4.5817 -0.2044 -0.9165
  361MOL0     H47625   3.114   9.504   7.685 -3.1271 -1.1326 -0.9538
  361MOL0     H47626   3.240   9.749   7.534  1.2091  1.2745  1.1442
  361MOL0     H47627   3.280   9.575   7.497 -1.6070 -1.1980 -0.2202
  361MOL0     H47628   3.343   9.545   7.727 -2.6581  1.6207  2.2441
  361MOL0     H47629   3.309   9.715   7.755  1.6020  0.7676 -0.5791
  361MOL0     H47630   3.517   9.743   7.570 -1.9781 -1.7499 -1.4616
  361MOL0     H47631   3.562   9.691   7.728 -1.1225  4.9331 -0.7878
  361MOL0     H47632   3.477   9.498   7.512  2.4700 -0.3665 -2.9426
  361MOL0     H47633   3.568   9.464   7.663  0.3069 -1.3075  0.2450
  361MOL0     H47634   2.609   9.470   7.247  0.5564  3.6056  1.4311
  361MOL0     H47635   2.383   9.482   7.154 -2.3330  0.8477  0.6924
  361MOL0     H47636   2.018   9.108   7.381  0.0991  0.0289 -0.1836
  361MOL0     H47637   2.105   8.904   7.346  0.5633  1.3405  3.1226
  361MOL0     H47638   3.185   8.213   7.877  0.4702 -0.4535 -0.5657
  361MOL0     H47639   3.382   8.229   8.037 -0.7792  0.3703  0.0833
  361MOL0     H47640   3.740   8.497   8.140  0.9995 -0.1047  0.8631
  361MOL0     H47641   3.952   8.559   8.300 -3.3460  1.9825 -0.2649
  361MOL0     H47642   4.347   8.484   8.256  0.7160 -0.4845  1.7621
  361MOL0     H47643   4.310   8.327   8.189  0.4874  0.8349 -0.4058
  361MOL0     H47644   4.466   8.287   8.371  2.0783  1.5956  2.0996
  361MOL0     H47645   4.386   8.416   8.471  0.6078  1.8146 -0.6021
  361MOL0     H47646   4.321   8.126   8.405  0.7438 -0.8910  2.0694
  361MOL0     H47647   4.187   8.230   8.461  0.9013  4.8174  0.5270
  361MOL0     H47648   4.330   8.284   8.660  2.0361 -0.6647  1.3535
  361MOL0     H47649   4.285   8.100   8.633 -0.4017 -0.9366 -0.8069
  361MOL0     H47650   4.692   8.048   8.578 -1.0708 -1.7854 -1.5026
  361MOL0     H47651   4.142   8.218   8.113  1.3988  1.8696 -1.4153
  361MOL0     H47652   3.963   8.173   7.980  1.2826  1.5587 -1.5910
  362MOL0     O47653   7.493   4.336   8.643 -0.0879 -0.1778 -0.4520
  362MOL0     C47654   7.468   4.250   8.725 -0.2623  0.4184  0.3238
  362MOL0     O47655   7.382   4.260   8.835 -0.6360 -0.4291  0.1579
  362MOL0     C47656   7.291   4.364   8.855 -0.7987 -0.6848  0.2425
  362MOL0     C47657   7.273   4.473   8.772  0.3354  0.6962 -0.2379
  362MOL0     C47658   7.188   4.585   8.814 -0.0176  0.6569 -0.0613
  362MOL0     C47659   7.129   4.594   8.945  0.4929 -0.5330 -0.1730
  362MOL0     O47660   7.075   4.705   8.999 -0.0093 -0.0137 -0.9961
  362MOL0     C47661   7.061   4.822   8.924  0.3710 -0.2796 -0.1345
  362MOL0     C47662   7.003   4.930   9.003 -0.2175 -0.3406 -0.0988
  362MOL0     C47663   7.040   5.071   8.948 -0.6197  0.7026 -0.7666
  362MOL0     C47664   6.984   5.187   9.021  0.4972 -0.8118  0.6904
  362MOL0     C47665   7.019   5.320   8.944  0.9252 -0.2176 -0.3540
  362MOL0     C47666   6.939   5.335   8.816 -0.0733 -0.5014 -0.6132
  362MOL0     C47667   7.014   5.424   8.714 -0.3490 -0.9905 -0.6773
  362MOL0     C47668   6.926   5.486   8.595 -0.1604 -0.7754  0.4010
  362MOL0     N47669   6.839   5.588   8.644 -0.8346 -0.9033  0.4457
  362MOL0     C47670   6.878   5.715   8.685 -0.3730  0.5918 -0.2897
  362MOL0     C47671   6.771   5.776   8.743  0.6261  0.6706  1.0147
  362MOL0     C47672   6.775   5.900   8.822 -0.6745 -0.2526 -0.0700
  362MOL0     C47673   6.700   6.005   8.749  0.1248  0.3783  0.0905
  362MOL0     C47674   6.586   6.062   8.839 -0.7697  0.7204 -0.0352
  362MOL0     C47675   6.483   6.129   8.757 -0.0310 -0.2614 -0.8576
  362MOL0     O47676   6.531   6.262   8.737 -0.7663  0.2492 -0.2406
  362MOL0     C47677   6.435   6.358   8.731 -0.7601 -0.9101 -0.0272
  362MOL0     C47678   6.467   6.482   8.785  0.1692  0.1936 -0.5949
  362MOL0     C47679   6.396   6.602   8.768  0.6242  1.5465 -0.1893
  362MOL0     C47680   6.267   6.588   8.718 -0.3322 -0.9739  0.0069
  362MOL0     C47681   6.182   6.716   8.689  0.7248  0.1462 -1.4266
  362MOL0     O47682   6.056   6.694   8.652  0.4674 -1.0063 -0.3363
  362MOL0     C47683   5.965   6.797   8.641  0.2008 -0.4638 -0.0658
  362MOL0     C47684   5.883   6.814   8.758  0.2621 -0.3218  0.7449
  362MOL0     C47685   5.803   6.928   8.783 -0.0896 -0.7417  0.0738
  362MOL0     C47686   5.813   7.034   8.685 -0.0977  0.6801 -1.2071
  362MOL0     O47687   5.739   7.146   8.693 -0.2099 -0.3604  0.2250
  362MOL0     C47688   5.653   7.179   8.581 -1.1206 -0.8493  0.2667
  362MOL0     C47689   5.522   7.101   8.571  0.6316 -0.0168 -0.6879
  362MOL0     C47690   5.437   7.139   8.449 -0.1672  0.5938 -0.5733
  362MOL0     C47691   5.505   7.058   8.328  0.1149 -0.2407 -0.1212
  362MOL0     C47692   5.434   7.125   8.203  0.9930 -0.0848 -0.0324
  362MOL0     C47693   5.469   7.272   8.159 -0.1706  0.5409 -1.2357
  362MOL0     C47694   5.468   7.294   8.002  0.6789 -0.6828 -0.8118
  362MOL0     C47695   5.492   7.450   7.971 -0.3047  0.4319 -0.1033
  362MOL0    Cl47696   5.359   7.559   8.034  0.1150 -0.5900 -0.1462
  362MOL0     C47697   5.905   7.014   8.580  0.3137 -1.0875 -0.0722
  362MOL0     C47698   5.975   6.906   8.552 -0.1331 -0.3688  0.0145
  362MOL0     O47699   6.229   6.825   8.717  0.6066  0.0993  0.4655
  362MOL0     C47700   6.231   6.463   8.662  0.1276 -0.1851 -0.2359
  362MOL0     C47701   6.318   6.354   8.662 -0.2457  0.7905  0.8309
  362MOL0     N47702   6.660   5.685   8.739 -0.7655 -0.0383  0.2835
  362MOL0     N47703   6.705   5.578   8.684  0.1492  0.2034  0.9479
  362MOL0     C47704   7.139   4.476   9.014 -0.1484 -0.0374  0.2155
  362MOL0     C47705   7.222   4.370   8.976 -0.2093  0.2783  0.3877
  362MOL0     C47706   7.552   4.121   8.711 -1.8295  0.4258 -0.2051
  362MOL0     C47707   7.558   4.025   8.813  0.1886  0.0002  0.1304
  362MOL0     C47708   7.646   3.918   8.806 -0.0676 -0.1678 -0.4523
  362MOL0     C47709   7.741   3.913   8.704  0.3114  0.0694  0.3307
  362MOL0     O47710   7.826   3.799   8.708 -0.0406 -0.4683  0.2000
  362MOL0     C47711   7.947   3.812   8.641  0.1230  0.6222  0.4680
  362MOL0     C47712   8.033   3.694   8.678 -0.6025 -0.0990  0.5393
  362MOL0     C47713   8.151   3.681   8.575 -0.1872 -0.0724 -0.0903
  362MOL0     C47714   8.250   3.573   8.630 -0.3684  0.4721 -0.6991
  362MOL0     C47715   8.380   3.579   8.554 -0.3771 -1.0395 -0.8837
  362MOL0     C47716   8.479   3.565   8.488  0.0432 -0.0599 -0.6067
  362MOL0     C47717   7.748   4.007   8.608  0.5536  0.2904  0.3893
  362MOL0     C47718   7.651   4.112   8.610 -0.3620 -0.8634  0.9575
  362MOL0     H47719   7.305   4.472   8.668 -3.5248  0.7764 -1.5959
  362MOL0     H47720   7.191   4.660   8.736  0.1418  0.7138 -0.0019
  362MOL0     H47721   6.983   4.809   8.849 -1.6725  1.8188  1.4677
  362MOL0     H47722   7.151   4.850   8.868 -0.0457  2.6794  0.5120
  362MOL0     H47723   7.059   4.910   9.095 -1.8606 -2.9608  0.4457
  362MOL0     H47724   6.899   4.910   9.031 -0.0731 -1.2009 -0.1432
  362MOL0     H47725   6.994   5.077   8.849 -1.1541  0.4673 -0.5337
  362MOL0     H47726   7.148   5.086   8.936 -0.3620  1.4249  1.8330
  362MOL0     H47727   6.876   5.171   9.026  0.4055 -0.0802  1.3491
  362MOL0     H47728   7.032   5.187   9.120 -0.3568 -1.8654  1.1272
  362MOL0     H47729   7.125   5.318   8.915  0.7037 -0.3634 -1.1675
  362MOL0     H47730   6.996   5.409   9.003  2.8285 -1.1909  2.0687
  362MOL0     H47731   6.840   5.375   8.841 -0.2738 -1.8553  0.9586
  362MOL0     H47732   6.921   5.240   8.764  3.3381 -2.5327  1.5577
  362MOL0     H47733   7.055   5.508   8.772  0.0922 -2.8457  1.8473
  362MOL0     H47734   7.104   5.371   8.683  0.9419 -0.9623  2.6317
  362MOL0     H47735   6.861   5.403   8.567  0.2868 -2.0018  2.7480
  362MOL0     H47736   6.985   5.533   8.516 -0.6133  3.0889  2.1204
  362MOL0     H47737   6.974   5.766   8.694 -1.1824  1.8214  3.8771
  362MOL0     H47738   6.879   5.932   8.834 -0.8079 -0.1172  0.8588
  362MOL0     H47739   6.739   5.871   8.921  2.1380 -1.2285  0.7503
  362MOL0     H47740   6.666   5.974   8.650  4.3401  1.5974 -1.9953
  362MOL0     H47741   6.775   6.079   8.719  1.3447  0.8594  3.7711
  362MOL0     H47742   6.542   5.979   8.895  1.5654  0.1648  1.0835
  362MOL0     H47743   6.629   6.141   8.901  1.0525  0.9654 -1.5161
  362MOL0     H47744   6.386   6.143   8.806 -0.5461 -0.5273 -1.7746
  362MOL0     H47745   6.447   6.072   8.670 -1.0027 -0.2516 -0.4732
  362MOL0     H47746   6.572   6.488   8.809  1.0933  1.7309 -4.3572
  362MOL0     H47747   6.440   6.696   8.797 -3.1369  3.3265  0.3192
  362MOL0     H47748   5.862   6.739   8.834 -2.9864  0.7081  0.9985
  362MOL0     H47749   5.732   6.947   8.863 -1.7910 -1.1804 -1.2715
  362MOL0     H47750   5.704   7.167   8.485  2.3226 -2.9457  2.1761
  362MOL0     H47751   5.632   7.285   8.595  1.6526 -0.1337 -0.3728
  362MOL0     H47752   5.471   7.119   8.666  1.1944  1.7670 -0.6860
  362MOL0     H47753   5.560   6.999   8.569  0.3111 -0.1649  0.3953
  362MOL0     H47754   5.426   7.246   8.430  0.5804  0.9995  1.1097
  362MOL0     H47755   5.335   7.102   8.452  0.0567 -0.1442 -1.5552
  362MOL0     H47756   5.612   7.078   8.320 -0.2283  2.3944  0.7216
  362MOL0     H47757   5.475   6.953   8.325  3.3246 -1.3349 -4.6612
  362MOL0     H47758   5.325   7.121   8.219  1.1872  2.6608  3.2943
  362MOL0     H47759   5.463   7.053   8.126 -0.4913  0.6482 -1.3345
  362MOL0     H47760   5.567   7.296   8.201 -0.2176 -2.2799  0.7434
  362MOL0     H47761   5.397   7.341   8.204 -0.2211  1.1299 -2.1833
  362MOL0     H47762   5.542   7.228   7.955 -0.3484 -1.9123 -0.7545
  362MOL0     H47763   5.375   7.256   7.959  0.9631 -1.2025 -0.9797
  362MOL0     H47764   5.493   7.458   7.862 -1.7112 -0.1471 -0.1712
  362MOL0     H47765   5.594   7.470   8.006  0.4982  1.7425 -2.8963
  362MOL0     H47766   5.918   7.099   8.514  0.3360  0.2126  1.5550
  362MOL0     H47767   6.052   6.908   8.474  0.6414 -0.4492  0.7646
  362MOL0     H47768   6.133   6.446   8.619  0.5363 -1.4002 -0.7371
  362MOL0     H47769   6.283   6.263   8.613  0.4568  1.3778 -0.8142
  362MOL0     H47770   7.102   4.471   9.116  1.0485 -0.5800  0.6331
  362MOL0     H47771   7.240   4.291   9.049 -4.3182  0.8611  2.2647
  362MOL0     H47772   7.511   4.038   8.910  0.7086 -1.4698  0.6024
  362MOL0     H47773   7.648   3.845   8.886 -4.0631  0.2307  0.1893
  362MOL0     H47774   7.992   3.907   8.673  0.4964  1.2252 -1.6620
  362MOL0     H47775   7.937   3.829   8.533  1.2206 -0.4467  0.1733
  362MOL0     H47776   8.072   3.708   8.780  2.9299 -0.2964 -0.6579
  362MOL0     H47777   7.983   3.597   8.668  2.2748 -1.9958  2.9075
  362MOL0     H47778   8.198   3.779   8.566  2.4031 -1.2967 -0.6502
  362MOL0     H47779   8.114   3.650   8.477 -4.3861 -1.5607  1.7134
  362MOL0     H47780   8.273   3.601   8.734 -1.8762  1.0208 -0.4824
  362MOL0     H47781   8.209   3.472   8.625 -0.1799  0.2026  1.6615
  362MOL0     H47782   8.549   3.558   8.407 -1.0473  0.2129 -1.5918
  362MOL0     H47783   7.814   3.996   8.523 -1.8421 -0.0511 -1.5615
  362MOL0     H47784   7.661   4.196   8.541 -5.1532 -1.5165 -0.8882
  363MOL0     O47785   4.905   8.537   2.853 -0.7398 -0.0973  0.0103
  363MOL0     C47786   4.973   8.587   2.764 -0.6929 -0.1408 -0.5752
  363MOL0     O47787   4.954   8.716   2.723  0.0111  0.7895  0.1022
  363MOL0     C47788   4.885   8.800   2.797 -0.5220 -0.7290  0.7311
  363MOL0     C47789   4.783   8.872   2.729  0.3235 -0.7061 -0.3696
  363MOL0     C47790   4.724   8.980   2.805 -0.6713 -0.1789 -0.4014
  363MOL0     C47791   4.750   9.006   2.941 -1.7661  0.3735 -0.1297
  363MOL0     O47792   4.690   9.109   3.011 -0.1578  0.5930 -0.3890
  363MOL0     C47793   4.773   9.221   3.048  0.7807  0.0189 -0.7986
  363MOL0     C47794   4.758   9.328   2.940 -0.7377 -1.3394 -1.0058
  363MOL0     C47795   4.631   9.398   2.922 -1.3658  0.6356  0.9707
  363MOL0     C47796   4.590   9.508   3.010 -0.3006  0.5921 -0.6214
  363MOL0     C47797   4.442   9.539   2.986  0.7209 -0.2721 -0.6897
  363MOL0     C47798   4.395   9.647   3.086  0.3229  0.2242 -0.1231
  363MOL0     C47799   4.267   9.713   3.042 -0.1414 -0.0774  0.0984
  363MOL0     C47800   4.288   9.830   2.946 -1.0301 -0.2384 -0.3077
  363MOL0     N47801   4.176   9.907   2.920 -0.0218 -1.2513  0.0534
  363MOL0     C47802   4.149   9.968   2.801 -0.1784  0.2280 -0.2166
  363MOL0     C47803   4.044  10.049   2.830  0.1422  0.1431 -0.9359
  363MOL0     C47804   3.954  10.114   2.741  1.2579 -0.0306  0.6939
  363MOL0     C47805   3.881  10.002   2.660  0.6242  1.2108 -0.1352
  363MOL0     C47806   3.737  10.038   2.611 -0.0294  0.9498  0.1587
  363MOL0     C47807   3.742  10.124   2.487  0.1338  0.1054  0.6112
  363MOL0     O47808   3.805  10.041   2.385  0.6558 -0.5398 -0.3575
  363MOL0     C47809   3.843  10.105   2.275  0.5455 -0.2462  0.1980
  363MOL0     C47810   3.743  10.147   2.183 -0.4550  0.4919  0.2414
  363MOL0     C47811   3.756  10.207   2.058 -0.7217 -0.0038 -0.6170
  363MOL0     C47812   3.892  10.225   2.023 -0.3248 -0.4798  1.1754
  363MOL0     C47813   3.929  10.276   1.887 -0.3515 -0.7389 -0.2022
  363MOL0     O47814   4.056  10.270   1.843 -0.1588  0.7595  0.6880
  363MOL0     C47815   4.090  10.295   1.710  0.1241 -0.2329 -0.3151
  363MOL0     C47816   4.216  10.357   1.695 -0.1317 -0.2602 -0.5117
  363MOL0     C47817   4.261  10.399   1.574 -0.5523  0.1637 -0.6675
  363MOL0     C47818   4.182  10.390   1.463 -0.3498 -0.0410  0.1868
  363MOL0     O47819   4.239  10.438   1.345 -0.0819 -0.7910 -0.1592
  363MOL0     C47820   4.252  10.339   1.246 -0.5609 -0.0471 -0.4035
  363MOL0     C47821   4.353  10.390   1.144 -1.0996 -0.5335  0.9118
  363MOL0     C47822   4.301  10.490   1.041 -0.0699  0.1562 -0.2327
  363MOL0     C47823   4.415  10.565   0.964  0.5156  0.1220 -0.3359
  363MOL0     C47824   4.530  10.482   0.908 -0.0220  0.2775 -0.3431
  363MOL0     C47825   4.649  10.570   0.864  0.8836  0.3942  0.0413
  363MOL0     C47826   4.610  10.662   0.748 -0.6321  0.4195  0.2294
  363MOL0     C47827   4.726  10.707   0.663 -0.1815  0.1985  0.0469
  363MOL0    Cl47828   4.824  10.571   0.612 -0.2550 -0.1402  0.0164
  363MOL0     C47829   4.058  10.328   1.465 -0.0496 -0.4540 -0.5226
  363MOL0     C47830   4.011  10.288   1.591  0.0597  0.6844 -0.4710
  363MOL0     O47831   3.832  10.308   1.823 -0.0288  0.9673  0.4253
  363MOL0     C47832   3.996  10.193   2.115  0.3509  0.8701 -0.3135
  363MOL0     C47833   3.973  10.126   2.236 -0.1903  0.7427  1.1744
  363MOL0     N47834   4.002  10.021   2.963 -0.1907  0.6543  0.3606
  363MOL0     N47835   4.093   9.951   3.016 -0.2230 -0.0761 -0.2328
  363MOL0     C47836   4.852   8.931   3.008 -0.1506  0.3676  0.4184
  363MOL0     C47837   4.915   8.835   2.924 -0.4150  0.4694 -1.2563
  363MOL0     C47838   5.083   8.517   2.699 -0.1687  0.5231 -0.0842
  363MOL0     C47839   5.158   8.582   2.596 -0.0003 -0.2318 -0.4537
  363MOL0     C47840   5.261   8.520   2.527  0.3395  0.0830  0.3788
  363MOL0     C47841   5.290   8.387   2.557 -0.5106 -0.0224  0.8746
  363MOL0     O47842   5.392   8.323   2.498  0.4344  0.6709 -0.2534
  363MOL0     C47843   5.505   8.395   2.437 -0.6119 -0.4895  0.2533
  363MOL0     C47844   5.500   8.413   2.285  0.3609 -0.1507 -0.1957
  363MOL0     C47845   5.531   8.277   2.228  0.7112 -0.5889  0.1410
  363MOL0     C47846   5.538   8.268   2.068 -0.3681 -0.4847  0.0541
  363MOL0     C47847   5.582   8.385   2.001 -1.2386 -1.1178  0.4029
  363MOL0     C47848   5.627   8.479   1.938  0.6987 -0.0486  0.5755
  363MOL0     C47849   5.222   8.323   2.663  1.0213 -0.0881  0.0612
  363MOL0     C47850   5.118   8.382   2.734  0.4070  0.3157  0.4005
  363MOL0     H47851   4.752   8.863   2.626 -1.5712 -0.3276  0.1305
  363MOL0     H47852   4.654   9.045   2.753  1.3775  0.3583 -2.6782
  363MOL0     H47853   4.879   9.200   3.066  1.2925  2.4013 -0.7509
  363MOL0     H47854   4.738   9.249   3.148  2.5803 -1.6864  0.4096
  363MOL0     H47855   4.803   9.280   2.853  1.3635  0.2746 -0.8775
  363MOL0     H47856   4.823   9.405   2.983  1.0927 -2.2480 -2.0193
  363MOL0     H47857   4.561   9.313   2.930 -1.6672  0.7643 -0.2238
  363MOL0     H47858   4.627   9.444   2.823 -0.7144  0.3494  0.8085
  363MOL0     H47859   4.602   9.476   3.113 -4.1231 -1.9590 -0.7501
  363MOL0     H47860   4.657   9.595   3.004 -1.2849  1.5657  1.3774
  363MOL0     H47861   4.380   9.450   3.004 -1.7850  1.7759  1.5472
  363MOL0     H47862   4.427   9.588   2.889  0.9194  3.8873  1.1742
  363MOL0     H47863   4.475   9.722   3.092  0.2499  0.4828 -1.8112
  363MOL0     H47864   4.381   9.613   3.189  0.1261  0.4544 -0.0733
  363MOL0     H47865   4.199   9.633   3.014 -0.6667 -0.0402  1.2232
  363MOL0     H47866   4.224   9.754   3.134  0.9536  1.1195  0.1252
  363MOL0     H47867   4.329   9.792   2.852  1.5040 -0.1498  0.6855
  363MOL0     H47868   4.361   9.897   2.991 -0.7361  0.2590 -1.4758
  363MOL0     H47869   4.197   9.953   2.705 -0.4861  1.0927 -0.5129
  363MOL0     H47870   4.000  10.192   2.679 -0.0615 -1.6008 -2.5015
  363MOL0     H47871   3.874  10.161   2.800 -2.0051 -4.1135 -0.0131
  363MOL0     H47872   3.864   9.926   2.738 -0.8340 -0.9209 -2.3561
  363MOL0     H47873   3.947   9.963   2.582 -1.1957  0.9285 -1.6296
  363MOL0     H47874   3.670   9.958   2.578  1.5863  0.5777 -2.5298
  363MOL0     H47875   3.690  10.092   2.694 -0.4770 -1.2587  1.4265
  363MOL0     H47876   3.799  10.212   2.520 -0.6522  0.3859  1.2503
  363MOL0     H47877   3.639  10.151   2.462  0.5882  0.4527 -0.9923
  363MOL0     H47878   3.641  10.135   2.219  0.2828 -0.9912  1.9795
  363MOL0     H47879   3.670  10.225   1.994 -3.2304 -1.6685  2.0560
  363MOL0     H47880   4.283  10.375   1.778  0.1301  0.1352 -0.8024
  363MOL0     H47881   4.361  10.440   1.559 -0.5615  0.2068 -0.6087
  363MOL0     H47882   4.155  10.343   1.195 -0.4285  0.1048 -0.6422
  363MOL0     H47883   4.282  10.242   1.288  3.2531  0.8499 -0.7847
  363MOL0     H47884   4.400  10.308   1.090  2.0347  0.6972  1.5646
  363MOL0     H47885   4.440  10.432   1.196 -1.3188  0.9991  0.0913
  363MOL0     H47886   4.240  10.563   1.096  0.8241 -1.8408  3.8266
  363MOL0     H47887   4.233  10.436   0.976 -1.4528  3.3886 -1.6867
  363MOL0     H47888   4.352  10.617   0.891 -0.3170 -0.5349 -0.1011
  363MOL0     H47889   4.450  10.645   1.029 -0.1719 -0.0738  0.2911
  363MOL0     H47890   4.482  10.425   0.828 -2.4691  0.4650  0.8950
  363MOL0     H47891   4.574  10.407   0.974  1.1636  2.6311  1.6992
  363MOL0     H47892   4.733  10.502   0.845  0.4913 -0.7171  2.0063
  363MOL0     H47893   4.660  10.626   0.957 -0.7162 -0.9025  1.0548
  363MOL0     H47894   4.540  10.611   0.681  1.6999 -3.4585  0.4402
  363MOL0     H47895   4.563  10.756   0.779  2.2820  2.4668 -1.0755
  363MOL0     H47896   4.782  10.784   0.716 -0.0914  0.7152 -0.7827
  363MOL0     H47897   4.683  10.757   0.575  1.3670  1.5096 -0.0224
  363MOL0     H47898   3.983  10.338   1.386 -2.5933  2.4120  1.9990
  363MOL0     H47899   3.909  10.250   1.591 -0.1648  1.2491 -1.0110
  363MOL0     H47900   4.098  10.217   2.088  1.4236 -1.7087  1.0588
  363MOL0     H47901   4.061  10.093   2.290  1.5472  0.3233 -1.7585
  363MOL0     H47902   4.883   8.951   3.109 -2.0436  2.9199  0.5841
  363MOL0     H47903   5.002   8.784   2.963 -0.1972  1.9019  0.2706
  363MOL0     H47904   5.119   8.679   2.569 -4.7081 -1.6487  0.4259
  363MOL0     H47905   5.315   8.570   2.448 -1.3061  1.0997 -0.1456
  363MOL0     H47906   5.595   8.337   2.460 -0.4167  0.8214  3.2434
  363MOL0     H47907   5.526   8.495   2.476  1.0642 -0.5760 -0.3628
  363MOL0     H47908   5.400   8.457   2.276  1.2491  1.5511 -3.4332
  363MOL0     H47909   5.579   8.483   2.256 -1.9156  0.8629 -4.9664
  363MOL0     H47910   5.448   8.213   2.259  0.5880  0.9695  3.3623
  363MOL0     H47911   5.629   8.234   2.251 -0.1754 -2.1121  1.2905
  363MOL0     H47912   5.606   8.187   2.042  0.6381 -0.0812  1.2957
  363MOL0     H47913   5.442   8.241   2.023 -0.1861 -0.1166 -0.5563
  363MOL0     H47914   5.667   8.559   1.878  1.6590 -0.3803  0.7560
  363MOL0     H47915   5.231   8.217   2.680  0.3729 -0.8675 -3.6169
  363MOL0     H47916   5.074   8.331   2.819 -1.1667 -3.3115 -2.2976
  364MOL0     O47917   7.470   8.991   9.149 -0.2627 -0.1928  0.7226
  364MOL0     C47918   7.492   8.871   9.149 -0.4829  0.7498 -0.1551
  364MOL0     O47919   7.396   8.767   9.153  0.8394 -0.3399  0.1822
  364MOL0     C47920   7.271   8.794   9.107  0.2512 -0.7694  1.2193
  364MOL0     C47921   7.240   8.874   8.989  0.6442  0.6233  0.1301
  364MOL0     C47922   7.108   8.903   8.960  0.7746  0.3465 -0.1619
  364MOL0     C47923   7.000   8.866   9.040 -0.6956 -0.1231  0.0826
  364MOL0     O47924   6.875   8.887   9.003  1.4252  0.4998 -0.1641
  364MOL0     C47925   6.783   8.778   8.995 -0.3185  0.0029 -0.3214
  364MOL0     C47926   6.649   8.840   8.933  0.2167 -0.0457 -0.0397
  364MOL0     C47927   6.556   8.726   8.892  0.0212 -0.2413  0.4780
  364MOL0     C47928   6.583   8.666   8.757  0.9371 -0.2642 -0.3406
  364MOL0     C47929   6.481   8.553   8.729 -0.1595 -0.2357  0.2990
  364MOL0     C47930   6.516   8.483   8.593  0.2908 -0.0475 -0.4884
  364MOL0     C47931   6.403   8.379   8.557  0.0275 -0.4027 -0.5651
  364MOL0     C47932   6.430   8.270   8.446 -0.2040 -0.2573  0.7936
  364MOL0     N47933   6.299   8.206   8.413  0.3473 -1.4289  0.6704
  364MOL0     C47934   6.189   8.184   8.493 -0.0575  0.5064 -0.2697
  364MOL0     C47935   6.089   8.140   8.409 -0.8907 -0.4462  0.3560
  364MOL0     C47936   5.948   8.104   8.452  0.7890 -0.1854 -0.4946
  364MOL0     C47937   5.831   8.182   8.395 -0.5886 -0.9571 -0.3380
  364MOL0     C47938   5.704   8.212   8.489 -0.1664  0.3617 -0.2606
  364MOL0     C47939   5.584   8.271   8.414 -0.1414 -0.0028  0.0121
  364MOL0     O47940   5.628   8.385   8.332  0.6460  0.1202  0.2878
  364MOL0     C47941   5.538   8.448   8.253  0.5147  0.7344  0.6360
  364MOL0     C47942   5.448   8.371   8.178 -0.1460  0.4436 -0.0134
  364MOL0     C47943   5.360   8.424   8.090  0.7564 -0.0495 -0.4330
  364MOL0     C47944   5.340   8.563   8.088 -0.2724 -0.0401 -0.6624
  364MOL0     C47945   5.228   8.621   8.016  0.0682  0.8395 -0.0197
  364MOL0     O47946   5.180   8.542   7.916  0.4497 -0.0358 -0.0187
  364MOL0     C47947   5.081   8.575   7.832  0.5620 -0.3126 -0.3108
  364MOL0     C47948   5.074   8.690   7.749 -0.1464  1.0858 -0.2740
  364MOL0     C47949   4.970   8.718   7.669  0.4399  1.2998 -0.3942
  364MOL0     C47950   4.861   8.631   7.662 -0.2712 -0.6567 -1.1259
  364MOL0     O47951   4.769   8.665   7.573  0.2912  0.1918  0.5937
  364MOL0     C47952   4.630   8.634   7.609  0.4577  0.0023 -0.0887
  364MOL0     C47953   4.582   8.667   7.753 -0.2770  0.2149 -0.2325
  364MOL0     C47954   4.431   8.663   7.759 -0.0613  0.2666  0.2949
  364MOL0     C47955   4.367   8.514   7.796  0.4825 -0.8878  0.4650
  364MOL0     C47956   4.230   8.522   7.863  0.6962 -0.1233 -0.5679
  364MOL0     C47957   4.126   8.613   7.790 -0.6673  0.1870 -0.0169
  364MOL0     C47958   3.998   8.619   7.868 -0.4894  0.6913 -0.2943
  364MOL0     C47959   3.928   8.748   7.838  1.0792 -0.0704 -0.7931
  364MOL0    Cl47960   3.774   8.757   7.937 -0.3039 -0.1748 -0.2169
  364MOL0     C47961   4.872   8.510   7.728 -1.0292  0.2103 -0.0117
  364MOL0     C47962   4.982   8.478   7.810 -0.1578 -0.5275 -0.1864
  364MOL0     O47963   5.199   8.735   8.034  0.0151 -0.3229 -0.2582
  364MOL0     C47964   5.423   8.640   8.174  0.9271 -0.8114 -0.9601
  364MOL0     C47965   5.518   8.587   8.255  0.0618  0.0940  0.3039
  364MOL0     N47966   6.141   8.143   8.277  0.2450 -0.6933 -0.6165
  364MOL0     N47967   6.264   8.191   8.278 -0.1944  0.9816 -0.8494
  364MOL0     C47968   7.039   8.773   9.138 -0.3305  1.1888 -1.3352
  364MOL0     C47969   7.173   8.745   9.180 -0.1864 -0.2657 -0.4240
  364MOL0     C47970   7.632   8.821   9.133 -0.1483  0.7094 -0.5600
  364MOL0     C47971   7.740   8.911   9.144 -0.8581  0.4762  0.2827
  364MOL0     C47972   7.872   8.876   9.148 -0.0331  0.2690  0.1646
  364MOL0     C47973   7.903   8.743   9.136  0.1100  0.8248  0.2755
  364MOL0     O47974   8.034   8.703   9.130  1.7596 -0.2543 -0.1173
  364MOL0     C47975   8.077   8.596   9.220 -0.9286 -0.2299 -0.7389
  364MOL0     C47976   8.200   8.638   9.311 -0.0507  0.1665 -0.2232
  364MOL0     C47977   8.179   8.772   9.385  0.0380  0.2957  0.1105
  364MOL0     C47978   8.053   8.763   9.484  0.5417  0.2405  0.7391
  364MOL0     C47979   8.014   8.900   9.495 -1.0711 -0.3049 -0.2486
  364MOL0     C47980   7.970   9.014   9.512 -0.5523  0.0430  0.4247
  364MOL0     C47981   7.803   8.651   9.112  0.3038 -0.9563 -1.2164
  364MOL0     C47982   7.668   8.694   9.099  0.6123  0.2194 -0.3761
  364MOL0     H47983   7.322   8.915   8.930  1.4679  1.8781  2.0449
  364MOL0     H47984   7.089   8.955   8.867  2.9239 -1.1975 -1.5506
  364MOL0     H47985   6.732   8.741   9.085 -2.1992  1.5167 -0.7110
  364MOL0     H47986   6.824   8.694   8.939 -0.5904 -0.8490  0.7104
  364MOL0     H47987   6.679   8.907   8.852  0.8578  1.6350  1.5407
  364MOL0     H47988   6.588   8.901   9.000 -0.1081 -0.0879 -0.2928
  364MOL0     H47989   6.458   8.772   8.902 -0.3806 -1.2117  1.1262
  364MOL0     H47990   6.554   8.641   8.961  2.0771  0.9297  2.1186
  364MOL0     H47991   6.567   8.747   8.685 -1.1871 -1.2024 -0.9942
  364MOL0     H47992   6.685   8.628   8.760  1.1882  0.4496  1.1326
  364MOL0     H47993   6.386   8.607   8.719  1.6102  2.9278 -1.1629
  364MOL0     H47994   6.487   8.486   8.815  0.9052  1.6926  1.8193
  364MOL0     H47995   6.601   8.415   8.610 -0.9041 -0.7360  3.9517
  364MOL0     H47996   6.524   8.567   8.523 -1.2390  2.5812  2.2433
  364MOL0     H47997   6.378   8.327   8.650  0.4470  1.6468  0.7571
  364MOL0     H47998   6.309   8.430   8.533 -0.1015 -0.3695  0.0016
  364MOL0     H47999   6.505   8.199   8.483  1.8268 -0.3358 -2.9493
  364MOL0     H48000   6.466   8.319   8.354 -1.9620  2.1531  1.2943
  364MOL0     H48001   6.186   8.193   8.602 -3.2291  4.3257 -0.4555
  364MOL0     H48002   5.941   8.116   8.561  2.4580 -4.3425  0.2691
  364MOL0     H48003   5.939   8.003   8.410  1.1980 -0.2508 -0.4365
  364MOL0     H48004   5.794   8.148   8.299  3.1326  0.3535 -2.4406
  364MOL0     H48005   5.873   8.282   8.378  0.4463 -0.9628  1.8331
  364MOL0     H48006   5.673   8.116   8.531 -3.8807  1.3772 -0.3225
  364MOL0     H48007   5.727   8.269   8.579 -2.0772  3.4325 -1.5517
  364MOL0     H48008   5.492   8.298   8.468 -2.0085  0.9055 -3.3373
  364MOL0     H48009   5.558   8.187   8.350  1.3725 -0.6909  0.2750
  364MOL0     H48010   5.449   8.263   8.182  0.5554  0.4813  1.3256
  364MOL0     H48011   5.306   8.354   8.027  4.0471 -1.4629 -1.9092
  364MOL0     H48012   5.145   8.772   7.741 -0.1157  0.8837 -2.7871
  364MOL0     H48013   4.962   8.818   7.626 -0.3349  3.2642  3.7575
  364MOL0     H48014   4.607   8.530   7.583 -2.8828  1.2635 -2.8241
  364MOL0     H48015   4.564   8.679   7.535 -3.0503  1.1331  3.4338
  364MOL0     H48016   4.630   8.762   7.778 -0.1110 -0.7280  3.7188
  364MOL0     H48017   4.625   8.594   7.823  3.1684  1.6948 -0.6114
  364MOL0     H48018   4.382   8.700   7.668 -0.7681 -0.6294  0.2976
  364MOL0     H48019   4.411   8.733   7.841  3.2306  0.1028  1.3811
  364MOL0     H48020   4.360   8.466   7.698 -3.2431  0.9850 -0.3704
  364MOL0     H48021   4.434   8.455   7.859  2.3580 -1.0155 -1.5255
  364MOL0     H48022   4.255   8.574   7.956 -0.4009  1.3685 -1.0653
  364MOL0     H48023   4.180   8.425   7.875  2.6160 -1.3790 -2.0838
  364MOL0     H48024   4.099   8.574   7.691 -3.7311  2.3749 -0.1828
  364MOL0     H48025   4.178   8.708   7.771  2.8481 -1.7762 -1.2421
  364MOL0     H48026   3.940   8.530   7.841 -1.6643  0.9896  1.0836
  364MOL0     H48027   4.021   8.608   7.975  1.0689  1.5961 -0.5102
  364MOL0     H48028   3.904   8.751   7.732  4.2182 -0.3847 -1.5998
  364MOL0     H48029   3.994   8.829   7.871  1.4974 -0.8835  0.4637
  364MOL0     H48030   4.801   8.431   7.706 -1.2182 -0.2638  2.0533
  364MOL0     H48031   4.986   8.390   7.873 -2.7847  0.0377  0.9279
  364MOL0     H48032   5.429   8.749   8.174 -0.0276 -0.7529 -1.2477
  364MOL0     H48033   5.569   8.656   8.321 -1.1665  2.8158 -1.4264
  364MOL0     H48034   6.961   8.721   9.193  1.6264  0.1313  0.5754
  364MOL0     H48035   7.188   8.694   9.275 -1.0854 -1.4487 -0.8961
  364MOL0     H48036   7.730   9.020   9.143  1.7304  0.7780 -0.0121
  364MOL0     H48037   7.954   8.948   9.156  0.4471 -0.2300 -0.1931
  364MOL0     H48038   8.114   8.511   9.161 -3.4209 -3.2982  1.7871
  364MOL0     H48039   7.997   8.549   9.277 -1.4761 -1.1234 -2.1955
  364MOL0     H48040   8.237   8.563   9.381  2.2180 -1.2250 -2.7024
  364MOL0     H48041   8.281   8.656   9.239 -0.4938 -0.6394 -0.9430
  364MOL0     H48042   8.157   8.849   9.311 -1.1584 -0.5301 -0.4381
  364MOL0     H48043   8.275   8.795   9.433  1.3702 -1.8013 -1.3495
  364MOL0     H48044   7.962   8.720   9.440  0.3266  1.6632 -0.2769
  364MOL0     H48045   8.076   8.708   9.576  0.6679 -0.2671  0.4077
  364MOL0     H48046   7.942   9.114   9.536  2.1092  0.6167  1.5104
  364MOL0     H48047   7.819   8.544   9.099  0.7926 -1.2542  1.3804
  364MOL0     H48048   7.589   8.618   9.098  0.9654 -0.3558  3.0855
  365MOL0     O48049   9.278   2.193   9.650  0.5888 -0.1953 -0.4305
  365MOL0     C48050   9.167   2.140   9.627 -0.6132  0.0658 -0.6488
  365MOL0     O48051   9.130   2.096   9.506 -0.1874  1.2914 -0.2303
  365MOL0     C48052   9.226   2.079   9.414 -0.3584  0.4839  0.1675
  365MOL0     C48053   9.311   1.966   9.397  0.2295 -0.1603 -1.2263
  365MOL0     C48054   9.414   1.958   9.304  0.4735  0.7303 -0.6273
  365MOL0     C48055   9.438   2.056   9.208  1.4034  0.6993 -0.7382
  365MOL0     O48056   9.547   2.052   9.117  0.4976  0.0401 -0.3518
  365MOL0     C48057   9.532   1.942   9.026  0.1765  0.3252  0.4456
  365MOL0     C48058   9.612   1.963   8.890  1.4816 -0.1242  0.3999
  365MOL0     C48059   9.542   2.074   8.809 -0.1968 -0.3385 -0.2978
  365MOL0     C48060   9.627   2.120   8.695 -0.0120  0.5701 -0.1258
  365MOL0     C48061   9.573   2.254   8.652  1.2245 -0.2065  0.0310
  365MOL0     C48062   9.662   2.286   8.523  1.3542  0.0076  0.2926
  365MOL0     C48063   9.601   2.398   8.445  0.2451  0.1230  0.3374
  365MOL0     C48064   9.680   2.427   8.323  0.1934  0.2641 -0.2416
  365MOL0     N48065   9.829   2.446   8.343 -0.3551 -0.1519 -0.1762
  365MOL0     C48066   9.921   2.348   8.342  0.1054 -0.8662 -0.5163
  365MOL0     C48067  10.047   2.417   8.347 -0.1408 -0.5878  0.2014
  365MOL0     C48068  10.183   2.365   8.308  0.3728 -0.3664 -0.0355
  365MOL0     C48069  10.200   2.221   8.369 -0.1132  1.0286 -0.5065
  365MOL0     C48070  10.184   2.217   8.525  0.7748  0.2485  0.5026
  365MOL0     C48071  10.211   2.091   8.603 -0.5016  0.6220  1.3293
  365MOL0     O48072  10.111   1.994   8.562  0.6269 -0.6503  0.5836
  365MOL0     C48073  10.089   1.901   8.660 -0.1123 -0.3191 -0.5931
  365MOL0     C48074  10.171   1.837   8.740 -0.0970 -0.1513 -0.0360
  365MOL0     C48075  10.133   1.757   8.852 -0.3217  0.0704  0.6141
  365MOL0     C48076   9.998   1.743   8.883 -0.6369  0.3533 -0.4451
  365MOL0     C48077   9.952   1.667   9.001 -0.1442  0.3028 -0.5994
  365MOL0     O48078   9.820   1.682   9.045  0.6640  0.0380  0.4957
  365MOL0     C48079   9.804   1.662   9.176  0.9984 -0.3708 -0.5159
  365MOL0     C48080   9.688   1.600   9.224 -0.0722 -0.3894  0.1112
  365MOL0     C48081   9.677   1.574   9.361  0.3529 -0.6509 -0.5703
  365MOL0     C48082   9.769   1.613   9.457 -0.2763  0.3745 -0.0769
  365MOL0     O48083   9.735   1.583   9.587 -0.3155  0.1141  0.8330
  365MOL0     C48084   9.854   1.566   9.672 -1.1332  0.3131 -0.3306
  365MOL0     C48085   9.821   1.498   9.802  0.1103  0.0103 -0.8762
  365MOL0     C48086   9.732   1.379   9.779 -0.6129  0.3362 -0.3041
  365MOL0     C48087   9.765   1.283   9.655  0.0465  0.6028 -0.1041
  365MOL0     C48088   9.644   1.195   9.611  0.2927 -1.1223  0.6402
  365MOL0     C48089   9.581   1.094   9.707  0.1753  0.1153  0.4965
  365MOL0     C48090   9.678   0.989   9.776  0.8698  0.0248  0.8439
  365MOL0     C48091   9.748   0.886   9.693  0.5597  0.7605  0.6498
  365MOL0    Cl48092   9.879   0.941   9.589 -0.0122 -0.2094  0.0051
  365MOL0     C48093   9.867   1.704   9.414 -0.3460  0.1687  0.1196
  365MOL0     C48094   9.893   1.719   9.275 -0.1867  0.4612 -0.4705
  365MOL0     O48095  10.032   1.589   9.042 -0.2396 -0.0188  0.5892
  365MOL0     C48096   9.911   1.798   8.788  0.2440 -0.7647 -1.2578
  365MOL0     C48097   9.958   1.865   8.682  1.1065 -0.2542  0.8278
  365MOL0     N48098  10.016   2.549   8.359  0.5885 -0.3654  0.4457
  365MOL0     N48099   9.889   2.572   8.356  0.7806  0.3552  0.1951
  365MOL0     C48100   9.345   2.165   9.221  0.3626  0.3349 -1.0452
  365MOL0     C48101   9.253   2.184   9.326  0.2279 -0.7876 -0.1058
  365MOL0     C48102   9.078   2.127   9.738 -0.1853  0.2812 -0.0878
  365MOL0     C48103   9.104   2.160   9.872 -1.4821  0.6860 -0.4762
  365MOL0     C48104   9.024   2.139   9.980 -0.4695 -0.5480 -0.2440
  365MOL0     C48105   8.900   2.080   9.962  0.6272  0.2901  1.0995
  365MOL0     O48106   8.823   2.040  10.068 -0.1000 -0.2878 -0.3663
  365MOL0     C48107   8.684   2.009  10.061  1.0552  0.1208  0.1032
  365MOL0     C48108   8.632   1.983  10.207 -0.7926  0.1754  0.1850
  365MOL0     C48109   8.702   1.856  10.258  0.2358 -0.4802  0.0509
  365MOL0     C48110   8.658   1.805  10.398  0.3988 -0.6097  0.1249
  365MOL0     C48111   8.643   1.908  10.508 -0.3680  0.0709 -0.4466
  365MOL0     C48112   8.610   1.962  10.614  0.2455  0.1413 -0.2166
  365MOL0     C48113   8.864   2.055   9.830  0.3052  0.9809  0.3556
  365MOL0     C48114   8.950   2.075   9.719 -0.5652  0.1821  1.0042
  365MOL0     H48115   9.275   1.894   9.470  0.6556  0.8229 -0.0029
  365MOL0     H48116   9.477   1.870   9.307 -3.1448 -2.0880  1.6054
  365MOL0     H48117   9.428   1.926   8.997 -0.2716  3.5125 -0.0745
  365MOL0     H48118   9.577   1.847   9.056 -1.4835 -0.7268 -0.2517
  365MOL0     H48119   9.601   1.882   8.818 -2.3684  1.5267 -1.1340
  365MOL0     H48120   9.717   1.983   8.914  1.5295  0.4004 -0.2550
  365MOL0     H48121   9.514   2.158   8.872 -3.0907  0.2335 -2.1121
  365MOL0     H48122   9.448   2.031   8.772 -0.2760 -1.8595  1.5086
  365MOL0     H48123   9.730   2.136   8.727 -0.7352  1.0760  2.0928
  365MOL0     H48124   9.640   2.058   8.606 -1.5447  3.1589 -2.3232
  365MOL0     H48125   9.598   2.336   8.720 -2.6625 -0.0932  1.5819
  365MOL0     H48126   9.464   2.246   8.654  1.1626  0.0213  3.1839
  365MOL0     H48127   9.669   2.202   8.454  3.8570 -0.8242  1.4345
  365MOL0     H48128   9.768   2.303   8.547  1.2493 -1.9185  2.4917
  365MOL0     H48129   9.498   2.368   8.426  1.2444 -3.8853  0.3897
  365MOL0     H48130   9.611   2.490   8.503  1.8659  0.1689  0.0191
  365MOL0     H48131   9.631   2.516   8.283  1.4109 -0.2415 -3.0970
  365MOL0     H48132   9.658   2.351   8.248 -0.4141 -0.0806  0.2784
  365MOL0     H48133   9.892   2.244   8.326  0.9525 -0.7481 -3.2007
  365MOL0     H48134  10.257   2.436   8.347 -2.4469  3.1186 -0.5856
  365MOL0     H48135  10.193   2.361   8.199  1.6491 -0.8688  0.0809
  365MOL0     H48136  10.304   2.188   8.363 -0.7785 -1.8495  1.7409
  365MOL0     H48137  10.137   2.147   8.321 -0.4818  0.5569  0.6830
  365MOL0     H48138  10.238   2.304   8.565  1.4903  2.4362 -4.4069
  365MOL0     H48139  10.076   2.233   8.530  0.7610  1.7994 -2.5055
  365MOL0     H48140  10.200   2.113   8.709 -1.1406  1.2414  1.1423
  365MOL0     H48141  10.313   2.057   8.581 -0.9576  0.7971 -1.5194
  365MOL0     H48142  10.274   1.864   8.717  0.7712 -0.4681  3.0152
  365MOL0     H48143  10.197   1.708   8.924 -2.1111 -0.8142  1.6422
  365MOL0     H48144   9.624   1.561   9.146  0.3587 -1.0340  0.0680
  365MOL0     H48145   9.585   1.536   9.406 -0.7793  3.1254  0.7213
  365MOL0     H48146   9.903   1.664   9.686  0.0857 -0.3868  0.5123
  365MOL0     H48147   9.926   1.507   9.615  0.4516  2.6778 -0.9634
  365MOL0     H48148   9.766   1.559   9.875  0.5887 -1.8503  1.1114
  365MOL0     H48149   9.915   1.473   9.852 -1.0433 -0.5642  1.1107
  365MOL0     H48150   9.625   1.401   9.781 -1.0988 -1.7678 -1.2853
  365MOL0     H48151   9.751   1.315   9.866  0.9010  1.1045 -0.0196
  365MOL0     H48152   9.794   1.342   9.567  1.6176 -1.6265 -1.1519
  365MOL0     H48153   9.850   1.219   9.678  0.4486  0.8178 -0.9434
  365MOL0     H48154   9.686   1.151   9.521 -1.5242  1.0220 -1.3830
  365MOL0     H48155   9.564   1.268   9.596  1.2468  0.8919  4.2180
  365MOL0     H48156   9.501   1.045   9.652 -0.1703 -0.0821  1.1588
  365MOL0     H48157   9.539   1.150   9.792  1.3150  0.5133  0.8333
  365MOL0     H48158   9.746   1.049   9.838  0.0191  0.6651  1.1712
  365MOL0     H48159   9.617   0.932   9.847  0.1192  1.2060  1.1723
  365MOL0     H48160   9.675   0.833   9.631  0.6236 -0.7829  1.8428
  365MOL0     H48161   9.792   0.811   9.760 -2.7727 -0.7762  1.3510
  365MOL0     H48162   9.932   1.758   9.482 -3.1497  1.9750  1.5307
  365MOL0     H48163   9.986   1.766   9.248 -1.6425  2.5661 -2.1820
  365MOL0     H48164   9.807   1.780   8.813  0.8216 -0.5457  1.6649
  365MOL0     H48165   9.876   1.911   8.628  1.5002  2.2626  2.2159
  365MOL0     H48166   9.376   2.249   9.159  2.4695  0.8388  0.5485
  365MOL0     H48167   9.204   2.280   9.334  1.2765 -0.1783 -0.7107
  365MOL0     H48168   9.197   2.210   9.897 -3.3572  3.9760  0.5018
  365MOL0     H48169   9.054   2.177  10.077  0.0156 -3.3715  0.8280
  365MOL0     H48170   8.652   1.922  10.004 -2.5267  2.7302 -2.3194
  365MOL0     H48171   8.636   2.094  10.012 -2.3235 -1.7485 -0.1516
  365MOL0     H48172   8.645   2.068  10.275 -3.0010  1.4637 -0.8857
  365MOL0     H48173   8.526   1.959  10.198 -0.4362 -1.2826 -0.5053
  365MOL0     H48174   8.809   1.872  10.274  0.1482 -1.6941  2.2581
  365MOL0     H48175   8.675   1.777  10.187  1.1654  0.3512 -1.2547
  365MOL0     H48176   8.557   1.763  10.399  1.0537 -2.2657  0.9347
  365MOL0     H48177   8.722   1.723  10.432 -1.4311 -1.1638  2.4443
  365MOL0     H48178   8.566   2.001  10.704 -1.8534 -1.7109 -0.3382
  365MOL0     H48179   8.768   2.006   9.814 -0.4645  2.1840  1.1501
  365MOL0     H48180   8.908   2.045   9.623 -5.5471 -1.1452  3.2551
  366MOL0     O48181   6.761   3.603   3.020 -0.7032  0.3223  0.4245
  366MOL0     C48182   6.836   3.504   3.010 -0.5557  1.3248 -1.0692
  366MOL0     O48183   6.806   3.393   2.943 -0.0840 -0.0366  0.3615
  366MOL0     C48184   6.691   3.389   2.868 -0.7875 -0.3859 -0.1666
  366MOL0     C48185   6.595   3.296   2.904 -0.0867  0.9945  0.9136
  366MOL0     C48186   6.465   3.302   2.843 -0.1384 -0.0514 -0.1164
  366MOL0     C48187   6.438   3.387   2.738 -0.0696  0.1577  0.6173
  366MOL0     O48188   6.320   3.356   2.676  0.0193 -0.6126 -0.3643
  366MOL0     C48189   6.200   3.434   2.695  0.1857 -0.6191 -0.1573
  366MOL0     C48190   6.075   3.363   2.673 -0.1698  0.6814  0.2688
  366MOL0     C48191   6.059   3.321   2.528 -0.5190 -0.0601 -0.6290
  366MOL0     C48192   5.962   3.204   2.515  0.4746  0.0459 -0.0809
  366MOL0     C48193   5.940   3.166   2.370  0.6513 -0.0011 -0.2909
  366MOL0     C48194   5.793   3.111   2.344 -0.3953 -0.0577  0.1908
  366MOL0     C48195   5.778   3.063   2.194  0.1342  0.4431 -0.2668
  366MOL0     C48196   5.810   3.177   2.094  0.6311  0.4591 -0.2174
  366MOL0     N48197   5.809   3.127   1.956  0.1761  0.1018 -0.7483
  366MOL0     C48198   5.906   3.056   1.895 -1.2003  0.5972  1.3130
  366MOL0     C48199   5.865   3.033   1.770 -0.3089 -0.1383  0.3379
  366MOL0     C48200   5.922   2.939   1.661  0.1107 -0.9330 -0.0703
  366MOL0     C48201   5.876   2.793   1.684  0.3672 -0.3527  0.4583
  366MOL0     C48202   5.943   2.724   1.804 -0.9378  0.1986  0.1217
  366MOL0     C48203   5.906   2.572   1.808 -0.6255  0.6216  0.5232
  366MOL0     O48204   5.986   2.510   1.911  0.6240  0.6295  0.7103
  366MOL0     C48205   5.985   2.579   2.028  0.0089  0.4862  0.0179
  366MOL0     C48206   6.080   2.674   2.076  0.5581  0.2068 -0.0124
  366MOL0     C48207   6.089   2.715   2.210 -0.9697  0.6534  0.0420
  366MOL0     C48208   5.990   2.674   2.303  1.1175  0.6073  0.0407
  366MOL0     C48209   5.979   2.731   2.448  1.5158  0.4712 -0.1673
  366MOL0     O48210   5.847   2.724   2.510 -0.3914 -1.1902 -0.2226
  366MOL0     C48211   5.838   2.785   2.640 -0.1179  0.2011  0.7112
  366MOL0     C48212   5.748   2.881   2.665  0.6441 -0.0881 -0.5595
  366MOL0     C48213   5.757   2.944   2.793 -0.0676 -0.2264  0.8880
  366MOL0     C48214   5.847   2.901   2.891 -0.8318  0.7580 -0.2096
  366MOL0     O48215   5.868   2.962   3.003  0.1981 -0.1372  0.0876
  366MOL0     C48216   5.828   3.105   3.023  1.0566  0.0959  0.7565
  366MOL0     C48217   5.879   3.165   3.148  0.4772  0.0644 -0.3010
  366MOL0     C48218   5.844   3.091   3.275  0.8095  0.5540  0.3787
  366MOL0     C48219   5.866   3.168   3.403  0.0337 -1.0688 -0.0838
  366MOL0     C48220   5.829   3.080   3.517 -0.1682 -0.0392 -0.8944
  366MOL0     C48221   5.869   3.138   3.649 -0.2515  0.1999  0.0018
  366MOL0     C48222   5.849   3.030   3.754  0.1657 -0.0835  0.0934
  366MOL0     C48223   5.842   3.077   3.890 -0.8192  0.1824  0.5431
  366MOL0    Cl48224   5.713   3.194   3.911 -0.4755 -0.3256  0.3520
  366MOL0     C48225   5.926   2.786   2.865  0.5168  0.5432 -0.5190
  366MOL0     C48226   5.931   2.738   2.735 -0.1142 -0.0160  0.2508
  366MOL0     O48227   6.082   2.778   2.489 -0.2267  0.7369 -0.3002
  366MOL0     C48228   5.899   2.577   2.262  0.6461 -0.6439 -0.3444
  366MOL0     C48229   5.899   2.525   2.129 -0.5503 -0.7140  0.2938
  366MOL0     N48230   5.742   3.093   1.753 -0.2158 -0.2141  0.4418
  366MOL0     N48231   5.707   3.146   1.870 -0.3691 -0.2676 -0.1350
  366MOL0     C48232   6.540   3.468   2.693  1.2586 -0.1485 -0.3302
  366MOL0     C48233   6.655   3.487   2.767 -0.2908  0.1256 -0.0299
  366MOL0     C48234   6.963   3.495   3.082 -0.1723 -0.5766  0.1933
  366MOL0     C48235   7.072   3.416   3.040  1.1300 -0.0091  0.0988
  366MOL0     C48236   7.186   3.399   3.114 -0.8519 -0.3789  0.5779
  366MOL0     C48237   7.211   3.477   3.228 -0.5816 -0.5961 -0.0045
  366MOL0     O48238   7.332   3.456   3.299  0.0967 -0.6701  0.1077
  366MOL0     C48239   7.382   3.561   3.379  0.1375 -0.6054  0.1861
  366MOL0     C48240   7.522   3.526   3.426  0.3348 -0.4667  0.1762
  366MOL0     C48241   7.532   3.403   3.506 -0.0686  0.2526 -0.1078
  366MOL0     C48242   7.674   3.360   3.544 -0.3548  0.8446  0.9817
  366MOL0     C48243   7.732   3.405   3.667 -0.6557 -0.0650  0.3632
  366MOL0     C48244   7.783   3.437   3.770  0.6369 -0.7214 -0.6774
  366MOL0     C48245   7.118   3.584   3.249  0.2057  0.3421 -0.1065
  366MOL0     C48246   6.993   3.576   3.193  0.3516 -0.3350  0.4417
  366MOL0     H48247   6.618   3.239   2.993  0.4785 -0.1851  0.0437
  366MOL0     H48248   6.400   3.219   2.869  0.5939 -0.1552  1.4571
  366MOL0     H48249   6.195   3.527   2.638  0.3327 -1.2762 -1.2656
  366MOL0     H48250   6.204   3.460   2.801 -0.5186  2.3331 -0.7665
  366MOL0     H48251   5.987   3.413   2.715  1.1492  0.8367  3.0841
  366MOL0     H48252   6.075   3.273   2.735  2.6301  0.7245  0.4306
  366MOL0     H48253   6.151   3.309   2.470 -0.0537  1.8642 -0.3811
  366MOL0     H48254   6.017   3.411   2.483  0.6336  1.0807  0.4693
  366MOL0     H48255   5.997   3.117   2.571  2.5723  0.3420 -0.8366
  366MOL0     H48256   5.864   3.222   2.562 -0.5279 -5.2535  0.4979
  366MOL0     H48257   6.018   3.091   2.348  0.6758  0.9129 -4.0109
  366MOL0     H48258   5.957   3.255   2.309 -2.3429 -1.0313 -2.9108
  366MOL0     H48259   5.720   3.190   2.367 -0.9408  0.4974 -2.9735
  366MOL0     H48260   5.774   3.019   2.400  0.8439  0.2693  1.1908
  366MOL0     H48261   5.853   2.987   2.172 -0.5975  0.0299 -1.4110
  366MOL0     H48262   5.680   3.015   2.184  1.2130 -2.1273  0.6431
  366MOL0     H48263   5.908   3.215   2.124  0.2643  0.0079  1.6507
  366MOL0     H48264   5.730   3.252   2.099  1.6691  1.5242  3.0604
  366MOL0     H48265   6.005   3.032   1.931 -1.3843 -1.2150  0.7218
  366MOL0     H48266   6.031   2.944   1.666  0.2292  0.1863 -2.3282
  366MOL0     H48267   5.901   2.964   1.556  1.4838  0.1032 -0.1221
  366MOL0     H48268   5.907   2.733   1.598 -3.0697  0.8314 -1.8083
  366MOL0     H48269   5.767   2.795   1.693  0.2241 -2.1657 -0.3153
  366MOL0     H48270   6.050   2.715   1.787 -1.1761 -2.3077 -0.4245
  366MOL0     H48271   5.913   2.779   1.894  3.3379  1.7222  0.8308
  366MOL0     H48272   5.926   2.520   1.714 -0.6391  4.1388 -1.6240
  366MOL0     H48273   5.799   2.566   1.830 -0.2243  0.3065  2.5680
  366MOL0     H48274   6.150   2.727   2.011 -1.8850  0.5049 -2.6164
  366MOL0     H48275   6.167   2.783   2.246 -0.7813 -1.0751  3.3031
  366MOL0     H48276   5.666   2.898   2.596  0.4073 -0.7789 -0.4575
  366MOL0     H48277   5.701   3.033   2.819 -2.3378 -0.8999 -1.2820
  366MOL0     H48278   5.719   3.109   3.023  0.9749 -1.5350  0.4489
  366MOL0     H48279   5.863   3.165   2.939 -1.2525 -1.8110 -1.7244
  366MOL0     H48280   5.826   3.261   3.153 -0.7856 -0.6419  0.2181
  366MOL0     H48281   5.987   3.178   3.134  0.5824 -1.2200 -0.7813
  366MOL0     H48282   5.908   3.003   3.275 -1.2792 -1.1642 -2.9311
  366MOL0     H48283   5.739   3.065   3.264  1.3796 -0.8007 -3.5250
  366MOL0     H48284   5.968   3.207   3.412  1.2510 -3.5046 -2.2743
  366MOL0     H48285   5.802   3.257   3.396  1.4002 -0.0583 -0.1411
  366MOL0     H48286   5.891   2.990   3.514  1.3455  0.3657  4.8798
  366MOL0     H48287   5.725   3.050   3.509  0.0455 -0.8723 -0.7282
  366MOL0     H48288   5.810   3.229   3.662 -2.7153 -0.9909 -1.8751
  366MOL0     H48289   5.975   3.164   3.646 -0.7947  2.6718 -0.2128
  366MOL0     H48290   5.762   2.975   3.716  1.2712 -3.2765  1.8418
  366MOL0     H48291   5.928   2.956   3.749  0.6193  0.4294 -0.5585
  366MOL0     H48292   5.926   3.138   3.924 -2.9263  2.9029  1.2498
  366MOL0     H48293   5.842   2.997   3.965  0.1299 -0.6130 -0.2721
  366MOL0     H48294   6.000   2.748   2.934 -0.9062 -1.0251  0.2194
  366MOL0     H48295   6.010   2.668   2.710  2.0064  3.2686 -3.3761
  366MOL0     H48296   5.822   2.530   2.322  0.4147 -0.0447 -0.1603
  366MOL0     H48297   5.821   2.455   2.099 -1.8793  1.4041 -1.5338
  366MOL0     H48298   6.513   3.528   2.607 -3.0858 -2.4609 -0.8722
  366MOL0     H48299   6.736   3.556   2.747 -1.5635  1.1775 -1.8632
  366MOL0     H48300   7.037   3.361   2.953 -4.2446  3.2727 -0.3112
  366MOL0     H48301   7.268   3.329   3.101 -1.3859 -1.0268  0.6367
  366MOL0     H48302   7.313   3.581   3.461 -1.9463 -3.7927 -0.6099
  366MOL0     H48303   7.408   3.645   3.314  3.0859 -0.5252  1.2727
  366MOL0     H48304   7.597   3.509   3.348  4.2154  2.3769  2.9675
  366MOL0     H48305   7.563   3.609   3.483  3.7991 -2.0005  0.1688
  366MOL0     H48306   7.494   3.321   3.443  0.3271 -0.0587  0.0563
  366MOL0     H48307   7.468   3.407   3.595 -0.1883 -0.1663 -0.1681
  366MOL0     H48308   7.667   3.252   3.562 -1.7713  1.1054  2.1848
  366MOL0     H48309   7.746   3.383   3.465 -1.9254  2.0511 -0.1457
  366MOL0     H48310   7.814   3.477   3.864 -3.5468  1.4284  0.0609
  366MOL0     H48311   7.139   3.666   3.317  2.3826  0.7722 -1.2204
  366MOL0     H48312   6.917   3.645   3.228 -1.0507 -1.6004  0.0015
  367MOL0     O48313   6.418   7.565  11.212 -0.0505 -0.0777  0.4988
  367MOL0     C48314   6.486   7.526  11.304  0.2162  0.5691 -0.8542
  367MOL0     O48315   6.434   7.449  11.409  0.1699 -0.7216 -0.1430
  367MOL0     C48316   6.346   7.344  11.384 -0.3015 -0.1519  0.5908
  367MOL0     C48317   6.339   7.273  11.258 -0.2303  0.8345  0.2780
  367MOL0     C48318   6.250   7.167  11.241  0.0655 -0.0303  0.1201
  367MOL0     C48319   6.180   7.124  11.352 -0.3797 -0.2554  0.1761
  367MOL0     O48320   6.079   7.029  11.326  0.1709 -0.3058  0.0372
  367MOL0     C48321   6.005   6.960  11.430 -0.2746  0.2546 -0.2285
  367MOL0     C48322   5.910   6.846  11.385  0.5441 -0.1155  0.5665
  367MOL0     C48323   5.974   6.730  11.308  0.0427 -1.1245  0.3787
  367MOL0     C48324   5.878   6.637  11.237  0.6995  0.1052  0.1692
  367MOL0     C48325   5.941   6.572  11.107  0.6409 -0.3216  0.7205
  367MOL0     C48326   5.847   6.463  11.035  0.7375  0.3365 -0.3754
  367MOL0     C48327   5.882   6.444  10.890  0.1677  0.6130  0.1797
  367MOL0     C48328   5.992   6.333  10.865 -0.4082  0.5071  0.2622
  367MOL0     N48329   5.943   6.200  10.916  0.3063  0.0118  0.3046
  367MOL0     C48330   5.999   6.139  11.024 -0.1030  0.4154  0.2222
  367MOL0     C48331   5.961   6.012  11.006  0.6030 -0.1520 -0.2264
  367MOL0     C48332   6.004   5.898  11.100  0.7247 -1.3537 -0.3643
  367MOL0     C48333   6.049   5.769  11.027 -0.4585  0.2510 -0.8211
  367MOL0     C48334   5.928   5.677  11.006  0.3149 -0.2437  0.1756
  367MOL0     C48335   5.953   5.567  10.911  1.2403  0.4708  0.9211
  367MOL0     O48336   6.072   5.500  10.951 -0.2591 -0.3704 -0.3341
  367MOL0     C48337   6.046   5.399  11.042 -1.2876  0.2360  0.8149
  367MOL0     C48338   6.076   5.413  11.176 -0.2488  0.3441 -0.2975
  367MOL0     C48339   6.075   5.294  11.252  1.0225  0.9520 -0.4860
  367MOL0     C48340   6.066   5.164  11.197 -0.2513  0.5483 -0.0765
  367MOL0     C48341   6.109   5.038  11.263 -0.5449  0.1368 -0.8831
  367MOL0     O48342   6.038   4.927  11.236 -0.0609  0.3015  0.1946
  367MOL0     C48343   6.062   4.800  11.291 -0.0003 -0.6942 -0.3503
  367MOL0     C48344   6.176   4.755  11.362 -0.2841  0.0044  0.7083
  367MOL0     C48345   6.187   4.621  11.390  0.2675 -0.7681  1.0795
  367MOL0     C48346   6.078   4.534  11.389  0.1126 -0.0744  0.9043
  367MOL0     O48347   6.087   4.403  11.417  0.5889  0.3884 -0.4051
  367MOL0     C48348   6.153   4.372  11.537  0.4357  0.1806  0.7978
  367MOL0     C48349   6.149   4.222  11.567 -0.7586 -0.3447 -0.1255
  367MOL0     C48350   6.251   4.189  11.665 -0.3568  0.1711 -0.1020
  367MOL0     C48351   6.299   4.040  11.663 -0.7344  0.1500 -0.6401
  367MOL0     C48352   6.397   4.013  11.777 -0.4195  0.2256  0.2847
  367MOL0     C48353   6.420   3.864  11.813 -0.5099 -0.4870 -0.1984
  367MOL0     C48354   6.472   3.786  11.695 -1.0309 -0.2336  1.4259
  367MOL0     C48355   6.412   3.656  11.671 -0.4920  0.6862  0.3403
  367MOL0    Cl48356   6.453   3.559  11.817  0.3616 -0.1263  0.4586
  367MOL0     C48357   5.963   4.574  11.326 -0.4028  0.0053 -0.6028
  367MOL0     C48358   5.957   4.705  11.277  0.1677  0.2729  0.6280
  367MOL0     O48359   6.213   5.036  11.335  0.0308  0.2797 -0.7777
  367MOL0     C48360   6.026   5.166  11.061  0.1802  0.9625  0.4805
  367MOL0     C48361   6.021   5.273  10.983  0.4617 -0.2643 -0.1664
  367MOL0     N48362   5.890   5.988  10.894  0.0184  0.3145  0.4417
  367MOL0     N48363   5.881   6.111  10.834 -0.2683  0.4049 -0.8951
  367MOL0     C48364   6.188   7.188  11.476 -0.2318 -0.4185 -0.7693
  367MOL0     C48365   6.267   7.302  11.490  0.2421  0.1073 -0.2775
  367MOL0     C48366   6.618   7.599  11.320  0.1506  0.2019  0.5807
  367MOL0     C48367   6.670   7.686  11.223 -0.0920 -0.4774  0.3898
  367MOL0     C48368   6.775   7.767  11.251  1.3742  0.5256 -0.4943
  367MOL0     C48369   6.851   7.750  11.375  0.2087  0.3790 -0.3644
  367MOL0     O48370   6.968   7.830  11.376 -0.3050 -0.3119 -0.3312
  367MOL0     C48371   7.053   7.832  11.487  0.5663 -0.9037 -0.7032
  367MOL0     C48372   7.137   7.952  11.475  0.6159 -0.2518 -0.0142
  367MOL0     C48373   7.259   7.944  11.372  0.0198 -0.0446 -0.3047
  367MOL0     C48374   7.355   8.060  11.396 -0.3825  0.1942  0.5992
  367MOL0     C48375   7.299   8.193  11.408 -0.0723 -0.6360  0.2064
  367MOL0     C48376   7.231   8.291  11.413 -0.1396  0.1883  0.1886
  367MOL0     C48377   6.808   7.651  11.470  0.3565  0.9194 -0.8659
  367MOL0     C48378   6.684   7.589  11.444 -0.5321 -0.4797 -0.3552
  367MOL0     H48379   6.397   7.324  11.182 -0.2375 -0.9020 -0.9302
  367MOL0     H48380   6.225   7.132  11.141 -1.1594  1.8048 -0.2696
  367MOL0     H48381   5.942   7.040  11.471 -1.1105 -0.1567 -0.6839
  367MOL0     H48382   6.072   6.934  11.512  0.4218  2.1578 -0.1393
  367MOL0     H48383   5.826   6.892  11.331 -1.7868 -0.7196  3.4546
  367MOL0     H48384   5.862   6.806  11.475 -4.1116  1.0528 -1.0860
  367MOL0     H48385   6.039   6.669  11.372 -0.0576 -0.2626  1.3279
  367MOL0     H48386   6.036   6.784  11.236  2.6027 -1.6652  2.0152
  367MOL0     H48387   5.851   6.558  11.307 -0.9134 -0.1009 -0.6336
  367MOL0     H48388   5.788   6.693  11.212  0.9617 -0.8850 -3.5783
  367MOL0     H48389   6.033   6.518  11.132 -2.1350 -6.4531 -0.4665
  367MOL0     H48390   5.975   6.648  11.036  0.2041 -1.8464 -1.2051
  367MOL0     H48391   5.741   6.490  11.034  0.0466 -2.0797 -0.7061
  367MOL0     H48392   5.867   6.369  11.087 -0.0430  0.1570 -0.3875
  367MOL0     H48393   5.793   6.407  10.839  1.5709 -5.1013  1.1669
  367MOL0     H48394   5.906   6.544  10.851 -3.1057  0.7135 -1.9668
  367MOL0     H48395   6.088   6.349  10.914  0.5735  0.4013 -1.5569
  367MOL0     H48396   6.011   6.323  10.758  3.3977 -0.8343  0.9256
  367MOL0     H48397   6.046   6.176  11.114  3.1807 -4.8072  1.0633
  367MOL0     H48398   5.937   5.878  11.184 -2.4164  0.6386 -2.1905
  367MOL0     H48399   6.091   5.940  11.151  0.2260  0.4953 -0.9393
  367MOL0     H48400   6.122   5.716  11.089 -0.8544  0.2323 -0.3704
  367MOL0     H48401   6.109   5.794  10.938 -0.1294 -1.3473 -1.0735
  367MOL0     H48402   5.900   5.634  11.103 -0.9105 -0.2375 -0.1595
  367MOL0     H48403   5.847   5.735  10.961  0.5954 -0.2728 -0.3708
  367MOL0     H48404   5.968   5.612  10.812 -1.6045 -0.4019 -0.0092
  367MOL0     H48405   5.864   5.504  10.909  0.2307  1.8664 -0.1685
  367MOL0     H48406   6.114   5.505  11.219  3.3879 -2.1937  2.5545
  367MOL0     H48407   6.110   5.310  11.354  4.4319  1.4404 -1.5889
  367MOL0     H48408   6.263   4.818  11.379  1.4661 -1.4136 -2.2608
  367MOL0     H48409   6.285   4.583  11.418 -0.1617 -3.3362 -0.5524
  367MOL0     H48410   6.121   4.422  11.629 -1.4281 -1.6927  1.2595
  367MOL0     H48411   6.261   4.390  11.535  1.0622 -2.9164  0.9281
  367MOL0     H48412   6.161   4.155  11.481  0.9827  1.4506 -1.4046
  367MOL0     H48413   6.054   4.201  11.615  0.6854 -0.2816  3.0182
  367MOL0     H48414   6.217   4.217  11.765  2.7526 -0.0330  1.1413
  367MOL0     H48415   6.346   4.244  11.666 -1.0337  1.4587  2.6212
  367MOL0     H48416   6.219   3.970  11.687  0.1786  0.0120  2.3189
  367MOL0     H48417   6.325   4.018  11.559  1.2917  1.7173 -0.5320
  367MOL0     H48418   6.351   4.054  11.868 -0.3244  1.1292 -0.0688
  367MOL0     H48419   6.487   4.075  11.771 -0.0536 -0.2899  0.2952
  367MOL0     H48420   6.321   3.827  11.841 -1.2844  0.7569 -1.1698
  367MOL0     H48421   6.488   3.855  11.898 -1.9982  0.0420  1.1053
  367MOL0     H48422   6.466   3.841  11.601 -0.6938  0.4666  1.8114
  367MOL0     H48423   6.580   3.775  11.708 -1.0108 -2.6024 -0.1190
  367MOL0     H48424   6.459   3.613  11.582  1.8498 -1.5057  2.4505
  367MOL0     H48425   6.304   3.661  11.657 -0.4723  0.5962  0.1613
  367MOL0     H48426   5.870   4.520  11.311 -0.9335  0.9045 -0.6270
  367MOL0     H48427   5.859   4.731  11.239 -0.4138 -1.3572  0.9313
  367MOL0     H48428   6.013   5.071  11.012  2.2282 -0.0417  1.7151
  367MOL0     H48429   6.002   5.264  10.877 -1.2204  1.3224 -0.0680
  367MOL0     H48430   6.122   7.164  11.558 -0.9265  0.6087 -1.0144
  367MOL0     H48431   6.263   7.352  11.586 -0.2679  3.7308 -1.9999
  367MOL0     H48432   6.613   7.704  11.132 -1.4787  0.2446  1.3674
  367MOL0     H48433   6.819   7.843  11.186  1.8913  1.1118  0.5237
  367MOL0     H48434   7.100   7.737  11.510  2.1443  0.2779  1.2843
  367MOL0     H48435   6.996   7.849  11.579  1.0237 -1.8317 -0.2448
  367MOL0     H48436   7.077   8.042  11.458  0.3947 -0.0532  1.6019
  367MOL0     H48437   7.179   7.970  11.575 -1.1612 -1.0785  0.9336
  367MOL0     H48438   7.229   7.955  11.267 -2.0701  2.1228  0.4438
  367MOL0     H48439   7.315   7.850  11.382 -0.2090 -0.3609 -1.7423
  367MOL0     H48440   7.414   8.042  11.486  0.0955 -1.8423 -0.0533
  367MOL0     H48441   7.414   8.048  11.304 -0.5975  0.4251  0.4311
  367MOL0     H48442   7.177   8.384  11.419  1.0177  0.8058  1.7391
  367MOL0     H48443   6.874   7.639  11.556 -0.9279  3.3899  0.6039
  367MOL0     H48444   6.637   7.524  11.518  2.9269 -3.1442 -0.2193
  368MOL0     O48445   9.273   0.257   2.277  0.2128 -0.1952 -0.4271
  368MOL0     C48446   9.339   0.181   2.338 -0.6601  0.5595 -0.4216
  368MOL0     O48447   9.433   0.216   2.429  0.2895 -0.2899 -0.3544
  368MOL0     C48448   9.418   0.329   2.508  0.5544  0.3447 -1.7805
  368MOL0     C48449   9.528   0.386   2.570 -0.7438  0.9240 -0.3997
  368MOL0     C48450   9.532   0.516   2.629  0.1937 -0.2948 -0.2959
  368MOL0     C48451   9.408   0.588   2.641  0.1379 -0.0674  0.2788
  368MOL0     O48452   9.384   0.710   2.707 -0.3111 -0.3989 -0.6982
  368MOL0     C48453   9.490   0.751   2.798 -0.0685  0.0320  0.1847
  368MOL0     C48454   9.444   0.855   2.895  0.2313  0.7191  0.4286
  368MOL0     C48455   9.353   0.787   2.999 -0.3388 -0.0204 -0.2262
  368MOL0     C48456   9.328   0.885   3.118 -0.8181  0.7632  0.3544
  368MOL0     C48457   9.449   0.885   3.223 -0.2584 -0.6992  0.9770
  368MOL0     C48458   9.430   0.976   3.341 -0.1044 -0.6967  0.1314
  368MOL0     C48459   9.545   0.959   3.435 -0.3764  0.6571 -0.0779
  368MOL0     C48460   9.533   1.054   3.561  0.4487  0.7944 -0.0647
  368MOL0     N48461   9.477   0.978   3.676 -0.8882 -0.3664  0.5575
  368MOL0     C48462   9.348   0.937   3.699 -0.1005  0.9108  0.1967
  368MOL0     C48463   9.356   0.876   3.818  0.4212 -0.1196  0.2187
  368MOL0     C48464   9.237   0.810   3.880  0.7023  0.4581 -0.1079
  368MOL0     C48465   9.151   0.908   3.958  1.1505  0.5951  0.0123
  368MOL0     C48466   9.174   0.886   4.107 -0.4216  0.1199 -0.7075
  368MOL0     C48467   9.311   0.935   4.154 -0.2972 -1.0180 -0.1067
  368MOL0     O48468   9.338   0.891   4.293  0.1305 -0.8888 -0.2455
  368MOL0     C48469   9.326   0.763   4.327  0.9296  0.1213  0.4028
  368MOL0     C48470   9.234   0.726   4.419  0.3491  0.1060 -0.4167
  368MOL0     C48471   9.207   0.593   4.448  0.5874 -0.0156 -0.0719
  368MOL0     C48472   9.272   0.487   4.379 -0.2458  0.2690  0.0277
  368MOL0     C48473   9.232   0.343   4.398  0.1432 -0.2273 -0.2066
  368MOL0     O48474   9.288   0.254   4.311 -0.2277  0.4056  0.3773
  368MOL0     C48475   9.237   0.129   4.303 -0.1991  0.9127  0.2596
  368MOL0     C48476   9.146   0.053   4.377  1.0844  0.7556 -0.3158
  368MOL0     C48477   9.112  -0.082   4.354  1.0757 -0.2392  0.1876
  368MOL0     C48478   9.179  -0.142   4.247  0.3135  0.2003  0.9114
  368MOL0     O48479   9.145  -0.269   4.225 -0.4706  0.9933 -0.2863
  368MOL0     C48480   9.234  -0.366   4.277 -0.6815  0.2231  0.0957
  368MOL0     C48481   9.187  -0.506   4.229 -0.0769 -1.3394 -0.6321
  368MOL0     C48482   9.260  -0.623   4.303  0.4154 -0.0596 -0.1298
  368MOL0     C48483   9.416  -0.615   4.272  0.2614  0.1604 -0.3074
  368MOL0     C48484   9.487  -0.733   4.339  0.1708 -0.6653  0.2820
  368MOL0     C48485   9.419  -0.877   4.312  0.4873 -0.7092  1.0891
  368MOL0     C48486   9.391  -0.910   4.163  0.0997 -0.4563 -0.5750
  368MOL0     C48487   9.515  -0.924   4.079 -0.1490 -0.0126 -0.2064
  368MOL0    Cl48488   9.453  -0.935   3.914 -0.4435  0.0672  0.4308
  368MOL0     C48489   9.260  -0.075   4.162 -0.7190  0.2806 -0.2555
  368MOL0     C48490   9.301   0.052   4.194  0.1926  0.2234 -0.8391
  368MOL0     O48491   9.141   0.324   4.478 -0.1010 -0.0009 -0.2904
  368MOL0     C48492   9.385   0.531   4.292  0.8592 -0.4392 -0.6897
  368MOL0     C48493   9.402   0.668   4.259 -0.7201 -0.8626 -0.3300
  368MOL0     N48494   9.483   0.880   3.868 -0.0352 -0.6349 -0.0898
  368MOL0     N48495   9.551   0.939   3.781 -0.0827 -0.4804  0.5585
  368MOL0     C48496   9.291   0.522   2.594  0.2964  0.3194  0.1991
  368MOL0     C48497   9.301   0.403   2.526  0.7743 -0.6102 -0.3172
  368MOL0     C48498   9.317   0.040   2.303  0.4044 -0.7999  0.0354
  368MOL0     C48499   9.209  -0.002   2.209  0.0398 -0.9403 -0.9123
  368MOL0     C48500   9.183  -0.137   2.207 -0.0636 -0.4027  0.2354
  368MOL0     C48501   9.261  -0.232   2.274 -0.3205 -0.8512  0.0001
  368MOL0     O48502   9.244  -0.361   2.263 -0.0015  0.4600  0.1576
  368MOL0     C48503   9.136  -0.416   2.185 -0.2293  0.3599 -0.0532
  368MOL0     C48504   9.107  -0.558   2.233  0.3719  0.1014  0.0075
  368MOL0     C48505   9.205  -0.659   2.167  0.5364 -0.8253 -0.3179
  368MOL0     C48506   9.335  -0.674   2.247  0.1085  0.0284  0.6089
  368MOL0     C48507   9.438  -0.745   2.174 -0.0960 -0.0287  0.3981
  368MOL0     C48508   9.534  -0.803   2.129  0.5769  1.2100  0.1680
  368MOL0     C48509   9.361  -0.178   2.344 -0.1313  0.3288  0.6525
  368MOL0     C48510   9.387  -0.049   2.383  0.0961 -0.2616  0.3430
  368MOL0     H48511   9.621   0.333   2.552 -1.8639 -0.9937 -0.8687
  368MOL0     H48512   9.628   0.559   2.654  1.4991 -1.9218 -2.2394
  368MOL0     H48513   9.576   0.794   2.745  0.5428  0.0171  1.1353
  368MOL0     H48514   9.520   0.662   2.854  1.0720 -0.4958 -1.1867
  368MOL0     H48515   9.384   0.939   2.860 -2.1658  0.6005  3.8702
  368MOL0     H48516   9.531   0.896   2.948  1.7173  0.1995 -1.4626
  368MOL0     H48517   9.385   0.690   3.037  2.5525  0.3502 -1.4885
  368MOL0     H48518   9.255   0.777   2.951 -0.6800  1.8826 -0.0288
  368MOL0     H48519   9.308   0.984   3.076  0.5276  0.2387 -1.6374
  368MOL0     H48520   9.241   0.857   3.179  0.6609  1.0903  2.7584
  368MOL0     H48521   9.545   0.908   3.174 -0.8326  2.2121  1.0275
  368MOL0     H48522   9.472   0.785   3.260  1.1628 -1.1693 -0.9993
  368MOL0     H48523   9.337   0.943   3.388  1.1545 -3.0084  1.1537
  368MOL0     H48524   9.420   1.082   3.314 -1.7384 -1.3468 -2.1720
  368MOL0     H48525   9.571   0.857   3.464 -2.8957  0.6596  2.6985
  368MOL0     H48526   9.632   1.005   3.387 -0.1810  3.9003  2.9444
  368MOL0     H48527   9.468   1.140   3.543 -0.7420  0.1307  0.8682
  368MOL0     H48528   9.634   1.091   3.582 -0.3377  4.0674 -1.4943
  368MOL0     H48529   9.268   0.942   3.626  0.4901 -0.1419 -0.5472
  368MOL0     H48530   9.272   0.728   3.943 -2.2398 -2.8430 -2.3172
  368MOL0     H48531   9.179   0.759   3.802  2.3983 -1.4454 -0.1983
  368MOL0     H48532   9.045   0.889   3.938  1.3904  0.2429 -1.0266
  368MOL0     H48533   9.168   1.015   3.941 -3.2313  1.6203  0.7558
  368MOL0     H48534   9.103   0.953   4.155 -1.4288 -0.5205 -1.2681
  368MOL0     H48535   9.143   0.784   4.133 -1.1314  0.2391 -1.0796
  368MOL0     H48536   9.323   1.043   4.149  3.7676 -1.3643 -1.6622
  368MOL0     H48537   9.390   0.894   4.090  1.2256 -1.0536  1.6880
  368MOL0     H48538   9.189   0.802   4.482 -2.3192 -0.2870 -1.7200
  368MOL0     H48539   9.131   0.571   4.523 -0.1675  1.6949 -0.2861
  368MOL0     H48540   9.095   0.093   4.464  0.9419  2.1098 -0.9973
  368MOL0     H48541   9.039  -0.141   4.409  0.3576 -0.2817 -0.8009
  368MOL0     H48542   9.254  -0.365   4.384 -1.7048 -1.9812  0.3484
  368MOL0     H48543   9.326  -0.350   4.219 -0.9033 -0.5833 -0.4969
  368MOL0     H48544   9.217  -0.497   4.125  0.7057  1.0892 -0.2530
  368MOL0     H48545   9.079  -0.522   4.240  0.1725 -2.8507 -0.1869
  368MOL0     H48546   9.205  -0.714   4.276 -1.0659  0.7008  0.2406
  368MOL0     H48547   9.247  -0.606   4.410  1.6125 -1.6808  0.3099
  368MOL0     H48548   9.449  -0.613   4.168  3.5320 -1.5470  0.5535
  368MOL0     H48549   9.456  -0.527   4.323  3.3723 -0.3160 -1.6982
  368MOL0     H48550   9.486  -0.726   4.448 -0.6601 -2.3703  0.4269
  368MOL0     H48551   9.589  -0.743   4.299  0.2274 -2.6386  0.8288
  368MOL0     H48552   9.334  -0.872   4.380 -0.2217  0.0188  0.1736
  368MOL0     H48553   9.487  -0.952   4.353  2.6816 -0.0603 -1.1354
  368MOL0     H48554   9.329  -0.999   4.149 -2.6672  1.4450 -1.1417
  368MOL0     H48555   9.340  -0.826   4.114  1.0164 -0.8216 -2.2306
  368MOL0     H48556   9.597  -0.990   4.111  0.1508  1.2205  1.7245
  368MOL0     H48557   9.567  -0.830   4.101  0.3299 -0.4687  0.6601
  368MOL0     H48558   9.302  -0.116   4.071  0.4363  3.7943 -1.5002
  368MOL0     H48559   9.368   0.102   4.124  1.2228 -0.2451 -0.2176
  368MOL0     H48560   9.448   0.456   4.244  1.0720  0.6701 -2.1987
  368MOL0     H48561   9.463   0.711   4.181 -0.0343  2.6380  1.9180
  368MOL0     H48562   9.191   0.564   2.600  1.6238  4.0477 -1.0801
  368MOL0     H48563   9.210   0.362   2.484  0.1082  0.1890  0.3195
  368MOL0     H48564   9.157   0.068   2.144  0.4423  1.5080  1.1957
  368MOL0     H48565   9.107  -0.171   2.138  1.4803  1.5707 -2.6629
  368MOL0     H48566   9.168  -0.415   2.080 -0.6858 -2.7565 -0.3050
  368MOL0     H48567   9.046  -0.357   2.204  0.9176  1.4756  2.3652
  368MOL0     H48568   9.120  -0.574   2.341 -0.4232 -0.6650 -0.0010
  368MOL0     H48569   9.001  -0.577   2.218 -0.2289  0.1484  3.2989
  368MOL0     H48570   9.222  -0.617   2.068 -0.2197 -0.3809 -0.2701
  368MOL0     H48571   9.165  -0.760   2.150  1.2999 -1.0963 -0.5108
  368MOL0     H48572   9.376  -0.574   2.265  2.7360 -1.0468  0.9662
  368MOL0     H48573   9.332  -0.730   2.341 -0.2431 -3.5176 -1.3697
  368MOL0     H48574   9.619  -0.845   2.079  1.3789  1.8854  0.9393
  368MOL0     H48575   9.423  -0.249   2.398  0.8104  0.6399  0.0189
  368MOL0     H48576   9.463  -0.016   2.453  0.3708  1.8118 -0.8349
  369MOL0     O48577   1.317  11.141   8.376  0.8777  0.5361  0.5699
  369MOL0     C48578   1.315  11.262   8.390  0.3708  0.6653 -0.0449
  369MOL0     O48579   1.285  11.354   8.296 -0.4751 -1.0539 -0.3388
  369MOL0     C48580   1.275  11.301   8.172 -0.7146 -0.2229  0.1278
  369MOL0     C48581   1.392  11.270   8.101 -0.7716  0.5790 -0.4205
  369MOL0     C48582   1.382  11.211   7.976 -0.9370 -0.8229 -0.0033
  369MOL0     C48583   1.256  11.181   7.921  0.4620  0.1738 -0.0194
  369MOL0     O48584   1.249  11.117   7.800 -0.5554  0.3145  0.2073
  369MOL0     C48585   1.376  11.063   7.737  0.1773  0.1081  0.1515
  369MOL0     C48586   1.329  10.961   7.639 -0.5945  0.4972 -0.5462
  369MOL0     C48587   1.286  10.835   7.703  0.4925  0.3557 -0.6589
  369MOL0     C48588   1.383  10.731   7.748 -0.3095 -0.5344 -0.4215
  369MOL0     C48589   1.398  10.750   7.906 -0.3061  0.0053 -0.0773
  369MOL0     C48590   1.277  10.712   7.990  0.8837  0.1079 -0.5537
  369MOL0     C48591   1.302  10.754   8.132 -0.7692  0.2402  0.1856
  369MOL0     C48592   1.192  10.846   8.190 -0.1682  0.2567 -0.0778
  369MOL0     N48593   1.066  10.784   8.232 -1.0073 -0.5804  0.4186
  369MOL0     C48594   0.945  10.853   8.236 -0.8395 -0.5143 -0.3071
  369MOL0     C48595   0.860  10.750   8.274 -0.4134 -0.4577 -0.3895
  369MOL0     C48596   0.708  10.759   8.293 -0.0352 -0.6785  0.4488
  369MOL0     C48597   0.616  10.819   8.180 -0.7049 -0.9599  0.9619
  369MOL0     C48598   0.645  10.959   8.138  0.0204  0.6410 -0.3565
  369MOL0     C48599   0.648  11.061   8.255  0.5559 -0.5352 -0.7330
  369MOL0     O48600   0.514  11.060   8.316 -0.1329 -0.1987 -0.1162
  369MOL0     C48601   0.489  11.078   8.450 -1.3480  0.3457  0.5558
  369MOL0     C48602   0.585  11.123   8.543  0.2056  0.0178  0.6238
  369MOL0     C48603   0.551  11.139   8.678 -0.1255 -0.1314  0.6391
  369MOL0     C48604   0.419  11.111   8.721  1.7387  0.1462 -0.6146
  369MOL0     C48605   0.389  11.122   8.869  0.5455 -0.2043 -0.3244
  369MOL0     O48606   0.486  11.188   8.946  0.3176 -0.4384  0.2410
  369MOL0     C48607   0.488  11.157   9.078 -0.4084 -0.6460  0.0494
  369MOL0     C48608   0.519  11.032   9.123 -0.2949  0.1271  0.7927
  369MOL0     C48609   0.539  11.018   9.261 -0.4999 -0.2237 -0.0050
  369MOL0     C48610   0.512  11.119   9.353 -0.1702 -0.3290 -0.1812
  369MOL0     O48611   0.508  11.078   9.483 -0.1463 -0.2897 -0.2068
  369MOL0     C48612   0.522  11.183   9.582  0.2322  0.3632  0.2326
  369MOL0     C48613   0.552  11.113   9.715 -0.1169  0.5764 -0.0340
  369MOL0     C48614   0.428  11.057   9.789 -0.4026  0.2049 -0.3988
  369MOL0     C48615   0.340  10.967   9.712  0.4576 -0.0951 -0.3060
  369MOL0     C48616   0.235  10.915   9.823 -0.1949  0.3034  0.1725
  369MOL0     C48617   0.157  10.797   9.778 -0.2741  0.6998 -0.3534
  369MOL0     C48618   0.048  10.849   9.683 -0.2682 -1.5798 -0.2416
  369MOL0     C48619  -0.036  10.734   9.629 -0.5970 -0.5496 -0.0945
  369MOL0    Cl48620  -0.186  10.795   9.532  0.3189  0.0008  0.3729
  369MOL0     C48621   0.484  11.247   9.306  0.5089 -0.6317  0.4828
  369MOL0     C48622   0.469  11.267   9.167 -0.2370  0.4383  1.0742
  369MOL0     O48623   0.290  11.061   8.912  0.6343 -0.0322 -0.8350
  369MOL0     C48624   0.316  11.084   8.625 -0.5594  0.0356 -0.5698
  369MOL0     C48625   0.358  11.064   8.489 -0.3072 -0.6605 -0.3529
  369MOL0     N48626   0.933  10.644   8.314  0.0691 -0.3499  0.0584
  369MOL0     N48627   1.058  10.662   8.278  0.0616  0.6184 -1.3179
  369MOL0     C48628   1.142  11.205   7.999 -0.9203  1.1366  0.6708
  369MOL0     C48629   1.148  11.260   8.129  0.0557  0.2801 -0.0458
  369MOL0     C48630   1.321  11.312   8.526  0.0490 -0.6990 -0.4083
  369MOL0     C48631   1.296  11.447   8.549 -0.2449  0.2732 -0.2720
  369MOL0     C48632   1.297  11.491   8.686  0.2401  0.0217  0.3760
  369MOL0     C48633   1.336  11.400   8.787  0.1958  0.9978 -0.5478
  369MOL0     O48634   1.359  11.426   8.918 -0.0248 -0.6875 -0.3567
  369MOL0     C48635   1.329  11.560   8.975  0.1765  0.7003  0.2711
  369MOL0     C48636   1.178  11.583   8.981 -0.3677 -0.1401 -0.0198
  369MOL0     C48637   1.137  11.729   9.026  0.0567 -0.1342  0.1188
  369MOL0     C48638   0.998  11.754   8.968  0.9340 -0.0432  0.7249
  369MOL0     C48639   0.982  11.731   8.825 -1.6870  0.8381 -0.5532
  369MOL0     C48640   0.958  11.726   8.710  0.0128 -0.3522 -0.4799
  369MOL0     C48641   1.372  11.265   8.759 -0.3548 -0.8095  0.1535
  369MOL0     C48642   1.354  11.217   8.628 -0.5552  0.4964  0.1496
  369MOL0     H48643   1.487  11.298   8.145  0.5579 -3.9536  0.1495
  369MOL0     H48644   1.472  11.190   7.920 -0.0523 -1.4146  1.5876
  369MOL0     H48645   1.442  11.015   7.811 -0.5241 -0.0210  0.7106
  369MOL0     H48646   1.433  11.146   7.694 -2.0117  1.5071 -0.2407
  369MOL0     H48647   1.408  10.938   7.567  0.6315  0.5801  0.7223
  369MOL0     H48648   1.244  11.007   7.588  0.3363  2.1363 -0.7024
  369MOL0     H48649   1.223  10.775   7.636 -1.7029 -0.8780  2.2675
  369MOL0     H48650   1.207  10.859   7.775 -1.6220 -3.3693 -1.4419
  369MOL0     H48651   1.343  10.631   7.729  2.7597 -2.2940  1.5644
  369MOL0     H48652   1.475  10.754   7.692 -0.9892  3.0563 -0.3257
  369MOL0     H48653   1.442  10.846   7.933 -1.9771  0.8256 -0.1255
  369MOL0     H48654   1.478  10.682   7.935 -1.0300 -1.1962 -0.7954
  369MOL0     H48655   1.260  10.604   7.981 -4.2094  0.7698 -2.8415
  369MOL0     H48656   1.179  10.746   7.955 -0.4081 -3.0646 -0.3499
  369MOL0     H48657   1.304  10.665   8.195 -0.6478 -0.1540 -0.3676
  369MOL0     H48658   1.402  10.797   8.140 -0.0397 -1.2240 -0.6485
  369MOL0     H48659   1.173  10.928   8.121 -3.1275 -0.2437  0.0297
  369MOL0     H48660   1.242  10.894   8.275 -0.6649  1.2001 -0.3090
  369MOL0     H48661   0.912  10.951   8.204 -3.5924 -1.2119  0.1727
  369MOL0     H48662   0.681  10.816   8.382 -1.1069  0.8555 -0.8060
  369MOL0     H48663   0.683  10.652   8.292 -1.4701 -0.3684 -0.7608
  369MOL0     H48664   0.515  10.805   8.220 -1.1646  2.0746  1.0560
  369MOL0     H48665   0.636  10.751   8.097 -0.9055 -0.0519  0.1590
  369MOL0     H48666   0.734  10.970   8.074 -0.4892 -1.8639 -1.6033
  369MOL0     H48667   0.560  10.984   8.075  1.0215 -0.0541 -2.0473
  369MOL0     H48668   0.681  11.158   8.218  0.4835 -0.9553 -1.9555
  369MOL0     H48669   0.731  11.034   8.322  1.5326  1.7170 -0.9403
  369MOL0     H48670   0.686  11.132   8.504  0.4661 -0.3283  1.1973
  369MOL0     H48671   0.626  11.163   8.753  0.2151 -4.1014  1.7913
  369MOL0     H48672   0.522  10.950   9.053 -2.5652  0.2823  0.4146
  369MOL0     H48673   0.556  10.918   9.301 -0.5587  0.7718  2.7207
  369MOL0     H48674   0.438  11.251   9.599 -1.3314 -1.5683  0.6114
  369MOL0     H48675   0.609  11.242   9.552  1.0916 -2.3799 -3.3755
  369MOL0     H48676   0.588  11.190   9.783  0.8213  0.3506 -0.2633
  369MOL0     H48677   0.620  11.029   9.702  0.3461  0.8000  0.9104
  369MOL0     H48678   0.368  11.141   9.826 -4.6535 -2.0996 -1.3200
  369MOL0     H48679   0.470  10.991   9.864  0.8249 -2.3761 -3.1605
  369MOL0     H48680   0.306  11.027   9.628 -0.4298  1.4893  1.1190
  369MOL0     H48681   0.390  10.879   9.672  2.2480  0.2936  0.9542
  369MOL0     H48682   0.167  10.994   9.856 -0.4871  0.9873 -1.9607
  369MOL0     H48683   0.299  10.887   9.907 -0.2918  4.1862  1.7842
  369MOL0     H48684   0.108  10.747   9.862  1.0475 -1.4712 -0.7996
  369MOL0     H48685   0.208  10.716   9.726  0.2569  1.2304 -0.6735
  369MOL0     H48686  -0.004  10.926   9.740  2.6893  0.8431 -0.6033
  369MOL0     H48687   0.083  10.905   9.596 -1.4692  1.8193  1.2981
  369MOL0     H48688  -0.072  10.668   9.708  1.1066 -1.1028  0.2634
  369MOL0     H48689   0.015  10.671   9.555 -1.0298 -1.0803  0.0562
  369MOL0     H48690   0.466  11.319   9.385 -0.3588  2.2272 -2.1103
  369MOL0     H48691   0.448  11.365   9.124  1.4539  0.0647 -0.7446
  369MOL0     H48692   0.217  11.073   8.668  1.0966 -1.2782  3.3174
  369MOL0     H48693   0.297  11.045   8.401 -0.1209 -3.4330  0.0341
  369MOL0     H48694   1.038  11.192   7.972 -0.2810  1.5857 -2.2836
  369MOL0     H48695   1.065  11.269   8.197  1.1793  2.5785  1.1382
  369MOL0     H48696   1.252  11.516   8.477 -0.5424  0.1931 -0.1683
  369MOL0     H48697   1.270  11.596   8.694 -0.3352 -0.0067 -0.9734
  369MOL0     H48698   1.381  11.639   8.920  0.4028  0.3122 -0.0737
  369MOL0     H48699   1.357  11.572   9.081 -1.1843  0.7490  0.6409
  369MOL0     H48700   1.125  11.545   8.893 -0.2170 -0.5385  0.0630
  369MOL0     H48701   1.139  11.519   9.061 -0.6689 -0.6340 -0.5566
  369MOL0     H48702   1.213  11.798   8.988 -0.1807  0.8700  1.4383
  369MOL0     H48703   1.136  11.732   9.135 -0.9032 -2.7684  0.2722
  369MOL0     H48704   0.919  11.706   9.027  0.9368  0.0068  0.7696
  369MOL0     H48705   0.991  11.863   8.976  0.8623 -0.0467  0.7079
  369MOL0     H48706   0.923  11.736   8.610  1.1607 -0.4375 -0.9143
  369MOL0     H48707   1.410  11.204   8.840 -0.0656 -2.2701 -1.0280
  369MOL0     H48708   1.382  11.113   8.613  3.5500  1.3268  0.9179
  370MOL0     O48709   4.694   1.932   6.281  0.5136 -0.3768  0.4606
  370MOL0     C48710   4.767   1.913   6.374  0.1197 -0.3277 -0.2609
  370MOL0     O48711   4.905   1.880   6.370  0.8678 -0.6307 -0.0351
  370MOL0     C48712   4.961   1.884   6.243 -0.7775 -0.2685 -0.4737
  370MOL0     C48713   5.058   1.984   6.217 -0.0210 -0.4459 -1.1646
  370MOL0     C48714   5.116   1.994   6.092  0.1159  0.4949  0.1553
  370MOL0     C48715   5.099   1.897   6.000  0.3979  0.3796  0.0207
  370MOL0     O48716   5.187   1.891   5.893 -0.3115  0.1443  0.2128
  370MOL0     C48717   5.331   1.865   5.911 -0.0341  1.7305  0.5576
  370MOL0     C48718   5.382   1.738   5.846 -0.6982 -0.3148  0.7420
  370MOL0     C48719   5.530   1.704   5.890 -0.3727 -0.1786  0.4963
  370MOL0     C48720   5.645   1.760   5.789 -0.4060  0.4826  0.7825
  370MOL0     C48721   5.784   1.759   5.861 -0.3987  0.5929  0.5147
  370MOL0     C48722   5.902   1.824   5.774 -0.2102 -0.2869 -0.1523
  370MOL0     C48723   6.044   1.789   5.828  1.4824  0.5374  0.2460
  370MOL0     C48724   6.077   1.886   5.944  0.1321 -0.5027 -0.0821
  370MOL0     N48725   6.093   2.017   5.895 -0.4657 -1.0818  0.3313
  370MOL0     C48726   5.995   2.117   5.912 -0.3884 -0.9817  0.0213
  370MOL0     C48727   6.043   2.226   5.848 -1.0814  0.4946 -0.4491
  370MOL0     C48728   5.993   2.365   5.831  0.0830  1.0073  0.6670
  370MOL0     C48729   6.050   2.467   5.919 -0.8653 -0.4420  0.2096
  370MOL0     C48730   6.193   2.518   5.859 -0.4910  0.3834 -0.2029
  370MOL0     C48731   6.242   2.652   5.915  0.6441  0.6102 -0.3350
  370MOL0     O48732   6.135   2.745   5.914 -0.6305  0.5629  0.2114
  370MOL0     C48733   6.124   2.839   5.823  0.3903 -0.8304 -0.1767
  370MOL0     C48734   6.035   2.936   5.852  1.3675  0.4241  0.0688
  370MOL0     C48735   5.991   3.032   5.755 -0.1345  0.2545  0.6970
  370MOL0     C48736   6.055   3.035   5.626 -0.6808  0.5775 -0.5470
  370MOL0     C48737   6.018   3.124   5.516  0.3049 -0.1833 -1.0319
  370MOL0     O48738   5.942   3.234   5.545  0.5439 -0.5296  0.1458
  370MOL0     C48739   5.876   3.290   5.439 -0.0869 -0.6383 -0.6382
  370MOL0     C48740   5.901   3.413   5.384 -0.5819  0.2086  0.1096
  370MOL0     C48741   5.835   3.471   5.274 -0.5453  0.2496  0.6779
  370MOL0     C48742   5.723   3.390   5.224 -0.3808 -0.0050  0.2424
  370MOL0     O48743   5.654   3.437   5.116 -0.5838 -0.2191  0.4892
  370MOL0     C48744   5.557   3.353   5.053  0.4166  0.0551  0.1014
  370MOL0     C48745   5.503   3.406   4.923 -0.3211  0.2739  0.4745
  370MOL0     C48746   5.575   3.336   4.806  0.7515 -0.4296 -0.6764
  370MOL0     C48747   5.545   3.392   4.668  0.2989  0.5841 -0.8865
  370MOL0     C48748   5.621   3.321   4.554  0.6286 -0.1767  0.7740
  370MOL0     C48749   5.522   3.242   4.482  0.6998  0.7586  0.3552
  370MOL0     C48750   5.586   3.154   4.373  0.8341 -0.4800  0.2518
  370MOL0     C48751   5.473   3.095   4.293  0.1322 -0.1496  0.7311
  370MOL0    Cl48752   5.392   3.227   4.188 -0.5766  0.1820 -0.2445
  370MOL0     C48753   5.690   3.268   5.281 -1.1489  0.6734  0.0969
  370MOL0     C48754   5.768   3.221   5.387  0.2503 -0.2515 -0.2393
  370MOL0     O48755   6.058   3.098   5.401 -0.1994  0.2186 -0.7836
  370MOL0     C48756   6.155   2.931   5.605  0.3005 -0.0784  0.3119
  370MOL0     C48757   6.190   2.839   5.701  0.1222 -0.2313 -0.5154
  370MOL0     N48758   6.168   2.196   5.789 -0.4344 -0.0183 -0.0295
  370MOL0     N48759   6.191   2.066   5.813 -0.3167  0.4062 -0.5229
  370MOL0     C48760   4.991   1.803   6.021  0.3790 -0.1422  0.3525
  370MOL0     C48761   4.921   1.802   6.144  1.0899 -0.6153 -1.0309
  370MOL0     C48762   4.704   1.932   6.506 -0.6224 -0.0848  0.4504
  370MOL0     C48763   4.577   1.988   6.526  0.7667 -0.2531 -0.0544
  370MOL0     C48764   4.507   2.008   6.651 -1.0469 -0.2535  0.2126
  370MOL0     C48765   4.575   1.943   6.763 -0.4831 -1.6926 -0.1397
  370MOL0     O48766   4.537   1.977   6.891  0.0444 -0.8261  0.6494
  370MOL0     C48767   4.409   1.939   6.926  0.3106  0.1799  0.3617
  370MOL0     C48768   4.399   1.913   7.075 -0.8712  0.3579 -0.0528
  370MOL0     C48769   4.417   2.053   7.143  0.2795 -0.0961  0.0565
  370MOL0     C48770   4.325   2.074   7.268  0.0643 -0.0729  0.3108
  370MOL0     C48771   4.360   1.974   7.367  0.2638 -0.1753 -0.7213
  370MOL0     C48772   4.385   1.889   7.456 -0.4930 -0.1949  0.4515
  370MOL0     C48773   4.689   1.868   6.742  0.0899  0.5666  0.4295
  370MOL0     C48774   4.760   1.873   6.624  0.2418  0.4302  0.0304
  370MOL0     H48775   5.062   2.075   6.276 -3.1950  0.3877 -2.0206
  370MOL0     H48776   5.189   2.070   6.069  0.3120 -0.3948 -2.5738
  370MOL0     H48777   5.341   1.857   6.020 -2.4689  2.0566  0.8715
  370MOL0     H48778   5.389   1.952   5.879 -0.9090  1.6048 -1.5184
  370MOL0     H48779   5.384   1.764   5.740  1.1914  3.0517  1.4750
  370MOL0     H48780   5.313   1.657   5.873 -1.0986 -0.1313  0.2922
  370MOL0     H48781   5.541   1.595   5.890 -2.9074 -0.5110  0.0282
  370MOL0     H48782   5.525   1.746   5.991  0.6157  1.1278  0.0318
  370MOL0     H48783   5.642   1.704   5.695 -0.3206 -0.6934  1.4667
  370MOL0     H48784   5.619   1.862   5.758 -1.6085 -0.2659 -0.8466
  370MOL0     H48785   5.818   1.657   5.880  5.5713  1.4630 -3.1852
  370MOL0     H48786   5.768   1.825   5.947 -3.0778 -0.0118  0.5902
  370MOL0     H48787   5.888   1.923   5.731 -0.0797 -0.8130 -1.4555
  370MOL0     H48788   5.901   1.758   5.687  4.1193 -0.5099 -0.2740
  370MOL0     H48789   6.033   1.688   5.867  2.9575  0.3111  0.1117
  370MOL0     H48790   6.115   1.779   5.745 -0.1172 -1.2221 -0.9971
  370MOL0     H48791   6.169   1.864   5.998 -1.3462  0.8465  3.2689
  370MOL0     H48792   6.005   1.889   6.026 -1.7862  0.4841 -1.7256
  370MOL0     H48793   5.897   2.097   5.953 -1.9775 -0.4474 -3.2095
  370MOL0     H48794   5.884   2.363   5.827  0.1109 -0.2893 -0.3645
  370MOL0     H48795   6.006   2.394   5.726 -1.5455  2.2058  0.7706
  370MOL0     H48796   6.055   2.405   6.009 -3.9374  1.8458  2.1444
  370MOL0     H48797   5.993   2.557   5.939  0.3780  0.1663  1.1750
  370MOL0     H48798   6.268   2.446   5.893 -2.9149 -0.4265  4.0768
  370MOL0     H48799   6.181   2.526   5.750 -2.0792 -2.7320 -0.3692
  370MOL0     H48800   6.326   2.687   5.854 -0.1237  3.4595  0.1028
  370MOL0     H48801   6.273   2.635   6.019  1.5209  2.9451 -0.1464
  370MOL0     H48802   5.984   2.935   5.948 -0.3448 -2.3927 -0.7604
  370MOL0     H48803   5.915   3.104   5.784 -0.4397  0.1458  0.1889
  370MOL0     H48804   5.976   3.474   5.434 -1.4594  1.6122 -0.2122
  370MOL0     H48805   5.865   3.564   5.227 -1.7624  1.0559  1.4560
  370MOL0     H48806   5.461   3.351   5.105 -0.3266  0.9666 -1.1799
  370MOL0     H48807   5.594   3.252   5.036 -2.6589 -1.0020 -0.9287
  370MOL0     H48808   5.521   3.513   4.909 -0.2552 -0.0712 -2.9045
  370MOL0     H48809   5.397   3.377   4.919 -0.8931  1.3946  3.9651
  370MOL0     H48810   5.538   3.234   4.797  1.8090 -0.8758 -0.1596
  370MOL0     H48811   5.680   3.332   4.837  1.1942 -0.7429 -2.1361
  370MOL0     H48812   5.437   3.381   4.656  0.0945 -3.3651  2.2066
  370MOL0     H48813   5.567   3.499   4.666  1.7484  0.3116 -0.8168
  370MOL0     H48814   5.703   3.256   4.588  0.5228 -0.6381  0.1737
  370MOL0     H48815   5.667   3.394   4.487  1.1234 -0.9737  0.2205
  370MOL0     H48816   5.451   3.311   4.436 -2.6312 -2.2053  0.6635
  370MOL0     H48817   5.466   3.170   4.541 -0.9165  0.8329 -1.0333
  370MOL0     H48818   5.654   3.214   4.312  0.0928  4.6260  3.7691
  370MOL0     H48819   5.641   3.072   4.420 -0.5854 -0.7071  1.5869
  370MOL0     H48820   5.395   3.055   4.358  1.2911 -0.8926  1.6979
  370MOL0     H48821   5.529   3.022   4.234 -2.8808 -0.1118 -2.5456
  370MOL0     H48822   5.612   3.198   5.251 -0.2141 -1.2307  1.8222
  370MOL0     H48823   5.731   3.130   5.433  0.8135 -1.4982 -2.1479
  370MOL0     H48824   6.187   2.905   5.504 -0.4383 -3.2570  0.7934
  370MOL0     H48825   6.280   2.783   5.677  0.2987  0.6077 -1.9165
  370MOL0     H48826   4.967   1.714   5.963  2.4890 -0.5350 -0.0041
  370MOL0     H48827   4.842   1.732   6.169  1.3337  0.1770  2.4947
  370MOL0     H48828   4.520   2.040   6.450  0.2705 -1.2095 -0.3611
  370MOL0     H48829   4.433   2.086   6.666  0.5219  1.1263  1.0822
  370MOL0     H48830   4.365   1.857   6.870 -0.1495  2.1278 -2.3624
  370MOL0     H48831   4.350   2.022   6.886  4.2360  1.3238 -3.9962
  370MOL0     H48832   4.311   1.857   7.106  0.2309 -2.3075 -1.4693
  370MOL0     H48833   4.479   1.846   7.106 -2.1774 -2.4142 -2.2290
  370MOL0     H48834   4.387   2.136   7.078  0.0159  0.4879  0.9146
  370MOL0     H48835   4.523   2.066   7.163 -0.0050 -0.4656  1.9765
  370MOL0     H48836   4.330   2.176   7.308 -5.0126 -0.0802  1.6395
  370MOL0     H48837   4.223   2.055   7.236  0.3268  1.7375 -1.7762
  370MOL0     H48838   4.418   1.818   7.529  1.4532 -2.0115 -1.9861
  370MOL0     H48839   4.734   1.841   6.837 -3.1658  0.1405  2.0107
  370MOL0     H48840   4.862   1.835   6.616  0.3921  1.0743 -1.5133
  371MOL0     O48841   8.245   9.051   7.715 -0.1919  0.9837  0.9390
  371MOL0     C48842   8.134   9.036   7.763  0.7653  0.3411  0.3472
  371MOL0     O48843   8.108   9.063   7.899  0.2272 -0.8118  0.2654
  371MOL0     C48844   8.199   9.074   7.992 -0.6711 -0.3043 -0.1917
  371MOL0     C48845   8.289   9.185   7.991  0.5689  0.1226  0.5374
  371MOL0     C48846   8.367   9.196   8.097  0.0802 -0.0281 -0.8738
  371MOL0     C48847   8.364   9.123   8.215  1.6139 -0.7020 -0.8898
  371MOL0     O48848   8.445   9.167   8.318  0.1134  0.7415  0.3661
  371MOL0     C48849   8.441   9.088   8.438 -0.8865  0.0737 -1.1885
  371MOL0     C48850   8.550   9.139   8.537 -0.5252 -0.7656 -0.5376
  371MOL0     C48851   8.516   9.279   8.590  0.0333 -0.7385  0.5250
  371MOL0     C48852   8.391   9.308   8.676  0.7467  0.5313  0.1349
  371MOL0     C48853   8.375   9.452   8.728 -0.2285 -0.1555 -0.7660
  371MOL0     C48854   8.351   9.559   8.617 -0.2548 -0.0718  0.2658
  371MOL0     C48855   8.304   9.692   8.677  0.5108 -0.2258  0.4817
  371MOL0     C48856   8.420   9.788   8.692 -0.8812 -0.1320 -0.6116
  371MOL0     N48857   8.499   9.747   8.811  0.3896 -0.4950 -0.1263
  371MOL0     C48858   8.450   9.768   8.942  0.1635 -0.5760 -0.4468
  371MOL0     C48859   8.556   9.742   9.030  0.3844 -0.3266 -0.4699
  371MOL0     C48860   8.557   9.763   9.179 -0.7508 -0.8536 -0.1617
  371MOL0     C48861   8.684   9.822   9.239 -1.1567 -0.6551 -0.3485
  371MOL0     C48862   8.660   9.866   9.382  0.0039  0.2456 -0.1470
  371MOL0     C48863   8.677  10.013   9.398 -0.7910 -1.1074 -0.2649
  371MOL0     O48864   8.675  10.067   9.534  0.0693  0.0206  0.6097
  371MOL0     C48865   8.658  10.203   9.548 -0.0978 -0.8731  0.6852
  371MOL0     C48866   8.639  10.280   9.435  0.6926 -0.7280  0.5391
  371MOL0     C48867   8.630  10.424   9.445 -0.5368  0.8645  0.2329
  371MOL0     C48868   8.637  10.482   9.569  0.5046 -1.2107 -0.7367
  371MOL0     C48869   8.653  10.630   9.591 -0.0377 -0.4025 -0.3138
  371MOL0     O48870   8.711  10.702   9.498  0.0202 -0.4294 -0.6959
  371MOL0     C48871   8.732  10.835   9.521  0.6568  0.0578 -0.1501
  371MOL0     C48872   8.682  10.922   9.427  0.4931 -0.7355 -0.0331
  371MOL0     C48873   8.684  11.069   9.442 -0.2440 -0.3783 -0.2784
  371MOL0     C48874   8.751  11.124   9.549 -0.4373  0.5069  0.8109
  371MOL0     O48875   8.766  11.266   9.569  0.2390  0.8959 -0.2902
  371MOL0     C48876   8.778  11.345   9.450 -0.1598  0.5282  0.6021
  371MOL0     C48877   8.841  11.481   9.492  0.1403 -0.1640  0.1241
  371MOL0     C48878   8.923  11.545   9.384 -0.3704 -0.1271 -0.5162
  371MOL0     C48879   8.997  11.680   9.420  0.7208  0.4184 -0.1211
  371MOL0     C48880   9.079  11.741   9.309  0.4666  0.9605  0.1647
  371MOL0     C48881   8.972  11.795   9.194 -0.7566  0.7193  0.0615
  371MOL0     C48882   9.042  11.888   9.095 -1.3562  0.5483  0.2444
  371MOL0     C48883   8.992  11.871   8.950  0.2377 -0.6936 -0.3086
  371MOL0    Cl48884   8.814  11.914   8.947  0.0805 -0.1003  0.3500
  371MOL0     C48885   8.804  11.039   9.647  0.2911  0.4376 -0.2427
  371MOL0     C48886   8.793  10.899   9.632  0.6237 -0.7194  0.1293
  371MOL0     O48887   8.612  10.665   9.702  0.5630  0.5500 -0.5205
  371MOL0     C48888   8.645  10.403   9.680  0.8558  0.0699 -0.1301
  371MOL0     C48889   8.652  10.261   9.669 -0.1349  0.1686 -0.5109
  371MOL0     N48890   8.660   9.700   8.944 -0.4060  0.0306 -0.6676
  371MOL0     N48891   8.626   9.708   8.820 -0.3279 -0.4046 -0.2173
  371MOL0     C48892   8.263   9.028   8.219 -0.3254  0.1100 -0.5276
  371MOL0     C48893   8.191   8.996   8.109  0.0410 -0.4115  0.7812
  371MOL0     C48894   8.012   8.973   7.697 -0.2950  0.4976  0.2974
  371MOL0     C48895   7.886   8.940   7.757  0.0520 -0.3915  0.8219
  371MOL0     C48896   7.782   8.888   7.675 -0.3444 -0.3307  0.1750
  371MOL0     C48897   7.810   8.848   7.548  0.0253 -1.4457  1.1568
  371MOL0     O48898   7.708   8.791   7.478  0.3208  0.0772  0.8657
  371MOL0     C48899   7.717   8.729   7.347 -0.7631  0.4038  0.3860
  371MOL0     C48900   7.569   8.670   7.327 -0.1960  0.9199  0.1167
  371MOL0     C48901   7.571   8.588   7.192 -0.0561 -0.5126  0.3074
  371MOL0     C48902   7.445   8.602   7.108 -0.1448 -0.4566  0.9666
  371MOL0     C48903   7.438   8.505   6.993  0.0861  1.5573 -0.3380
  371MOL0     C48904   7.444   8.426   6.898  0.1653  0.6497  0.4521
  371MOL0     C48905   7.938   8.865   7.493 -0.3971 -0.1696  0.0361
  371MOL0     C48906   8.036   8.922   7.567 -0.2698  0.0881 -0.4526
  371MOL0     H48907   8.293   9.259   7.911 -0.8835 -0.0675  0.2449
  371MOL0     H48908   8.426   9.287   8.098 -0.7135  0.6400  3.2057
  371MOL0     H48909   8.457   8.981   8.428  0.9857  0.1209  0.6777
  371MOL0     H48910   8.347   9.104   8.493 -0.9076  1.6645 -1.6127
  371MOL0     H48911   8.642   9.143   8.479 -1.0946  2.3271 -1.4018
  371MOL0     H48912   8.560   9.057   8.610 -2.7937 -1.4066 -0.8552
  371MOL0     H48913   8.522   9.345   8.503  2.9439 -0.2940  0.9655
  371MOL0     H48914   8.594   9.311   8.660 -0.9653  0.3387  1.1929
  371MOL0     H48915   8.303   9.298   8.611  0.0296  1.7817  0.8793
  371MOL0     H48916   8.376   9.230   8.752 -2.6366 -0.1870 -1.0824
  371MOL0     H48917   8.461   9.477   8.792 -0.8486 -1.8670  0.8149
  371MOL0     H48918   8.286   9.458   8.791  0.0798  1.4400 -0.4387
  371MOL0     H48919   8.264   9.524   8.560  0.2838 -1.0023 -0.0081
  371MOL0     H48920   8.426   9.583   8.541 -2.7809  2.7537 -1.5737
  371MOL0     H48921   8.226   9.728   8.610 -2.3310 -2.2783  2.4605
  371MOL0     H48922   8.256   9.684   8.775  2.8123  1.3090  1.8306
  371MOL0     H48923   8.386   9.892   8.702  1.5036  0.5874  0.8756
  371MOL0     H48924   8.487   9.793   8.605  0.3805 -0.2473  0.3243
  371MOL0     H48925   8.356   9.797   8.988  1.0113 -0.9206  1.6106
  371MOL0     H48926   8.554   9.671   9.238  1.6723 -1.4716 -0.8861
  371MOL0     H48927   8.475   9.834   9.198  1.3075  1.4614  0.5401
  371MOL0     H48928   8.717   9.912   9.186 -1.0999  0.0308  0.8199
  371MOL0     H48929   8.756   9.741   9.248 -0.5927  0.0646  3.3606
  371MOL0     H48930   8.560   9.832   9.411 -0.0472  0.6737  0.1929
  371MOL0     H48931   8.723   9.813   9.454 -0.9646 -1.2759 -0.3921
  371MOL0     H48932   8.593  10.062   9.349  1.1984  1.9330 -0.9272
  371MOL0     H48933   8.764  10.050   9.344 -0.7433 -0.5166  0.2050
  371MOL0     H48934   8.620  10.248   9.333 -1.5368  0.0157  0.6671
  371MOL0     H48935   8.628  10.480   9.352 -3.4000  0.6118  0.0512
  371MOL0     H48936   8.625  10.872   9.348 -0.7752 -0.4537  0.6851
  371MOL0     H48937   8.640  11.139   9.371  3.3006  2.5990  0.1705
  371MOL0     H48938   8.685  11.357   9.394  0.4853  2.7159 -0.0968
  371MOL0     H48939   8.859  11.303   9.391 -0.8185 -1.2731  0.9329
  371MOL0     H48940   8.912  11.456   9.572 -2.6820  1.8954  3.5827
  371MOL0     H48941   8.758  11.544   9.525 -1.1590 -0.7391 -1.8648
  371MOL0     H48942   8.873  11.544   9.286  1.8493  1.8039 -1.7780
  371MOL0     H48943   9.010  11.481   9.374  0.8456  0.6085  3.4652
  371MOL0     H48944   8.916  11.751   9.438  0.3311  0.0860 -0.5423
  371MOL0     H48945   9.063  11.650   9.502 -1.6176 -0.0485  1.7287
  371MOL0     H48946   9.127  11.653   9.264 -0.2980  0.6882 -0.1415
  371MOL0     H48947   9.155  11.812   9.343 -0.1243  0.1518  3.5530
  371MOL0     H48948   8.888  11.845   9.242 -4.1202 -4.6228  0.5131
  371MOL0     H48949   8.918  11.711   9.149 -1.6957  0.2365  2.0018
  371MOL0     H48950   9.021  11.985   9.140  0.3304  0.8207  0.4913
  371MOL0     H48951   9.150  11.879   9.107 -1.4178 -1.8636 -0.3588
  371MOL0     H48952   8.997  11.764   8.927 -1.4801 -0.5674 -1.4155
  371MOL0     H48953   9.048  11.927   8.875  2.7180 -0.3706  1.6524
  371MOL0     H48954   8.865  11.075   9.729  0.7620 -2.3106  0.7075
  371MOL0     H48955   8.839  10.841   9.711  4.3142  0.8121 -0.6579
  371MOL0     H48956   8.665  10.448   9.777  2.8105 -0.1735 -0.3681
  371MOL0     H48957   8.663  10.207   9.762 -2.6191 -1.7109 -1.1937
  371MOL0     H48958   8.242   8.977   8.312 -0.7831  1.0748 -0.0776
  371MOL0     H48959   8.118   8.917   8.121 -1.1114  0.6278  0.8224
  371MOL0     H48960   7.855   8.967   7.857 -2.6177 -2.4660  0.6716
  371MOL0     H48961   7.679   8.876   7.707 -0.4594  1.5686  0.6423
  371MOL0     H48962   7.795   8.652   7.341  0.2403  1.4020  0.2471
  371MOL0     H48963   7.739   8.793   7.261 -0.9590 -0.8356 -0.6347
  371MOL0     H48964   7.559   8.595   7.406 -0.0458 -1.3885 -1.9081
  371MOL0     H48965   7.491   8.746   7.336  1.0731  2.5068 -1.4823
  371MOL0     H48966   7.571   8.480   7.208 -1.4394 -1.3514 -4.0073
  371MOL0     H48967   7.659   8.621   7.136 -0.3123  1.6036  1.0610
  371MOL0     H48968   7.356   8.582   7.167 -1.3025 -1.3249 -0.9589
  371MOL0     H48969   7.444   8.705   7.072 -2.2284  0.2761  2.9214
  371MOL0     H48970   7.456   8.367   6.809  3.0739 -0.1113  1.2258
  371MOL0     H48971   7.949   8.836   7.389 -0.3168 -1.6398  0.4226
  371MOL0     H48972   8.134   8.937   7.524  1.0765 -2.1303  1.6116
  372MOL0     O48973  11.398   5.557   5.300 -0.8864 -0.0032 -0.6400
  372MOL0     C48974  11.510   5.515   5.280 -0.2863 -0.1410  0.7303
  372MOL0     O48975  11.611   5.488   5.368  0.2566  0.5451 -0.4443
  372MOL0     C48976  11.595   5.497   5.504  0.3791 -0.7177  0.0094
  372MOL0     C48977  11.700   5.443   5.571 -0.6749 -0.2182  0.2211
  372MOL0     C48978  11.670   5.416   5.709  0.3562  0.1983 -0.5804
  372MOL0     C48979  11.553   5.461   5.778  0.3674 -0.0570  0.8646
  372MOL0     O48980  11.533   5.413   5.909 -0.1308 -0.1339 -0.2405
  372MOL0     C48981  11.421   5.437   5.985 -0.2357 -0.1075  0.4280
  372MOL0     C48982  11.416   5.382   6.133  0.1079 -0.5023 -0.7358
  372MOL0     C48983  11.431   5.230   6.139  0.0733 -0.5594  0.4109
  372MOL0     C48984  11.400   5.177   6.284 -1.0394  0.2332  0.4780
  372MOL0     C48985  11.402   5.023   6.303  0.4981 -0.1218 -0.1005
  372MOL0     C48986  11.541   4.962   6.257  1.1678  0.2255  0.3107
  372MOL0     C48987  11.525   4.840   6.181  0.2812 -0.7040  0.3190
  372MOL0     C48988  11.654   4.777   6.154 -0.2151 -0.5502  1.1244
  372MOL0     N48989  11.628   4.694   6.024  0.6994  0.0730  0.4850
  372MOL0     C48990  11.641   4.736   5.895 -0.2186  0.0890  0.1137
  372MOL0     C48991  11.634   4.621   5.821  0.3152 -0.2509 -0.0137
  372MOL0     C48992  11.681   4.599   5.682 -0.9568  0.3904 -0.2069
  372MOL0     C48993  11.578   4.658   5.586 -0.7648  0.1318 -0.6219
  372MOL0     C48994  11.601   4.607   5.450  0.0957  0.4492  0.4052
  372MOL0     C48995  11.510   4.664   5.343 -0.6280 -0.3005  1.0516
  372MOL0     O48996  11.498   4.809   5.345 -0.1984  0.7702 -0.1999
  372MOL0     C48997  11.438   4.872   5.230  0.6162  1.4405 -0.1710
  372MOL0     C48998  11.363   4.795   5.144 -0.2565  0.6654  0.2946
  372MOL0     C48999  11.310   4.846   5.024 -0.0695  0.5163 -0.0259
  372MOL0     C49000  11.309   4.978   4.994  1.1862 -0.1269 -0.0397
  372MOL0     C49001  11.253   5.036   4.869  0.1570  0.2862  0.5059
  372MOL0     O49002  11.217   4.952   4.761 -0.1339 -0.0616  0.2204
  372MOL0     C49003  11.182   5.009   4.644 -0.3771 -0.1260  0.6974
  372MOL0     C49004  11.051   5.049   4.605 -0.3151 -0.3369  0.1503
  372MOL0     C49005  11.013   5.094   4.480  0.8259 -0.6136  0.9005
  372MOL0     C49006  11.116   5.101   4.388  0.4090  0.0421 -0.1052
  372MOL0     O49007  11.085   5.157   4.267  0.1704  0.3935  0.1245
  372MOL0     C49008  11.172   5.254   4.222  0.3831 -0.5702  0.5816
  372MOL0     C49009  11.197   5.374   4.320  0.2355  0.0915 -0.1283
  372MOL0     C49010  11.074   5.461   4.351 -0.9016  0.0862 -0.7097
  372MOL0     C49011  11.111   5.559   4.467 -0.2120 -0.0001 -0.8026
  372MOL0     C49012  11.007   5.668   4.501  0.4317 -0.2041 -0.4640
  372MOL0     C49013  10.993   5.783   4.403 -0.2744  0.3371  0.1292
  372MOL0     C49014  10.847   5.835   4.413  0.2473 -0.4305 -0.8096
  372MOL0     C49015  10.830   5.961   4.484 -1.2556 -0.9303 -0.1484
  372MOL0    Cl49016  10.666   6.010   4.507 -0.1035 -0.1847  0.1688
  372MOL0     C49017  11.246   5.065   4.415 -0.4686  0.3206 -0.8555
  372MOL0     C49018  11.284   5.020   4.542  0.2507  0.6699  0.0591
  372MOL0     O49019  11.245   5.157   4.863  0.0828 -0.0942  0.7265
  372MOL0     C49020  11.377   5.055   5.085  0.5931 -0.2149  0.9067
  372MOL0     C49021  11.441   5.005   5.199 -0.8419 -0.1600  0.8996
  372MOL0     N49022  11.597   4.516   5.909 -0.6759  0.3819 -0.0270
  372MOL0     N49023  11.583   4.566   6.026 -1.1057 -0.8988  0.3501
  372MOL0     C49024  11.463   5.533   5.706  0.3838 -0.2452 -0.6807
  372MOL0     C49025  11.485   5.555   5.570  0.8890 -0.1472 -1.0558
  372MOL0     C49026  11.548   5.486   5.141  0.1217  0.3830 -0.1187
  372MOL0     C49027  11.687   5.504   5.102  0.1545 -1.1770 -0.3818
  372MOL0     C49028  11.733   5.469   4.979  0.8146  0.0956  0.5640
  372MOL0     C49029  11.639   5.445   4.876 -0.1580 -0.3048  1.0362
  372MOL0     O49030  11.694   5.425   4.751  0.3321 -0.1041 -0.2988
  372MOL0     C49031  11.616   5.383   4.638 -0.0596 -0.4273 -0.0958
  372MOL0     C49032  11.594   5.228   4.655  0.6196  0.5360 -0.0095
  372MOL0     C49033  11.727   5.148   4.646 -0.0006  0.1593 -1.0679
  372MOL0     C49034  11.720   5.004   4.664  0.7077  0.4902 -0.5976
  372MOL0     C49035  11.665   4.976   4.797 -0.5058  0.0222 -0.3047
  372MOL0     C49036  11.628   4.943   4.908 -1.1116  0.1884  0.2238
  372MOL0     C49037  11.504   5.445   4.900  0.1888  0.3557  0.5842
  372MOL0     C49038  11.457   5.454   5.034  0.5122 -0.1237 -0.3366
  372MOL0     H49039  11.787   5.408   5.515 -2.0251 -1.9215 -0.9205
  372MOL0     H49040  11.748   5.360   5.760  1.2372  0.5344 -1.5236
  372MOL0     H49041  11.330   5.403   5.935  1.4843 -3.7903 -0.4851
  372MOL0     H49042  11.421   5.546   5.988  0.3181 -0.1193  1.5107
  372MOL0     H49043  11.320   5.413   6.175 -0.6199 -3.6025  0.0814
  372MOL0     H49044  11.503   5.424   6.185  0.6147 -2.6439  0.2103
  372MOL0     H49045  11.531   5.200   6.104 -0.6022 -0.7968 -1.4550
  372MOL0     H49046  11.367   5.174   6.070  3.0106 -2.4070 -1.0288
  372MOL0     H49047  11.472   5.229   6.347 -0.5567 -0.9970  0.9904
  372MOL0     H49048  11.299   5.210   6.307 -1.5933 -1.5982  0.8172
  372MOL0     H49049  11.320   4.977   6.247 -0.0268  0.0849  0.4971
  372MOL0     H49050  11.386   4.994   6.407 -0.4619 -0.7791 -0.4166
  372MOL0     H49051  11.587   4.923   6.348  2.2712 -2.5401 -1.2933
  372MOL0     H49052  11.596   5.031   6.192  0.4007  1.0691  0.5374
  372MOL0     H49053  11.457   4.770   6.230  2.4009 -1.9902  1.5849
  372MOL0     H49054  11.491   4.869   6.081  1.5980  2.3203  0.6625
  372MOL0     H49055  11.677   4.714   6.241 -0.0490  0.4873  1.8583
  372MOL0     H49056  11.724   4.857   6.127 -0.8001  0.0127  1.2413
  372MOL0     H49057  11.681   4.826   5.849  2.8841 -2.0390 -1.7428
  372MOL0     H49058  11.688   4.492   5.660  3.4649  0.4497 -0.1063
  372MOL0     H49059  11.783   4.639   5.676 -0.6634  0.0413  1.9082
  372MOL0     H49060  11.590   4.767   5.585 -1.3183  0.3180  2.8371
  372MOL0     H49061  11.477   4.631   5.619 -0.3041 -1.8186 -0.6610
  372MOL0     H49062  11.699   4.648   5.425 -1.9534  4.0701 -2.8771
  372MOL0     H49063  11.606   4.501   5.426  1.3265  0.7062 -0.5902
  372MOL0     H49064  11.409   4.621   5.346 -2.7736  4.1194  1.1499
  372MOL0     H49065  11.550   4.648   5.243  2.1304 -0.4022  2.0861
  372MOL0     H49066  11.355   4.687   5.155  1.1589  0.7270  2.4775
  372MOL0     H49067  11.259   4.783   4.952 -2.1752  0.6671  1.2625
  372MOL0     H49068  10.967   5.053   4.674  1.0602 -1.3213  1.9928
  372MOL0     H49069  10.915   5.124   4.447  1.4895 -0.8552 -1.4786
  372MOL0     H49070  11.133   5.302   4.132  1.3822 -0.2645  0.2875
  372MOL0     H49071  11.269   5.214   4.190  1.5590  0.5145  2.5693
  372MOL0     H49072  11.276   5.438   4.281 -1.1107  0.8546 -1.7340
  372MOL0     H49073  11.232   5.334   4.416  1.6723 -0.5023 -0.8674
  372MOL0     H49074  10.984   5.402   4.372 -0.9740  0.5758  0.4118
  372MOL0     H49075  11.043   5.530   4.272  2.6699  2.8791  0.1083
  372MOL0     H49076  11.128   5.485   4.545 -0.3717  0.1093 -0.6625
  372MOL0     H49077  11.208   5.605   4.446 -0.4490  0.8701 -0.0605
  372MOL0     H49078  11.036   5.707   4.599 -1.9622  2.3188 -0.6344
  372MOL0     H49079  10.918   5.605   4.507 -0.4706  1.1190  1.0508
  372MOL0     H49080  11.016   5.746   4.302  3.6435 -1.2384  1.4008
  372MOL0     H49081  11.063   5.861   4.434 -0.6107  0.2482  1.1653
  372MOL0     H49082  10.804   5.851   4.314 -1.5562  1.7819  0.2392
  372MOL0     H49083  10.781   5.766   4.466  1.3195 -2.0162 -1.4593
  372MOL0     H49084  10.879   6.041   4.428  2.1622 -0.6852  2.8434
  372MOL0     H49085  10.865   5.949   4.586 -2.2955 -1.7654  0.1312
  372MOL0     H49086  11.330   5.063   4.346  1.4281 -1.2786  1.3438
  372MOL0     H49087  11.380   4.978   4.568 -1.5280 -3.3138  1.0545
  372MOL0     H49088  11.385   5.162   5.070 -0.9112 -0.4361 -2.1491
  372MOL0     H49089  11.486   5.078   5.266  2.0709  0.1065 -1.1592
  372MOL0     H49090  11.382   5.578   5.762  1.0925  0.8203 -0.4674
  372MOL0     H49091  11.401   5.605   5.524 -0.7802 -1.5611  0.3028
  372MOL0     H49092  11.757   5.539   5.177  1.4745 -4.0941 -0.1172
  372MOL0     H49093  11.839   5.476   4.954  0.5479  2.0746 -0.1666
  372MOL0     H49094  11.662   5.405   4.541 -2.9574 -0.1848 -1.5339
  372MOL0     H49095  11.517   5.427   4.622  0.6225  0.5311 -1.8835
  372MOL0     H49096  11.539   5.197   4.744  1.6917 -0.7631  0.2260
  372MOL0     H49097  11.531   5.202   4.570  2.8381  2.7366 -2.5369
  372MOL0     H49098  11.794   5.193   4.720  0.9045 -1.4193 -0.8721
  372MOL0     H49099  11.771   5.172   4.549 -0.0666  4.3547 -0.2358
  372MOL0     H49100  11.658   4.954   4.589  1.4627 -1.5680  0.0954
  372MOL0     H49101  11.817   4.956   4.648 -0.2608 -1.4847 -0.8434
  372MOL0     H49102  11.590   4.910   5.003  0.1907 -1.4264  0.2233
  372MOL0     H49103  11.441   5.436   4.812 -2.7082 -0.4307  2.6324
  372MOL0     H49104  11.350   5.452   5.053 -0.0388  3.0003 -2.3838
  373MOL0     O49105  10.613   2.873   0.282 -0.3432 -0.1521  0.0235
  373MOL0     C49106  10.713   2.797   0.258 -0.1345  0.0127 -0.4184
  373MOL0     O49107  10.773   2.767   0.136 -0.3102  0.6552  0.8238
  373MOL0     C49108  10.765   2.855   0.026 -0.0084  0.6458 -0.1060
  373MOL0     C49109  10.718   2.805  -0.090 -1.0533  0.4183 -0.4799
  373MOL0     C49110  10.704   2.880  -0.205 -1.7869 -0.0179  0.0125
  373MOL0     C49111  10.735   3.012  -0.215 -0.5924 -0.2115 -0.7007
  373MOL0     O49112  10.727   3.088  -0.328 -0.1640 -0.6520  0.3423
  373MOL0     C49113  10.619   3.067  -0.419 -1.0064 -0.3606 -0.5760
  373MOL0     C49114  10.599   3.185  -0.519 -1.0022 -0.0596 -0.8313
  373MOL0     C49115  10.470   3.177  -0.603  0.0732 -0.2135 -0.4539
  373MOL0     C49116  10.448   3.313  -0.660  0.2975  0.1573  1.0152
  373MOL0     C49117  10.369   3.396  -0.560  0.1005  0.4465 -0.4617
  373MOL0     C49118  10.379   3.550  -0.602 -0.1947 -0.3455  1.2367
  373MOL0     C49119  10.298   3.657  -0.514  0.6559  0.4865  0.8862
  373MOL0     C49120  10.154   3.639  -0.548 -0.0429 -0.1637 -0.9919
  373MOL0     N49121  10.067   3.680  -0.425  0.0681  0.9298 -0.3253
  373MOL0     C49122   9.932   3.653  -0.415  0.2506 -0.3776  0.2577
  373MOL0     C49123   9.886   3.723  -0.309  0.5825 -1.2916  0.5020
  373MOL0     C49124   9.750   3.711  -0.250  0.9422  0.5701  0.0634
  373MOL0     C49125   9.643   3.776  -0.332 -0.7718  0.3129 -0.8735
  373MOL0     C49126   9.628   3.933  -0.320 -0.5794  0.4099  0.8316
  373MOL0     C49127   9.654   3.984  -0.180 -0.4438 -0.6891 -0.8120
  373MOL0     O49128   9.638   4.122  -0.163  0.4950 -0.1734 -0.6776
  373MOL0     C49129   9.524   4.172  -0.099  0.3632  0.0144  0.6172
  373MOL0     C49130   9.392   4.139  -0.136  0.4984  0.6441  0.0604
  373MOL0     C49131   9.288   4.189  -0.064  0.7768  0.0135  0.5427
  373MOL0     C49132   9.299   4.298   0.023 -0.1744  0.0722  0.3766
  373MOL0     C49133   9.190   4.360   0.087  0.4851 -0.3173  0.2187
  373MOL0     O49134   9.218   4.415   0.206 -0.3693  0.5308  0.0756
  373MOL0     C49135   9.124   4.475   0.283 -0.3901 -0.1855 -0.1556
  373MOL0     C49136   9.109   4.441   0.418  0.1739 -0.1981 -0.1396
  373MOL0     C49137   9.026   4.515   0.506  0.0374  0.1172 -0.8141
  373MOL0     C49138   8.950   4.623   0.456 -0.4692  0.7683  0.0429
  373MOL0     O49139   8.867   4.693   0.542 -0.5624 -0.2724  0.4614
  373MOL0     C49140   8.846   4.830   0.503 -0.0425 -1.0492 -0.2932
  373MOL0     C49141   8.799   4.914   0.619 -0.0690 -0.8982  0.5938
  373MOL0     C49142   8.897   4.912   0.741 -0.3178  0.9081  0.0353
  373MOL0     C49143   9.045   4.937   0.699 -0.2378  0.1745  0.4395
  373MOL0     C49144   9.152   4.935   0.813  0.5465 -0.9840  0.5432
  373MOL0     C49145   9.147   4.820   0.911 -0.1083  0.0231  0.1303
  373MOL0     C49146   9.186   4.678   0.857 -0.2550 -0.2124 -0.6045
  373MOL0     C49147   9.216   4.585   0.966 -0.2906 -0.0885 -0.0069
  373MOL0    Cl49148   9.058   4.556   1.046  0.2649 -0.2966 -0.6128
  373MOL0     C49149   8.964   4.653   0.320 -0.7566  0.2747  0.0451
  373MOL0     C49150   9.053   4.580   0.235 -1.1362 -0.0095 -0.2037
  373MOL0     O49151   9.080   4.351   0.036  0.0232  0.0034  0.8729
  373MOL0     C49152   9.436   4.332   0.053  0.4263 -0.3791 -0.1895
  373MOL0     C49153   9.545   4.262  -0.002  1.1952 -0.1503  0.4690
  373MOL0     N49154   9.987   3.800  -0.266  1.4871  0.3188  0.2255
  373MOL0     N49155  10.089   3.766  -0.324 -0.6035 -0.0184 -0.2159
  373MOL0     C49156  10.796   3.068  -0.098  0.5792 -0.3826  0.7733
  373MOL0     C49157  10.811   2.995   0.026 -0.6118  0.9089  0.1441
  373MOL0     C49158  10.778   2.727   0.378  1.5983 -1.0970 -0.1181
  373MOL0     C49159  10.903   2.682   0.368 -0.1524  0.4960  0.3422
  373MOL0     C49160  10.955   2.595   0.470 -1.8212 -0.5896  0.2794
  373MOL0     C49161  10.886   2.582   0.593  1.1504  0.3201 -0.7708
  373MOL0     O49162  10.941   2.500   0.686 -0.3234 -0.3269 -0.3079
  373MOL0     C49163  10.951   2.363   0.665  0.5889  0.4315 -0.2924
  373MOL0     C49164  10.812   2.307   0.689 -0.7447 -0.9173  0.0584
  373MOL0     C49165  10.771   2.320   0.835  1.1893  0.3988  0.6002
  373MOL0     C49166  10.671   2.205   0.883 -0.5950  0.8913 -1.2151
  373MOL0     C49167  10.691   2.177   1.026 -0.4126 -0.0978  0.2769
  373MOL0     C49168  10.716   2.163   1.141  0.3210 -0.9567 -0.0343
  373MOL0     C49169  10.766   2.645   0.611  0.1420 -0.2647  1.1669
  373MOL0     C49170  10.709   2.716   0.501 -0.0610 -0.1063 -0.4889
  373MOL0     H49171  10.675   2.706  -0.089  0.6827 -0.5568  4.4185
  373MOL0     H49172  10.666   2.833  -0.295 -2.2803  0.3704  0.0176
  373MOL0     H49173  10.527   3.076  -0.360 -1.0458  2.1938 -0.9234
  373MOL0     H49174  10.619   2.968  -0.466 -0.5385  0.2544 -1.9380
  373MOL0     H49175  10.686   3.186  -0.586 -0.4947  1.8443 -0.2007
  373MOL0     H49176  10.600   3.278  -0.462 -1.6244  0.2861 -1.3828
  373MOL0     H49177  10.382   3.153  -0.542 -1.8170  1.9768 -2.1233
  373MOL0     H49178  10.471   3.107  -0.687  1.7629 -0.2170 -0.4743
  373MOL0     H49179  10.537   3.364  -0.698  1.2703 -0.5031  2.3455
  373MOL0     H49180  10.385   3.307  -0.750  3.9675  2.4080 -2.0008
  373MOL0     H49181  10.397   3.371  -0.457 -2.5373  1.2229  0.5474
  373MOL0     H49182  10.262   3.370  -0.564  0.3180 -0.3691 -1.1661
  373MOL0     H49183  10.359   3.563  -0.709 -1.5209 -2.4513  1.1781
  373MOL0     H49184  10.485   3.577  -0.590 -0.8416  2.9167  0.5574
  373MOL0     H49185  10.325   3.634  -0.410  0.0365 -2.9364  0.4057
  373MOL0     H49186  10.320   3.762  -0.535 -0.8605  1.3562  3.1869
  373MOL0     H49187  10.132   3.533  -0.560  1.1134 -0.5574  0.1548
  373MOL0     H49188  10.130   3.688  -0.642  2.1594  0.7709 -1.1229
  373MOL0     H49189   9.885   3.581  -0.481  1.7690  0.6084 -2.0351
  373MOL0     H49190   9.748   3.742  -0.145  1.2890  1.5164 -0.1932
  373MOL0     H49191   9.736   3.603  -0.249  0.7197  0.5954  1.1196
  373MOL0     H49192   9.557   3.715  -0.303  0.1370  0.8449  3.7048
  373MOL0     H49193   9.660   3.737  -0.432  0.9550 -1.4112  0.0232
  373MOL0     H49194   9.690   3.981  -0.397  1.7350 -0.5966  1.9444
  373MOL0     H49195   9.524   3.960  -0.341  0.5232  3.3418 -1.7129
  373MOL0     H49196   9.759   3.965  -0.157 -0.7580  0.6034  2.1142
  373MOL0     H49197   9.598   3.920  -0.111  2.3560 -2.3352  0.0946
  373MOL0     H49198   9.362   4.057  -0.200  2.1616 -0.7720  1.0074
  373MOL0     H49199   9.189   4.153  -0.088  0.2406  2.4191 -1.2911
  373MOL0     H49200   9.159   4.352   0.454  0.1056 -1.0449 -2.0388
  373MOL0     H49201   9.010   4.491   0.611  1.4584  1.7866 -0.1784
  373MOL0     H49202   8.766   4.835   0.429 -1.9273  2.5087  1.7594
  373MOL0     H49203   8.933   4.878   0.458  0.3877  0.9056  2.3959
  373MOL0     H49204   8.698   4.881   0.647 -0.8606 -1.6079 -2.7241
  373MOL0     H49205   8.791   5.017   0.585  0.2901 -0.7752  0.8776
  373MOL0     H49206   8.884   4.818   0.795  1.1617 -0.5142 -1.9342
  373MOL0     H49207   8.871   4.991   0.811  0.4657  0.7899  0.4653
  373MOL0     H49208   9.074   4.855   0.633 -2.2853  0.8270 -1.3988
  373MOL0     H49209   9.054   5.036   0.654  2.2234  0.4231  1.3432
  373MOL0     H49210   9.156   5.031   0.865  0.4090 -0.4614 -0.3789
  373MOL0     H49211   9.248   4.931   0.760 -0.3717 -2.4713 -1.1271
  373MOL0     H49212   9.045   4.833   0.948  0.0994  1.7488  0.1944
  373MOL0     H49213   9.211   4.838   0.998  2.2612  0.2457 -1.5504
  373MOL0     H49214   9.104   4.634   0.801 -0.5379 -0.4986  0.0217
  373MOL0     H49215   9.277   4.685   0.796 -1.4558 -2.5923 -2.8530
  373MOL0     H49216   9.289   4.630   1.033 -2.1138 -0.1966  2.1817
  373MOL0     H49217   9.250   4.486   0.934 -3.4704 -1.2610 -0.0997
  373MOL0     H49218   8.913   4.738   0.277 -1.2316  1.2657  2.3891
  373MOL0     H49219   9.068   4.616   0.134  2.1681 -2.5259 -0.7910
  373MOL0     H49220   9.461   4.408   0.126  0.5302 -0.9696  0.3889
  373MOL0     H49221   9.650   4.274   0.024  1.1187  0.1906  0.6200
  373MOL0     H49222  10.825   3.173  -0.099 -2.0332  0.4186  1.2967
  373MOL0     H49223  10.847   3.036   0.120  1.8026 -0.8712  0.0669
  373MOL0     H49224  10.968   2.708   0.285  2.2817 -0.4322  1.8605
  373MOL0     H49225  11.060   2.565   0.464 -0.5898  3.3274 -0.9041
  373MOL0     H49226  11.028   2.324   0.732  1.0674  1.8032 -0.0108
  373MOL0     H49227  10.988   2.340   0.565  3.9700  0.2747  0.8828
  373MOL0     H49228  10.739   2.354   0.622  1.0456 -0.5604 -1.7672
  373MOL0     H49229  10.811   2.202   0.659  1.0279 -0.9643  0.0688
  373MOL0     H49230  10.736   2.423   0.842 -1.3247  0.1195 -3.7933
  373MOL0     H49231  10.853   2.309   0.907  3.2046 -1.5612 -1.8169
  373MOL0     H49232  10.568   2.239   0.870  0.1647  4.3031  0.4492
  373MOL0     H49233  10.691   2.108   0.839  1.7047  1.2291 -1.0597
  373MOL0     H49234  10.744   2.129   1.239  1.9153  0.2114 -0.0360
  373MOL0     H49235  10.708   2.638   0.702 -1.1081 -1.2405  0.3289
  373MOL0     H49236  10.604   2.744   0.504 -0.6463 -2.1331  1.8737
  374MOL0     O49237  10.344  10.658   6.525 -0.5630  0.6089  0.0967
  374MOL0     C49238  10.449  10.657   6.457  0.7864 -0.2963  0.5749
  374MOL0     O49239  10.463  10.598   6.339  0.0379 -0.0278  0.2400
  374MOL0     C49240  10.350  10.541   6.280  0.3665  1.0787 -0.7486
  374MOL0     C49241  10.287  10.608   6.171  0.9820 -1.0327  0.1432
  374MOL0     C49242  10.178  10.555   6.096 -0.3678  0.0781  0.0890
  374MOL0     C49243  10.134  10.415   6.128 -0.1799  0.0639 -0.2926
  374MOL0     O49244  10.039  10.368   6.042 -0.0492 -0.1404 -0.2200
  374MOL0     C49245   9.997  10.239   6.056  1.0890  0.2594  0.2018
  374MOL0     C49246   9.854  10.235   6.132 -0.7573  0.2925 -1.4106
  374MOL0     C49247   9.805  10.091   6.124  0.1160  0.6624  0.1378
  374MOL0     C49248   9.906   9.993   6.175  0.5294  0.8734 -1.1121
  374MOL0     C49249   9.858   9.844   6.190 -1.3164 -0.2108  0.3965
  374MOL0     C49250   9.753   9.847   6.304  0.1810 -0.9709 -0.7774
  374MOL0     C49251   9.636   9.753   6.285  0.5234  0.1975  0.1272
  374MOL0     C49252   9.658   9.606   6.278 -0.5230  0.8605  0.3413
  374MOL0     N49253   9.687   9.543   6.406 -0.5270  0.3831 -0.8643
  374MOL0     C49254   9.816   9.529   6.452  0.5556  0.2492  0.9669
  374MOL0     C49255   9.807   9.446   6.552  1.3229 -0.6596 -0.7385
  374MOL0     C49256   9.915   9.407   6.634 -0.5167 -0.0461 -0.5873
  374MOL0     C49257   9.870   9.401   6.782 -0.0450 -0.1803 -0.3642
  374MOL0     C49258   9.846   9.547   6.827  1.2597 -0.2322  0.6355
  374MOL0     C49259   9.973   9.618   6.846 -0.1140 -0.6556 -0.2864
  374MOL0     O49260   9.937   9.757   6.852  0.2975 -0.9829  0.0788
  374MOL0     C49261  10.033   9.849   6.808 -0.5846 -0.0291 -1.6392
  374MOL0     C49262  10.000   9.941   6.707 -0.6157 -0.4286 -0.4311
  374MOL0     C49263  10.108  10.025   6.656  0.1436  0.6993 -0.1430
  374MOL0     C49264  10.231  10.022   6.729  0.0726 -1.2148  0.8821
  374MOL0     C49265  10.341  10.117   6.676  0.2783 -0.2969 -0.3470
  374MOL0     O49266  10.471  10.087   6.713  0.4193  0.0230 -0.1618
  374MOL0     C49267  10.574  10.172   6.672  0.2628 -0.4274  0.0065
  374MOL0     C49268  10.700  10.111   6.644 -0.5958 -0.2992 -0.0703
  374MOL0     C49269  10.798  10.193   6.588 -0.1701 -0.1105 -0.2719
  374MOL0     C49270  10.791  10.337   6.588 -0.1660  0.2500 -0.2024
  374MOL0     O49271  10.892  10.430   6.557  0.1933  0.4772 -0.5002
  374MOL0     C49272  11.022  10.375   6.532 -0.6261  0.6237 -0.2976
  374MOL0     C49273  11.111  10.503   6.531 -0.1667  0.0931  0.3748
  374MOL0     C49274  11.256  10.462   6.479  0.9257 -0.2616 -0.6632
  374MOL0     C49275  11.348  10.591   6.478 -0.4505 -0.0381  0.5413
  374MOL0     C49276  11.477  10.581   6.405 -0.2569  0.2676  0.5836
  374MOL0     C49277  11.560  10.464   6.451  0.2015 -0.2929 -0.6271
  374MOL0     C49278  11.693  10.443   6.365 -0.0736  0.0293 -0.4746
  374MOL0     C49279  11.661  10.376   6.234 -0.6219  0.8133  0.6014
  374MOL0    Cl49280  11.582  10.216   6.268  0.2100 -0.0948  0.3680
  374MOL0     C49281  10.668  10.387   6.629 -0.6213 -0.2301  0.3315
  374MOL0     C49282  10.561  10.311   6.666 -0.1378  0.6917 -0.5413
  374MOL0     O49283  10.308  10.202   6.589 -0.0757 -1.0279 -0.2057
  374MOL0     C49284  10.254   9.937   6.837  0.4186  1.2434 -0.4905
  374MOL0     C49285  10.157   9.846   6.872 -0.0477  0.3411 -0.7043
  374MOL0     N49286   9.673   9.417   6.582 -0.0700  0.3046  0.2880
  374MOL0     N49287   9.605   9.475   6.492  0.3782  0.6061 -0.2171
  374MOL0     C49288  10.202  10.348   6.237 -0.1617  0.1665  0.1529
  374MOL0     C49289  10.309  10.414   6.305 -0.0494  0.3883 -0.2217
  374MOL0     C49290  10.570  10.727   6.505 -0.9270 -0.1133 -0.5191
  374MOL0     C49291  10.686  10.754   6.417 -1.1309  0.5964  0.0606
  374MOL0     C49292  10.792  10.830   6.463 -0.3687 -0.3803  0.5062
  374MOL0     C49293  10.800  10.872   6.602 -0.7019  0.9884  0.6497
  374MOL0     O49294  10.908  10.946   6.648  0.2895  0.8623 -0.3033
  374MOL0     C49295  11.014  10.890   6.721  0.4256  1.0940  0.4121
  374MOL0     C49296  11.139  10.911   6.651  0.0372 -0.3834  0.2371
  374MOL0     C49297  11.271  10.881   6.725  0.5896  0.1436 -0.1982
  374MOL0     C49298  11.402  10.878   6.637  0.3760  0.6596  0.0165
  374MOL0     C49299  11.452  11.010   6.644 -0.0267 -0.9409 -0.0405
  374MOL0     C49300  11.497  11.128   6.658  0.7740 -0.7671 -0.9413
  374MOL0     C49301  10.690  10.848   6.680  0.0110 -0.9268 -0.0300
  374MOL0     C49302  10.572  10.784   6.628 -0.1816 -0.1928 -0.7035
  374MOL0     H49303  10.334  10.698   6.134 -0.7363  0.6283  1.7564
  374MOL0     H49304  10.128  10.613   6.019  0.3556  1.4313  0.6044
  374MOL0     H49305  10.071  10.172   6.101 -0.0902 -2.1673 -1.2308
  374MOL0     H49306   9.977  10.200   5.955  0.5687  1.4324 -0.1665
  374MOL0     H49307   9.792  10.313   6.086 -0.4926  1.2542 -0.1993
  374MOL0     H49308   9.861  10.263   6.237 -0.7954 -0.7429 -1.1281
  374MOL0     H49309   9.782  10.075   6.018 -0.7598  0.2483  0.3820
  374MOL0     H49310   9.706  10.079   6.170  0.4945 -1.3260  0.5213
  374MOL0     H49311   9.999   9.986   6.120  0.1829 -0.2125 -1.5898
  374MOL0     H49312   9.938  10.026   6.274  1.1711 -2.0034 -0.2706
  374MOL0     H49313   9.937   9.772   6.211 -3.7526 -3.7706 -1.4476
  374MOL0     H49314   9.810   9.803   6.100 -4.3860  2.2852  0.7071
  374MOL0     H49315   9.711   9.936   6.351 -2.8128 -2.4990 -0.2621
  374MOL0     H49316   9.815   9.801   6.381  0.2414 -0.3681 -0.4716
  374MOL0     H49317   9.576   9.771   6.375 -1.2101  1.0713 -1.1419
  374MOL0     H49318   9.582   9.782   6.194 -0.9239  0.2437  0.9677
  374MOL0     H49319   9.729   9.576   6.201  1.4136  0.4367  2.2020
  374MOL0     H49320   9.571   9.553   6.238  3.2077 -3.6067 -2.9558
  374MOL0     H49321   9.906   9.568   6.405  0.6023  0.0127  0.8608
  374MOL0     H49322   9.992   9.484   6.619  1.9051 -2.2190 -0.0626
  374MOL0     H49323   9.968   9.316   6.605  1.5905  0.1604  2.1466
  374MOL0     H49324   9.947   9.362   6.851 -0.2507 -2.4694 -1.3417
  374MOL0     H49325   9.787   9.333   6.803  0.6166 -0.9001  0.0184
  374MOL0     H49326   9.792   9.599   6.747  1.3638  0.5140  1.0370
  374MOL0     H49327   9.781   9.548   6.915 -1.4058  1.8701 -1.1506
  374MOL0     H49328  10.039   9.609   6.759 -0.1180 -0.9656 -0.2603
  374MOL0     H49329  10.030   9.586   6.934 -0.7485  1.6473  1.0625
  374MOL0     H49330   9.905   9.940   6.655 -1.0813 -2.6377  0.3507
  374MOL0     H49331  10.085  10.084   6.567  1.1488  1.0049 -0.2026
  374MOL0     H49332  10.706  10.003   6.648  1.3292 -0.2020  3.2255
  374MOL0     H49333  10.879  10.143   6.536 -1.1898  0.9445 -3.1278
  374MOL0     H49334  11.025  10.321   6.436  3.0256 -3.8402  1.9279
  374MOL0     H49335  11.061  10.318   6.616 -0.7491  1.5844  0.4234
  374MOL0     H49336  11.122  10.531   6.636  4.1622  0.3788  0.0152
  374MOL0     H49337  11.067  10.574   6.461 -1.1758  3.5757  4.1925
  374MOL0     H49338  11.250  10.422   6.377 -4.6356  1.1279 -1.1940
  374MOL0     H49339  11.290  10.387   6.551 -3.8626 -0.3365  1.8946
  374MOL0     H49340  11.287  10.673   6.441  1.6577  1.2422 -0.2225
  374MOL0     H49341  11.376  10.616   6.581  3.0553 -1.0786 -0.0423
  374MOL0     H49342  11.539  10.671   6.406  1.1943 -0.7005  0.5184
  374MOL0     H49343  11.458  10.569   6.298  1.7398  1.1272  0.0871
  374MOL0     H49344  11.502  10.373   6.468 -0.6885  0.3250 -0.3306
  374MOL0     H49345  11.584  10.498   6.552  1.8975 -0.6277 -0.8710
  374MOL0     H49346  11.737  10.539   6.337 -0.8865 -0.2857 -3.1432
  374MOL0     H49347  11.763  10.385   6.427  1.8373  1.2272 -1.4244
  374MOL0     H49348  11.755  10.354   6.182 -1.5092 -1.7526 -0.0867
  374MOL0     H49349  11.602  10.437   6.165  0.0384 -0.2289 -0.9491
  374MOL0     H49350  10.642  10.490   6.609 -1.0999 -0.3532  0.2808
  374MOL0     H49351  10.466  10.363   6.672 -0.4846  0.5465 -3.5988
  374MOL0     H49352  10.348   9.930   6.891  1.4545  0.2062 -2.3080
  374MOL0     H49353  10.178   9.773   6.950  1.7861 -0.4598 -1.8888
  374MOL0     H49354  10.181  10.244   6.258  0.0217 -0.0081 -0.4947
  374MOL0     H49355  10.358  10.357   6.383  2.2480  0.7205 -1.3423
  374MOL0     H49356  10.676  10.730   6.312  2.4227  0.6784 -0.4247
  374MOL0     H49357  10.862  10.887   6.403 -0.1468 -0.4221  0.7199
  374MOL0     H49358  11.001  10.782   6.732  0.3957  0.9013 -1.3526
  374MOL0     H49359  11.019  10.934   6.821 -1.1010 -1.8929  1.9179
  374MOL0     H49360  11.125  10.856   6.558 -2.3755 -0.3674  0.5262
  374MOL0     H49361  11.135  11.019   6.630 -1.6298  0.3312  3.5940
  374MOL0     H49362  11.250  10.787   6.776 -1.5043  1.0149  0.6567
  374MOL0     H49363  11.292  10.951   6.807  1.9604 -1.6330  1.0374
  374MOL0     H49364  11.470  10.806   6.684 -1.8591 -2.9564 -1.8902
  374MOL0     H49365  11.387  10.851   6.532 -1.1297  1.8020 -0.0889
  374MOL0     H49366  11.545  11.223   6.663  1.2656 -1.0683  0.8400
  374MOL0     H49367  10.681  10.888   6.780 -2.4529 -1.8347  0.1832
  374MOL0     H49368  10.483  10.786   6.690 -0.7420  0.0154 -1.5084
  375MOL0     O49369   4.378   2.839   7.904 -0.0768 -0.5294 -0.4556
  375MOL0     C49370   4.443   2.739   7.887 -0.6670  0.2742 -0.2690
  375MOL0     O49371   4.431   2.652   7.775  0.1063 -0.2208  0.2401
  375MOL0     C49372   4.317   2.661   7.700 -0.7853  0.4654 -0.0750
  375MOL0     C49373   4.323   2.629   7.562  1.2654 -1.1384 -1.2205
  375MOL0     C49374   4.209   2.632   7.485  0.0773 -0.1222  0.4753
  375MOL0     C49375   4.082   2.668   7.534 -0.0907  0.0502  0.8756
  375MOL0     O49376   3.970   2.636   7.458  0.2819 -0.9453  0.2371
  375MOL0     C49377   3.892   2.739   7.406 -0.9293  0.0218  0.5785
  375MOL0     C49378   3.972   2.806   7.282 -0.1812 -0.6629 -0.5004
  375MOL0     C49379   3.927   2.933   7.207 -0.3975  0.0034 -0.2362
  375MOL0     C49380   3.805   2.905   7.114 -0.5636 -0.8266 -0.6053
  375MOL0     C49381   3.785   3.034   7.024  0.3087  0.0238 -0.3543
  375MOL0     C49382   3.685   2.995   6.912  0.3523  0.4364 -0.4276
  375MOL0     C49383   3.542   2.998   6.967  0.4709  0.3420  1.1550
  375MOL0     C49384   3.451   2.948   6.848  0.6246  0.4194  0.2230
  375MOL0     N49385   3.313   2.994   6.873 -0.9075 -0.8340  0.7845
  375MOL0     C49386   3.225   3.022   6.772 -0.1390 -0.3820  0.2753
  375MOL0     C49387   3.108   3.033   6.833  0.2608 -0.0398  0.8122
  375MOL0     C49388   2.979   3.049   6.755  0.0950 -0.2363  0.5222
  375MOL0     C49389   2.881   3.111   6.860 -0.1529 -0.1144 -0.1660
  375MOL0     C49390   2.760   3.166   6.784  0.6155 -0.2259 -0.0603
  375MOL0     C49391   2.667   3.050   6.774 -0.4375  1.4213  0.0670
  375MOL0     O49392   2.554   3.093   6.698  0.0574  0.0440  0.0614
  375MOL0     C49393   2.468   2.992   6.667 -0.0436  0.3146 -0.0621
  375MOL0     C49394   2.477   2.859   6.681 -0.0626  0.5533  0.9109
  375MOL0     C49395   2.375   2.775   6.635 -0.7353 -0.0462 -0.3189
  375MOL0     C49396   2.259   2.822   6.574  0.5429  0.1939  0.9539
  375MOL0     C49397   2.148   2.737   6.515  0.0693 -0.5126 -0.2943
  375MOL0     O49398   2.034   2.797   6.456  0.2760 -0.1958 -0.0778
  375MOL0     C49399   1.945   2.721   6.395  0.3262 -0.4969 -0.3861
  375MOL0     C49400   1.922   2.754   6.263 -0.7330  0.1949 -0.1228
  375MOL0     C49401   1.806   2.709   6.200 -0.1807  0.0634  1.3765
  375MOL0     C49402   1.719   2.629   6.258  0.0859  0.8927 -0.4187
  375MOL0     O49403   1.596   2.600   6.200 -0.3866  0.6830  0.4125
  375MOL0     C49404   1.600   2.517   6.088  0.7430  0.2089 -0.1214
  375MOL0     C49405   1.474   2.429   6.104 -0.4414 -0.2937  1.0909
  375MOL0     C49406   1.347   2.518   6.107 -1.2929  0.2660  0.6035
  375MOL0     C49407   1.334   2.635   6.014  0.2131 -0.2019  0.2910
  375MOL0     C49408   1.224   2.742   6.054  1.3060 -0.9336  0.0396
  375MOL0     C49409   1.096   2.666   6.070 -0.0205 -0.2728 -0.0481
  375MOL0     C49410   0.988   2.764   6.104  0.1219 -1.1113 -0.1586
  375MOL0     C49411   0.853   2.701   6.139  0.2107 -0.3477  0.4077
  375MOL0    Cl49412   0.748   2.831   6.170  0.4711 -0.4789  0.2361
  375MOL0     C49413   1.743   2.587   6.387  0.3946 -0.3133 -1.0308
  375MOL0     C49414   1.860   2.632   6.460 -0.7399 -0.3278  0.8735
  375MOL0     O49415   2.159   2.610   6.524  0.8642 -0.2607 -0.1867
  375MOL0     C49416   2.250   2.960   6.559 -0.0273 -1.2485  1.1023
  375MOL0     C49417   2.347   3.039   6.614  0.0702 -0.9006  0.0732
  375MOL0     N49418   3.124   2.993   6.962 -0.5582 -1.1827  0.1256
  375MOL0     N49419   3.254   2.974   6.990  0.6417  0.3758  0.0465
  375MOL0     C49420   4.071   2.703   7.670  0.5528  0.7988  0.2961
  375MOL0     C49421   4.190   2.711   7.745  0.8677 -0.2569  0.7898
  375MOL0     C49422   4.553   2.696   7.985 -0.2561  1.0810  0.9314
  375MOL0     C49423   4.564   2.752   8.105  1.1337  0.2022 -0.2883
  375MOL0     C49424   4.675   2.728   8.188  0.1424 -0.4881  0.5970
  375MOL0     C49425   4.766   2.633   8.156  0.4750  0.5841  0.0049
  375MOL0     O49426   4.852   2.599   8.254  0.0548  0.8676 -0.0683
  375MOL0     C49427   4.990   2.599   8.214  0.9158  0.3881  0.1573
  375MOL0     C49428   5.033   2.458   8.193 -1.0406  0.9061  0.1081
  375MOL0     C49429   5.181   2.435   8.187 -0.2049  0.4957 -0.1165
  375MOL0     C49430   5.221   2.366   8.061 -0.1517 -0.0136 -0.0960
  375MOL0     C49431   5.164   2.232   8.051 -1.0481  0.7077  0.2172
  375MOL0     C49432   5.111   2.119   8.034  0.3509 -0.7664  0.1205
  375MOL0     C49433   4.753   2.576   8.034  0.9165  0.0087 -0.8212
  375MOL0     C49434   4.637   2.588   7.953  0.2493 -0.5590  0.4743
  375MOL0     H49435   4.408   2.579   7.518  0.3677 -2.8925 -1.0488
  375MOL0     H49436   4.207   2.585   7.387  0.0155  0.5646  0.1439
  375MOL0     H49437   3.873   2.815   7.484  2.7880  0.5764  1.1261
  375MOL0     H49438   3.802   2.697   7.361 -0.9550 -0.1169  0.7601
  375MOL0     H49439   4.000   2.725   7.214 -1.3379  0.0121 -1.8271
  375MOL0     H49440   4.065   2.826   7.336  0.2420  0.8649 -1.6950
  375MOL0     H49441   4.017   2.964   7.153  0.5444 -0.2784  1.1238
  375MOL0     H49442   3.903   3.012   7.279  0.6029  1.6290 -1.6206
  375MOL0     H49443   3.830   2.821   7.049 -1.0975 -1.2943 -0.2172
  375MOL0     H49444   3.716   2.889   7.176  1.2757 -0.2728  2.4045
  375MOL0     H49445   3.874   3.067   6.969 -0.1923 -0.3946 -1.4497
  375MOL0     H49446   3.730   3.111   7.080 -0.3600 -0.2657 -0.5932
  375MOL0     H49447   3.709   2.894   6.880  0.2013  0.7279 -1.4880
  375MOL0     H49448   3.692   3.050   6.818 -1.4280 -0.9690 -1.4480
  375MOL0     H49449   3.536   2.934   7.056  0.7234 -1.3589 -0.0133
  375MOL0     H49450   3.522   3.102   6.996  0.7076  0.5984  0.4055
  375MOL0     H49451   3.439   2.840   6.861 -0.5719  0.7315  2.3314
  375MOL0     H49452   3.494   2.976   6.752  2.0715  4.4600  1.8004
  375MOL0     H49453   3.248   3.043   6.668 -2.4239  0.8152 -0.0452
  375MOL0     H49454   2.941   2.952   6.721 -0.4705  0.3089 -0.4512
  375MOL0     H49455   2.988   3.114   6.668  2.5614 -0.5658  0.4487
  375MOL0     H49456   2.929   3.198   6.907  0.7137  0.5547 -2.1949
  375MOL0     H49457   2.854   3.037   6.936 -0.8230  1.4910  1.2093
  375MOL0     H49458   2.721   3.253   6.837  0.0355 -0.0247 -0.7897
  375MOL0     H49459   2.789   3.196   6.683  1.0280 -3.3997 -0.9901
  375MOL0     H49460   2.635   3.003   6.868  5.0635 -3.8491 -0.0914
  375MOL0     H49461   2.713   2.967   6.720 -0.7261  2.7252 -2.3370
  375MOL0     H49462   2.564   2.824   6.735  0.9723  0.9453 -0.4610
  375MOL0     H49463   2.394   2.669   6.646 -1.9294 -0.4817 -2.0683
  375MOL0     H49464   1.977   2.836   6.217 -1.5139 -0.1828 -1.8157
  375MOL0     H49465   1.782   2.748   6.102 -1.6037  0.7871  1.9863
  375MOL0     H49466   1.696   2.465   6.088  0.8152  0.2480 -2.4637
  375MOL0     H49467   1.598   2.576   5.996  2.4405  2.2790  1.0782
  375MOL0     H49468   1.489   2.377   6.199 -0.1489 -0.7229  0.8142
  375MOL0     H49469   1.472   2.346   6.033 -0.3736 -2.8168  3.8370
  375MOL0     H49470   1.345   2.560   6.207 -0.6575 -1.1871  1.2486
  375MOL0     H49471   1.265   2.446   6.099 -0.7937 -0.1291 -1.9214
  375MOL0     H49472   1.421   2.700   6.006  0.5323  0.0504  3.8924
  375MOL0     H49473   1.301   2.590   5.920 -0.3958 -0.1004  0.4497
  375MOL0     H49474   1.219   2.824   5.982 -0.6970 -0.8069  0.2734
  375MOL0     H49475   1.251   2.782   6.152  0.8229 -0.5662  0.0249
  375MOL0     H49476   1.113   2.601   6.156  1.3010  0.4659  0.2780
  375MOL0     H49477   1.063   2.611   5.981 -2.1827 -1.1711  1.2019
  375MOL0     H49478   1.019   2.834   6.182 -2.2070 -1.6888  1.4026
  375MOL0     H49479   0.972   2.834   6.021  0.8169 -0.0205  0.6030
  375MOL0     H49480   0.855   2.632   6.223  0.0054 -0.8577  0.0005
  375MOL0     H49481   0.824   2.643   6.051 -0.1386  2.2810 -1.3459
  375MOL0     H49482   1.667   2.531   6.442  2.0430 -0.8710  0.7774
  375MOL0     H49483   1.888   2.608   6.562 -1.9518  3.2173  2.2006
  375MOL0     H49484   2.169   3.005   6.504  1.3081 -0.0213  0.0538
  375MOL0     H49485   2.330   3.145   6.596 -0.3620 -1.3324 -2.5227
  375MOL0     H49486   3.973   2.726   7.711  0.7997  0.9151  0.8191
  375MOL0     H49487   4.176   2.763   7.840  1.6444  0.3528  0.5860
  375MOL0     H49488   4.483   2.820   8.131 -0.0166 -0.6104 -1.6273
  375MOL0     H49489   4.685   2.780   8.282 -1.7909 -2.1811  1.8380
  375MOL0     H49490   5.057   2.640   8.291  1.8939 -1.4916  0.3723
  375MOL0     H49491   5.008   2.654   8.121  0.0084 -2.4134 -1.8059
  375MOL0     H49492   5.005   2.397   8.279 -0.2686  2.2372  1.3406
  375MOL0     H49493   4.980   2.410   8.110  1.5309 -1.0233 -0.5197
  375MOL0     H49494   5.214   2.381   8.275 -1.9555 -1.9407 -0.8645
  375MOL0     H49495   5.236   2.530   8.186  2.0758 -0.7170 -2.4759
  375MOL0     H49496   5.179   2.428   7.981 -0.3672 -2.3838 -1.9714
  375MOL0     H49497   5.329   2.355   8.056  0.1965  1.3891  2.6075
  375MOL0     H49498   5.069   2.021   8.042  3.4803 -2.4517 -2.0718
  375MOL0     H49499   4.823   2.498   8.004  0.1303 -1.8686  1.9289
  375MOL0     H49500   4.636   2.551   7.851 -2.7255 -2.5334  1.0830
  376MOL0     O49501   1.169   5.527   2.318 -0.6001 -0.2393  0.1942
  376MOL0     C49502   1.147   5.642   2.344 -0.0686 -0.8698  0.1054
  376MOL0     O49503   1.022   5.699   2.326  0.1406  0.2513 -0.2489
  376MOL0     C49504   0.921   5.614   2.292  0.0709 -1.2833  1.1388
  376MOL0     C49505   0.856   5.643   2.168 -0.3709 -0.0380 -0.0065
  376MOL0     C49506   0.750   5.562   2.136 -0.0585  0.0736 -0.1811
  376MOL0     C49507   0.696   5.453   2.210  0.7523  0.2487 -0.3031
  376MOL0     O49508   0.569   5.404   2.177  0.7067  0.2064 -0.0055
  376MOL0     C49509   0.582   5.337   2.045 -0.4917  0.5797 -0.4196
  376MOL0     C49510   0.461   5.242   2.014  0.4303  0.1329 -0.8081
  376MOL0     C49511   0.329   5.323   1.987 -0.2863 -0.9472 -0.1350
  376MOL0     C49512   0.369   5.448   1.897 -0.0339  0.3724 -0.5548
  376MOL0     C49513   0.247   5.505   1.822 -0.3284  0.6184 -0.1473
  376MOL0     C49514   0.167   5.618   1.885 -0.6926  0.1457  0.3360
  376MOL0     C49515   0.031   5.642   1.826  0.0857 -0.3430  0.0207
  376MOL0     C49516   0.036   5.676   1.679 -0.4132  0.2554 -0.0264
  376MOL0     N49517   0.085   5.810   1.655 -0.0278  0.5747 -0.1933
  376MOL0     C49518   0.043   5.886   1.540  0.4152  0.3456 -0.7124
  376MOL0     C49519   0.111   6.008   1.555  0.1900 -0.3131 -0.3807
  376MOL0     C49520   0.120   6.121   1.458 -0.1985  0.2306 -0.0036
  376MOL0     C49521   0.087   6.264   1.528 -0.4301  0.3798  0.5572
  376MOL0     C49522   0.124   6.382   1.438  1.0534 -0.1648 -0.2995
  376MOL0     C49523   0.274   6.383   1.400 -0.5303 -0.2873 -0.7124
  376MOL0     O49524   0.311   6.516   1.379  0.3854  0.1000  0.0022
  376MOL0     C49525   0.437   6.526   1.326  0.0815 -0.0937 -0.3581
  376MOL0     C49526   0.520   6.623   1.382 -0.7778  0.1271 -0.2165
  376MOL0     C49527   0.641   6.649   1.315 -0.2218 -0.8793  0.3749
  376MOL0     C49528   0.689   6.571   1.202  0.1292 -0.3348 -0.3342
  376MOL0     C49529   0.817   6.596   1.140  0.6654 -0.1294  0.7139
  376MOL0     O49530   0.854   6.494   1.063 -0.4420  0.0530 -0.5036
  376MOL0     C49531   0.990   6.481   1.025 -0.0574 -0.1400 -0.1085
  376MOL0     C49532   1.061   6.355   1.033  0.6461 -0.7157 -0.2650
  376MOL0     C49533   1.192   6.345   0.981 -0.4315 -0.4423 -0.8821
  376MOL0     C49534   1.258   6.454   0.916 -0.2674 -0.1297 -0.5338
  376MOL0     O49535   1.381   6.442   0.849 -0.4676 -0.2157 -0.5455
  376MOL0     C49536   1.381   6.332   0.751 -0.3365  0.4496  0.6758
  376MOL0     C49537   1.497   6.352   0.643  0.3266 -0.4253  0.5927
  376MOL0     C49538   1.489   6.504   0.591 -0.7604 -0.1302 -0.7034
  376MOL0     C49539   1.586   6.508   0.469  0.0016  0.1914 -0.9809
  376MOL0     C49540   1.736   6.496   0.478 -0.6980  0.5094  0.1527
  376MOL0     C49541   1.798   6.617   0.538  0.0338  0.4225 -0.8917
  376MOL0     C49542   1.948   6.602   0.525 -0.7817 -0.3305 -0.0528
  376MOL0     C49543   2.037   6.708   0.588 -0.0185  0.2515  0.1964
  376MOL0    Cl49544   2.013   6.871   0.523  0.1106 -0.6024 -0.3834
  376MOL0     C49545   1.180   6.575   0.911  0.7474  0.5069  0.3885
  376MOL0     C49546   1.044   6.587   0.958 -1.9689  0.4718  0.2516
  376MOL0     O49547   0.887   6.680   1.188 -1.0525  0.7013 -1.3310
  376MOL0     C49548   0.595   6.491   1.146  0.1882 -0.4986 -0.2979
  376MOL0     C49549   0.470   6.456   1.208  0.2850 -0.7307  0.3829
  376MOL0     N49550   0.181   6.003   1.677  0.0321 -0.2456 -0.2191
  376MOL0     N49551   0.160   5.897   1.734  0.8229 -0.5250 -0.7986
  376MOL0     C49552   0.757   5.432   2.335  0.1664 -0.4410 -0.0837
  376MOL0     C49553   0.866   5.510   2.369  0.3575 -0.2581  0.0517
  376MOL0     C49554   1.255   5.729   2.403  1.1963 -0.0676  1.0708
  376MOL0     C49555   1.393   5.704   2.394 -0.0467 -0.3338 -0.5110
  376MOL0     C49556   1.484   5.798   2.451  0.9146 -0.1524 -0.1445
  376MOL0     C49557   1.438   5.909   2.525  0.1215  0.1319 -0.4376
  376MOL0     O49558   1.522   5.981   2.601 -0.8284 -0.6086  0.6696
  376MOL0     C49559   1.641   6.025   2.530 -1.7848  0.3724  0.1079
  376MOL0     C49560   1.698   6.126   2.619 -0.1897 -0.7827 -0.4950
  376MOL0     C49561   1.756   6.242   2.533 -0.3005 -0.4969 -0.9782
  376MOL0     C49562   1.879   6.203   2.462 -1.0846  0.5016  0.5188
  376MOL0     C49563   1.874   6.182   2.312  0.6116  0.5023 -0.5861
  376MOL0     C49564   1.865   6.161   2.194  0.0671 -0.5968  0.7236
  376MOL0     C49565   1.302   5.917   2.553 -0.5412 -0.0813  0.1153
  376MOL0     C49566   1.215   5.840   2.485  0.7385  1.0628 -0.3338
  376MOL0     H49567   0.895   5.723   2.107 -1.0731 -0.5461 -1.1608
  376MOL0     H49568   0.690   5.585   2.048 -3.1182 -0.4780  1.6313
  376MOL0     H49569   0.670   5.272   2.040 -1.1783 -0.3089 -2.6153
  376MOL0     H49570   0.615   5.396   1.959  0.0735 -1.3613 -1.6172
  376MOL0     H49571   0.440   5.180   2.101 -0.2709 -0.7136 -1.5584
  376MOL0     H49572   0.482   5.182   1.925 -4.1602  0.9208 -2.7122
  376MOL0     H49573   0.282   5.373   2.072  0.2919  1.0759 -0.9290
  376MOL0     H49574   0.257   5.261   1.933  2.8188 -4.8752 -0.2505
  376MOL0     H49575   0.426   5.518   1.958 -1.7935 -1.3091  3.3725
  376MOL0     H49576   0.426   5.407   1.813  1.9627 -0.5895  1.1748
  376MOL0     H49577   0.175   5.427   1.795 -1.5978  1.2812  1.1902
  376MOL0     H49578   0.283   5.536   1.724 -2.4974 -2.6603 -2.2063
  376MOL0     H49579   0.241   5.698   1.890  1.0818 -1.4520  1.2720
  376MOL0     H49580   0.150   5.594   1.990 -1.2439  3.9692  1.2549
  376MOL0     H49581  -0.032   5.553   1.836 -1.1423  0.4162 -0.6629
  376MOL0     H49582  -0.020   5.715   1.890 -2.3399 -1.3946 -0.5982
  376MOL0     H49583  -0.057   5.660   1.623  0.3689 -2.3821 -0.7484
  376MOL0     H49584   0.093   5.608   1.615 -2.0711  1.6175 -3.1801
  376MOL0     H49585  -0.026   5.853   1.463 -0.1738 -2.5746  0.9250
  376MOL0     H49586   0.039   6.098   1.388 -1.1206 -0.0251  1.1254
  376MOL0     H49587   0.218   6.124   1.408  0.2136  1.9149  0.8096
  376MOL0     H49588   0.125   6.278   1.630 -1.4681  0.1959  0.9785
  376MOL0     H49589  -0.022   6.267   1.536 -0.3290  0.1221  2.6869
  376MOL0     H49590   0.071   6.378   1.343  2.4988  0.9757 -1.2028
  376MOL0     H49591   0.091   6.462   1.504 -0.9534 -2.7679  2.0823
  376MOL0     H49592   0.287   6.323   1.310  0.9392  2.1377 -2.2407
  376MOL0     H49593   0.335   6.342   1.481 -1.2285 -0.3930 -0.2408
  376MOL0     H49594   0.479   6.678   1.466  0.9701 -0.5139  1.1273
  376MOL0     H49595   0.717   6.718   1.349  1.1322 -1.8566 -0.5365
  376MOL0     H49596   1.017   6.264   1.072 -1.7565 -0.0684 -1.2382
  376MOL0     H49597   1.244   6.251   0.995  0.4711  0.3109  1.0983
  376MOL0     H49598   1.282   6.343   0.705  0.7953  2.9250 -1.4462
  376MOL0     H49599   1.396   6.240   0.807  1.6851 -0.5925 -1.4283
  376MOL0     H49600   1.488   6.275   0.565 -0.1095 -0.1850  0.4067
  376MOL0     H49601   1.592   6.338   0.695  0.6191  2.3674  0.9380
  376MOL0     H49602   1.519   6.571   0.673 -0.1337 -1.4787  0.2103
  376MOL0     H49603   1.384   6.528   0.573 -1.0784 -1.2918 -0.4694
  376MOL0     H49604   1.547   6.426   0.408 -1.3852  0.1621 -0.1061
  376MOL0     H49605   1.563   6.604   0.421  0.2842  1.5016  1.3909
  376MOL0     H49606   1.774   6.494   0.376 -3.5906  0.1646 -1.0008
  376MOL0     H49607   1.762   6.403   0.529 -1.9258  0.3343  0.4888
  376MOL0     H49608   1.767   6.630   0.643  0.6189  1.5116 -0.8382
  376MOL0     H49609   1.777   6.713   0.490  1.5157  0.4087 -1.6128
  376MOL0     H49610   1.988   6.515   0.578  0.5046  1.6908  2.5301
  376MOL0     H49611   1.992   6.595   0.425  0.0761 -2.7650  0.4121
  376MOL0     H49612   2.143   6.687   0.571 -0.0211 -0.9738  1.4735
  376MOL0     H49613   2.026   6.713   0.697  1.6694  0.1803  0.4079
  376MOL0     H49614   1.227   6.659   0.861 -0.8595  1.2269  0.0341
  376MOL0     H49615   0.985   6.678   0.952  1.2611  2.7178 -0.2138
  376MOL0     H49616   0.641   6.446   1.058  3.7065  0.2173  1.0137
  376MOL0     H49617   0.398   6.395   1.155 -1.0315  3.0616 -2.6867
  376MOL0     H49618   0.734   5.355   2.408 -0.6156 -0.4675 -0.3521
  376MOL0     H49619   0.909   5.469   2.460  1.7827 -0.3613 -0.6267
  376MOL0     H49620   1.448   5.630   2.336  0.5552 -0.0259 -0.3348
  376MOL0     H49621   1.591   5.782   2.448  1.6636  3.2627  2.1888
  376MOL0     H49622   1.614   6.057   2.429 -0.8627 -3.1525 -1.4336
  376MOL0     H49623   1.716   5.946   2.523 -1.8132  0.3533  0.0186
  376MOL0     H49624   1.620   6.179   2.674  0.5487  2.4165 -2.3277
  376MOL0     H49625   1.770   6.079   2.687  2.1383  0.9022 -1.6742
  376MOL0     H49626   1.794   6.311   2.610  0.0031 -1.2132 -0.4696
  376MOL0     H49627   1.679   6.287   2.471 -0.5043 -0.3419 -0.6146
  376MOL0     H49628   1.949   6.287   2.469 -1.6187  1.1781 -1.5019
  376MOL0     H49629   1.915   6.105   2.495  2.2642  0.6593 -2.0719
  376MOL0     H49630   1.880   6.154   2.088  0.1548  1.6877  0.5214
  376MOL0     H49631   1.263   5.986   2.626 -1.2231  0.8470 -1.0910
  376MOL0     H49632   1.108   5.850   2.501  0.2385 -0.4311 -2.2649
  377MOL0     O49633   2.093   7.733  10.486  0.1924  0.1520  0.1811
  377MOL0     C49634   2.215   7.745  10.501 -0.8149 -0.0696  0.1897
  377MOL0     O49635   2.279   7.791  10.614  0.1282  0.5832  0.7085
  377MOL0     C49636   2.183   7.808  10.716 -0.0234  0.3970  0.7728
  377MOL0     C49637   2.106   7.703  10.772  0.3880 -0.2965  0.6460
  377MOL0     C49638   2.028   7.719  10.883 -0.4135  0.2315 -0.5840
  377MOL0     C49639   2.041   7.832  10.965 -0.0868  0.4839  0.0718
  377MOL0     O49640   2.010   7.834  11.094  0.2330 -0.7404 -0.9083
  377MOL0     C49641   2.057   7.722  11.172 -0.0192  0.0136 -0.7803
  377MOL0     C49642   1.997   7.728  11.310 -0.5188 -0.4415  0.2796
  377MOL0     C49643   2.031   7.853  11.388 -0.3176  0.1582  1.1891
  377MOL0     C49644   1.939   7.878  11.500  0.4599  1.1005  0.1239
  377MOL0     C49645   1.963   8.002  11.587 -0.0719  0.5986  0.9331
  377MOL0     C49646   2.109   8.023  11.612 -0.3278 -0.0057  0.2219
  377MOL0     C49647   2.145   8.158  11.691  0.2594 -0.1040  0.2265
  377MOL0     C49648   2.082   8.144  11.828 -0.1007 -0.7674  0.3621
  377MOL0     N49649   2.067   8.280  11.894 -0.8513 -1.7011  0.4022
  377MOL0     C49650   2.104   8.301  12.026 -1.2098  0.3591 -0.2544
  377MOL0     C49651   2.070   8.425  12.053 -0.1081 -0.5683  0.3081
  377MOL0     C49652   2.079   8.505  12.176 -0.4712 -0.3792  0.9212
  377MOL0     C49653   2.231   8.495  12.204  0.5832  0.0183 -0.1491
  377MOL0     C49654   2.257   8.583  12.326  0.3080  0.2329 -0.1143
  377MOL0     C49655   2.411   8.608  12.348 -0.1937  0.6595  0.5621
  377MOL0     O49656   2.484   8.487  12.403 -0.1267  0.8928  0.2683
  377MOL0     C49657   2.604   8.510  12.475  1.1763  0.1485 -0.3074
  377MOL0     C49658   2.673   8.635  12.474 -0.6162 -0.1568 -0.5539
  377MOL0     C49659   2.784   8.650  12.559  0.0525  0.5316  1.0094
  377MOL0     C49660   2.826   8.548  12.637  0.3714  0.8098 -0.0855
  377MOL0     C49661   2.960   8.571  12.709 -0.1376  0.1630  0.4312
  377MOL0     O49662   3.016   8.690  12.715 -0.1414 -0.3203  0.1640
  377MOL0     C49663   3.120   8.719  12.799 -0.4249  0.1844  0.6063
  377MOL0     C49664   3.238   8.644  12.796 -1.6985  0.1354 -0.2297
  377MOL0     C49665   3.337   8.659  12.901  0.6439  0.1715  0.0091
  377MOL0     C49666   3.314   8.752  13.007  0.0007 -0.9774 -0.2582
  377MOL0     O49667   3.414   8.765  13.100  0.0617 -0.3830 -0.1862
  377MOL0     C49668   3.421   8.892  13.173 -0.3007  0.7962 -0.0232
  377MOL0     C49669   3.565   8.894  13.242 -0.2383 -0.2787  0.4281
  377MOL0     C49670   3.587   8.991  13.357  1.0407  0.6258  0.3827
  377MOL0     C49671   3.728   9.008  13.391 -0.4679 -0.2578 -0.5067
  377MOL0     C49672   3.753   9.134  13.484 -0.0646 -0.4049 -0.0084
  377MOL0     C49673   3.679   9.116  13.610 -0.4806  1.2831  0.2942
  377MOL0     C49674   3.725   9.197  13.733 -0.4653  0.0978 -0.4077
  377MOL0     C49675   3.615   9.159  13.841 -0.1492  0.7687  0.3950
  377MOL0    Cl49676   3.641   9.254  13.996 -0.4382  0.1824  0.2561
  377MOL0     C49677   3.196   8.817  13.012  0.7837  0.7149  0.7816
  377MOL0     C49678   3.101   8.816  12.896  0.1008 -0.6248  0.6428
  377MOL0     O49679   3.008   8.473  12.763  0.1775 -0.1917  0.9334
  377MOL0     C49680   2.756   8.423  12.646 -0.9081  0.0413 -0.3152
  377MOL0     C49681   2.650   8.406  12.553 -0.7552 -0.2460 -1.3365
  377MOL0     N49682   2.019   8.474  11.936  1.0143 -0.6552  0.7176
  377MOL0     N49683   2.017   8.395  11.837 -0.4538 -0.3198 -0.0425
  377MOL0     C49684   2.114   7.936  10.905 -0.1330 -0.0337 -0.1447
  377MOL0     C49685   2.176   7.928  10.782  0.5422  0.0540  0.0393
  377MOL0     C49686   2.294   7.685  10.392  0.5628  0.3307  0.6861
  377MOL0     C49687   2.422   7.643  10.409  0.2694 -0.3938  0.1539
  377MOL0     C49688   2.504   7.581  10.313 -0.5328 -0.2440 -0.5339
  377MOL0     C49689   2.446   7.563  10.190 -0.2294  0.5435  0.2672
  377MOL0     O49690   2.517   7.512  10.078 -0.4001  0.7416 -0.5780
  377MOL0     C49691   2.624   7.416  10.106  0.0160  0.4178 -0.7093
  377MOL0     C49692   2.665   7.336   9.980  0.4856 -0.3172  0.2958
  377MOL0     C49693   2.711   7.426   9.864  0.5546  0.4998  0.1716
  377MOL0     C49694   2.750   7.338   9.749 -0.7997  0.2009  0.2302
  377MOL0     C49695   2.781   7.430   9.639 -0.9299  0.3690 -0.4219
  377MOL0     C49696   2.796   7.492   9.537 -0.9431  0.5914  0.7123
  377MOL0     C49697   2.312   7.611  10.167 -0.0410  0.1226 -0.4006
  377MOL0     C49698   2.238   7.672  10.260 -0.1748  0.4640 -0.6190
  377MOL0     H49699   2.112   7.602  10.733 -0.2864 -0.3350  0.6277
  377MOL0     H49700   1.976   7.628  10.911 -1.1364  0.6846 -0.4232
  377MOL0     H49701   2.165   7.731  11.187 -0.0630 -0.7919  0.1776
  377MOL0     H49702   2.030   7.623  11.133  1.2491 -1.0071  0.7524
  377MOL0     H49703   2.028   7.638  11.364  0.4699  0.7290  1.7567
  377MOL0     H49704   1.890   7.722  11.287 -0.4128  0.3229 -0.4308
  377MOL0     H49705   2.039   7.950  11.336  0.8468 -0.1883  0.6741
  377MOL0     H49706   2.135   7.840  11.420 -0.4219 -0.4291  1.2964
  377MOL0     H49707   1.841   7.899  11.455  0.3793  0.5980  0.0608
  377MOL0     H49708   1.923   7.790  11.563 -1.8394  0.7577 -0.8268
  377MOL0     H49709   1.917   7.987  11.686 -1.5026  0.3120  0.2576
  377MOL0     H49710   1.940   8.091  11.528  2.4453  0.2089 -0.7845
  377MOL0     H49711   2.155   8.036  11.514 -0.6626 -2.2958 -0.2944
  377MOL0     H49712   2.150   7.933  11.659  0.3098 -1.4253 -2.7975
  377MOL0     H49713   2.252   8.167  11.712 -0.2023  2.2671  2.0035
  377MOL0     H49714   2.104   8.247  11.643 -2.7923 -1.3692  0.2446
  377MOL0     H49715   2.132   8.075  11.897  0.2024 -3.0079 -1.9366
  377MOL0     H49716   1.975   8.121  11.827  0.1414 -2.0684 -1.7303
  377MOL0     H49717   2.143   8.223  12.091 -2.2140 -0.1914 -0.3039
  377MOL0     H49718   2.013   8.475  12.258 -2.3461 -0.1102 -0.4441
  377MOL0     H49719   2.049   8.610  12.164 -0.0181 -0.4081 -0.7384
  377MOL0     H49720   2.288   8.541  12.123 -0.4323  4.1133  1.1972
  377MOL0     H49721   2.274   8.398  12.230 -1.1916 -0.9074 -0.4667
  377MOL0     H49722   2.202   8.676  12.312 -2.8866 -1.2846  1.3141
  377MOL0     H49723   2.222   8.556  12.425  0.7105  1.0907  0.2754
  377MOL0     H49724   2.418   8.699  12.406  3.6600  2.9886 -2.9684
  377MOL0     H49725   2.455   8.639  12.252  0.6645  2.6093  1.5471
  377MOL0     H49726   2.651   8.725  12.418 -1.1644  0.8083  1.1171
  377MOL0     H49727   2.832   8.747  12.556 -1.8507  1.5112  1.0689
  377MOL0     H49728   3.260   8.569  12.721 -0.7559  1.5881 -1.4680
  377MOL0     H49729   3.432   8.605  12.900 -0.0140 -1.0601 -2.0397
  377MOL0     H49730   3.345   8.896  13.251  1.1584 -2.7525  1.8026
  377MOL0     H49731   3.409   8.987  13.119 -2.5867  2.2965  2.8379
  377MOL0     H49732   3.617   8.932  13.153 -1.0567 -2.2395 -0.9624
  377MOL0     H49733   3.608   8.796  13.263 -1.7801 -0.6458  2.1495
  377MOL0     H49734   3.530   8.958  13.444  2.1055  0.3243  0.9899
  377MOL0     H49735   3.555   9.086  13.314 -0.0062  0.0570 -0.1414
  377MOL0     H49736   3.776   8.916  13.425 -0.0705  0.3435  0.5978
  377MOL0     H49737   3.779   9.032  13.297  1.5841 -0.2213  0.5489
  377MOL0     H49738   3.719   9.223  13.430  0.7036 -0.7327 -1.0589
  377MOL0     H49739   3.860   9.142  13.503 -0.2440  0.3375  0.7123
  377MOL0     H49740   3.689   9.014  13.647 -1.7280  0.6503 -0.9962
  377MOL0     H49741   3.571   9.117  13.592 -1.4356 -0.7518  4.4988
  377MOL0     H49742   3.822   9.161  13.768 -2.0459 -0.7577  3.6246
  377MOL0     H49743   3.728   9.305  13.714  0.4937  0.1647  0.0862
  377MOL0     H49744   3.630   9.052  13.859  2.4553  0.7562 -1.3118
  377MOL0     H49745   3.514   9.176  13.803  0.7047  2.1664 -1.3796
  377MOL0     H49746   3.179   8.883  13.096  0.3843  0.8859  0.5712
  377MOL0     H49747   3.013   8.879  12.891  1.0563  0.8060  1.3038
  377MOL0     H49748   2.798   8.350  12.714  1.0308 -1.0358 -2.5169
  377MOL0     H49749   2.599   8.310  12.553 -1.4327  0.0922 -0.4982
  377MOL0     H49750   2.130   8.024  10.966 -2.4336 -1.6990  3.1617
  377MOL0     H49751   2.235   8.008  10.738  0.0088  0.7454  0.5774
  377MOL0     H49752   2.470   7.658  10.505 -0.3358 -1.5478  0.6525
  377MOL0     H49753   2.605   7.548  10.334 -0.5926  0.3412  0.7312
  377MOL0     H49754   2.599   7.342  10.182  2.6253  1.6917  1.5593
  377MOL0     H49755   2.703   7.477  10.151  0.5424 -0.7853  0.0493
  377MOL0     H49756   2.750   7.271  10.002  0.1166 -0.6471  0.7732
  377MOL0     H49757   2.580   7.273   9.953 -0.7849  0.2421  2.7097
  377MOL0     H49758   2.793   7.487   9.901  1.1119  0.6403 -1.2560
  377MOL0     H49759   2.630   7.497   9.844  1.2778  2.4142  3.3622
  377MOL0     H49760   2.838   7.278   9.774 -1.4842 -0.7716  0.3417
  377MOL0     H49761   2.684   7.258   9.714 -0.2112  0.5224 -1.7477
  377MOL0     H49762   2.822   7.544   9.446 -2.7422 -2.3928 -1.7186
  377MOL0     H49763   2.265   7.590  10.072  2.9151 -1.3454 -1.6785
  377MOL0     H49764   2.136   7.705  10.241  0.0176  2.7304  1.6672
  378MOL0     O49765   9.199  10.975  10.738  0.8582  0.2216 -0.0089
  378MOL0     C49766   9.075  10.955  10.722  0.0872 -0.3537  0.5585
  378MOL0     O49767   8.981  11.058  10.719 -0.3992  0.2102  0.1850
  378MOL0     C49768   9.038  11.184  10.716  0.4352  0.7454 -0.1687
  378MOL0     C49769   9.028  11.272  10.824 -0.3763  0.5423  0.6849
  378MOL0     C49770   9.090  11.404  10.819 -0.2156 -0.8573  0.0577
  378MOL0     C49771   9.154  11.453  10.709 -0.3668  0.7377 -0.7739
  378MOL0     O49772   9.200  11.581  10.704 -0.5785  0.0037 -0.2613
  378MOL0     C49773   9.116  11.651  10.607 -0.8714  0.7796  0.2238
  378MOL0     C49774   9.124  11.802  10.643 -0.6632 -0.3670 -0.1598
  378MOL0     C49775   9.272  11.863  10.629  0.7510  0.1003  0.3498
  378MOL0     C49776   9.312  11.873  10.478  0.1246  0.3105 -0.9035
  378MOL0     C49777   9.454  11.937  10.476 -0.0632  0.1596  0.3175
  378MOL0     C49778   9.509  11.979  10.333 -0.4793 -0.2717  0.6018
  378MOL0     C49779   9.652  12.035  10.332  0.0632  0.2913 -0.7430
  378MOL0     C49780   9.712  12.085  10.208  0.1264  0.2791 -1.0334
  378MOL0     N49781   9.673  12.039  10.081 -0.4612 -0.4333  0.1139
  378MOL0     C49782   9.674  11.907  10.044  0.3348  0.2129 -0.3755
  378MOL0     C49783   9.674  11.907   9.905 -0.2626 -0.6787 -0.6212
  378MOL0     C49784   9.683  11.793   9.814 -0.2597 -0.0116 -0.4427
  378MOL0     C49785   9.551  11.719   9.812  0.5481 -0.3352  0.0241
  378MOL0     C49786   9.535  11.633   9.689 -0.4559 -0.1831  0.6443
  378MOL0     C49787   9.415  11.542   9.705  1.1285 -0.2412  1.1114
  378MOL0     O49788   9.415  11.461   9.817 -0.0322 -0.6132 -0.9424
  378MOL0     C49789   9.346  11.344   9.825 -0.7714 -0.0225  0.2666
  378MOL0     C49790   9.369  11.266   9.939  0.7117  0.7062  0.1937
  378MOL0     C49791   9.325  11.140   9.941  0.3003  0.6684  0.1299
  378MOL0     C49792   9.249  11.089   9.837  0.1529 -0.2735 -0.5340
  378MOL0     C49793   9.201  10.944   9.838  0.1971 -0.1056 -0.5189
  378MOL0     O49794   9.259  10.859   9.919  1.5063  0.5092  0.0716
  378MOL0     C49795   9.204  10.730   9.930 -0.2583 -0.6535 -1.1141
  378MOL0     C49796   9.290  10.622   9.950 -0.5236 -0.3966  0.1254
  378MOL0     C49797   9.250  10.494   9.982  0.1058 -0.3519  0.8444
  378MOL0     C49798   9.111  10.466  10.000 -0.1178  0.5176 -0.6498
  378MOL0     O49799   9.090  10.332  10.038 -0.4564 -0.2238 -0.0621
  378MOL0     C49800   8.948  10.304  10.028 -0.0370 -0.7537 -0.2248
  378MOL0     C49801   8.942  10.150  10.061  0.0863 -0.1953  1.0022
  378MOL0     C49802   8.797  10.088  10.030  0.0867 -0.0270  0.4678
  378MOL0     C49803   8.796   9.944  10.084  0.0096  0.2218 -0.0903
  378MOL0     C49804   8.669   9.852  10.047 -0.6347  0.0113 -0.6168
  378MOL0     C49805   8.635   9.854   9.895  0.2867  0.2104  0.5179
  378MOL0     C49806   8.524   9.761   9.855 -0.2021 -0.9649 -0.1701
  378MOL0     C49807   8.555   9.720   9.718  0.6239 -0.6879  0.5849
  378MOL0    Cl49808   8.671   9.586   9.737  0.9743 -0.2281  0.5072
  378MOL0     C49809   9.029  10.573   9.999  1.4136  0.0921  0.2258
  378MOL0     C49810   9.071  10.706   9.960 -0.0576 -0.0372  0.1215
  378MOL0     O49811   9.108  10.922   9.754  0.2389 -0.6255  0.0477
  378MOL0     C49812   9.213  11.178   9.730 -0.6461 -0.1344  1.0800
  378MOL0     C49813   9.262  11.301   9.722 -0.7219 -0.1980  0.0277
  378MOL0     N49814   9.662  12.042   9.864  0.0557  0.1931 -0.4364
  378MOL0     N49815   9.663  12.118   9.971  0.0606 -0.1982 -0.4371
  378MOL0     C49816   9.167  11.356  10.607  0.0780  0.6745 -0.0155
  378MOL0     C49817   9.105  11.230  10.603 -0.4449  0.8257 -0.3306
  378MOL0     C49818   9.035  10.815  10.757  0.5728 -1.8748 -0.0840
  378MOL0     C49819   9.105  10.719  10.831 -0.0020  0.0072 -0.6057
  378MOL0     C49820   9.053  10.577  10.826 -0.6201 -0.4499 -0.0143
  378MOL0     C49821   8.928  10.540  10.773 -0.9861 -0.6344  0.4729
  378MOL0     O49822   8.877  10.408  10.771  0.7458 -0.9547 -0.0242
  378MOL0     C49823   8.733  10.379  10.758  1.0258 -0.6337  0.2408
  378MOL0     C49824   8.684  10.230  10.747  0.4936  0.2218  0.1597
  378MOL0     C49825   8.775  10.134  10.662 -0.0310  0.3065 -0.2846
  378MOL0     C49826   8.788  10.182  10.523 -0.1937 -0.0662 -0.1356
  378MOL0     C49827   8.671  10.169  10.429 -0.1945  1.1048 -0.0371
  378MOL0     C49828   8.591  10.157  10.343  0.8004 -0.1797 -0.1279
  378MOL0     C49829   8.850  10.650  10.742  0.9291  0.2904  0.0423
  378MOL0     C49830   8.899  10.774  10.729 -0.2605 -1.6369 -1.3263
  378MOL0     H49831   8.985  11.243  10.920  0.1424  1.3319  1.1719
  378MOL0     H49832   9.088  11.473  10.904 -0.8374  1.6391 -1.8483
  378MOL0     H49833   9.010  11.626  10.617 -0.7514 -0.6027 -1.5797
  378MOL0     H49834   9.154  11.637  10.506  1.7515 -1.3357  1.3762
  378MOL0     H49835   9.086  11.814  10.745  0.6911 -2.5273  0.6522
  378MOL0     H49836   9.052  11.852  10.578 -0.2752  0.9216  0.3525
  378MOL0     H49837   9.351  11.799  10.669  1.3004 -1.0177 -2.2662
  378MOL0     H49838   9.271  11.965  10.666  3.1655  0.3421 -0.1105
  378MOL0     H49839   9.322  11.775  10.430  0.5393 -0.0268 -0.1487
  378MOL0     H49840   9.242  11.940  10.427  0.8765  2.3199  0.5653
  378MOL0     H49841   9.522  11.857  10.507  0.1596 -0.5053 -1.7774
  378MOL0     H49842   9.471  12.016  10.550  3.4801  0.6300 -0.8397
  378MOL0     H49843   9.443  12.062  10.304  1.4455  2.2725  2.9162
  378MOL0     H49844   9.506  11.895  10.263  1.7135 -1.4065  1.7504
  378MOL0     H49845   9.645  12.127  10.391  0.0697 -0.5357  0.6067
  378MOL0     H49846   9.716  11.952  10.366  1.0151 -0.3635 -3.7878
  378MOL0     H49847   9.821  12.095  10.211  0.0721  1.5679  2.7296
  378MOL0     H49848   9.698  12.193  10.211 -0.1772  0.3095 -2.7476
  378MOL0     H49849   9.682  11.817  10.104 -2.9318 -1.6495 -2.4319
  378MOL0     H49850   9.753  11.720   9.855  0.1004 -1.1559 -2.8943
  378MOL0     H49851   9.727  11.817   9.717  1.2390 -4.4876 -1.0995
  378MOL0     H49852   9.465  11.787   9.821  0.8394 -0.1399  1.8018
  378MOL0     H49853   9.552  11.658   9.903  0.9916 -0.0816  0.1920
  378MOL0     H49854   9.533  11.688   9.595  0.1313 -1.0807  0.0910
  378MOL0     H49855   9.624  11.570   9.691  0.8706  1.6129  0.3982
  378MOL0     H49856   9.411  11.478   9.617  1.8629 -1.2301  1.7732
  378MOL0     H49857   9.316  11.588   9.704  0.1119 -2.2047  2.2759
  378MOL0     H49858   9.427  11.307  10.021  2.1002  0.3994 -0.5926
  378MOL0     H49859   9.353  11.063  10.012 -3.9625  0.6385  2.0773
  378MOL0     H49860   9.397  10.637   9.950 -0.4361 -0.8538  1.7067
  378MOL0     H49861   9.314  10.408   9.997 -2.0546 -1.6779  3.3715
  378MOL0     H49862   8.914  10.323   9.926  1.3448  1.8424 -0.2838
  378MOL0     H49863   8.896  10.357  10.108  0.4237  0.5308 -0.7608
  378MOL0     H49864   8.979  10.132  10.162  1.1125 -1.3967  0.4415
  378MOL0     H49865   9.015  10.107   9.991 -0.0929  0.3682  0.4558
  378MOL0     H49866   8.792  10.094   9.921 -2.6895  2.5928  0.6339
  378MOL0     H49867   8.726  10.159  10.073  1.1455  2.2195 -1.2681
  378MOL0     H49868   8.883   9.891  10.044  0.3662  0.6882  0.0531
  378MOL0     H49869   8.818   9.943  10.191 -2.2767 -2.2190  0.4704
  378MOL0     H49870   8.584   9.883  10.107 -0.4210  0.5090 -0.5680
  378MOL0     H49871   8.687   9.746  10.067  0.4020 -0.4418 -3.4452
  378MOL0     H49872   8.726   9.819   9.844 -2.1114 -2.9848 -1.9632
  378MOL0     H49873   8.600   9.950   9.855  1.8749  0.7494  0.3451
  378MOL0     H49874   8.524   9.674   9.921  6.4340 -1.3552 -0.0011
  378MOL0     H49875   8.432   9.820   9.863  2.9045  5.3104 -3.2632
  378MOL0     H49876   8.594   9.795   9.648 -0.7684 -0.4340  0.0524
  378MOL0     H49877   8.460   9.677   9.685 -1.0204  2.5729  0.7430
  378MOL0     H49878   8.926  10.573  10.034  1.7064  3.5647  1.4986
  378MOL0     H49879   8.995  10.783   9.947 -0.5684 -0.8924 -2.5773
  378MOL0     H49880   9.142  11.140   9.657  1.2495 -0.4292 -0.7307
  378MOL0     H49881   9.230  11.359   9.637 -1.1069  0.1287  0.3889
  378MOL0     H49882   9.218  11.396  10.519  0.8085  2.2926  1.0899
  378MOL0     H49883   9.091  11.188  10.504 -0.2585 -0.0704  0.0169
  378MOL0     H49884   9.196  10.753  10.880  0.9432 -0.6199 -1.8539
  378MOL0     H49885   9.103  10.494  10.876  0.8710  1.2469  1.4508
  378MOL0     H49886   8.693  10.424  10.667 -1.2059 -1.6106  0.6606
  378MOL0     H49887   8.674  10.424  10.838  0.1847  0.7106 -1.0905
  378MOL0     H49888   8.682  10.197  10.852 -0.1282  0.8009  0.3384
  378MOL0     H49889   8.586  10.238  10.699  0.7417  0.0776 -0.3743
  378MOL0     H49890   8.730  10.034  10.658 -2.2850  1.3160 -1.7946
  378MOL0     H49891   8.865  10.111  10.720 -2.6049 -2.9906  2.8313
  378MOL0     H49892   8.824  10.285  10.518 -0.6471  0.1022  0.0589
  378MOL0     H49893   8.871  10.129  10.475  0.2814 -1.1918  1.8198
  378MOL0     H49894   8.505  10.142  10.282 -1.3576 -0.5559  2.8118
  378MOL0     H49895   8.747  10.625  10.717  1.3696 -1.3616 -0.1963
  378MOL0     H49896   8.834  10.851  10.687 -3.6246 -4.1142 -1.0728
  379MOL0     O49897   6.723   8.015   0.591  0.4524  0.4424 -0.2522
  379MOL0     C49898   6.784   8.118   0.613  0.3561 -0.5340 -1.1342
  379MOL0     O49899   6.736   8.228   0.681 -0.3636 -0.2649  0.3463
  379MOL0     C49900   6.620   8.233   0.748  0.1256  0.1772 -0.2105
  379MOL0     C49901   6.584   8.366   0.777 -0.5663 -0.0128 -0.3843
  379MOL0     C49902   6.465   8.395   0.839 -1.1234 -0.3478 -0.2678
  379MOL0     C49903   6.384   8.294   0.887  0.4448 -0.1440 -0.4119
  379MOL0     O49904   6.270   8.330   0.960 -0.1281  0.1451  0.4974
  379MOL0     C49905   6.153   8.260   0.934 -0.3616  0.3330  0.2648
  379MOL0     C49906   6.112   8.293   0.792  0.7775  0.5574 -0.5062
  379MOL0     C49907   5.972   8.236   0.773 -0.5798 -0.4166  0.0430
  379MOL0     C49908   5.927   8.229   0.632 -0.9471 -0.5039 -0.7218
  379MOL0     C49909   5.806   8.134   0.605 -0.6711  0.0906 -1.3723
  379MOL0     C49910   5.786   8.134   0.453  0.2460  0.4998 -0.5449
  379MOL0     C49911   5.669   8.045   0.426  0.5011 -0.6423  0.2166
  379MOL0     C49912   5.645   8.042   0.272 -0.0073 -0.1474  0.3712
  379MOL0     N49913   5.723   7.945   0.200  0.4956 -0.0816  0.3923
  379MOL0     C49914   5.838   7.961   0.141 -0.4043 -0.5503  0.1331
  379MOL0     C49915   5.860   7.869   0.056  0.7735  0.2644  0.1689
  379MOL0     C49916   5.981   7.848  -0.029 -0.4634 -0.6091  0.7321
  379MOL0     C49917   6.079   7.753   0.037  0.2735 -0.8406 -0.2735
  379MOL0     C49918   6.199   7.731  -0.061  0.0212  0.9641  0.0002
  379MOL0     C49919   6.311   7.833  -0.061 -0.5178 -0.3301 -0.2333
  379MOL0     O49920   6.290   7.932  -0.158 -0.9299 -0.1048 -0.3218
  379MOL0     C49921   6.311   8.063  -0.137 -0.2288 -0.5974 -0.5809
  379MOL0     C49922   6.368   8.121  -0.016  0.0881  0.5594  0.7631
  379MOL0     C49923   6.410   8.255  -0.010 -0.1920 -0.0115 -0.3259
  379MOL0     C49924   6.376   8.343  -0.110  0.5735  0.2855  0.6501
  379MOL0     C49925   6.428   8.477  -0.109 -0.4997 -0.6756 -1.0597
  379MOL0     O49926   6.469   8.539  -0.227  0.1691 -0.1911  0.0215
  379MOL0     C49927   6.544   8.662  -0.215 -0.6842  0.5793  0.5001
  379MOL0     C49928   6.640   8.696  -0.110  0.7868  0.6580 -0.8045
  379MOL0     C49929   6.697   8.823  -0.106  0.0512  0.5772 -0.3585
  379MOL0     C49930   6.681   8.905  -0.218  0.2682  0.0352  1.4843
  379MOL0     O49931   6.771   9.010  -0.223  0.2059  0.3977 -0.1397
  379MOL0     C49932   6.724   9.135  -0.266 -0.7424  0.2335  0.0242
  379MOL0     C49933   6.826   9.245  -0.223  0.7162  0.0997 -0.4570
  379MOL0     C49934   6.955   9.218  -0.295 -0.5154 -1.3375 -0.3701
  379MOL0     C49935   7.058   9.336  -0.266 -0.3405 -0.7098 -0.1227
  379MOL0     C49936   7.125   9.329  -0.134 -0.4047  0.2567 -0.2985
  379MOL0     C49937   7.254   9.407  -0.131 -0.7629 -0.0671  0.8186
  379MOL0     C49938   7.299   9.432   0.019 -0.4708  0.9547  0.5515
  379MOL0     C49939   7.426   9.529   0.009  0.2900 -1.0750 -0.7444
  379MOL0    Cl49940   7.365   9.698   0.027  0.1931  0.0327  0.3782
  379MOL0     C49941   6.589   8.876  -0.325 -0.7255 -0.0271  0.4322
  379MOL0     C49942   6.518   8.754  -0.315  0.1542  0.4130 -0.4405
  379MOL0     O49943   6.441   8.521   0.012 -0.5945  0.9261 -0.1537
  379MOL0     C49944   6.304   8.291  -0.223 -0.4084 -0.2913 -0.2040
  379MOL0     C49945   6.278   8.154  -0.237  0.4688  0.0323  0.1827
  379MOL0     N49946   5.743   7.791   0.059 -0.2998  0.6488  0.1897
  379MOL0     N49947   5.671   7.829   0.160 -0.5345 -0.2204 -0.4774
  379MOL0     C49948   6.422   8.160   0.857  0.1427 -0.1503  0.0286
  379MOL0     C49949   6.537   8.128   0.782 -0.9319 -0.0227  0.2326
  379MOL0     C49950   6.914   8.134   0.561 -0.1749  0.8544 -0.8945
  379MOL0     C49951   6.979   8.027   0.489 -0.0487 -0.0023  0.4281
  379MOL0     C49952   7.108   8.050   0.435  0.2965  0.2057  1.0634
  379MOL0     C49953   7.177   8.169   0.450  1.2078  0.0132 -0.7300
  379MOL0     O49954   7.300   8.185   0.389  0.5097  0.3249  0.4291
  379MOL0     C49955   7.343   8.319   0.347  0.4772 -0.0704 -0.8726
  379MOL0     C49956   7.471   8.323   0.272 -1.4905 -0.2973 -0.5116
  379MOL0     C49957   7.496   8.455   0.204  0.1828 -1.2342  0.3543
  379MOL0     C49958   7.553   8.564   0.303 -0.3718  0.7591 -0.3962
  379MOL0     C49959   7.595   8.669   0.213 -0.0929 -0.1609  1.0275
  379MOL0     C49960   7.649   8.758   0.141  0.2024  0.6503 -0.0392
  379MOL0     C49961   7.108   8.282   0.514 -0.1208  0.4422  0.4350
  379MOL0     C49962   6.978   8.265   0.569  0.4944 -0.2007 -0.3164
  379MOL0     H49963   6.657   8.445   0.759  0.7263 -0.7599  1.2851
  379MOL0     H49964   6.436   8.497   0.862  1.7817 -0.1423  3.4810
  379MOL0     H49965   6.076   8.291   1.005 -1.1017 -1.2624  0.2003
  379MOL0     H49966   6.175   8.155   0.956  1.7495  0.6057 -0.3983
  379MOL0     H49967   6.169   8.232   0.720 -0.8346 -2.8087  0.8706
  379MOL0     H49968   6.133   8.396   0.762  0.4621  0.3470 -1.5230
  379MOL0     H49969   5.890   8.291   0.819 -0.6612 -1.1378  0.8007
  379MOL0     H49970   5.973   8.134   0.814  1.7046 -0.2764  0.4438
  379MOL0     H49971   5.898   8.330   0.603 -1.7900 -0.4494  0.2490
  379MOL0     H49972   6.007   8.192   0.567 -2.0562 -3.1089 -0.7521
  379MOL0     H49973   5.725   8.186   0.657  0.7497  1.3866 -0.3526
  379MOL0     H49974   5.833   8.040   0.654 -1.4753  0.5305 -0.0307
  379MOL0     H49975   5.877   8.088   0.413  0.2554 -1.7217  1.7561
  379MOL0     H49976   5.782   8.238   0.419 -1.4109  1.2414  1.6471
  379MOL0     H49977   5.692   7.945   0.463  0.0241 -2.4447 -3.7763
  379MOL0     H49978   5.576   8.075   0.475 -0.5643 -3.3681  0.0739
  379MOL0     H49979   5.654   8.143   0.231  0.7667 -0.1047  0.6329
  379MOL0     H49980   5.543   8.008   0.256 -0.0012  0.3124 -0.7643
  379MOL0     H49981   5.902   8.047   0.162 -0.3370 -0.4344 -0.5346
  379MOL0     H49982   6.020   7.949  -0.044  0.4017 -0.3988  3.7196
  379MOL0     H49983   5.950   7.809  -0.126 -0.2715  0.6908  0.1191
  379MOL0     H49984   6.026   7.658   0.029 -0.6794 -0.1916 -5.1609
  379MOL0     H49985   6.109   7.777   0.139 -0.8545  0.1975 -0.1757
  379MOL0     H49986   6.248   7.637  -0.036 -0.6948  0.1705 -1.4191
  379MOL0     H49987   6.165   7.723  -0.165  0.5984 -0.5076 -0.0982
  379MOL0     H49988   6.404   7.779  -0.080  0.2974  1.9237 -3.4617
  379MOL0     H49989   6.330   7.866   0.042  1.6044 -4.3137  0.8770
  379MOL0     H49990   6.393   8.048   0.060  1.6947 -2.4402 -2.3563
  379MOL0     H49991   6.445   8.279   0.090 -1.8843 -0.2886  0.3664
  379MOL0     H49992   6.663   8.612  -0.046  0.1567 -0.3714 -1.8875
  379MOL0     H49993   6.768   8.848  -0.027  1.7625  0.1091 -1.6969
  379MOL0     H49994   6.624   9.147  -0.225 -1.1573 -1.1883 -0.5240
  379MOL0     H49995   6.708   9.129  -0.374 -0.6089  0.6894 -0.0269
  379MOL0     H49996   6.835   9.242  -0.114 -5.3289  3.4844  0.6375
  379MOL0     H49997   6.792   9.345  -0.254 -0.3520 -0.7908 -2.3294
  379MOL0     H49998   6.933   9.231  -0.402 -1.5034  2.0131  0.1264
  379MOL0     H49999   7.004   9.123  -0.274  1.9030  0.3359  2.1975
  379MOL0     H50000   7.129   9.338  -0.349  0.2796  3.2902  0.3189
  379MOL0     H50001   7.005   9.430  -0.283  0.5904 -0.3153 -0.9573
  379MOL0     H50002   7.136   9.226  -0.096 -3.4816 -0.1288 -0.1305
  379MOL0     H50003   7.054   9.368  -0.060 -1.4244 -0.9572 -0.5954
  379MOL0     H50004   7.239   9.503  -0.182 -1.2936  1.3514  3.4657
  379MOL0     H50005   7.335   9.348  -0.175 -0.5047  0.5101  0.5021
  379MOL0     H50006   7.215   9.475   0.074 -0.3444  0.8262  0.8441
  379MOL0     H50007   7.317   9.333   0.061 -1.1526  0.4462 -0.3067
  379MOL0     H50008   7.478   9.503  -0.084  3.6924 -1.7266  1.1533
  379MOL0     H50009   7.496   9.505   0.090  1.7793  0.7203 -1.4165
  379MOL0     H50010   6.572   8.939  -0.411 -1.6964  3.0974  2.7159
  379MOL0     H50011   6.454   8.717  -0.395  0.4939 -3.2480  0.8121
  379MOL0     H50012   6.276   8.350  -0.309 -0.6673 -1.7389 -1.1638
  379MOL0     H50013   6.240   8.117  -0.332 -1.4258  1.6823  0.2266
  379MOL0     H50014   6.372   8.066   0.879 -0.9619  0.3953 -0.0419
  379MOL0     H50015   6.567   8.023   0.777 -1.0597 -0.0568  0.1819
  379MOL0     H50016   6.916   7.940   0.474  1.1089 -0.5643 -1.6069
  379MOL0     H50017   7.150   7.977   0.367 -1.3551 -0.1391  0.3478
  379MOL0     H50018   7.355   8.382   0.435  0.5325 -1.2151 -0.0441
  379MOL0     H50019   7.264   8.365   0.286 -2.6007  1.1627  3.5988
  379MOL0     H50020   7.556   8.309   0.340 -1.3817  2.5120  0.0770
  379MOL0     H50021   7.488   8.246   0.196  1.6584  0.3786 -0.6491
  379MOL0     H50022   7.405   8.497   0.161  1.6722  0.1094 -1.6861
  379MOL0     H50023   7.561   8.415   0.126  1.0948 -1.0706  1.0140
  379MOL0     H50024   7.465   8.602   0.356  1.5542  0.7705  3.0974
  379MOL0     H50025   7.626   8.528   0.375 -1.2134  0.7251  0.4620
  379MOL0     H50026   7.702   8.831   0.084  0.2946  1.4156  0.9973
  379MOL0     H50027   7.159   8.376   0.529  0.5421 -0.1835  2.3927
  379MOL0     H50028   6.944   8.345   0.633  3.6060  0.9104  0.1560
  380MOL0     O50029   4.228   8.498   0.509  0.5372 -0.8606 -0.5110
  380MOL0     C50030   4.217   8.614   0.465 -0.2385  0.9563 -0.1946
  380MOL0     O50031   4.183   8.650   0.342  0.0368 -0.4809  0.3669
  380MOL0     C50032   4.097   8.557   0.263 -1.3562 -0.4467  0.7341
  380MOL0     C50033   3.969   8.536   0.296 -0.0441 -0.6159 -0.4607
  380MOL0     C50034   3.899   8.428   0.238 -0.6435 -0.8007  0.5783
  380MOL0     C50035   3.958   8.361   0.129 -0.1196  0.5563 -0.0415
  380MOL0     O50036   3.886   8.265   0.058 -0.0853  0.9799  0.3858
  380MOL0     C50037   3.933   8.123   0.085  0.6148  0.3047  0.7636
  380MOL0     C50038   4.003   8.070  -0.037 -0.2716 -0.5669 -0.2337
  380MOL0     C50039   3.960   7.916  -0.046  0.6513  0.1643 -0.7919
  380MOL0     C50040   4.024   7.850  -0.173  0.0205  0.1368  0.1193
  380MOL0     C50041   4.026   7.700  -0.148  0.2274 -0.3049 -0.1806
  380MOL0     C50042   4.098   7.624  -0.266  0.3908 -0.0045  0.6457
  380MOL0     C50043   4.118   7.474  -0.239  0.7385  0.8518  1.3924
  380MOL0     C50044   4.163   7.401  -0.362  0.3556  0.5223  0.6399
  380MOL0     N50045   4.091   7.425  -0.492  0.5231  0.1000  0.0557
  380MOL0     C50046   4.153   7.459  -0.606 -0.4080 -0.7106  0.9155
  380MOL0     C50047   4.056   7.465  -0.702 -0.0003 -0.0351 -0.1899
  380MOL0     C50048   4.065   7.522  -0.837 -0.2000 -0.1172  0.1039
  380MOL0     C50049   3.948   7.487  -0.933  0.3392  0.5940 -0.3857
  380MOL0     C50050   3.916   7.598  -1.034  0.1412  0.8283  0.4396
  380MOL0     C50051   3.849   7.546  -1.162 -0.2998 -1.3269  0.2979
  380MOL0     O50052   3.939   7.465  -1.238  0.0856  0.5407  0.6087
  380MOL0     C50053   3.902   7.434  -1.369  0.0963  0.2033  0.4569
  380MOL0     C50054   4.002   7.378  -1.457 -0.7955  0.8324 -0.6683
  380MOL0     C50055   3.962   7.341  -1.592 -0.5378 -0.9272 -0.5087
  380MOL0     C50056   3.838   7.385  -1.642  0.6275 -0.4295  0.1178
  380MOL0     C50057   3.809   7.384  -1.792  0.6374  0.6228  0.3940
  380MOL0     O50058   3.685   7.427  -1.848  0.0180 -0.8088 -0.6268
  380MOL0     C50059   3.660   7.426  -1.984 -0.2476 -0.4945  0.0864
  380MOL0     C50060   3.564   7.342  -2.048  0.4787 -0.4154  0.1377
  380MOL0     C50061   3.536   7.353  -2.186 -0.3181 -0.1039 -0.9472
  380MOL0     C50062   3.604   7.451  -2.257  1.1883 -0.2489 -0.9492
  380MOL0     O50063   3.574   7.457  -2.393  0.1509  0.3573 -0.2227
  380MOL0     C50064   3.694   7.475  -2.471  0.0705  0.0310  0.5262
  380MOL0     C50065   3.667   7.421  -2.609  0.3274  0.5061  0.2665
  380MOL0     C50066   3.526   7.401  -2.661 -0.3621  0.5333  0.9227
  380MOL0     C50067   3.471   7.267  -2.614 -0.2501  0.7275  1.6262
  380MOL0     C50068   3.345   7.223  -2.691  0.0742  0.0523 -0.7884
  380MOL0     C50069   3.252   7.130  -2.598 -0.5180 -0.2297  0.5016
  380MOL0     C50070   3.114   7.117  -2.662 -1.0362 -0.0021  0.2092
  380MOL0     C50071   3.027   7.031  -2.574 -0.1168  0.1643  0.4412
  380MOL0    Cl50072   3.085   6.856  -2.573  0.1110  0.1773 -0.3456
  380MOL0     C50073   3.695   7.538  -2.189  1.3070  0.5027 -0.2183
  380MOL0     C50074   3.730   7.524  -2.053 -0.1578  0.6069  0.8434
  380MOL0     O50075   3.894   7.324  -1.861 -0.2636 -0.2666  0.1459
  380MOL0     C50076   3.747   7.451  -1.552 -0.0740  0.0214  1.1441
  380MOL0     C50077   3.774   7.453  -1.413  0.4106  0.1915  0.6513
  380MOL0     N50078   3.940   7.426  -0.645 -0.0855  0.1982 -0.0983
  380MOL0     N50079   3.955   7.399  -0.520 -0.0327  0.4959 -0.3148
  380MOL0     C50080   4.085   8.385   0.092 -0.0823  0.7748  0.5095
  380MOL0     C50081   4.154   8.478   0.162 -0.6024 -0.7970  0.5926
  380MOL0     C50082   4.275   8.727   0.550 -0.0136 -0.0689 -0.3406
  380MOL0     C50083   4.315   8.851   0.503 -0.1478  0.1977  1.1870
  380MOL0     C50084   4.372   8.952   0.587 -0.3001  0.9459 -0.1271
  380MOL0     C50085   4.406   8.921   0.719 -0.0643  0.3100 -0.2401
  380MOL0     O50086   4.460   9.016   0.801  0.3174 -0.0910  0.3119
  380MOL0     C50087   4.517   9.133   0.743 -1.1427 -0.0125  0.1773
  380MOL0     C50088   4.581   9.197   0.872  0.5812 -0.5112  0.3097
  380MOL0     C50089   4.658   9.322   0.830 -0.4224  0.0767  0.1956
  380MOL0     C50090   4.724   9.368   0.963  0.2565  0.2342 -0.9596
  380MOL0     C50091   4.793   9.489   0.944  0.0405  0.2877  0.4057
  380MOL0     C50092   4.858   9.596   0.929  0.0898  0.4624 -0.4361
  380MOL0     C50093   4.372   8.797   0.769 -0.9058  0.1694 -0.1796
  380MOL0     C50094   4.314   8.698   0.682 -0.0709 -0.3558 -0.4451
  380MOL0     H50095   3.932   8.591   0.382 -1.8400  1.6879 -2.5353
  380MOL0     H50096   3.803   8.395   0.277 -1.8355  0.9077 -0.7562
  380MOL0     H50097   3.841   8.066   0.099 -0.0095  0.0181 -3.4664
  380MOL0     H50098   3.992   8.121   0.178  1.0098  0.5142  0.5175
  380MOL0     H50099   4.111   8.089  -0.029 -0.4837  3.3594 -3.4161
  380MOL0     H50100   3.981   8.125  -0.129  3.3246 -0.5393 -1.2570
  380MOL0     H50101   3.851   7.907  -0.045  0.4229  2.0270 -2.3291
  380MOL0     H50102   3.999   7.870   0.045  1.4928  1.2333 -0.5837
  380MOL0     H50103   3.970   7.885  -0.261  1.0255  2.4294  0.3284
  380MOL0     H50104   4.129   7.883  -0.175  1.1829 -3.1868  0.2334
  380MOL0     H50105   3.920   7.671  -0.145 -0.1549  0.8682 -1.3647
  380MOL0     H50106   4.067   7.674  -0.050 -3.1186 -2.8092  0.7704
  380MOL0     H50107   4.197   7.664  -0.288 -0.2707  2.0364  1.1518
  380MOL0     H50108   4.037   7.633  -0.356 -1.7960 -2.4512  1.7244
  380MOL0     H50109   4.193   7.456  -0.162  4.1444  0.6061 -1.7026
  380MOL0     H50110   4.022   7.428  -0.212 -0.0742 -0.5587 -3.0609
  380MOL0     H50111   4.149   7.295  -0.342 -1.1747 -0.7107 -5.1733
  380MOL0     H50112   4.265   7.430  -0.391  0.8413 -0.7600  0.9871
  380MOL0     H50113   4.256   7.494  -0.605 -0.4040 -0.7221  0.7882
  380MOL0     H50114   4.157   7.482  -0.881 -1.5800  0.3971 -3.6599
  380MOL0     H50115   4.065   7.631  -0.823 -0.0088 -0.1406  0.2877
  380MOL0     H50116   3.851   7.469  -0.885 -1.4857  3.7704 -2.5408
  380MOL0     H50117   3.974   7.402  -0.998 -4.7342 -1.7194  0.0817
  380MOL0     H50118   3.853   7.671  -0.984 -1.2399 -0.0043 -0.0350
  380MOL0     H50119   4.011   7.643  -1.065  0.6486 -0.3227  0.2590
  380MOL0     H50120   3.832   7.638  -1.219  0.4986 -1.9704 -1.0422
  380MOL0     H50121   3.746   7.515  -1.145 -1.5442  2.1217 -0.1853
  380MOL0     H50122   4.103   7.375  -1.419 -0.3560 -3.4376 -1.7330
  380MOL0     H50123   4.042   7.303  -1.655  4.0374  1.7050  3.0047
  380MOL0     H50124   3.509   7.277  -1.981 -3.7964  2.4779 -0.1733
  380MOL0     H50125   3.467   7.287  -2.237 -1.4409 -0.0698  0.4837
  380MOL0     H50126   3.786   7.436  -2.426  0.2047  1.6917  1.7808
  380MOL0     H50127   3.716   7.580  -2.494  0.6673 -0.1191  0.3924
  380MOL0     H50128   3.722   7.327  -2.615 -0.3594  0.1449 -0.7855
  380MOL0     H50129   3.706   7.493  -2.681  0.0903  0.1385 -0.2383
  380MOL0     H50130   3.535   7.382  -2.768  1.6051 -1.7328  1.4058
  380MOL0     H50131   3.460   7.488  -2.647  2.3487  2.6251  1.6119
  380MOL0     H50132   3.547   7.189  -2.597 -0.1050  0.3404 -0.5889
  380MOL0     H50133   3.430   7.277  -2.513 -2.1677 -2.0695  1.2437
  380MOL0     H50134   3.378   7.166  -2.778 -0.6669 -0.8477 -0.4917
  380MOL0     H50135   3.278   7.307  -2.715 -0.4627 -0.0301  0.3429
  380MOL0     H50136   3.243   7.187  -2.505 -2.6090 -0.7146  0.6361
  380MOL0     H50137   3.303   7.034  -2.586  0.2597 -0.2020 -1.9392
  380MOL0     H50138   3.062   7.210  -2.687 -1.9970 -1.2906 -3.0706
  380MOL0     H50139   3.111   7.067  -2.759  0.1120 -1.9616  1.1343
  380MOL0     H50140   2.929   7.019  -2.621  0.0974 -1.1461  0.3041
  380MOL0     H50141   3.014   7.071  -2.473 -2.1902  5.4024 -1.5285
  380MOL0     H50142   3.751   7.602  -2.257 -0.3115  0.6802 -1.4516
  380MOL0     H50143   3.796   7.597  -2.009 -3.4068  3.6718  1.1452
  380MOL0     H50144   3.655   7.488  -1.596 -0.9083 -0.8172  2.1310
  380MOL0     H50145   3.701   7.491  -1.343 -1.2758 -2.2087  0.3141
  380MOL0     H50146   4.141   8.340   0.011  2.4560 -0.0128  2.5795
  380MOL0     H50147   4.260   8.486   0.141 -0.2714  0.9604  2.5556
  380MOL0     H50148   4.327   8.879   0.399 -0.5305 -0.7986  0.8555
  380MOL0     H50149   4.408   9.041   0.536  1.4732  0.9384  0.9866
  380MOL0     H50150   4.448   9.212   0.711  0.4480  1.4896  0.2534
  380MOL0     H50151   4.597   9.117   0.670 -0.8936  3.0480 -0.3865
  380MOL0     H50152   4.506   9.223   0.947  3.1960  0.6712  2.6896
  380MOL0     H50153   4.649   9.121   0.910  1.7640 -0.4786 -1.5773
  380MOL0     H50154   4.598   9.398   0.779  0.5810 -0.9697 -2.7643
  380MOL0     H50155   4.737   9.288   0.763  1.4681 -1.4071  2.9709
  380MOL0     H50156   4.648   9.392   1.038 -0.2860 -1.5668 -0.8838
  380MOL0     H50157   4.794   9.296   1.005 -0.8920  0.3079  1.2314
  380MOL0     H50158   4.922   9.680   0.911  2.7627 -0.9708  1.7226
  380MOL0     H50159   4.392   8.774   0.873 -3.0304  2.3630  0.8113
  380MOL0     H50160   4.297   8.605   0.736 -2.0351 -0.9119 -1.8992
  381MOL0     O50161   8.182   2.435  10.165  0.2758 -0.2274  0.5603
  381MOL0     C50162   8.268   2.409  10.249  0.1428  0.2347 -0.7956
  381MOL0     O50163   8.335   2.284  10.256 -0.3686  0.2258 -0.5704
  381MOL0     C50164   8.300   2.191  10.160  0.1996 -0.9513 -0.7542
  381MOL0     C50165   8.234   2.075  10.199 -0.5815  0.2409  1.1457
  381MOL0     C50166   8.215   1.966  10.104 -0.2010  0.5020  0.1649
  381MOL0     C50167   8.269   1.992   9.971  0.1696 -0.5163 -0.9412
  381MOL0     O50168   8.270   1.892   9.877 -0.5824  0.3052 -0.6990
  381MOL0     C50169   8.186   1.772   9.889  0.6772 -0.2186  0.1689
  381MOL0     C50170   8.267   1.639   9.841  1.1447  0.2916 -0.1641
  381MOL0     C50171   8.337   1.568   9.957 -0.3941 -0.2354  0.2091
  381MOL0     C50172   8.406   1.441   9.935 -0.1220 -0.2443  0.3692
  381MOL0     C50173   8.305   1.325   9.933  0.0919  0.8978  1.0619
  381MOL0     C50174   8.240   1.281  10.063  0.2490 -0.4433  0.1399
  381MOL0     C50175   8.340   1.256  10.173  0.1179  0.5800 -0.0994
  381MOL0     C50176   8.288   1.302  10.307 -0.1958 -0.2205 -0.0005
  381MOL0     N50177   8.247   1.445  10.321 -1.7489 -0.1232  0.3535
  381MOL0     C50178   8.133   1.499  10.369  0.1115 -0.5013 -0.1482
  381MOL0     C50179   8.174   1.620  10.419 -0.1992  0.1534  0.1581
  381MOL0     C50180   8.080   1.731  10.470 -0.0634  0.9500 -0.0164
  381MOL0     C50181   7.992   1.768  10.343 -0.6859  0.2092 -0.6613
  381MOL0     C50182   7.924   1.901  10.372  1.0907  0.3364 -0.2950
  381MOL0     C50183   7.808   1.931  10.275 -0.7788  0.1180 -0.9911
  381MOL0     O50184   7.705   1.830  10.255  0.2180  0.1202  0.0934
  381MOL0     C50185   7.589   1.864  10.188 -0.9410 -0.2133  0.1834
  381MOL0     C50186   7.514   1.759  10.147 -1.0685  0.5946  0.3625
  381MOL0     C50187   7.387   1.784  10.088 -0.5752 -0.0166  0.7092
  381MOL0     C50188   7.342   1.910  10.061  0.1729 -0.0999  0.2132
  381MOL0     C50189   7.209   1.933  10.007  1.0198 -0.0268 -0.8194
  381MOL0     O50190   7.184   2.070  10.022  0.3193  0.2108  0.2490
  381MOL0     C50191   7.074   2.114   9.948 -0.2885 -0.2837  0.6365
  381MOL0     C50192   6.975   2.189  10.009 -0.5720 -0.5333 -0.5124
  381MOL0     C50193   6.873   2.250   9.931  0.3359  0.3266 -0.4889
  381MOL0     C50194   6.872   2.233   9.797 -0.1091 -0.6773  0.7131
  381MOL0     O50195   6.754   2.284   9.748 -1.0277  0.3444  0.2442
  381MOL0     C50196   6.732   2.267   9.607  0.2000  0.1293 -0.4011
  381MOL0     C50197   6.784   2.392   9.517  0.0594 -0.1052 -0.0609
  381MOL0     C50198   6.742   2.536   9.566  0.5357  0.0753 -0.4099
  381MOL0     C50199   6.794   2.640   9.464  0.6007 -0.2202 -0.2467
  381MOL0     C50200   6.836   2.774   9.520  0.9507 -0.1886  0.1364
  381MOL0     C50201   6.728   2.880   9.540  0.1456  0.3248 -0.3061
  381MOL0     C50202   6.779   3.014   9.602 -0.3316  0.0191 -0.8283
  381MOL0     C50203   6.766   3.138   9.509 -0.0772  0.7083 -0.3353
  381MOL0    Cl50204   6.803   3.101   9.330  0.2836 -0.0684 -0.1463
  381MOL0     C50205   6.970   2.146   9.730  0.2965 -0.2872  0.8044
  381MOL0     C50206   7.065   2.094   9.811 -0.1605  0.0355 -0.4013
  381MOL0     O50207   7.134   1.845   9.965  0.7977  0.4051 -0.0109
  381MOL0     C50208   7.415   2.018  10.117 -0.4227 -0.5365 -0.1835
  381MOL0     C50209   7.544   1.993  10.177  0.1570 -0.1569  0.1491
  381MOL0     N50210   8.300   1.650  10.381 -1.1725  0.3551 -0.2678
  381MOL0     N50211   8.350   1.538  10.332  1.2323 -0.7885 -0.2466
  381MOL0     C50212   8.330   2.110   9.939 -0.0778 -0.5252  0.3924
  381MOL0     C50213   8.348   2.205  10.030 -1.2536  0.1097 -0.1696
  381MOL0     C50214   8.279   2.501  10.368  0.9093 -0.6944 -0.3125
  381MOL0     C50215   8.193   2.612  10.382 -0.4591 -0.7762  0.7726
  381MOL0     C50216   8.223   2.698  10.480  0.4650  0.5158  0.0123
  381MOL0     C50217   8.316   2.677  10.587  0.5677  0.0990 -0.1504
  381MOL0     O50218   8.336   2.748  10.708  0.2829 -0.6771 -0.3894
  381MOL0     C50219   8.241   2.852  10.758  1.1604 -0.1935  0.7276
  381MOL0     C50220   8.289   2.995  10.727 -0.7374  0.0570  0.0489
  381MOL0     C50221   8.418   3.035  10.795  0.2894  0.2047  0.0176
  381MOL0     C50222   8.539   2.999  10.709 -0.3754  0.7867 -0.4406
  381MOL0     C50223   8.659   3.048  10.778  0.7889 -0.0291  0.8534
  381MOL0     C50224   8.750   3.074  10.852  0.7176 -0.0834 -1.5895
  381MOL0     C50225   8.385   2.557  10.582  0.3260 -0.7700  0.2185
  381MOL0     C50226   8.367   2.467  10.472  0.3298  0.5822 -0.4849
  381MOL0     H50227   8.207   2.065  10.304 -1.4722  0.5761  0.9607
  381MOL0     H50228   8.181   1.869  10.138  3.2125 -0.3818  1.5406
  381MOL0     H50229   8.097   1.788   9.826  0.4270  5.4598  1.3921
  381MOL0     H50230   8.127   1.761   9.980 -1.3400 -1.0920 -1.1767
  381MOL0     H50231   8.346   1.673   9.773  1.8353 -1.5227 -0.3133
  381MOL0     H50232   8.201   1.569   9.789 -2.1609  0.7921  2.9496
  381MOL0     H50233   8.260   1.560  10.035 -1.7122 -2.8913 -1.2222
  381MOL0     H50234   8.425   1.627   9.985  1.0986 -1.5952 -1.4341
  381MOL0     H50235   8.454   1.451   9.837  1.4641  1.2011  1.2415
  381MOL0     H50236   8.485   1.414  10.004 -1.1425 -1.9664  0.9092
  381MOL0     H50237   8.360   1.235   9.904 -1.9946  0.0875 -0.6574
  381MOL0     H50238   8.228   1.346   9.858  0.1022 -0.8348  0.5301
  381MOL0     H50239   8.184   1.188  10.052 -0.2076 -0.4865  2.3644
  381MOL0     H50240   8.167   1.353  10.101 -0.7662 -1.5245  0.3212
  381MOL0     H50241   8.363   1.150  10.184  0.5800  0.5237 -1.4419
  381MOL0     H50242   8.431   1.315  10.158 -0.9875  2.3547 -0.1316
  381MOL0     H50243   8.360   1.272  10.385  0.0900  3.1454  1.1760
  381MOL0     H50244   8.201   1.237  10.314  1.2856 -2.4390 -0.7289
  381MOL0     H50245   8.034   1.454  10.373  0.7501 -1.8565  2.0995
  381MOL0     H50246   8.148   1.807  10.511 -0.5931  0.7423  1.3029
  381MOL0     H50247   8.006   1.710  10.547  0.9479  0.2926  0.8135
  381MOL0     H50248   7.921   1.685  10.330 -1.0082  0.1561  1.0603
  381MOL0     H50249   8.044   1.772  10.248 -3.0439 -0.5203 -2.0677
  381MOL0     H50250   7.897   1.903  10.478  2.2466  3.9556  0.0443
  381MOL0     H50251   7.994   1.984  10.363  1.7355  0.4757  3.9255
  381MOL0     H50252   7.845   1.957  10.176  1.7050  1.7421  0.2714
  381MOL0     H50253   7.770   2.019  10.328 -0.7836 -2.5100  4.0435
  381MOL0     H50254   7.541   1.654  10.162  1.3280  1.1936  0.6472
  381MOL0     H50255   7.324   1.698  10.068 -0.6860 -0.3868  2.5353
  381MOL0     H50256   6.988   2.194  10.117 -0.4069 -1.6529 -0.4655
  381MOL0     H50257   6.795   2.302   9.985  0.5475 -0.5294  0.7004
  381MOL0     H50258   6.623   2.263   9.598  0.0051  2.1222  0.5969
  381MOL0     H50259   6.763   2.167   9.572 -1.8095  0.1685 -2.5495
  381MOL0     H50260   6.759   2.380   9.411 -0.4771  3.2194 -0.4122
  381MOL0     H50261   6.893   2.389   9.524  0.0303  1.0065  1.2440
  381MOL0     H50262   6.787   2.563   9.662  1.9230  2.4039 -1.6031
  381MOL0     H50263   6.636   2.549   9.588  1.2258  2.9504  1.7902
  381MOL0     H50264   6.880   2.592   9.416  1.8563 -1.2448  2.7848
  381MOL0     H50265   6.716   2.667   9.392 -0.3412 -0.7184  0.5603
  381MOL0     H50266   6.898   2.822   9.442  0.9400 -1.3010 -0.5778
  381MOL0     H50267   6.902   2.750   9.604 -1.8126 -0.4404  2.3716
  381MOL0     H50268   6.662   2.838   9.616  0.4227  0.1632 -0.1518
  381MOL0     H50269   6.665   2.887   9.451 -2.0063  0.1418  1.1279
  381MOL0     H50270   6.727   3.027   9.697  2.3010 -1.2247  0.9112
  381MOL0     H50271   6.882   3.001   9.635 -0.6440 -2.9444 -0.7267
  381MOL0     H50272   6.831   3.218   9.546  1.7528 -0.9718  0.2778
  381MOL0     H50273   6.663   3.175   9.509 -0.5729 -0.6198 -0.9162
  381MOL0     H50274   6.974   2.133   9.622 -2.1074  3.1278  0.1155
  381MOL0     H50275   7.137   2.039   9.751  1.9635 -1.0926  2.9030
  381MOL0     H50276   7.377   2.119  10.115  2.5027  0.7213  1.5195
  381MOL0     H50277   7.593   2.076  10.226 -0.2941  2.6556 -3.8003
  381MOL0     H50278   8.376   2.115   9.841  3.6303  1.1588  2.0376
  381MOL0     H50279   8.406   2.293  10.009 -0.3926 -0.1706  0.9112
  381MOL0     H50280   8.124   2.636  10.301  0.4123 -3.6017 -0.9657
  381MOL0     H50281   8.169   2.792  10.476 -1.6041 -0.6208 -0.1714
  381MOL0     H50282   8.226   2.849  10.866 -1.7856 -1.5053  0.3872
  381MOL0     H50283   8.145   2.843  10.706  1.3169 -1.6882  0.6403
  381MOL0     H50284   8.297   3.004  10.619  3.0716  1.7205  0.2778
  381MOL0     H50285   8.219   3.068  10.770  0.0615  0.0627  1.4065
  381MOL0     H50286   8.431   2.995  10.896  0.0698  1.6457  0.6431
  381MOL0     H50287   8.409   3.143  10.809  2.6687  1.0406 -3.4956
  381MOL0     H50288   8.542   2.890  10.701  1.7110  0.8201 -0.8864
  381MOL0     H50289   8.526   3.039  10.608 -1.6122  2.5543  0.3602
  381MOL0     H50290   8.829   3.107  10.916 -1.6002  1.9000  0.4626
  381MOL0     H50291   8.452   2.516  10.657  0.7362 -3.0441 -1.2648
  381MOL0     H50292   8.418   2.373  10.453 -1.2815  0.2253 -3.7865
  382MOL0     O50293   4.997   3.200   8.724  0.7803  0.3211 -0.1798
  382MOL0     C50294   4.932   3.126   8.647  0.4467  0.6980 -0.7465
  382MOL0     O50295   4.815   3.158   8.574 -0.2088  0.6302  1.3181
  382MOL0     C50296   4.771   3.281   8.601 -0.2053 -0.6735  0.2714
  382MOL0     C50297   4.649   3.292   8.667 -0.2128  0.0069  0.3666
  382MOL0     C50298   4.593   3.425   8.690  0.0855  1.2551  0.4263
  382MOL0     C50299   4.665   3.543   8.653 -0.4604 -0.7834 -0.1775
  382MOL0     O50300   4.607   3.669   8.673 -0.5844 -0.4769  0.3780
  382MOL0     C50301   4.683   3.757   8.762 -0.2527  0.9442  0.1960
  382MOL0     C50302   4.607   3.882   8.793  0.7385 -0.5247 -0.0216
  382MOL0     C50303   4.691   4.013   8.807  0.0617 -0.4930  0.6941
  382MOL0     C50304   4.604   4.128   8.854  1.7812 -0.0121  0.0802
  382MOL0     C50305   4.685   4.249   8.902  0.5345  0.0378  0.5824
  382MOL0     C50306   4.606   4.371   8.972  0.6420 -0.4697 -0.4285
  382MOL0     C50307   4.606   4.339   9.123 -0.5606 -0.7838  0.4880
  382MOL0     C50308   4.745   4.377   9.189 -1.1228 -0.7325 -0.2914
  382MOL0     N50309   4.765   4.528   9.181  0.7870 -0.2443 -0.4858
  382MOL0     C50310   4.679   4.627   9.215  0.5184  0.2490 -0.2086
  382MOL0     C50311   4.744   4.744   9.201 -0.3710  0.0000 -0.4017
  382MOL0     C50312   4.684   4.882   9.222 -0.2705 -1.0542  0.6872
  382MOL0     C50313   4.653   4.941   9.083 -0.1785  0.6749  0.5090
  382MOL0     C50314   4.549   4.858   9.003  0.6227 -0.4838 -0.2994
  382MOL0     C50315   4.546   4.906   8.857 -0.5379 -0.2277 -0.2038
  382MOL0     O50316   4.528   4.796   8.763  0.4975  0.5550  0.6894
  382MOL0     C50317   4.408   4.761   8.699  0.5388  0.5054 -0.3852
  382MOL0     C50318   4.402   4.667   8.590 -0.1289 -0.6304  0.4133
  382MOL0     C50319   4.281   4.661   8.517  0.5915  0.0943  1.0147
  382MOL0     C50320   4.161   4.718   8.558 -0.3345  1.6315  0.6867
  382MOL0     C50321   4.037   4.693   8.487  0.6935  0.3169  0.0428
  382MOL0     O50322   4.040   4.608   8.385 -0.0459  0.1092 -0.2702
  382MOL0     C50323   3.920   4.582   8.316 -0.5810  0.1732  0.0794
  382MOL0     C50324   3.880   4.452   8.297  0.8457 -0.1043  0.5880
  382MOL0     C50325   3.770   4.416   8.225 -0.3971 -0.1620  0.6520
  382MOL0     C50326   3.694   4.519   8.166 -0.5114  0.2453  1.0679
  382MOL0     O50327   3.596   4.472   8.084 -0.6098  0.4112 -0.7421
  382MOL0     C50328   3.510   4.562   8.017  0.6486  0.4845  0.2261
  382MOL0     C50329   3.411   4.482   7.934  0.5856 -0.7339 -0.2579
  382MOL0     C50330   3.466   4.378   7.837  0.5233  0.2092  0.9342
  382MOL0     C50331   3.378   4.356   7.717  0.7873 -0.5090  0.0222
  382MOL0     C50332   3.423   4.230   7.643 -0.2154  0.3200  0.1959
  382MOL0     C50333   3.354   4.227   7.500 -0.5697 -0.2954 -0.2651
  382MOL0     C50334   3.204   4.195   7.492  0.6684 -0.5378 -0.3671
  382MOL0     C50335   3.162   4.062   7.558  0.1969  0.3081  1.1950
  382MOL0    Cl50336   3.255   3.935   7.478  0.3100  0.1671  0.2023
  382MOL0     C50337   3.724   4.655   8.179  0.1774 -0.0483  0.1085
  382MOL0     C50338   3.844   4.682   8.250 -0.0928 -0.5965  0.0350
  382MOL0     O50339   3.949   4.769   8.519  0.4700 -0.2307  0.2674
  382MOL0     C50340   4.169   4.773   8.680 -0.0362 -0.1837 -1.0591
  382MOL0     C50341   4.288   4.801   8.754  0.1115  0.0425 -0.3010
  382MOL0     N50342   4.870   4.722   9.160  0.2350 -0.0184  0.2295
  382MOL0     N50343   4.875   4.594   9.136  0.0201 -0.3159 -0.2069
  382MOL0     C50344   4.792   3.527   8.590 -0.0820 -1.2835  0.2269
  382MOL0     C50345   4.847   3.399   8.566  0.3528 -1.1960  0.0826
  382MOL0     C50346   4.985   2.986   8.624  0.0601  0.3426 -1.0997
  382MOL0     C50347   4.915   2.893   8.534 -0.7712 -0.6469  0.4319
  382MOL0     C50348   4.955   2.758   8.529 -0.9021 -0.0679 -0.3240
  382MOL0     C50349   5.071   2.710   8.596  0.7307 -1.2240 -0.3145
  382MOL0     O50350   5.125   2.584   8.587  0.0920  0.5562 -0.4829
  382MOL0     C50351   5.025   2.471   8.596  0.3055  0.9300  0.2114
  382MOL0     C50352   5.026   2.402   8.738 -0.2335 -0.3142  0.4632
  382MOL0     C50353   4.906   2.308   8.760  0.8664  0.2851 -0.0403
  382MOL0     C50354   4.889   2.198   8.650  0.3821 -1.0635  0.8671
  382MOL0     C50355   4.992   2.094   8.639 -1.2320  0.2896  0.0288
  382MOL0     C50356   5.075   2.003   8.615 -0.6940 -0.0941  0.1265
  382MOL0     C50357   5.139   2.796   8.682  0.0013 -1.2292 -0.3963
  382MOL0     C50358   5.097   2.930   8.692 -0.1124 -0.9670 -0.4923
  382MOL0     H50359   4.600   3.200   8.699 -2.2443 -0.7337 -4.1833
  382MOL0     H50360   4.496   3.434   8.739 -0.6441 -3.7032  0.3824
  382MOL0     H50361   4.779   3.776   8.714 -0.3140  0.2973 -0.2097
  382MOL0     H50362   4.713   3.708   8.855 -0.3926 -0.6892 -0.5686
  382MOL0     H50363   4.549   3.866   8.885  4.4808 -0.4484  2.6097
  382MOL0     H50364   4.543   3.894   8.706 -0.9500 -1.0513  1.0903
  382MOL0     H50365   4.743   4.043   8.716 -2.1082  0.9136 -0.1527
  382MOL0     H50366   4.763   3.985   8.884 -1.2327  1.5007  2.7512
  382MOL0     H50367   4.539   4.151   8.769  0.1613  0.3166  1.3315
  382MOL0     H50368   4.543   4.104   8.942  0.2486  2.3851 -0.2047
  382MOL0     H50369   4.733   4.287   8.811  1.5085 -1.2571  0.5318
  382MOL0     H50370   4.764   4.213   8.968  0.8480 -0.6358 -0.1491
  382MOL0     H50371   4.505   4.375   8.931  1.2644 -2.5381 -2.4453
  382MOL0     H50372   4.663   4.463   8.952  2.8223 -1.9403 -1.3960
  382MOL0     H50373   4.540   4.403   9.182  2.2782  2.1303  0.7469
  382MOL0     H50374   4.575   4.235   9.140 -2.8911 -0.4199 -1.0107
  382MOL0     H50375   4.827   4.320   9.145 -1.0201 -0.2116 -0.7832
  382MOL0     H50376   4.734   4.345   9.293 -1.4081  0.0562 -0.0765
  382MOL0     H50377   4.578   4.625   9.254  0.6514  1.1713  0.1883
  382MOL0     H50378   4.762   4.945   9.264 -0.3238 -0.3832 -0.1968
  382MOL0     H50379   4.599   4.886   9.291  1.0667  0.1577  2.3292
  382MOL0     H50380   4.745   4.948   9.025 -0.2303 -1.2474  0.1257
  382MOL0     H50381   4.602   5.037   9.093 -1.7613 -0.2622  1.9648
  382MOL0     H50382   4.572   4.751   9.000 -0.7446 -0.8759  1.1779
  382MOL0     H50383   4.448   4.878   9.042  0.2712  1.3135 -1.9440
  382MOL0     H50384   4.639   4.957   8.831 -0.8239  1.3657  1.6096
  382MOL0     H50385   4.465   4.977   8.839  0.1693  0.1359 -2.1934
  382MOL0     H50386   4.500   4.625   8.566  1.7502  2.0886  2.5901
  382MOL0     H50387   4.292   4.595   8.431 -1.7264  0.2098  0.5523
  382MOL0     H50388   3.938   4.373   8.343  0.2372 -1.3947 -0.7621
  382MOL0     H50389   3.743   4.314   8.201 -1.8676  0.2333  0.5348
  382MOL0     H50390   3.577   4.624   7.956 -0.2131  5.4162  3.6404
  382MOL0     H50391   3.456   4.632   8.081  0.9541 -0.6330  1.7522
  382MOL0     H50392   3.366   4.561   7.873  1.2642  1.2455  1.6566
  382MOL0     H50393   3.335   4.432   7.996  0.0375  0.0700 -0.2696
  382MOL0     H50394   3.480   4.284   7.890  3.5006 -1.5494 -2.5323
  382MOL0     H50395   3.567   4.402   7.801 -0.2948  1.5222 -0.6219
  382MOL0     H50396   3.279   4.336   7.759  1.2701  1.4170  2.3014
  382MOL0     H50397   3.384   4.450   7.661 -0.4276  0.3576  1.2612
  382MOL0     H50398   3.401   4.139   7.699 -0.7246  0.7613  0.7230
  382MOL0     H50399   3.532   4.239   7.636 -0.3991  1.6066 -2.5527
  382MOL0     H50400   3.400   4.147   7.440  0.2045  0.8232 -1.2049
  382MOL0     H50401   3.379   4.323   7.454 -1.7403  1.2093  2.0429
  382MOL0     H50402   3.145   4.276   7.535 -0.2280  1.4802 -4.8088
  382MOL0     H50403   3.173   4.198   7.387 -0.2207 -0.4467 -0.1038
  382MOL0     H50404   3.054   4.047   7.547  0.0118  2.8950 -1.7593
  382MOL0     H50405   3.191   4.061   7.664  1.2728  0.6589  0.9155
  382MOL0     H50406   3.670   4.736   8.130 -1.4576  0.7408  2.9778
  382MOL0     H50407   3.876   4.785   8.263 -1.0065 -0.5117  1.9814
  382MOL0     H50408   4.078   4.809   8.725  1.0918  0.0413  1.1452
  382MOL0     H50409   4.289   4.871   8.837  0.0165 -0.9950  0.6026
  382MOL0     H50410   4.823   3.624   8.553 -1.7128 -0.8220  0.0344
  382MOL0     H50411   4.943   3.385   8.516  0.3970 -0.5204 -0.0354
  382MOL0     H50412   4.814   2.924   8.507 -0.7074  0.3234  1.2872
  382MOL0     H50413   4.900   2.701   8.454  4.0882 -3.2317 -2.1092
  382MOL0     H50414   5.037   2.390   8.523  0.8757 -1.7264  3.0246
  382MOL0     H50415   4.924   2.508   8.577  0.3780  0.4540 -1.2606
  382MOL0     H50416   5.115   2.340   8.722 -0.4859 -1.1377  2.0822
  382MOL0     H50417   5.045   2.482   8.810  0.5835  1.5900 -1.7211
  382MOL0     H50418   4.808   2.357   8.762  0.4311 -0.3249 -2.5201
  382MOL0     H50419   4.908   2.263   8.859 -0.5949  0.6287  0.1624
  382MOL0     H50420   4.809   2.142   8.700  1.1324 -1.7896  1.2925
  382MOL0     H50421   4.862   2.237   8.552 -0.6335  0.3365  1.6744
  382MOL0     H50422   5.146   1.929   8.585 -0.9322  0.4718 -2.0319
  382MOL0     H50423   5.230   2.771   8.735  3.6835  2.6379 -4.1697
  382MOL0     H50424   5.152   3.001   8.754 -2.2940 -0.5672  1.0958
  383MOL0     O50425   9.962   6.741   6.455 -0.0859 -0.5103 -0.1665
  383MOL0     C50426   9.980   6.762   6.332 -0.6132 -0.0174  0.1618
  383MOL0     O50427  10.087   6.723   6.260  0.0818  0.5435  0.1857
  383MOL0     C50428  10.157   6.616   6.314  0.2937 -0.1185 -0.0819
  383MOL0     C50429  10.300   6.609   6.282 -0.3309  0.2823  0.1418
  383MOL0     C50430  10.379   6.502   6.313 -0.1814 -0.3518  0.6341
  383MOL0     C50431  10.329   6.395   6.382  0.0621 -0.2715  0.4031
  383MOL0     O50432  10.421   6.288   6.410 -0.1529 -0.2388  0.5009
  383MOL0     C50433  10.372   6.194   6.493  0.2173  1.2261 -0.8303
  383MOL0     C50434  10.491   6.109   6.543 -0.1481  0.0932 -0.2300
  383MOL0     C50435  10.455   5.998   6.638 -0.8780 -0.0593  0.2084
  383MOL0     C50436  10.422   6.037   6.780 -0.0129 -0.4809  0.3629
  383MOL0     C50437  10.436   5.912   6.887  0.0078 -0.3430 -0.4603
  383MOL0     C50438  10.347   5.781   6.858 -0.1948 -0.3871 -0.2096
  383MOL0     C50439  10.199   5.823   6.847 -0.0109  0.2351  0.5383
  383MOL0     C50440  10.115   5.696   6.822  1.0496  0.5281 -0.9485
  383MOL0     N50441   9.967   5.717   6.829  0.9644 -0.4410 -0.6014
  383MOL0     C50442   9.868   5.742   6.738  0.5081  0.1425  0.7502
  383MOL0     C50443   9.747   5.720   6.798 -0.4669  0.6251 -0.7494
  383MOL0     C50444   9.612   5.757   6.743  0.3821 -0.0642  0.0797
  383MOL0     C50445   9.610   5.912   6.738 -0.5481 -0.8569 -0.6236
  383MOL0     C50446   9.479   5.965   6.695 -0.0537  0.3543  0.3874
  383MOL0     C50447   9.454   6.117   6.717  0.8129 -0.3798 -0.3776
  383MOL0     O50448   9.553   6.194   6.655 -0.5140  0.5145 -0.1636
  383MOL0     C50449   9.541   6.324   6.664 -0.4307 -0.6553  0.9983
  383MOL0     C50450   9.413   6.394   6.674  0.0777  0.4048 -1.0115
  383MOL0     C50451   9.396   6.528   6.659  0.0671  0.0630 -0.2654
  383MOL0     C50452   9.513   6.606   6.647  0.4328  0.1444  0.1360
  383MOL0     C50453   9.514   6.754   6.623  0.4382 -0.3695  0.5851
  383MOL0     O50454   9.398   6.821   6.641 -0.0383 -0.3063  0.8507
  383MOL0     C50455   9.406   6.954   6.603  0.1439 -0.9524  0.6523
  383MOL0     C50456   9.457   7.040   6.698  0.3440 -0.0786  0.6597
  383MOL0     C50457   9.478   7.174   6.672  0.5402  0.5660 -0.6377
  383MOL0     C50458   9.468   7.223   6.542 -0.8616 -0.3134 -0.5357
  383MOL0     O50459   9.514   7.352   6.514  0.2740 -0.2976 -0.4905
  383MOL0     C50460   9.501   7.405   6.388 -0.1590 -0.8620 -0.4075
  383MOL0     C50461   9.613   7.364   6.288 -0.0843  0.2001  0.1466
  383MOL0     C50462   9.650   7.482   6.194  0.0865 -0.3376  0.6397
  383MOL0     C50463   9.537   7.562   6.127  0.1476  1.2892 -0.3881
  383MOL0     C50464   9.572   7.634   5.999 -0.2301 -0.0850 -0.3256
  383MOL0     C50465   9.555   7.787   6.006 -0.5609  0.0005  0.0617
  383MOL0     C50466   9.674   7.861   6.051 -0.3194 -0.3505  1.3037
  383MOL0     C50467   9.641   8.003   6.109  0.3181  1.0213 -0.2277
  383MOL0    Cl50468   9.542   7.978   6.264 -0.2664 -0.2044 -0.4531
  383MOL0     C50469   9.415   7.138   6.441 -0.3366 -1.5283 -0.1879
  383MOL0     C50470   9.386   7.002   6.469 -0.2334 -0.3985 -0.0012
  383MOL0     O50471   9.625   6.808   6.588  0.8002  0.1784  0.3693
  383MOL0     C50472   9.634   6.547   6.622  0.2741  0.3976  0.1107
  383MOL0     C50473   9.647   6.411   6.628  0.6057  1.0226  0.2898
  383MOL0     N50474   9.776   5.676   6.926  0.3995  0.0817  0.5514
  383MOL0     N50475   9.907   5.687   6.950 -0.2254  0.4501 -0.1735
  383MOL0     C50476  10.184   6.403   6.405  0.0841  0.6236 -0.4316
  383MOL0     C50477  10.106   6.506   6.371 -0.1651 -0.6639 -0.2502
  383MOL0     C50478   9.883   6.845   6.260  0.9597 -0.5274 -0.5049
  383MOL0     C50479   9.865   6.824   6.121  0.0237 -0.3496 -1.1409
  383MOL0     C50480   9.760   6.879   6.059 -0.6465 -0.7630 -0.8028
  383MOL0     C50481   9.682   6.980   6.118  0.5207 -0.0716 -0.4743
  383MOL0     O50482   9.593   7.055   6.053 -0.1707 -0.1554 -0.2687
  383MOL0     C50483   9.560   7.034   5.914 -0.7158 -1.0447  0.3697
  383MOL0     C50484   9.676   7.082   5.816 -0.6498 -0.0416 -0.5061
  383MOL0     C50485   9.716   7.232   5.848  0.8188  0.3848  0.4265
  383MOL0     C50486   9.633   7.336   5.782  0.2306  0.4947 -0.3857
  383MOL0     C50487   9.639   7.315   5.642 -0.7089 -0.5673 -1.4147
  383MOL0     C50488   9.656   7.306   5.526  0.2160  1.0420  0.2995
  383MOL0     C50489   9.688   6.997   6.254  0.4395  0.1361 -1.1162
  383MOL0     C50490   9.792   6.938   6.321  0.1375  0.7551 -1.4251
  383MOL0     H50491  10.360   6.692   6.246  3.0144 -1.3316  1.5462
  383MOL0     H50492  10.485   6.491   6.295 -0.0831  0.7140  0.4950
  383MOL0     H50493  10.289   6.136   6.451 -0.8707 -0.6865  3.4577
  383MOL0     H50494  10.332   6.243   6.582  1.3693  1.7573 -0.5880
  383MOL0     H50495  10.559   6.176   6.596 -1.3945 -0.0882  1.7067
  383MOL0     H50496  10.557   6.077   6.462  1.4780 -3.9550  2.3460
  383MOL0     H50497  10.532   5.921   6.626 -2.0892 -0.9178 -3.1122
  383MOL0     H50498  10.365   5.952   6.596 -1.1506  0.9314 -0.3333
  383MOL0     H50499  10.500   6.111   6.797  1.4264 -2.1270  1.2050
  383MOL0     H50500  10.323   6.084   6.780  0.5040  0.8676 -3.2049
  383MOL0     H50501  10.405   5.931   6.991 -2.6338 -2.2600 -0.8010
  383MOL0     H50502  10.536   5.870   6.897 -0.0575 -1.0416 -2.3698
  383MOL0     H50503  10.371   5.707   6.935 -3.5973 -0.9458  0.4556
  383MOL0     H50504  10.373   5.727   6.766  0.7784 -2.0263  0.9663
  383MOL0     H50505  10.180   5.877   6.940 -3.0310  0.7465 -0.2715
  383MOL0     H50506  10.182   5.890   6.762  1.6417  0.5291  0.4157
  383MOL0     H50507  10.139   5.625   6.902  1.1839  1.5785 -0.0288
  383MOL0     H50508  10.144   5.642   6.732  0.6622 -1.3931  0.0353
  383MOL0     H50509   9.869   5.763   6.632 -4.1100 -0.9958  0.2286
  383MOL0     H50510   9.551   5.721   6.826 -0.5080 -1.9100 -1.3127
  383MOL0     H50511   9.583   5.714   6.646  1.7878  1.1665 -0.9419
  383MOL0     H50512   9.692   5.954   6.679  0.3198 -1.2748  0.2483
  383MOL0     H50513   9.612   5.949   6.841 -1.9477  0.7270 -1.1143
  383MOL0     H50514   9.474   5.948   6.587  2.6710  0.2892  0.2045
  383MOL0     H50515   9.398   5.917   6.751 -0.0088  2.3144  2.2766
  383MOL0     H50516   9.454   6.151   6.821 -3.3782  0.5379 -0.4732
  383MOL0     H50517   9.349   6.132   6.687  0.5033  1.4841  1.4271
  383MOL0     H50518   9.323   6.334   6.685 -0.8127  1.6579 -1.2769
  383MOL0     H50519   9.293   6.563   6.667 -0.5138 -1.0336 -2.2782
  383MOL0     H50520   9.476   7.003   6.798 -0.2371 -1.4326  0.2889
  383MOL0     H50521   9.509   7.244   6.749 -3.0625  0.2501  1.3034
  383MOL0     H50522   9.507   7.510   6.420 -0.4063 -0.5304 -1.4229
  383MOL0     H50523   9.402   7.390   6.346 -0.5772  0.8757 -0.0963
  383MOL0     H50524   9.575   7.285   6.223  4.1400 -1.0892 -1.0912
  383MOL0     H50525   9.704   7.320   6.331  0.7695  1.6311 -0.1051
  383MOL0     H50526   9.712   7.438   6.115  0.2577 -2.2927  1.8079
  383MOL0     H50527   9.719   7.552   6.243  3.0534 -0.0274 -3.3989
  383MOL0     H50528   9.450   7.501   6.101  0.7488  0.0713  0.4227
  383MOL0     H50529   9.484   7.623   6.201  0.9364  0.8083  0.5992
  383MOL0     H50530   9.504   7.593   5.923  0.6067  1.7035 -2.1513
  383MOL0     H50531   9.670   7.612   5.956 -0.7544 -0.7530 -1.2191
  383MOL0     H50532   9.468   7.805   6.071  0.1795  0.1108  1.0494
  383MOL0     H50533   9.527   7.821   5.906  2.0964 -0.6944 -0.9889
  383MOL0     H50534   9.736   7.805   6.122  0.7418 -2.1755 -0.9575
  383MOL0     H50535   9.739   7.865   5.963  1.9611 -0.3863  2.8893
  383MOL0     H50536   9.576   8.065   6.045 -4.0810 -0.4185  2.3960
  383MOL0     H50537   9.742   8.045   6.117  1.0741 -0.4232 -1.5935
  383MOL0     H50538   9.401   7.173   6.339 -1.2742  0.2548  0.5073
  383MOL0     H50539   9.360   6.934   6.389  1.8597  2.3572 -3.3548
  383MOL0     H50540   9.726   6.600   6.601 -0.2855  0.8731 -1.2333
  383MOL0     H50541   9.747   6.374   6.607  1.9544  3.2525  2.2443
  383MOL0     H50542  10.141   6.330   6.472 -0.5267  2.2751  1.0469
  383MOL0     H50543  10.002   6.513   6.401  0.0548  2.5190  0.0545
  383MOL0     H50544   9.930   6.768   6.056  1.6003 -0.2221  0.2606
  383MOL0     H50545   9.754   6.862   5.952 -1.6909 -0.8029 -0.7478
  383MOL0     H50546   9.470   7.085   5.880  0.5527  0.5203 -0.7747
  383MOL0     H50547   9.541   6.928   5.895 -0.9585 -0.8315 -0.6047
  383MOL0     H50548   9.771   7.029   5.806  0.7212  2.4222 -1.5533
  383MOL0     H50549   9.629   7.065   5.718 -1.1931 -0.6275 -0.1511
  383MOL0     H50550   9.813   7.238   5.797 -1.1375 -3.3040 -4.6382
  383MOL0     H50551   9.722   7.234   5.957  3.0409  0.7150  0.3374
  383MOL0     H50552   9.530   7.339   5.820 -0.4866 -0.2213 -2.1803
  383MOL0     H50553   9.674   7.433   5.813  0.2984  1.0429 -2.0818
  383MOL0     H50554   9.677   7.304   5.421 -0.1472 -1.2716  0.2201
  383MOL0     H50555   9.608   7.060   6.290  1.4781  1.6203 -1.2980
  383MOL0     H50556   9.803   6.943   6.429  1.3776 -1.5445 -1.3850
  384MOL0     O50557   0.433  10.581   8.146  0.2665  0.1634 -0.1634
  384MOL0     C50558   0.442  10.560   8.028  0.1638 -0.2169  0.3097
  384MOL0     O50559   0.510  10.460   7.970 -0.5893  0.2601 -0.4781
  384MOL0     C50560   0.540  10.349   8.047 -0.3469  0.4143 -0.6088
  384MOL0     C50561   0.650  10.353   8.133  0.0913 -0.1845  0.2358
  384MOL0     C50562   0.707  10.231   8.174 -0.7661 -0.8894 -0.6698
  384MOL0     C50563   0.658  10.111   8.148  1.2710  1.0516  0.0634
  384MOL0     O50564   0.706   9.991   8.197 -0.0695  0.3635  0.1917
  384MOL0     C50565   0.841  10.007   8.247  0.6438  0.1668 -0.1613
  384MOL0     C50566   0.889   9.865   8.295  0.2719  0.5763  0.0788
  384MOL0     C50567   0.839   9.842   8.429  0.1089 -0.4174 -0.5438
  384MOL0     C50568   0.879   9.698   8.484  0.8152  0.1529  0.2409
  384MOL0     C50569   0.826   9.661   8.619 -0.1334  0.5787 -0.3817
  384MOL0     C50570   0.676   9.624   8.633 -0.3400  0.8868 -0.3949
  384MOL0     C50571   0.654   9.557   8.766  0.4318  0.5106  0.4206
  384MOL0     C50572   0.513   9.491   8.759 -0.8402  0.0579  0.2313
  384MOL0     N50573   0.453   9.446   8.886  0.0078 -0.0966 -0.4722
  384MOL0     C50574   0.481   9.491   9.015  0.7039 -0.3977 -0.1945
  384MOL0     C50575   0.407   9.411   9.099  0.4939  0.4374  0.1632
  384MOL0     C50576   0.412   9.408   9.245  0.0024  0.4916 -0.2166
  384MOL0     C50577   0.508   9.302   9.293  0.9097  0.1811  0.1821
  384MOL0     C50578   0.653   9.342   9.273 -0.6546  0.6713 -0.0250
  384MOL0     C50579   0.741   9.256   9.366 -0.1460 -0.3239  0.0331
  384MOL0     O50580   0.728   9.299   9.508  0.7292 -0.7515  0.9501
  384MOL0     C50581   0.776   9.424   9.547 -0.4636  0.3999  0.1336
  384MOL0     C50582   0.706   9.493   9.635  0.4263  0.6058 -0.6222
  384MOL0     C50583   0.738   9.618   9.682  0.1355 -1.5877 -0.2534
  384MOL0     C50584   0.851   9.683   9.633 -0.9491  0.2612 -0.1504
  384MOL0     C50585   0.879   9.820   9.687  0.8110  0.0387  0.9397
  384MOL0     O50586   1.013   9.841   9.705 -0.0160 -1.0212  0.6748
  384MOL0     C50587   1.045   9.966   9.752 -0.4259  0.8085  0.4153
  384MOL0     C50588   1.138  10.039   9.675 -0.0408  0.0468  0.7832
  384MOL0     C50589   1.156  10.178   9.715 -0.8454 -1.0388  1.0332
  384MOL0     C50590   1.082  10.244   9.813 -0.3089 -0.4408  0.7178
  384MOL0     O50591   1.092  10.371   9.859 -0.2156 -0.3314  0.1915
  384MOL0     C50592   1.148  10.468   9.772 -0.1635  0.3832 -0.2559
  384MOL0     C50593   1.097  10.604   9.809 -0.6885 -0.0465  0.3582
  384MOL0     C50594   1.133  10.634   9.958  0.9340  0.5395  0.1712
  384MOL0     C50595   1.031  10.743  10.000  0.7965 -0.0857  0.2344
  384MOL0     C50596   1.002  10.874   9.929 -0.5791 -0.7648  1.0471
  384MOL0     C50597   1.120  10.973   9.901  0.6181 -0.7448 -0.9458
  384MOL0     C50598   1.065  11.084   9.808  0.2749 -0.1805  0.2348
  384MOL0     C50599   1.186  11.166   9.758 -0.3521  0.5323 -0.0587
  384MOL0    Cl50600   1.281  11.241   9.900 -0.6109  0.3167  0.0247
  384MOL0     C50601   0.995  10.164   9.883  0.0735 -0.2995 -0.4222
  384MOL0     C50602   0.974  10.025   9.868  0.2577  0.2344 -0.2438
  384MOL0     O50603   0.789   9.889   9.709  0.5220 -0.0463  0.2083
  384MOL0     C50604   0.932   9.615   9.540  0.3376  1.5770 -0.7103
  384MOL0     C50605   0.897   9.483   9.505  0.0438 -0.4965 -0.0297
  384MOL0     N50606   0.327   9.326   9.016  1.1787  0.3863 -0.1351
  384MOL0     N50607   0.363   9.343   8.895 -0.6535 -0.8065 -1.0794
  384MOL0     C50608   0.536  10.106   8.079 -0.2350  0.4328  1.1846
  384MOL0     C50609   0.475  10.229   8.033 -0.3903 -0.0254 -0.3499
  384MOL0     C50610   0.374  10.653   7.945  0.1480  0.7413  0.4429
  384MOL0     C50611   0.335  10.617   7.811 -0.0458 -0.3917 -0.8054
  384MOL0     C50612   0.272  10.711   7.736  0.6035 -0.0111 -0.4245
  384MOL0     C50613   0.225  10.834   7.771 -0.9949 -0.4566 -0.6230
  384MOL0     O50614   0.181  10.931   7.682  0.3956  0.4152 -0.2296
  384MOL0     C50615   0.088  10.898   7.575  1.7730  0.3025 -1.0254
  384MOL0     C50616  -0.042  10.977   7.607  0.7902 -0.2790  0.5170
  384MOL0     C50617  -0.034  11.124   7.572  0.8078 -0.9701  0.7955
  384MOL0     C50618  -0.088  11.206   7.686 -0.5761  0.0572 -0.5836
  384MOL0     C50619  -0.230  11.221   7.687  0.6108 -0.6599  0.6393
  384MOL0     C50620  -0.352  11.249   7.680  0.3483 -0.5795 -0.0285
  384MOL0     C50621   0.266  10.875   7.900  0.6186 -0.1115  0.7338
  384MOL0     C50622   0.331  10.784   7.987  0.7339  0.3812 -0.1351
  384MOL0     H50623   0.694  10.445   8.170 -0.7235  0.0745  0.5757
  384MOL0     H50624   0.790  10.255   8.239 -1.2884 -1.7039  0.3211
  384MOL0     H50625   0.848  10.078   8.330  1.6621  0.7878 -0.7629
  384MOL0     H50626   0.899  10.044   8.162  0.3598 -0.1197 -0.4839
  384MOL0     H50627   0.998   9.865   8.285  0.4458 -2.2444  0.9815
  384MOL0     H50628   0.853   9.773   8.249 -3.4889  1.5842  0.6461
  384MOL0     H50629   0.731   9.859   8.421 -0.2680 -3.2502 -3.4680
  384MOL0     H50630   0.870   9.922   8.496 -1.7192  1.8945 -2.2625
  384MOL0     H50631   0.835   9.621   8.420 -4.3147 -0.9382  4.4091
  384MOL0     H50632   0.987   9.688   8.479  1.4001  4.0526  1.7784
  384MOL0     H50633   0.855   9.737   8.692 -0.2591 -2.7516  3.4574
  384MOL0     H50634   0.878   9.571   8.650 -1.4256  0.2528  0.9693
  384MOL0     H50635   0.640   9.562   8.550  1.0961  0.7964 -0.9737
  384MOL0     H50636   0.627   9.721   8.623  2.3683  2.4136  0.2989
  384MOL0     H50637   0.731   9.483   8.790  0.4615  0.7942  1.2151
  384MOL0     H50638   0.676   9.643   8.830  2.3558  0.0792  0.3968
  384MOL0     H50639   0.533   9.410   8.689 -0.5216 -0.6982  1.1623
  384MOL0     H50640   0.440   9.545   8.699 -1.4290 -1.5800 -0.5778
  384MOL0     H50641   0.553   9.563   9.052  3.1402 -2.6459 -0.2276
  384MOL0     H50642   0.315   9.387   9.292  0.3584 -1.0124 -0.1029
  384MOL0     H50643   0.447   9.506   9.279  2.2983  0.1152 -1.2588
  384MOL0     H50644   0.475   9.215   9.236  1.0607  1.6466 -2.2697
  384MOL0     H50645   0.494   9.275   9.398  4.3413 -0.2097  0.6411
  384MOL0     H50646   0.676   9.310   9.171  1.2828  1.1511  0.2267
  384MOL0     H50647   0.669   9.450   9.275 -2.2013  0.9519 -0.9941
  384MOL0     H50648   0.847   9.265   9.343 -0.4986  2.7744 -0.7862
  384MOL0     H50649   0.724   9.149   9.351  1.7980 -0.4461 -1.7511
  384MOL0     H50650   0.612   9.455   9.675  0.2673 -2.7856 -3.6947
  384MOL0     H50651   0.679   9.669   9.757 -1.0281  1.8104 -3.2026
  384MOL0     H50652   1.201   9.992   9.600  0.1783  1.6435 -0.0582
  384MOL0     H50653   1.233  10.229   9.659 -0.6370 -3.9640 -1.6460
  384MOL0     H50654   1.127  10.444   9.668  1.4783  0.8127 -0.7146
  384MOL0     H50655   1.257  10.467   9.779 -0.2263 -1.4339  0.9149
  384MOL0     H50656   0.990  10.597   9.793 -0.4136 -1.2826 -1.1191
  384MOL0     H50657   1.145  10.680   9.746 -0.0850  0.4716  1.4041
  384MOL0     H50658   1.235  10.674   9.955  2.3355 -2.7735 -1.0080
  384MOL0     H50659   1.138  10.547  10.024  1.2898  0.2567 -0.2279
  384MOL0     H50660   0.933  10.696  10.014  1.9032 -2.1464  1.6875
  384MOL0     H50661   1.070  10.776  10.096  1.5231 -1.0781  0.2928
  384MOL0     H50662   0.910  10.919   9.968 -0.6538  1.3874 -1.3266
  384MOL0     H50663   0.983  10.835   9.828  1.9742 -3.4190  1.4545
  384MOL0     H50664   1.191  10.907   9.851  1.7955  0.7395 -1.3096
  384MOL0     H50665   1.161  11.012   9.994 -0.4100 -0.8029 -0.4505
  384MOL0     H50666   1.014  11.038   9.723  1.7042  0.2267 -0.8736
  384MOL0     H50667   1.011  11.158   9.868 -1.2624 -1.9429  1.1250
  384MOL0     H50668   1.143  11.249   9.701 -2.6981 -0.9226 -0.5219
  384MOL0     H50669   1.248  11.097   9.700 -0.4502  1.3713 -1.1812
  384MOL0     H50670   0.956  10.209   9.974  2.7380 -1.6644  1.5691
  384MOL0     H50671   0.891   9.977   9.919  0.0324  2.7555  1.9466
  384MOL0     H50672   1.024   9.658   9.502 -0.2355  1.5745 -2.1636
  384MOL0     H50673   0.966   9.431   9.439  0.3910  0.6935 -0.6324
  384MOL0     H50674   0.481  10.014   8.066 -0.2230  0.1663  2.9015
  384MOL0     H50675   0.377  10.223   7.987 -0.9162  1.4515  0.4981
  384MOL0     H50676   0.354  10.527   7.754  3.7856  1.2598 -2.5301
  384MOL0     H50677   0.242  10.686   7.635 -1.0954 -1.9945  0.4974
  384MOL0     H50678   0.067  10.791   7.567  2.2807  0.1419 -0.2841
  384MOL0     H50679   0.121  10.919   7.473 -4.8951  5.6897 -2.8066
  384MOL0     H50680  -0.127  10.938   7.552  0.4807 -0.6067  1.2096
  384MOL0     H50681  -0.073  10.963   7.711 -2.0467 -0.5291 -0.2799
  384MOL0     H50682  -0.101  11.146   7.488  0.7386  3.2727  1.7303
  384MOL0     H50683   0.066  11.158   7.543  1.9133 -2.4538  2.6518
  384MOL0     H50684  -0.053  11.171   7.784 -1.9570 -0.6721 -0.3264
  384MOL0     H50685  -0.035  11.301   7.677  1.9106 -1.2782 -1.0221
  384MOL0     H50686  -0.455  11.276   7.686  1.0150  2.1188  0.7513
  384MOL0     H50687   0.254  10.980   7.924  2.8468  1.1804 -2.9795
  384MOL0     H50688   0.342  10.820   8.089 -1.8344 -3.3357  1.7197
  385MOL0     O50689   8.005  11.232   2.353  0.2507 -0.3699 -0.4645
  385MOL0     C50690   7.950  11.348   2.357  0.8873  0.4232  1.0838
  385MOL0     O50691   7.879  11.393   2.454  0.2734 -0.2898  0.3931
  385MOL0     C50692   7.847  11.311   2.558  0.8460  0.5904  0.4632
  385MOL0     C50693   7.751  11.216   2.544  1.1130 -0.1564  0.3340
  385MOL0     C50694   7.706  11.139   2.650 -0.3370 -0.1720  0.4866
  385MOL0     C50695   7.762  11.143   2.774  0.6956 -0.4699  0.1634
  385MOL0     O50696   7.721  11.056   2.878  0.3517 -0.8804 -0.0930
  385MOL0     C50697   7.755  11.088   3.008 -1.1119  0.5529 -0.1598
  385MOL0     C50698   7.687  10.980   3.086  1.0983  0.6595  0.3052
  385MOL0     C50699   7.674  10.990   3.238  1.0360  0.9573  0.1920
  385MOL0     C50700   7.559  10.909   3.292 -0.7414 -0.0700 -0.4893
  385MOL0     C50701   7.550  10.942   3.443  0.4844 -0.5913 -0.5844
  385MOL0     C50702   7.414  10.898   3.484 -0.4069  0.4405 -0.0587
  385MOL0     C50703   7.389  10.920   3.629  0.3193 -0.3539 -0.2354
  385MOL0     C50704   7.240  10.882   3.659 -0.0828 -0.6349 -0.3026
  385MOL0     N50705   7.161  10.984   3.740  0.3924  0.1595  0.2633
  385MOL0     C50706   7.046  11.051   3.702  0.1713  0.0357 -0.7024
  385MOL0     C50707   7.023  11.139   3.807  0.3372  0.3556 -0.2519
  385MOL0     C50708   6.924  11.256   3.820 -0.3703  0.2514 -0.1363
  385MOL0     C50709   6.918  11.316   3.956  0.0723  0.8870  0.4768
  385MOL0     C50710   6.782  11.335   4.013 -0.5722  0.5556  0.6214
  385MOL0     C50711   6.717  11.204   4.055 -0.6166  0.3363 -0.5610
  385MOL0     O50712   6.580  11.227   4.057 -0.1705 -0.3347  1.1185
  385MOL0     C50713   6.487  11.137   4.109 -0.5869  0.7287  0.0438
  385MOL0     C50714   6.501  11.033   4.194  0.1068 -0.3380  0.2066
  385MOL0     C50715   6.395  10.958   4.254  0.8879  0.6751  0.3013
  385MOL0     C50716   6.264  10.989   4.203  0.5924  0.0839  0.1188
  385MOL0     C50717   6.148  10.921   4.259  0.1505 -0.0866 -0.0725
  385MOL0     O50718   6.031  10.993   4.224 -0.0843  0.6440  0.0132
  385MOL0     C50719   5.914  10.941   4.259  0.0214  0.7193 -0.5272
  385MOL0     C50720   5.816  11.029   4.282  0.4649 -0.8452 -0.2141
  385MOL0     C50721   5.689  10.990   4.307  0.5093  0.1761 -0.2607
  385MOL0     C50722   5.651  10.853   4.323  0.6967 -0.8007 -0.5356
  385MOL0     O50723   5.511  10.825   4.340 -0.6305 -0.5014  1.2767
  385MOL0     C50724   5.478  10.693   4.387  0.3316  0.2157 -0.4052
  385MOL0     C50725   5.342  10.705   4.446 -0.7102  0.1134 -0.7964
  385MOL0     C50726   5.310  10.558   4.488 -0.5408 -1.1284  0.2520
  385MOL0     C50727   5.172  10.561   4.568  0.4419 -0.9539  0.3723
  385MOL0     C50728   5.134  10.424   4.638 -0.3003 -0.1773 -0.2035
  385MOL0     C50729   5.014  10.443   4.743 -0.7080  0.2341 -0.6551
  385MOL0     C50730   4.887  10.452   4.658 -1.2635  0.2181  0.3272
  385MOL0     C50731   4.774  10.494   4.751 -0.3603  0.8027 -0.3127
  385MOL0    Cl50732   4.710  10.344   4.835 -0.0228 -0.3304  0.4619
  385MOL0     C50733   5.758  10.761   4.299  0.3882 -0.1324 -1.0293
  385MOL0     C50734   5.885  10.809   4.265 -0.0713  1.3338 -0.9725
  385MOL0     O50735   6.166  10.845   4.353 -0.0821  0.2457 -0.8295
  385MOL0     C50736   6.244  11.084   4.101  0.5936  0.4831 -0.2150
  385MOL0     C50737   6.358  11.160   4.064 -0.2479 -0.3613 -0.3391
  385MOL0     N50738   7.121  11.107   3.898  0.7118 -0.5761 -0.9851
  385MOL0     N50739   7.207  11.016   3.858 -0.7476 -0.3843  0.0592
  385MOL0     C50740   7.857  11.250   2.795 -0.2025 -0.2190  0.5734
  385MOL0     C50741   7.901  11.330   2.681 -0.1811 -0.0095 -0.3860
  385MOL0     C50742   7.959  11.424   2.227 -0.0374  0.0873  0.5342
  385MOL0     C50743   8.023  11.360   2.119 -0.0309 -0.3829  0.9023
  385MOL0     C50744   8.049  11.429   2.004  0.7104 -0.0095  0.5910
  385MOL0     C50745   8.017  11.560   1.994 -0.6977 -0.4082  0.2441
  385MOL0     O50746   8.044  11.622   1.880 -0.5143 -0.4320 -0.0624
  385MOL0     C50747   8.181  11.663   1.872  0.1766 -0.4164  0.5690
  385MOL0     C50748   8.222  11.661   1.729  0.2180 -0.0510 -0.4401
  385MOL0     C50749   8.185  11.791   1.660 -0.3886  0.2941 -0.5587
  385MOL0     C50750   8.185  11.778   1.506 -0.8459 -0.4386 -0.2041
  385MOL0     C50751   8.131  11.907   1.461  0.8900 -1.1328  0.2198
  385MOL0     C50752   8.074  12.018   1.442  0.6547 -0.0700 -0.4169
  385MOL0     C50753   7.961  11.621   2.103 -0.0227  0.4049  0.1648
  385MOL0     C50754   7.927  11.560   2.221 -0.8009 -0.5225 -0.6544
  385MOL0     H50755   7.701  11.203   2.449  0.6934 -1.2477  0.6866
  385MOL0     H50756   7.619  11.076   2.633 -2.2160  2.7362 -1.6620
  385MOL0     H50757   7.726  11.185   3.048  2.9083  1.2377  1.5455
  385MOL0     H50758   7.864  11.077   3.015 -0.8365  1.7029 -2.0043
  385MOL0     H50759   7.730  10.883   3.062  3.0054  1.2343  1.1996
  385MOL0     H50760   7.584  10.979   3.046  1.0796  1.5306  0.3143
  385MOL0     H50761   7.642  11.092   3.262  0.8278  1.1600 -0.9279
  385MOL0     H50762   7.770  10.965   3.285 -0.4472 -1.4064  2.2154
  385MOL0     H50763   7.468  10.931   3.236 -0.4109 -2.3599 -2.0772
  385MOL0     H50764   7.567  10.801   3.274 -1.6726 -0.5704  1.7727
  385MOL0     H50765   7.557  11.050   3.463  1.0782 -0.4647 -1.4203
  385MOL0     H50766   7.627  10.901   3.508  2.6805  3.7657 -0.0613
  385MOL0     H50767   7.396  10.791   3.472 -2.6040  0.9378 -1.9247
  385MOL0     H50768   7.344  10.958   3.426 -2.4099  0.7394  2.4819
  385MOL0     H50769   7.458  10.857   3.686  2.8392  2.2023 -0.1775
  385MOL0     H50770   7.426  11.019   3.659  1.6388 -1.3337  1.6132
  385MOL0     H50771   7.249  10.794   3.723  0.8766 -1.7541 -1.8953
  385MOL0     H50772   7.181  10.869   3.568  0.6168 -0.2165 -0.8296
  385MOL0     H50773   6.994  11.044   3.607  2.4304 -0.2374 -1.9859
  385MOL0     H50774   6.829  11.212   3.788  1.7061 -3.9805 -1.2950
  385MOL0     H50775   6.940  11.340   3.752 -1.7827  2.6515  2.2977
  385MOL0     H50776   6.968  11.413   3.958  4.1971 -0.9961 -0.3755
  385MOL0     H50777   6.974  11.250   4.022 -1.4429 -1.1964 -0.2134
  385MOL0     H50778   6.788  11.412   4.090 -0.6652  1.3773 -0.1795
  385MOL0     H50779   6.717  11.375   3.935 -0.9195 -3.6612 -1.5297
  385MOL0     H50780   6.750  11.189   4.158 -0.6629  1.5988 -0.3405
  385MOL0     H50781   6.752  11.123   3.991  4.3749  1.7621 -0.1007
  385MOL0     H50782   6.599  11.002   4.228  0.7269  0.0626 -1.1834
  385MOL0     H50783   6.420  10.889   4.334 -0.4417 -0.8857 -0.5647
  385MOL0     H50784   5.840  11.135   4.286 -1.3283 -0.4421  2.2680
  385MOL0     H50785   5.607  11.061   4.310  0.7365  0.4065  1.0471
  385MOL0     H50786   5.550  10.649   4.457  0.2441 -0.5213 -0.7710
  385MOL0     H50787   5.481  10.616   4.309  3.1209 -0.3533  0.1414
  385MOL0     H50788   5.273  10.712   4.361  0.7802  0.8597 -1.9998
  385MOL0     H50789   5.332  10.785   4.520 -1.7387 -0.0515 -0.7313
  385MOL0     H50790   5.398  10.512   4.533 -0.0751  1.5221  2.3445
  385MOL0     H50791   5.288  10.514   4.391 -3.6955 -1.1877  0.8918
  385MOL0     H50792   5.183  10.633   4.649  0.3896 -0.8294  0.2702
  385MOL0     H50793   5.086  10.597   4.509 -1.5722 -1.8784  2.5689
  385MOL0     H50794   5.228  10.388   4.681  0.0709 -0.5380 -1.2670
  385MOL0     H50795   5.113  10.334   4.578 -2.8481  0.4138 -0.2970
  385MOL0     H50796   5.038  10.525   4.811  1.1519 -0.7011 -0.1372
  385MOL0     H50797   5.023  10.351   4.802  0.7091 -0.3672 -1.7460
  385MOL0     H50798   4.923  10.524   4.583  6.4330 -1.4674  1.5768
  385MOL0     H50799   4.874  10.351   4.617  1.7328  0.0066 -0.3747
  385MOL0     H50800   4.698  10.525   4.679 -2.5413 -1.3959  0.9084
  385MOL0     H50801   4.804  10.578   4.814  2.0494  1.7006 -2.4712
  385MOL0     H50802   5.746  10.656   4.325  1.0340  0.7891  3.9284
  385MOL0     H50803   5.966  10.739   4.246  1.9721  3.6312 -1.2676
  385MOL0     H50804   6.147  11.109   4.059  1.0749  0.0360 -1.6420
  385MOL0     H50805   6.344  11.230   3.981 -1.3074 -3.5942 -3.1061
  385MOL0     H50806   7.910  11.256   2.890 -2.2209 -2.9240  2.0211
  385MOL0     H50807   7.982  11.400   2.700  0.6294 -1.4841  2.0021
  385MOL0     H50808   8.044  11.254   2.118 -4.0455 -1.4407  4.0951
  385MOL0     H50809   8.079  11.373   1.915 -2.6207  4.3387 -3.8783
  385MOL0     H50810   8.246  11.596   1.930 -0.4447 -0.2790  1.4554
  385MOL0     H50811   8.192  11.767   1.905 -0.0756  0.6957 -2.5464
  385MOL0     H50812   8.329  11.637   1.740 -0.7963 -4.2741  3.2540
  385MOL0     H50813   8.178  11.573   1.681 -0.1556 -0.4149  0.5489
  385MOL0     H50814   8.251  11.875   1.688 -1.2288  1.4842 -2.0163
  385MOL0     H50815   8.084  11.805   1.698  1.4369  2.6722  4.3637
  385MOL0     H50816   8.288  11.758   1.476 -1.1216 -2.2664 -0.0324
  385MOL0     H50817   8.131  11.695   1.461  1.3913 -1.9802 -0.1620
  385MOL0     H50818   8.039  12.112   1.403  2.8428 -0.8630 -5.0894
  385MOL0     H50819   7.935  11.726   2.104 -4.2389 -0.4353 -0.5830
  385MOL0     H50820   7.886  11.604   2.311  1.7099 -2.6730  1.7390
  386MOL0     O50821   6.904   6.903   3.602  0.2514  0.2038  0.4159
  386MOL0     C50822   6.810   6.819   3.609 -1.0121 -0.2375  0.1127
  386MOL0     O50823   6.816   6.702   3.554 -0.3560  0.3545 -0.4149
  386MOL0     C50824   6.873   6.686   3.430  0.5547 -0.3674  0.4795
  386MOL0     C50825   6.924   6.554   3.390 -0.6776  0.4949 -0.1832
  386MOL0     C50826   6.973   6.539   3.262 -0.5723 -0.0686  0.0653
  386MOL0     C50827   6.983   6.636   3.165  1.1684  0.0895 -0.2571
  386MOL0     O50828   7.024   6.625   3.032 -0.4678  0.2842 -0.1665
  386MOL0     C50829   7.165   6.661   3.017 -0.5731 -0.6629 -0.1059
  386MOL0     C50830   7.185   6.756   2.894  0.1836 -0.1128 -0.7064
  386MOL0     C50831   7.153   6.692   2.753 -1.0464  0.1216  0.0029
  386MOL0     C50832   7.190   6.794   2.640 -0.2478  0.1036 -0.7074
  386MOL0     C50833   7.195   6.745   2.503  0.4139  0.1893 -0.4128
  386MOL0     C50834   7.224   6.864   2.408  0.4127 -0.8883  0.7579
  386MOL0     C50835   7.251   6.809   2.270  0.2403  0.5623  0.0096
  386MOL0     C50836   7.242   6.910   2.159  0.1209 -0.5370  0.5443
  386MOL0     N50837   7.101   6.945   2.150  0.1538  0.5829  0.0337
  386MOL0     C50838   7.036   7.037   2.221  0.0321 -0.0294 -0.2749
  386MOL0     C50839   6.912   6.999   2.207  0.1702  0.7262 -0.4478
  386MOL0     C50840   6.781   7.054   2.271  1.7177  0.0745 -0.0021
  386MOL0     C50841   6.780   7.066   2.431  0.0678 -0.4733 -0.4812
  386MOL0     C50842   6.811   6.943   2.519  0.2464  0.0707  0.9492
  386MOL0     C50843   6.703   6.842   2.507  0.6132  0.3413 -0.3380
  386MOL0     O50844   6.735   6.725   2.590  0.8510  0.1004 -0.0489
  386MOL0     C50845   6.669   6.720   2.713  0.3345 -0.2757  0.1238
  386MOL0     C50846   6.533   6.674   2.703  0.1240  0.3678 -0.8729
  386MOL0     C50847   6.467   6.648   2.833 -0.0246 -0.3442  0.4946
  386MOL0     C50848   6.544   6.654   2.957 -0.1700  0.3962  0.6581
  386MOL0     C50849   6.476   6.635   3.080  0.9473 -0.7414  0.4219
  386MOL0     O50850   6.557   6.587   3.187 -0.4198 -0.2069  0.6946
  386MOL0     C50851   6.493   6.577   3.309  0.0129  0.1984 -0.6100
  386MOL0     C50852   6.492   6.687   3.389  0.2069 -0.0745 -0.6066
  386MOL0     C50853   6.422   6.686   3.506 -0.0285 -0.3135  0.4068
  386MOL0     C50854   6.333   6.588   3.535  0.2543 -0.0411 -0.0329
  386MOL0     O50855   6.262   6.589   3.660 -0.7253  0.9175 -0.5060
  386MOL0     C50856   6.135   6.533   3.650  1.1109  0.0228  1.4423
  386MOL0     C50857   6.068   6.575   3.782  0.0613 -0.4060  0.6076
  386MOL0     C50858   6.081   6.723   3.819  0.2353  0.3430  0.4007
  386MOL0     C50859   6.043   6.727   3.970  0.5781  0.5819  0.4271
  386MOL0     C50860   6.023   6.871   4.017 -0.0400  0.5915 -0.3409
  386MOL0     C50861   5.961   6.872   4.151  0.5791  0.0031 -0.2593
  386MOL0     C50862   5.927   7.012   4.204  0.1015  0.0307 -0.3073
  386MOL0     C50863   5.886   7.001   4.347 -0.3020  0.2933  0.4995
  386MOL0    Cl50864   5.850   7.170   4.388  0.0528 -0.2760 -0.4037
  386MOL0     C50865   6.332   6.474   3.457 -0.6247 -0.2376  0.7362
  386MOL0     C50866   6.415   6.466   3.345 -0.1750  0.4533 -0.0599
  386MOL0     O50867   6.349   6.654   3.086  0.4731 -0.1295  0.5415
  386MOL0     C50868   6.680   6.698   2.961  0.5831  0.2392  0.4168
  386MOL0     C50869   6.735   6.725   2.836  0.0858 -1.4933 -0.5833
  386MOL0     N50870   6.900   6.885   2.126 -0.3191  0.4166 -0.0382
  386MOL0     N50871   7.020   6.851   2.096 -0.5483  0.5495  0.2791
  386MOL0     C50872   6.938   6.765   3.203  0.5645 -0.1649 -0.3626
  386MOL0     C50873   6.888   6.788   3.338  0.0261 -0.3719 -0.2801
  386MOL0     C50874   6.692   6.851   3.683  0.2912  0.3707 -0.2163
  386MOL0     C50875   6.654   6.976   3.682  0.5382 -0.7241 -1.1297
  386MOL0     C50876   6.554   7.030   3.768 -0.2880  0.7827 -0.0182
  386MOL0     C50877   6.480   6.933   3.841  0.3656 -0.4036 -0.0856
  386MOL0     O50878   6.379   6.965   3.927  0.7877 -0.1951  0.2535
  386MOL0     C50879   6.339   7.099   3.957 -0.2278 -0.6806  0.2160
  386MOL0     C50880   6.244   7.147   3.848 -0.8990  0.0572 -1.0761
  386MOL0     C50881   6.141   7.238   3.915  0.2553 -0.1141 -0.2182
  386MOL0     C50882   6.202   7.369   3.977  0.2753  0.0576  0.5518
  386MOL0     C50883   6.105   7.426   4.063  0.3776 -0.2787  0.3014
  386MOL0     C50884   6.018   7.469   4.128 -0.4180 -0.0118  0.0487
  386MOL0     C50885   6.519   6.803   3.839 -0.2723  0.6312 -0.6398
  386MOL0     C50886   6.629   6.765   3.772 -0.6002 -0.6981  0.0822
  386MOL0     H50887   6.940   6.471   3.458 -0.8369  1.7540  1.4510
  386MOL0     H50888   7.016   6.444   3.231 -1.0993 -0.1896 -0.3012
  386MOL0     H50889   7.221   6.569   2.997  2.1249  0.7808  0.3781
  386MOL0     H50890   7.201   6.717   3.103 -2.0075 -0.9105  0.6970
  386MOL0     H50891   7.293   6.774   2.893  1.4110 -5.7308  0.4791
  386MOL0     H50892   7.139   6.853   2.914  1.6181  0.0098  2.7731
  386MOL0     H50893   7.050   6.660   2.737 -0.6737 -2.1977  1.7327
  386MOL0     H50894   7.203   6.596   2.738  0.7764  1.2161 -1.2700
  386MOL0     H50895   7.122   6.880   2.636 -0.7824 -0.3644 -2.3153
  386MOL0     H50896   7.286   6.839   2.666 -0.6979  0.4643  0.4108
  386MOL0     H50897   7.095   6.705   2.486  0.2174  0.0274  1.0363
  386MOL0     H50898   7.270   6.666   2.488 -2.4263 -2.8798  0.4055
  386MOL0     H50899   7.322   6.894   2.446 -0.3278 -0.4084  2.4050
  386MOL0     H50900   7.149   6.944   2.413 -0.6989 -1.9644  2.5933
  386MOL0     H50901   7.355   6.776   2.268  0.2989  0.5039 -4.0926
  386MOL0     H50902   7.180   6.727   2.253  0.3961  0.6811 -1.2913
  386MOL0     H50903   7.285   6.881   2.063  0.5196  1.0131  0.2270
  386MOL0     H50904   7.290   7.005   2.186 -2.1319  0.8616 -0.1142
  386MOL0     H50905   7.093   7.107   2.281  2.1161 -1.3814 -0.5459
  386MOL0     H50906   6.700   6.988   2.238 -1.3210  4.1268 -1.6028
  386MOL0     H50907   6.751   7.149   2.225  1.9040  0.1844  0.0999
  386MOL0     H50908   6.685   7.105   2.469 -1.6024 -2.6805 -2.1246
  386MOL0     H50909   6.864   7.131   2.457  1.5968 -2.5504  0.0275
  386MOL0     H50910   6.900   6.890   2.482 -0.4008  0.2204 -0.9691
  386MOL0     H50911   6.814   6.960   2.627 -1.3022  0.3283  0.9747
  386MOL0     H50912   6.692   6.806   2.405  2.0539 -0.0542 -0.3740
  386MOL0     H50913   6.603   6.884   2.524  0.7030  0.8561 -1.0601
  386MOL0     H50914   6.496   6.661   2.602  1.5821 -0.8711 -1.2841
  386MOL0     H50915   6.359   6.639   2.835 -0.4106  2.7063 -0.8275
  386MOL0     H50916   6.549   6.776   3.364  2.2865 -0.9352  0.8116
  386MOL0     H50917   6.439   6.783   3.551  1.6852  0.4914 -1.8112
  386MOL0     H50918   6.135   6.423   3.649 -0.9420 -0.0378 -0.6500
  386MOL0     H50919   6.080   6.579   3.567 -2.5115 -0.5800  3.2949
  386MOL0     H50920   6.132   6.520   3.852 -0.2012 -2.3673 -0.5939
  386MOL0     H50921   5.964   6.542   3.784  1.2610 -5.0339  0.0810
  386MOL0     H50922   6.002   6.776   3.765 -1.8105  0.1355  3.0013
  386MOL0     H50923   6.180   6.767   3.802  0.5326 -0.0487  1.0718
  386MOL0     H50924   5.950   6.669   3.971  1.4298 -1.0030 -1.7894
  386MOL0     H50925   6.117   6.668   4.026  2.4797  2.0366 -0.4191
  386MOL0     H50926   5.957   6.928   3.951 -0.5459  0.4264  0.0169
  386MOL0     H50927   6.113   6.932   4.030 -0.7586  1.5107  0.4869
  386MOL0     H50928   6.032   6.834   4.225 -0.6168 -2.7471 -0.4139
  386MOL0     H50929   5.873   6.806   4.148  1.0313 -0.5967 -0.5715
  386MOL0     H50930   6.015   7.076   4.192 -0.2082  0.6783  0.7145
  386MOL0     H50931   5.857   7.055   4.133  0.9556 -0.6508 -1.6069
  386MOL0     H50932   5.965   6.950   4.404  1.0256 -0.0881 -1.5663
  386MOL0     H50933   5.802   6.931   4.345 -0.4403  0.4152 -2.5695
  386MOL0     H50934   6.277   6.387   3.490 -0.8629  0.0314  1.0648
  386MOL0     H50935   6.413   6.371   3.293 -2.6143 -1.0703  2.5179
  386MOL0     H50936   6.731   6.700   3.057  0.8179  0.9362  0.2785
  386MOL0     H50937   6.844   6.727   2.834  0.2647 -3.0772  2.0638
  386MOL0     H50938   6.946   6.846   3.131 -1.0894  2.7935  2.5162
  386MOL0     H50939   6.847   6.885   3.363  0.1627 -0.1446 -0.9203
  386MOL0     H50940   6.699   7.041   3.608  0.5155 -0.9502 -1.3436
  386MOL0     H50941   6.510   7.130   3.771  0.8653  1.2788  1.6089
  386MOL0     H50942   6.429   7.159   3.969  0.5784 -1.0982 -2.8688
  386MOL0     H50943   6.293   7.093   4.056  2.0086  1.6729  1.4983
  386MOL0     H50944   6.306   7.194   3.771  1.3400  1.5715  1.4914
  386MOL0     H50945   6.192   7.058   3.812 -0.3438 -1.3712  1.4447
  386MOL0     H50946   6.088   7.184   3.994 -0.6000  1.4178  0.2998
  386MOL0     H50947   6.064   7.265   3.843 -0.3332  1.0003  0.7959
  386MOL0     H50948   6.286   7.348   4.045  0.1136 -1.8799  0.1994
  386MOL0     H50949   6.230   7.439   3.898  2.7399 -0.2198  1.0697
  386MOL0     H50950   5.932   7.485   4.191 -0.0957 -2.9903  1.4507
  386MOL0     H50951   6.462   6.739   3.905  0.6374  1.2668  0.8297
  386MOL0     H50952   6.659   6.662   3.787  1.9387  0.0549  0.6251
  387MOL0     O50953   8.818   5.963  10.638  0.3945 -0.1831 -0.4403
  387MOL0     C50954   8.855   5.914  10.743 -0.3827  0.7797 -0.6335
  387MOL0     O50955   8.772   5.846  10.839  0.6029 -0.8473 -0.3107
  387MOL0     C50956   8.641   5.844  10.807  0.1658  0.7521 -0.1342
  387MOL0     C50957   8.540   5.902  10.877 -0.7935 -0.0070  0.4901
  387MOL0     C50958   8.411   5.920  10.820 -0.9684  0.1512  0.5212
  387MOL0     C50959   8.377   5.870  10.689 -0.2956  1.5552 -0.4742
  387MOL0     O50960   8.258   5.875  10.625  0.2375 -0.1411  0.1358
  387MOL0     C50961   8.138   5.907  10.696  0.9092 -0.1737  0.0543
  387MOL0     C50962   8.020   5.828  10.635 -0.0071  0.5741 -0.5113
  387MOL0     C50963   7.939   5.908  10.532  0.0314  0.4511 -0.6465
  387MOL0     C50964   7.825   5.827  10.468  0.0681  0.5174 -0.2249
  387MOL0     C50965   7.754   5.912  10.367 -0.2269 -0.1182  0.3779
  387MOL0     C50966   7.649   5.852  10.295 -1.1823  0.5379  0.1549
  387MOL0     C50967   7.611   5.946  10.189  0.5516 -0.3185 -0.2205
  387MOL0     C50968   7.485   5.918  10.114 -0.5214  0.4489 -0.1241
  387MOL0     N50969   7.463   6.023  10.006 -0.2202  0.1804 -0.3852
  387MOL0     C50970   7.455   6.159  10.034  0.9184  0.6704 -0.4584
  387MOL0     C50971   7.440   6.211   9.910  0.3924 -0.4190 -0.0914
  387MOL0     C50972   7.440   6.358   9.871 -0.1052 -0.4864  0.0990
  387MOL0     C50973   7.297   6.411   9.837  0.2669  0.1902  0.1941
  387MOL0     C50974   7.226   6.463   9.951  0.1280  0.2626  0.1794
  387MOL0     C50975   7.098   6.538   9.907  0.4740  0.0035 -0.8756
  387MOL0     O50976   7.041   6.584  10.037  0.4101  0.0404 -0.2370
  387MOL0     C50977   6.987   6.707  10.031 -0.1526  0.4752  0.3951
  387MOL0     C50978   7.063   6.825  10.040 -0.2480  1.0194 -0.2921
  387MOL0     C50979   7.008   6.947  10.015  0.4852 -0.2582 -1.1677
  387MOL0     C50980   6.870   6.964   9.998  0.0106  0.4920  1.3440
  387MOL0     C50981   6.814   7.104   9.974 -0.6479  0.0174 -0.2438
  387MOL0     O50982   6.908   7.206   9.960 -0.3311  0.0799  0.9188
  387MOL0     C50983   6.873   7.337   9.943  0.0188 -0.1966  0.5422
  387MOL0     C50984   6.754   7.397   9.993 -0.7890  0.4763  0.9277
  387MOL0     C50985   6.732   7.533   9.951 -0.2270  0.5812  0.8046
  387MOL0     C50986   6.828   7.604   9.879  0.6902 -1.1849 -0.1236
  387MOL0     O50987   6.811   7.737   9.846 -0.1167  0.7873  0.5085
  387MOL0     C50988   6.689   7.818   9.859 -0.4415 -1.3423  0.3711
  387MOL0     C50989   6.720   7.973   9.837 -1.0927 -0.0339 -0.2722
  387MOL0     C50990   6.748   8.021   9.697 -0.7379  0.4638 -0.6809
  387MOL0     C50991   6.673   7.940   9.585  0.4150 -0.8112 -0.2307
  387MOL0     C50992   6.521   7.963   9.572 -0.5939  0.2789 -0.2882
  387MOL0     C50993   6.480   8.109   9.563 -0.4114 -0.2647  0.0096
  387MOL0     C50994   6.347   8.140   9.510 -0.7063  0.0477  0.2867
  387MOL0     C50995   6.326   8.086   9.364 -0.6034  0.2355 -0.1593
  387MOL0    Cl50996   6.200   8.167   9.276  0.6047 -0.0605  0.3222
  387MOL0     C50997   6.946   7.543   9.848 -0.0423  0.2472  0.9167
  387MOL0     C50998   6.969   7.408   9.877 -1.6581 -0.2477 -0.1678
  387MOL0     O50999   6.693   7.112   9.956  1.0384  0.2483 -0.2018
  387MOL0     C51000   6.793   6.842   9.980  0.2374 -0.0496 -0.7346
  387MOL0     C51001   6.850   6.722  10.002 -0.6782 -1.0192  0.6509
  387MOL0     N51002   7.438   6.107   9.813  0.4004  0.5069  0.0673
  387MOL0     N51003   7.443   5.988   9.871  0.7448 -0.4150 -0.3202
  387MOL0     C51004   8.475   5.810  10.625 -0.0757  0.4128  0.7288
  387MOL0     C51005   8.606   5.791  10.683 -0.4418 -0.0715  0.5703
  387MOL0     C51006   8.994   5.914  10.752 -0.0620  0.1594  0.0350
  387MOL0     C51007   9.050   5.898  10.886  0.3910 -0.2386 -0.0188
  387MOL0     C51008   9.196   5.899  10.893 -0.0269 -0.0212 -0.0167
  387MOL0     C51009   9.279   5.888  10.776 -0.2190 -0.9877 -1.3462
  387MOL0     O51010   9.415   5.889  10.799 -0.2823  0.1624  0.3145
  387MOL0     C51011   9.486   5.767  10.768 -0.5545  0.4686 -0.5502
  387MOL0     C51012   9.631   5.768  10.818 -1.0257 -0.4456  0.7790
  387MOL0     C51013   9.649   5.734  10.965 -0.0098  1.0767 -0.8206
  387MOL0     C51014   9.663   5.583  11.001  0.0042 -0.0418  0.0149
  387MOL0     C51015   9.660   5.564  11.148 -0.3230 -0.7629  0.1658
  387MOL0     C51016   9.670   5.589  11.262  0.0779 -0.7986 -0.0272
  387MOL0     C51017   9.221   5.902  10.652 -0.5921  0.6465  0.3979
  387MOL0     C51018   9.080   5.914  10.640  0.5402  0.1396 -0.5299
  387MOL0     H51019   8.574   5.931  10.976  2.6541  1.2707 -0.9265
  387MOL0     H51020   8.335   5.971  10.878 -0.5349  0.6376  0.6652
  387MOL0     H51021   8.120   6.015  10.699  1.3549 -0.0946  2.8978
  387MOL0     H51022   8.148   5.875  10.800  1.0222 -0.7694 -0.1348
  387MOL0     H51023   7.953   5.791  10.713  1.0131  1.0647  0.6220
  387MOL0     H51024   8.060   5.741  10.582 -1.5546  0.4568 -1.5707
  387MOL0     H51025   8.007   5.951  10.458 -0.6556  1.6277 -0.6236
  387MOL0     H51026   7.895   5.984  10.598  3.4351  1.4224  0.7289
  387MOL0     H51027   7.870   5.741  10.418  3.6589  0.1793  3.1326
  387MOL0     H51028   7.756   5.777  10.536 -0.0087 -1.5796 -1.7348
  387MOL0     H51029   7.829   5.959  10.303  0.6369  2.8993  3.3362
  387MOL0     H51030   7.716   5.995  10.426 -0.5971 -0.7507  1.0468
  387MOL0     H51031   7.565   5.834  10.363 -0.0957  2.3081  2.0827
  387MOL0     H51032   7.667   5.755  10.248  1.0390  0.5866  0.7899
  387MOL0     H51033   7.595   6.046  10.230  1.0946 -0.4957  0.4491
  387MOL0     H51034   7.683   5.938  10.108  0.1563 -1.1509 -0.5014
  387MOL0     H51035   7.410   5.899  10.191  2.1441 -0.4662  2.4260
  387MOL0     H51036   7.499   5.825  10.058 -1.5522  1.0576 -1.4574
  387MOL0     H51037   7.468   6.201  10.133 -1.5634  1.5322 -0.4446
  387MOL0     H51038   7.498   6.379   9.781 -4.6819  0.3006 -3.0187
  387MOL0     H51039   7.478   6.432   9.942 -4.6597  3.7367 -1.2536
  387MOL0     H51040   7.239   6.333   9.787 -1.9868  0.9010  1.5635
  387MOL0     H51041   7.300   6.495   9.768 -0.8093 -0.8226 -1.1322
  387MOL0     H51042   7.195   6.371  10.002 -2.7068 -0.5882 -2.7904
  387MOL0     H51043   7.290   6.528  10.011 -0.5025  0.4985  0.6042
  387MOL0     H51044   7.023   6.481   9.851  0.8127 -1.2502 -0.0736
  387MOL0     H51045   7.124   6.624   9.845  2.1969  0.1242 -0.0565
  387MOL0     H51046   7.166   6.800  10.066 -1.0863 -1.8573  0.6056
  387MOL0     H51047   7.059   7.042  10.027  0.9905 -0.4373 -1.8256
  387MOL0     H51048   6.694   7.341  10.064  3.1400 -2.1265  2.5546
  387MOL0     H51049   6.636   7.579   9.971 -2.0447 -1.8600 -1.4531
  387MOL0     H51050   6.645   7.814   9.959  0.9131 -1.6396  0.9868
  387MOL0     H51051   6.621   7.786   9.780  0.7396 -0.5558 -1.0320
  387MOL0     H51052   6.803   8.004   9.901  1.1986 -0.1616 -2.9678
  387MOL0     H51053   6.630   8.022   9.875 -0.4568  0.8252  0.1610
  387MOL0     H51054   6.857   8.020   9.682 -0.6660  3.5958 -1.0272
  387MOL0     H51055   6.725   8.126   9.680  2.3235  0.5900 -8.2965
  387MOL0     H51056   6.706   7.967   9.484 -0.0777 -1.1247 -0.4854
  387MOL0     H51057   6.685   7.831   9.579 -2.5698 -1.1623 -3.4186
  387MOL0     H51058   6.458   7.916   9.648  1.0884 -0.4112  0.7160
  387MOL0     H51059   6.487   7.904   9.486 -0.1066 -0.7113  0.1868
  387MOL0     H51060   6.556   8.167   9.510  1.7349 -0.6578  2.4700
  387MOL0     H51061   6.492   8.153   9.662  2.5738 -3.4485  1.2546
  387MOL0     H51062   6.259   8.102   9.563 -1.0445  1.0572  0.4726
  387MOL0     H51063   6.347   8.248   9.498  2.8540  0.1074 -0.4096
  387MOL0     H51064   6.309   7.979   9.356 -1.6016  0.4373 -0.8193
  387MOL0     H51065   6.417   8.105   9.307 -0.1610 -2.2782 -0.3693
  387MOL0     H51066   7.011   7.594   9.777 -0.0095  0.2022  0.9142
  387MOL0     H51067   7.053   7.351   9.839 -1.3691  1.0156 -1.5001
  387MOL0     H51068   6.688   6.844   9.955  0.3335  0.8298 -1.1172
  387MOL0     H51069   6.802   6.625   9.995 -2.2056 -0.2368 -0.2956
  387MOL0     H51070   8.454   5.764  10.529  4.4498  3.2654 -1.9947
  387MOL0     H51071   8.681   5.747  10.618 -0.0652  2.3504 -0.7499
  387MOL0     H51072   8.993   5.906  10.978  0.0175  1.7314 -0.3632
  387MOL0     H51073   9.253   5.901  10.985  1.5119  2.0531 -0.9553
  387MOL0     H51074   9.484   5.741  10.662  0.1909 -3.0145  0.1568
  387MOL0     H51075   9.446   5.678  10.817  1.5201  0.0206  0.4560
  387MOL0     H51076   9.679   5.686  10.764 -0.5579 -0.5524  1.3491
  387MOL0     H51077   9.687   5.861  10.805 -2.2718  0.3807  1.1440
  387MOL0     H51078   9.567   5.781  11.021  0.2600  1.1354 -0.4682
  387MOL0     H51079   9.724   5.798  11.012 -0.1662  1.4648 -1.0884
  387MOL0     H51080   9.575   5.528  10.969 -2.7008  3.3464  1.0524
  387MOL0     H51081   9.754   5.548  10.952 -2.0672 -1.1052 -3.3732
  387MOL0     H51082   9.685   5.587  11.369  0.2517 -5.2831  0.0490
  387MOL0     H51083   9.280   5.901  10.561  1.9248 -0.9872  1.9028
  387MOL0     H51084   9.053   5.927  10.536 -1.3489  3.2359  0.2347
  388MOL0     O51085   7.257   9.150   1.049 -0.0491  0.0394 -1.0155
  388MOL0     C51086   7.242   9.146   0.929 -0.5344 -0.0745  0.4253
  388MOL0     O51087   7.161   9.058   0.863 -0.5848 -0.1273  0.2117
  388MOL0     C51088   7.119   8.942   0.931 -1.0492 -0.3989  0.3528
  388MOL0     C51089   7.002   8.879   0.886 -0.5071 -0.7597  1.5476
  388MOL0     C51090   6.944   8.762   0.932 -0.1199 -0.3268 -0.1790
  388MOL0     C51091   7.009   8.701   1.046 -0.8114  0.5384  0.1611
  388MOL0     O51092   6.935   8.595   1.088 -0.1530 -0.2049  0.2090
  388MOL0     C51093   6.810   8.629   1.153  0.3489  0.0320 -0.4071
  388MOL0     C51094   6.734   8.507   1.173 -0.1191 -0.1277 -0.1877
  388MOL0     C51095   6.584   8.514   1.193  0.3895 -0.0215 -0.3205
  388MOL0     C51096   6.493   8.397   1.240  0.4413  0.0397 -0.2634
  388MOL0     C51097   6.356   8.436   1.288  0.2595  0.1936  0.5570
  388MOL0     C51098   6.254   8.333   1.286 -0.0683  0.2457 -0.1482
  388MOL0     C51099   6.312   8.185   1.311  1.1603 -0.1511  0.2389
  388MOL0     C51100   6.199   8.084   1.316  0.4388  0.4709 -0.3693
  388MOL0     N51101   6.241   7.940   1.292  0.2362 -0.8083  0.4305
  388MOL0     C51102   6.284   7.865   1.184 -0.0148 -0.5529 -0.2018
  388MOL0     C51103   6.269   7.737   1.232  0.2170  0.1214  0.6748
  388MOL0     C51104   6.279   7.622   1.150  0.1961  0.0332 -0.4455
  388MOL0     C51105   6.350   7.497   1.218 -0.0926  0.6873 -0.3772
  388MOL0     C51106   6.497   7.533   1.259 -0.1926 -0.3169 -1.3113
  388MOL0     C51107   6.578   7.411   1.335  0.8624 -0.3245  0.1076
  388MOL0     O51108   6.684   7.457   1.404  0.2683 -0.2498 -0.5831
  388MOL0     C51109   6.799   7.481   1.341 -0.6079  0.9214  0.4173
  388MOL0     C51110   6.897   7.523   1.428 -0.6109 -0.2501 -0.5438
  388MOL0     C51111   7.014   7.579   1.381 -0.5146  0.1511 -0.1660
  388MOL0     C51112   7.040   7.576   1.240 -0.3913  0.8443 -0.1374
  388MOL0     C51113   7.164   7.628   1.189  0.2671 -1.0214 -0.4848
  388MOL0     O51114   7.202   7.759   1.227  0.4769 -0.2547  0.4376
  388MOL0     C51115   7.313   7.816   1.176 -0.3310  0.2950 -0.0337
  388MOL0     C51116   7.439   7.752   1.161  0.1703  0.8795  0.0064
  388MOL0     C51117   7.546   7.823   1.126 -0.6028 -0.2734 -0.1872
  388MOL0     C51118   7.549   7.955   1.090  0.5665  0.6850  0.6359
  388MOL0     O51119   7.667   8.016   1.048  0.4326  0.4602 -0.4522
  388MOL0     C51120   7.647   8.162   1.041 -0.6188 -0.1689 -0.3036
  388MOL0     C51121   7.776   8.224   0.991  0.2232  1.0047 -0.3376
  388MOL0     C51122   7.783   8.231   0.840  0.7763  0.1636 -0.8043
  388MOL0     C51123   7.919   8.273   0.783 -0.2860  0.0592  0.3054
  388MOL0     C51124   7.940   8.425   0.810  0.7829  0.5442  0.1972
  388MOL0     C51125   8.018   8.484   0.695 -0.6841 -0.4402  0.0963
  388MOL0     C51126   8.056   8.629   0.725 -0.3538  0.1595 -0.0467
  388MOL0     C51127   7.942   8.731   0.716 -0.2073 -0.2859 -1.0264
  388MOL0    Cl51128   7.927   8.807   0.555 -0.4745  0.5636  0.0904
  388MOL0     C51129   7.426   8.022   1.098  0.8836  0.0338 -0.3667
  388MOL0     C51130   7.307   7.953   1.144 -0.2972  0.5801 -0.4026
  388MOL0     O51131   7.224   7.550   1.118 -0.1673  0.0542  0.3134
  388MOL0     C51132   6.954   7.517   1.154  1.0409 -0.1320 -0.1752
  388MOL0     C51133   6.824   7.477   1.195  0.7393  0.9579 -0.6441
  388MOL0     N51134   6.250   7.742   1.365 -0.3554 -0.8323 -0.1960
  388MOL0     N51135   6.230   7.858   1.400  0.4248 -0.7276 -0.1534
  388MOL0     C51136   7.127   8.754   1.106 -0.6280 -0.0602  0.7096
  388MOL0     C51137   7.180   8.866   1.034  0.2190 -0.5299  0.1821
  388MOL0     C51138   7.327   9.248   0.852  0.1311  0.4739  0.1916
  388MOL0     C51139   7.300   9.255   0.710 -0.3530  1.2939 -1.0006
  388MOL0     C51140   7.380   9.344   0.627 -1.3815  0.3938 -0.3200
  388MOL0     C51141   7.477   9.425   0.693 -0.1663  0.7227  0.0081
  388MOL0     O51142   7.539   9.521   0.621 -0.7390 -0.0391  0.2442
  388MOL0     C51143   7.654   9.594   0.663  0.3891 -0.4303 -0.2770
  388MOL0     C51144   7.683   9.705   0.557 -0.1243 -0.0555  0.3520
  388MOL0     C51145   7.683   9.655   0.417  0.4084 -0.7548  0.2541
  388MOL0     C51146   7.719   9.765   0.309  0.1044  0.1088 -1.0537
  388MOL0     C51147   7.769   9.700   0.185  0.1233 -0.4595 -0.2373
  388MOL0     C51148   7.805   9.658   0.076 -0.9970 -0.2009  0.3884
  388MOL0     C51149   7.491   9.425   0.837  0.5564  0.1921 -0.0460
  388MOL0     C51150   7.412   9.343   0.920 -1.2442  0.7378  0.0661
  388MOL0     H51151   6.955   8.927   0.800 -0.1503 -2.4188  0.3739
  388MOL0     H51152   6.856   8.724   0.882  0.5010 -0.7450 -0.9669
  388MOL0     H51153   6.752   8.704   1.098 -1.7533  1.7396  3.7349
  388MOL0     H51154   6.818   8.689   1.243 -4.3751  4.2417 -2.2969
  388MOL0     H51155   6.783   8.451   1.253  1.4369  0.1277 -0.9233
  388MOL0     H51156   6.753   8.451   1.081  0.4559 -0.5537  0.1823
  388MOL0     H51157   6.545   8.563   1.104 -1.6376  0.8291  0.9615
  388MOL0     H51158   6.563   8.595   1.264 -0.8951  0.0455 -0.7522
  388MOL0     H51159   6.482   8.332   1.153  0.9559  2.4310 -2.2237
  388MOL0     H51160   6.542   8.339   1.319 -0.7743  0.0276  0.5155
  388MOL0     H51161   6.321   8.526   1.237  1.1644  0.3178  0.1229
  388MOL0     H51162   6.364   8.476   1.390  1.8837  0.6567  0.2832
  388MOL0     H51163   6.201   8.331   1.191 -2.4854 -1.8080  1.1268
  388MOL0     H51164   6.192   8.351   1.375  3.8187  0.0762  2.8464
  388MOL0     H51165   6.373   8.159   1.223 -2.4508  3.0697 -3.6492
  388MOL0     H51166   6.370   8.181   1.403 -0.7853 -0.3774  1.5079
  388MOL0     H51167   6.129   8.097   1.234 -1.2214 -1.5182  0.6427
  388MOL0     H51168   6.141   8.104   1.407  3.2116 -0.8778  1.8543
  388MOL0     H51169   6.284   7.894   1.079  2.5301  2.2817  0.4261
  388MOL0     H51170   6.337   7.640   1.060 -1.1543 -0.0809 -1.3720
  388MOL0     H51171   6.177   7.599   1.117  1.0799 -1.7554 -2.0983
  388MOL0     H51172   6.362   7.414   1.148 -2.1701 -1.7019  1.8876
  388MOL0     H51173   6.290   7.458   1.300 -0.4496 -3.0416 -2.2353
  388MOL0     H51174   6.542   7.574   1.168  1.4474 -1.0233 -0.8538
  388MOL0     H51175   6.500   7.607   1.340 -0.1114 -1.7867  0.0782
  388MOL0     H51176   6.609   7.329   1.269 -1.0385 -0.9314 -0.1071
  388MOL0     H51177   6.507   7.366   1.405  1.3030 -1.2134  0.0011
  388MOL0     H51178   6.874   7.515   1.534 -2.0119 -2.9335 -0.9716
  388MOL0     H51179   7.081   7.632   1.448  1.0871  0.2959 -1.7849
  388MOL0     H51180   7.440   7.650   1.197 -0.5600  1.3057  1.3010
  388MOL0     H51181   7.649   7.788   1.126 -0.4914  0.0498  0.2068
  388MOL0     H51182   7.627   8.203   1.140  3.2761  1.1637  0.0937
  388MOL0     H51183   7.579   8.188   0.960  1.2940  0.0225 -1.9335
  388MOL0     H51184   7.857   8.163   1.031  0.1426 -0.0184 -1.6735
  388MOL0     H51185   7.791   8.328   1.021 -0.9905  0.4571  2.5294
  388MOL0     H51186   7.699   8.290   0.802  1.1962  0.8798 -0.6308
  388MOL0     H51187   7.756   8.135   0.795 -1.8944  0.6648 -0.4673
  388MOL0     H51188   8.001   8.214   0.825 -0.1320 -0.2206 -0.3645
  388MOL0     H51189   7.930   8.246   0.677  0.6393  0.5349  0.2691
  388MOL0     H51190   8.002   8.443   0.899 -0.8558  0.5768  1.3643
  388MOL0     H51191   7.846   8.478   0.822  0.6083  0.5374 -1.0199
  388MOL0     H51192   7.957   8.502   0.606 -2.4451 -0.2490  1.2929
  388MOL0     H51193   8.110   8.430   0.675 -0.5523  0.5894 -2.3688
  388MOL0     H51194   8.106   8.628   0.822  0.4535 -3.4309 -0.3704
  388MOL0     H51195   8.144   8.658   0.667  0.4217 -2.0106 -0.0440
  388MOL0     H51196   7.967   8.808   0.790  0.3708 -0.9391 -0.5312
  388MOL0     H51197   7.846   8.686   0.740 -0.6336 -0.1117 -2.3246
  388MOL0     H51198   7.408   8.127   1.078 -0.3483 -0.6088 -2.9747
  388MOL0     H51199   7.211   8.003   1.140  0.5961  2.4039  0.0412
  388MOL0     H51200   6.975   7.503   1.048  1.7441  2.7346 -0.5124
  388MOL0     H51201   6.748   7.449   1.124 -0.3759 -1.7335  1.4344
  388MOL0     H51202   7.184   8.715   1.189  0.3165  0.2896  0.2407
  388MOL0     H51203   7.271   8.904   1.078  0.7692 -3.9406  2.3270
  388MOL0     H51204   7.228   9.194   0.657 -3.1136  3.6010 -0.1653
  388MOL0     H51205   7.373   9.348   0.519 -0.0138 -4.3804 -0.8381
  388MOL0     H51206   7.746   9.537   0.678  0.4159 -0.9695 -2.1568
  388MOL0     H51207   7.646   9.654   0.754 -0.9779  0.7893 -1.1454
  388MOL0     H51208   7.603   9.776   0.579 -0.5432 -0.2836 -0.3811
  388MOL0     H51209   7.782   9.746   0.583 -0.1609  0.1456  0.1823
  388MOL0     H51210   7.585   9.606   0.408  1.2481 -2.3617 -0.4978
  388MOL0     H51211   7.768   9.586   0.423  1.0230 -0.3138 -2.1697
  388MOL0     H51212   7.633   9.828   0.284  1.1677  1.5244 -1.2626
  388MOL0     H51213   7.796   9.833   0.346 -0.9919  2.7788 -3.2965
  388MOL0     H51214   7.834   9.632  -0.024 -1.7135  4.0184 -1.1568
  388MOL0     H51215   7.551   9.500   0.887  0.7689 -0.8912  1.3679
  388MOL0     H51216   7.429   9.342   1.027  1.3176 -1.0911 -0.2506
  389MOL0     O51217   2.367   5.954   5.646  0.7508 -0.4096  0.3057
  389MOL0     C51218   2.407   6.060   5.690 -0.4289  0.8214 -0.9114
  389MOL0     O51219   2.432   6.172   5.626  0.1058 -0.1723 -0.4330
  389MOL0     C51220   2.397   6.179   5.493 -0.2642 -1.0244  0.4555
  389MOL0     C51221   2.263   6.177   5.456 -0.4800 -0.0006  0.8515
  389MOL0     C51222   2.225   6.169   5.314 -0.2474  0.2515 -0.8779
  389MOL0     C51223   2.326   6.148   5.222  0.4936 -0.3610  1.2474
  389MOL0     O51224   2.280   6.115   5.093  0.0716  0.3175 -0.7396
  389MOL0     C51225   2.230   5.982   5.059 -0.4917 -0.2874  0.6238
  389MOL0     C51226   2.309   5.935   4.935  0.1194 -0.4206  0.1438
  389MOL0     C51227   2.459   5.920   4.957  0.2608 -0.6027  0.4993
  389MOL0     C51228   2.522   5.853   4.838 -0.6499  0.3428  0.1723
  389MOL0     C51229   2.668   5.881   4.808 -0.0341  0.0055 -0.6775
  389MOL0     C51230   2.767   5.821   4.905  1.1355 -0.3938  0.0697
  389MOL0     C51231   2.786   5.903   5.037 -0.1158  0.2845 -0.1529
  389MOL0     C51232   2.863   6.042   5.011 -0.4260  0.4327  0.7934
  389MOL0     N51233   2.874   6.112   5.137 -0.4207 -0.3928  0.7013
  389MOL0     C51234   2.987   6.098   5.221  0.8989  0.0221  0.4206
  389MOL0     C51235   2.953   6.162   5.334  0.2960 -0.3122  0.3270
  389MOL0     C51236   3.022   6.140   5.468 -0.3236  0.8203  0.4862
  389MOL0     C51237   3.024   6.002   5.512  0.1461  0.2373 -0.5542
  389MOL0     C51238   2.912   5.969   5.615 -0.6886  0.4611 -0.1910
  389MOL0     C51239   2.952   5.838   5.682 -0.1789  0.9492 -0.1471
  389MOL0     O51240   3.004   5.740   5.587  0.0993  0.3195 -0.1913
  389MOL0     C51241   2.915   5.691   5.492  0.2898  0.3336 -0.1611
  389MOL0     C51242   2.773   5.716   5.494 -0.1497  0.4254  0.2071
  389MOL0     C51243   2.688   5.662   5.392 -0.1402 -0.3802 -0.5567
  389MOL0     C51244   2.751   5.595   5.289  0.6583 -0.1766  0.4593
  389MOL0     C51245   2.677   5.552   5.171 -0.4472  0.4754  0.4879
  389MOL0     O51246   2.753   5.515   5.058  0.2329  0.6473 -0.5202
  389MOL0     C51247   2.685   5.435   4.968 -0.3492  0.4129  0.9777
  389MOL0     C51248   2.616   5.324   5.011 -0.3197  0.9046 -1.0499
  389MOL0     C51249   2.564   5.224   4.927 -1.1318 -0.5222 -0.2020
  389MOL0     C51250   2.572   5.237   4.790  0.1037 -0.6503  0.5482
  389MOL0     O51251   2.522   5.133   4.720 -0.2829  0.4123 -0.0017
  389MOL0     C51252   2.587   5.095   4.601 -0.6818 -0.8344  0.0204
  389MOL0     C51253   2.563   4.943   4.578 -0.5474 -0.2081  0.3560
  389MOL0     C51254   2.419   4.886   4.596 -0.6282  0.0589 -0.2939
  389MOL0     C51255   2.424   4.742   4.602 -0.0403 -0.0067 -0.4828
  389MOL0     C51256   2.462   4.678   4.469 -0.1591  0.3137 -0.5480
  389MOL0     C51257   2.440   4.523   4.486 -0.0543 -0.1539  0.3975
  389MOL0     C51258   2.460   4.455   4.350 -0.5122 -0.7949 -1.0841
  389MOL0     C51259   2.444   4.302   4.354 -0.0790 -0.5360 -0.2764
  389MOL0    Cl51260   2.285   4.251   4.426  0.1930 -0.0974 -0.3828
  389MOL0     C51261   2.629   5.358   4.736 -1.1475 -0.3892  0.7881
  389MOL0     C51262   2.688   5.447   4.831 -0.2624 -0.2627  0.1521
  389MOL0     O51263   2.550   5.548   5.171 -0.5825  0.6267 -0.2553
  389MOL0     C51264   2.888   5.561   5.288  0.1933 -0.8462  0.5345
  389MOL0     C51265   2.971   5.606   5.387  1.0039  0.1734 -0.7985
  389MOL0     N51266   2.821   6.223   5.317  0.1272 -0.6011 -0.7889
  389MOL0     N51267   2.783   6.194   5.193  0.2602 -0.4595 -0.1391
  389MOL0     C51268   2.458   6.177   5.257 -0.1438  0.2749  0.1296
  389MOL0     C51269   2.490   6.190   5.398  0.2535 -0.2352  0.0890
  389MOL0     C51270   2.445   6.041   5.836  0.9874 -0.3390  0.5709
  389MOL0     C51271   2.390   5.947   5.925  0.0712 -0.3638  0.4300
  389MOL0     C51272   2.426   5.931   6.056 -0.3835  0.4816 -0.1320
  389MOL0     C51273   2.513   6.022   6.116 -0.6930 -0.6452  0.0221
  389MOL0     O51274   2.536   6.006   6.253 -0.8536 -0.6100 -1.3493
  389MOL0     C51275   2.660   6.062   6.301  0.0999 -0.6731  0.1490
  389MOL0     C51276   2.690   6.035   6.445 -0.1039 -0.6219 -0.7232
  389MOL0     C51277   2.827   6.071   6.501 -0.7294  0.1117 -1.3200
  389MOL0     C51278   2.936   5.973   6.449 -1.1138 -1.1212 -0.1698
  389MOL0     C51279   3.053   5.992   6.541 -0.1498  0.1280  0.5989
  389MOL0     C51280   3.156   6.012   6.604 -0.1173  0.4216 -0.6791
  389MOL0     C51281   2.570   6.130   6.028 -0.0801  0.6891  0.4439
  389MOL0     C51282   2.534   6.132   5.893  0.0045 -0.5761 -0.0589
  389MOL0     H51283   2.198   6.176   5.543  0.9052 -1.7736  1.9422
  389MOL0     H51284   2.118   6.158   5.294 -0.9512  2.1855  1.4022
  389MOL0     H51285   2.125   5.993   5.029  0.0225  0.8435 -0.8803
  389MOL0     H51286   2.250   5.906   5.136  0.8738 -1.1374 -0.5201
  389MOL0     H51287   2.302   6.014   4.860  3.4036 -1.3722 -1.3494
  389MOL0     H51288   2.267   5.847   4.885  0.0110  0.7684 -1.9815
  389MOL0     H51289   2.473   5.858   5.046  0.2244 -0.3444  0.6860
  389MOL0     H51290   2.493   6.023   4.971 -2.4612  0.0085  3.9072
  389MOL0     H51291   2.519   5.746   4.856  3.8444 -0.3311 -1.6705
  389MOL0     H51292   2.470   5.876   4.744 -1.3788 -0.4023  0.3848
  389MOL0     H51293   2.677   5.989   4.792 -4.3768  0.5515 -0.7303
  389MOL0     H51294   2.693   5.834   4.712 -0.6413 -1.5743 -0.0826
  389MOL0     H51295   2.864   5.817   4.855  0.7744 -3.0821 -0.5765
  389MOL0     H51296   2.752   5.715   4.928  1.4959 -0.7074 -1.0634
  389MOL0     H51297   2.686   5.918   5.078 -0.8606 -1.9120 -1.0359
  389MOL0     H51298   2.851   5.843   5.101  0.0679  0.7122  0.0675
  389MOL0     H51299   2.807   6.107   4.944  0.0426 -0.3164 -0.3557
  389MOL0     H51300   2.967   6.031   4.977  0.7854  5.2949  2.0817
  389MOL0     H51301   3.053   6.013   5.213 -1.8530 -2.1833 -0.4734
  389MOL0     H51302   2.985   6.210   5.543  0.4003  0.1720  1.4612
  389MOL0     H51303   3.126   6.166   5.444  0.8581 -3.5374 -0.0083
  389MOL0     H51304   3.120   5.994   5.563 -0.1238 -1.0903 -0.2015
  389MOL0     H51305   3.019   5.937   5.424  0.1180  0.5067 -0.7532
  389MOL0     H51306   2.892   6.051   5.685 -0.4609  0.2167  0.1607
  389MOL0     H51307   2.813   5.958   5.569 -0.5776 -2.6958  0.1030
  389MOL0     H51308   2.875   5.790   5.743  0.0046 -1.3128 -1.5425
  389MOL0     H51309   3.038   5.854   5.748 -1.6874 -0.4508  2.3163
  389MOL0     H51310   2.726   5.767   5.577 -3.4422 -3.2310  0.9095
  389MOL0     H51311   2.580   5.667   5.386 -0.2844 -1.2247  1.1203
  389MOL0     H51312   2.588   5.307   5.114 -2.4540 -2.6371 -2.0524
  389MOL0     H51313   2.529   5.130   4.968  0.7374 -0.9357  0.5449
  389MOL0     H51314   2.694   5.116   4.613 -1.1749  1.8812  0.2686
  389MOL0     H51315   2.538   5.154   4.523 -0.4191  0.3054  0.6883
  389MOL0     H51316   2.639   4.898   4.642 -0.5307  2.5788  2.4865
  389MOL0     H51317   2.587   4.927   4.473  1.2178  0.6383  0.6053
  389MOL0     H51318   2.372   4.933   4.510 -0.9742  3.1164  1.4212
  389MOL0     H51319   2.365   4.921   4.685  0.9216  0.3497  0.5883
  389MOL0     H51320   2.503   4.707   4.669 -1.9807 -2.2174  0.8017
  389MOL0     H51321   2.329   4.701   4.639  0.9314  0.3401  2.6999
  389MOL0     H51322   2.569   4.685   4.447 -0.1615  0.1174 -0.6254
  389MOL0     H51323   2.403   4.728   4.392 -0.9164  1.3337  0.6485
  389MOL0     H51324   2.333   4.510   4.504 -0.2860 -0.5109 -1.1281
  389MOL0     H51325   2.509   4.484   4.561  1.1939  5.5062  2.7225
  389MOL0     H51326   2.396   4.505   4.277 -0.7510 -0.7632 -0.8552
  389MOL0     H51327   2.563   4.476   4.320 -0.1540 -0.8582  0.0479
  389MOL0     H51328   2.524   4.269   4.420 -0.9940  1.9388  2.2440
  389MOL0     H51329   2.449   4.255   4.255 -0.1547  1.3938 -1.2504
  389MOL0     H51330   2.643   5.389   4.633 -0.3512 -1.3897  0.5823
  389MOL0     H51331   2.747   5.528   4.790 -2.4838  1.7742  0.7854
  389MOL0     H51332   2.942   5.491   5.225 -0.0646  1.1267 -2.0432
  389MOL0     H51333   3.075   5.578   5.393  0.7743 -2.1959 -4.5634
  389MOL0     H51334   2.532   6.184   5.178 -0.3100  1.8927  0.0892
  389MOL0     H51335   2.596   6.185   5.422  0.1594 -0.0961  0.5470
  389MOL0     H51336   2.316   5.879   5.885 -1.0360 -0.6867  2.8321
  389MOL0     H51337   2.381   5.861   6.127  0.7847  0.5514  0.7070
  389MOL0     H51338   2.663   6.171   6.294 -1.0427 -0.7317 -4.0599
  389MOL0     H51339   2.742   6.023   6.241  0.6341 -1.2734  1.2455
  389MOL0     H51340   2.613   6.080   6.509 -1.8540 -2.7895 -1.1890
  389MOL0     H51341   2.676   5.927   6.450 -0.8444 -0.4745  2.6017
  389MOL0     H51342   2.824   6.061   6.610  1.2410  0.2619 -1.2073
  389MOL0     H51343   2.865   6.169   6.473  0.7202 -1.0115 -3.6550
  389MOL0     H51344   2.907   5.868   6.457 -0.4107 -1.3088  0.0085
  389MOL0     H51345   2.951   5.998   6.344 -2.0897  2.4196  0.4116
  389MOL0     H51346   3.246   6.002   6.661  0.3303  1.0668 -1.2558
  389MOL0     H51347   2.650   6.186   6.075  0.4104  0.2206  0.1882
  389MOL0     H51348   2.590   6.205   5.835 -1.5194 -1.0898 -2.3601
  390MOL0     O51349   9.596   6.560   3.817 -0.3612  0.0649 -0.5144
  390MOL0     C51350   9.675   6.572   3.911 -0.0167 -0.7706 -0.0649
  390MOL0     O51351   9.664   6.521   4.041 -0.4131 -0.4024 -0.3258
  390MOL0     C51352   9.556   6.447   4.079  0.1543  0.4598 -0.0028
  390MOL0     C51353   9.441   6.508   4.133  0.8711  0.2307  0.5328
  390MOL0     C51354   9.334   6.439   4.183  0.9928 -0.5669  0.3527
  390MOL0     C51355   9.331   6.300   4.175 -0.7416  0.4644 -0.7865
  390MOL0     O51356   9.226   6.233   4.226  0.7185  0.0661 -0.2239
  390MOL0     C51357   9.106   6.241   4.154 -0.1985 -0.3421 -0.3896
  390MOL0     C51358   8.986   6.287   4.246 -0.0740  0.2205  0.3217
  390MOL0     C51359   8.951   6.189   4.366  0.3237 -0.9410  0.0042
  390MOL0     C51360   8.836   6.244   4.453  0.0098  0.7664 -0.5904
  390MOL0     C51361   8.848   6.388   4.532  0.0997  0.4914  0.6321
  390MOL0     C51362   8.945   6.363   4.648 -0.3476  0.2095  0.0046
  390MOL0     C51363   8.936   6.470   4.752 -0.2260  1.1337  0.6448
  390MOL0     C51364   9.059   6.474   4.850 -0.1628 -0.4890  0.7556
  390MOL0     N51365   9.093   6.337   4.910  0.4550 -0.2540 -0.9297
  390MOL0     C51366   9.179   6.248   4.859 -0.5419  0.5048  0.3969
  390MOL0     C51367   9.160   6.136   4.929  0.1810  0.1159 -0.1961
  390MOL0     C51368   9.213   6.005   4.917  0.5014  0.6478 -0.7917
  390MOL0     C51369   9.158   5.935   4.798 -1.0015  0.2536  0.3653
  390MOL0     C51370   9.106   5.798   4.849 -0.0665 -0.5334 -0.0868
  390MOL0     C51371   9.016   5.723   4.754  0.1651 -1.5322  0.5993
  390MOL0     O51372   8.997   5.587   4.784  0.0149  0.4473  0.3378
  390MOL0     C51373   8.891   5.521   4.730  0.2321 -0.3972 -0.1490
  390MOL0     C51374   8.843   5.410   4.804 -0.1675  0.2437 -0.2874
  390MOL0     C51375   8.737   5.341   4.764 -0.3811 -0.2918  0.7066
  390MOL0     C51376   8.666   5.388   4.652 -0.0000 -0.5347 -0.0757
  390MOL0     C51377   8.547   5.309   4.609  0.0845 -0.1030  0.4545
  390MOL0     O51378   8.461   5.364   4.524 -0.0760  0.0421  0.3466
  390MOL0     C51379   8.358   5.307   4.448 -0.0700  1.1964  0.1229
  390MOL0     C51380   8.342   5.172   4.426 -0.3692  0.8092  0.6272
  390MOL0     C51381   8.242   5.118   4.353  0.2444  0.7077 -0.4631
  390MOL0     C51382   8.139   5.198   4.291 -0.1731 -0.4280  0.2061
  390MOL0     O51383   8.059   5.146   4.186 -0.0128 -1.0724  0.0832
  390MOL0     C51384   7.989   5.230   4.088  0.2868 -0.5215 -0.1630
  390MOL0     C51385   7.924   5.139   3.985  0.3804 -0.2693 -0.1357
  390MOL0     C51386   7.814   5.046   4.047 -0.5261 -0.0135  1.2350
  390MOL0     C51387   7.706   5.128   4.106 -0.5425 -0.4444 -0.4645
  390MOL0     C51388   7.595   5.025   4.140  0.5027 -1.0299 -0.1709
  390MOL0     C51389   7.459   5.084   4.196  0.3864  0.5051  0.3531
  390MOL0     C51390   7.378   4.968   4.257 -0.2628 -0.1250 -1.2816
  390MOL0     C51391   7.321   4.867   4.153 -0.7339 -0.1765 -0.4252
  390MOL0    Cl51392   7.282   4.714   4.235  0.0672  0.1550 -0.2867
  390MOL0     C51393   8.148   5.340   4.318 -0.3032 -1.0307  0.2584
  390MOL0     C51394   8.252   5.385   4.401  0.3292  0.6882  1.0903
  390MOL0     O51395   8.535   5.198   4.655 -0.2260  0.1716 -0.6598
  390MOL0     C51396   8.693   5.505   4.581  0.5184 -0.9181 -0.0464
  390MOL0     C51397   8.805   5.571   4.624  0.0666 -0.3512 -0.3144
  390MOL0     N51398   9.068   6.140   5.023  0.0972 -0.3702  0.1289
  390MOL0     N51399   9.018   6.268   5.006  0.2987 -0.6814  1.1490
  390MOL0     C51400   9.450   6.233   4.135  0.1679  0.3824 -0.5102
  390MOL0     C51401   9.563   6.308   4.085  0.1563 -0.8812 -0.3639
  390MOL0     C51402   9.805   6.639   3.891  0.9399 -0.2230  0.4738
  390MOL0     C51403   9.827   6.697   3.764 -0.3401 -0.5307 -0.6306
  390MOL0     C51404   9.955   6.748   3.731 -0.0488 -0.8009  0.2821
  390MOL0     C51405  10.052   6.748   3.828 -0.9191 -0.0559 -0.0520
  390MOL0     O51406  10.176   6.787   3.785 -0.3514  0.5915  0.5404
  390MOL0     C51407  10.298   6.762   3.854 -0.0686  0.0908  0.3161
  390MOL0     C51408  10.347   6.888   3.928 -0.4302 -0.3715 -0.3391
  390MOL0     C51409  10.373   6.990   3.828 -0.0108 -0.4663  0.7681
  390MOL0     C51410  10.450   7.115   3.879  0.1116  0.2700 -0.1417
  390MOL0     C51411  10.473   7.209   3.774 -0.1377  1.2231 -0.9339
  390MOL0     C51412  10.475   7.275   3.672 -0.7704  0.2960 -0.1505
  390MOL0     C51413  10.029   6.695   3.958 -0.2120  0.2940 -0.0722
  390MOL0     C51414   9.905   6.641   3.990  0.1906 -0.2825  0.6130
  390MOL0     H51415   9.438   6.616   4.145  2.8339  0.1623  1.9880
  390MOL0     H51416   9.251   6.503   4.210  2.1074  1.4179 -0.6676
  390MOL0     H51417   9.091   6.141   4.114 -1.5184 -0.5830  0.6606
  390MOL0     H51418   9.111   6.306   4.066 -0.6880 -1.0454 -0.9520
  390MOL0     H51419   8.905   6.289   4.173  1.2765  1.3961 -1.2328
  390MOL0     H51420   9.008   6.388   4.281 -1.7880  1.6824 -2.4701
  390MOL0     H51421   9.042   6.164   4.421 -0.3418 -1.8546  0.7278
  390MOL0     H51422   8.917   6.094   4.323 -1.6876 -0.0371 -0.5615
  390MOL0     H51423   8.749   6.252   4.386  1.1906 -4.2569 -3.2588
  390MOL0     H51424   8.809   6.162   4.520  1.3228  0.9642  0.2174
  390MOL0     H51425   8.746   6.399   4.569  0.8981  2.4173  2.4249
  390MOL0     H51426   8.864   6.477   4.471 -0.5268 -1.3750 -2.4607
  390MOL0     H51427   9.049   6.346   4.617 -0.7519 -1.6850 -0.3918
  390MOL0     H51428   8.925   6.265   4.690  4.2681 -1.0167 -0.0629
  390MOL0     H51429   8.941   6.570   4.707  1.6454  1.2470  1.0385
  390MOL0     H51430   8.845   6.455   4.811 -0.7584 -3.7803 -1.0366
  390MOL0     H51431   9.045   6.555   4.923  0.0094 -1.1507  1.5417
  390MOL0     H51432   9.147   6.494   4.788  1.3297  1.1006  3.1795
  390MOL0     H51433   9.242   6.252   4.771 -0.1881 -1.1017  0.5381
  390MOL0     H51434   9.219   5.946   5.008  0.1208  1.5128 -0.1909
  390MOL0     H51435   9.315   6.031   4.886  0.1044  1.3149 -1.5923
  390MOL0     H51436   9.239   5.933   4.725 -0.9825  2.5471  0.2459
  390MOL0     H51437   9.069   5.980   4.753 -0.2524 -0.7506 -2.3579
  390MOL0     H51438   9.187   5.733   4.884 -0.6817 -0.0148  2.4276
  390MOL0     H51439   9.048   5.798   4.941  2.7869  1.1618  1.8970
  390MOL0     H51440   9.058   5.730   4.653 -1.4355  2.4093  0.0184
  390MOL0     H51441   8.920   5.777   4.748  0.1871 -1.3302  1.8647
  390MOL0     H51442   8.893   5.385   4.897 -3.0675  0.2761  1.3981
  390MOL0     H51443   8.708   5.252   4.819 -2.3946  0.6617  1.2850
  390MOL0     H51444   8.411   5.095   4.458  0.2691  0.0529 -2.2637
  390MOL0     H51445   8.262   5.015   4.327 -2.4358 -0.3815  1.3726
  390MOL0     H51446   8.067   5.292   4.041  1.1282  0.2462  2.1139
  390MOL0     H51447   7.915   5.300   4.128 -1.5519 -1.4058 -1.8591
  390MOL0     H51448   8.004   5.078   3.942  0.2868  0.6098 -1.6342
  390MOL0     H51449   7.869   5.201   3.913  0.8327 -0.9825 -1.1108
  390MOL0     H51450   7.874   4.987   4.117  2.8545  0.5494 -0.9407
  390MOL0     H51451   7.787   4.992   3.957  1.0769  1.6282 -0.3103
  390MOL0     H51452   7.751   5.173   4.195  1.4795 -2.9367 -0.1084
  390MOL0     H51453   7.666   5.208   4.043  0.7604  0.3520 -0.3214
  390MOL0     H51454   7.647   4.950   4.200  3.9095  0.8670 -0.5005
  390MOL0     H51455   7.569   4.977   4.045  1.8205 -0.4668 -0.8475
  390MOL0     H51456   7.411   5.126   4.108 -2.1566 -1.3342  0.7463
  390MOL0     H51457   7.475   5.153   4.279 -2.0180 -0.9219  2.1294
  390MOL0     H51458   7.447   4.922   4.327 -1.5845  0.8589  0.7756
  390MOL0     H51459   7.297   5.015   4.315  1.2315 -1.5440  2.1690
  390MOL0     H51460   7.404   4.835   4.089 -0.7558 -1.2994  0.0711
  390MOL0     H51461   7.238   4.914   4.099 -1.7883 -0.6864  0.7010
  390MOL0     H51462   8.081   5.406   4.264  0.6180 -0.1290  0.1968
  390MOL0     H51463   8.273   5.490   4.420 -0.9888  0.8079  1.9828
  390MOL0     H51464   8.636   5.538   4.494  0.9763  0.4768  0.1526
  390MOL0     H51465   8.842   5.655   4.565  0.1754 -0.1046  0.0953
  390MOL0     H51466   9.463   6.126   4.140  0.7523  0.5005  1.6183
  390MOL0     H51467   9.651   6.263   4.040  1.1434  0.9589 -0.3673
  390MOL0     H51468   9.749   6.702   3.689  0.4532  2.7670 -1.4349
  390MOL0     H51469   9.982   6.775   3.629  2.6950 -2.1221  0.5637
  390MOL0     H51470  10.373   6.735   3.780 -3.0693 -1.6025 -2.3597
  390MOL0     H51471  10.288   6.676   3.922 -3.5202  0.5882  0.6225
  390MOL0     H51472  10.283   6.920   4.010  1.0047 -2.2868  1.6400
  390MOL0     H51473  10.450   6.860   3.951 -0.8462 -1.4281  0.2666
  390MOL0     H51474  10.280   7.033   3.790  0.4895  0.7368  0.8554
  390MOL0     H51475  10.431   6.939   3.750 -4.3227 -0.2127 -3.0205
  390MOL0     H51476  10.390   7.174   3.948 -1.5979  0.3840 -1.6606
  390MOL0     H51477  10.531   7.079   3.944 -0.4562  1.9110  1.5656
  390MOL0     H51478  10.492   7.328   3.580 -0.4647 -1.4309 -1.1329
  390MOL0     H51479  10.105   6.700   4.035 -1.7762  2.6975  1.4343
  390MOL0     H51480   9.883   6.604   4.089 -2.6579 -2.3638 -0.6683
  391MOL0     O51481   2.900   3.859  10.238 -0.1530  0.5245  0.7888
  391MOL0     C51482   2.840   3.779  10.165  0.1281  0.1000 -0.0282
  391MOL0     O51483   2.715   3.731  10.191 -0.0616  0.1436  0.6276
  391MOL0     C51484   2.655   3.808  10.291  0.6236  0.0735  0.9329
  391MOL0     C51485   2.558   3.895  10.263  0.0195  0.6490  0.6040
  391MOL0     C51486   2.494   3.978  10.360 -0.2584 -0.8562  0.2556
  391MOL0     C51487   2.533   3.962  10.496 -0.2428 -0.0790 -0.4741
  391MOL0     O51488   2.495   4.042  10.604  0.3593 -0.6992 -0.2683
  391MOL0     C51489   2.400   4.151  10.577 -0.4513  0.0656  0.5615
  391MOL0     C51490   2.472   4.268  10.512  1.2090  0.0500  0.0685
  391MOL0     C51491   2.590   4.326  10.601 -0.1511 -0.2566 -0.4484
  391MOL0     C51492   2.661   4.438  10.530 -0.1127  0.8688  0.6994
  391MOL0     C51493   2.815   4.410  10.519  0.0086  0.0273 -0.5598
  391MOL0     C51494   2.871   4.270  10.484  0.1361 -0.2442 -0.3701
  391MOL0     C51495   2.804   4.196  10.367  0.4870 -0.1072 -0.0671
  391MOL0     C51496   2.839   4.253  10.224 -0.7867 -0.7270  0.4078
  391MOL0     N51497   2.736   4.213  10.127  0.2335 -0.8621 -0.4749
  391MOL0     C51498   2.603   4.245  10.130 -0.4711  0.1384 -0.1658
  391MOL0     C51499   2.558   4.176  10.023  0.0279 -0.3977 -0.9458
  391MOL0     C51500   2.410   4.165   9.984  0.3228  0.4723  0.3178
  391MOL0     C51501   2.335   4.293   9.937  0.0188  0.1212  0.6980
  391MOL0     C51502   2.354   4.408  10.038 -0.4870 -0.4967 -0.0044
  391MOL0     C51503   2.248   4.514  10.035 -0.0124 -1.7910 -0.1871
  391MOL0     O51504   2.254   4.607  10.146 -0.0921 -0.0453  0.2040
  391MOL0     C51505   2.375   4.676  10.171 -0.7637  0.0142 -0.7480
  391MOL0     C51506   2.462   4.725  10.077  0.0446 -0.2811 -0.0121
  391MOL0     C51507   2.580   4.787  10.111  0.9210  0.2151 -0.7951
  391MOL0     C51508   2.605   4.813  10.241 -0.2760 -0.5357 -0.5682
  391MOL0     C51509   2.713   4.908  10.283 -1.0299 -0.3788 -0.1571
  391MOL0     O51510   2.786   4.979  10.194  0.5734  0.4226  0.1005
  391MOL0     C51511   2.888   5.056  10.242 -0.3063 -1.2406  0.7721
  391MOL0     C51512   3.020   5.029  10.193  0.2071 -0.5928 -0.1508
  391MOL0     C51513   3.131   5.099  10.238  0.4387 -0.3182  0.0333
  391MOL0     C51514   3.120   5.214  10.318 -1.3884  1.0301  0.2391
  391MOL0     O51515   3.223   5.300  10.356  0.1880  0.0521 -0.0574
  391MOL0     C51516   3.355   5.237  10.359  0.8570 -0.9107  0.3978
  391MOL0     C51517   3.453   5.338  10.305 -0.1444 -0.9083 -0.1670
  391MOL0     C51518   3.436   5.359  10.152  1.2029 -0.0987  0.0436
  391MOL0     C51519   3.528   5.473  10.105  0.1543  0.4577 -0.8054
  391MOL0     C51520   3.525   5.508   9.961 -0.1899 -0.0079 -1.3113
  391MOL0     C51521   3.646   5.594   9.929  0.0084 -0.4660  0.0422
  391MOL0     C51522   3.635   5.636   9.779  0.5201 -0.7365 -0.1477
  391MOL0     C51523   3.705   5.765   9.748  0.4919 -0.0697  0.6318
  391MOL0    Cl51524   3.636   5.901   9.853 -0.7040 -0.1347  0.2051
  391MOL0     C51525   2.993   5.246  10.358 -0.0229 -1.1225  0.4393
  391MOL0     C51526   2.874   5.164  10.327  1.7423 -0.0593  0.3633
  391MOL0     O51527   2.720   4.916  10.404  0.2295 -0.2022 -1.1127
  391MOL0     C51528   2.509   4.769  10.333 -0.0057  0.7144 -0.5352
  391MOL0     C51529   2.398   4.697  10.300 -0.4565  1.0206  0.7973
  391MOL0     N51530   2.664   4.118   9.957 -0.3730  0.2961 -0.0685
  391MOL0     N51531   2.772   4.153  10.009 -0.8014  0.3881 -0.1918
  391MOL0     C51532   2.624   3.863  10.523 -0.2554 -0.4435 -0.4629
  391MOL0     C51533   2.684   3.788  10.426 -0.2343  0.5360 -0.7531
  391MOL0     C51534   2.919   3.709  10.063 -0.5316 -1.0249 -0.1957
  391MOL0     C51535   2.870   3.595   9.995 -0.0742 -0.5920  0.5924
  391MOL0     C51536   2.945   3.551   9.891 -0.6502 -0.2045  0.9230
  391MOL0     C51537   3.072   3.589   9.855  0.5333 -0.9469 -0.2908
  391MOL0     O51538   3.150   3.528   9.758 -0.2469 -0.6524 -0.3302
  391MOL0     C51539   3.096   3.462   9.644  0.0418  0.3753  0.0126
  391MOL0     C51540   3.012   3.557   9.555 -0.7924  0.0763 -0.5168
  391MOL0     C51541   3.086   3.658   9.463 -0.2966 -0.6828  0.1955
  391MOL0     C51542   2.990   3.734   9.376  0.0124 -0.6286  0.8312
  391MOL0     C51543   3.067   3.767   9.256  0.1412  0.5013  0.1116
  391MOL0     C51544   3.130   3.801   9.160 -0.2159 -0.8175 -0.1723
  391MOL0     C51545   3.126   3.686   9.934  0.4774 -0.1784  0.3296
  391MOL0     C51546   3.049   3.743  10.037  0.1845  0.6491 -0.4375
  391MOL0     H51547   2.536   3.916  10.158  2.5175  1.2507  0.1481
  391MOL0     H51548   2.418   4.053  10.338  0.9379  1.0634  2.2958
  391MOL0     H51549   2.366   4.180  10.677 -0.8276  2.4138 -0.1782
  391MOL0     H51550   2.308   4.132  10.522  0.0216  1.1839 -0.6780
  391MOL0     H51551   2.403   4.349  10.483  1.3116  0.0233 -0.2439
  391MOL0     H51552   2.504   4.232  10.415 -1.6780  1.8316 -1.7256
  391MOL0     H51553   2.639   4.234  10.636 -1.0994 -0.7098 -0.2597
  391MOL0     H51554   2.542   4.377  10.685  3.5346  5.9360 -1.4933
  391MOL0     H51555   2.615   4.450  10.431 -2.8058 -2.9999  1.2292
  391MOL0     H51556   2.635   4.528  10.586  0.7508  2.8888 -1.9312
  391MOL0     H51557   2.844   4.438  10.621  0.9219 -1.8972 -0.2482
  391MOL0     H51558   2.872   4.482  10.459 -2.5248  1.9333 -0.8457
  391MOL0     H51559   2.839   4.204  10.565  0.2930 -0.2665 -0.3261
  391MOL0     H51560   2.979   4.283  10.472  0.5066 -3.2736 -1.0862
  391MOL0     H51561   2.832   4.090  10.376 -2.7693 -1.1082 -0.2417
  391MOL0     H51562   2.695   4.210  10.370  0.5941  0.8774 -0.5148
  391MOL0     H51563   2.938   4.222  10.189  0.7802  3.1447  1.0083
  391MOL0     H51564   2.841   4.362  10.226 -1.9936 -0.6026 -1.7362
  391MOL0     H51565   2.555   4.306  10.206  0.2808  2.8415 -1.7239
  391MOL0     H51566   2.367   4.130  10.079  0.7305 -5.0290 -1.1347
  391MOL0     H51567   2.393   4.083   9.912 -1.8753  1.4917 -0.4321
  391MOL0     H51568   2.228   4.289   9.916  0.3511  0.6862 -1.3536
  391MOL0     H51569   2.377   4.320   9.840  0.7121 -3.6362 -0.2102
  391MOL0     H51570   2.350   4.359  10.136 -1.3399 -3.1097 -1.2523
  391MOL0     H51571   2.447   4.451  10.000 -2.0706  0.9588 -2.4715
  391MOL0     H51572   2.150   4.465  10.036 -2.0128  1.7887 -1.4646
  391MOL0     H51573   2.262   4.564   9.939  2.4179 -0.0514  0.9749
  391MOL0     H51574   2.434   4.707   9.974 -2.6998  1.0149  0.4216
  391MOL0     H51575   2.639   4.832  10.031 -0.1407  0.8428 -1.2553
  391MOL0     H51576   3.022   4.949  10.120 -4.5685 -2.2938  1.2241
  391MOL0     H51577   3.229   5.083  10.194  1.9155  0.3606  2.8256
  391MOL0     H51578   3.373   5.148  10.297 -1.1817  0.2802 -2.1170
  391MOL0     H51579   3.386   5.225  10.463  0.4130 -0.7720  0.5501
  391MOL0     H51580   3.548   5.289  10.324 -0.9090 -1.9567  1.0769
  391MOL0     H51581   3.431   5.430  10.360 -0.7241 -0.8315 -0.5146
  391MOL0     H51582   3.333   5.381  10.124  1.1048  0.8692  1.1012
  391MOL0     H51583   3.465   5.270  10.095 -0.2208 -1.2610  1.0325
  391MOL0     H51584   3.520   5.558  10.173 -0.9140  0.8359 -1.3792
  391MOL0     H51585   3.627   5.434  10.131  0.5051  1.7903 -0.0564
  391MOL0     H51586   3.430   5.561   9.945  1.0045  3.5786  1.9842
  391MOL0     H51587   3.547   5.421   9.898  1.7320 -1.2655  0.9356
  391MOL0     H51588   3.741   5.541   9.941 -0.3014 -0.6217  2.1525
  391MOL0     H51589   3.658   5.678   9.998  2.7324  1.1420 -2.1729
  391MOL0     H51590   3.687   5.554   9.729 -1.2943 -0.5747 -2.5074
  391MOL0     H51591   3.534   5.644   9.737  1.0850  2.2059 -1.1519
  391MOL0     H51592   3.704   5.787   9.641  4.3323 -4.6877 -0.6333
  391MOL0     H51593   3.813   5.755   9.756  1.4002 -0.8617 -6.4622
  391MOL0     H51594   2.978   5.328  10.427  2.0809  0.0617 -0.3961
  391MOL0     H51595   2.773   5.194  10.351  1.8248  0.9317 -0.4716
  391MOL0     H51596   2.519   4.790  10.439  2.7133 -0.1334 -0.5412
  391MOL0     H51597   2.332   4.663  10.379  1.4617 -1.2154  1.5291
  391MOL0     H51598   2.642   3.842  10.628 -1.2233  0.0117 -0.1982
  391MOL0     H51599   2.742   3.703  10.459 -0.9881 -0.4072 -1.7879
  391MOL0     H51600   2.771   3.553  10.007 -1.5827  0.7919 -4.5688
  391MOL0     H51601   2.902   3.470   9.833  1.2673 -0.6205 -0.0117
  391MOL0     H51602   3.037   3.375   9.674 -0.0335 -0.0845 -1.3992
  391MOL0     H51603   3.176   3.417   9.585  0.1140 -0.3492  0.6548
  391MOL0     H51604   2.959   3.488   9.490  1.5529 -1.2750 -1.0996
  391MOL0     H51605   2.934   3.603   9.616 -1.1291 -1.3854  0.1949
  391MOL0     H51606   3.144   3.585   9.407 -1.3800 -0.4337 -1.3094
  391MOL0     H51607   3.155   3.728   9.512 -1.0656 -0.3365  0.8175
  391MOL0     H51608   2.905   3.669   9.353 -0.7239  0.0793  1.4720
  391MOL0     H51609   2.942   3.819   9.427  2.0340  0.3748  1.1356
  391MOL0     H51610   3.192   3.848   9.086 -0.8618  2.4353  1.1890
  391MOL0     H51611   3.226   3.726   9.919 -0.4539  2.5596  0.7994
  391MOL0     H51612   3.092   3.820  10.099  1.7247 -2.3524  2.5474
  392MOL0     O51613   6.446   5.449   6.214  0.4843 -0.0813 -0.9236
  392MOL0     C51614   6.565   5.418   6.214 -0.8710 -0.5513 -0.4738
  392MOL0     O51615   6.626   5.303   6.168  0.1448  0.0981 -0.2432
  392MOL0     C51616   6.556   5.191   6.153 -0.3547 -0.4974  0.3841
  392MOL0     C51617   6.418   5.173   6.115  1.1516 -0.1425  0.5457
  392MOL0     C51618   6.377   5.050   6.077  0.0622  0.1663  0.3120
  392MOL0     C51619   6.456   4.938   6.072 -0.2181 -0.2396 -0.4286
  392MOL0     O51620   6.408   4.822   6.029 -0.3255 -0.1557 -0.2000
  392MOL0     C51621   6.407   4.728   6.133  0.3353 -0.6194  0.5266
  392MOL0     C51622   6.258   4.704   6.172  0.0583 -1.4693 -0.7929
  392MOL0     C51623   6.201   4.587   6.090 -0.0287 -0.6027  0.1119
  392MOL0     C51624   6.157   4.624   5.938 -0.0038 -0.1495 -0.5113
  392MOL0     C51625   6.131   4.507   5.842 -0.6081 -0.1425  0.0154
  392MOL0     C51626   6.016   4.419   5.890 -0.6967  0.1472  0.3275
  392MOL0     C51627   5.882   4.489   5.925 -0.1847  0.6597 -0.3830
  392MOL0     C51628   5.775   4.387   5.971  1.1608  0.3666 -0.3042
  392MOL0     N51629   5.700   4.329   5.855 -0.6378 -0.4824  0.3642
  392MOL0     C51630   5.754   4.233   5.770 -0.8797 -0.6700  0.7922
  392MOL0     C51631   5.676   4.234   5.667 -0.2212 -0.3838  0.4471
  392MOL0     C51632   5.690   4.151   5.545  0.0668 -0.2061  0.4371
  392MOL0     C51633   5.765   4.236   5.440 -0.3012  0.2087  0.5897
  392MOL0     C51634   5.722   4.378   5.388 -0.0854 -0.3703 -0.0130
  392MOL0     C51635   5.582   4.364   5.336  0.4401 -0.3743  0.5361
  392MOL0     O51636   5.559   4.255   5.240 -0.0439  0.4132 -0.8237
  392MOL0     C51637   5.425   4.232   5.197 -0.6357 -0.0682  0.3783
  392MOL0     C51638   5.418   4.153   5.089 -0.3089  0.4190  0.4156
  392MOL0     C51639   5.288   4.125   5.034 -0.0943  0.7886 -0.2725
  392MOL0     C51640   5.168   4.172   5.082  0.6903 -0.3094  0.2510
  392MOL0     C51641   5.043   4.148   5.009 -0.0142 -0.0632  0.7126
  392MOL0     O51642   5.032   4.033   4.926 -0.5898  0.5158  0.5325
  392MOL0     C51643   4.978   4.056   4.806 -0.0803 -0.0996  0.9171
  392MOL0     C51644   4.874   3.974   4.756 -0.4362 -0.4810 -0.2983
  392MOL0     C51645   4.807   3.997   4.635  0.0647 -0.3865  1.0050
  392MOL0     C51646   4.852   4.097   4.549 -0.0668 -0.6003 -0.6076
  392MOL0     O51647   4.795   4.114   4.430 -0.1313 -0.0642  0.6953
  392MOL0     C51648   4.825   4.223   4.350 -0.2052 -0.3136  0.1837
  392MOL0     C51649   4.717   4.252   4.247 -0.4055  0.5125  0.4987
  392MOL0     C51650   4.581   4.272   4.313 -0.3901 -0.3046 -0.1044
  392MOL0     C51651   4.469   4.282   4.213  0.1044  0.0385  0.1630
  392MOL0     C51652   4.464   4.428   4.153 -0.0052 -0.3181 -0.0204
  392MOL0     C51653   4.391   4.446   4.019 -0.4318 -0.4824 -0.6662
  392MOL0     C51654   4.419   4.587   3.970 -0.2893  0.5699  0.1580
  392MOL0     C51655   4.363   4.603   3.825 -0.3700 -0.3474 -0.4077
  392MOL0    Cl51656   4.412   4.483   3.703 -0.0490 -0.0639 -0.1376
  392MOL0     C51657   4.968   4.170   4.589 -0.3507  0.6764 -0.8805
  392MOL0     C51658   5.028   4.151   4.723 -0.0417  0.3507  0.3056
  392MOL0     O51659   4.970   4.245   5.006  0.2327 -0.8044 -0.1782
  392MOL0     C51660   5.179   4.261   5.196 -0.6559  0.5558  1.0425
  392MOL0     C51661   5.310   4.286   5.255  0.8156 -0.2401 -1.1661
  392MOL0     N51662   5.569   4.313   5.690  1.6056  0.0572  0.3085
  392MOL0     N51663   5.581   4.380   5.804 -0.5557 -0.0389 -0.6820
  392MOL0     C51664   6.596   4.958   6.102  0.1739  0.3767  1.3116
  392MOL0     C51665   6.639   5.080   6.146  0.1034  0.4596  0.6906
  392MOL0     C51666   6.652   5.523   6.287  0.9552  0.7701 -0.1419
  392MOL0     C51667   6.788   5.497   6.305 -0.1155 -0.4352 -0.5020
  392MOL0     C51668   6.864   5.590   6.390 -0.5342  0.0581  0.0855
  392MOL0     C51669   6.815   5.720   6.417 -0.8364 -0.0111  0.2162
  392MOL0     O51670   6.902   5.803   6.481 -0.1133 -0.8928 -0.2595
  392MOL0     C51671   6.907   5.941   6.438 -0.7841  0.0612  0.5192
  392MOL0     C51672   7.026   6.028   6.498  0.7037  0.6269  0.1880
  392MOL0     C51673   6.998   6.059   6.648 -0.4205  0.1078 -0.0075
  392MOL0     C51674   6.882   6.148   6.685  0.9806 -0.6366  0.5026
  392MOL0     C51675   6.894   6.193   6.831  0.0571  1.0233  0.5661
  392MOL0     C51676   6.891   6.249   6.941 -0.0402  0.1214  0.2673
  392MOL0     C51677   6.687   5.742   6.393 -0.1228  0.2831  0.1428
  392MOL0     C51678   6.600   5.648   6.329 -0.3377 -0.0009  0.8112
  392MOL0     H51679   6.348   5.256   6.104 -4.2564 -4.1439  1.0084
  392MOL0     H51680   6.274   5.036   6.046  0.2802 -1.3329  0.1655
  392MOL0     H51681   6.466   4.759   6.219  2.8107 -0.0252 -1.2679
  392MOL0     H51682   6.464   4.638   6.107  2.0167  1.0290 -2.0041
  392MOL0     H51683   6.211   4.803   6.162  4.8189  1.1750  0.2968
  392MOL0     H51684   6.256   4.687   6.280  0.1044  0.6637 -0.4076
  392MOL0     H51685   6.112   4.559   6.148  0.7217  0.0025  1.6263
  392MOL0     H51686   6.278   4.509   6.088  0.9803  0.2488  2.3981
  392MOL0     H51687   6.071   4.692   5.934 -2.0177 -2.5677 -0.4369
  392MOL0     H51688   6.244   4.673   5.893 -0.5151 -0.6547 -2.0960
  392MOL0     H51689   6.222   4.449   5.828  0.8512  2.0628 -0.1768
  392MOL0     H51690   6.105   4.543   5.741  1.7516 -0.2168 -0.6909
  392MOL0     H51691   6.040   4.354   5.975  1.3662  3.6363  2.6610
  392MOL0     H51692   5.995   4.346   5.811 -0.7027  0.0788  0.3918
  392MOL0     H51693   5.907   4.549   6.013 -1.3836 -1.4550  1.5018
  392MOL0     H51694   5.848   4.550   5.841  1.3300  2.4171  0.2055
  392MOL0     H51695   5.701   4.440   6.031  3.0986 -0.8645  3.5634
  392MOL0     H51696   5.824   4.307   6.028  0.1577 -0.1295 -0.1158
  392MOL0     H51697   5.841   4.171   5.788  0.1885  0.0035 -1.5829
  392MOL0     H51698   5.591   4.126   5.504  0.3173  2.3772 -2.0944
  392MOL0     H51699   5.733   4.052   5.562 -1.3287 -0.6115  1.8951
  392MOL0     H51700   5.777   4.184   5.345 -2.0810  1.1073 -0.1785
  392MOL0     H51701   5.868   4.252   5.473 -0.6748  0.0594  1.8723
  392MOL0     H51702   5.727   4.449   5.471  0.9933  0.2696 -0.6090
  392MOL0     H51703   5.793   4.408   5.311 -3.2015  1.7445 -2.3347
  392MOL0     H51704   5.552   4.452   5.278 -0.5299 -1.5413 -0.8092
  392MOL0     H51705   5.518   4.366   5.424 -1.1386  2.3470 -0.5504
  392MOL0     H51706   5.506   4.112   5.039 -0.6816 -2.5779  1.9738
  392MOL0     H51707   5.270   4.068   4.944 -1.3394  1.3182 -0.3878
  392MOL0     H51708   4.844   3.894   4.822 -1.9944  0.3910  0.0942
  392MOL0     H51709   4.725   3.928   4.616  0.6069 -0.7108 -0.2801
  392MOL0     H51710   4.917   4.201   4.295 -0.3153  0.3340 -0.2825
  392MOL0     H51711   4.842   4.314   4.408  2.7002 -0.4979 -0.2146
  392MOL0     H51712   4.710   4.166   4.179 -0.0819 -0.7313  1.9958
  392MOL0     H51713   4.749   4.338   4.188 -1.1411 -1.4505 -3.1120
  392MOL0     H51714   4.587   4.359   4.380  1.5563 -0.6260  0.2155
  392MOL0     H51715   4.553   4.192   4.383 -0.2341  2.0281  2.8209
  392MOL0     H51716   4.497   4.217   4.129  2.3641  0.5211  0.4636
  392MOL0     H51717   4.374   4.249   4.257 -0.1127  0.2784 -0.1233
  392MOL0     H51718   4.568   4.462   4.144  1.2183 -3.3914  1.0841
  392MOL0     H51719   4.422   4.483   4.238  1.0189 -0.9677  0.9280
  392MOL0     H51720   4.283   4.431   4.029 -0.0457 -1.6217  4.6008
  392MOL0     H51721   4.428   4.371   3.948  1.2868 -0.7751  0.4853
  392MOL0     H51722   4.373   4.656   4.041 -1.3374 -3.4424  3.8059
  392MOL0     H51723   4.527   4.605   3.970 -0.0293 -0.7941  1.0650
  392MOL0     H51724   4.395   4.699   3.783  3.4757  0.1354  2.8990
  392MOL0     H51725   4.255   4.609   3.840 -0.3904 -1.9968  0.3368
  392MOL0     H51726   5.021   4.247   4.535  0.4020  0.3873 -0.5631
  392MOL0     H51727   5.107   4.221   4.745 -1.6178  2.2035  0.4049
  392MOL0     H51728   5.081   4.299   5.226 -2.1066 -1.7539 -0.5125
  392MOL0     H51729   5.296   4.345   5.345  0.4876 -0.4454 -1.0831
  392MOL0     H51730   6.660   4.871   6.093  0.6935  0.9409 -1.8506
  392MOL0     H51731   6.738   5.095   6.188 -0.3820  0.6404  1.8012
  392MOL0     H51732   6.820   5.395   6.287 -3.1030 -2.7316  4.7832
  392MOL0     H51733   6.965   5.565   6.420  2.0045  3.3950 -4.3223
  392MOL0     H51734   6.814   5.987   6.473 -0.3585  0.7116  0.8173
  392MOL0     H51735   6.909   5.946   6.329  1.6606 -0.9555  0.4480
  392MOL0     H51736   7.117   5.968   6.496 -0.1767 -0.7238 -1.7872
  392MOL0     H51737   7.037   6.123   6.445  0.2871  1.0510  0.8360
  392MOL0     H51738   7.087   6.110   6.686 -1.6473  3.6378 -1.4277
  392MOL0     H51739   7.001   5.967   6.707  0.9786  0.9032  1.2403
  392MOL0     H51740   6.904   6.236   6.623  0.2148 -1.1246 -0.5109
  392MOL0     H51741   6.785   6.111   6.649  1.6264 -2.1377  0.2599
  392MOL0     H51742   6.897   6.299   7.036  1.2420  0.6430 -0.0730
  392MOL0     H51743   6.644   5.841   6.405  0.7885  0.6622  0.3361
  392MOL0     H51744   6.498   5.674   6.304  0.4319  0.3769 -2.2890
  393MOL0     O51745   7.423  10.004  11.040 -0.2311  0.2442  1.0406
  393MOL0     C51746   7.470   9.952  11.137  0.0235 -0.3751 -0.4415
  393MOL0     O51747   7.493   9.823  11.156 -0.2473  0.0028 -0.3695
  393MOL0     C51748   7.451   9.739  11.060  0.0207  0.5568  0.2570
  393MOL0     C51749   7.543   9.679  10.973  0.6028 -1.0116  0.5432
  393MOL0     C51750   7.493   9.593  10.868  0.1088  0.2361  0.0130
  393MOL0     C51751   7.349   9.572  10.855  0.2250 -0.1391 -0.2835
  393MOL0     O51752   7.294   9.481  10.763 -0.3726 -0.2725 -0.3745
  393MOL0     C51753   7.352   9.354  10.743 -0.3705  0.1841  0.7074
  393MOL0     C51754   7.261   9.261  10.663 -0.3641  0.5334  0.0606
  393MOL0     C51755   7.253   9.317  10.516 -0.1725  0.1094  0.9049
  393MOL0     C51756   7.117   9.301  10.447 -0.1069 -0.3188 -0.6334
  393MOL0     C51757   7.097   9.380  10.311  0.3039 -0.0102  0.9234
  393MOL0     C51758   6.945   9.401  10.278  0.7708 -0.6037  0.8426
  393MOL0     C51759   6.916   9.448  10.136 -0.0331 -0.5296 -0.6291
  393MOL0     C51760   6.771   9.498  10.119 -0.6670  0.2562 -0.3670
  393MOL0     N51761   6.682   9.390  10.172  0.4517 -0.5386  0.1484
  393MOL0     C51762   6.603   9.303  10.096 -0.2439 -0.6100  0.0638
  393MOL0     C51763   6.519   9.244  10.184 -1.0921 -0.4300 -0.4827
  393MOL0     C51764   6.408   9.140  10.162  0.4944 -0.2760 -0.4406
  393MOL0     C51765   6.288   9.186  10.237 -0.2186  0.2203 -0.3019
  393MOL0     C51766   6.210   9.305  10.172  0.7337 -0.0274 -0.4173
  393MOL0     C51767   6.055   9.294  10.177 -0.3727  0.0821  0.5835
  393MOL0     O51768   6.011   9.170  10.123 -0.9392 -0.5048  0.7706
  393MOL0     C51769   5.882   9.135  10.107  1.4962 -1.2036  0.6554
  393MOL0     C51770   5.857   9.005  10.074  0.7891  0.2847  0.6197
  393MOL0     C51771   5.733   8.958  10.075 -0.5556  0.0661  0.7818
  393MOL0     C51772   5.619   9.042  10.094 -0.8722 -0.0378  0.1826
  393MOL0     C51773   5.485   8.987  10.079  1.2300  0.7377 -0.8005
  393MOL0     O51774   5.470   8.875  10.002 -0.8407  0.4501 -0.6172
  393MOL0     C51775   5.343   8.844   9.962 -0.3259 -0.9294 -0.4545
  393MOL0     C51776   5.334   8.787   9.836 -0.4832  0.4262 -0.6978
  393MOL0     C51777   5.209   8.737   9.789 -0.0897 -0.5550  0.6137
  393MOL0     C51778   5.093   8.751   9.853 -0.5626 -0.0070  0.2592
  393MOL0     O51779   4.976   8.739   9.780  0.1370 -0.4227  0.2120
  393MOL0     C51780   4.924   8.857   9.727  0.0171 -1.3334  1.1025
  393MOL0     C51781   4.787   8.810   9.669 -0.3273  0.3434  0.3697
  393MOL0     C51782   4.683   8.788   9.774 -0.7869  0.4723  1.0560
  393MOL0     C51783   4.548   8.783   9.708  0.3904  0.3686 -0.4727
  393MOL0     C51784   4.441   8.751   9.808  1.1528 -0.2696 -0.7699
  393MOL0     C51785   4.365   8.870   9.883  0.7988 -0.6097  0.3456
  393MOL0     C51786   4.308   8.833  10.017 -1.5882 -0.3247 -0.0775
  393MOL0     C51787   4.189   8.735  10.031 -0.5932  0.8970  1.1186
  393MOL0    Cl51788   4.227   8.586  10.125 -0.1097 -0.0015 -0.1504
  393MOL0     C51789   5.096   8.806   9.979  0.5051 -0.8532  0.5509
  393MOL0     C51790   5.217   8.850  10.036 -0.9928 -0.5263  0.4814
  393MOL0     O51791   5.402   9.053  10.140  0.3201 -0.4232  0.1476
  393MOL0     C51792   5.636   9.178  10.130 -0.4807 -0.9369  0.4601
  393MOL0     C51793   5.766   9.223  10.133  0.5391 -0.1495  0.7466
  393MOL0     N51794   6.533   9.296  10.313 -0.0426 -0.5687  0.2455
  393MOL0     N51795   6.636   9.385  10.301 -0.6618 -0.1317 -0.0235
  393MOL0     C51796   7.260   9.633  10.950  1.0055  0.5509  0.4573
  393MOL0     C51797   7.313   9.705  11.052 -0.5082  1.3961  0.8350
  393MOL0     C51798   7.545  10.051  11.232  1.4409 -0.5852 -0.8607
  393MOL0     C51799   7.610  10.009  11.354 -0.2387 -0.3855  1.2315
  393MOL0     C51800   7.683  10.102  11.422 -0.7785 -0.1519 -0.9472
  393MOL0     C51801   7.696  10.239  11.386  0.1604  0.3772 -0.8431
  393MOL0     O51802   7.763  10.325  11.469 -0.7232  0.2523 -0.1096
  393MOL0     C51803   7.773  10.465  11.432 -0.4564 -0.1295  0.0696
  393MOL0     C51804   7.886  10.532  11.506 -0.6852  0.1900  0.0909
  393MOL0     C51805   8.018  10.466  11.467 -0.6339 -0.0470  0.0586
  393MOL0     C51806   8.125  10.503  11.571 -0.1099  0.6241  0.0450
  393MOL0     C51807   8.250  10.424  11.552  0.4197  0.0056  0.4093
  393MOL0     C51808   8.341  10.348  11.535  1.1475 -0.6669 -1.3278
  393MOL0     C51809   7.624  10.275  11.275  1.5097  0.6313  0.4366
  393MOL0     C51810   7.551  10.187  11.200  0.4444  0.2521  0.5258
  393MOL0     H51811   7.649   9.703  10.986  0.9932  0.4560 -3.8614
  393MOL0     H51812   7.555   9.529  10.807  1.4763 -0.7413  2.2673
  393MOL0     H51813   7.364   9.306  10.841 -2.1090 -2.3811 -0.2368
  393MOL0     H51814   7.452   9.358  10.698  0.4086  0.8523  2.4367
  393MOL0     H51815   7.163   9.247  10.709 -0.1153 -0.8340  0.2189
  393MOL0     H51816   7.310   9.164  10.654 -0.7575  0.4639 -1.9031
  393MOL0     H51817   7.333   9.264  10.463  0.8793  0.1607  2.3898
  393MOL0     H51818   7.270   9.425  10.520  2.2021 -0.2413  1.5127
  393MOL0     H51819   7.095   9.197  10.419  1.0341 -1.1133  1.2753
  393MOL0     H51820   7.036   9.329  10.515  2.2208  3.3598  0.9115
  393MOL0     H51821   7.131   9.322  10.224 -3.8697 -3.4599  1.2355
  393MOL0     H51822   7.142   9.479  10.325 -1.3920  0.7470  1.1996
  393MOL0     H51823   6.897   9.470  10.346  0.3323 -0.5288  0.4610
  393MOL0     H51824   6.908   9.300  10.298  0.3388 -0.4870  0.6316
  393MOL0     H51825   6.993   9.522  10.115 -1.3777  1.1178  0.0432
  393MOL0     H51826   6.919   9.372  10.057 -2.5547 -0.8174 -0.5311
  393MOL0     H51827   6.746   9.505  10.013 -2.4807  1.6788  0.0939
  393MOL0     H51828   6.765   9.601  10.157  2.2345  1.4770 -2.7931
  393MOL0     H51829   6.615   9.279   9.991 -4.1693 -1.3346 -0.3936
  393MOL0     H51830   6.432   9.036  10.186  1.2521 -0.0297 -0.0570
  393MOL0     H51831   6.386   9.159  10.057 -1.7760  1.2437  0.2372
  393MOL0     H51832   6.310   9.210  10.341 -1.0685 -1.8592  0.4167
  393MOL0     H51833   6.225   9.099  10.257  0.9855  0.4060  6.3139
  393MOL0     H51834   6.244   9.397  10.220  2.1390 -0.3128 -0.8158
  393MOL0     H51835   6.229   9.333  10.068 -0.7858  2.5725 -0.0780
  393MOL0     H51836   6.020   9.378  10.116  0.4128 -0.5855 -0.8545
  393MOL0     H51837   6.026   9.316  10.280 -1.2167 -0.6801  0.5229
  393MOL0     H51838   5.945   8.946  10.054  0.0872  0.4551 -4.0422
  393MOL0     H51839   5.715   8.852  10.063 -4.8181  0.0126  4.8430
  393MOL0     H51840   5.426   8.775   9.778  0.9924 -1.0628  1.7968
  393MOL0     H51841   5.197   8.699   9.688  2.7802  0.6081 -0.2667
  393MOL0     H51842   4.989   8.901   9.650 -0.6906  4.3286  3.2265
  393MOL0     H51843   4.904   8.941   9.794 -2.1728 -0.4892 -0.4705
  393MOL0     H51844   4.803   8.720   9.610 -3.1641  0.3584 -0.5755
  393MOL0     H51845   4.749   8.875   9.590 -1.6997 -2.2784 -1.2436
  393MOL0     H51846   4.675   8.877   9.837  0.4554  0.5666  1.1053
  393MOL0     H51847   4.731   8.711   9.835  1.7479  2.7985  2.2704
  393MOL0     H51848   4.531   8.877   9.655 -1.2878 -0.4250 -1.4476
  393MOL0     H51849   4.555   8.701   9.636  0.9030 -0.2426  0.2640
  393MOL0     H51850   4.476   8.686   9.889  2.6350  1.4642  0.0416
  393MOL0     H51851   4.364   8.696   9.752  0.1575 -0.3938  0.6619
  393MOL0     H51852   4.284   8.905   9.818  2.4422 -0.8175 -1.9327
  393MOL0     H51853   4.434   8.951   9.908 -1.0609  0.8908  0.9265
  393MOL0     H51854   4.392   8.785  10.068  0.1963  2.4915 -0.1636
  393MOL0     H51855   4.276   8.916  10.080  1.7255  2.6687 -2.0020
  393MOL0     H51856   4.149   8.703   9.934 -0.0542 -1.5224  1.6353
  393MOL0     H51857   4.097   8.786  10.061 -1.5392  1.7447 -2.6637
  393MOL0     H51858   5.003   8.801  10.036 -0.5674  2.4155 -0.6551
  393MOL0     H51859   5.225   8.897  10.133  0.2073  1.4354 -0.4965
  393MOL0     H51860   5.556   9.250  10.145 -0.6683 -1.2030  0.7480
  393MOL0     H51861   5.789   9.327  10.154  1.0877  0.4961 -2.4403
  393MOL0     H51862   7.152   9.620  10.950  0.7439  2.5145  0.2495
  393MOL0     H51863   7.241   9.754  11.116 -0.4652  2.5851 -0.0118
  393MOL0     H51864   7.605   9.903  11.377  0.1459 -0.6927 -0.0506
  393MOL0     H51865   7.752  10.075  11.502 -0.0225 -0.1829 -1.5936
  393MOL0     H51866   7.677  10.516  11.446  1.2554  4.0577 -1.8821
  393MOL0     H51867   7.806  10.475  11.328  1.0918  2.4252  0.7236
  393MOL0     H51868   7.888  10.639  11.482 -0.5143  1.1779  3.9160
  393MOL0     H51869   7.879  10.531  11.615 -0.2426  0.5487  0.1259
  393MOL0     H51870   8.059  10.506  11.373 -1.3176 -1.6285 -0.9484
  393MOL0     H51871   8.021  10.356  11.465 -0.6785 -0.0613  0.8330
  393MOL0     H51872   8.152  10.607  11.547  0.4837 -0.2358 -3.5563
  393MOL0     H51873   8.084  10.487  11.671  1.6562  0.7239  0.8266
  393MOL0     H51874   8.420  10.276  11.545 -0.0776 -1.7893  0.7515
  393MOL0     H51875   7.626  10.377  11.239  2.9030  0.1569 -0.9540
  393MOL0     H51876   7.499  10.223  11.112 -0.3414  1.6680  1.5191
  394MOL0     O51877   9.433   3.541   3.866  0.0131 -0.1230 -0.4961
  394MOL0     C51878   9.422   3.629   3.963 -0.4054  0.6783  0.3791
  394MOL0     O51879   9.488   3.752   3.953  0.6689 -0.1030 -0.0572
  394MOL0     C51880   9.558   3.796   3.844  0.0598  0.1474  0.5487
  394MOL0     C51881   9.680   3.737   3.814 -0.5918 -0.5353  0.0361
  394MOL0     C51882   9.764   3.773   3.704  0.5421  0.6391 -0.3647
  394MOL0     C51883   9.715   3.875   3.615  0.3164  0.1438  0.2597
  394MOL0     O51884   9.788   3.919   3.508  0.2972  0.2178 -0.1322
  394MOL0     C51885   9.848   3.837   3.408  0.5594  0.7825  0.1556
  394MOL0     C51886  10.000   3.848   3.387 -0.3523  0.2260 -0.1237
  394MOL0     C51887  10.058   3.975   3.341  0.6687 -0.0900  0.1976
  394MOL0     C51888  10.204   3.958   3.284 -0.4129  0.5440 -0.5728
  394MOL0     C51889  10.260   4.088   3.231  0.4732 -0.2657 -0.7340
  394MOL0     C51890  10.217   4.120   3.089  0.5442  0.5512 -0.0534
  394MOL0     C51891  10.287   4.241   3.029  0.2603 -0.6977  0.1110
  394MOL0     C51892  10.271   4.249   2.866 -0.6909  0.0415 -1.1075
  394MOL0     N51893  10.131   4.263   2.827  1.0461 -0.1081  0.6359
  394MOL0     C51894  10.040   4.363   2.835  0.1225 -0.0066  0.3416
  394MOL0     C51895   9.930   4.320   2.764 -0.1309  0.2580 -0.2602
  394MOL0     C51896   9.811   4.402   2.744 -0.9457 -0.6732  0.0111
  394MOL0     C51897   9.834   4.511   2.642 -0.2485 -0.6567  1.3126
  394MOL0     C51898   9.820   4.456   2.495  0.1612 -0.3789 -0.6227
  394MOL0     C51899   9.901   4.521   2.383  0.1962  0.2731  0.2429
  394MOL0     O51900   9.900   4.667   2.370  0.0802  0.7725 -0.0572
  394MOL0     C51901   9.997   4.739   2.428  1.0416  0.4376 -0.0880
  394MOL0     C51902  10.131   4.738   2.382  0.0079  0.2020  0.0811
  394MOL0     C51903  10.227   4.823   2.441 -0.0947  0.8016 -0.5259
  394MOL0     C51904  10.192   4.917   2.539  0.1751  0.4581 -0.5258
  394MOL0     C51905  10.300   5.001   2.598  0.2865 -0.2939 -0.8874
  394MOL0     O51906  10.427   4.949   2.599  0.6461  0.3664  0.2683
  394MOL0     C51907  10.524   5.043   2.628  0.5070 -0.1479  0.0621
  394MOL0     C51908  10.609   5.038   2.740 -0.0377 -0.0759  1.1012
  394MOL0     C51909  10.710   5.124   2.767 -0.1991 -0.1491 -0.1340
  394MOL0     C51910  10.717   5.241   2.699 -0.5677  0.7305  0.6184
  394MOL0     O51911  10.818   5.319   2.735 -0.4630  0.7407 -0.0796
  394MOL0     C51912  10.925   5.337   2.642 -0.0912 -0.6450  1.0769
  394MOL0     C51913  10.977   5.208   2.585 -0.2998 -0.5876  0.5662
  394MOL0     C51914  11.082   5.251   2.490 -0.4266 -0.3619 -0.1919
  394MOL0     C51915  11.139   5.151   2.401  0.8630  0.3497 -0.8960
  394MOL0     C51916  11.238   5.214   2.304  0.3625 -0.8635  0.4269
  394MOL0     C51917  11.277   5.111   2.212 -1.1094 -0.9236  0.0695
  394MOL0     C51918  11.383   5.168   2.113 -0.0188  0.0608 -0.4768
  394MOL0     C51919  11.378   5.124   1.957  0.2285 -0.0006 -0.0401
  394MOL0    Cl51920  11.225   5.191   1.879  0.2284 -0.4656 -0.3125
  394MOL0     C51921  10.640   5.258   2.582  0.8188  0.0482 -0.4622
  394MOL0     C51922  10.541   5.164   2.547  0.3475  0.6242 -0.6885
  394MOL0     O51923  10.265   5.112   2.640 -0.0742 -0.2836 -0.2783
  394MOL0     C51924  10.059   4.915   2.594 -0.4818  0.0786 -0.2194
  394MOL0     C51925   9.961   4.825   2.536 -0.1940  0.0852  0.8850
  394MOL0     N51926   9.955   4.199   2.708  0.2075 -0.0822 -0.2728
  394MOL0     N51927  10.064   4.166   2.757  0.2676 -0.5264 -0.6167
  394MOL0     C51928   9.584   3.921   3.634  1.1399 -0.1165  0.5689
  394MOL0     C51929   9.517   3.896   3.749  0.3553 -0.0248  0.4781
  394MOL0     C51930   9.334   3.585   4.073  0.3103  0.6109 -0.6730
  394MOL0     C51931   9.254   3.465   4.067  0.4289 -0.3682  0.7872
  394MOL0     C51932   9.169   3.432   4.177  0.3515  0.1575 -1.2662
  394MOL0     C51933   9.162   3.508   4.295 -0.1837 -0.5054  0.7083
  394MOL0     O51934   9.060   3.479   4.385 -0.3860  0.2938 -0.1552
  394MOL0     C51935   9.028   3.576   4.491 -0.2248 -0.5201  0.2531
  394MOL0     C51936   8.947   3.694   4.422 -0.1343  0.9135 -0.5480
  394MOL0     C51937   8.852   3.756   4.516 -0.4159  0.3758  0.1340
  394MOL0     C51938   8.844   3.903   4.502  0.8404  0.1464  0.1344
  394MOL0     C51939   8.781   3.985   4.602 -0.2786 -0.0485  0.2572
  394MOL0     C51940   8.719   4.057   4.676  0.0360 -0.7610 -0.8911
  394MOL0     C51941   9.256   3.615   4.302  0.0146 -0.0073  0.7930
  394MOL0     C51942   9.334   3.655   4.192 -0.2306 -0.3685  1.0683
  394MOL0     H51943   9.715   3.660   3.882 -0.2541  1.0352  1.7109
  394MOL0     H51944   9.861   3.724   3.703 -0.3668 -1.2875  0.4096
  394MOL0     H51945   9.808   3.856   3.308  0.4596 -1.0605 -0.1917
  394MOL0     H51946   9.826   3.732   3.430  2.2286  0.5372  0.7905
  394MOL0     H51947  10.015   3.774   3.308 -2.1118  1.0349 -1.2863
  394MOL0     H51948  10.061   3.809   3.469 -0.1987  0.1509 -0.2724
  394MOL0     H51949  10.050   4.048   3.422 -0.6964 -1.0874  1.0003
  394MOL0     H51950   9.993   4.011   3.261  0.3765 -2.2827 -0.6202
  394MOL0     H51951  10.268   3.926   3.367  1.4033  1.1216 -1.6744
  394MOL0     H51952  10.213   3.891   3.198  2.4639  0.6444 -0.4438
  394MOL0     H51953  10.368   4.097   3.244  0.1197  1.5226  1.9749
  394MOL0     H51954  10.224   4.171   3.293  3.0485 -1.7805  3.2403
  394MOL0     H51955  10.110   4.141   3.083 -0.0443 -1.5144  1.7774
  394MOL0     H51956  10.235   4.028   3.033  5.3720 -1.5975  4.1269
  394MOL0     H51957  10.239   4.327   3.078  3.7131  0.4142  1.8501
  394MOL0     H51958  10.393   4.239   3.056  0.4854 -0.2121 -0.7003
  394MOL0     H51959  10.294   4.148   2.830 -2.3206 -1.6876  2.2480
  394MOL0     H51960  10.333   4.326   2.818 -1.3606 -0.3903 -2.7268
  394MOL0     H51961  10.049   4.458   2.886 -0.3283  0.0384  0.3406
  394MOL0     H51962   9.786   4.451   2.838 -0.1950 -3.1841  1.6195
  394MOL0     H51963   9.736   4.325   2.729 -1.5784 -0.6715  2.7170
  394MOL0     H51964   9.935   4.552   2.644 -0.1053 -0.7253 -1.5098
  394MOL0     H51965   9.766   4.597   2.649  2.6941  2.0206 -0.4171
  394MOL0     H51966   9.841   4.349   2.495 -1.8446 -0.8197 -2.3607
  394MOL0     H51967   9.713   4.468   2.477  0.2425  2.0261  0.2038
  394MOL0     H51968   9.841   4.490   2.297 -4.8634  0.6573  3.2911
  394MOL0     H51969  10.002   4.477   2.376  0.6813  1.0240  2.0698
  394MOL0     H51970  10.157   4.679   2.294 -3.0077  2.0117 -2.2343
  394MOL0     H51971  10.328   4.819   2.400 -0.1735 -0.8863 -0.6279
  394MOL0     H51972  10.582   4.952   2.801 -0.1830 -2.1276 -1.6299
  394MOL0     H51973  10.773   5.120   2.855  2.9805  0.1541 -2.2440
  394MOL0     H51974  11.004   5.371   2.710 -0.3556  0.0923  1.0259
  394MOL0     H51975  10.895   5.419   2.575 -0.1474 -0.8121  0.8969
  394MOL0     H51976  10.888   5.154   2.552 -0.3038 -0.5470  0.5116
  394MOL0     H51977  11.035   5.163   2.666  2.5760  0.8129 -0.5909
  394MOL0     H51978  11.161   5.308   2.540 -0.8641  1.0879 -1.1151
  394MOL0     H51979  11.046   5.321   2.415  1.8229 -0.3713 -1.3466
  394MOL0     H51980  11.190   5.073   2.458 -2.8230 -2.5938 -1.2258
  394MOL0     H51981  11.053   5.102   2.354 -0.4322  0.9853  0.6974
  394MOL0     H51982  11.332   5.243   2.353  1.8495  0.7321 -2.9777
  394MOL0     H51983  11.195   5.302   2.255  1.9593  0.8431  1.9358
  394MOL0     H51984  11.189   5.090   2.150 -2.1860  2.8178  0.0647
  394MOL0     H51985  11.328   5.024   2.252  1.7558  0.1281 -1.0221
  394MOL0     H51986  11.371   5.276   2.099  1.9414  0.2356 -1.1045
  394MOL0     H51987  11.481   5.139   2.151  0.3495  0.8584 -0.7917
  394MOL0     H51988  11.388   5.015   1.959  4.7212  0.0652 -3.6581
  394MOL0     H51989  11.472   5.147   1.907 -0.5973 -1.4049 -2.3933
  394MOL0     H51990  10.659   5.338   2.511  0.8377  1.1438  0.7538
  394MOL0     H51991  10.481   5.166   2.457  0.5936 -4.8902 -1.3315
  394MOL0     H51992  10.016   4.982   2.668 -2.1095  0.5043 -1.4789
  394MOL0     H51993   9.862   4.822   2.580 -1.1373  2.3523 -0.8791
  394MOL0     H51994   9.541   3.985   3.558  1.5449  0.6383  0.9744
  394MOL0     H51995   9.431   3.962   3.758  1.6608  1.6683  1.0212
  394MOL0     H51996   9.252   3.412   3.973  2.8885  2.5249 -1.0839
  394MOL0     H51997   9.108   3.342   4.175  0.8784 -0.2429 -3.8672
  394MOL0     H51998   9.114   3.625   4.537 -0.2688  0.1277 -0.3346
  394MOL0     H51999   8.973   3.521   4.568 -1.7371 -0.0742 -0.4681
  394MOL0     H52000   9.013   3.767   4.373  0.5085  0.7450  0.0587
  394MOL0     H52001   8.888   3.652   4.340  0.0195 -0.5429  0.0483
  394MOL0     H52002   8.882   3.728   4.617  1.7716  1.8312 -0.0204
  394MOL0     H52003   8.755   3.714   4.488 -2.0875  4.1439 -0.3496
  394MOL0     H52004   8.949   3.936   4.502  1.1807 -0.9028  0.7779
  394MOL0     H52005   8.800   3.924   4.404 -0.8624 -1.9202  0.3923
  394MOL0     H52006   8.664   4.116   4.746 -0.4303 -2.5189  0.3018
  394MOL0     H52007   9.283   3.670   4.392  3.2921 -2.3039  1.3838
  394MOL0     H52008   9.388   3.748   4.186 -0.5634 -0.1592  1.2529
  395MOL0     O52009   5.983  10.182   7.526  0.0253  0.4835  1.0730
  395MOL0     C52010   5.888  10.115   7.557  0.0807 -0.2666 -0.4702
  395MOL0     O52011   5.862  10.057   7.683  0.3577 -0.1787  0.2489
  395MOL0     C52012   5.933  10.103   7.786  0.1536  0.7734  0.9786
  395MOL0     C52013   5.988  10.234   7.791 -0.4364 -0.1060 -0.2559
  395MOL0     C52014   6.032  10.296   7.909 -0.6299 -0.3313  0.8693
  395MOL0     C52015   6.025  10.226   8.031 -0.8013 -0.2717  0.1805
  395MOL0     O52016   6.069  10.296   8.138  0.2791 -0.7853 -0.3004
  395MOL0     C52017   6.077  10.233   8.272 -0.4158 -0.1646 -0.7393
  395MOL0     C52018   6.199  10.144   8.305  0.2872  0.1217  0.2063
  395MOL0     C52019   6.330  10.218   8.343  0.4628  1.1604 -0.3055
  395MOL0     C52020   6.459  10.133   8.329  0.5238 -0.1256 -0.0684
  395MOL0     C52021   6.580  10.230   8.344  0.7936 -0.2266  0.3145
  395MOL0     C52022   6.703  10.155   8.296 -0.2314 -0.8259 -0.7722
  395MOL0     C52023   6.831  10.251   8.317  0.9662 -0.4052  0.5921
  395MOL0     C52024   6.871  10.291   8.453  0.2562 -0.4192 -0.2674
  395MOL0     N52025   6.909  10.189   8.558 -0.1955 -1.2142  0.4183
  395MOL0     C52026   6.820  10.123   8.638  0.7051  0.1264  0.1271
  395MOL0     C52027   6.895  10.051   8.727 -0.6283  0.3902  0.5346
  395MOL0     C52028   6.838   9.973   8.844  0.4116  0.1556  0.1002
  395MOL0     C52029   6.933   9.866   8.900 -0.3724 -1.1134  1.2105
  395MOL0     C52030   6.962   9.739   8.831 -0.4356 -0.5240 -0.1673
  395MOL0     C52031   6.862   9.683   8.725 -0.7976  0.7497  0.2426
  395MOL0     O52032   6.872   9.545   8.689  0.2084 -0.2944  0.2049
  395MOL0     C52033   6.942   9.515   8.574  0.9097  0.6177  0.2122
  395MOL0     C52034   6.895   9.398   8.503 -0.9983 -0.1143 -0.3732
  395MOL0     C52035   6.952   9.360   8.381  0.0027 -0.2182  0.0431
  395MOL0     C52036   7.061   9.434   8.333 -0.1981  0.6337 -0.8103
  395MOL0     C52037   7.126   9.380   8.204  0.6153  0.3730  0.4916
  395MOL0     O52038   7.246   9.431   8.169 -0.0947 -0.3356 -0.2712
  395MOL0     C52039   7.321   9.382   8.064  0.1742  0.2743  0.6272
  395MOL0     C52040   7.290   9.299   7.952  0.4188 -0.1567 -0.3743
  395MOL0     C52041   7.399   9.244   7.885 -0.2369  0.0820 -0.0817
  395MOL0     C52042   7.540   9.269   7.919  1.4698  0.7863  0.5868
  395MOL0     O52043   7.626   9.192   7.847 -0.4651  0.6060  1.3913
  395MOL0     C52044   7.697   9.251   7.733 -0.3634 -0.0771 -0.5853
  395MOL0     C52045   7.611   9.258   7.604  0.4997 -0.6239 -0.4649
  395MOL0     C52046   7.698   9.300   7.482  0.5478 -0.3030  0.0494
  395MOL0     C52047   7.609   9.349   7.369 -0.1156 -0.6376 -1.0426
  395MOL0     C52048   7.682   9.358   7.235  0.6843 -0.3453  0.6143
  395MOL0     C52049   7.712   9.220   7.170  0.1588  0.3106  0.0095
  395MOL0     C52050   7.584   9.140   7.151  0.1233  0.4686 -0.3159
  395MOL0     C52051   7.601   9.031   7.042 -0.4658 -0.6051 -0.5460
  395MOL0    Cl52052   7.633   9.090   6.889 -0.1375 -0.1670  0.1844
  395MOL0     C52053   7.564   9.361   8.023 -0.1305  0.8804  1.0088
  395MOL0     C52054   7.457   9.423   8.090 -0.0211 -0.1498 -0.3314
  395MOL0     O52055   7.069   9.287   8.141 -0.4266  0.3544 -0.0077
  395MOL0     C52056   7.101   9.548   8.395 -0.6312 -0.5851 -0.5591
  395MOL0     C52057   7.048   9.590   8.516  0.4299  0.2512  0.2454
  395MOL0     N52058   7.028  10.085   8.686 -0.7121  0.2218 -0.3985
  395MOL0     N52059   7.031  10.156   8.582 -0.6117 -0.3311  0.3068
  395MOL0     C52060   5.982  10.095   8.027 -0.4072 -0.6080  0.0952
  395MOL0     C52061   5.943  10.030   7.905  0.7334  0.3542 -0.4001
  395MOL0     C52062   5.814  10.054   7.455 -0.9197 -0.3649 -0.1999
  395MOL0     C52063   5.806  10.110   7.327  0.3683  0.0965  0.5009
  395MOL0     C52064   5.757  10.042   7.219 -0.0008 -0.0588  0.0998
  395MOL0     C52065   5.703   9.910   7.229 -0.0141  0.2581  0.0377
  395MOL0     O52066   5.633   9.843   7.132  0.0464 -0.1334 -0.4215
  395MOL0     C52067   5.634   9.888   6.997 -0.2531  0.3820 -0.0853
  395MOL0     C52068   5.770   9.874   6.932  0.3733  0.1427  0.1012
  395MOL0     C52069   5.759   9.940   6.793  0.8032 -0.4875 -0.3253
  395MOL0     C52070   5.888   9.996   6.738  0.3293  0.2722 -0.1257
  395MOL0     C52071   5.865  10.045   6.594  1.1636  0.0542  0.1329
  395MOL0     C52072   5.836  10.095   6.492  0.1624 -0.9457  0.1031
  395MOL0     C52073   5.722   9.840   7.352 -0.4662 -0.4390  0.7429
  395MOL0     C52074   5.773   9.913   7.462 -0.4678 -0.2913 -0.1022
  395MOL0     H52075   5.998  10.309   7.713 -1.6265  0.7516  0.3927
  395MOL0     H52076   6.060  10.400   7.917 -2.4239  0.4305 -1.5473
  395MOL0     H52077   5.980  10.186   8.293 -0.4686  0.3962  0.3124
  395MOL0     H52078   6.083  10.317   8.341  5.5407 -1.0277  0.3117
  395MOL0     H52079   6.219  10.087   8.214  2.2587  0.5157  0.3283
  395MOL0     H52080   6.167  10.080   8.388  1.4550 -0.5361  0.1852
  395MOL0     H52081   6.309  10.254   8.445 -0.3779  5.0680 -1.6882
  395MOL0     H52082   6.337  10.307   8.281 -2.2396  3.3811  2.2632
  395MOL0     H52083   6.456  10.055   8.406  1.9469 -1.7917 -1.6320
  395MOL0     H52084   6.463  10.078   8.235  1.3686  0.3096 -0.3007
  395MOL0     H52085   6.598  10.252   8.449 -1.3256  0.2216  0.6219
  395MOL0     H52086   6.567  10.320   8.284  2.7255  1.6094  2.4900
  395MOL0     H52087   6.689  10.125   8.192 -0.7965 -2.3663 -0.2785
  395MOL0     H52088   6.721  10.055   8.337  2.3505 -0.6237 -1.2179
  395MOL0     H52089   6.915  10.200   8.271 -0.5544 -0.4963 -2.3098
  395MOL0     H52090   6.815  10.345   8.263 -2.5627 -0.3315  1.4789
  395MOL0     H52091   6.799  10.362   8.495 -0.6116 -0.2183 -1.9879
  395MOL0     H52092   6.957  10.354   8.432  1.2779 -1.3881  0.9045
  395MOL0     H52093   6.712  10.139   8.636  0.9081  3.3750  3.5762
  395MOL0     H52094   6.747   9.915   8.822 -0.5120  1.4618  0.3308
  395MOL0     H52095   6.814  10.054   8.913  0.7688 -0.2281  0.6790
  395MOL0     H52096   6.885   9.836   8.993 -1.7154  1.3519  1.4106
  395MOL0     H52097   7.032   9.907   8.922  0.4317 -0.3786 -2.8216
  395MOL0     H52098   7.054   9.754   8.775  0.1190  1.0007  1.0652
  395MOL0     H52099   6.981   9.660   8.905 -0.6914  0.6582  1.1937
  395MOL0     H52100   6.860   9.744   8.634 -0.7258  0.8927  0.3379
  395MOL0     H52101   6.763   9.672   8.770  0.1547 -2.7931  1.8317
  395MOL0     H52102   6.827   9.334   8.558  0.1709 -1.2340 -0.1846
  395MOL0     H52103   6.919   9.262   8.348 -0.5885 -0.0320  0.0810
  395MOL0     H52104   7.184   9.278   7.938  0.1831  0.7395 -0.0154
  395MOL0     H52105   7.375   9.189   7.795  0.8590  1.5029 -1.2953
  395MOL0     H52106   7.783   9.189   7.704 -0.4607  0.5814 -2.4339
  395MOL0     H52107   7.732   9.352   7.758  1.1284 -0.6105 -0.4380
  395MOL0     H52108   7.533   9.334   7.618 -0.0203 -1.4107  1.0964
  395MOL0     H52109   7.565   9.162   7.581  1.2240 -1.3304  0.9152
  395MOL0     H52110   7.747   9.209   7.445  0.1553  0.4249 -2.4567
  395MOL0     H52111   7.765   9.381   7.514 -1.1857  0.5332  1.7501
  395MOL0     H52112   7.521   9.285   7.362 -0.8520  0.3111 -0.6851
  395MOL0     H52113   7.577   9.450   7.396 -1.4220 -1.1462 -0.5843
  395MOL0     H52114   7.775   9.412   7.257  1.0024  0.2728 -2.0165
  395MOL0     H52115   7.627   9.430   7.174  0.3840 -1.1567 -0.0981
  395MOL0     H52116   7.772   9.162   7.240 -1.1212 -2.1812 -0.8304
  395MOL0     H52117   7.767   9.227   7.076 -0.4496  1.1202 -0.2940
  395MOL0     H52118   7.571   9.087   7.246  1.4198 -0.3570 -0.5876
  395MOL0     H52119   7.495   9.196   7.120 -0.3204  2.3341  3.5887
  395MOL0     H52120   7.528   8.950   7.035 -4.7723  2.9780 -3.2375
  395MOL0     H52121   7.696   8.985   7.070 -1.2109 -1.9280 -0.1318
  395MOL0     H52122   7.661   9.374   8.070  1.1178 -1.6447 -0.6669
  395MOL0     H52123   7.482   9.490   8.171 -0.4153  0.7009 -0.9099
  395MOL0     H52124   7.186   9.601   8.353  0.2517 -1.0262  0.6252
  395MOL0     H52125   7.091   9.671   8.574 -2.5367  0.2160  2.7507
  395MOL0     H52126   5.962  10.053   8.125  3.5544 -0.0245  1.3544
  395MOL0     H52127   5.904   9.929   7.905 -0.0692  0.4374  4.2943
  395MOL0     H52128   5.836  10.214   7.317 -1.0450  0.6780  1.8529
  395MOL0     H52129   5.769  10.102   7.130  1.3153  2.9649  2.1404
  395MOL0     H52130   5.603   9.993   6.989 -1.2414  0.0745 -0.4568
  395MOL0     H52131   5.558   9.838   6.937 -0.2074 -0.9886  0.9419
  395MOL0     H52132   5.853   9.918   6.987 -0.1039  1.0916  0.0857
  395MOL0     H52133   5.789   9.768   6.915 -2.1802 -0.1117 -2.0039
  395MOL0     H52134   5.679  10.015   6.793 -2.2123 -3.3578 -2.9960
  395MOL0     H52135   5.719   9.870   6.720  2.4442 -0.1970 -1.5468
  395MOL0     H52136   5.927  10.077   6.799 -1.8173  0.5420  0.9749
  395MOL0     H52137   5.967   9.920   6.743 -0.2255 -0.2532  0.7801
  395MOL0     H52138   5.804  10.155   6.410 -2.0734 -1.5462  0.4884
  395MOL0     H52139   5.695   9.738   7.375 -3.4469  0.4478  1.5517
  395MOL0     H52140   5.782   9.857   7.554 -0.4566 -1.9212 -1.0440
  396MOL0     O52141   1.095  11.203   4.251  1.0868 -0.7698  0.0752
  396MOL0     C52142   0.975  11.228   4.254  0.7213  0.3973  1.1643
  396MOL0     O52143   0.898  11.285   4.163 -0.7411 -0.4444 -0.2562
  396MOL0     C52144   0.953  11.380   4.085  0.3203 -0.7184 -0.1373
  396MOL0     C52145   0.960  11.352   3.940  0.2647 -0.7714  1.0556
  396MOL0     C52146   0.995  11.462   3.850 -0.5602  0.0505 -0.1352
  396MOL0     C52147   1.022  11.587   3.906 -0.4743 -0.8579 -0.4535
  396MOL0     O52148   1.051  11.676   3.803 -0.5860  0.2612 -0.5611
  396MOL0     C52149   1.153  11.775   3.828 -0.2116 -0.6595 -1.0388
  396MOL0     C52150   1.156  11.860   3.702 -0.4739 -0.6736  0.2450
  396MOL0     C52151   1.263  11.982   3.711  0.8251  0.3423  0.0191
  396MOL0     C52152   1.249  12.076   3.600 -0.4592  0.1991  0.2619
  396MOL0     C52153   1.354  12.178   3.615  0.3969  0.4765 -0.0584
  396MOL0     C52154   1.366  12.254   3.483  0.6598 -0.3783 -0.2329
  396MOL0     C52155   1.480  12.359   3.495  0.4990 -0.1273 -0.3124
  396MOL0     C52156   1.462  12.457   3.616  1.0529 -0.6493  0.6057
  396MOL0     N52157   1.560  12.564   3.627  0.3460 -0.6442  0.1381
  396MOL0     C52158   1.697  12.555   3.588 -0.2505  0.1963 -0.4817
  396MOL0     C52159   1.743  12.675   3.608  0.1775 -0.1776 -0.3237
  396MOL0     C52160   1.885  12.715   3.600  0.2750 -0.9870  0.6507
  396MOL0     C52161   1.925  12.854   3.554  0.8042  0.7550  0.0160
  396MOL0     C52162   1.857  12.900   3.431 -0.8560 -0.1434  0.6904
  396MOL0     C52163   1.877  13.053   3.393  0.6123 -0.0207 -0.2718
  396MOL0     O52164   2.020  13.062   3.346  0.2330  0.5313 -0.0136
  396MOL0     C52165   2.034  13.088   3.218  0.3006  0.0891  0.2550
  396MOL0     C52166   1.942  13.047   3.125  0.5478 -0.6419 -0.6784
  396MOL0     C52167   1.966  13.075   2.987  0.7182  0.5671  0.2165
  396MOL0     C52168   2.076  13.155   2.946  1.3226 -0.6924  0.5253
  396MOL0     C52169   2.116  13.185   2.801 -0.2146  0.1555  0.5145
  396MOL0     O52170   2.217  13.278   2.786 -0.2816  0.2631  0.5572
  396MOL0     C52171   2.285  13.298   2.667 -0.1085  0.9658  0.3493
  396MOL0     C52172   2.417  13.324   2.672  0.6228  1.1543 -0.5072
  396MOL0     C52173   2.499  13.323   2.558  0.6799 -0.6632 -0.3834
  396MOL0     C52174   2.442  13.317   2.430 -0.8340  0.4199  0.0393
  396MOL0     O52175   2.532  13.319   2.326  0.0943 -0.1698 -0.3500
  396MOL0     C52176   2.495  13.352   2.188 -0.0593  0.1844  0.2525
  396MOL0     C52177   2.608  13.397   2.092 -0.2424  0.6762 -0.9208
  396MOL0     C52178   2.566  13.496   1.980 -0.3238 -0.0827 -0.7463
  396MOL0     C52179   2.654  13.550   1.870  0.1177  0.1935  1.3166
  396MOL0     C52180   2.668  13.465   1.744  0.7695  0.0643 -0.0974
  396MOL0     C52181   2.697  13.318   1.739  0.2989  0.3918  0.1422
  396MOL0     C52182   2.834  13.268   1.794 -0.6086 -0.9493 -0.0398
  396MOL0     C52183   2.964  13.338   1.742  0.2606 -0.1037 -0.4951
  396MOL0    Cl52184   2.958  13.297   1.571  0.3621  0.0438  0.3108
  396MOL0     C52185   2.306  13.292   2.421 -0.0117 -0.8275  0.0037
  396MOL0     C52186   2.226  13.283   2.537  0.0934  0.6444 -0.1743
  396MOL0     O52187   2.059  13.125   2.712  0.4333  0.4456 -0.6880
  396MOL0     C52188   2.158  13.207   3.044 -0.1548 -0.5832 -0.7136
  396MOL0     C52189   2.132  13.179   3.174  0.2433  0.5460  0.0393
  396MOL0     N52190   1.650  12.759   3.657  0.3798  0.6565 -0.1005
  396MOL0     N52191   1.532  12.691   3.665  0.0045 -0.9706  0.3351
  396MOL0     C52192   1.027  11.606   4.046 -0.5751 -0.8615 -0.9581
  396MOL0     C52193   0.988  11.508   4.136 -0.0684 -0.0716  0.3209
  396MOL0     C52194   0.914  11.179   4.374  1.1985  0.8879  0.2912
  396MOL0     C52195   0.784  11.208   4.421  0.7981 -0.3165  0.1980
  396MOL0     C52196   0.715  11.135   4.521 -0.2660 -0.8948  0.6761
  396MOL0     C52197   0.777  11.038   4.585 -0.8578 -0.4198  0.1107
  396MOL0     O52198   0.700  10.971   4.684  0.1601  0.3380 -0.0055
  396MOL0     C52199   0.769  10.910   4.789 -0.4200  0.4915 -0.1381
  396MOL0     C52200   0.679  10.892   4.920 -0.1945 -0.2918 -1.0382
  396MOL0     C52201   0.767  10.801   5.004  0.9845 -0.5446  0.3032
  396MOL0     C52202   0.705  10.791   5.142  1.3330 -0.0348  0.2892
  396MOL0     C52203   0.802  10.742   5.240 -1.5692 -1.6250  0.0700
  396MOL0     C52204   0.899  10.723   5.319 -0.5556  0.5680 -0.3539
  396MOL0     C52205   0.916  11.014   4.553  0.1172 -0.0517 -0.7780
  396MOL0     C52206   0.980  11.080   4.453 -0.3555  1.1992  0.3475
  396MOL0     H52207   0.942  11.248   3.914 -0.9879 -0.5633  0.9902
  396MOL0     H52208   0.996  11.449   3.743 -1.3681  0.2961 -0.1822
  396MOL0     H52209   1.250  11.724   3.832  0.1620  0.1077 -0.0068
  396MOL0     H52210   1.120  11.843   3.907 -3.1309  0.1152 -2.7611
  396MOL0     H52211   1.054  11.899   3.709  0.1424  0.7572  1.9320
  396MOL0     H52212   1.161  11.797   3.613 -0.9858  0.4486 -0.6114
  396MOL0     H52213   1.369  11.955   3.709  0.9479  0.8842 -1.7381
  396MOL0     H52214   1.252  12.031   3.808 -0.0495  1.3248 -0.5629
  396MOL0     H52215   1.265  12.020   3.508  0.6481 -0.2008  0.6769
  396MOL0     H52216   1.152  12.125   3.600  0.4253  2.0444 -0.7549
  396MOL0     H52217   1.447  12.141   3.658  0.4955  0.6496 -0.1209
  396MOL0     H52218   1.327  12.254   3.689 -1.9159  0.6467 -0.9863
  396MOL0     H52219   1.274  12.309   3.465  1.5238  2.8663  3.8470
  396MOL0     H52220   1.380  12.192   3.395 -0.2384  1.6294 -1.8695
  396MOL0     H52221   1.563  12.303   3.538 -1.1368 -1.5092  1.2382
  396MOL0     H52222   1.507  12.404   3.399 -0.5900  4.2628  1.2143
  396MOL0     H52223   1.481  12.393   3.702 -0.8000  0.5686  1.9980
  396MOL0     H52224   1.362  12.500   3.626  1.7322  1.5701 -1.1237
  396MOL0     H52225   1.741  12.463   3.551  0.8011 -0.2491  1.7290
  396MOL0     H52226   1.917  12.644   3.522  1.4583  0.5578 -0.3415
  396MOL0     H52227   1.928  12.702   3.700  1.4596  1.3326  0.5296
  396MOL0     H52228   2.032  12.871   3.535  0.2216  0.9231 -4.0021
  396MOL0     H52229   1.903  12.912   3.644 -2.9445 -0.7777  0.2514
  396MOL0     H52230   1.890  12.844   3.343 -0.7045 -0.0506  0.6862
  396MOL0     H52231   1.749  12.888   3.434 -0.9694  0.2134 -0.9934
  396MOL0     H52232   1.853  13.115   3.481  1.4519  0.4124 -0.3429
  396MOL0     H52233   1.801  13.088   3.323 -0.3581  1.4607  1.4144
  396MOL0     H52234   1.853  12.992   3.157  2.0206 -1.6618  1.9747
  396MOL0     H52235   1.898  13.043   2.910  0.8615 -0.2416  0.4114
  396MOL0     H52236   2.464  13.341   2.768  0.0908 -0.1163 -0.0032
  396MOL0     H52237   2.607  13.335   2.552  0.3737  2.2992 -2.6560
  396MOL0     H52238   2.420  13.430   2.200  0.8378  1.1853 -0.4766
  396MOL0     H52239   2.445  13.270   2.136 -1.4954 -1.5949  4.0428
  396MOL0     H52240   2.651  13.301   2.061  0.4529 -0.3609  2.8061
  396MOL0     H52241   2.681  13.441   2.160 -1.9582  2.8058 -0.3508
  396MOL0     H52242   2.511  13.581   2.022 -0.6273 -0.0845 -1.1317
  396MOL0     H52243   2.499  13.438   1.916  1.9326 -1.4860 -1.9655
  396MOL0     H52244   2.624  13.651   1.841  0.3631 -0.2920 -0.7852
  396MOL0     H52245   2.756  13.555   1.908  0.6297 -3.5493  0.8034
  396MOL0     H52246   2.737  13.513   1.675 -1.8509  0.9214 -2.3195
  396MOL0     H52247   2.571  13.486   1.697  1.1309 -0.2260 -1.0072
  396MOL0     H52248   2.670  13.290   1.636 -5.7422  5.2132 -0.1813
  396MOL0     H52249   2.620  13.261   1.793 -1.9921 -0.0920 -3.2532
  396MOL0     H52250   2.838  13.285   1.902  0.5346  3.8270 -0.6041
  396MOL0     H52251   2.845  13.159   1.793  0.3529 -0.9651  2.9435
  396MOL0     H52252   3.047  13.295   1.797  0.2908  1.3897  0.6897
  396MOL0     H52253   2.963  13.447   1.736  0.4758 -0.1653 -2.5392
  396MOL0     H52254   2.266  13.240   2.335  1.0185  0.0681 -1.0472
  396MOL0     H52255   2.124  13.259   2.512  0.7604 -0.2931 -2.2393
  396MOL0     H52256   2.242  13.274   3.027  1.1556 -1.8173  0.6189
  396MOL0     H52257   2.194  13.227   3.249  0.3831 -1.4264  1.2485
  396MOL0     H52258   1.061  11.693   4.103  0.4191 -0.7229 -1.7337
  396MOL0     H52259   0.991  11.528   4.243 -0.5806  0.7004  0.1988
  396MOL0     H52260   0.722  11.285   4.377  0.5700 -1.8021 -2.2722
  396MOL0     H52261   0.616  11.164   4.554  0.1246  2.6678 -0.8394
  396MOL0     H52262   0.863  10.954   4.824  0.3762 -1.0447 -0.3057
  396MOL0     H52263   0.789  10.810   4.750 -2.0625 -0.8394  2.2203
  396MOL0     H52264   0.657  10.985   4.974 -0.7840 -1.6251  1.1966
  396MOL0     H52265   0.593  10.830   4.892 -1.2868  1.8493 -2.7203
  396MOL0     H52266   0.869  10.841   5.007  0.9399 -0.3268  4.4809
  396MOL0     H52267   0.767  10.700   4.962 -1.2499 -1.1674  1.6639
  396MOL0     H52268   0.661  10.883   5.181 -0.5013 -0.3472 -0.9133
  396MOL0     H52269   0.624  10.722   5.117  1.3821  0.8473 -2.7718
  396MOL0     H52270   0.983  10.697   5.380  0.0490  0.6912 -1.1179
  396MOL0     H52271   0.959  10.928   4.603  0.2063  0.3505 -0.1430
  396MOL0     H52272   1.082  11.043   4.444 -0.1378  1.1615  2.4956
  397MOL0     O52273   5.404   2.411   2.169 -0.1826 -0.0603  0.3562
  397MOL0     C52274   5.481   2.484   2.228  0.2934  0.0835  0.4578
  397MOL0     O52275   5.534   2.605   2.186 -0.5640  0.1549  0.1409
  397MOL0     C52276   5.529   2.641   2.054 -0.0032  0.2485  0.2621
  397MOL0     C52277   5.523   2.779   2.026  0.6768  0.1711  0.3768
  397MOL0     C52278   5.513   2.834   1.894 -0.4021  0.1609 -0.2858
  397MOL0     C52279   5.490   2.745   1.791  0.0113 -0.9145 -0.6762
  397MOL0     O52280   5.483   2.775   1.658  0.2233  0.0258 -0.5454
  397MOL0     C52281   5.463   2.912   1.614  0.6838 -0.3290  0.8032
  397MOL0     C52282   5.487   2.926   1.464 -0.1632  0.4184  1.4676
  397MOL0     C52283   5.631   2.920   1.423  0.0082 -0.4972  0.6018
  397MOL0     C52284   5.664   2.921   1.268  0.8333 -0.0001  1.0319
  397MOL0     C52285   5.796   2.844   1.245 -0.3355  0.2063 -0.1457
  397MOL0     C52286   5.836   2.811   1.102  0.5562  0.2205 -0.3145
  397MOL0     C52287   5.955   2.710   1.104  0.3978  0.1657  0.0723
  397MOL0     C52288   6.013   2.690   0.964 -0.1388 -1.8130  0.6253
  397MOL0     N52289   6.159   2.654   0.961 -0.0266 -0.7291  0.4988
  397MOL0     C52290   6.216   2.635   0.846 -0.0262  0.3388  0.2097
  397MOL0     C52291   6.349   2.617   0.868  0.1405  0.3149 -0.9597
  397MOL0     C52292   6.449   2.550   0.787  0.3251  0.0423  0.0765
  397MOL0     C52293   6.425   2.398   0.789  0.5561  0.3908  0.3845
  397MOL0     C52294   6.279   2.356   0.733 -0.5140 -1.0317  0.3478
  397MOL0     C52295   6.269   2.203   0.704  0.1552 -0.4984 -0.3521
  397MOL0     O52296   6.344   2.145   0.597 -0.1368  0.3703 -0.4158
  397MOL0     C52297   6.270   2.089   0.493 -0.0697  0.0530 -0.1379
  397MOL0     C52298   6.342   2.001   0.415 -0.8626  0.0418  0.9639
  397MOL0     C52299   6.304   1.953   0.293 -0.8127 -0.0476  0.8308
  397MOL0     C52300   6.174   1.987   0.246  1.1934 -0.1802 -0.7395
  397MOL0     C52301   6.123   1.937   0.118  0.3498  0.4574  0.4481
  397MOL0     O52302   6.009   1.996   0.066 -0.5666  0.2382 -0.3249
  397MOL0     C52303   5.964   1.959  -0.056  0.0652  0.1031  0.6538
  397MOL0     C52304   5.888   2.064  -0.104 -0.0101 -0.2160 -0.2180
  397MOL0     C52305   5.831   2.060  -0.234  0.1085  0.4703 -0.8280
  397MOL0     C52306   5.842   1.949  -0.311  0.4648  0.8755  0.4373
  397MOL0     O52307   5.788   1.945  -0.435 -0.1325 -0.1488 -0.0363
  397MOL0     C52308   5.741   1.821  -0.487  0.1194 -0.4539 -0.2537
  397MOL0     C52309   5.648   1.840  -0.607  0.2027  0.6784 -0.4149
  397MOL0     C52310   5.580   1.713  -0.637  0.3410  0.2265  0.2500
  397MOL0     C52311   5.507   1.730  -0.776 -0.1367  0.6519 -0.3445
  397MOL0     C52312   5.469   1.588  -0.818 -0.1024 -0.7798  1.4521
  397MOL0     C52313   5.368   1.519  -0.730  0.6908 -1.1117  0.0297
  397MOL0     C52314   5.259   1.618  -0.661  0.8020  0.2011 -0.4447
  397MOL0     C52315   5.167   1.517  -0.593  0.2194 -0.4112 -0.5161
  397MOL0    Cl52316   5.096   1.415  -0.731  0.2513 -0.0603  0.0563
  397MOL0     C52317   5.898   1.841  -0.256 -0.2571  0.0879 -0.2898
  397MOL0     C52318   5.973   1.842  -0.131  0.4887 -0.4325  0.0664
  397MOL0     O52319   6.195   1.852   0.064  0.6498 -0.5431 -0.0797
  397MOL0     C52320   6.093   2.074   0.325  0.5520 -0.0285  0.0234
  397MOL0     C52321   6.138   2.111   0.455 -1.1082 -1.7974 -0.3048
  397MOL0     N52322   6.361   2.628   1.007 -0.0224 -0.1277  0.3276
  397MOL0     N52323   6.245   2.654   1.064 -0.1517  0.1376 -0.6396
  397MOL0     C52324   5.487   2.605   1.817  0.5456 -0.5728  0.1218
  397MOL0     C52325   5.517   2.554   1.947 -0.1241  0.3099  1.1026
  397MOL0     C52326   5.502   2.443   2.365 -0.3152  0.1847 -0.3903
  397MOL0     C52327   5.456   2.332   2.432  0.1424  0.4405  0.1457
  397MOL0     C52328   5.489   2.312   2.569  0.2947  0.8483 -0.0099
  397MOL0     C52329   5.545   2.412   2.649 -0.4722 -0.9504  0.5101
  397MOL0     O52330   5.566   2.405   2.785 -0.9871 -0.5704  0.0537
  397MOL0     C52331   5.519   2.288   2.854  0.1781 -0.2133 -0.1838
  397MOL0     C52332   5.608   2.240   2.969 -0.6566 -0.1416 -0.4452
  397MOL0     C52333   5.613   2.350   3.080 -0.3734  0.5285  0.1234
  397MOL0     C52334   5.621   2.285   3.216 -0.4379  0.7046 -0.4799
  397MOL0     C52335   5.618   2.395   3.320  0.1539 -0.1045  0.0918
  397MOL0     C52336   5.608   2.484   3.409 -0.1625 -0.6402  0.4339
  397MOL0     C52337   5.594   2.529   2.577  0.6533  0.0313  0.2761
  397MOL0     C52338   5.569   2.531   2.438 -0.1134 -0.3102  0.1736
  397MOL0     H52339   5.505   2.848   2.108 -0.6781  0.2368  0.0488
  397MOL0     H52340   5.522   2.941   1.875 -2.4329  1.1800  3.5084
  397MOL0     H52341   5.536   2.974   1.667  2.4460 -1.8155  0.2257
  397MOL0     H52342   5.362   2.947   1.636  0.5458 -0.7098  0.7829
  397MOL0     H52343   5.446   3.016   1.417  1.2550  1.1987  1.6688
  397MOL0     H52344   5.436   2.840   1.419 -0.4198  1.8216 -1.0976
  397MOL0     H52345   5.663   2.822   1.462  0.9759  0.2505  1.7788
  397MOL0     H52346   5.680   3.002   1.477  2.2617  0.6984 -2.9121
  397MOL0     H52347   5.577   2.878   1.218 -0.9623  3.3171  1.0046
  397MOL0     H52348   5.672   3.020   1.224 -2.7997  1.0064  2.2763
  397MOL0     H52349   5.777   2.746   1.290  0.2562  0.6917  1.2187
  397MOL0     H52350   5.888   2.885   1.289 -0.6580 -0.0779  0.8167
  397MOL0     H52351   5.865   2.899   1.043  4.9440 -2.1650 -2.2390
  397MOL0     H52352   5.744   2.767   1.061  2.1142 -1.3043 -2.3811
  397MOL0     H52353   6.036   2.761   1.158  0.5897 -0.1119  0.0455
  397MOL0     H52354   5.907   2.618   1.138 -0.2943  0.1755 -0.8197
  397MOL0     H52355   6.017   2.782   0.905  0.1104  0.1093  3.4630
  397MOL0     H52356   5.949   2.621   0.908 -2.2704  0.9238 -0.5040
  397MOL0     H52357   6.180   2.628   0.744 -0.8778  0.8756  0.4643
  397MOL0     H52358   6.543   2.585   0.831 -0.6113  1.5731  0.9382
  397MOL0     H52359   6.449   2.594   0.687  0.8009  3.9924  1.6281
  397MOL0     H52360   6.427   2.362   0.893  0.9560  0.2353  0.3210
  397MOL0     H52361   6.504   2.363   0.723 -0.0054 -0.9200  0.3674
  397MOL0     H52362   6.193   2.373   0.798 -0.7344 -0.1739 -0.1484
  397MOL0     H52363   6.249   2.412   0.643  0.9722  2.1138  1.6700
  397MOL0     H52364   6.160   2.197   0.696 -0.4336  3.2046  2.0842
  397MOL0     H52365   6.302   2.151   0.795  2.1833  0.8726 -0.2544
  397MOL0     H52366   6.441   1.968   0.447 -1.4293 -1.3932  1.3168
  397MOL0     H52367   6.367   1.886   0.235  1.4821  2.1681  0.5824
  397MOL0     H52368   5.860   2.150  -0.044 -1.4874 -1.5572  1.0830
  397MOL0     H52369   5.785   2.148  -0.278  1.4774  3.5907  3.2763
  397MOL0     H52370   5.691   1.762  -0.410 -0.9565  2.7184  1.6580
  397MOL0     H52371   5.827   1.763  -0.522  1.8859  2.2372 -0.6645
  397MOL0     H52372   5.707   1.864  -0.696 -0.2875 -0.4279 -1.0583
  397MOL0     H52373   5.581   1.924  -0.585  1.4991  2.0436 -1.5247
  397MOL0     H52374   5.511   1.696  -0.554  0.9363  2.2498  1.2344
  397MOL0     H52375   5.652   1.631  -0.642 -0.7216 -0.6941 -0.6946
  397MOL0     H52376   5.419   1.795  -0.777  0.0660  1.1438  2.8179
  397MOL0     H52377   5.569   1.786  -0.848  0.0500 -1.4276 -1.8954
  397MOL0     H52378   5.557   1.524  -0.830  0.8103  0.9318 -2.2820
  397MOL0     H52379   5.411   1.604  -0.909  0.9429 -0.2343  0.8647
  397MOL0     H52380   5.430   1.480  -0.648 -0.0474  1.3938  1.9022
  397MOL0     H52381   5.325   1.436  -0.787  0.3205 -1.3677  0.6803
  397MOL0     H52382   5.313   1.691  -0.600  3.8366 -1.2976 -1.1120
  397MOL0     H52383   5.207   1.667  -0.744 -3.2310  1.6666  2.6102
  397MOL0     H52384   5.090   1.585  -0.553 -0.0667  0.8906 -3.0940
  397MOL0     H52385   5.215   1.467  -0.508 -1.4253 -0.9280  0.1534
  397MOL0     H52386   5.922   1.745  -0.301  0.5695 -2.1320  4.2355
  397MOL0     H52387   6.027   1.758  -0.088  0.9986 -1.2415 -2.0211
  397MOL0     H52388   5.990   2.092   0.296 -0.1230 -0.1330  2.1286
  397MOL0     H52389   6.068   2.159   0.524 -1.1414 -3.8472  1.1809
  397MOL0     H52390   5.469   2.529   1.741  4.5625 -1.3976 -0.2281
  397MOL0     H52391   5.508   2.448   1.968  0.2928  0.4320  1.9382
  397MOL0     H52392   5.387   2.278   2.368 -0.8317  1.6725  0.1300
  397MOL0     H52393   5.446   2.219   2.606 -3.2905  2.2134 -0.4149
  397MOL0     H52394   5.500   2.201   2.790  2.2145  0.4238 -1.7849
  397MOL0     H52395   5.420   2.319   2.889  0.4300  2.4772 -1.5837
  397MOL0     H52396   5.584   2.144   3.015 -1.1491  1.6910  3.6299
  397MOL0     H52397   5.709   2.229   2.929  0.4813 -2.9993  2.7993
  397MOL0     H52398   5.522   2.412   3.082  0.4400  1.9324 -2.1084
  397MOL0     H52399   5.695   2.421   3.066  0.9997 -0.9688  0.4112
  397MOL0     H52400   5.533   2.220   3.223  0.2979 -0.4377 -1.3658
  397MOL0     H52401   5.710   2.221   3.224 -0.9013  0.3199  2.9778
  397MOL0     H52402   5.605   2.557   3.487  1.1382  0.9709 -0.9496
  397MOL0     H52403   5.649   2.606   2.629  3.3979 -1.2467 -0.5497
  397MOL0     H52404   5.616   2.619   2.396 -0.5815 -0.1668 -0.0571
  398MOL0     O52405   8.560   6.374   3.886  0.3378 -1.0183 -0.0918
  398MOL0     C52406   8.518   6.425   3.987 -0.1593 -0.3293 -0.7757
  398MOL0     O52407   8.390   6.414   4.038  0.3541 -0.1274  0.0065
  398MOL0     C52408   8.280   6.359   3.980  0.4133 -1.0420 -0.0646
  398MOL0     C52409   8.242   6.404   3.855  0.2112 -0.2434  0.5015
  398MOL0     C52410   8.138   6.336   3.781 -0.5064  0.5214  0.1902
  398MOL0     C52411   8.059   6.241   3.852  0.0741 -0.0657 -0.3042
  398MOL0     O52412   7.986   6.143   3.784  0.4113  0.1171  0.0881
  398MOL0     C52413   7.908   6.193   3.672  0.1355 -0.6105 -0.5165
  398MOL0     C52414   7.805   6.082   3.660 -1.6124  0.4170  0.7919
  398MOL0     C52415   7.687   6.124   3.569  0.0553 -0.6592 -0.4893
  398MOL0     C52416   7.657   6.029   3.451  0.0345 -0.3878 -1.2605
  398MOL0     C52417   7.749   6.042   3.329 -0.5404 -0.8832 -0.1308
  398MOL0     C52418   7.890   5.993   3.352 -0.7204  0.1409  0.2664
  398MOL0     C52419   7.975   5.953   3.232  0.4610 -0.9341  0.7431
  398MOL0     C52420   8.030   6.089   3.155  0.7192  0.1762 -0.3327
  398MOL0     N52421   8.141   6.144   3.232  0.5070  0.7700 -0.6585
  398MOL0     C52422   8.244   6.085   3.297 -0.2515  1.1546 -0.2340
  398MOL0     C52423   8.302   6.183   3.369 -0.2458 -0.0681  0.1457
  398MOL0     C52424   8.422   6.171   3.460  0.3500 -0.0669 -0.3638
  398MOL0     C52425   8.556   6.192   3.397 -0.3096  0.1919 -0.2494
  398MOL0     C52426   8.580   6.331   3.350 -0.1619  0.7874  0.6328
  398MOL0     C52427   8.727   6.366   3.324  0.4100 -0.0708  0.6948
  398MOL0     O52428   8.751   6.449   3.212  0.2421  0.1636 -0.2637
  398MOL0     C52429   8.873   6.514   3.199 -0.8252 -0.4175 -0.2712
  398MOL0     C52430   8.891   6.591   3.085 -1.1073 -0.0005 -0.6288
  398MOL0     C52431   9.008   6.663   3.058 -0.3585 -0.2138 -0.4774
  398MOL0     C52432   9.115   6.648   3.155  0.3097  0.6973 -0.2442
  398MOL0     C52433   9.240   6.710   3.124 -0.4500  0.5637 -0.0053
  398MOL0     O52434   9.242   6.802   3.030  0.2050 -0.7845 -0.6576
  398MOL0     C52435   9.326   6.903   3.016  0.0966 -0.6815  0.9032
  398MOL0     C52436   9.384   6.931   2.891  1.1658  0.2040 -0.8807
  398MOL0     C52437   9.459   7.047   2.871  0.2902 -0.3948  0.5387
  398MOL0     C52438   9.492   7.133   2.976 -0.2874  0.8656 -0.2200
  398MOL0     O52439   9.575   7.238   2.953 -0.0855  0.3278  0.2800
  398MOL0     C52440   9.532   7.325   2.847  0.5636 -0.5679  0.8126
  398MOL0     C52441   9.426   7.420   2.909  0.2245  0.1121  0.4412
  398MOL0     C52442   9.495   7.555   2.951  1.1839  1.0189  1.2487
  398MOL0     C52443   9.394   7.653   2.980  0.4953 -0.7650 -0.2336
  398MOL0     C52444   9.456   7.789   3.000 -0.4293  0.0876  0.0466
  398MOL0     C52445   9.370   7.885   3.081  0.3642 -0.1436  0.0617
  398MOL0     C52446   9.237   7.918   3.022  0.2884 -0.4374 -0.0647
  398MOL0     C52447   9.184   8.030   3.106 -0.5452 -0.9766  0.4605
  398MOL0    Cl52448   9.263   8.186   3.066 -0.2649 -0.4963 -0.3418
  398MOL0     C52449   9.457   7.100   3.107 -0.4023  0.1559  0.7452
  398MOL0     C52450   9.360   6.987   3.121 -0.4651  0.2276  0.8321
  398MOL0     O52451   9.338   6.690   3.194  0.2316  0.1420 -0.5848
  398MOL0     C52452   9.095   6.576   3.270 -1.1682 -0.0840 -0.0559
  398MOL0     C52453   8.971   6.517   3.293  0.4976  0.8565  0.1483
  398MOL0     N52454   8.231   6.298   3.348 -0.0304 -0.1891  0.8492
  398MOL0     N52455   8.149   6.280   3.255  0.1681 -0.3375  0.0180
  398MOL0     C52456   8.082   6.221   3.995 -0.1277 -0.1276  0.7200
  398MOL0     C52457   8.198   6.265   4.051  0.3980 -0.1426  0.4480
  398MOL0     C52458   8.617   6.507   4.053  0.4928  0.1027  0.2422
  398MOL0     C52459   8.592   6.621   4.135 -0.3811  0.1641  0.2342
  398MOL0     C52460   8.690   6.701   4.191  0.0442  0.4386  0.8831
  398MOL0     C52461   8.828   6.660   4.166  0.6271 -0.7830 -0.0312
  398MOL0     O52462   8.931   6.738   4.205 -0.2052 -0.2103  0.3910
  398MOL0     C52463   8.925   6.827   4.313  0.6670  0.0272 -0.1836
  398MOL0     C52464   8.984   6.756   4.424 -0.2195 -0.1747 -0.2076
  398MOL0     C52465   9.114   6.672   4.400  0.4454  0.0010 -0.6751
  398MOL0     C52466   9.201   6.669   4.535  0.9087  0.0997 -0.3487
  398MOL0     C52467   9.321   6.591   4.522  0.1613 -0.5105 -0.1687
  398MOL0     C52468   9.406   6.505   4.514 -0.6149  0.4044  0.4593
  398MOL0     C52469   8.860   6.548   4.090 -0.8668 -0.0318 -0.5130
  398MOL0     C52470   8.751   6.478   4.030 -0.4548 -0.1425  0.4416
  398MOL0     H52471   8.295   6.482   3.802  0.1584 -0.4305  0.1739
  398MOL0     H52472   8.128   6.359   3.676 -2.3190 -1.6655 -0.1948
  398MOL0     H52473   7.968   6.219   3.584  1.9801  1.0393  1.0998
  398MOL0     H52474   7.857   6.290   3.683 -4.2516 -1.9942 -4.9522
  398MOL0     H52475   7.758   6.055   3.755 -0.2863  1.9937  1.9582
  398MOL0     H52476   7.853   5.992   3.621 -3.9952 -1.0247  1.0270
  398MOL0     H52477   7.692   6.221   3.518 -0.9531  0.3387  1.2100
  398MOL0     H52478   7.594   6.130   3.628 -1.1758  0.6289 -2.4437
  398MOL0     H52479   7.661   5.931   3.498  0.9553  0.2703  0.0964
  398MOL0     H52480   7.551   6.026   3.426 -0.2124  0.6366 -0.4009
  398MOL0     H52481   7.746   6.148   3.303 -2.2753 -0.4789  1.4645
  398MOL0     H52482   7.714   5.978   3.247  3.1118 -4.8646  1.0447
  398MOL0     H52483   7.884   5.902   3.413 -1.6335 -0.3011 -0.4636
  398MOL0     H52484   7.941   6.075   3.404 -3.8171  2.9767 -0.8544
  398MOL0     H52485   8.048   5.877   3.261 -0.1334 -0.9052  2.4584
  398MOL0     H52486   7.918   5.898   3.156  0.3642  0.8721 -0.5573
  398MOL0     H52487   7.952   6.166   3.150 -0.7121 -1.0425  1.6170
  398MOL0     H52488   8.069   6.076   3.054  2.4413  3.7159 -0.2602
  398MOL0     H52489   8.285   5.985   3.293 -0.8317  0.8759 -5.6807
  398MOL0     H52490   8.417   6.072   3.506  0.3955  0.3654  0.5963
  398MOL0     H52491   8.405   6.241   3.542 -0.6926 -2.8515  1.9576
  398MOL0     H52492   8.578   6.130   3.310  0.7943  1.8641 -1.2191
  398MOL0     H52493   8.632   6.155   3.467 -1.0890 -0.9916  0.0026
  398MOL0     H52494   8.540   6.340   3.248  2.3444 -0.1743 -0.5076
  398MOL0     H52495   8.535   6.402   3.420 -1.7613 -0.1941  0.6474
  398MOL0     H52496   8.794   6.279   3.322  1.0574  0.3640  2.0567
  398MOL0     H52497   8.767   6.416   3.412  1.1221 -0.6140  0.6880
  398MOL0     H52498   8.807   6.611   3.019  1.9307  2.6669 -4.1646
  398MOL0     H52499   9.017   6.725   2.970  0.9988 -0.5178 -0.5608
  398MOL0     H52500   9.360   6.866   2.807 -2.9114 -1.9139  1.6302
  398MOL0     H52501   9.496   7.064   2.770  0.2987  0.4488  0.6766
  398MOL0     H52502   9.481   7.269   2.768  0.9141 -2.4002  1.8315
  398MOL0     H52503   9.622   7.369   2.801 -1.3780  2.5680 -0.2749
  398MOL0     H52504   9.373   7.376   2.994 -2.8306  3.1587  0.3371
  398MOL0     H52505   9.357   7.440   2.826 -0.2251 -1.1552  0.4810
  398MOL0     H52506   9.555   7.593   2.868  0.5420  1.1656  0.8402
  398MOL0     H52507   9.560   7.537   3.037  3.8502  1.7300 -0.4885
  398MOL0     H52508   9.326   7.658   2.895 -0.6136 -1.4051  0.5856
  398MOL0     H52509   9.346   7.624   3.074  1.4905  3.1038  1.7185
  398MOL0     H52510   9.484   7.826   2.901 -1.2919  0.1527 -0.1855
  398MOL0     H52511   9.543   7.751   3.054 -0.2629 -1.4938 -1.2496
  398MOL0     H52512   9.430   7.976   3.096 -0.6156  0.1378  2.8182
  398MOL0     H52513   9.358   7.841   3.180  2.9306  2.0542  1.4822
  398MOL0     H52514   9.255   7.948   2.918  2.9535 -0.4137  0.3544
  398MOL0     H52515   9.157   7.843   3.022 -0.2941  0.1582  1.3033
  398MOL0     H52516   9.213   8.005   3.209  4.4409  1.2476 -0.1407
  398MOL0     H52517   9.077   8.039   3.086 -0.4961 -0.0095  0.6088
  398MOL0     H52518   9.463   7.171   3.189 -0.0507  2.9814 -1.5275
  398MOL0     H52519   9.322   6.964   3.220 -2.1657  2.5672  0.8105
  398MOL0     H52520   9.176   6.559   3.340 -2.1055 -0.4431  0.9543
  398MOL0     H52521   8.973   6.454   3.381 -0.0767  2.5527  1.4332
  398MOL0     H52522   8.023   6.141   4.039 -0.1710 -0.7376 -0.4129
  398MOL0     H52523   8.230   6.237   4.151 -1.3855 -1.0646  0.8103
  398MOL0     H52524   8.492   6.659   4.151 -0.7865 -0.4897 -0.6512
  398MOL0     H52525   8.673   6.796   4.240  3.6820  0.6696  2.0130
  398MOL0     H52526   8.827   6.871   4.334 -0.2318 -2.5156  1.4740
  398MOL0     H52527   8.985   6.915   4.290  0.5780  0.1766  0.1560
  398MOL0     H52528   9.020   6.835   4.491 -1.3727  1.1105 -1.0649
  398MOL0     H52529   8.894   6.715   4.472 -2.8607  1.1908 -3.6330
  398MOL0     H52530   9.169   6.715   4.315  2.0141 -1.0762 -0.2531
  398MOL0     H52531   9.102   6.569   4.366 -3.0863 -0.2462  0.9115
  398MOL0     H52532   9.239   6.769   4.558  4.0366 -0.9043 -0.6881
  398MOL0     H52533   9.127   6.642   4.611 -1.8480  2.8968 -1.7902
  398MOL0     H52534   9.471   6.422   4.497  0.9801  1.9134 -1.3111
  398MOL0     H52535   8.963   6.534   4.059 -1.1484 -0.8762 -1.1019
  398MOL0     H52536   8.785   6.407   3.954  0.2225 -0.4756  1.0438
  399MOL0     O52537   0.782   1.099   2.565 -0.4347 -0.1121  1.0409
  399MOL0     C52538   0.839   1.084   2.456 -0.1155  0.3760  0.8050
  399MOL0     O52539   0.977   1.083   2.436  0.4134  0.0713 -0.8518
  399MOL0     C52540   1.067   1.107   2.529  0.4575 -0.2980 -0.3094
  399MOL0     C52541   1.166   1.203   2.505  0.1034 -0.4274  0.5294
  399MOL0     C52542   1.246   1.248   2.615 -0.4773  0.2312  1.1128
  399MOL0     C52543   1.243   1.191   2.739 -1.5402  1.1936  0.2018
  399MOL0     O52544   1.335   1.244   2.833  0.6841  0.2042  0.2110
  399MOL0     C52545   1.341   1.183   2.960  0.3218 -0.2389 -0.8719
  399MOL0     C52546   1.437   1.261   3.053  0.0861  0.2229 -0.1698
  399MOL0     C52547   1.393   1.405   3.077 -0.5132  0.2232  0.1149
  399MOL0     C52548   1.469   1.468   3.193  0.2640 -0.1517 -0.2165
  399MOL0     C52549   1.425   1.609   3.224 -0.1131  0.0384  0.6127
  399MOL0     C52550   1.482   1.661   3.355 -0.7168 -1.0802 -0.7798
  399MOL0     C52551   1.448   1.593   3.488 -0.1832  0.3078 -0.8226
  399MOL0     C52552   1.535   1.628   3.607 -0.8900  0.1061  0.0128
  399MOL0     N52553   1.549   1.767   3.622 -0.2168 -0.0381  0.0696
  399MOL0     C52554   1.453   1.831   3.681  0.1170  0.0569  0.3124
  399MOL0     C52555   1.490   1.965   3.675 -0.4784  1.1694 -0.3659
  399MOL0     C52556   1.415   2.084   3.714  0.6249 -0.1930  0.8292
  399MOL0     C52557   1.320   2.142   3.596 -0.6574 -0.5907  0.1403
  399MOL0     C52558   1.218   2.030   3.557 -0.2197  0.0876  0.0368
  399MOL0     C52559   1.103   2.092   3.467 -1.1146 -1.0893  0.1070
  399MOL0     O52560   1.033   1.998   3.395 -0.2296  0.4130  0.1884
  399MOL0     C52561   0.900   1.967   3.422 -0.3137  0.9335  0.1343
  399MOL0     C52562   0.808   2.072   3.410  0.0127  1.5010 -0.0559
  399MOL0     C52563   0.673   2.041   3.427  0.1985  0.6883 -1.2050
  399MOL0     C52564   0.625   1.912   3.475 -0.7411  0.2962  0.8228
  399MOL0     C52565   0.483   1.891   3.512 -0.4238 -0.2404  0.4468
  399MOL0     O52566   0.435   1.765   3.494  0.3660 -0.2627  0.4110
  399MOL0     C52567   0.301   1.739   3.523 -0.3079 -0.6811  0.3831
  399MOL0     C52568   0.235   1.792   3.630 -0.2563  0.4764 -0.1856
  399MOL0     C52569   0.099   1.754   3.656 -0.7922 -0.9985 -0.6357
  399MOL0     C52570   0.027   1.677   3.563  0.9163  0.1910 -0.7562
  399MOL0     O52571  -0.107   1.655   3.573 -0.1839 -0.9721 -0.6709
  399MOL0     C52572  -0.175   1.744   3.660  0.3605 -0.2332 -0.6111
  399MOL0     C52573  -0.327   1.734   3.627 -0.3589 -0.0175 -0.5751
  399MOL0     C52574  -0.379   1.852   3.544  0.1383  1.1676  0.6219
  399MOL0     C52575  -0.389   1.983   3.612 -0.7139 -1.3123  0.1831
  399MOL0     C52576  -0.467   2.089   3.522  0.1978  0.7153  0.1147
  399MOL0     C52577  -0.377   2.148   3.408  0.7103 -0.1097 -0.2948
  399MOL0     C52578  -0.451   2.253   3.324 -1.0659 -0.3256  0.4901
  399MOL0     C52579  -0.472   2.377   3.411 -0.5827 -0.0146  0.8826
  399MOL0    Cl52580  -0.543   2.498   3.300  0.0557  0.1155 -0.0076
  399MOL0     C52581   0.093   1.620   3.447 -0.6168 -0.0053 -0.6678
  399MOL0     C52582   0.228   1.665   3.427  0.5074 -0.4099 -0.9125
  399MOL0     O52583   0.421   1.996   3.540  0.2537 -0.2370  0.4898
  399MOL0     C52584   0.723   1.812   3.491  0.5938  0.2691  1.0783
  399MOL0     C52585   0.861   1.837   3.461  0.2344 -0.0820  1.0149
  399MOL0     N52586   1.603   1.969   3.596  0.8162  0.1338 -0.3692
  399MOL0     N52587   1.636   1.850   3.561  0.6550  0.4097 -0.3159
  399MOL0     C52588   1.157   1.071   2.753  0.7719  0.1639  0.4951
  399MOL0     C52589   1.066   1.033   2.648 -0.3771  0.1323  0.4117
  399MOL0     C52590   0.761   1.031   2.346  0.4874  0.3296  0.6196
  399MOL0     C52591   0.803   1.034   2.212  0.3037 -0.8964  0.3782
  399MOL0     C52592   0.730   0.971   2.115 -0.2318 -0.5045  0.5189
  399MOL0     C52593   0.593   0.940   2.144 -0.0606 -0.5722  1.4105
  399MOL0     O52594   0.505   0.884   2.044  0.1568 -0.2512  0.1286
  399MOL0     C52595   0.523   0.914   1.900  0.9284  0.2097  0.0173
  399MOL0     C52596   0.604   0.797   1.841  0.7008  0.8550 -0.1986
  399MOL0     C52597   0.510   0.675   1.811  0.4029 -0.3862  0.4984
  399MOL0     C52598   0.579   0.549   1.765 -0.1956  0.2563 -0.0761
  399MOL0     C52599   0.664   0.573   1.653 -0.0089 -0.6232  0.0741
  399MOL0     C52600   0.728   0.606   1.558  0.9128 -0.6847  0.0366
  399MOL0     C52601   0.556   0.938   2.276  0.0610  0.5192 -0.7215
  399MOL0     C52602   0.639   0.970   2.376  0.0658  0.8155 -0.0038
  399MOL0     H52603   1.167   1.250   2.407  2.3857  2.3411  1.7427
  399MOL0     H52604   1.310   1.334   2.603 -0.5261  0.0823 -0.2783
  399MOL0     H52605   1.383   1.083   2.949  2.1260  0.5797 -1.7816
  399MOL0     H52606   1.244   1.175   3.010  0.7566  1.1228  0.2691
  399MOL0     H52607   1.535   1.269   3.004 -0.2931 -1.1731 -1.2456
  399MOL0     H52608   1.444   1.223   3.155 -0.3625  1.2346  0.2468
  399MOL0     H52609   1.288   1.418   3.105  0.1573  1.2177  2.3385
  399MOL0     H52610   1.410   1.455   2.981 -3.9371 -1.6832 -1.6659
  399MOL0     H52611   1.448   1.403   3.279 -1.0752  1.3941  0.6997
  399MOL0     H52612   1.573   1.472   3.159 -0.8849  0.0791 -4.1942
  399MOL0     H52613   1.317   1.601   3.242  0.0684 -1.6126  1.0839
  399MOL0     H52614   1.446   1.671   3.137  0.9315 -0.4148  0.5244
  399MOL0     H52615   1.461   1.768   3.365  1.2639 -0.5384 -1.9812
  399MOL0     H52616   1.590   1.655   3.341 -0.3615  0.0232  1.0758
  399MOL0     H52617   1.345   1.621   3.515 -1.8975 -2.6111 -3.6203
  399MOL0     H52618   1.446   1.484   3.479 -1.4268  0.2102  0.3434
  399MOL0     H52619   1.633   1.580   3.597  1.1017  4.0311 -1.6293
  399MOL0     H52620   1.487   1.579   3.691 -1.0458  3.6459  2.1739
  399MOL0     H52621   1.360   1.791   3.721 -0.3577 -2.0819 -2.5609
  399MOL0     H52622   1.475   2.169   3.749 -2.3266  1.5834  2.0333
  399MOL0     H52623   1.356   2.062   3.803  0.7525  1.1539  1.2725
  399MOL0     H52624   1.376   2.195   3.518  1.4323  1.6212  2.9380
  399MOL0     H52625   1.259   2.227   3.627  0.4178  0.0532  0.5647
  399MOL0     H52626   1.281   1.948   3.520  0.2120 -1.4549  3.7081
  399MOL0     H52627   1.175   1.985   3.647 -0.3370  0.9691  0.4337
  399MOL0     H52628   1.141   2.175   3.408 -0.3484 -0.2499  1.7321
  399MOL0     H52629   1.034   2.146   3.532  0.7617  0.6133  0.7729
  399MOL0     H52630   0.852   2.160   3.365 -0.0078  0.5631 -1.9752
  399MOL0     H52631   0.607   2.121   3.395 -0.1160  0.5854 -0.8259
  399MOL0     H52632   0.278   1.860   3.703  0.2410  0.1799 -0.1988
  399MOL0     H52633   0.057   1.816   3.735 -1.4389 -0.0223 -1.7007
  399MOL0     H52634  -0.139   1.846   3.643  0.7931 -0.3547 -0.4381
  399MOL0     H52635  -0.154   1.703   3.760  0.1557 -0.0335 -0.4854
  399MOL0     H52636  -0.379   1.740   3.723  0.3883 -1.0278 -0.0862
  399MOL0     H52637  -0.344   1.638   3.578  2.1675 -1.3931  1.0685
  399MOL0     H52638  -0.480   1.830   3.509 -0.2210  2.0354  1.0904
  399MOL0     H52639  -0.310   1.863   3.459  3.7018  1.2432  3.3053
  399MOL0     H52640  -0.439   1.963   3.708  1.8200  1.4887  2.2735
  399MOL0     H52641  -0.289   2.019   3.636 -1.5730  1.0503  0.5458
  399MOL0     H52642  -0.505   2.163   3.593 -0.0367 -1.9116  2.9178
  399MOL0     H52643  -0.557   2.042   3.483 -0.7580  0.2262  2.6908
  399MOL0     H52644  -0.332   2.072   3.343  2.0098 -2.9643  3.5529
  399MOL0     H52645  -0.287   2.196   3.448  0.5948 -0.9396  0.9979
  399MOL0     H52646  -0.384   2.275   3.240 -3.6711 -0.4717 -1.7572
  399MOL0     H52647  -0.549   2.220   3.291 -2.0800  0.2440  2.7449
  399MOL0     H52648  -0.368   2.408   3.425 -0.1850 -1.4435  1.2378
  399MOL0     H52649  -0.520   2.349   3.505  0.3113 -0.1788  1.2966
  399MOL0     H52650   0.036   1.566   3.373  1.0245 -1.8113 -0.6968
  399MOL0     H52651   0.282   1.643   3.335 -1.1724  0.2231 -2.1169
  399MOL0     H52652   0.691   1.725   3.548 -1.0112  0.3773  0.3803
  399MOL0     H52653   0.943   1.768   3.446  1.2714  0.3785  3.8624
  399MOL0     H52654   1.150   1.012   2.844 -0.3693  0.2334  0.4685
  399MOL0     H52655   1.000   0.949   2.665 -0.3217  0.1961  0.9677
  399MOL0     H52656   0.890   1.094   2.185 -0.3224 -0.5946 -1.0857
  399MOL0     H52657   0.765   0.965   2.012 -3.7036  3.7119 -1.2551
  399MOL0     H52658   0.571   1.010   1.879 -2.3319  1.8361 -0.7712
  399MOL0     H52659   0.418   0.922   1.869  0.2824 -2.7913  1.1355
  399MOL0     H52660   0.635   0.839   1.745  1.9737  3.6760  1.3316
  399MOL0     H52661   0.696   0.770   1.892  1.2856  2.2094 -0.4866
  399MOL0     H52662   0.448   0.719   1.732  2.7044  2.4928  0.1587
  399MOL0     H52663   0.447   0.641   1.894 -4.4605  0.7897 -2.2855
  399MOL0     H52664   0.639   0.506   1.845 -0.5431  0.9622  0.5716
  399MOL0     H52665   0.502   0.477   1.735  0.1513 -1.6452  3.1817
  399MOL0     H52666   0.780   0.663   1.483 -1.2958  0.6662 -0.5529
  399MOL0     H52667   0.453   0.926   2.308  0.6771  0.1178  1.2330
  399MOL0     H52668   0.599   0.966   2.477  0.4456  1.4644  0.1814
  400MOL0     O52669   0.005   7.254   0.688 -0.1646 -0.4702 -1.1540
  400MOL0     C52670  -0.003   7.144   0.635 -0.0188  0.4205  0.0363
  400MOL0     O52671  -0.039   7.117   0.507  0.2794 -0.5108 -0.3501
  400MOL0     C52672  -0.064   7.212   0.415 -0.1239  0.0544  0.0399
  400MOL0     C52673  -0.025   7.167   0.283 -0.4070  0.2374  0.1121
  400MOL0     C52674  -0.050   7.247   0.165  0.4594  0.0288 -0.1908
  400MOL0     C52675  -0.132   7.362   0.193  0.1140  0.3934  0.6307
  400MOL0     O52676  -0.167   7.454   0.090  0.2262  0.3120  0.4101
  400MOL0     C52677  -0.178   7.394  -0.038  0.1247  0.3332  0.0867
  400MOL0     C52678  -0.208   7.488  -0.149  1.1787  0.1627  0.3901
  400MOL0     C52679  -0.361   7.530  -0.135  0.0761 -0.1357  0.6749
  400MOL0     C52680  -0.387   7.625  -0.259  0.1655 -0.4500 -0.0788
  400MOL0     C52681  -0.523   7.683  -0.252 -0.2518  0.1572  0.6253
  400MOL0     C52682  -0.558   7.797  -0.358  0.3473 -0.4702 -0.3411
  400MOL0     C52683  -0.455   7.910  -0.359 -0.5667  0.5081 -0.0862
  400MOL0     C52684  -0.441   8.000  -0.231  0.2833 -0.7528 -0.2400
  400MOL0     N52685  -0.573   8.041  -0.183 -0.2910 -0.5991 -0.1716
  400MOL0     C52686  -0.663   8.123  -0.247  0.2060  0.2952 -0.4004
  400MOL0     C52687  -0.776   8.136  -0.165 -1.0834  0.7328  0.0863
  400MOL0     C52688  -0.900   8.216  -0.172  0.1263  0.0370  0.0178
  400MOL0     C52689  -1.020   8.160  -0.092 -0.4295  0.6969  0.8762
  400MOL0     C52690  -1.132   8.258  -0.075 -1.2462  0.1429  0.0903
  400MOL0     C52691  -1.244   8.187  -0.014  0.3495  0.4180  0.2629
  400MOL0     O52692  -1.368   8.240  -0.060  0.0584  0.0039  0.4178
  400MOL0     C52693  -1.445   8.316   0.023 -0.0798  0.2367 -0.3766
  400MOL0     C52694  -1.580   8.316   0.004  0.2289 -0.1830 -0.0450
  400MOL0     C52695  -1.669   8.385   0.093 -0.0637  0.0902 -0.5367
  400MOL0     C52696  -1.613   8.463   0.195  0.0925 -0.2065 -0.0394
  400MOL0     C52697  -1.706   8.560   0.271 -0.6455 -0.7167  0.0311
  400MOL0     O52698  -1.826   8.518   0.263 -0.3427 -0.7167  0.0063
  400MOL0     C52699  -1.921   8.617   0.268  0.1676 -0.0759 -0.1474
  400MOL0     C52700  -1.954   8.670   0.391  0.3072 -1.1901  0.3132
  400MOL0     C52701  -2.073   8.740   0.415 -0.3526 -0.4521  0.1045
  400MOL0     C52702  -2.170   8.739   0.310  0.1132  0.1192  0.1908
  400MOL0     O52703  -2.284   8.818   0.339  0.0084  0.1092  0.3371
  400MOL0     C52704  -2.397   8.778   0.260 -0.7567  0.0152  0.1425
  400MOL0     C52705  -2.526   8.814   0.335  0.2735  0.5777  0.1247
  400MOL0     C52706  -2.540   8.717   0.451  0.2677 -0.2906  0.3223
  400MOL0     C52707  -2.667   8.757   0.534 -0.5969  0.5353  1.3752
  400MOL0     C52708  -2.711   8.659   0.642  1.3194 -0.0860  0.0027
  400MOL0     C52709  -2.856   8.696   0.686 -0.7656 -0.0277  0.5136
  400MOL0     C52710  -2.891   8.697   0.836  0.0640  0.6742 -0.5622
  400MOL0     C52711  -2.897   8.562   0.904  0.0516 -0.4268  1.1620
  400MOL0    Cl52712  -3.043   8.482   0.836  0.7174  0.0256 -0.1477
  400MOL0     C52713  -2.142   8.682   0.187 -0.0965  1.1088 -0.7246
  400MOL0     C52714  -2.015   8.617   0.169  0.3456 -1.1665  0.0851
  400MOL0     O52715  -1.654   8.644   0.345 -0.6830  0.3330 -0.3823
  400MOL0     C52716  -1.476   8.471   0.210 -0.9161 -0.0131 -0.8626
  400MOL0     C52717  -1.399   8.385   0.137  1.1778  0.3520  1.0270
  400MOL0     N52718  -0.757   8.039  -0.059 -0.0250  0.6628 -0.0958
  400MOL0     N52719  -0.641   7.983  -0.081 -0.6435  0.0450 -0.5358
  400MOL0     C52720  -0.162   7.406   0.322  0.1389  0.2559  0.1716
  400MOL0     C52721  -0.127   7.332   0.435  0.5861  0.4753 -0.8372
  400MOL0     C52722  -0.024   7.028   0.727 -0.7518  0.5372  0.3212
  400MOL0     C52723  -0.065   6.905   0.679  0.4705  0.0753 -0.2339
  400MOL0     C52724  -0.081   6.797   0.768 -0.3619  0.3371 -0.6929
  400MOL0     C52725  -0.052   6.804   0.903  0.2999 -0.9170  0.9696
  400MOL0     O52726  -0.085   6.700   0.996 -0.9218  0.2836 -0.3773
  400MOL0     C52727  -0.084   6.713   1.138 -0.7472  0.1447 -1.1931
  400MOL0     C52728  -0.049   6.576   1.194 -0.0109  0.4275  0.5593
  400MOL0     C52729  -0.146   6.466   1.128 -0.1305 -1.1838  0.3321
  400MOL0     C52730  -0.104   6.409   0.993 -1.2641 -0.1403 -1.0691
  400MOL0     C52731  -0.002   6.302   1.024 -1.4495 -0.1380 -1.3380
  400MOL0     C52732   0.076   6.224   1.082  0.0740  0.4019  0.0695
  400MOL0     C52733  -0.010   6.929   0.951  0.4219  0.1357 -0.1275
  400MOL0     C52734   0.001   7.037   0.868 -0.1617 -0.2651 -0.8694
  400MOL0     H52735   0.034   7.076   0.270 -1.6148 -0.2347 -2.6465
  400MOL0     H52736  -0.013   7.219   0.067 -0.1591  0.6818 -0.6186
  400MOL0     H52737  -0.255   7.316  -0.029 -0.7125  1.0798 -0.4198
  400MOL0     H52738  -0.088   7.341  -0.072  0.5154  1.5843 -0.9039
  400MOL0     H52739  -0.196   7.422  -0.236 -0.3522 -1.7359  1.5397
  400MOL0     H52740  -0.140   7.573  -0.158 -3.1148  3.9389  0.3332
  400MOL0     H52741  -0.374   7.591  -0.045  2.0220  0.7809  0.3941
  400MOL0     H52742  -0.433   7.449  -0.122 -1.5581  1.2850  0.7829
  400MOL0     H52743  -0.301   7.692  -0.259  1.0687 -1.5508 -1.3841
  400MOL0     H52744  -0.373   7.572  -0.354 -3.1916  0.4983 -1.2543
  400MOL0     H52745  -0.551   7.725  -0.154  0.2289 -0.0851  0.8669
  400MOL0     H52746  -0.587   7.595  -0.270  1.5712 -1.5084  1.8506
  400MOL0     H52747  -0.651   7.847  -0.330  0.3013 -2.3405  3.3811
  400MOL0     H52748  -0.578   7.761  -0.460 -1.4767 -0.7025  0.0585
  400MOL0     H52749  -0.356   7.874  -0.391 -0.7490  1.8708 -2.4163
  400MOL0     H52750  -0.489   7.971  -0.443 -2.1440 -1.8980 -1.2968
  400MOL0     H52751  -0.377   8.086  -0.254  0.5363 -1.2446 -1.4078
  400MOL0     H52752  -0.388   7.952  -0.147  1.6193  2.2250  0.7789
  400MOL0     H52753  -0.636   8.175  -0.338  0.6309 -2.5828 -2.0352
  400MOL0     H52754  -0.924   8.237  -0.277  4.1596 -3.6788 -1.9517
  400MOL0     H52755  -0.875   8.310  -0.123 -1.5638  0.6759 -0.3009
  400MOL0     H52756  -0.977   8.141   0.007  0.4056  1.5227  0.6935
  400MOL0     H52757  -1.061   8.074  -0.145 -0.1344  1.4620 -0.6543
  400MOL0     H52758  -1.107   8.353  -0.028 -1.8909 -0.0100  0.7569
  400MOL0     H52759  -1.166   8.271  -0.178  0.8820 -1.0342 -0.8352
  400MOL0     H52760  -1.227   8.196   0.093  1.1280 -1.3522  0.3294
  400MOL0     H52761  -1.235   8.083  -0.048 -0.3955  0.5918 -0.5182
  400MOL0     H52762  -1.611   8.259  -0.083  0.1328  1.4382 -1.1143
  400MOL0     H52763  -1.776   8.385   0.076 -0.0350  1.9222 -0.9442
  400MOL0     H52764  -1.882   8.685   0.471  0.6637 -0.2521 -0.1683
  400MOL0     H52765  -2.083   8.788   0.512  0.5930 -1.1032  0.5416
  400MOL0     H52766  -2.390   8.672   0.233 -1.5565  0.4115 -1.7275
  400MOL0     H52767  -2.409   8.834   0.168 -0.0692  0.5024  0.3383
  400MOL0     H52768  -2.606   8.790   0.264  1.3075  0.7851 -1.1485
  400MOL0     H52769  -2.530   8.920   0.361  1.3263 -0.1276  3.5591
  400MOL0     H52770  -2.456   8.727   0.521 -0.1624  0.8066  0.7199
  400MOL0     H52771  -2.557   8.614   0.420  0.5877 -0.1772 -0.2427
  400MOL0     H52772  -2.645   8.861   0.560 -2.7492  1.4952 -0.3478
  400MOL0     H52773  -2.749   8.756   0.463  1.0270 -2.2609 -0.6467
  400MOL0     H52774  -2.655   8.674   0.736  0.0807  3.2171  0.3541
  400MOL0     H52775  -2.714   8.554   0.611 -0.7201 -1.2538  3.5720
  400MOL0     H52776  -2.929   8.637   0.629  0.3651 -1.0493  0.0960
  400MOL0     H52777  -2.873   8.800   0.659  3.2749  0.7245  0.2608
  400MOL0     H52778  -2.817   8.758   0.888  0.4309 -0.1664 -0.0957
  400MOL0     H52779  -2.985   8.754   0.839  0.2753  1.0585 -0.9872
  400MOL0     H52780  -2.904   8.585   1.011 -1.6022  1.3120  0.7185
  400MOL0     H52781  -2.812   8.496   0.883 -1.4100 -1.1286 -3.8267
  400MOL0     H52782  -2.210   8.687   0.103 -3.7129  2.1043  1.9695
  400MOL0     H52783  -2.002   8.559   0.078  0.3559 -3.0630  1.2224
  400MOL0     H52784  -1.425   8.542   0.274 -0.8973 -0.4779 -0.3552
  400MOL0     H52785  -1.291   8.398   0.144  1.2001 -0.1161  1.6036
  400MOL0     H52786  -0.235   7.486   0.320  0.8507  0.9161  0.2515
  400MOL0     H52787  -0.147   7.361   0.538  1.8197  1.6627 -0.9127
  400MOL0     H52788  -0.079   6.892   0.573  3.7099 -0.6502 -0.6645
  400MOL0     H52789  -0.124   6.704   0.734  0.3481 -0.2229 -0.0744
  400MOL0     H52790  -0.180   6.750   1.174 -0.8037  0.8022 -1.9902
  400MOL0     H52791  -0.009   6.780   1.179 -1.5910  0.7378 -0.6036
  400MOL0     H52792   0.059   6.563   1.185  0.1892  0.4504  2.5106
  400MOL0     H52793  -0.074   6.578   1.301 -1.3709 -0.5855  0.2878
  400MOL0     H52794  -0.250   6.500   1.137  0.7391  1.3246  1.8541
  400MOL0     H52795  -0.129   6.387   1.202  3.1686 -1.6629 -0.7789
  400MOL0     H52796  -0.196   6.370   0.949 -1.7017  1.3826 -1.5845
  400MOL0     H52797  -0.060   6.482   0.924 -0.4249  1.0040  0.5988
  400MOL0     H52798   0.145   6.167   1.141  0.3481  3.2681  2.7860
  400MOL0     H52799   0.004   6.943   1.058 -1.4496  0.1795  0.1477
  400MOL0     H52800   0.033   7.135   0.902 -1.3173  0.2738 -1.2875
  401MOL0     O52801   5.704   6.388   0.847 -0.0711 -0.1482  0.3872
  401MOL0     C52802   5.702   6.265   0.851  0.3373 -0.0879 -0.0357
  401MOL0     O52803   5.802   6.186   0.905  0.0517  0.0835  0.9938
  401MOL0     C52804   5.890   6.255   0.979 -0.2584 -0.3453  0.1545
  401MOL0     C52805   5.998   6.311   0.904 -0.5021  0.0655  0.0354
  401MOL0     C52806   6.114   6.370   0.964  0.3902 -0.7383  0.8049
  401MOL0     C52807   6.114   6.385   1.103 -0.2325 -1.0979  0.0354
  401MOL0     O52808   6.219   6.440   1.167 -0.7542 -1.3075  0.8812
  401MOL0     C52809   6.199   6.561   1.244  0.6697  0.1512  0.1357
  401MOL0     C52810   6.328   6.646   1.253  0.1607  0.2054  0.4307
  401MOL0     C52811   6.438   6.569   1.322 -0.3927  0.6533  0.1173
  401MOL0     C52812   6.586   6.593   1.281 -0.3120  0.7892 -0.2457
  401MOL0     C52813   6.618   6.562   1.139 -0.1367  0.7923 -0.3762
  401MOL0     C52814   6.614   6.412   1.092 -0.9691 -0.1202 -0.8922
  401MOL0     C52815   6.564   6.397   0.952 -0.3273 -1.1792  0.0601
  401MOL0     C52816   6.670   6.454   0.861 -0.4569  0.2423  0.4014
  401MOL0     N52817   6.607   6.451   0.730 -0.4184  0.1186 -0.4701
  401MOL0     C52818   6.576   6.341   0.654  0.2315 -0.2357  0.3369
  401MOL0     C52819   6.508   6.403   0.549  0.5111  1.0889 -0.6488
  401MOL0     C52820   6.457   6.329   0.433  0.2290 -0.9054  0.0672
  401MOL0     C52821   6.324   6.400   0.392 -0.1384 -0.1534  0.7813
  401MOL0     C52822   6.261   6.349   0.258  0.6334  0.4070  1.0107
  401MOL0     C52823   6.206   6.207   0.252  0.2033 -0.4207  0.6271
  401MOL0     O52824   6.293   6.097   0.265 -0.6408 -0.2353  0.1440
  401MOL0     C52825   6.243   5.975   0.291 -0.2069  0.7973  0.0320
  401MOL0     C52826   6.109   5.936   0.301  0.1880 -0.6904 -0.6099
  401MOL0     C52827   6.089   5.819   0.353  0.3726  0.3702 -0.0317
  401MOL0     C52828   6.183   5.726   0.394  0.3788 -0.4051  0.0457
  401MOL0     C52829   6.157   5.610   0.472  0.7337  1.3049  0.0227
  401MOL0     O52830   6.260   5.533   0.511  0.5675  0.4929  0.3422
  401MOL0     C52831   6.257   5.417   0.579  0.5900  0.0746 -0.8757
  401MOL0     C52832   6.182   5.406   0.706 -0.9094  1.0277  0.7506
  401MOL0     C52833   6.185   5.293   0.782  0.2184 -0.6876 -0.6074
  401MOL0     C52834   6.280   5.197   0.756 -0.0361 -0.3921 -0.6256
  401MOL0     O52835   6.292   5.082   0.833 -0.6515 -0.1354  0.6208
  401MOL0     C52836   6.231   5.071   0.965 -0.2526  0.6074  0.2549
  401MOL0     C52837   6.086   5.007   0.964  0.3078  1.3771 -0.0018
  401MOL0     C52838   6.091   4.852   0.966  0.5006 -0.3149  0.1206
  401MOL0     C52839   6.151   4.787   0.848  1.0884 -1.3457 -0.2834
  401MOL0     C52840   6.151   4.640   0.849 -0.9036  0.5009 -0.0612
  401MOL0     C52841   6.256   4.589   0.948  0.2009  0.0786  0.1879
  401MOL0     C52842   6.281   4.442   0.941 -0.4920  0.2867 -0.5812
  401MOL0     C52843   6.161   4.346   0.924  0.8186 -0.5202 -0.6823
  401MOL0    Cl52844   6.206   4.167   0.931 -0.3301 -0.3076 -0.2022
  401MOL0     C52845   6.372   5.209   0.652 -0.2568  0.1502 -0.0387
  401MOL0     C52846   6.346   5.318   0.561  0.1357 -0.3873 -0.0045
  401MOL0     O52847   6.035   5.583   0.486 -0.2607  0.2308 -0.2517
  401MOL0     C52848   6.315   5.757   0.363  0.5232 -1.0902 -0.2945
  401MOL0     C52849   6.345   5.883   0.317 -0.5112  0.1016  1.3577
  401MOL0     N52850   6.508   6.536   0.567  0.3042  0.0854 -0.4272
  401MOL0     N52851   6.567   6.564   0.674  0.4303  0.3499  1.1164
  401MOL0     C52852   6.001   6.333   1.176  0.4545  0.2171  0.6026
  401MOL0     C52853   5.896   6.263   1.121  0.6266 -0.0816 -0.2406
  401MOL0     C52854   5.578   6.194   0.791 -0.9565 -0.2454 -0.5172
  401MOL0     C52855   5.478   6.273   0.730 -1.0380 -0.3241  0.1026
  401MOL0     C52856   5.377   6.212   0.665  0.3432  0.0737  0.7566
  401MOL0     C52857   5.367   6.071   0.659  0.4451 -0.8569  0.6381
  401MOL0     O52858   5.280   6.001   0.581  0.7888 -0.2560 -0.3510
  401MOL0     C52859   5.161   6.077   0.531 -0.3919  0.8352 -0.2362
  401MOL0     C52860   5.076   5.986   0.443 -0.7314  0.3325  0.0195
  401MOL0     C52861   5.174   5.933   0.332  0.1874 -0.2500 -0.3608
  401MOL0     C52862   5.203   5.789   0.378  0.6642  0.2082  0.6688
  401MOL0     C52863   5.328   5.754   0.311 -0.2509  0.0536  0.7396
  401MOL0     C52864   5.430   5.719   0.258  0.9877  0.5809 -0.1000
  401MOL0     C52865   5.461   5.994   0.726  0.6231  1.1124 -1.2048
  401MOL0     C52866   5.566   6.054   0.799 -0.4961  0.1667  0.2816
  401MOL0     H52867   6.016   6.297   0.798  1.5982  3.3265 -0.1760
  401MOL0     H52868   6.192   6.412   0.902 -1.9120 -0.5352 -2.1467
  401MOL0     H52869   6.148   6.548   1.340 -0.7262  0.5617 -0.5201
  401MOL0     H52870   6.126   6.617   1.184  1.7949  0.4737 -0.9768
  401MOL0     H52871   6.309   6.735   1.314  0.3177  0.3336  0.2981
  401MOL0     H52872   6.347   6.672   1.148  0.9478  1.0312  0.7586
  401MOL0     H52873   6.412   6.465   1.300 -1.6167  0.6421  1.4298
  401MOL0     H52874   6.432   6.581   1.431 -0.0878  0.1746  0.1874
  401MOL0     H52875   6.595   6.701   1.294 -0.5684  0.6517  1.2372
  401MOL0     H52876   6.646   6.530   1.348 -3.4448 -1.7887  0.3876
  401MOL0     H52877   6.724   6.582   1.119 -0.2855 -0.2071 -2.4672
  401MOL0     H52878   6.560   6.627   1.073  0.9252  2.8872  0.6580
  401MOL0     H52879   6.546   6.354   1.155 -0.7609 -0.9294 -1.3965
  401MOL0     H52880   6.712   6.366   1.108  0.1000  1.8627 -1.4565
  401MOL0     H52881   6.532   6.295   0.934  1.4130 -1.9102  0.8582
  401MOL0     H52882   6.482   6.470   0.947  1.2444  0.6165 -1.5118
  401MOL0     H52883   6.755   6.386   0.869 -2.2845 -2.1181  1.0429
  401MOL0     H52884   6.701   6.556   0.885 -0.3297  0.1340  0.7087
  401MOL0     H52885   6.597   6.237   0.676  1.7782  0.4013  2.1452
  401MOL0     H52886   6.430   6.227   0.461 -4.6365 -0.3407 -1.4857
  401MOL0     H52887   6.528   6.325   0.350 -1.6193 -0.4720 -1.6048
  401MOL0     H52888   6.359   6.499   0.360  0.7086 -0.9487 -0.8581
  401MOL0     H52889   6.256   6.401   0.478  0.8692  0.5704  1.6012
  401MOL0     H52890   6.177   6.418   0.255  0.8049  0.5968  0.0914
  401MOL0     H52891   6.333   6.368   0.178  0.1920  1.2429  0.8079
  401MOL0     H52892   6.147   6.195   0.161 -0.4747 -0.1940  1.0313
  401MOL0     H52893   6.133   6.201   0.333 -1.7602  2.7687 -0.6910
  401MOL0     H52894   6.028   6.004   0.274 -1.2917 -1.7532  0.9429
  401MOL0     H52895   5.982   5.801   0.366 -0.3370  3.4883 -0.6384
  401MOL0     H52896   6.131   5.496   0.740 -0.3433  0.7300  2.5029
  401MOL0     H52897   6.119   5.282   0.868  0.3102 -1.2675 -0.6054
  401MOL0     H52898   6.227   5.163   1.024 -0.9848  1.9545 -1.7585
  401MOL0     H52899   6.297   5.008   1.024  1.6172  1.9351 -0.3275
  401MOL0     H52900   6.034   5.033   0.871  0.6024  1.2819 -0.1939
  401MOL0     H52901   6.030   5.044   1.051 -2.8897 -1.4616 -0.6184
  401MOL0     H52902   5.986   4.822   0.976  0.1630  0.6268 -0.4402
  401MOL0     H52903   6.143   4.849   1.062  0.3738  0.3632  0.2173
  401MOL0     H52904   6.094   4.820   0.761 -1.7966 -3.5442  0.6012
  401MOL0     H52905   6.250   4.824   0.819  0.2761  1.2912 -0.0093
  401MOL0     H52906   6.193   4.611   0.753 -1.4801 -1.0530  0.1164
  401MOL0     H52907   6.049   4.600   0.855 -1.0577  0.8959 -0.0487
  401MOL0     H52908   6.233   4.609   1.053 -1.3142 -4.0665  0.8644
  401MOL0     H52909   6.351   4.638   0.928 -1.1980  1.7183 -3.0801
  401MOL0     H52910   6.342   4.412   0.855 -1.0116 -2.9922  0.0585
  401MOL0     H52911   6.343   4.419   1.028  0.0387  2.1637 -0.4223
  401MOL0     H52912   6.104   4.371   0.833 -1.7686  0.8822  1.1778
  401MOL0     H52913   6.084   4.362   1.001 -1.0244 -1.4759 -2.2255
  401MOL0     H52914   6.454   5.138   0.650  0.4771  0.9034  1.3902
  401MOL0     H52915   6.419   5.331   0.481 -0.1704  1.5020 -0.0301
  401MOL0     H52916   6.399   5.691   0.385  0.2645 -0.7151  2.1180
  401MOL0     H52917   6.446   5.915   0.298  0.8476 -3.2775  2.0898
  401MOL0     H52918   6.000   6.345   1.284  1.1717 -0.8136  0.7506
  401MOL0     H52919   5.814   6.220   1.179 -0.9048  2.0152 -0.7445
  401MOL0     H52920   5.478   6.380   0.712 -0.4313 -0.7105 -2.4622
  401MOL0     H52921   5.301   6.263   0.606  1.0580 -0.7120 -0.8880
  401MOL0     H52922   5.192   6.173   0.489  2.3930  0.9484  1.8077
  401MOL0     H52923   5.102   6.108   0.617  4.9962  0.6102  4.0875
  401MOL0     H52924   5.023   5.902   0.488  1.3252 -1.2262 -0.3122
  401MOL0     H52925   4.997   6.045   0.396  0.5522 -0.9913 -4.2822
  401MOL0     H52926   5.260   6.002   0.333  0.6261 -0.6864  2.5765
  401MOL0     H52927   5.125   5.925   0.235  1.6779  0.7879 -1.2448
  401MOL0     H52928   5.223   5.776   0.485  0.1302 -1.6554  0.5813
  401MOL0     H52929   5.124   5.721   0.344 -1.7842  2.7242  1.0354
  401MOL0     H52930   5.518   5.684   0.207 -0.5141 -1.9246 -1.1646
  401MOL0     H52931   5.425   5.892   0.735 -0.7397  1.4995 -1.8950
  401MOL0     H52932   5.635   5.993   0.857 -1.1863  1.5699  2.7420
  402MOL0     O52933   5.169   8.513   1.342  0.2626 -0.6061 -0.5739
  402MOL0     C52934   5.216   8.554   1.451 -0.5693 -1.3009  0.3099
  402MOL0     O52935   5.331   8.502   1.510  0.5656  0.6180 -0.0133
  402MOL0     C52936   5.379   8.391   1.449  0.5712 -0.4368  0.5362
  402MOL0     C52937   5.337   8.265   1.492 -0.1084 -0.6172 -0.2301
  402MOL0     C52938   5.415   8.153   1.457  0.2119 -0.0570 -0.0121
  402MOL0     C52939   5.521   8.161   1.368  0.0884  0.5192 -1.2267
  402MOL0     O52940   5.581   8.043   1.340 -0.2528  0.4371  0.5595
  402MOL0     C52941   5.616   8.020   1.200  0.0779 -0.6484  0.2939
  402MOL0     C52942   5.500   7.951   1.140 -0.4665  0.5389 -0.7990
  402MOL0     C52943   5.520   7.916   0.987  0.9174  0.7236  0.0038
  402MOL0     C52944   5.490   8.035   0.890 -0.3348  0.1540 -0.5287
  402MOL0     C52945   5.460   8.008   0.739 -0.2281  0.0141  0.7606
  402MOL0     C52946   5.311   7.947   0.714 -0.2121 -0.2092 -1.2468
  402MOL0     C52947   5.279   7.935   0.570 -0.7128  0.1472  0.6422
  402MOL0     C52948   5.258   7.786   0.538 -0.7912 -0.3639 -0.4057
  402MOL0     N52949   5.232   7.782   0.396 -0.2102  1.0129 -0.4828
  402MOL0     C52950   5.334   7.753   0.302 -0.6149 -0.6226 -0.4239
  402MOL0     C52951   5.281   7.699   0.190 -0.1048  0.1332  0.2251
  402MOL0     C52952   5.355   7.694   0.057  0.4490  0.2825  0.2338
  402MOL0     C52953   5.446   7.577   0.033 -1.3927  0.4554 -0.4805
  402MOL0     C52954   5.386   7.448   0.007 -0.3297 -0.0840 -0.1611
  402MOL0     C52955   5.310   7.438  -0.123  0.3911  0.0375 -0.4773
  402MOL0     O52956   5.406   7.409  -0.226 -0.8472  0.1500 -0.2302
  402MOL0     C52957   5.390   7.301  -0.301 -0.8328  0.0630 -0.5008
  402MOL0     C52958   5.388   7.302  -0.434  1.0864 -1.1349  0.2794
  402MOL0     C52959   5.364   7.184  -0.507  0.0771  0.4993 -0.6390
  402MOL0     C52960   5.358   7.057  -0.450 -0.3883  1.1896  0.7906
  402MOL0     C52961   5.334   6.928  -0.525  0.0969  0.0769  0.1613
  402MOL0     O52962   5.353   6.808  -0.449 -0.3137  0.6481  0.5225
  402MOL0     C52963   5.380   6.690  -0.511 -1.2213  0.9463  0.1610
  402MOL0     C52964   5.335   6.565  -0.465 -0.6455  0.4963  0.2181
  402MOL0     C52965   5.377   6.449  -0.527 -0.3286  0.2201 -0.4630
  402MOL0     C52966   5.463   6.446  -0.638 -0.2730  0.5069 -0.3979
  402MOL0     O52967   5.519   6.327  -0.673  0.6527  0.8582 -0.1220
  402MOL0     C52968   5.587   6.312  -0.798  0.3897  0.5723 -0.3637
  402MOL0     C52969   5.494   6.236  -0.883 -0.3977 -0.1789  0.2556
  402MOL0     C52970   5.556   6.235  -1.025 -0.1909  0.1560 -0.1190
  402MOL0     C52971   5.462   6.169  -1.128 -0.5098  0.0486  0.3885
  402MOL0     C52972   5.494   6.020  -1.171 -0.1124  0.9794  0.5892
  402MOL0     C52973   5.495   5.927  -1.059  0.3234  0.5007 -0.1350
  402MOL0     C52974   5.511   5.782  -1.105 -0.5026 -0.1002 -1.3044
  402MOL0     C52975   5.405   5.723  -1.192  0.0147 -0.3573  0.2209
  402MOL0    Cl52976   5.235   5.743  -1.130  0.4324  0.2211 -0.1206
  402MOL0     C52977   5.503   6.570  -0.690 -0.0527 -0.9321  1.1506
  402MOL0     C52978   5.463   6.686  -0.629  0.4676 -0.6025 -1.0616
  402MOL0     O52979   5.314   6.931  -0.645  0.0134  0.1063 -0.0190
  402MOL0     C52980   5.349   7.060  -0.309  0.6634  0.4373  0.5772
  402MOL0     C52981   5.363   7.175  -0.239  0.0071  0.2423  0.1344
  402MOL0     N52982   5.149   7.671   0.213  0.2146  0.8537 -0.8505
  402MOL0     N52983   5.118   7.719   0.335 -0.0755  0.3756 -0.2820
  402MOL0     C52984   5.559   8.287   1.315 -0.0620 -0.6279 -0.4799
  402MOL0     C52985   5.480   8.398   1.362 -0.0657  0.1167 -0.8745
  402MOL0     C52986   5.136   8.651   1.528  0.2630 -0.3366  0.5796
  402MOL0     C52987   5.092   8.781   1.481 -0.2789  0.5914 -0.0057
  402MOL0     C52988   5.038   8.883   1.560 -0.6637 -0.2209 -0.4090
  402MOL0     C52989   5.017   8.852   1.691 -0.3331  0.5587 -0.8079
  402MOL0     O52990   4.956   8.955   1.767 -0.0234 -0.3045  0.1087
  402MOL0     C52991   4.854   8.932   1.860  0.7002 -0.6809  0.2059
  402MOL0     C52992   4.724   8.873   1.809 -0.2298  1.0398  0.4747
  402MOL0     C52993   4.669   8.953   1.690  0.2410 -0.1245 -0.9077
  402MOL0     C52994   4.537   8.890   1.645 -0.3686  0.1112 -0.1201
  402MOL0     C52995   4.463   8.994   1.581 -0.0276  0.4819  0.2711
  402MOL0     C52996   4.405   9.078   1.521 -0.8014 -0.1277 -0.4821
  402MOL0     C52997   5.040   8.719   1.741  0.8656  0.4342 -0.2388
  402MOL0     C52998   5.113   8.628   1.666  0.7405  1.1537 -0.7143
  402MOL0     H52999   5.251   8.263   1.558 -0.5738  3.0238 -0.5228
  402MOL0     H53000   5.373   8.054   1.476  1.4115 -1.0031 -1.9293
  402MOL0     H53001   5.705   7.957   1.200  2.2182  2.0966 -1.9813
  402MOL0     H53002   5.630   8.106   1.134 -0.7466  0.3407  1.3717
  402MOL0     H53003   5.412   8.014   1.155 -2.0225 -1.8487  0.8255
  402MOL0     H53004   5.484   7.859   1.197 -1.0303  0.6816 -0.7251
  402MOL0     H53005   5.460   7.828   0.961 -1.6078  2.2487  0.2593
  402MOL0     H53006   5.620   7.873   0.988  1.9985  3.0867 -0.6794
  402MOL0     H53007   5.415   8.099   0.938  0.6021  1.1997 -0.4013
  402MOL0     H53008   5.579   8.098   0.881 -1.5318  1.8250 -1.0835
  402MOL0     H53009   5.541   7.945   0.701  0.2506  1.5577 -0.9628
  402MOL0     H53010   5.473   8.101   0.682 -1.3814 -1.9023 -3.0009
  402MOL0     H53011   5.248   8.026   0.756 -0.3416 -0.1178 -1.6030
  402MOL0     H53012   5.287   7.852   0.764 -3.7101  1.3055  0.3363
  402MOL0     H53013   5.199   8.004   0.541  1.0693  1.8261 -0.4969
  402MOL0     H53014   5.362   7.974   0.511 -0.0315 -2.7327 -0.4783
  402MOL0     H53015   5.173   7.740   0.590 -1.2205  1.3518  0.4502
  402MOL0     H53016   5.344   7.722   0.562  1.2328  1.4855 -2.3203
  402MOL0     H53017   5.437   7.787   0.303 -0.7955  0.0458 -1.7035
  402MOL0     H53018   5.403   7.791   0.040  0.6889  0.1605  0.2035
  402MOL0     H53019   5.280   7.684  -0.022  0.0385 -0.0493  0.6605
  402MOL0     H53020   5.511   7.569   0.122  0.4163 -0.8583 -1.8377
  402MOL0     H53021   5.525   7.602  -0.039  1.3656  1.0555  2.4847
  402MOL0     H53022   5.469   7.376   0.001  1.4149  1.5191  2.5480
  402MOL0     H53023   5.323   7.411   0.089  2.0957 -1.8956  1.0267
  402MOL0     H53024   5.244   7.522  -0.147  0.8322  1.0031  1.4510
  402MOL0     H53025   5.241   7.356  -0.098  0.4036  1.2117  4.2472
  402MOL0     H53026   5.379   7.399  -0.482 -3.4446 -0.6796  1.5409
  402MOL0     H53027   5.361   7.184  -0.616 -0.8104 -3.1354 -0.7233
  402MOL0     H53028   5.282   6.562  -0.371  1.8705 -3.1140  1.7558
  402MOL0     H53029   5.345   6.353  -0.489 -0.9649  0.6607  0.1590
  402MOL0     H53030   5.683   6.259  -0.794  0.5479  0.9015  0.4863
  402MOL0     H53031   5.620   6.408  -0.841  2.0340  0.7252  1.1246
  402MOL0     H53032   5.395   6.282  -0.876 -0.9664 -0.6643 -2.8921
  402MOL0     H53033   5.486   6.134  -0.845 -0.7376  0.5971  2.3921
  402MOL0     H53034   5.645   6.172  -1.015 -1.3232 -1.2107  2.7561
  402MOL0     H53035   5.587   6.333  -1.062  1.7461 -0.7989 -1.1918
  402MOL0     H53036   5.356   6.188  -1.109 -0.1739  0.0826  2.4086
  402MOL0     H53037   5.492   6.231  -1.213  2.8842  0.6003  1.8332
  402MOL0     H53038   5.591   6.015  -1.221 -0.9424  1.0361 -1.1387
  402MOL0     H53039   5.424   5.999  -1.253  0.8533 -1.3720  0.3045
  402MOL0     H53040   5.406   5.935  -0.996  2.2590 -0.2893  2.9050
  402MOL0     H53041   5.578   5.948  -0.991 -0.0753  0.8483  0.2532
  402MOL0     H53042   5.619   5.771  -1.119 -0.0714  1.5430  0.4087
  402MOL0     H53043   5.497   5.721  -1.015 -1.8972  1.3849 -0.4751
  402MOL0     H53044   5.419   5.615  -1.201 -1.6221 -0.6044  0.4609
  402MOL0     H53045   5.421   5.751  -1.297 -1.5710  0.7070  0.2260
  402MOL0     H53046   5.561   6.592  -0.780  0.3727  0.5529  1.7501
  402MOL0     H53047   5.497   6.779  -0.673 -2.3952  1.0750  0.0199
  402MOL0     H53048   5.334   6.976  -0.243 -1.0601  1.1635  1.1728
  402MOL0     H53049   5.360   7.185  -0.131 -0.5893 -1.5159  0.3153
  402MOL0     H53050   5.652   8.293   1.259  1.1934 -2.8154  1.2196
  402MOL0     H53051   5.498   8.500   1.327 -2.9805  1.9138  2.2658
  402MOL0     H53052   5.121   8.794   1.377  1.6321  4.5930  0.8358
  402MOL0     H53053   5.015   8.987   1.538 -4.2025 -0.8238 -0.1451
  402MOL0     H53054   4.830   9.026   1.911 -0.9103 -0.7456 -0.3774
  402MOL0     H53055   4.891   8.873   1.945 -2.7457 -1.4138  1.4037
  402MOL0     H53056   4.726   8.766   1.786 -2.1292  1.5259 -2.6067
  402MOL0     H53057   4.645   8.886   1.883 -0.2909  0.4171  0.5290
  402MOL0     H53058   4.730   8.957   1.600  0.1295  1.8521 -0.9280
  402MOL0     H53059   4.654   9.055   1.727  1.0678  0.0706 -1.0829
  402MOL0     H53060   4.549   8.807   1.575  0.0553  0.3249 -0.3051
  402MOL0     H53061   4.476   8.843   1.723  0.5506 -2.0667 -0.6366
  402MOL0     H53062   4.354   9.157   1.469  2.1548  0.7283 -2.3197
  402MOL0     H53063   5.033   8.686   1.844  2.4561 -0.4056 -0.3633
  402MOL0     H53064   5.154   8.541   1.715  1.4109  2.6327  1.5151
  403MOL0     O53065  10.703   3.079   8.646  0.7815  0.3863  0.3852
  403MOL0     C53066  10.693   2.960   8.693  0.0369  0.8420 -0.3414
  403MOL0     O53067  10.577   2.908   8.751  0.1487 -0.8068  0.0522
  403MOL0     C53068  10.496   3.006   8.813  0.0690 -0.0230 -1.2607
  403MOL0     C53069  10.372   3.059   8.761  0.5081 -0.1267 -0.6620
  403MOL0     C53070  10.301   3.146   8.843  0.2729  0.8737  0.2251
  403MOL0     C53071  10.349   3.182   8.973  0.2938 -0.5484  0.0168
  403MOL0     O53072  10.263   3.263   9.054 -1.1162  0.2060  0.1329
  403MOL0     C53073  10.277   3.264   9.198 -0.1307  0.5890  0.3829
  403MOL0     C53074  10.280   3.410   9.243  0.3302  0.4466 -0.1379
  403MOL0     C53075  10.150   3.483   9.202  0.0561  0.5399 -1.0300
  403MOL0     C53076  10.134   3.622   9.264  0.6096 -0.0165 -0.4518
  403MOL0     C53077  10.014   3.704   9.198  0.1907 -0.7140 -0.2704
  403MOL0     C53078   9.998   3.845   9.262  0.0170  0.2496  0.0965
  403MOL0     C53079   9.860   3.901   9.225  0.1695 -0.4365 -0.0096
  403MOL0     C53080   9.840   4.047   9.262  0.1610  0.6223  0.2834
  403MOL0     N53081   9.855   4.073   9.411  0.5528 -0.1550 -0.1200
  403MOL0     C53082   9.811   3.979   9.500  0.1963  0.4417  0.1370
  403MOL0     C53083   9.849   4.034   9.618 -1.7549 -0.2367  0.6533
  403MOL0     C53084   9.816   3.974   9.749 -0.7578 -0.0589  0.4563
  403MOL0     C53085   9.860   3.824   9.776  0.1834 -0.8228  0.0817
  403MOL0     C53086   9.810   3.782   9.918 -0.4335  0.3002 -0.5120
  403MOL0     C53087   9.851   3.638   9.946  0.1847 -0.2036 -0.8246
  403MOL0     O53088   9.790   3.557   9.851  0.1717 -0.0681  0.1057
  403MOL0     C53089   9.884   3.468   9.808  0.8513  0.6807 -0.4823
  403MOL0     C53090   9.895   3.446   9.671 -0.6495 -0.0448  0.3654
  403MOL0     C53091  10.001   3.370   9.626  0.3335  0.7627 -0.0386
  403MOL0     C53092  10.070   3.284   9.716 -0.3449  0.7679  0.5081
  403MOL0     C53093  10.157   3.180   9.646 -0.6116  0.2029  0.3462
  403MOL0     O53094  10.172   3.061   9.712 -0.2557  0.3166  0.6808
  403MOL0     C53095  10.226   2.943   9.658 -0.4975  0.0831  0.2274
  403MOL0     C53096  10.259   2.908   9.519  1.1869 -0.3489  0.4910
  403MOL0     C53097  10.312   2.784   9.486 -0.3649 -0.3518 -0.3357
  403MOL0     C53098  10.321   2.690   9.582 -0.0240  0.4832 -0.2949
  403MOL0     O53099  10.376   2.575   9.535  1.7972  0.5332  0.5128
  403MOL0     C53100  10.435   2.490   9.628 -0.7231  0.4863 -0.5516
  403MOL0     C53101  10.501   2.395   9.550 -1.1303  0.2414 -0.5247
  403MOL0     C53102  10.414   2.278   9.483 -0.0399  0.5505 -0.2810
  403MOL0     C53103  10.471   2.192   9.367 -0.5350 -0.8738  0.2879
  403MOL0     C53104  10.605   2.121   9.381 -0.0611 -0.3436  0.2317
  403MOL0     C53105  10.633   2.043   9.249  0.9567  0.3303  0.2663
  403MOL0     C53106  10.714   1.915   9.249 -0.5946 -0.1539 -0.5292
  403MOL0     C53107  10.663   1.812   9.152  1.2106 -1.0624 -0.3502
  403MOL0    Cl53108  10.720   1.878   8.989  0.2637 -0.3840  0.0069
  403MOL0     C53109  10.265   2.718   9.714 -0.1401  0.0620  0.2760
  403MOL0     C53110  10.222   2.843   9.747 -0.2429  0.4727 -0.0734
  403MOL0     O53111  10.205   3.213   9.537  0.4763 -0.1827 -0.3309
  403MOL0     C53112  10.055   3.289   9.855 -0.3364 -0.6759 -0.1872
  403MOL0     C53113   9.969   3.389   9.891 -0.3475 -0.6525  0.0751
  403MOL0     N53114   9.929   4.144   9.596  0.4096  0.2809  0.1508
  403MOL0     N53115   9.940   4.165   9.472 -0.2066 -0.6203 -0.7159
  403MOL0     C53116  10.481   3.144   9.017 -1.0256 -0.4666 -0.7397
  403MOL0     C53117  10.553   3.050   8.937 -0.5615 -0.8138 -1.0271
  403MOL0     C53118  10.795   2.862   8.649 -0.8183 -0.7673  0.2670
  403MOL0     C53119  10.782   2.724   8.678  0.2936 -0.1649 -0.5502
  403MOL0     C53120  10.879   2.633   8.629  0.1662 -0.2980 -0.2059
  403MOL0     C53121  10.982   2.679   8.552  0.3667 -0.3426  0.3943
  403MOL0     O53122  11.079   2.584   8.525  1.2679 -0.4587 -0.2883
  403MOL0     C53123  11.200   2.596   8.589  0.6976 -0.2204  0.7672
  403MOL0     C53124  11.297   2.487   8.541  0.7720 -0.5588  0.0267
  403MOL0     C53125  11.238   2.347   8.550  0.3199 -0.8596 -0.4190
  403MOL0     C53126  11.334   2.238   8.487 -0.3469  0.0706 -0.1061
  403MOL0     C53127  11.470   2.220   8.552 -0.2918 -0.0617  0.1842
  403MOL0     C53128  11.573   2.205   8.618 -0.2704 -0.0065  0.2647
  403MOL0     C53129  10.993   2.819   8.518 -0.1821 -0.1647  0.6637
  403MOL0     C53130  10.907   2.910   8.572  1.6258  0.3698 -0.3711
  403MOL0     H53131  10.329   3.028   8.667 -0.0138 -1.0535 -0.1347
  403MOL0     H53132  10.208   3.183   8.800 -1.4142  0.7043  3.3727
  403MOL0     H53133  10.334   3.187   9.251 -2.9389 -0.4413  2.1222
  403MOL0     H53134  10.181   3.223   9.231 -0.1316  0.7556  0.5861
  403MOL0     H53135  10.376   3.445   9.204  0.8138 -1.3540 -0.6763
  403MOL0     H53136  10.286   3.405   9.352  0.0154 -2.5835 -0.1864
  403MOL0     H53137  10.071   3.422   9.245  0.6687 -1.4394 -2.5440
  403MOL0     H53138  10.139   3.490   9.093 -1.7964  1.3049 -0.8174
  403MOL0     H53139  10.119   3.609   9.371  0.4719 -0.2476 -0.4995
  403MOL0     H53140  10.225   3.678   9.240 -0.5989  1.2543 -2.3489
  403MOL0     H53141   9.923   3.649   9.224  0.8820 -1.2066  1.2415
  403MOL0     H53142  10.027   3.705   9.090 -3.3878 -2.3964 -0.8505
  403MOL0     H53143  10.088   3.897   9.227  0.0003  0.8965  0.9778
  403MOL0     H53144  10.008   3.837   9.370  0.9889  0.7539  0.0520
  403MOL0     H53145   9.845   3.902   9.117 -1.3805  0.0047  0.1908
  403MOL0     H53146   9.779   3.835   9.258 -0.8221  1.2577  1.0727
  403MOL0     H53147   9.741   4.082   9.231 -0.0676  1.0722  1.4563
  403MOL0     H53148   9.911   4.110   9.208 -1.6181 -0.3848 -3.5807
  403MOL0     H53149   9.741   3.897   9.489 -0.2076  1.1154 -3.6865
  403MOL0     H53150   9.710   3.997   9.762 -1.1465 -0.6507 -1.4446
  403MOL0     H53151   9.868   4.030   9.827  2.1888 -0.5006 -1.0538
  403MOL0     H53152   9.969   3.815   9.780  0.5212  2.3244  1.2909
  403MOL0     H53153   9.816   3.759   9.699  2.0210 -0.0835 -1.6900
  403MOL0     H53154   9.851   3.850   9.993 -1.9308  2.5343 -1.5982
  403MOL0     H53155   9.701   3.772   9.922 -0.5144 -0.3853 -2.9636
  403MOL0     H53156   9.815   3.611  10.046  2.0187 -1.6764 -0.4945
  403MOL0     H53157   9.960   3.635   9.956  0.3836 -3.4371 -2.6966
  403MOL0     H53158   9.842   3.497   9.591  1.5342 -3.3565 -3.5722
  403MOL0     H53159  10.022   3.358   9.520  3.4373 -0.3193  0.5715
  403MOL0     H53160  10.278   2.984   9.444  1.1091  0.5674  1.3751
  403MOL0     H53161  10.360   2.767   9.390 -1.7501  0.0038 -1.1271
  403MOL0     H53162  10.379   2.437   9.706  1.2051  1.0608  1.3149
  403MOL0     H53163  10.514   2.551   9.674  1.3453 -1.6168 -1.1281
  403MOL0     H53164  10.567   2.335   9.613  1.6571  1.7852 -1.7913
  403MOL0     H53165  10.564   2.442   9.474  1.0574  3.3699  2.8807
  403MOL0     H53166  10.319   2.317   9.446 -0.0775  1.3537  0.6304
  403MOL0     H53167  10.391   2.211   9.566  1.7246 -0.6800 -0.7073
  403MOL0     H53168  10.398   2.115   9.340 -0.3462 -0.6121 -1.0296
  403MOL0     H53169  10.479   2.262   9.283 -1.1002 -0.2005  0.7819
  403MOL0     H53170  10.580   2.054   9.463 -4.3720  3.2755  2.3040
  403MOL0     H53171  10.678   2.203   9.392 -1.6388  0.9081  1.9382
  403MOL0     H53172  10.665   2.113   9.171 -2.0387 -0.8557 -2.2623
  403MOL0     H53173  10.535   2.014   9.208 -0.3738  0.0879  3.3363
  403MOL0     H53174  10.820   1.931   9.227 -0.5257  1.9336  1.0695
  403MOL0     H53175  10.710   1.866   9.347 -1.6026 -0.8787 -0.9168
  403MOL0     H53176  10.555   1.803   9.162  1.2241 -0.5349  0.3469
  403MOL0     H53177  10.712   1.718   9.179  1.0215 -2.1980 -3.4899
  403MOL0     H53178  10.279   2.645   9.793  0.2940  0.7557  0.8551
  403MOL0     H53179  10.191   2.866   9.848 -1.6662 -1.7500  0.0735
  403MOL0     H53180  10.108   3.238   9.935  0.7894  4.0802  2.5092
  403MOL0     H53181   9.965   3.403   9.998 -1.3629 -3.0327  0.3910
  403MOL0     H53182  10.516   3.182   9.112 -0.4266 -0.9408 -0.7659
  403MOL0     H53183  10.643   2.997   8.969 -0.3456 -0.2856 -0.7490
  403MOL0     H53184  10.704   2.683   8.741  0.4607 -3.3006 -2.1906
  403MOL0     H53185  10.860   2.528   8.652 -2.2109  0.0588 -0.2183
  403MOL0     H53186  11.192   2.586   8.697 -1.5049  0.1802  0.6752
  403MOL0     H53187  11.237   2.697   8.571  0.9746 -0.4542 -0.0206
  403MOL0     H53188  11.323   2.519   8.439  0.6061  1.6558  0.6230
  403MOL0     H53189  11.384   2.487   8.608  0.7546 -0.5324  0.0499
  403MOL0     H53190  11.137   2.347   8.508 -0.4738  2.5322  1.1634
  403MOL0     H53191  11.218   2.320   8.655  0.8160 -1.1127 -0.3868
  403MOL0     H53192  11.282   2.143   8.472 -2.4112  1.2748 -0.8658
  403MOL0     H53193  11.364   2.265   8.386  2.9759 -0.8540  0.5105
  403MOL0     H53194  11.660   2.189   8.678  0.9234  1.6405 -0.9716
  403MOL0     H53195  11.083   2.844   8.464  0.0199 -1.1029  0.5509
  403MOL0     H53196  10.917   3.016   8.552 -2.8109  1.0665 -0.1047
  404MOL0     O53197   8.163   7.340   2.496  0.7624 -0.0870  0.1498
  404MOL0     C53198   8.145   7.457   2.522 -0.1058  0.2884  0.2301
  404MOL0     O53199   8.134   7.555   2.428  0.1682  0.2791  0.3982
  404MOL0     C53200   8.162   7.540   2.296  0.0473 -0.1885 -0.1976
  404MOL0     C53201   8.237   7.437   2.235  0.0284  0.3159 -0.0325
  404MOL0     C53202   8.270   7.459   2.100  0.3651  0.0099  0.7919
  404MOL0     C53203   8.219   7.572   2.029 -0.0283 -1.2206 -0.3586
  404MOL0     O53204   8.247   7.598   1.896 -0.9917 -0.2484 -0.5143
  404MOL0     C53205   8.345   7.502   1.843  0.0436  1.1092  0.4479
  404MOL0     C53206   8.377   7.550   1.696 -0.1490 -0.4468 -1.2422
  404MOL0     C53207   8.252   7.554   1.606  0.0279 -0.0350  0.0268
  404MOL0     C53208   8.209   7.413   1.577 -0.5056 -0.5008  0.4538
  404MOL0     C53209   8.133   7.399   1.447  0.3559  0.4752 -1.1299
  404MOL0     C53210   8.204   7.355   1.326  0.5668 -0.4443 -0.2021
  404MOL0     C53211   8.332   7.428   1.291 -0.3203 -0.1672 -0.6798
  404MOL0     C53212   8.318   7.565   1.221 -0.5894 -0.1774  0.1005
  404MOL0     N53213   8.439   7.580   1.142 -0.6094  0.0166 -0.1282
  404MOL0     C53214   8.520   7.693   1.137  0.5670 -0.1519  0.3996
  404MOL0     C53215   8.624   7.657   1.049  1.3812  0.4033 -0.7152
  404MOL0     C53216   8.710   7.775   1.011 -0.9446  0.1793  0.3405
  404MOL0     C53217   8.637   7.900   0.967  1.1101 -0.7041  1.4470
  404MOL0     C53218   8.554   7.886   0.832  0.1492 -0.9918  0.6271
  404MOL0     C53219   8.623   7.812   0.714  0.4233 -0.7712  0.4526
  404MOL0     O53220   8.552   7.836   0.595 -0.1382 -0.4166 -0.0642
  404MOL0     C53221   8.429   7.774   0.569  0.0648 -0.2943  0.1776
  404MOL0     C53222   8.372   7.668   0.639 -0.2177 -0.2520  0.2436
  404MOL0     C53223   8.252   7.617   0.607  0.7594 -0.2063  0.5207
  404MOL0     C53224   8.177   7.670   0.495 -0.7647  0.3206 -1.0232
  404MOL0     C53225   8.042   7.608   0.461 -0.5324 -0.0467 -0.0325
  404MOL0     O53226   7.991   7.523   0.557  0.1054  0.5098 -0.1345
  404MOL0     C53227   7.859   7.476   0.539  0.0820 -0.4487  0.5932
  404MOL0     C53228   7.838   7.337   0.536  0.2114  0.5983  0.0359
  404MOL0     C53229   7.715   7.279   0.536  1.0998 -0.1430 -0.6786
  404MOL0     C53230   7.602   7.368   0.561  0.5677  0.5988 -0.3249
  404MOL0     O53231   7.475   7.323   0.575 -0.9588 -0.0665  0.1961
  404MOL0     C53232   7.360   7.405   0.547 -0.9192  0.0347 -0.5420
  404MOL0     C53233   7.233   7.330   0.539 -0.2992 -0.2410 -0.5044
  404MOL0     C53234   7.241   7.209   0.446  0.6646  1.0882  0.2101
  404MOL0     C53235   7.105   7.133   0.422 -0.4457  1.1717  0.2780
  404MOL0     C53236   7.131   7.005   0.329  0.2535 -0.6113  1.0032
  404MOL0     C53237   7.201   7.040   0.198  0.3360 -0.0651  0.3836
  404MOL0     C53238   7.196   6.919   0.104 -0.7077  1.4160  0.1937
  404MOL0     C53239   7.324   6.842   0.115 -0.2064 -0.3763 -0.4016
  404MOL0    Cl53240   7.279   6.681   0.045  0.1235 -0.0685  0.1157
  404MOL0     C53241   7.622   7.510   0.559  0.8385 -0.1109 -0.3777
  404MOL0     C53242   7.746   7.563   0.555 -0.6573  0.5686  0.8741
  404MOL0     O53243   8.005   7.628   0.347  1.0744  0.0984 -0.3963
  404MOL0     C53244   8.236   7.774   0.415  0.1722 -0.9036  0.0635
  404MOL0     C53245   8.360   7.828   0.460 -0.0092 -0.2915 -0.1376
  404MOL0     N53246   8.617   7.528   1.004 -0.0708 -0.1201 -1.1194
  404MOL0     N53247   8.505   7.486   1.060  0.0247 -0.1655  0.0676
  404MOL0     C53248   8.127   7.667   2.085 -1.7854  0.3749 -0.4872
  404MOL0     C53249   8.101   7.640   2.220 -0.1319  0.8020 -1.0116
  404MOL0     C53250   8.112   7.497   2.653 -1.1841  0.1216 -0.0002
  404MOL0     C53251   8.139   7.412   2.763 -1.2207 -0.9803  0.5045
  404MOL0     C53252   8.110   7.458   2.893 -0.4464  0.7138  0.0425
  404MOL0     C53253   8.071   7.585   2.922 -0.1540 -0.0801  0.0355
  404MOL0     O53254   8.053   7.616   3.054  0.2518  0.5659  0.0887
  404MOL0     C53255   8.124   7.733   3.104  0.3489  0.5753 -0.4620
  404MOL0     C53256   8.038   7.813   3.195 -0.4231  0.6751 -0.3782
  404MOL0     C53257   7.949   7.717   3.288 -0.0902 -0.7596  1.0714
  404MOL0     C53258   7.894   7.788   3.411  0.4589  0.9524 -0.1925
  404MOL0     C53259   7.858   7.684   3.511 -0.0885  0.5054  0.5277
  404MOL0     C53260   7.819   7.609   3.599  0.3037  1.1762  0.8657
  404MOL0     C53261   8.045   7.668   2.817 -0.2017  0.0444  0.5122
  404MOL0     C53262   8.059   7.627   2.684 -0.9264  0.2571 -0.5028
  404MOL0     H53263   8.272   7.350   2.290  0.2568  1.1941  1.2740
  404MOL0     H53264   8.314   7.370   2.055  2.5332  1.4621 -0.0945
  404MOL0     H53265   8.299   7.403   1.842  0.6288  0.8334  0.6582
  404MOL0     H53266   8.440   7.500   1.897  0.2810  0.7479  0.0190
  404MOL0     H53267   8.440   7.476   1.646  0.0840 -0.5015 -0.8696
  404MOL0     H53268   8.425   7.648   1.703 -0.0835 -0.4562 -1.5597
  404MOL0     H53269   8.279   7.614   1.519  0.1641 -0.1408 -0.0037
  404MOL0     H53270   8.174   7.609   1.660  0.5145  0.4878  0.2150
  404MOL0     H53271   8.286   7.335   1.570 -0.4264 -0.4765  1.0199
  404MOL0     H53272   8.153   7.387   1.667  0.3221  1.9773  1.7816
  404MOL0     H53273   8.077   7.492   1.439  1.4783  1.4021  0.9216
  404MOL0     H53274   8.063   7.320   1.474  0.5226  0.1555 -1.6152
  404MOL0     H53275   8.141   7.354   1.237 -2.8472 -0.9636  2.0674
  404MOL0     H53276   8.220   7.248   1.340 -0.8056 -0.6472 -0.1056
  404MOL0     H53277   8.391   7.446   1.381 -0.8731 -4.2137  0.6923
  404MOL0     H53278   8.399   7.355   1.244  1.7282  0.9331  0.3570
  404MOL0     H53279   8.311   7.645   1.295 -0.3067  0.1314 -0.2008
  404MOL0     H53280   8.234   7.565   1.151 -0.2511 -3.6189 -0.4739
  404MOL0     H53281   8.498   7.787   1.187 -2.7071 -2.1907  3.1973
  404MOL0     H53282   8.776   7.738   0.932  3.3989  2.2314  2.6698
  404MOL0     H53283   8.790   7.800   1.081 -0.0190  0.4608 -0.7788
  404MOL0     H53284   8.710   7.980   0.950  1.7130 -1.5815 -0.2353
  404MOL0     H53285   8.559   7.932   1.038  2.2268  3.5307  1.0662
  404MOL0     H53286   8.471   7.819   0.857  0.2076 -1.2220  0.2083
  404MOL0     H53287   8.530   7.988   0.802 -2.0956 -1.7779 -0.4027
  404MOL0     H53288   8.623   7.706   0.738  0.8714 -1.1504 -1.1318
  404MOL0     H53289   8.726   7.849   0.711  0.2408  0.1843  3.1684
  404MOL0     H53290   8.416   7.629   0.730 -0.3959 -4.0286 -1.0959
  404MOL0     H53291   8.200   7.545   0.669 -1.2251 -0.0121 -0.8549
  404MOL0     H53292   7.928   7.276   0.531 -1.0618 -1.8603  3.5004
  404MOL0     H53293   7.702   7.172   0.544  1.4769 -0.3815 -2.7244
  404MOL0     H53294   7.376   7.454   0.451 -0.1023  2.3181  0.6977
  404MOL0     H53295   7.356   7.481   0.626  1.8782  0.4217 -0.6740
  404MOL0     H53296   7.151   7.400   0.521  0.2218  1.6654  3.4471
  404MOL0     H53297   7.213   7.290   0.639  1.6326 -1.6635 -0.6122
  404MOL0     H53298   7.312   7.137   0.485 -1.9241 -1.1924  1.0577
  404MOL0     H53299   7.291   7.249   0.358  0.7204  0.1352 -0.2019
  404MOL0     H53300   7.072   7.099   0.521  0.8556  0.4694  0.4888
  404MOL0     H53301   7.043   7.211   0.377  0.2286 -0.5734 -4.1041
  404MOL0     H53302   7.034   6.956   0.312 -1.0653  1.8010  1.0672
  404MOL0     H53303   7.187   6.927   0.380  0.8441  0.2491  1.6950
  404MOL0     H53304   7.303   7.078   0.202  0.3292  0.7608 -3.3964
  404MOL0     H53305   7.154   7.131   0.158 -0.6324 -1.0518 -0.8083
  404MOL0     H53306   7.109   6.858   0.128  0.0492 -1.0139 -2.6621
  404MOL0     H53307   7.182   6.946  -0.001  1.6008  0.8768 -0.3126
  404MOL0     H53308   7.360   6.828   0.217  0.3626 -2.3658 -0.8391
  404MOL0     H53309   7.400   6.894   0.055  0.1825  1.7911  1.8125
  404MOL0     H53310   7.535   7.573   0.577  0.0220 -0.8318 -1.6460
  404MOL0     H53311   7.766   7.669   0.555 -0.5806  0.5676 -0.4465
  404MOL0     H53312   8.177   7.814   0.333 -2.0105  1.6259  2.6502
  404MOL0     H53313   8.402   7.904   0.396  0.9228 -0.6293  0.0627
  404MOL0     H53314   8.109   7.757   2.027  1.6471  1.4196 -0.1691
  404MOL0     H53315   8.047   7.710   2.283  1.5344 -1.6961  3.6637
  404MOL0     H53316   8.172   7.313   2.732  1.3623  0.4560 -1.6848
  404MOL0     H53317   8.112   7.389   2.977 -2.0914 -0.3049 -0.7048
  404MOL0     H53318   8.162   7.796   3.023 -3.4819 -0.8988 -3.7512
  404MOL0     H53319   8.205   7.690   3.165 -1.9245 -4.8490 -0.6441
  404MOL0     H53320   8.103   7.880   3.253 -0.3620  0.2658  0.0270
  404MOL0     H53321   7.972   7.876   3.135 -1.2050 -1.2205 -1.5742
  404MOL0     H53322   8.008   7.631   3.321 -1.8816 -1.3906  2.8339
  404MOL0     H53323   7.867   7.686   3.223 -0.6997 -1.8160  2.2963
  404MOL0     H53324   7.968   7.852   3.460  1.2966  1.4679 -2.0318
  404MOL0     H53325   7.811   7.856   3.392 -1.1607 -0.5946  0.9699
  404MOL0     H53326   7.801   7.547   3.685  1.8872  2.4926  2.1957
  404MOL0     H53327   7.993   7.759   2.843 -3.1276 -0.8322 -1.6673
  404MOL0     H53328   8.029   7.689   2.600 -5.2616 -1.3598 -0.3564
  405MOL0     O53329  10.609   6.393  10.682  1.0425 -0.6079 -0.7997
  405MOL0     C53330  10.709   6.440  10.634 -0.8421  0.0233  0.8569
  405MOL0     O53331  10.720   6.549  10.552 -0.8127  0.2946  1.0198
  405MOL0     C53332  10.612   6.621  10.512 -0.9193  0.9029 -0.2008
  405MOL0     C53333  10.490   6.561  10.486  0.0907  0.9351 -0.1658
  405MOL0     C53334  10.381   6.640  10.444  0.2808  0.0729  0.2022
  405MOL0     C53335  10.393   6.786  10.439 -0.5806 -0.0887  0.5348
  405MOL0     O53336  10.291   6.869  10.404  0.4886 -0.6210  0.5120
  405MOL0     C53337  10.165   6.849  10.479  0.4924 -0.5088  0.3124
  405MOL0     C53338  10.071   6.766  10.392  0.1952  0.1587 -1.3396
  405MOL0     C53339   9.925   6.813  10.360 -0.1004  0.9401  0.3127
  405MOL0     C53340   9.917   6.931  10.270 -1.3807  0.2804 -0.3711
  405MOL0     C53341   9.776   6.971  10.239  0.6083  0.5688 -0.3168
  405MOL0     C53342   9.763   7.096  10.151 -0.4231 -0.1424  0.7088
  405MOL0     C53343   9.620   7.144  10.141  0.2687 -0.3897 -0.0378
  405MOL0     C53344   9.596   7.280  10.092 -0.8171  0.1942  0.0841
  405MOL0     N53345   9.649   7.305   9.953 -0.6006  0.0116  0.1051
  405MOL0     C53346   9.600   7.255   9.832  0.1175  0.3721  0.9373
  405MOL0     C53347   9.654   7.339   9.738 -0.6374  0.6851  0.5262
  405MOL0     C53348   9.599   7.346   9.597 -0.1209  0.1237 -0.6013
  405MOL0     C53349   9.476   7.441   9.587 -0.1737 -0.0269 -0.8829
  405MOL0     C53350   9.422   7.456   9.438  0.4655 -1.0285 -0.5279
  405MOL0     C53351   9.278   7.500   9.452 -0.2116  0.7958 -0.2012
  405MOL0     O53352   9.285   7.636   9.500 -0.1622  0.9053 -0.4564
  405MOL0     C53353   9.171   7.696   9.546  0.3339  0.0604 -0.2069
  405MOL0     C53354   9.042   7.683   9.494 -0.8736  0.1229  0.1622
  405MOL0     C53355   8.932   7.739   9.555  0.5273 -0.3341 -0.2131
  405MOL0     C53356   8.952   7.838   9.654  0.0292  0.1617  1.0226
  405MOL0     C53357   8.838   7.910   9.717 -0.1407 -0.2613 -0.8116
  405MOL0     O53358   8.875   7.987   9.815 -0.3384  0.5580 -0.5845
  405MOL0     C53359   8.782   8.069   9.878 -0.4535 -0.3365 -0.5795
  405MOL0     C53360   8.773   8.046  10.016  0.6774  0.7797  0.6368
  405MOL0     C53361   8.687   8.126  10.088 -0.3278  0.2593 -0.2250
  405MOL0     C53362   8.610   8.231  10.029 -0.3571  0.1370  0.3157
  405MOL0     O53363   8.533   8.321  10.098  1.0820  0.2794  0.3262
  405MOL0     C53364   8.502   8.311  10.238  0.0822  0.2890 -1.0847
  405MOL0     C53365   8.382   8.402  10.245 -0.8768  0.4199 -0.2115
  405MOL0     C53366   8.318   8.405  10.389  0.2624 -0.2949  0.4598
  405MOL0     C53367   8.187   8.485  10.382  1.0441 -0.1888  0.8267
  405MOL0     C53368   8.132   8.509  10.521 -0.0208  1.0175 -0.1933
  405MOL0     C53369   8.028   8.625  10.521  0.6695  0.8091 -0.0812
  405MOL0     C53370   7.949   8.629  10.652  0.0954  0.5873  0.5327
  405MOL0     C53371   7.999   8.754  10.743 -0.0826  0.5447 -0.5437
  405MOL0    Cl53372   8.158   8.722  10.827  0.1495 -0.4899 -0.3305
  405MOL0     C53373   8.616   8.251   9.889 -0.7432  0.3269  0.0883
  405MOL0     C53374   8.701   8.168   9.815  0.7958  0.3912 -0.0675
  405MOL0     O53375   8.721   7.888   9.680  0.7972 -0.0072 -0.4161
  405MOL0     C53376   9.085   7.865   9.699  1.2044  1.1850  0.5721
  405MOL0     C53377   9.192   7.796   9.642 -0.2880 -1.4161 -0.5710
  405MOL0     N53378   9.728   7.441   9.797 -0.5320 -0.3116  0.7251
  405MOL0     N53379   9.731   7.416   9.916  0.1028  0.3263 -0.2389
  405MOL0     C53380  10.515   6.836  10.468 -0.4055 -0.7756  0.2450
  405MOL0     C53381  10.629   6.758  10.496 -0.0677 -1.0411  0.7274
  405MOL0     C53382  10.837   6.369  10.679 -0.3718  0.2212 -0.6045
  405MOL0     C53383  10.825   6.269  10.776 -0.6224  0.7199 -0.0215
  405MOL0     C53384  10.938   6.202  10.819 -0.5617 -0.1604 -0.0330
  405MOL0     C53385  11.065   6.235  10.766 -0.5590 -0.7950 -0.3140
  405MOL0     O53386  11.171   6.161  10.825  0.5044 -0.5238  0.1859
  405MOL0     C53387  11.309   6.192  10.796 -0.0485 -0.7017 -0.2915
  405MOL0     C53388  11.343   6.325  10.864  0.0549  0.2959 -0.5791
  405MOL0     C53389  11.315   6.316  11.016  0.2235 -0.2509  0.9183
  405MOL0     C53390  11.321   6.456  11.076 -0.2006  0.3741 -0.7456
  405MOL0     C53391  11.269   6.454  11.211  0.4438 -0.2850  0.1484
  405MOL0     C53392  11.229   6.427  11.324  0.2384 -0.5316 -0.2865
  405MOL0     C53393  11.076   6.327  10.650 -0.3199  0.0547 -0.4968
  405MOL0     C53394  10.964   6.399  10.617  0.4317 -0.6828 -0.2485
  405MOL0     H53395  10.478   6.454  10.497  0.1528  0.8998 -0.4280
  405MOL0     H53396  10.288   6.585  10.431  1.1852 -1.0437 -2.0403
  405MOL0     H53397  10.117   6.944  10.504  2.6095  0.4949  0.8303
  405MOL0     H53398  10.173   6.803  10.578 -1.9443  0.7055  1.1599
  405MOL0     H53399  10.052   6.681  10.458  0.0989  1.0781 -0.1530
  405MOL0     H53400  10.109   6.723  10.298 -1.4337  0.6430 -2.2503
  405MOL0     H53401   9.872   6.849  10.449  0.2014  0.1023  0.8483
  405MOL0     H53402   9.867   6.725  10.331  2.2458 -0.1885 -1.2833
  405MOL0     H53403   9.976   7.011  10.316  2.2843 -4.1033  3.5632
  405MOL0     H53404   9.958   6.902  10.173  0.6740 -1.0893  0.8433
  405MOL0     H53405   9.735   6.974  10.340  2.1541  2.0031  0.3313
  405MOL0     H53406   9.738   6.894  10.172  0.1627  0.7006 -0.2132
  405MOL0     H53407   9.802   7.069  10.052 -0.6546  0.5485  0.4233
  405MOL0     H53408   9.828   7.173  10.192 -0.3753 -0.2715  0.8737
  405MOL0     H53409   9.562   7.074  10.081 -2.2354  0.1434  1.5899
  405MOL0     H53410   9.581   7.129  10.242 -2.1829 -2.3280 -1.1510
  405MOL0     H53411   9.648   7.343  10.165  3.0071 -0.1017 -2.1260
  405MOL0     H53412   9.489   7.297  10.105 -1.3259 -1.3925 -1.6859
  405MOL0     H53413   9.539   7.170   9.802  0.2695  0.2537  0.9561
  405MOL0     H53414   9.578   7.244   9.563  0.8366  0.0441 -0.9922
  405MOL0     H53415   9.674   7.390   9.530 -0.3119  1.6768  0.1542
  405MOL0     H53416   9.514   7.540   9.612  2.4873 -0.9716 -0.8854
  405MOL0     H53417   9.400   7.421   9.663 -2.1432  1.0003 -2.4521
  405MOL0     H53418   9.478   7.523   9.371 -0.0377  0.6822  0.6805
  405MOL0     H53419   9.412   7.355   9.399  0.3591 -0.7203 -1.3094
  405MOL0     H53420   9.226   7.432   9.520  0.2566 -0.0648 -0.6891
  405MOL0     H53421   9.230   7.491   9.353 -0.5239 -6.4810  0.1165
  405MOL0     H53422   9.041   7.603   9.421  1.0615 -0.2331  0.4677
  405MOL0     H53423   8.833   7.703   9.526  1.0775 -1.3402 -0.9153
  405MOL0     H53424   8.836   7.965  10.052 -0.6556 -2.0818 -2.8336
  405MOL0     H53425   8.691   8.096  10.192 -0.8925  0.7578 -0.0596
  405MOL0     H53426   8.584   8.338  10.305 -0.5800 -0.3324  0.0084
  405MOL0     H53427   8.470   8.213  10.276 -1.8654  2.1334  2.6758
  405MOL0     H53428   8.311   8.373  10.166 -0.1182 -0.5735 -0.5421
  405MOL0     H53429   8.420   8.498  10.208 -1.8314 -0.3681 -3.6405
  405MOL0     H53430   8.398   8.436  10.456 -0.0065 -2.2362  1.7780
  405MOL0     H53431   8.304   8.297  10.403  1.9609 -0.4592  1.1026
  405MOL0     H53432   8.212   8.576  10.327  2.5424 -1.4074 -0.6210
  405MOL0     H53433   8.117   8.421  10.329  4.7963 -2.8404 -1.4362
  405MOL0     H53434   8.205   8.539  10.597  0.6067  1.6361 -1.0239
  405MOL0     H53435   8.100   8.410  10.557 -0.7733  1.6940  1.1070
  405MOL0     H53436   7.956   8.623  10.439 -1.2704 -1.3291  1.5421
  405MOL0     H53437   8.087   8.716  10.506  1.7449 -0.0821 -1.4873
  405MOL0     H53438   7.841   8.630  10.634  0.0393 -1.5247  0.4862
  405MOL0     H53439   7.971   8.536  10.706  3.4056 -1.6859 -3.9843
  405MOL0     H53440   7.923   8.792  10.812  2.1541  4.1481  0.2032
  405MOL0     H53441   8.020   8.843  10.683 -1.6232  1.6086  0.4042
  405MOL0     H53442   8.557   8.324   9.835 -0.3493 -1.2238 -2.6836
  405MOL0     H53443   8.699   8.176   9.707 -0.6112 -0.0745 -0.1021
  405MOL0     H53444   9.104   7.935   9.780  0.5749 -0.3232  2.0669
  405MOL0     H53445   9.294   7.824   9.666 -0.9415 -1.7627  3.0987
  405MOL0     H53446  10.539   6.942  10.462  3.2554 -1.4866  0.3598
  405MOL0     H53447  10.727   6.804  10.503 -0.6743  0.5100 -0.5294
  405MOL0     H53448  10.724   6.241  10.804 -0.5753 -0.8081 -1.2528
  405MOL0     H53449  10.950   6.123  10.892  0.0006  1.8402  2.1869
  405MOL0     H53450  11.328   6.202  10.689 -1.0669  1.6515 -0.3179
  405MOL0     H53451  11.378   6.112  10.824  3.6404  1.2492 -2.9690
  405MOL0     H53452  11.450   6.347  10.865  0.2160 -0.3775  1.3253
  405MOL0     H53453  11.280   6.405  10.824 -2.3633  0.4328  3.0354
  405MOL0     H53454  11.398   6.254  11.052  1.5633 -0.3165 -1.9971
  405MOL0     H53455  11.219   6.270  11.042 -0.3791 -0.1987 -1.0365
  405MOL0     H53456  11.420   6.501  11.070 -0.4124  0.9101 -0.2830
  405MOL0     H53457  11.260   6.528  11.019 -0.2276  0.7315 -0.2714
  405MOL0     H53458  11.210   6.395  11.425  2.2172  0.5977  0.5190
  405MOL0     H53459  11.164   6.346  10.590 -0.9027  1.6217 -0.9009
  405MOL0     H53460  10.969   6.470  10.535 -0.7634 -1.5026 -1.0668
  406MOL0     O53461   0.939  10.921   6.293 -0.8463  0.2514  0.3940
  406MOL0     C53462   0.854  10.996   6.243 -0.3477 -0.5704 -0.4627
  406MOL0     O53463   0.784  11.099   6.317 -0.6150  0.4521 -0.1641
  406MOL0     C53464   0.827  11.141   6.437  0.4351  0.2864 -0.4351
  406MOL0     C53465   0.948  11.139   6.492  0.6989 -0.2416 -0.2429
  406MOL0     C53466   0.980  11.217   6.609  0.1327  0.7766 -0.2275
  406MOL0     C53467   0.879  11.285   6.681 -0.3994  0.4177 -0.4588
  406MOL0     O53468   0.898  11.346   6.805  0.2139 -0.5474  0.1027
  406MOL0     C53469   0.909  11.259   6.913  0.3272  1.2891  0.1660
  406MOL0     C53470   0.933  11.332   7.050  0.1842  0.3556 -0.4949
  406MOL0     C53471   0.934  11.220   7.156  0.7515  0.4968 -0.0552
  406MOL0     C53472   0.980  11.251   7.301  0.3314  0.4385  0.7768
  406MOL0     C53473   1.027  11.118   7.374 -0.1141 -0.2648 -0.1341
  406MOL0     C53474   0.913  11.038   7.429  0.3281 -0.4835  0.1639
  406MOL0     C53475   0.944  10.894   7.474  0.4964 -0.2310  0.1171
  406MOL0     C53476   0.869  10.798   7.379  0.9671 -0.1072 -0.3178
  406MOL0     N53477   0.949  10.776   7.253  0.2376  0.7031  0.0717
  406MOL0     C53478   0.909  10.725   7.130 -0.6869 -0.2105 -0.0409
  406MOL0     C53479   1.016  10.756   7.041  0.0920 -0.2857  0.3100
  406MOL0     C53480   1.018  10.749   6.893 -0.0802 -0.2810 -0.5192
  406MOL0     C53481   0.929  10.631   6.840 -0.8935 -0.4119  0.2619
  406MOL0     C53482   0.953  10.489   6.919 -0.7296 -0.4601 -0.4725
  406MOL0     C53483   1.102  10.437   6.898 -0.3032  0.9158 -0.4919
  406MOL0     O53484   1.088  10.300   6.940  0.3806  0.7333 -0.5987
  406MOL0     C53485   1.102  10.256   7.067 -0.3341 -0.2291 -0.1922
  406MOL0     C53486   1.169  10.323   7.169  0.0691 -0.2346  0.0361
  406MOL0     C53487   1.187  10.267   7.297  0.8302  0.1324  1.3346
  406MOL0     C53488   1.130  10.140   7.326 -0.1321  0.8809  0.5411
  406MOL0     C53489   1.164  10.071   7.457  0.9136 -0.2503 -0.1667
  406MOL0     O53490   1.271  10.126   7.506  0.1215 -0.0791 -0.3838
  406MOL0     C53491   1.356  10.076   7.602  0.7946 -0.2392 -0.2373
  406MOL0     C53492   1.353   9.945   7.636 -0.4843 -0.3954 -0.6804
  406MOL0     C53493   1.439   9.902   7.735 -0.3554 -0.8091 -0.5709
  406MOL0     C53494   1.528   9.989   7.797 -0.1560 -0.5208  0.9139
  406MOL0     O53495   1.609   9.936   7.895 -0.5568 -0.4857  0.4516
  406MOL0     C53496   1.698  10.027   7.971  0.1456  0.7223  0.0419
  406MOL0     C53497   1.771   9.943   8.080  0.0623 -0.1551  0.2695
  406MOL0     C53498   1.847  10.036   8.190  0.1457  0.0262 -0.3006
  406MOL0     C53499   1.962  10.119   8.133  0.2320  0.9187 -0.6111
  406MOL0     C53500   2.027  10.199   8.253 -1.1841 -0.6921  0.6220
  406MOL0     C53501   2.178  10.220   8.222 -0.6323 -0.0358 -0.6553
  406MOL0     C53502   2.264  10.272   8.343 -0.3934 -0.3899  0.3846
  406MOL0     C53503   2.276  10.159   8.443  0.0356  0.6935 -0.5665
  406MOL0    Cl53504   2.446  10.163   8.503 -0.6946 -0.5784 -0.0756
  406MOL0     C53505   1.528  10.125   7.751 -0.9933  0.0574 -0.2602
  406MOL0     C53506   1.442  10.163   7.658  0.7203 -0.2980 -0.5807
  406MOL0     O53507   1.096   9.977   7.500  0.0236 -0.5876 -0.1391
  406MOL0     C53508   1.057  10.071   7.225  0.0120 -0.7393 -0.2855
  406MOL0     C53509   1.047  10.129   7.095  0.4872 -1.4972 -0.2587
  406MOL0     N53510   1.123  10.780   7.128  0.3664  0.5099  0.2718
  406MOL0     N53511   1.081  10.797   7.250  0.4954  0.2801 -1.1205
  406MOL0     C53512   0.752  11.279   6.629  0.0096  0.1969  0.2902
  406MOL0     C53513   0.730  11.209   6.508 -0.9425 -0.3644  0.0129
  406MOL0     C53514   0.836  10.999   6.095  1.1180  0.4441  0.3992
  406MOL0     C53515   0.759  11.090   6.030  0.7777 -0.7592 -0.4814
  406MOL0     C53516   0.739  11.083   5.897  0.5392 -0.3887  0.1363
  406MOL0     C53517   0.799  10.976   5.823  0.0669 -0.2687  0.1511
  406MOL0     O53518   0.774  10.951   5.689  0.8892 -0.5633 -0.4131
  406MOL0     C53519   0.697  11.054   5.621  0.1139 -0.2036 -0.1207
  406MOL0     C53520   0.713  11.056   5.467  0.7020 -0.5996  0.0651
  406MOL0     C53521   0.854  11.073   5.414 -0.0177 -0.2865  0.3780
  406MOL0     C53522   0.864  11.096   5.259  0.6594 -0.5284 -0.3143
  406MOL0     C53523   0.996  11.130   5.216  0.5521  0.0316  0.0639
  406MOL0     C53524   1.105  11.152   5.168  0.3144 -0.0381  0.1920
  406MOL0     C53525   0.872  10.883   5.895  0.3859 -0.5270 -0.0973
  406MOL0     C53526   0.899  10.890   6.023 -0.5612 -0.7501  0.1234
  406MOL0     H53527   1.032  11.094   6.440  0.6528  0.2102 -0.7113
  406MOL0     H53528   1.076  11.211   6.658  0.9628  2.6416 -1.5249
  406MOL0     H53529   0.995  11.197   6.885  0.1494  1.7374 -1.4620
  406MOL0     H53530   0.824  11.191   6.912 -2.9658  4.8266 -4.3216
  406MOL0     H53531   0.853  11.402   7.077  0.1351  0.4594 -0.8987
  406MOL0     H53532   1.026  11.389   7.047 -0.0557  0.7598 -3.4150
  406MOL0     H53533   0.989  11.142   7.103 -1.2449  0.8373 -2.8844
  406MOL0     H53534   0.833  11.181   7.175  0.6106  0.7954 -0.1852
  406MOL0     H53535   1.065  11.321   7.304  0.0436  0.8037  0.5189
  406MOL0     H53536   0.902  11.295   7.364  0.3358 -0.5238  1.4815
  406MOL0     H53537   1.087  11.156   7.457 -0.7385  2.6045 -0.8994
  406MOL0     H53538   1.078  11.052   7.302 -2.2179 -0.5938 -1.4143
  406MOL0     H53539   0.832  11.036   7.354  1.2727  3.6551 -1.2357
  406MOL0     H53540   0.882  11.088   7.521 -0.6571 -2.0316  0.7122
  406MOL0     H53541   1.050  10.871   7.479  1.8592  4.9262  0.9287
  406MOL0     H53542   0.899  10.884   7.573  0.0026  0.3022 -0.0459
  406MOL0     H53543   0.763  10.819   7.365  0.8817 -0.1480  0.2161
  406MOL0     H53544   0.858  10.706   7.437 -1.6181  0.2717 -0.0702
  406MOL0     H53545   0.804  10.706   7.110 -0.7787  0.2226  0.0116
  406MOL0     H53546   1.119  10.728   6.857  0.1494 -0.7402  0.3592
  406MOL0     H53547   0.989  10.847   6.854 -0.1294 -0.7534 -1.7135
  406MOL0     H53548   0.946  10.617   6.733  0.0496  0.0368  0.3372
  406MOL0     H53549   0.826  10.650   6.871 -0.5248  0.4862  1.0138
  406MOL0     H53550   0.926  10.510   7.023 -1.6347  2.3454 -1.1836
  406MOL0     H53551   0.878  10.420   6.881 -2.1771  0.2107  1.0306
  406MOL0     H53552   1.185  10.492   6.942  2.2428 -2.4024 -0.6878
  406MOL0     H53553   1.139  10.435   6.795  1.6370 -1.8066  0.1219
  406MOL0     H53554   1.223  10.414   7.144 -0.7228 -0.4800 -2.9708
  406MOL0     H53555   1.227  10.317   7.384 -1.1332  0.3898  2.1302
  406MOL0     H53556   1.279   9.881   7.588 -0.9136  0.4293 -1.1313
  406MOL0     H53557   1.430   9.804   7.781 -0.3622 -0.3741  0.3823
  406MOL0     H53558   1.644  10.104   8.026  1.1852  1.0249  0.6624
  406MOL0     H53559   1.771  10.070   7.902  1.2644 -2.5362 -1.0316
  406MOL0     H53560   1.838   9.867   8.038  2.6581  1.0889  1.8588
  406MOL0     H53561   1.703   9.895   8.151 -0.2849 -4.1064 -2.3887
  406MOL0     H53562   1.895   9.969   8.262  2.1364  0.3773 -1.2491
  406MOL0     H53563   1.776  10.106   8.237  0.7858 -0.1311  0.9428
  406MOL0     H53564   2.022  10.040   8.087 -2.8189 -3.5176  2.2043
  406MOL0     H53565   1.923  10.185   8.055 -0.0321  2.7059  0.9489
  406MOL0     H53566   2.009  10.151   8.350  0.2609  1.5767  2.1391
  406MOL0     H53567   1.970  10.293   8.254 -0.9163 -0.2276 -4.2626
  406MOL0     H53568   2.206  10.294   8.146  2.5896 -0.9802 -0.5280
  406MOL0     H53569   2.211  10.122   8.188 -3.0853 -0.4847 -2.0157
  406MOL0     H53570   2.365  10.295   8.307 -0.2031 -3.3171 -1.2294
  406MOL0     H53571   2.206  10.354   8.387  2.1065  0.9587  1.3823
  406MOL0     H53572   2.255  10.063   8.395 -0.3544  0.3739  0.2231
  406MOL0     H53573   2.211  10.174   8.530  1.6676  1.5239  0.5650
  406MOL0     H53574   1.589  10.196   7.805 -1.5806 -0.3448  0.9820
  406MOL0     H53575   1.426  10.268   7.635 -0.7714 -0.9054 -2.6763
  406MOL0     H53576   1.023   9.971   7.249 -0.8475 -0.0705  1.3851
  406MOL0     H53577   0.991  10.084   7.013 -1.7118 -0.5805  0.6754
  406MOL0     H53578   0.675  11.336   6.679 -2.3332 -1.6165 -1.0254
  406MOL0     H53579   0.627  11.221   6.476 -1.2768 -0.4906  1.0142
  406MOL0     H53580   0.709  11.172   6.080  0.6886 -1.7163  1.0403
  406MOL0     H53581   0.668  11.154   5.857  2.3842  0.8141 -1.1926
  406MOL0     H53582   0.742  11.151   5.646  1.4908 -0.7350 -0.4701
  406MOL0     H53583   0.591  11.045   5.649 -0.1001  1.3843 -0.3600
  406MOL0     H53584   0.682  10.956   5.433 -1.3966 -0.2493  0.7821
  406MOL0     H53585   0.644  11.134   5.434  1.3769  1.6199  3.4557
  406MOL0     H53586   0.920  10.994   5.452 -0.4517 -2.1355 -2.4013
  406MOL0     H53587   0.880  11.172   5.453  0.5063 -0.0483 -0.5479
  406MOL0     H53588   0.821  11.008   5.211 -3.2648 -0.7644  3.0160
  406MOL0     H53589   0.791  11.172   5.229  2.1442  0.5611 -1.2731
  406MOL0     H53590   1.202  11.168   5.126  1.9408  2.0230  4.1260
  406MOL0     H53591   0.903  10.796   5.836  2.5230 -0.1328  0.3396
  406MOL0     H53592   0.956  10.819   6.081 -1.1949 -1.8022 -0.5149
  407MOL0     O53593   2.833   2.605   3.481  0.2046  0.4224  0.4227
  407MOL0     C53594   2.838   2.578   3.603  0.4651 -1.1181  0.4474
  407MOL0     O53595   2.783   2.469   3.666 -0.3175 -0.0347  0.1135
  407MOL0     C53596   2.705   2.382   3.601  0.4764  0.0232 -0.0793
  407MOL0     C53597   2.746   2.327   3.488  0.2583 -0.0957  0.4419
  407MOL0     C53598   2.661   2.247   3.409  0.0617  0.5795 -0.3458
  407MOL0     C53599   2.533   2.223   3.457  0.0549  0.5171  0.2840
  407MOL0     O53600   2.471   2.122   3.388  0.3324 -0.4357 -0.0131
  407MOL0     C53601   2.469   2.003   3.458 -0.0155 -0.6862 -0.1595
  407MOL0     C53602   2.433   1.900   3.345 -0.4845 -0.3861  0.1073
  407MOL0     C53603   2.462   1.753   3.367  0.3244  0.2942  0.3485
  407MOL0     C53604   2.380   1.698   3.495 -0.5604  0.9477  1.4093
  407MOL0     C53605   2.429   1.556   3.532 -0.5917 -0.2893  0.4967
  407MOL0     C53606   2.424   1.527   3.689  0.5935 -0.1540  0.4321
  407MOL0     C53607   2.494   1.610   3.786 -0.6484 -0.6374 -0.0574
  407MOL0     C53608   2.647   1.597   3.769 -0.7730 -0.5483 -0.4054
  407MOL0     N53609   2.710   1.719   3.723  0.7315 -0.6402  0.6124
  407MOL0     C53610   2.703   1.848   3.767 -0.3281  0.3274 -0.0462
  407MOL0     C53611   2.781   1.930   3.685 -0.0187 -0.5358 -0.7959
  407MOL0     C53612   2.830   2.078   3.690  0.6360  0.6919 -0.3598
  407MOL0     C53613   2.979   2.061   3.724  0.1228 -0.0797  0.8786
  407MOL0     C53614   3.047   2.198   3.731 -0.8671  0.9312 -0.2981
  407MOL0     C53615   3.193   2.202   3.758 -0.4638 -0.2000  0.0454
  407MOL0     O53616   3.206   2.145   3.891 -0.5996 -0.1250 -0.2507
  407MOL0     C53617   3.271   2.026   3.927  0.6624  0.7493  0.1285
  407MOL0     C53618   3.280   1.980   4.063 -0.1382  0.1648  0.4180
  407MOL0     C53619   3.339   1.861   4.108 -0.6419 -0.0841 -0.0862
  407MOL0     C53620   3.394   1.781   4.009 -0.5291  0.6656  0.8045
  407MOL0     C53621   3.460   1.651   4.051 -0.6786  0.1253  0.4017
  407MOL0     O53622   3.430   1.615   4.182  0.2143  0.3271  0.0354
  407MOL0     C53623   3.488   1.501   4.236  1.0033  0.8165  0.0429
  407MOL0     C53624   3.558   1.509   4.354 -0.1172  0.0506 -0.1636
  407MOL0     C53625   3.615   1.388   4.407 -0.0015  0.5872 -0.4926
  407MOL0     C53626   3.610   1.262   4.351  0.8026  0.6785  0.5179
  407MOL0     O53627   3.691   1.155   4.397 -0.5630  0.3291  0.1154
  407MOL0     C53628   3.617   1.029   4.402 -0.0348 -0.5417  1.1066
  407MOL0     C53629   3.602   0.978   4.543  0.4796  0.5632 -0.0802
  407MOL0     C53630   3.485   1.044   4.606 -0.2996 -0.1654 -0.3909
  407MOL0     C53631   3.458   0.991   4.743  0.0297 -0.1554  0.6687
  407MOL0     C53632   3.554   1.049   4.852 -0.0724  0.2898 -0.2021
  407MOL0     C53633   3.514   1.017   4.999 -1.0354  0.1239  0.7893
  407MOL0     C53634   3.632   1.060   5.081  0.4073 -1.3610  0.4710
  407MOL0     C53635   3.648   0.976   5.208  0.1481  0.3658  0.0443
  407MOL0    Cl53636   3.814   1.017   5.277 -0.6593 -0.2066 -0.1464
  407MOL0     C53637   3.552   1.259   4.222 -0.1864 -0.1256  0.9349
  407MOL0     C53638   3.488   1.373   4.171  0.3334  0.1372 -0.0113
  407MOL0     O53639   3.547   1.604   3.980 -1.0292  0.9916 -0.5229
  407MOL0     C53640   3.396   1.818   3.875  0.3947  0.6835  0.6548
  407MOL0     C53641   3.338   1.943   3.835 -0.4643 -0.0689 -1.0088
  407MOL0     N53642   2.833   1.847   3.589 -0.2847  0.3266  0.9698
  407MOL0     N53643   2.788   1.724   3.610  1.1325  0.2439  0.2069
  407MOL0     C53644   2.488   2.284   3.577 -0.4666  0.0534 -0.1926
  407MOL0     C53645   2.576   2.358   3.654 -0.2813 -0.2145  0.3826
  407MOL0     C53646   2.906   2.671   3.694 -0.2452 -0.2307  0.1459
  407MOL0     C53647   2.954   2.798   3.646  0.6361  0.3328  0.4056
  407MOL0     C53648   3.005   2.892   3.721 -1.0792 -0.5973  0.5717
  407MOL0     C53649   3.004   2.871   3.861 -0.2878 -0.4941 -0.4643
  407MOL0     O53650   3.064   2.946   3.958 -0.4093  0.1933  0.5213
  407MOL0     C53651   3.088   3.089   3.930  0.9772 -0.6455  0.1276
  407MOL0     C53652   3.127   3.166   4.052  0.0653 -0.8852  0.0736
  407MOL0     C53653   3.138   3.322   4.023 -1.3866  0.5239  0.0964
  407MOL0     C53654   3.240   3.370   3.917  0.0909 -0.5757  0.9137
  407MOL0     C53655   3.369   3.405   3.986  0.1734 -0.2365 -0.5707
  407MOL0     C53656   3.470   3.434   4.047 -0.6789  0.4711 -0.1725
  407MOL0     C53657   2.965   2.745   3.912 -0.0234  0.0634  0.4885
  407MOL0     C53658   2.908   2.650   3.830 -0.9051  0.1729  0.2455
  407MOL0     H53659   2.847   2.342   3.449 -0.1895  0.1027 -0.7059
  407MOL0     H53660   2.702   2.199   3.321  1.6812  0.5510  0.3768
  407MOL0     H53661   2.396   2.008   3.538 -1.3545 -1.5632 -1.2873
  407MOL0     H53662   2.565   1.986   3.509 -2.0208 -2.2414  3.4327
  407MOL0     H53663   2.490   1.938   3.259 -1.1103  2.6259  0.9069
  407MOL0     H53664   2.327   1.926   3.340 -0.3254  0.0729 -1.3328
  407MOL0     H53665   2.570   1.743   3.384 -0.0066 -3.1438  1.2694
  407MOL0     H53666   2.446   1.689   3.280 -0.8582  0.2157  0.6151
  407MOL0     H53667   2.396   1.759   3.584  0.9310  1.0460  1.0949
  407MOL0     H53668   2.274   1.700   3.468 -0.4037  0.1881  0.7285
  407MOL0     H53669   2.533   1.538   3.503 -1.0424  1.4956 -2.6889
  407MOL0     H53670   2.368   1.480   3.482 -1.1621  1.0118 -0.8724
  407MOL0     H53671   2.451   1.422   3.701 -1.2070 -0.8032 -0.7902
  407MOL0     H53672   2.318   1.530   3.717  0.2503 -0.9440 -0.7054
  407MOL0     H53673   2.469   1.717   3.791  1.6899  0.1367 -2.2965
  407MOL0     H53674   2.466   1.589   3.889  0.1283  1.9495  0.7504
  407MOL0     H53675   2.668   1.511   3.705  0.4871  0.2608 -1.1135
  407MOL0     H53676   2.702   1.563   3.857  0.5513 -0.8618 -1.3280
  407MOL0     H53677   2.655   1.884   3.857  0.3741  0.1352  0.4132
  407MOL0     H53678   2.773   2.145   3.755 -0.0891  2.5959 -2.8021
  407MOL0     H53679   2.828   2.126   3.592  1.3959 -0.6381 -1.0536
  407MOL0     H53680   3.021   2.014   3.634 -0.5222  1.0136 -0.0276
  407MOL0     H53681   2.990   1.998   3.812  1.7478 -2.0599 -0.6300
  407MOL0     H53682   3.016   2.244   3.637  1.8795 -0.0980 -1.8167
  407MOL0     H53683   3.001   2.243   3.820  1.3888 -1.4821  2.2882
  407MOL0     H53684   3.212   2.310   3.761  1.2683 -0.4941  1.3768
  407MOL0     H53685   3.259   2.153   3.685  0.3404  0.2169  0.4788
  407MOL0     H53686   3.230   2.047   4.132 -1.4876 -2.3100  2.0031
  407MOL0     H53687   3.331   1.841   4.214  1.8204 -3.3195 -0.3563
  407MOL0     H53688   3.557   1.598   4.417 -1.7840 -0.1100  0.0840
  407MOL0     H53689   3.667   1.371   4.501 -1.3123 -0.4763  0.0791
  407MOL0     H53690   3.665   0.948   4.347 -0.2808  0.4290 -0.6062
  407MOL0     H53691   3.527   1.041   4.341  1.1055  1.6186 -0.2863
  407MOL0     H53692   3.694   1.001   4.598 -0.1332  2.7180  0.1637
  407MOL0     H53693   3.586   0.871   4.532 -0.8008  0.7575 -0.3394
  407MOL0     H53694   3.394   1.027   4.548 -1.6687 -1.6706  2.0595
  407MOL0     H53695   3.507   1.151   4.606 -1.5478  0.1382  1.5678
  407MOL0     H53696   3.357   1.025   4.766 -0.6084 -0.6208 -1.2858
  407MOL0     H53697   3.465   0.882   4.747  2.4732 -0.2408 -2.4147
  407MOL0     H53698   3.562   1.158   4.845  0.1686  0.3906  1.3307
  407MOL0     H53699   3.654   1.009   4.834 -1.7592 -2.7864 -4.5132
  407MOL0     H53700   3.490   0.910   5.005  2.2728 -0.7296  0.7066
  407MOL0     H53701   3.429   1.080   5.027 -0.6983  0.0346  2.0761
  407MOL0     H53702   3.723   1.037   5.026  1.0032 -0.5139  1.0623
  407MOL0     H53703   3.626   1.166   5.110  0.1760 -1.0423 -0.7183
  407MOL0     H53704   3.640   0.869   5.186 -1.5379 -0.1420  2.6119
  407MOL0     H53705   3.570   0.994   5.283 -0.8343  0.5623 -1.0005
  407MOL0     H53706   3.545   1.166   4.168  2.0244 -0.6932  1.5165
  407MOL0     H53707   3.452   1.372   4.069 -0.6519 -3.1288  0.2612
  407MOL0     H53708   3.448   1.769   3.793 -0.6556 -0.3807  0.6032
  407MOL0     H53709   3.355   1.974   3.733  0.7029  2.2487 -0.1687
  407MOL0     H53710   2.386   2.265   3.611  0.4075 -0.0972  2.5313
  407MOL0     H53711   2.545   2.392   3.753 -3.2785 -0.1397 -0.4928
  407MOL0     H53712   2.953   2.823   3.540 -0.7083  0.1951  0.3602
  407MOL0     H53713   3.044   2.982   3.675 -1.4400 -0.1551  1.1140
  407MOL0     H53714   2.992   3.134   3.906  1.3703  0.4698  0.5961
  407MOL0     H53715   3.152   3.096   3.841 -0.6712  0.0155 -1.0401
  407MOL0     H53716   3.040   3.169   4.119  0.1591  1.1805  0.1387
  407MOL0     H53717   3.216   3.117   4.094  0.3953 -1.6425 -1.4462
  407MOL0     H53718   3.185   3.353   4.117  0.0682  0.9020 -0.7243
  407MOL0     H53719   3.039   3.366   4.012 -1.7306 -0.4310 -0.8233
  407MOL0     H53720   3.269   3.291   3.847  3.2678  1.3580 -0.1780
  407MOL0     H53721   3.214   3.466   3.873  0.7667 -0.3005  1.0984
  407MOL0     H53722   3.557   3.461   4.104  0.3892 -2.4882 -0.2256
  407MOL0     H53723   2.995   2.728   4.015  1.0202 -0.4470  0.1176
  407MOL0     H53724   2.860   2.558   3.864 -1.0073  0.0000 -0.3612
  408MOL0     O53725   3.251  10.414   7.332  1.3554 -0.2963 -0.0426
  408MOL0     C53726   3.238  10.478   7.439  0.4259 -0.4900  1.0745
  408MOL0     O53727   3.136  10.558   7.469  0.3392 -0.3993  0.6564
  408MOL0     C53728   3.040  10.605   7.394  0.4056  0.7297 -1.0177
  408MOL0     C53729   2.994  10.527   7.285  0.3030  0.8552  0.0372
  408MOL0     C53730   2.909  10.589   7.189 -0.1895 -0.2344 -0.7794
  408MOL0     C53731   2.862  10.726   7.215  0.5537  0.0370 -0.9075
  408MOL0     O53732   2.790  10.772   7.108  0.0596 -0.3371 -0.1217
  408MOL0     C53733   2.817  10.911   7.066  0.7269  0.8801 -0.2906
  408MOL0     C53734   2.712  10.965   6.964 -0.0304  0.0461  0.1203
  408MOL0     C53735   2.682  10.878   6.847  0.6824  0.6452  0.2100
  408MOL0     C53736   2.798  10.876   6.749 -0.9851 -0.9335 -0.3574
  408MOL0     C53737   2.842  10.731   6.717  0.0439  0.0244  0.2029
  408MOL0     C53738   2.969  10.737   6.645  0.1195 -0.4562 -0.8711
  408MOL0     C53739   3.025  10.601   6.606 -0.7683 -0.4386  0.3899
  408MOL0     C53740   3.152  10.609   6.515 -0.4187 -0.4324  0.4693
  408MOL0     N53741   3.133  10.641   6.374  0.8345 -0.6411  0.8840
  408MOL0     C53742   3.155  10.775   6.322 -0.1494  0.0182 -0.0935
  408MOL0     C53743   3.162  10.753   6.195 -0.4000  0.4445 -0.5362
  408MOL0     C53744   3.193  10.844   6.079  0.0764 -0.5626  0.1444
  408MOL0     C53745   3.322  10.813   6.011 -0.2356 -0.0579  0.2083
  408MOL0     C53746   3.440  10.887   6.082  0.0613 -0.8381 -0.3059
  408MOL0     C53747   3.575  10.873   6.015  0.4716 -1.1755  0.0902
  408MOL0     O53748   3.596  10.735   5.970 -0.0773  0.5205 -0.0157
  408MOL0     C53749   3.708  10.738   5.895  0.7180  0.0291 -0.5224
  408MOL0     C53750   3.835  10.704   5.936 -0.2930  0.4423 -0.2605
  408MOL0     C53751   3.959  10.724   5.863 -0.0972  0.9093  0.0229
  408MOL0     C53752   3.946  10.777   5.730 -0.3827 -0.0441 -0.3896
  408MOL0     C53753   4.061  10.806   5.648 -0.9056 -0.3215 -0.3079
  408MOL0     O53754   4.177  10.811   5.723 -0.2378  0.5044 -0.4326
  408MOL0     C53755   4.303  10.848   5.662 -0.8866 -0.5643  0.7086
  408MOL0     C53756   4.343  10.813   5.530  0.3910 -0.6058 -0.3887
  408MOL0     C53757   4.461  10.878   5.481  0.9629  0.1646  1.1996
  408MOL0     C53758   4.538  10.967   5.551 -0.0438  0.0027  0.0621
  408MOL0     O53759   4.640  11.035   5.493  0.5165  0.6026  0.0027
  408MOL0     C53760   4.713  10.949   5.401  0.9895 -0.1665  0.7353
  408MOL0     C53761   4.865  11.002   5.381 -0.5782  0.2753 -0.2279
  408MOL0     C53762   4.937  11.045   5.499  0.4630  0.0950 -0.2758
  408MOL0     C53763   5.082  11.080   5.476 -0.1701 -0.6433 -0.2616
  408MOL0     C53764   5.151  11.117   5.613  0.3139  0.0669  1.1104
  408MOL0     C53765   5.300  11.146   5.580  0.4384 -0.1098  0.3518
  408MOL0     C53766   5.316  11.279   5.502 -0.7184 -0.5255 -0.4573
  408MOL0     C53767   5.426  11.271   5.403 -0.1133  1.1829 -0.2987
  408MOL0    Cl53768   5.437  11.423   5.300 -0.2459  0.0060  0.8783
  408MOL0     C53769   4.500  10.990   5.683 -0.2523 -0.3553  0.5454
  408MOL0     C53770   4.386  10.936   5.731  0.0424 -0.8488 -0.1171
  408MOL0     O53771   4.052  10.818   5.528 -0.8895 -0.4932  0.0883
  408MOL0     C53772   3.818  10.802   5.687 -0.0511 -0.9707  0.6176
  408MOL0     C53773   3.700  10.795   5.763 -0.2463  0.0315  0.5803
  408MOL0     N53774   3.133  10.621   6.169 -0.5055 -0.0521 -0.0479
  408MOL0     N53775   3.122  10.554   6.274 -0.2707  1.1920  0.5205
  408MOL0     C53776   2.907  10.797   7.320 -0.2552 -0.3917  0.6761
  408MOL0     C53777   2.999  10.737   7.409 -0.0195  0.4041  0.0506
  408MOL0     C53778   3.347  10.451   7.534 -0.2692 -0.1412 -0.1447
  408MOL0     C53779   3.469  10.392   7.493 -0.2787  0.6175 -0.4986
  408MOL0     C53780   3.582  10.401   7.578 -0.0464 -0.1167  0.6111
  408MOL0     C53781   3.576  10.451   7.710 -0.0370 -0.4826 -1.0166
  408MOL0     O53782   3.662  10.441   7.814 -0.2402  0.2249 -0.1347
  408MOL0     C53783   3.778  10.358   7.831  0.9422  0.5317  0.0655
  408MOL0     C53784   3.908  10.415   7.771  0.5485 -0.1052  0.6318
  408MOL0     C53785   4.021  10.402   7.876 -0.5169  0.2273  0.1524
  408MOL0     C53786   4.140  10.487   7.838 -0.2159  0.2012 -0.3732
  408MOL0     C53787   4.251  10.453   7.924  1.3235 -0.5248 -0.4719
  408MOL0     C53788   4.346  10.431   7.991  0.5687  0.3916  0.2812
  408MOL0     C53789   3.453  10.508   7.749 -0.5290  0.1198 -0.4901
  408MOL0     C53790   3.339  10.506   7.659  0.7959  0.0106 -0.4241
  408MOL0     H53791   3.022  10.424   7.267 -0.5968  0.2069  2.0043
  408MOL0     H53792   2.869  10.541   7.100  0.0654 -0.5135 -0.7462
  408MOL0     H53793   2.917  10.921   7.023  1.3132 -2.6450 -0.1040
  408MOL0     H53794   2.819  10.977   7.153 -0.1154 -0.3543  0.7079
  408MOL0     H53795   2.741  11.064   6.930  0.8871 -0.1105  0.4373
  408MOL0     H53796   2.614  10.975   7.012 -0.2553  2.6103 -0.7489
  408MOL0     H53797   2.592  10.915   6.797  0.0255  2.1703  2.4109
  408MOL0     H53798   2.653  10.778   6.879 -4.1580  2.1176  1.2115
  408MOL0     H53799   2.770  10.932   6.660  2.7116  1.1758 -0.3829
  408MOL0     H53800   2.880  10.926   6.800  0.1755 -4.3342  1.4364
  408MOL0     H53801   2.756  10.698   6.657  0.4936  1.9712 -1.6169
  408MOL0     H53802   2.856  10.665   6.803 -0.0746 -0.0807  0.1433
  408MOL0     H53803   3.045  10.777   6.711  1.0391  0.5024 -2.4396
  408MOL0     H53804   2.948  10.793   6.553 -0.4429  1.3318  0.2842
  408MOL0     H53805   3.047  10.540   6.695  2.4152 -0.7851 -0.5148
  408MOL0     H53806   2.959  10.556   6.531  0.8484 -1.2110 -0.6256
  408MOL0     H53807   3.179  10.503   6.527 -1.8400 -1.0094 -1.0735
  408MOL0     H53808   3.223  10.683   6.552  1.1653  0.1434 -3.3278
  408MOL0     H53809   3.166  10.868   6.378  3.4023 -1.2591  1.5913
  408MOL0     H53810   3.195  10.948   6.112  0.4595 -0.4333 -0.2787
  408MOL0     H53811   3.111  10.844   6.007 -0.9704  3.4044  1.0915
  408MOL0     H53812   3.321  10.844   5.907 -1.5573  0.8506  0.4762
  408MOL0     H53813   3.341  10.705   6.021 -1.0119 -0.2667 -0.5431
  408MOL0     H53814   3.410  10.990   6.103 -1.9748 -2.1145  4.3744
  408MOL0     H53815   3.445  10.863   6.188 -0.7349 -0.9173 -0.2754
  408MOL0     H53816   3.645  10.907   6.091  3.7289  5.4702 -4.8647
  408MOL0     H53817   3.579  10.945   5.932 -0.1921 -3.0298 -1.6267
  408MOL0     H53818   3.832  10.666   6.037 -3.6715  2.0284  0.3617
  408MOL0     H53819   4.056  10.692   5.898 -1.6157 -3.1065  1.1011
  408MOL0     H53820   4.289  10.743   5.466 -1.7848  2.4843 -2.2200
  408MOL0     H53821   4.486  10.854   5.378 -3.8374  1.1333 -0.4434
  408MOL0     H53822   4.668  10.939   5.301 -0.5228 -1.4843  1.4971
  408MOL0     H53823   4.724  10.848   5.441 -0.8886  0.0116  1.7817
  408MOL0     H53824   4.850  11.088   5.314 -2.0052  2.4888  2.7009
  408MOL0     H53825   4.915  10.920   5.329 -1.8917 -1.2027  0.7484
  408MOL0     H53826   4.932  10.975   5.583  1.1942  1.6288  1.1058
  408MOL0     H53827   4.892  11.140   5.531  0.3366  0.3798 -1.2696
  408MOL0     H53828   5.139  11.001   5.426  2.4796  1.0615 -0.1190
  408MOL0     H53829   5.077  11.171   5.415  0.1591 -0.3130  0.1893
  408MOL0     H53830   5.159  11.018   5.659  0.7352  0.0152  0.9330
  408MOL0     H53831   5.097  11.192   5.671 -1.0110 -1.8404  2.4763
  408MOL0     H53832   5.331  11.060   5.519 -0.3580 -0.2340  0.1097
  408MOL0     H53833   5.356  11.149   5.674 -1.1891 -1.5234  1.4397
  408MOL0     H53834   5.227  11.308   5.446 -0.0130 -2.2542 -2.6291
  408MOL0     H53835   5.342  11.358   5.574 -0.8040 -0.6322 -0.3107
  408MOL0     H53836   5.411  11.185   5.337  1.5163  0.2913  0.4242
  408MOL0     H53837   5.511  11.251   5.469 -2.5109  0.0294  2.6931
  408MOL0     H53838   4.546  11.058   5.754 -1.1897  0.4822  0.3775
  408MOL0     H53839   4.355  10.956   5.833  2.7052  0.7391  0.4796
  408MOL0     H53840   3.798  10.824   5.582  1.7719 -3.8849 -0.4640
  408MOL0     H53841   3.608  10.822   5.713  0.5490 -0.5593 -1.2926
  408MOL0     H53842   2.884  10.899   7.348  0.5559 -0.5097  1.8017
  408MOL0     H53843   3.019  10.786   7.504  1.3613  0.1643 -0.0932
  408MOL0     H53844   3.464  10.344   7.396  2.1834 -0.4618 -0.1525
  408MOL0     H53845   3.668  10.348   7.538 -1.4440 -0.2050 -2.4894
  408MOL0     H53846   3.753  10.269   7.771 -0.4890  2.0086 -1.6578
  408MOL0     H53847   3.789  10.336   7.937 -3.5311 -0.8384  0.4596
  408MOL0     H53848   3.927  10.353   7.683 -1.2037  1.8387 -1.2298
  408MOL0     H53849   3.887  10.518   7.743 -2.2757 -0.3809  1.3780
  408MOL0     H53850   4.048  10.296   7.882 -1.4646 -0.0947 -0.8401
  408MOL0     H53851   3.984  10.442   7.971  1.9317  2.3369  0.2920
  408MOL0     H53852   4.159  10.484   7.730  2.1966 -0.0021  0.0001
  408MOL0     H53853   4.108  10.590   7.860 -2.7011 -0.4870 -0.4486
  408MOL0     H53854   4.432  10.419   8.054 -1.3321 -0.5927  2.8849
  408MOL0     H53855   3.460  10.550   7.849  1.4937  1.1277 -1.0006
  408MOL0     H53856   3.245  10.553   7.685 -0.9842 -3.4673  0.0100
  409MOL0     O53857  10.386   0.908   8.451 -0.1897 -0.0798 -0.3730
  409MOL0     C53858  10.385   0.897   8.577 -0.9397 -0.3726  0.0828
  409MOL0     O53859  10.407   0.773   8.639  0.4282 -0.7879 -0.1533
  409MOL0     C53860  10.419   0.662   8.556  0.3729 -0.5285  0.2492
  409MOL0     C53861  10.543   0.601   8.561 -0.1759  0.3365 -0.1229
  409MOL0     C53862  10.575   0.481   8.495 -1.0371 -0.1508  0.7244
  409MOL0     C53863  10.476   0.410   8.425  0.8139 -0.2030 -0.6366
  409MOL0     O53864  10.504   0.298   8.350  0.0388  0.1584 -0.2635
  409MOL0     C53865  10.422   0.182   8.371  0.2453  1.3728  0.1954
  409MOL0     C53866  10.404   0.103   8.239  0.1319  0.6539 -0.4772
  409MOL0     C53867  10.261   0.038   8.232 -0.1685 -0.1158 -0.3713
  409MOL0     C53868  10.247  -0.061   8.115 -0.0684  0.5434  0.0082
  409MOL0     C53869  10.110  -0.123   8.102  0.4128  0.8175  0.5192
  409MOL0     C53870  10.076  -0.207   8.225 -0.3553 -0.2439 -0.4156
  409MOL0     C53871   9.966  -0.311   8.202 -0.2383 -0.5309 -0.0185
  409MOL0     C53872   9.940  -0.377   8.341 -0.7448 -0.4734  0.4443
  409MOL0     N53873   9.835  -0.318   8.412  0.3081 -0.5816  0.6118
  409MOL0     C53874   9.706  -0.290   8.383 -0.7717 -0.6967  0.1888
  409MOL0     C53875   9.655  -0.237   8.496 -0.0086  0.8488  0.5016
  409MOL0     C53876   9.520  -0.187   8.509  0.4030 -0.0516 -0.5498
  409MOL0     C53877   9.503  -0.032   8.483  0.4177 -0.1149 -1.4202
  409MOL0     C53878   9.362   0.030   8.506  1.1864  0.5769 -0.2136
  409MOL0     C53879   9.303   0.033   8.645  0.4149 -0.2572 -0.7228
  409MOL0     O53880   9.323  -0.090   8.707  0.5576  0.5477  0.5381
  409MOL0     C53881   9.328  -0.096   8.844 -0.1835  0.1132  1.1225
  409MOL0     C53882   9.390  -0.210   8.908 -0.8114 -0.2459 -0.1254
  409MOL0     C53883   9.409  -0.221   9.044 -0.0542  0.4338  0.2282
  409MOL0     C53884   9.372  -0.117   9.128 -0.5706 -0.9813 -0.8830
  409MOL0     C53885   9.409  -0.124   9.274 -0.4305 -0.0660  1.0319
  409MOL0     O53886   9.464  -0.241   9.317  1.0399 -0.4080  0.0336
  409MOL0     C53887   9.518  -0.254   9.447  0.9819 -0.5081 -0.1866
  409MOL0     C53888   9.506  -0.378   9.504 -0.0559  0.3874 -0.2818
  409MOL0     C53889   9.571  -0.403   9.627  0.0058  0.6250  0.3779
  409MOL0     C53890   9.634  -0.300   9.702 -0.3548  0.9054 -0.5017
  409MOL0     O53891   9.660  -0.327   9.833 -0.4938  0.3049 -0.3620
  409MOL0     C53892   9.708  -0.233   9.919 -0.0793  0.4323 -0.4264
  409MOL0     C53893   9.766  -0.299  10.050  0.3559  0.2352 -0.2743
  409MOL0     C53894   9.658  -0.374  10.116  0.5732  1.4605  0.3597
  409MOL0     C53895   9.696  -0.389  10.271  0.0779  0.2556  0.3969
  409MOL0     C53896   9.603  -0.495  10.353 -0.7929 -0.2617  0.7272
  409MOL0     C53897   9.654  -0.517  10.498  0.2247  0.8134  0.0732
  409MOL0     C53898   9.549  -0.556  10.598  0.2407  0.6729 -0.1563
  409MOL0     C53899   9.448  -0.671  10.564  0.5358  0.1140 -0.0953
  409MOL0    Cl53900   9.534  -0.818  10.520  0.2512 -0.1316  0.3678
  409MOL0     C53901   9.645  -0.177   9.639  0.4693 -0.4739  0.8081
  409MOL0     C53902   9.590  -0.149   9.514  0.6096 -0.5099  0.3602
  409MOL0     O53903   9.374  -0.031   9.339  0.6229  0.4688 -0.7662
  409MOL0     C53904   9.315  -0.002   9.069 -0.7105  0.2814  1.4630
  409MOL0     C53905   9.291   0.004   8.927  0.1046 -0.0443 -0.6531
  409MOL0     N53906   9.748  -0.243   8.601 -0.4714 -0.4152  0.0039
  409MOL0     N53907   9.855  -0.283   8.542  0.2024  0.9507 -0.2114
  409MOL0     C53908  10.340   0.465   8.433 -0.2129  0.0069  0.2748
  409MOL0     C53909  10.318   0.594   8.491  0.4605 -0.0049 -0.5835
  409MOL0     C53910  10.367   1.018   8.653 -0.5123  0.6606 -0.6286
  409MOL0     C53911  10.360   1.006   8.793 -0.7621  0.7557 -0.2822
  409MOL0     C53912  10.340   1.114   8.882 -0.1879  0.5335  0.0469
  409MOL0     C53913  10.341   1.245   8.832  0.6236 -0.3600 -0.0369
  409MOL0     O53914  10.328   1.363   8.909 -0.0976  0.5275  0.1202
  409MOL0     C53915  10.386   1.490   8.881 -0.3628 -0.3211 -1.1260
  409MOL0     C53916  10.538   1.480   8.869  0.1302  0.0360  0.3938
  409MOL0     C53917  10.599   1.373   8.971 -0.6528 -0.0252 -0.1154
  409MOL0     C53918  10.734   1.420   9.031  0.0052 -0.3330  0.0831
  409MOL0     C53919  10.813   1.315   9.076 -0.5725 -0.4190 -0.3227
  409MOL0     C53920  10.889   1.236   9.127  0.7933 -0.2314  0.0020
  409MOL0     C53921  10.343   1.256   8.692  0.7900 -0.1647  0.3206
  409MOL0     C53922  10.354   1.148   8.603  0.8072 -0.2177 -0.0343
  409MOL0     H53923  10.616   0.653   8.622 -0.3238  0.2635  0.1195
  409MOL0     H53924  10.672   0.433   8.503 -0.1016  1.6947  0.9553
  409MOL0     H53925  10.328   0.185   8.428 -0.7958 -1.5874 -1.1513
  409MOL0     H53926  10.473   0.107   8.432 -0.2629 -1.1121 -2.1923
  409MOL0     H53927  10.482   0.027   8.244 -0.0528  0.5082  0.3207
  409MOL0     H53928  10.422   0.175   8.159  0.4324 -0.6507 -1.6109
  409MOL0     H53929  10.183   0.115   8.237  0.9187  0.9585  1.2817
  409MOL0     H53930  10.237  -0.019   8.322 -0.3085  1.3415  0.5526
  409MOL0     H53931  10.282  -0.025   8.018 -2.2413  2.0278 -0.2930
  409MOL0     H53932  10.311  -0.145   8.141 -0.9571 -0.3925 -0.7555
  409MOL0     H53933  10.105  -0.184   8.011  0.5474  2.6478 -0.7552
  409MOL0     H53934  10.022  -0.058   8.100 -0.6013 -0.4066  2.0974
  409MOL0     H53935  10.033  -0.140   8.300 -0.2583 -1.5604  0.8707
  409MOL0     H53936  10.163  -0.248   8.278  0.3887  4.2272  2.3477
  409MOL0     H53937   9.875  -0.264   8.164  0.9394  2.6788  0.7766
  409MOL0     H53938  10.015  -0.378   8.131  1.7595 -0.7180  1.4515
  409MOL0     H53939  10.030  -0.378   8.402  0.0138  0.9616 -0.6011
  409MOL0     H53940   9.912  -0.481   8.323 -1.3825  0.1002 -2.2791
  409MOL0     H53941   9.659  -0.309   8.287 -0.5351 -0.6412  0.0622
  409MOL0     H53942   9.497  -0.196   8.615  0.9371 -0.4234 -0.4620
  409MOL0     H53943   9.451  -0.246   8.448  0.4908 -2.5973  1.6441
  409MOL0     H53944   9.528  -0.009   8.379 -2.0573 -0.6295 -2.1866
  409MOL0     H53945   9.564   0.017   8.559 -4.6481  1.3603  2.2235
  409MOL0     H53946   9.349   0.128   8.460  0.3307  0.3052 -0.5669
  409MOL0     H53947   9.295  -0.034   8.448 -0.3673  0.1217  1.9889
  409MOL0     H53948   9.195   0.050   8.643  0.4291  0.1117  0.4942
  409MOL0     H53949   9.359   0.117   8.689 -1.3510 -0.2523  1.7386
  409MOL0     H53950   9.433  -0.288   8.847 -3.0795 -1.8786  0.2592
  409MOL0     H53951   9.453  -0.309   9.091 -1.8433  0.2693  1.7237
  409MOL0     H53952   9.452  -0.459   9.456 -1.4100  1.1420 -0.0677
  409MOL0     H53953   9.558  -0.498   9.678  0.8353  0.4539  0.2760
  409MOL0     H53954   9.618  -0.175   9.940 -0.6461  1.2416 -4.3624
  409MOL0     H53955   9.779  -0.168   9.868  0.7690  1.0157  1.3933
  409MOL0     H53956   9.807  -0.221  10.115 -0.0167  1.9169 -1.9745
  409MOL0     H53957   9.850  -0.366  10.028  1.1553  1.5172 -1.2322
  409MOL0     H53958   9.646  -0.469  10.064 -0.0926  2.3303 -1.1452
  409MOL0     H53959   9.556  -0.337  10.106 -0.0156 -0.5377 -1.6687
  409MOL0     H53960   9.798  -0.429  10.269  0.9476  2.3479 -0.3144
  409MOL0     H53961   9.696  -0.297  10.331 -2.0287 -0.4603  1.6105
  409MOL0     H53962   9.622  -0.597  10.318  0.6498 -1.1793  3.8649
  409MOL0     H53963   9.498  -0.464  10.355 -0.0491  2.5097  0.8131
  409MOL0     H53964   9.690  -0.420  10.532  2.2875  1.6658 -3.9475
  409MOL0     H53965   9.739  -0.586  10.498  1.6803  2.5365  0.5599
  409MOL0     H53966   9.605  -0.598  10.681 -0.7076 -2.2159 -0.8774
  409MOL0     H53967   9.496  -0.463  10.621 -0.8523  0.7428 -2.5914
  409MOL0     H53968   9.387  -0.643  10.478  0.6767  0.0371 -0.2187
  409MOL0     H53969   9.378  -0.698  10.644 -1.0591 -0.4390 -1.6072
  409MOL0     H53970   9.697  -0.098   9.692  2.1673 -0.2879 -1.0030
  409MOL0     H53971   9.620  -0.048   9.487  2.5895  0.0167  3.9680
  409MOL0     H53972   9.299   0.085   9.130  3.8350  2.5660 -0.1498
  409MOL0     H53973   9.240   0.093   8.891 -0.4113 -1.0907 -2.6356
  409MOL0     H53974  10.257   0.418   8.380  0.4310  0.3131 -1.0401
  409MOL0     H53975  10.225   0.651   8.498  1.5944  2.1628 -2.0031
  409MOL0     H53976  10.385   0.911   8.840 -1.2391  1.3126  1.1433
  409MOL0     H53977  10.353   1.096   8.989  2.0088  1.3460 -0.0228
  409MOL0     H53978  10.373   1.558   8.965  0.9813 -1.3337 -0.0498
  409MOL0     H53979  10.345   1.549   8.798  1.5584  1.6685 -0.7467
  409MOL0     H53980  10.566   1.465   8.764  2.6792  0.3874  0.9621
  409MOL0     H53981  10.586   1.573   8.901  3.7323 -1.6977  0.5156
  409MOL0     H53982  10.607   1.279   8.915  0.8643 -0.1173  0.2264
  409MOL0     H53983  10.530   1.354   9.054  0.6559  0.4243  1.1031
  409MOL0     H53984  10.793   1.486   8.967  0.5160  1.9771  2.7541
  409MOL0     H53985  10.709   1.476   9.122  1.4984  1.5606 -0.6064
  409MOL0     H53986  10.941   1.149   9.161  1.6389  0.0641 -0.5073
  409MOL0     H53987  10.336   1.355   8.647  2.6510 -1.3051 -2.7810
  409MOL0     H53988  10.352   1.171   8.497 -1.1516  1.0857  0.2280
  410MOL0     O53989   3.447   3.059   1.625 -0.9386 -0.7672 -0.9236
  410MOL0     C53990   3.329   3.031   1.621  0.3205 -0.3114  0.4271
  410MOL0     O53991   3.224   3.112   1.650 -0.1307  0.5261 -0.1871
  410MOL0     C53992   3.226   3.249   1.677  0.8171 -0.8274 -1.1052
  410MOL0     C53993   3.103   3.313   1.652 -0.0182 -0.8104  0.4503
  410MOL0     C53994   3.108   3.454   1.677  0.8865  0.4359 -0.4308
  410MOL0     C53995   3.218   3.527   1.713 -0.5755  0.9704  0.3910
  410MOL0     O53996   3.208   3.658   1.733 -0.0026  0.0087  0.2208
  410MOL0     C53997   3.175   3.747   1.630  0.5166 -0.1553  0.5550
  410MOL0     C53998   3.299   3.792   1.566 -0.2199  0.1153 -0.0274
  410MOL0     C53999   3.286   3.864   1.422  1.2957  0.1185  0.1271
  410MOL0     C54000   3.220   3.765   1.322 -0.7777  0.2132 -0.4580
  410MOL0     C54001   3.272   3.807   1.190 -0.2827 -0.2503  0.4452
  410MOL0     C54002   3.213   3.738   1.070 -0.4900  0.5782  0.0148
  410MOL0     C54003   3.060   3.717   1.079  0.6562  0.4169 -0.3482
  410MOL0     C54004   2.996   3.634   0.958  0.0998 -0.2478 -0.6479
  410MOL0     N54005   3.000   3.689   0.825 -0.3467  0.3374  0.4307
  410MOL0     C54006   2.971   3.613   0.713  0.6877  0.5521  0.6615
  410MOL0     C54007   2.975   3.703   0.609 -0.1073 -0.6525 -0.9496
  410MOL0     C54008   2.911   3.681   0.478 -0.4422  0.0220 -0.1872
  410MOL0     C54009   2.896   3.531   0.434 -1.1869 -1.1911  0.9168
  410MOL0     C54010   3.036   3.460   0.417  0.0061  0.4202 -0.0909
  410MOL0     C54011   3.027   3.310   0.371 -0.7957 -0.0803  0.0421
  410MOL0     O54012   2.954   3.231   0.470 -0.0525  0.3196 -0.6740
  410MOL0     C54013   2.861   3.148   0.410 -0.6002  0.2265 -0.2972
  410MOL0     C54014   2.898   3.071   0.303  0.8513  1.3446 -0.4178
  410MOL0     C54015   2.795   2.991   0.239 -1.2604 -0.2320 -0.0307
  410MOL0     C54016   2.664   2.993   0.285 -0.0951  0.4359 -0.1233
  410MOL0     C54017   2.553   2.909   0.221 -1.0030 -0.3457  0.1391
  410MOL0     O54018   2.604   2.822   0.123  0.1165 -0.3720 -0.6585
  410MOL0     C54019   2.522   2.726   0.074  0.2417  0.4990  0.4489
  410MOL0     C54020   2.573   2.666  -0.043 -0.8656  0.3519 -0.4747
  410MOL0     C54021   2.505   2.558  -0.099 -0.5358 -0.1515  0.1604
  410MOL0     C54022   2.412   2.490  -0.031  0.6278  0.2627  1.1156
  410MOL0     O54023   2.338   2.382  -0.077 -0.5096  0.6025  0.9863
  410MOL0     C54024   2.364   2.323  -0.208  0.7407 -0.6810 -0.5976
  410MOL0     C54025   2.243   2.233  -0.238 -0.7151 -0.9415 -0.8992
  410MOL0     C54026   2.259   2.180  -0.372 -0.3219  0.3298  0.4312
  410MOL0     C54027   2.164   2.065  -0.407 -0.1134  0.0473 -0.4872
  410MOL0     C54028   2.170   2.017  -0.551 -0.2089  1.4969  1.4435
  410MOL0     C54029   2.086   1.887  -0.568 -0.6471 -0.2347 -0.4266
  410MOL0     C54030   2.123   1.817  -0.708  0.0100 -0.3904  0.3615
  410MOL0     C54031   2.096   1.909  -0.828  0.8604  0.4620 -0.8090
  410MOL0    Cl54032   2.139   1.820  -0.975 -0.2666  0.1962 -0.5478
  410MOL0     C54033   2.367   2.546   0.088  0.8968  0.0612 -0.2593
  410MOL0     C54034   2.417   2.662   0.136 -0.5379  0.1377  0.6514
  410MOL0     O54035   2.434   2.931   0.244  0.8005  0.9495 -0.0212
  410MOL0     C54036   2.629   3.078   0.389  0.4075  0.3038 -0.4790
  410MOL0     C54037   2.726   3.138   0.462  0.0134  0.4081 -0.2317
  410MOL0     N54038   3.013   3.829   0.652 -0.4528  0.4960  0.1271
  410MOL0     N54039   3.031   3.815   0.779 -1.0089 -0.2243 -0.3795
  410MOL0     C54040   3.336   3.461   1.733 -0.3267  0.0715  0.4071
  410MOL0     C54041   3.344   3.321   1.721 -0.0447  0.0375  0.1659
  410MOL0     C54042   3.293   2.903   1.556 -1.1103  0.4682 -0.4679
  410MOL0     C54043   3.177   2.889   1.478  0.6699  0.1649  0.2105
  410MOL0     C54044   3.148   2.767   1.417 -0.0666  0.0716 -0.7350
  410MOL0     C54045   3.246   2.669   1.426  0.7175  0.3768  0.1024
  410MOL0     O54046   3.233   2.554   1.356 -0.7533 -0.6614  0.2087
  410MOL0     C54047   3.104   2.492   1.327 -0.3315 -0.3237  0.0880
  410MOL0     C54048   3.025   2.441   1.448 -0.3723  0.2779 -0.2761
  410MOL0     C54049   3.115   2.368   1.562  0.2348 -1.6260  0.2781
  410MOL0     C54050   3.040   2.311   1.674 -0.3322 -0.3617 -0.3947
  410MOL0     C54051   2.964   2.414   1.747  0.2382 -1.3002 -0.1073
  410MOL0     C54052   2.889   2.487   1.812 -0.2057 -0.1077 -0.9630
  410MOL0     C54053   3.370   2.695   1.488  0.5810 -0.5532  0.2379
  410MOL0     C54054   3.393   2.814   1.548  0.2596  0.6916 -0.5787
  410MOL0     H54055   3.004   3.275   1.628  0.4143 -0.4010 -2.1907
  410MOL0     H54056   3.015   3.511   1.676  0.2330 -0.5152  1.5452
  410MOL0     H54057   3.132   3.843   1.661  1.5624  0.3872  0.4055
  410MOL0     H54058   3.103   3.707   1.559  0.4197 -2.2543  1.7697
  410MOL0     H54059   3.372   3.711   1.553 -0.0714 -0.0676  1.6607
  410MOL0     H54060   3.342   3.867   1.633 -0.9861 -0.5841  1.3095
  410MOL0     H54061   3.387   3.901   1.402  0.7473  1.4311 -0.2764
  410MOL0     H54062   3.230   3.958   1.423  1.5951  0.4640 -3.1948
  410MOL0     H54063   3.240   3.658   1.330  0.7145  0.3408 -1.8383
  410MOL0     H54064   3.111   3.773   1.323 -0.9656 -1.7944 -0.0861
  410MOL0     H54065   3.381   3.793   1.187 -0.4396 -1.7818  1.1105
  410MOL0     H54066   3.244   3.913   1.193 -2.4377 -0.7874  0.9782
  410MOL0     H54067   3.269   3.644   1.062 -0.3092  0.4800  1.9829
  410MOL0     H54068   3.235   3.800   0.982 -2.3898 -1.0250 -1.7118
  410MOL0     H54069   3.028   3.662   1.168 -0.3837 -2.0378 -2.1267
  410MOL0     H54070   3.005   3.812   1.086 -2.0922 -1.0701 -0.2482
  410MOL0     H54071   2.892   3.612   0.981  1.3542 -2.9895  3.6717
  410MOL0     H54072   3.036   3.532   0.959  2.2015  0.4387  2.4038
  410MOL0     H54073   2.925   3.515   0.716  1.1792 -0.0520 -4.1209
  410MOL0     H54074   2.974   3.730   0.402 -0.3189 -2.0206 -1.4930
  410MOL0     H54075   2.811   3.725   0.484 -1.2659 -1.9046  1.1257
  410MOL0     H54076   2.852   3.531   0.333  2.0711  0.0017 -0.6438
  410MOL0     H54077   2.829   3.478   0.502 -1.2787 -0.7735  1.1546
  410MOL0     H54078   3.092   3.519   0.343  4.0079  1.8325  3.6150
  410MOL0     H54079   3.092   3.462   0.511 -0.8260 -1.4252  0.4739
  410MOL0     H54080   3.132   3.278   0.371 -0.5884  0.5334 -1.2849
  410MOL0     H54081   2.985   3.306   0.270 -0.0940 -0.4957 -0.2435
  410MOL0     H54082   2.999   3.070   0.262  1.2714 -1.4721  0.4957
  410MOL0     H54083   2.837   2.943   0.151  0.1849  3.3565 -1.5058
  410MOL0     H54084   2.658   2.723  -0.080  0.7130  0.6366  3.1305
  410MOL0     H54085   2.553   2.524  -0.190  0.8378 -0.3061  0.8973
  410MOL0     H54086   2.455   2.263  -0.198 -0.5569 -2.5837  0.4878
  410MOL0     H54087   2.377   2.398  -0.286  1.1959  0.2262  0.3291
  410MOL0     H54088   2.152   2.291  -0.226  0.6434  0.8237  2.2642
  410MOL0     H54089   2.238   2.153  -0.163  0.4588  0.4034  0.7062
  410MOL0     H54090   2.360   2.143  -0.389 -1.3370 -2.1757 -0.7052
  410MOL0     H54091   2.233   2.267  -0.432  0.0553 -1.6407 -2.8130
  410MOL0     H54092   2.197   1.984  -0.342 -0.5617 -0.4404 -0.8649
  410MOL0     H54093   2.062   2.091  -0.379 -1.7854 -1.9477 -4.0345
  410MOL0     H54094   2.277   1.998  -0.565 -0.0644  1.6663  2.2784
  410MOL0     H54095   2.138   2.092  -0.624  0.9450 -1.1921 -2.0976
  410MOL0     H54096   1.978   1.902  -0.556 -0.6905 -1.5260  1.2379
  410MOL0     H54097   2.110   1.812  -0.492  1.4060  1.5806  0.8189
  410MOL0     H54098   2.229   1.792  -0.704 -0.3832 -2.2553 -0.1082
  410MOL0     H54099   2.061   1.729  -0.727 -0.2774 -0.1615  0.2314
  410MOL0     H54100   2.148   2.004  -0.813  0.4575  0.4509  0.8030
  410MOL0     H54101   1.987   1.913  -0.828  0.6541 -2.3615  0.7840
  410MOL0     H54102   2.283   2.506   0.144  0.9094  2.3497  1.5684
  410MOL0     H54103   2.384   2.704   0.231  0.5973  2.2752  0.1596
  410MOL0     H54104   2.525   3.100   0.413  0.4523 -1.9289  2.4110
  410MOL0     H54105   2.696   3.201   0.544  1.1170 -1.8149  1.9997
  410MOL0     H54106   3.423   3.522   1.756  2.0058 -3.2933  1.0737
  410MOL0     H54107   3.434   3.261   1.734 -0.0799  0.4223  2.7180
  410MOL0     H54108   3.104   2.969   1.487  2.0502  1.5083 -0.2708
  410MOL0     H54109   3.056   2.757   1.361 -0.7353 -0.6051  0.4576
  410MOL0     H54110   3.130   2.411   1.258 -2.3320 -0.0506 -1.0573
  410MOL0     H54111   3.046   2.559   1.263 -1.0497 -0.4901  0.5475
  410MOL0     H54112   2.960   2.521   1.486 -1.3301 -0.5293 -0.2018
  410MOL0     H54113   2.953   2.369   1.408 -0.3999  0.4229 -0.4872
  410MOL0     H54114   3.201   2.432   1.587  0.2721 -0.2144 -2.9769
  410MOL0     H54115   3.178   2.288   1.523  3.2723  0.8820 -0.3736
  410MOL0     H54116   2.955   2.250   1.643 -0.8851 -0.5555  1.4175
  410MOL0     H54117   3.107   2.256   1.740  1.1761 -1.2302 -2.5163
  410MOL0     H54118   2.813   2.552   1.853 -0.7313 -0.7916 -0.8327
  410MOL0     H54119   3.452   2.624   1.482 -0.5114 -2.0017  1.5767
  410MOL0     H54120   3.495   2.821   1.583  0.6141  0.7452 -1.5833
  411MOL0     O54121   6.514   6.459   8.451  0.3608 -0.5951  0.8191
  411MOL0     C54122   6.532   6.581   8.455  1.0322 -0.0557 -0.8191
  411MOL0     O54123   6.627   6.656   8.523  1.1235  0.0088 -0.0237
  411MOL0     C54124   6.743   6.610   8.573  0.7976  0.5202  0.1135
  411MOL0     C54125   6.791   6.476   8.579 -0.9094  1.4198  0.4108
  411MOL0     C54126   6.906   6.447   8.661 -0.2880  0.1591 -0.9479
  411MOL0     C54127   6.983   6.556   8.716  0.6512 -0.4134  0.8904
  411MOL0     O54128   7.103   6.552   8.792 -0.7617 -0.3466  0.5125
  411MOL0     C54129   7.072   6.514   8.922  0.5039  0.7925 -0.9679
  411MOL0     C54130   7.204   6.459   8.982 -0.1795  0.2465 -0.3479
  411MOL0     C54131   7.170   6.425   9.132 -0.1214 -1.0783  0.6428
  411MOL0     C54132   7.282   6.358   9.194 -0.1756 -0.3960 -0.3720
  411MOL0     C54133   7.286   6.409   9.343  0.2853  0.0323 -0.1617
  411MOL0     C54134   7.369   6.305   9.435  0.8148 -0.4636 -0.1543
  411MOL0     C54135   7.516   6.320   9.416 -0.4378 -0.0039  0.4384
  411MOL0     C54136   7.588   6.213   9.502 -0.3038 -0.0266  0.2262
  411MOL0     N54137   7.713   6.259   9.570 -0.2335 -0.1273 -0.0872
  411MOL0     C54138   7.782   6.185   9.656  1.0613 -0.1110 -0.3711
  411MOL0     C54139   7.889   6.256   9.694 -0.1814 -0.4549  0.3013
  411MOL0     C54140   7.999   6.213   9.783 -0.1198 -0.7300  0.0037
  411MOL0     C54141   7.965   6.212   9.934 -0.3142  0.6903 -1.0608
  411MOL0     C54142   7.894   6.079   9.974 -0.1824  0.3102  0.5056
  411MOL0     C54143   7.986   5.958   9.962 -0.0069  0.0033 -0.4480
  411MOL0     O54144   8.095   5.947  10.062  0.3364  0.4408 -0.0162
  411MOL0     C54145   8.138   5.823  10.115 -0.9407 -1.1824 -0.3027
  411MOL0     C54146   8.202   5.821  10.245 -0.5858  0.6041 -0.5125
  411MOL0     C54147   8.213   5.702  10.313 -0.0523  0.0170 -1.0420
  411MOL0     C54148   8.169   5.569  10.261  0.0407  0.3369  0.5070
  411MOL0     C54149   8.194   5.443  10.340 -0.8997 -0.1316 -0.2587
  411MOL0     O54150   8.206   5.328  10.278 -0.1071 -0.2115 -0.3113
  411MOL0     C54151   8.232   5.208  10.345 -0.9545 -0.1710  0.0776
  411MOL0     C54152   8.331   5.195  10.440  0.3504  0.5181  0.4820
  411MOL0     C54153   8.332   5.086  10.525  0.8322 -0.8430  0.2782
  411MOL0     C54154   8.226   4.998  10.538 -0.3424 -0.9121  0.0005
  411MOL0     O54155   8.225   4.899  10.628  0.1246 -0.0219 -0.6139
  411MOL0     C54156   8.313   4.804  10.583 -1.2969 -0.1161  0.8280
  411MOL0     C54157   8.293   4.696  10.683 -0.9140  0.1009 -1.2214
  411MOL0     C54158   8.381   4.730  10.811 -0.3556 -0.4500 -0.5099
  411MOL0     C54159   8.421   4.606  10.886 -0.6003 -1.5604 -0.2994
  411MOL0     C54160   8.513   4.624  11.013 -0.0179 -0.0892 -0.5758
  411MOL0     C54161   8.457   4.713  11.122  0.9278  0.0099  0.0023
  411MOL0     C54162   8.319   4.671  11.184 -0.2303 -0.8718  0.6231
  411MOL0     C54163   8.332   4.547  11.254 -0.1246  0.0895  0.1618
  411MOL0    Cl54164   8.472   4.555  11.367  0.1793  0.4608  0.4381
  411MOL0     C54165   8.107   5.031  10.461  0.1895  0.2704 -0.0455
  411MOL0     C54166   8.120   5.120  10.363 -0.3363  0.1494 -0.0257
  411MOL0     O54167   8.189   5.452  10.466  0.7074 -0.3385 -0.5025
  411MOL0     C54168   8.117   5.579  10.133  0.7479  0.2391 -1.5771
  411MOL0     C54169   8.113   5.697  10.064 -0.8509 -0.8343  0.5543
  411MOL0     N54170   7.897   6.374   9.609 -0.0918  0.1008 -0.4875
  411MOL0     N54171   7.781   6.377   9.544  0.2208  0.6959 -0.1500
  411MOL0     C54172   6.931   6.684   8.700  1.1118  0.2646 -0.5892
  411MOL0     C54173   6.811   6.709   8.631  0.0074  0.6820 -0.4510
  411MOL0     C54174   6.430   6.670   8.387  0.6274 -0.0991 -0.1851
  411MOL0     C54175   6.342   6.610   8.299 -0.3113  0.4712  0.5616
  411MOL0     C54176   6.238   6.693   8.236 -0.1585  0.3111 -0.0720
  411MOL0     C54177   6.233   6.825   8.268  0.6575 -0.3046  0.4996
  411MOL0     O54178   6.145   6.917   8.217 -0.8772 -0.9961  0.0190
  411MOL0     C54179   6.028   6.879   8.137 -0.1960  0.3347  0.0365
  411MOL0     C54180   5.967   6.997   8.075  0.4962 -0.5413  1.0511
  411MOL0     C54181   6.053   7.046   7.967  0.1895  0.6154 -1.2905
  411MOL0     C54182   6.056   6.965   7.833 -0.0325 -0.4651 -0.7880
  411MOL0     C54183   5.918   6.944   7.778 -0.8461  0.3816  0.3740
  411MOL0     C54184   5.809   6.962   7.732 -0.0002 -0.0714 -0.2564
  411MOL0     C54185   6.317   6.880   8.357  0.2956  0.9040 -0.5895
  411MOL0     C54186   6.417   6.807   8.413  0.0967  0.6090 -0.2664
  411MOL0     H54187   6.744   6.391   8.531 -0.4619  0.8038  1.0446
  411MOL0     H54188   6.946   6.348   8.675  1.6575  1.0905  0.4732
  411MOL0     H54189   6.982   6.452   8.925 -1.6436  3.5818 -2.7220
  411MOL0     H54190   7.061   6.611   8.971  0.6142 -0.1763  1.0478
  411MOL0     H54191   7.287   6.529   8.970 -1.7324  1.8142 -3.1091
  411MOL0     H54192   7.224   6.359   8.941 -2.7874 -1.8865  3.0051
  411MOL0     H54193   7.086   6.356   9.128 -1.4372  0.3251  2.4500
  411MOL0     H54194   7.147   6.523   9.175  2.3660 -0.6767  1.2077
  411MOL0     H54195   7.273   6.250   9.190 -0.0014 -0.7506  3.8580
  411MOL0     H54196   7.377   6.382   9.147 -0.2212  2.3201  0.6865
  411MOL0     H54197   7.185   6.406   9.386  1.1703  0.2415  2.0871
  411MOL0     H54198   7.319   6.512   9.331  2.0799 -0.7032 -2.0470
  411MOL0     H54199   7.340   6.201   9.417  2.1514 -1.5020  2.9945
  411MOL0     H54200   7.349   6.317   9.541  0.2771  0.0896 -0.3111
  411MOL0     H54201   7.548   6.307   9.313  1.5783 -1.5695  1.2031
  411MOL0     H54202   7.547   6.421   9.444  4.1916 -1.1713  0.2205
  411MOL0     H54203   7.603   6.133   9.430  0.2618  1.1899 -1.0648
  411MOL0     H54204   7.518   6.178   9.579 -1.5841 -0.4123 -1.0599
  411MOL0     H54205   7.752   6.091   9.701  0.0837 -1.2866 -3.2500
  411MOL0     H54206   8.075   6.292   9.785 -0.4290 -0.4367  1.7860
  411MOL0     H54207   8.038   6.116   9.751  0.1047 -1.0526  1.1988
  411MOL0     H54208   7.888   6.285   9.961 -0.6096  0.5203 -1.4257
  411MOL0     H54209   8.049   6.222  10.003 -0.1267 -3.3661 -0.4229
  411MOL0     H54210   7.856   6.090  10.077  2.3849 -0.3150  1.5950
  411MOL0     H54211   7.810   6.060   9.906  1.8348 -1.7509 -1.5921
  411MOL0     H54212   8.034   5.952   9.864 -0.3507  0.1436 -0.6251
  411MOL0     H54213   7.914   5.877   9.965 -1.7601  1.5160 -0.0065
  411MOL0     H54214   8.240   5.914  10.288 -1.6383  0.5968  0.4748
  411MOL0     H54215   8.263   5.706  10.410  0.8921  3.2789 -1.5399
  411MOL0     H54216   8.413   5.265  10.447  1.0934 -0.3484  0.6879
  411MOL0     H54217   8.410   5.057  10.594 -1.1844 -0.7600  2.7590
  411MOL0     H54218   8.414   4.842  10.564 -1.3906  1.6481  3.3464
  411MOL0     H54219   8.269   4.777  10.487  0.0866 -1.8246  0.6255
  411MOL0     H54220   8.331   4.603  10.641 -0.6520  0.3234 -1.4778
  411MOL0     H54221   8.188   4.686  10.711 -0.7832  0.9578 -0.3472
  411MOL0     H54222   8.325   4.797  10.877 -1.7812  0.9993 -3.0108
  411MOL0     H54223   8.477   4.770  10.777 -0.3193 -1.5251 -1.7696
  411MOL0     H54224   8.333   4.552  10.923  0.0466 -2.5630 -0.2125
  411MOL0     H54225   8.489   4.543  10.829  2.4645  0.5447  0.7934
  411MOL0     H54226   8.607   4.673  10.988 -0.4610  2.7998  2.7337
  411MOL0     H54227   8.530   4.520  11.042  0.3210 -1.1802 -4.1795
  411MOL0     H54228   8.446   4.812  11.078 -3.6650 -1.7346 -3.6105
  411MOL0     H54229   8.534   4.732  11.198  2.0333  4.3864 -1.8884
  411MOL0     H54230   8.283   4.754  11.245 -1.8965 -1.1864  0.1250
  411MOL0     H54231   8.248   4.656  11.102 -0.0401 -2.8587  0.7966
  411MOL0     H54232   8.341   4.460  11.188  0.3015 -1.8679  2.6254
  411MOL0     H54233   8.239   4.542  11.312  2.0543  0.1333  3.9474
  411MOL0     H54234   8.020   4.966  10.472 -0.8808  1.8020  0.8459
  411MOL0     H54235   8.037   5.136  10.294  0.3760  2.4938 -0.4408
  411MOL0     H54236   8.098   5.487  10.078  0.2270  0.0072 -1.0151
  411MOL0     H54237   8.075   5.692   9.963  2.0713  1.3732 -0.8111
  411MOL0     H54238   6.973   6.778   8.733 -0.3894  0.9991 -0.6933
  411MOL0     H54239   6.771   6.808   8.609  1.8259  1.2096 -1.6284
  411MOL0     H54240   6.339   6.504   8.275  0.8866  0.5281  0.0915
  411MOL0     H54241   6.168   6.658   8.160  0.4932 -2.3107  0.4529
  411MOL0     H54242   5.964   6.834   8.214  2.0297  0.9557  2.3592
  411MOL0     H54243   6.059   6.802   8.065 -0.6519 -0.2784  0.4840
  411MOL0     H54244   5.873   6.974   8.024 -1.3718  4.3330  1.7290
  411MOL0     H54245   5.960   7.081   8.145 -0.5698  2.5140 -2.3732
  411MOL0     H54246   6.149   7.069   8.015 -0.1110 -1.3813  0.4227
  411MOL0     H54247   6.017   7.146   7.941 -0.2155  1.6712  2.6649
  411MOL0     H54248   6.110   7.026   7.761 -0.1374 -2.0429 -2.2651
  411MOL0     H54249   6.108   6.869   7.842  0.3028 -0.2680 -0.5927
  411MOL0     H54250   5.711   6.976   7.690 -0.7782 -1.1932  1.1035
  411MOL0     H54251   6.286   6.981   8.383 -1.9540  0.4893 -1.4928
  411MOL0     H54252   6.476   6.843   8.498  2.4756 -3.1678 -0.0658
  412MOL0     O54253   5.791   3.653   0.593  0.1769  0.5778  0.8554
  412MOL0     C54254   5.661   3.663   0.591 -0.6580  0.0795  0.5797
  412MOL0     O54255   5.571   3.606   0.681 -0.0761 -0.2567  0.4146
  412MOL0     C54256   5.611   3.521   0.778 -0.5602  0.9156 -0.1446
  412MOL0     C54257   5.559   3.527   0.906  0.6071  0.2371  0.0207
  412MOL0     C54258   5.598   3.438   1.002 -1.0926 -0.7153  1.1795
  412MOL0     C54259   5.698   3.350   0.990  0.6542 -0.7223  0.0640
  412MOL0     O54260   5.724   3.259   1.090  0.4551  0.5772  0.2350
  412MOL0     C54261   5.865   3.242   1.126 -1.1587 -0.1572  0.6479
  412MOL0     C54262   5.896   3.343   1.234 -0.3102  0.2909 -0.6209
  412MOL0     C54263   5.832   3.328   1.380 -0.6468 -0.0716  0.0511
  412MOL0     C54264   5.860   3.443   1.467  0.3256 -0.0215  0.8089
  412MOL0     C54265   5.778   3.571   1.432 -0.2380  0.6002  0.9132
  412MOL0     C54266   5.798   3.699   1.516 -0.4534 -0.3310  0.3241
  412MOL0     C54267   5.938   3.734   1.555 -1.2303 -0.5901  0.1692
  412MOL0     C54268   5.940   3.831   1.677 -0.1358  0.0878 -0.0365
  412MOL0     N54269   6.074   3.839   1.735 -0.8242 -0.2046 -0.9991
  412MOL0     C54270   6.114   3.916   1.849  0.1318 -0.1226 -0.2707
  412MOL0     C54271   6.247   3.897   1.878  0.6542  0.2841 -0.2487
  412MOL0     C54272   6.328   3.995   1.959  0.6957 -0.0624 -0.7388
  412MOL0     C54273   6.408   4.096   1.868 -0.8140  1.0778 -0.9040
  412MOL0     C54274   6.347   4.164   1.745 -0.7226  0.0347 -0.5528
  412MOL0     C54275   6.425   4.291   1.687 -0.4256  0.7110 -0.4049
  412MOL0     O54276   6.569   4.267   1.671 -0.2850 -0.1645  0.7596
  412MOL0     C54277   6.631   4.367   1.607  0.0042 -0.2058 -0.0141
  412MOL0     C54278   6.575   4.485   1.561 -0.3228  1.0228  0.0101
  412MOL0     C54279   6.667   4.573   1.497  1.2458  0.6518 -0.2848
  412MOL0     C54280   6.810   4.563   1.500 -0.5375  0.5103  0.0062
  412MOL0     C54281   6.886   4.683   1.473  0.6915  0.0637 -0.5056
  412MOL0     O54282   6.827   4.796   1.494 -0.0165 -0.4019  1.1098
  412MOL0     C54283   6.850   4.915   1.418 -0.7421  0.3689  0.2573
  412MOL0     C54284   6.917   4.918   1.299  0.1623 -0.6902  0.6592
  412MOL0     C54285   6.948   5.046   1.239  0.8997  0.5657  0.2381
  412MOL0     C54286   6.916   5.164   1.304 -0.4096  0.5849 -0.5311
  412MOL0     O54287   6.982   5.277   1.257  0.5152  0.4880 -0.2885
  412MOL0     C54288   6.983   5.404   1.338 -0.8182 -0.9611 -0.9146
  412MOL0     C54289   7.092   5.506   1.289 -0.0801  0.6842 -0.9233
  412MOL0     C54290   7.034   5.602   1.190 -0.0776  0.0911 -0.5745
  412MOL0     C54291   7.151   5.676   1.129  0.5553 -0.6954  0.4013
  412MOL0     C54292   7.098   5.773   1.036  0.2046 -0.2420  0.6143
  412MOL0     C54293   7.187   5.857   0.951 -0.0119 -1.1515 -0.0485
  412MOL0     C54294   7.266   5.785   0.841 -0.6721 -0.0922 -0.5214
  412MOL0     C54295   7.360   5.888   0.773  0.3726  1.3539 -0.3474
  412MOL0    Cl54296   7.526   5.900   0.828  0.1043 -0.2293 -0.2859
  412MOL0     C54297   6.847   5.160   1.424 -0.7898  0.2967  0.6412
  412MOL0     C54298   6.815   5.035   1.481 -0.7145  0.5084  0.3441
  412MOL0     O54299   6.999   4.668   1.424 -0.4609 -0.2713  0.5288
  412MOL0     C54300   6.865   4.443   1.557 -0.2020 -0.8632 -0.5055
  412MOL0     C54301   6.771   4.348   1.601  0.8181  0.3707 -0.1229
  412MOL0     N54302   6.291   3.813   1.774  0.5290 -0.1633 -0.1255
  412MOL0     N54303   6.190   3.773   1.701  0.4836  0.0103  0.4855
  412MOL0     C54304   5.770   3.351   0.870 -0.6357 -0.5984  0.0567
  412MOL0     C54305   5.721   3.427   0.760  0.1207  0.3866  0.6255
  412MOL0     C54306   5.612   3.736   0.481  1.3917  0.6550  0.5900
  412MOL0     C54307   5.627   3.681   0.349  0.0341 -0.3461 -0.4133
  412MOL0     C54308   5.571   3.740   0.244  0.3778  0.0789 -0.5562
  412MOL0     C54309   5.501   3.854   0.256  1.2943  0.3465  0.1836
  412MOL0     O54310   5.428   3.887   0.143  0.0309  0.3507  0.7673
  412MOL0     C54311   5.367   4.011   0.116 -0.4302  0.1120 -0.5051
  412MOL0     C54312   5.289   3.997  -0.017 -0.1479 -0.0508  0.6713
  412MOL0     C54313   5.383   3.980  -0.142  0.1977  0.4164  0.9867
  412MOL0     C54314   5.311   4.058  -0.261 -0.4508  1.1155  0.0198
  412MOL0     C54315   5.383   4.183  -0.289 -0.0325  0.0651 -0.8816
  412MOL0     C54316   5.432   4.286  -0.339  1.0908  0.6565 -0.4563
  412MOL0     C54317   5.479   3.906   0.390  0.7195 -1.1919  0.0499
  412MOL0     C54318   5.540   3.853   0.504 -0.6316  0.0488  0.3498
  412MOL0     H54319   5.469   3.585   0.924 -0.0211 -0.7194  0.0193
  412MOL0     H54320   5.551   3.436   1.100  0.4873  0.5977  2.0232
  412MOL0     H54321   5.935   3.249   1.043  0.4568 -2.2197  1.7518
  412MOL0     H54322   5.886   3.142   1.165 -0.5710 -0.6192 -0.8120
  412MOL0     H54323   5.870   3.440   1.192  2.7666  1.1837 -0.7305
  412MOL0     H54324   6.005   3.346   1.248 -0.2516  0.4664 -1.0980
  412MOL0     H54325   5.869   3.240   1.433 -2.4347  0.7910  3.0034
  412MOL0     H54326   5.723   3.321   1.368 -0.4056 -1.7822 -1.6204
  412MOL0     H54327   5.830   3.412   1.567 -1.0405 -0.7392  0.2019
  412MOL0     H54328   5.966   3.469   1.472  0.0963  0.8966  1.1009
  412MOL0     H54329   5.674   3.538   1.430  0.6785 -2.6725  1.1787
  412MOL0     H54330   5.811   3.596   1.331 -0.8445 -0.3036  0.4811
  412MOL0     H54331   5.731   3.703   1.603 -0.3443 -0.3583  0.4085
  412MOL0     H54332   5.755   3.774   1.449  2.2833  1.2813  0.2255
  412MOL0     H54333   5.997   3.646   1.581 -3.0175 -2.3336 -1.4131
  412MOL0     H54334   5.994   3.787   1.477 -2.3466  0.6699  0.1856
  412MOL0     H54335   5.860   3.793   1.741 -1.6559  1.0628 -1.2858
  412MOL0     H54336   5.909   3.933   1.649 -3.2368 -0.2864  1.5456
  412MOL0     H54337   6.041   3.985   1.891  2.8884  2.1637  1.1189
  412MOL0     H54338   6.401   3.940   2.019  1.4125  1.6234 -0.0165
  412MOL0     H54339   6.262   4.053   2.024  1.0711  0.5146 -0.8662
  412MOL0     H54340   6.482   4.028   1.825  0.9778  0.7486  2.4295
  412MOL0     H54341   6.442   4.171   1.939 -1.8090  1.3472 -0.6932
  412MOL0     H54342   6.365   4.101   1.657  2.2202 -1.4014  0.9056
  412MOL0     H54343   6.241   4.180   1.766 -0.8520 -1.3717 -0.0010
  412MOL0     H54344   6.398   4.371   1.757  0.1893 -0.5314  1.3133
  412MOL0     H54345   6.387   4.309   1.586  1.9211  2.1507 -1.1215
  412MOL0     H54346   6.469   4.504   1.546 -0.6221 -1.4815 -1.5951
  412MOL0     H54347   6.633   4.666   1.452 -1.1165 -0.7653 -1.6170
  412MOL0     H54348   6.915   4.820   1.254 -3.0282 -1.3235  1.9522
  412MOL0     H54349   6.996   5.038   1.142 -0.5685 -3.9268 -0.3621
  412MOL0     H54350   7.016   5.374   1.438  0.0557 -1.4082 -1.3197
  412MOL0     H54351   6.882   5.445   1.337 -1.4549 -2.4628 -1.1838
  412MOL0     H54352   7.177   5.448   1.253 -1.9503 -4.2775  1.7645
  412MOL0     H54353   7.135   5.563   1.372  3.1554 -1.0038 -1.2957
  412MOL0     H54354   6.968   5.671   1.244  0.7815  0.3299  0.1782
  412MOL0     H54355   6.983   5.538   1.117 -1.1732 -0.0287  0.2683
  412MOL0     H54356   7.209   5.725   1.208  0.0015 -0.0081  0.3859
  412MOL0     H54357   7.227   5.608   1.087  2.1667  1.6247 -0.6731
  412MOL0     H54358   7.032   5.838   1.093 -2.3702 -2.3626  0.2392
  412MOL0     H54359   7.036   5.736   0.954 -0.1574  3.5772 -1.0379
  412MOL0     H54360   7.258   5.908   1.016  0.0232 -0.3286 -0.7084
  412MOL0     H54361   7.129   5.941   0.909  1.3645  0.7033  1.5620
  412MOL0     H54362   7.317   5.701   0.890 -1.3662 -0.0382  0.3174
  412MOL0     H54363   7.203   5.734   0.767  1.1582 -2.2102 -0.7330
  412MOL0     H54364   7.311   5.984   0.758  0.1709  1.1211 -1.2336
  412MOL0     H54365   7.365   5.842   0.674 -0.3655  0.9113 -0.1923
  412MOL0     H54366   6.853   5.248   1.487  2.1117  0.5098  0.1941
  412MOL0     H54367   6.780   5.031   1.584 -0.3724 -1.1116  0.4252
  412MOL0     H54368   6.971   4.440   1.577  0.3590  2.6991 -2.2214
  412MOL0     H54369   6.814   4.255   1.636 -0.0704 -0.0998 -0.2566
  412MOL0     H54370   5.854   3.283   0.860  1.4960  1.8561  0.2188
  412MOL0     H54371   5.770   3.421   0.664 -1.0156  1.2098 -0.0268
  412MOL0     H54372   5.675   3.589   0.317  0.8112  0.3522 -1.2876
  412MOL0     H54373   5.573   3.696   0.144  0.6448  2.2650 -1.5739
  412MOL0     H54374   5.441   4.086   0.087 -0.8657  0.4624 -0.7310
  412MOL0     H54375   5.306   4.052   0.197 -2.3041  0.7958 -2.1688
  412MOL0     H54376   5.222   3.912  -0.005 -0.7051  0.0075 -1.6229
  412MOL0     H54377   5.223   4.084  -0.026  0.8053  0.4371 -3.5632
  412MOL0     H54378   5.401   3.875  -0.167  2.0793  0.6390  1.2142
  412MOL0     H54379   5.480   4.029  -0.125  1.6630 -2.5297  1.8240
  412MOL0     H54380   5.320   4.001  -0.354 -0.9638  1.5036 -0.2732
  412MOL0     H54381   5.204   4.075  -0.249 -1.2665 -2.6406 -0.6463
  412MOL0     H54382   5.482   4.374  -0.374  0.6398  0.9523 -0.3596
  412MOL0     H54383   5.395   3.974   0.399  2.1412  0.4509  1.7151
  412MOL0     H54384   5.517   3.899   0.600 -2.8691 -0.8177  0.2979
  413MOL0     O54385   5.413   4.202   6.597 -0.5479  0.2499 -0.0381
  413MOL0     C54386   5.457   4.130   6.679  0.3652  0.3079 -0.5979
  413MOL0     O54387   5.400   4.004   6.728 -0.5556 -0.7611  0.5199
  413MOL0     C54388   5.281   3.970   6.657 -0.8446  0.6193 -0.4319
  413MOL0     C54389   5.159   3.951   6.722 -0.5765  0.0599 -0.4078
  413MOL0     C54390   5.048   3.909   6.652  0.6871 -0.0833  0.4794
  413MOL0     C54391   5.054   3.892   6.512 -0.6814  0.6281  0.3208
  413MOL0     O54392   4.958   3.836   6.433  0.2877  0.0001  0.4580
  413MOL0     C54393   4.826   3.836   6.487  0.2713 -0.7333  0.2570
  413MOL0     C54394   4.693   3.812   6.402 -1.1137 -0.2507 -0.9057
  413MOL0     C54395   4.716   3.678   6.324 -0.5269 -0.2057  0.0469
  413MOL0     C54396   4.582   3.649   6.267  0.0482  1.1115  0.2560
  413MOL0     C54397   4.592   3.566   6.136  0.3020 -0.8957 -0.6249
  413MOL0     C54398   4.628   3.425   6.176 -0.7750 -0.2717  0.1920
  413MOL0     C54399   4.610   3.314   6.075  0.3488  0.4453  0.2577
  413MOL0     C54400   4.473   3.296   6.021  0.5122  1.4253  0.8390
  413MOL0     N54401   4.365   3.325   6.109 -0.6993 -0.0380 -0.9069
  413MOL0     C54402   4.347   3.265   6.222 -0.1169 -0.4011  0.3859
  413MOL0     C54403   4.237   3.318   6.276  1.0662 -0.0126  0.0121
  413MOL0     C54404   4.175   3.269   6.408  0.2785 -0.9007 -0.2217
  413MOL0     C54405   4.101   3.144   6.395  0.1582 -0.0467  0.3171
  413MOL0     C54406   4.175   3.023   6.327  0.1952  0.5314 -0.3399
  413MOL0     C54407   4.104   2.890   6.346  0.2273  0.5996  0.0742
  413MOL0     O54408   3.986   2.893   6.264 -0.9973 -0.0635  0.1698
  413MOL0     C54409   3.862   2.930   6.312 -0.2806  0.3192 -1.1948
  413MOL0     C54410   3.806   2.890   6.437 -0.2103 -0.3901 -0.3562
  413MOL0     C54411   3.671   2.908   6.461  0.3190  0.4779  0.3090
  413MOL0     C54412   3.589   2.974   6.375 -1.5261  0.1482 -0.0963
  413MOL0     C54413   3.454   3.011   6.408  0.7448 -0.0039  0.5363
  413MOL0     O54414   3.380   3.090   6.316  0.1296  0.0958  0.5516
  413MOL0     C54415   3.246   3.110   6.322  0.0416  0.8795 -0.1802
  413MOL0     C54416   3.146   3.046   6.394 -0.2348  0.8853 -0.4777
  413MOL0     C54417   3.007   3.090   6.390 -0.1380 -0.6117  0.2541
  413MOL0     C54418   2.976   3.187   6.293  0.9613  1.1426 -0.0920
  413MOL0     O54419   2.839   3.214   6.274 -0.6131  0.5989  0.9769
  413MOL0     C54420   2.810   3.325   6.189  0.0492  0.6831  0.4909
  413MOL0     C54421   2.666   3.337   6.191  0.0166  0.7435  0.4684
  413MOL0     C54422   2.610   3.470   6.148  0.8786  0.4561  0.3092
  413MOL0     C54423   2.465   3.478   6.185 -0.6273  0.0926 -0.5443
  413MOL0     C54424   2.414   3.623   6.159  0.2606 -0.8994  0.6091
  413MOL0     C54425   2.260   3.623   6.170  0.3023 -0.3224 -0.4748
  413MOL0     C54426   2.187   3.725   6.092  0.0912 -0.3249 -0.3574
  413MOL0     C54427   2.032   3.711   6.109  0.3165  0.3461  0.0988
  413MOL0    Cl54428   1.991   3.743   6.281 -0.1449  0.0171  0.1780
  413MOL0     C54429   3.074   3.252   6.225  0.2019 -0.9986  1.0955
  413MOL0     C54430   3.202   3.216   6.244 -0.7562  0.0786 -0.1873
  413MOL0     O54431   3.405   2.952   6.508  0.3808 -0.7493 -0.3637
  413MOL0     C54432   3.643   3.018   6.251  0.1203 -0.5883 -0.6949
  413MOL0     C54433   3.780   2.993   6.222 -0.1317 -0.6996 -1.0496
  413MOL0     N54434   4.183   3.413   6.191 -0.5471  0.0432  0.0582
  413MOL0     N54435   4.263   3.420   6.095  0.0897 -0.6156 -0.3199
  413MOL0     C54436   5.181   3.894   6.448 -0.0833 -0.0938  1.2422
  413MOL0     C54437   5.288   3.937   6.523  1.1232 -0.2964  1.1748
  413MOL0     C54438   5.588   4.162   6.753 -0.3630  0.0972  0.1117
  413MOL0     C54439   5.638   4.083   6.859  0.3476  1.4109  0.1980
  413MOL0     C54440   5.757   4.111   6.917  0.0052  0.4254  0.0700
  413MOL0     C54441   5.836   4.218   6.870 -0.7810 -0.1445 -0.1794
  413MOL0     O54442   5.963   4.247   6.918  0.5917 -0.1571  0.8426
  413MOL0     C54443   5.959   4.338   7.032 -0.7474  0.1368  0.7004
  413MOL0     C54444   6.061   4.287   7.137  0.7746 -0.5450  0.4153
  413MOL0     C54445   6.212   4.321   7.099 -0.6022 -0.7507  0.5146
  413MOL0     C54446   6.311   4.249   7.196 -0.8839 -0.4193 -0.2693
  413MOL0     C54447   6.284   4.294   7.334  0.5187  1.0489 -0.6478
  413MOL0     C54448   6.273   4.318   7.450  0.3242  0.5025 -1.3580
  413MOL0     C54449   5.783   4.300   6.767 -0.0502  0.4353  0.1087
  413MOL0     C54450   5.658   4.274   6.709 -0.7303  0.3664 -0.4827
  413MOL0     H54451   5.161   3.955   6.830  2.1630 -1.1563 -0.3294
  413MOL0     H54452   4.960   3.894   6.714  0.0258  0.1411 -0.3795
  413MOL0     H54453   4.818   3.937   6.528  1.3708 -0.8299  0.7373
  413MOL0     H54454   4.837   3.774   6.576  0.7011 -1.9010 -0.5857
  413MOL0     H54455   4.660   3.903   6.350  1.8131  2.6468  1.8903
  413MOL0     H54456   4.610   3.792   6.470 -0.6057  2.4821  0.6511
  413MOL0     H54457   4.750   3.597   6.389  1.9759  2.1460  1.9111
  413MOL0     H54458   4.788   3.674   6.242 -1.7840 -2.5626 -1.0400
  413MOL0     H54459   4.518   3.599   6.340 -0.8459 -3.2084 -3.0445
  413MOL0     H54460   4.531   3.737   6.226 -2.0290 -1.7121 -4.0303
  413MOL0     H54461   4.671   3.614   6.079  1.1479 -1.2507  0.2251
  413MOL0     H54462   4.499   3.568   6.078  2.1306 -2.3842 -3.8226
  413MOL0     H54463   4.566   3.403   6.264 -3.6774 -0.0364 -1.6650
  413MOL0     H54464   4.731   3.435   6.211 -0.1182 -0.0034 -1.7253
  413MOL0     H54465   4.675   3.331   5.989  1.7104 -3.1659  0.3881
  413MOL0     H54466   4.653   3.229   6.129 -0.7019  0.9810  2.0246
  413MOL0     H54467   4.478   3.191   5.989  1.4717  2.4818 -2.9684
  413MOL0     H54468   4.464   3.349   5.926 -1.5960  1.8610  1.2307
  413MOL0     H54469   4.404   3.185   6.269  3.2865  2.0211  0.7647
  413MOL0     H54470   4.112   3.345   6.454  1.4436 -0.2246  0.3057
  413MOL0     H54471   4.259   3.261   6.477 -0.6999 -0.1299  1.1185
  413MOL0     H54472   4.008   3.170   6.344 -0.1165  0.1141  0.8928
  413MOL0     H54473   4.059   3.120   6.493 -2.8422  1.5834 -0.4583
  413MOL0     H54474   4.187   3.053   6.223  2.7802  2.9692  0.5261
  413MOL0     H54475   4.276   3.012   6.369 -0.9128 -0.0729  2.4381
  413MOL0     H54476   4.086   2.862   6.450 -1.5702  1.1314 -0.0617
  413MOL0     H54477   4.174   2.817   6.303  2.1915  0.6930  2.8730
  413MOL0     H54478   3.868   2.840   6.511  0.6172  1.1125  0.0212
  413MOL0     H54479   3.620   2.870   6.549  0.7371 -5.1492 -1.4328
  413MOL0     H54480   3.154   2.955   6.453  0.4373  1.6911  0.7301
  413MOL0     H54481   2.933   3.027   6.438  0.8594 -1.4756  0.6740
  413MOL0     H54482   2.842   3.299   6.088  0.1298  0.8113  0.4838
  413MOL0     H54483   2.863   3.413   6.224 -1.0101  1.5725 -0.0816
  413MOL0     H54484   2.634   3.323   6.294  1.9611 -1.0391  0.8928
  413MOL0     H54485   2.623   3.252   6.138  2.4490 -0.8821  0.9484
  413MOL0     H54486   2.627   3.486   6.041 -1.2117 -1.0961 -0.3144
  413MOL0     H54487   2.661   3.553   6.198 -0.9699  1.0190  1.3549
  413MOL0     H54488   2.419   3.406   6.117 -0.5629 -0.0376 -0.4497
  413MOL0     H54489   2.446   3.452   6.289  1.0025  0.4965 -0.1159
  413MOL0     H54490   2.443   3.660   6.060 -1.3173 -2.1683 -0.3969
  413MOL0     H54491   2.457   3.693   6.230 -1.6681  3.4116 -2.0599
  413MOL0     H54492   2.243   3.626   6.278  0.0163 -2.2877 -0.4321
  413MOL0     H54493   2.222   3.522   6.153 -1.0939 -0.1093  1.1256
  413MOL0     H54494   2.217   3.825   6.125  1.3003  0.3498 -3.1584
  413MOL0     H54495   2.220   3.723   5.988 -2.8629 -1.0126 -1.3716
  413MOL0     H54496   2.006   3.610   6.076  1.6187  0.8581 -2.7617
  413MOL0     H54497   1.986   3.791   6.050 -0.7056 -0.5850 -0.4033
  413MOL0     H54498   3.059   3.338   6.160  0.2120 -2.4865 -0.9937
  413MOL0     H54499   3.264   3.274   6.177 -2.6943  0.3498 -1.8362
  413MOL0     H54500   3.564   3.063   6.191 -1.4824 -1.2180  0.8620
  413MOL0     H54501   3.822   3.027   6.127 -1.1729  2.9975 -0.3495
  413MOL0     H54502   5.176   3.853   6.347 -0.6349  0.1928  1.1470
  413MOL0     H54503   5.383   3.949   6.472  1.5618  2.1235  2.4467
  413MOL0     H54504   5.576   3.996   6.880  1.0837  0.8663  0.1559
  413MOL0     H54505   5.797   4.063   7.005 -0.0147  0.0674 -0.1123
  413MOL0     H54506   5.856   4.354   7.065 -1.4901 -0.8259 -1.0129
  413MOL0     H54507   5.989   4.435   6.991  2.9808 -1.8252 -1.7843
  413MOL0     H54508   6.039   4.317   7.240 -1.1025 -3.2470  0.8988
  413MOL0     H54509   6.051   4.178   7.134  2.9637 -0.7723 -1.2986
  413MOL0     H54510   6.229   4.429   7.101 -2.3614 -0.4432  0.2919
  413MOL0     H54511   6.239   4.281   7.000 -0.3465 -0.5375  0.4963
  413MOL0     H54512   6.303   4.140   7.200  1.4622 -0.6317 -0.3849
  413MOL0     H54513   6.410   4.281   7.165 -0.9673  1.1030  0.9291
  413MOL0     H54514   6.255   4.329   7.555  0.4001 -2.4210 -0.9570
  413MOL0     H54515   5.846   4.381   6.731  0.2469  0.1944  0.0807
  413MOL0     H54516   5.627   4.342   6.631 -1.9036  0.4002 -0.0128
  414MOL0     O54517   2.719   3.953   4.500  0.1028  0.5141 -0.9178
  414MOL0     C54518   2.710   3.982   4.384  0.2296  0.4001 -0.2009
  414MOL0     O54519   2.608   3.953   4.304 -0.3883 -0.2751 -0.5158
  414MOL0     C54520   2.505   3.860   4.325  0.5224 -0.1704 -0.6904
  414MOL0     C54521   2.429   3.867   4.446 -0.2167  0.5375 -0.3197
  414MOL0     C54522   2.335   3.774   4.474  1.5020 -0.5656  0.2074
  414MOL0     C54523   2.316   3.660   4.398 -0.6647  0.8680 -0.7224
  414MOL0     O54524   2.221   3.562   4.411  0.1358  0.2601  0.6889
  414MOL0     C54525   2.183   3.516   4.541  0.2279  0.0067 -0.0843
  414MOL0     C54526   2.091   3.402   4.537  0.7638 -0.4522  0.1443
  414MOL0     C54527   1.959   3.423   4.462 -0.7021 -0.5296  0.2048
  414MOL0     C54528   1.838   3.359   4.525 -0.2190 -0.9211  0.3344
  414MOL0     C54529   1.716   3.386   4.430  0.5593  0.3513  0.5802
  414MOL0     C54530   1.716   3.301   4.295 -0.5089  0.4654  0.4502
  414MOL0     C54531   1.631   3.371   4.194  0.3700 -0.1806  0.3193
  414MOL0     C54532   1.474   3.356   4.225  0.4661 -0.4374 -0.3471
  414MOL0     N54533   1.388   3.358   4.101 -0.2723  0.6392  0.2187
  414MOL0     C54534   1.253   3.316   4.085 -0.4309  0.9354  0.1767
  414MOL0     C54535   1.246   3.312   3.945  0.0055  0.0321 -0.4935
  414MOL0     C54536   1.134   3.236   3.878 -0.1917 -0.2602  0.0756
  414MOL0     C54537   1.130   3.272   3.730  0.8509 -1.5928  0.6191
  414MOL0     C54538   0.989   3.287   3.676  0.2894 -0.6456  0.8348
  414MOL0     C54539   0.960   3.203   3.547 -0.3728 -0.4261  0.4326
  414MOL0     O54540   0.977   3.060   3.572  0.1241  0.2624  0.1631
  414MOL0     C54541   0.947   2.971   3.470  0.0770 -0.0225  0.4402
  414MOL0     C54542   0.966   2.839   3.500 -0.3817 -0.7906 -0.8489
  414MOL0     C54543   0.938   2.737   3.420  0.5136  1.1891  0.0107
  414MOL0     C54544   0.910   2.760   3.287 -1.2303 -0.0424 -0.0265
  414MOL0     C54545   0.908   2.644   3.195  0.4163 -0.7707  1.1868
  414MOL0     O54546   0.913   2.511   3.253 -0.3277 -0.8371  0.9286
  414MOL0     C54547   0.879   2.400   3.179  0.7910 -0.8322 -0.0636
  414MOL0     C54548   0.978   2.316   3.124 -0.0882 -0.4069 -0.4032
  414MOL0     C54549   0.947   2.208   3.042  0.2092 -0.7940 -0.2684
  414MOL0     C54550   0.809   2.192   3.018  0.1413  0.0554 -0.8883
  414MOL0     O54551   0.778   2.087   2.938 -0.1102 -0.6635 -0.0039
  414MOL0     C54552   0.726   1.960   3.003  0.1793  0.4895  0.0006
  414MOL0     C54553   0.647   1.865   2.903  0.4306 -0.5832 -0.1284
  414MOL0     C54554   0.715   1.851   2.768 -0.9193  0.2423 -0.4167
  414MOL0     C54555   0.674   1.752   2.664 -0.4704  0.9693  0.2429
  414MOL0     C54556   0.782   1.759   2.555 -0.2709  0.4739 -0.4218
  414MOL0     C54557   0.737   1.683   2.425 -0.1678  0.2712 -0.1153
  414MOL0     C54558   0.708   1.535   2.438 -0.2119  0.5957  0.0865
  414MOL0     C54559   0.822   1.435   2.445 -0.1508 -0.1590  0.5028
  414MOL0    Cl54560   0.910   1.426   2.284 -0.0815  0.0397 -0.0781
  414MOL0     C54561   0.708   2.270   3.077  0.5448 -0.6211  0.6159
  414MOL0     C54562   0.738   2.384   3.151 -0.0640  0.2494 -0.3666
  414MOL0     O54563   0.895   2.674   3.078 -0.2123 -0.3646  0.4265
  414MOL0     C54564   0.897   2.897   3.252 -0.3348  0.0776 -0.3061
  414MOL0     C54565   0.903   2.994   3.341  0.1355  0.0332 -0.0119
  414MOL0     N54566   1.350   3.392   3.895 -0.3004  0.1076 -0.5022
  414MOL0     N54567   1.429   3.415   3.985  0.0794  0.3276 -0.3579
  414MOL0     C54568   2.380   3.657   4.279 -0.3896  0.4243 -0.8794
  414MOL0     C54569   2.472   3.762   4.237  0.5681 -0.3698  0.2935
  414MOL0     C54570   2.810   4.055   4.321  0.1981  0.2850 -0.1154
  414MOL0     C54571   2.801   4.093   4.185  0.0165 -0.1336 -0.0933
  414MOL0     C54572   2.918   4.150   4.130  0.8386 -0.3745 -0.0988
  414MOL0     C54573   3.032   4.170   4.198 -0.2118 -1.0755 -1.2473
  414MOL0     O54574   3.140   4.219   4.124  0.0575 -0.0392 -0.2776
  414MOL0     C54575   3.248   4.281   4.191  0.3356  0.2609 -0.3362
  414MOL0     C54576   3.196   4.415   4.251  0.7476  1.1109  0.3761
  414MOL0     C54577   3.306   4.513   4.282  0.0129 -0.1812 -1.0674
  414MOL0     C54578   3.380   4.474   4.412  0.4129 -0.4596  0.4441
  414MOL0     C54579   3.304   4.503   4.531 -0.5258 -0.1534 -0.3558
  414MOL0     C54580   3.236   4.525   4.629  0.9042 -0.3360  0.4679
  414MOL0     C54581   3.042   4.136   4.335 -0.6461  0.7552 -0.0097
  414MOL0     C54582   2.928   4.087   4.396  1.1054 -0.2606 -0.0747
  414MOL0     H54583   2.438   3.938   4.528 -1.0911 -2.2648  2.3635
  414MOL0     H54584   2.266   3.780   4.557 -0.0115 -0.4855 -1.0085
  414MOL0     H54585   2.140   3.600   4.597  2.0584 -1.2251  3.4584
  414MOL0     H54586   2.278   3.488   4.588  0.0178  0.2547  0.4985
  414MOL0     H54587   2.070   3.372   4.640  0.1642 -2.5997 -0.5321
  414MOL0     H54588   2.139   3.317   4.487 -0.2341 -0.2341 -1.2420
  414MOL0     H54589   1.981   3.398   4.358  2.6524 -2.7274  1.2576
  414MOL0     H54590   1.928   3.527   4.475  0.2921 -0.4313  2.2671
  414MOL0     H54591   1.851   3.251   4.536 -0.6344 -1.0984 -0.7243
  414MOL0     H54592   1.829   3.406   4.623  2.7823  0.7404 -0.0566
  414MOL0     H54593   1.704   3.493   4.416 -2.6318  0.3953  2.6289
  414MOL0     H54594   1.635   3.357   4.498 -1.5227 -0.6617 -2.0990
  414MOL0     H54595   1.682   3.198   4.304 -0.2303  0.1991 -1.2508
  414MOL0     H54596   1.815   3.290   4.250 -1.1645 -3.5714 -0.3820
  414MOL0     H54597   1.657   3.475   4.176 -2.3700 -0.1345 -5.7410
  414MOL0     H54598   1.650   3.322   4.098  0.8629  1.1845 -0.3012
  414MOL0     H54599   1.442   3.433   4.295 -0.0486 -2.6093  1.9526
  414MOL0     H54600   1.456   3.272   4.293 -1.9837  2.4922  3.0083
  414MOL0     H54601   1.193   3.278   4.166  0.4167  1.6739  1.1705
  414MOL0     H54602   1.037   3.263   3.919 -1.5165 -2.6836 -1.2713
  414MOL0     H54603   1.153   3.131   3.901 -2.7589 -0.0623  3.9526
  414MOL0     H54604   1.186   3.208   3.661 -0.1341  0.3068 -2.1315
  414MOL0     H54605   1.171   3.372   3.711 -0.3292 -0.2580  4.2626
  414MOL0     H54606   0.917   3.240   3.744 -3.2310 -0.4877 -2.4482
  414MOL0     H54607   0.974   3.391   3.646  0.1671 -0.9615 -0.2310
  414MOL0     H54608   1.032   3.234   3.471 -2.9615  1.2859 -1.5129
  414MOL0     H54609   0.857   3.224   3.515 -0.2353  0.6519  0.6839
  414MOL0     H54610   1.001   2.824   3.602  2.8472  0.3038 -1.6614
  414MOL0     H54611   0.938   2.631   3.445  0.1260  0.9783 -0.8472
  414MOL0     H54612   1.076   2.348   3.157 -0.0401  2.0729 -2.6372
  414MOL0     H54613   1.015   2.130   3.009  0.4641 -0.1292 -1.3729
  414MOL0     H54614   0.663   2.000   3.083  2.5553  0.7230  1.8651
  414MOL0     H54615   0.809   1.897   3.035  0.6224 -0.2861 -2.4074
  414MOL0     H54616   0.551   1.913   2.884  0.5902 -0.7490 -1.4139
  414MOL0     H54617   0.626   1.762   2.932 -1.1852 -0.0142  0.8948
  414MOL0     H54618   0.819   1.824   2.788 -1.5722 -1.5895  0.7377
  414MOL0     H54619   0.721   1.947   2.716  0.6230 -0.7334 -2.1541
  414MOL0     H54620   0.666   1.647   2.692  0.0046  0.9100  0.1536
  414MOL0     H54621   0.577   1.792   2.632 -1.1992  0.4884  1.7397
  414MOL0     H54622   0.878   1.719   2.589  1.2229  0.6991 -3.9589
  414MOL0     H54623   0.810   1.863   2.534 -3.2953  1.0676 -1.9913
  414MOL0     H54624   0.803   1.714   2.344 -3.3917  3.8846 -1.6339
  414MOL0     H54625   0.644   1.733   2.397  0.3365  1.1363 -0.2559
  414MOL0     H54626   0.638   1.508   2.517 -1.8421 -2.3168 -2.1465
  414MOL0     H54627   0.651   1.513   2.347 -0.6221 -1.6253  0.8410
  414MOL0     H54628   0.775   1.337   2.454  1.8841 -1.3290 -0.8895
  414MOL0     H54629   0.886   1.450   2.533 -0.9613  2.9987  0.6787
  414MOL0     H54630   0.609   2.251   3.038  1.6426 -0.7068 -2.3968
  414MOL0     H54631   0.667   2.458   3.188 -4.4457 -2.0964 -3.1384
  414MOL0     H54632   0.880   2.930   3.149  3.8327  0.3516 -1.0951
  414MOL0     H54633   0.863   3.086   3.299 -0.6502 -0.2322  0.1247
  414MOL0     H54634   2.357   3.576   4.211  1.5568  1.2036 -2.5800
  414MOL0     H54635   2.528   3.753   4.145  0.3609 -0.4268  0.1742
  414MOL0     H54636   2.714   4.083   4.121 -0.6591 -0.8849  0.8966
  414MOL0     H54637   2.910   4.189   4.029 -2.7324  3.1419  1.2641
  414MOL0     H54638   3.319   4.295   4.109  0.4439 -2.4447 -0.7732
  414MOL0     H54639   3.297   4.211   4.258 -0.1310 -0.6244 -0.9032
  414MOL0     H54640   3.123   4.465   4.186 -0.7750 -1.6715 -0.2216
  414MOL0     H54641   3.128   4.389   4.333  2.0629  0.3409  1.2666
  414MOL0     H54642   3.261   4.611   4.304  2.3049  0.5508  0.7412
  414MOL0     H54643   3.374   4.534   4.199  1.0078  0.4563 -0.1243
  414MOL0     H54644   3.404   4.367   4.416  1.4565 -0.2044  2.9496
  414MOL0     H54645   3.477   4.523   4.412 -0.0449  0.4806  0.8935
  414MOL0     H54646   3.178   4.536   4.718 -0.1551 -0.7761 -0.1523
  414MOL0     H54647   3.140   4.152   4.378 -1.3801 -0.7663  2.4174
  414MOL0     H54648   2.929   4.052   4.498 -5.2120 -1.3566  0.0515
  415MOL0     O54649   6.341   8.901   7.810 -0.0156 -0.0128  0.4190
  415MOL0     C54650   6.363   8.838   7.701 -0.8952  0.3323  0.7044
  415MOL0     O54651   6.295   8.836   7.588  0.3272  0.8193 -0.6089
  415MOL0     C54652   6.177   8.893   7.574  1.3251 -0.4439  0.0946
  415MOL0     C54653   6.057   8.828   7.606 -0.4013 -0.0511  1.8013
  415MOL0     C54654   5.924   8.888   7.583 -0.2570  0.0266 -0.0416
  415MOL0     C54655   5.929   9.019   7.536  0.1872  0.1530  0.8519
  415MOL0     O54656   5.810   9.083   7.516  0.3911  0.2870 -0.0314
  415MOL0     C54657   5.778   9.207   7.587 -0.8405  0.5358  0.1618
  415MOL0     C54658   5.654   9.275   7.533  0.4647  0.5771 -0.5283
  415MOL0     C54659   5.675   9.310   7.380 -0.1774 -0.3440 -0.0012
  415MOL0     C54660   5.543   9.363   7.313 -0.4607  0.2321  0.0876
  415MOL0     C54661   5.561   9.408   7.168  0.2595  0.7554 -0.2754
  415MOL0     C54662   5.427   9.476   7.108 -0.2630  0.4838 -0.4735
  415MOL0     C54663   5.306   9.379   7.124  0.7571 -1.2229 -0.4926
  415MOL0     C54664   5.196   9.404   7.014  0.4075  0.1537 -1.0722
  415MOL0     N54665   5.110   9.290   7.001  0.2793  0.0853 -0.0365
  415MOL0     C54666   5.143   9.168   6.948  0.0523  0.3101 -1.0265
  415MOL0     C54667   5.029   9.092   6.944 -0.5859  0.0286  0.3273
  415MOL0     C54668   5.024   8.945   6.893  0.2788 -0.1792  0.5941
  415MOL0     C54669   5.045   8.936   6.736  0.5467  0.2442 -0.3444
  415MOL0     C54670   5.186   8.903   6.700  0.0557 -0.3214 -0.4788
  415MOL0     C54671   5.226   8.937   6.558  0.0825  0.0493 -0.0012
  415MOL0     O54672   5.137   8.867   6.461  0.0464 -0.0264  0.1810
  415MOL0     C54673   5.173   8.733   6.437  0.1847 -0.0679  0.0208
  415MOL0     C54674   5.082   8.624   6.444  0.5533 -0.5698  0.0433
  415MOL0     C54675   5.123   8.486   6.419 -0.9376 -0.6847  0.6303
  415MOL0     C54676   5.248   8.462   6.375  0.6828  0.3332  0.8138
  415MOL0     C54677   5.290   8.320   6.373  0.2308 -0.4967  0.0574
  415MOL0     O54678   5.423   8.298   6.379  0.1344  0.0364  0.0993
  415MOL0     C54679   5.485   8.202   6.298 -0.1351 -0.5292 -0.1509
  415MOL0     C54680   5.615   8.155   6.338  0.2643  0.7625 -0.0244
  415MOL0     C54681   5.681   8.072   6.250 -0.0957 -0.2447 -0.0582
  415MOL0     C54682   5.622   8.016   6.140 -1.7744  0.7452  0.2965
  415MOL0     O54683   5.704   7.933   6.050  0.0507  0.3211  0.7039
  415MOL0     C54684   5.635   7.871   5.939 -0.2400  0.2936 -0.2672
  415MOL0     C54685   5.723   7.753   5.875 -0.4837 -0.6648  0.0367
  415MOL0     C54686   5.863   7.787   5.814  1.1532 -0.1311 -0.2775
  415MOL0     C54687   5.920   7.669   5.725  0.5842 -0.3647 -0.3503
  415MOL0     C54688   6.073   7.638   5.748 -0.0819 -0.0325  0.0879
  415MOL0     C54689   6.122   7.598   5.886  0.6882  0.0629  0.6362
  415MOL0     C54690   6.270   7.637   5.910  0.7888 -0.4480 -0.9211
  415MOL0     C54691   6.369   7.555   5.824  0.0912 -0.8393  0.6614
  415MOL0    Cl54692   6.382   7.386   5.876 -0.2989 -0.1037 -0.1885
  415MOL0     C54693   5.495   8.063   6.102  0.8544  0.5287 -0.2929
  415MOL0     C54694   5.427   8.154   6.176  0.7103  0.1395 -0.3315
  415MOL0     O54695   5.204   8.228   6.375  0.2597  0.3475 -0.3803
  415MOL0     C54696   5.342   8.556   6.372  1.0954 -0.7650  0.3109
  415MOL0     C54697   5.305   8.691   6.404 -0.4870 -0.0340  0.0734
  415MOL0     N54698   4.927   9.172   6.986 -0.0309 -0.5991 -0.7893
  415MOL0     N54699   4.974   9.291   7.017 -0.1907  0.3610  0.4116
  415MOL0     C54700   6.047   9.091   7.518 -0.2310  0.0553  0.1243
  415MOL0     C54701   6.172   9.033   7.538  0.3886 -0.6400  0.2643
  415MOL0     C54702   6.493   8.769   7.693 -0.6083 -0.9404 -0.6618
  415MOL0     C54703   6.579   8.743   7.801  0.6913  0.0369  0.1063
  415MOL0     C54704   6.702   8.680   7.780  0.4820  0.3253 -0.3311
  415MOL0     C54705   6.754   8.647   7.643  0.3971  0.4553 -0.7149
  415MOL0     O54706   6.884   8.607   7.605  0.4442 -0.1548 -0.2800
  415MOL0     C54707   6.987   8.652   7.689  0.5470  0.1459  0.1689
  415MOL0     C54708   7.090   8.720   7.600 -0.3910 -0.8322  1.1340
  415MOL0     C54709   7.216   8.721   7.670 -0.6291  0.8083 -0.4011
  415MOL0     C54710   7.329   8.801   7.603  0.5420 -0.5925 -0.0959
  415MOL0     C54711   7.293   8.947   7.591  0.4353 -0.4800 -0.9377
  415MOL0     C54712   7.276   9.065   7.577  1.2342  0.6490  0.3172
  415MOL0     C54713   6.670   8.670   7.539  0.4935 -0.4418 -0.2335
  415MOL0     C54714   6.542   8.724   7.561  0.0016  0.7981  0.4836
  415MOL0     H54715   6.055   8.728   7.646  0.6407 -0.4250  0.9542
  415MOL0     H54716   5.831   8.839   7.608 -0.0938  0.6389  1.9412
  415MOL0     H54717   5.861   9.278   7.581 -0.1792 -0.1042  1.3000
  415MOL0     H54718   5.781   9.187   7.695 -0.3382  0.0681  0.0687
  415MOL0     H54719   5.639   9.369   7.588  0.2570  1.3345 -1.8530
  415MOL0     H54720   5.570   9.206   7.536  0.4657  0.5967  0.1556
  415MOL0     H54721   5.701   9.218   7.328  2.9217 -0.3293  1.3187
  415MOL0     H54722   5.760   9.378   7.371 -1.1654  1.1997  1.4256
  415MOL0     H54723   5.474   9.279   7.325  1.3721 -1.2364  0.9675
  415MOL0     H54724   5.514   9.452   7.370 -0.0653  0.6787 -0.4000
  415MOL0     H54725   5.590   9.325   7.102  0.7131  0.7851 -0.1133
  415MOL0     H54726   5.644   9.479   7.166 -1.0695  2.4331  0.8364
  415MOL0     H54727   5.455   9.487   7.003  2.1143 -0.9987 -0.0677
  415MOL0     H54728   5.395   9.574   7.144 -1.1267  1.2931 -3.2074
  415MOL0     H54729   5.343   9.276   7.117  0.6840 -1.1310 -3.8327
  415MOL0     H54730   5.259   9.384   7.223  3.2874  2.6603  0.7342
  415MOL0     H54731   5.250   9.436   6.924  2.0405  0.2687 -0.0852
  415MOL0     H54732   5.133   9.490   7.036  0.1612  0.4095 -2.6458
  415MOL0     H54733   5.245   9.140   6.923 -0.1255  0.3000 -1.7875
  415MOL0     H54734   4.926   8.900   6.911  0.4995 -2.7015 -3.2921
  415MOL0     H54735   5.098   8.877   6.936 -0.7858 -2.1611 -0.5179
  415MOL0     H54736   5.014   9.028   6.687 -2.1655 -0.6648 -0.5107
  415MOL0     H54737   4.976   8.863   6.693 -0.9386  1.9387 -0.9600
  415MOL0     H54738   5.255   8.951   6.771 -0.4984 -1.2068  0.6780
  415MOL0     H54739   5.205   8.796   6.714 -1.2877 -0.5153 -0.0900
  415MOL0     H54740   5.332   8.907   6.553 -0.4685 -1.9967 -0.7069
  415MOL0     H54741   5.227   9.044   6.537 -0.3508  0.3488  1.4281
  415MOL0     H54742   4.991   8.657   6.493  2.0101  1.3419  1.6748
  415MOL0     H54743   5.054   8.405   6.435  0.1258 -1.1325  3.4427
  415MOL0     H54744   5.674   8.202   6.416  2.2477  1.9908 -2.1399
  415MOL0     H54745   5.785   8.048   6.270 -0.3441 -1.7340 -0.4423
  415MOL0     H54746   5.605   7.948   5.867  1.9096  1.6503  0.1984
  415MOL0     H54747   5.541   7.827   5.974 -1.6957  2.2504 -1.4954
  415MOL0     H54748   5.671   7.706   5.791  0.6424  0.7647 -1.5277
  415MOL0     H54749   5.745   7.684   5.956  0.1913 -2.6387 -1.7516
  415MOL0     H54750   5.931   7.818   5.894 -2.7804  0.0575  3.3453
  415MOL0     H54751   5.860   7.879   5.755  0.5395 -0.0859 -0.1820
  415MOL0     H54752   5.865   7.575   5.737 -0.4136  0.1085 -1.0274
  415MOL0     H54753   5.909   7.692   5.619 -0.2179 -1.0296 -0.4239
  415MOL0     H54754   6.126   7.725   5.707  1.9480 -1.3475 -0.2519
  415MOL0     H54755   6.097   7.555   5.682 -1.3270  0.6998 -1.3317
  415MOL0     H54756   6.096   7.492   5.895  1.9223 -0.2289  0.9339
  415MOL0     H54757   6.061   7.642   5.966  0.0518  0.8418 -0.2532
  415MOL0     H54758   6.283   7.741   5.878 -0.5820 -0.4551 -1.5674
  415MOL0     H54759   6.279   7.625   6.019 -0.5096 -1.5974 -0.9167
  415MOL0     H54760   6.463   7.610   5.823 -2.9383  5.1460  1.0011
  415MOL0     H54761   6.335   7.550   5.721 -0.9434  2.4633  0.7355
  415MOL0     H54762   5.449   8.033   6.009 -2.1754  0.2518  1.1522
  415MOL0     H54763   5.335   8.201   6.142 -2.2447 -2.1941  3.6275
  415MOL0     H54764   5.445   8.533   6.348  1.7895  0.4526  1.9344
  415MOL0     H54765   5.386   8.762   6.409 -0.9654  0.8170 -2.5725
  415MOL0     H54766   6.018   9.187   7.478 -2.4652 -1.0167 -1.0089
  415MOL0     H54767   6.257   9.101   7.533 -0.7388  0.7771 -0.0563
  415MOL0     H54768   6.559   8.770   7.904  0.4386  2.3612 -0.4824
  415MOL0     H54769   6.750   8.657   7.875  1.5933 -0.0387 -0.9586
  415MOL0     H54770   7.035   8.566   7.736  1.3402  0.6541  0.3131
  415MOL0     H54771   6.946   8.721   7.763 -1.4555 -1.7629  0.9346
  415MOL0     H54772   7.101   8.664   7.507  1.6384 -0.2332  0.9562
  415MOL0     H54773   7.067   8.824   7.578  3.4693 -0.3049 -1.3481
  415MOL0     H54774   7.243   8.616   7.686 -1.6878  0.7923  1.7400
  415MOL0     H54775   7.202   8.762   7.771 -1.6537  2.1875 -1.0696
  415MOL0     H54776   7.414   8.785   7.670 -1.0711 -0.5460  2.0863
  415MOL0     H54777   7.346   8.757   7.504 -1.4584  2.3674 -1.9293
  415MOL0     H54778   7.254   9.170   7.579  1.4116  0.6713  1.4956
  415MOL0     H54779   6.706   8.657   7.438  1.0125  1.5287 -0.3287
  415MOL0     H54780   6.492   8.746   7.467  0.9127  0.7355 -0.0260
  416MOL0     O54781   5.266   1.509   0.836 -0.3005 -0.3426  0.0029
  416MOL0     C54782   5.331   1.587   0.910 -0.1899 -1.4437  0.3611
  416MOL0     O54783   5.456   1.560   0.971  0.3465 -0.9160  0.8336
  416MOL0     C54784   5.516   1.444   0.934  0.6243 -0.2532 -0.7714
  416MOL0     C54785   5.565   1.359   1.031 -0.1884 -0.9222 -0.6253
  416MOL0     C54786   5.659   1.261   1.010  0.6833 -0.6728 -0.1740
  416MOL0     C54787   5.699   1.238   0.881  0.0283  0.3858 -0.0328
  416MOL0     O54788   5.786   1.134   0.851  0.1750  0.4555 -1.1249
  416MOL0     C54789   5.846   1.059   0.954 -0.5752  0.3041 -1.0970
  416MOL0     C54790   5.927   0.946   0.899 -0.2435  1.2604 -0.1212
  416MOL0     C54791   6.003   0.872   1.012 -0.4051  0.1052 -0.4236
  416MOL0     C54792   6.103   0.772   0.968 -0.5458  1.1163  0.9951
  416MOL0     C54793   6.033   0.639   0.934  0.0846  0.1886  1.4068
  416MOL0     C54794   6.143   0.528   0.941 -0.3444 -0.1272  0.0706
  416MOL0     C54795   6.078   0.412   1.014 -0.6941 -0.4891  0.1035
  416MOL0     C54796   6.178   0.295   1.019  0.1134  0.4469  0.9002
  416MOL0     N54797   6.107   0.178   1.077 -0.2152 -0.1042 -0.2366
  416MOL0     C54798   6.058   0.068   1.018  0.4982 -0.2306 -0.4497
  416MOL0     C54799   6.023  -0.028   1.108 -0.0297  0.1009  0.1584
  416MOL0     C54800   5.941  -0.166   1.091  0.2634  0.2481  0.5166
  416MOL0     C54801   5.799  -0.149   1.048  0.9028  0.7900  0.6466
  416MOL0     C54802   5.710  -0.056   1.125  0.1116  0.5300  0.1753
  416MOL0     C54803   5.709  -0.059   1.269 -0.5326 -0.8642 -0.0729
  416MOL0     O54804   5.606   0.029   1.312 -0.1295 -0.2582 -0.1048
  416MOL0     C54805   5.622   0.161   1.295  0.3903  0.0015  0.2041
  416MOL0     C54806   5.729   0.232   1.238 -0.7389  0.3578 -0.2981
  416MOL0     C54807   5.725   0.369   1.226  0.1542  0.5505  0.0044
  416MOL0     C54808   5.623   0.440   1.285 -0.3932 -0.2055  0.4775
  416MOL0     C54809   5.626   0.588   1.266  0.4943  0.2410  1.1662
  416MOL0     O54810   5.522   0.647   1.333 -0.2177  0.0077  0.2881
  416MOL0     C54811   5.490   0.780   1.316  0.1045 -0.1675 -0.7090
  416MOL0     C54812   5.381   0.824   1.408 -0.4641  0.5248 -0.3273
  416MOL0     C54813   5.331   0.948   1.406  0.1014 -0.6394 -0.2412
  416MOL0     C54814   5.374   1.040   1.297  0.5198 -0.0395 -0.2291
  416MOL0     O54815   5.316   1.167   1.279  0.3031 -0.0270  0.3688
  416MOL0     C54816   5.317   1.258   1.391  0.0708 -0.2706 -0.8388
  416MOL0     C54817   5.386   1.386   1.351  0.1145 -0.8358 -0.1406
  416MOL0     C54818   5.381   1.496   1.455 -1.2416 -0.6101  1.1413
  416MOL0     C54819   5.497   1.600   1.412 -0.4021 -0.9555 -0.1452
  416MOL0     C54820   5.501   1.726   1.503  0.8378 -0.1676 -0.6657
  416MOL0     C54821   5.565   1.855   1.438  0.2156  0.7149  0.3871
  416MOL0     C54822   5.704   1.834   1.365  0.0943  0.2810 -1.3195
  416MOL0     C54823   5.738   1.965   1.290 -0.0308  1.1890  0.1678
  416MOL0    Cl54824   5.636   1.948   1.155  0.0097  0.3850  0.2627
  416MOL0     C54825   5.461   1.002   1.205  0.4682 -0.3778  0.2235
  416MOL0     C54826   5.525   0.872   1.213 -0.2324 -0.0255  0.2927
  416MOL0     O54827   5.721   0.644   1.206 -0.4168  0.0814 -0.6159
  416MOL0     C54828   5.518   0.376   1.352 -0.1559  0.4943  0.1613
  416MOL0     C54829   5.516   0.235   1.350 -0.1589  0.3542 -0.0071
  416MOL0     N54830   6.063   0.019   1.233  0.2243  0.5397  0.3439
  416MOL0     N54831   6.107   0.149   1.214 -0.0359 -0.3295 -0.0791
  416MOL0     C54832   5.655   1.318   0.778  0.2847  0.0038 -0.0341
  416MOL0     C54833   5.558   1.425   0.798 -0.9509  1.0239  0.3979
  416MOL0     C54834   5.290   1.730   0.927 -0.1465 -0.0044 -0.1206
  416MOL0     C54835   5.380   1.827   0.978  0.0116 -0.1984  0.9245
  416MOL0     C54836   5.342   1.965   0.976 -0.2768  0.7635 -0.0475
  416MOL0     C54837   5.227   2.012   0.917 -0.3729  0.1583 -0.6862
  416MOL0     O54838   5.222   2.153   0.909 -0.1113  0.6200 -0.7580
  416MOL0     C54839   5.100   2.228   0.878 -0.4726 -0.2004 -1.1769
  416MOL0     C54840   5.115   2.378   0.859 -0.2662 -0.2086  0.1055
  416MOL0     C54841   5.175   2.440   0.990  0.3298  0.1445 -0.2870
  416MOL0     C54842   5.186   2.590   0.968 -0.5383 -0.8654  0.0777
  416MOL0     C54843   5.289   2.622   0.863  0.9890 -0.5686 -0.3518
  416MOL0     C54844   5.386   2.632   0.788 -0.1664  0.3860 -0.3363
  416MOL0     C54845   5.132   1.925   0.875  0.2248  0.6124 -0.7398
  416MOL0     C54846   5.166   1.783   0.877 -0.0179  0.7652 -0.1262
  416MOL0     H54847   5.535   1.380   1.134 -1.1117  3.9317 -1.6270
  416MOL0     H54848   5.687   1.205   1.099 -0.2034 -1.2811 -0.2577
  416MOL0     H54849   5.763   1.011   1.007 -0.9802  0.8438 -1.2427
  416MOL0     H54850   5.908   1.113   1.026 -0.4183 -0.6002 -0.5298
  416MOL0     H54851   5.998   0.991   0.828 -0.4844  1.9752  0.0867
  416MOL0     H54852   5.855   0.881   0.848 -0.0725 -0.4991  1.7701
  416MOL0     H54853   5.934   0.820   1.079 -2.4757 -1.2264 -3.3503
  416MOL0     H54854   6.064   0.942   1.070  0.2037 -0.9743  0.2802
  416MOL0     H54855   6.166   0.809   0.886 -1.7887 -0.3044 -0.6662
  416MOL0     H54856   6.167   0.755   1.055 -1.7769  2.3871  2.1976
  416MOL0     H54857   5.996   0.637   0.831  2.0811 -0.2254  0.6641
  416MOL0     H54858   5.947   0.613   0.997 -1.2521 -1.0660 -0.8059
  416MOL0     H54859   6.230   0.567   0.993 -0.6934 -1.3924  1.6871
  416MOL0     H54860   6.180   0.490   0.846 -0.8927 -0.4484 -0.0201
  416MOL0     H54861   6.035   0.443   1.110 -0.1663  1.2533 -0.1943
  416MOL0     H54862   5.985   0.390   0.960 -1.2422  3.8577 -1.1165
  416MOL0     H54863   6.271   0.329   1.066 -0.3536  2.4389  0.4654
  416MOL0     H54864   6.191   0.277   0.912 -1.9196  0.9355  0.5244
  416MOL0     H54865   6.038   0.048   0.913 -2.7630 -0.6224  0.1226
  416MOL0     H54866   5.950  -0.211   1.190  2.0191  1.3163  0.8981
  416MOL0     H54867   5.977  -0.232   1.012 -1.7629  2.4228 -2.4633
  416MOL0     H54868   5.764  -0.251   1.031  1.8124  0.1471  2.4604
  416MOL0     H54869   5.795  -0.112   0.945 -1.2469 -2.1939 -0.4760
  416MOL0     H54870   5.739   0.040   1.082  1.2670  0.0753 -0.0956
  416MOL0     H54871   5.609  -0.080   1.087 -0.5934  1.8580  1.1476
  416MOL0     H54872   5.806  -0.025   1.307 -1.5145  0.2629  1.5569
  416MOL0     H54873   5.684  -0.160   1.304  0.5677  0.0148  3.8179
  416MOL0     H54874   5.825   0.198   1.199 -1.4692  0.2678 -2.1295
  416MOL0     H54875   5.800   0.431   1.179  0.1892 -1.7295 -3.2922
  416MOL0     H54876   5.329   0.748   1.465 -2.3246  1.6105 -0.5175
  416MOL0     H54877   5.255   0.992   1.469  1.8938  2.3832  0.0074
  416MOL0     H54878   5.360   1.221   1.484 -1.6385  0.6732  0.3913
  416MOL0     H54879   5.213   1.285   1.410  0.2341 -0.5160  0.5343
  416MOL0     H54880   5.344   1.416   1.255  0.4387 -1.8044 -0.6049
  416MOL0     H54881   5.491   1.369   1.327 -0.2437  1.1821 -3.8034
  416MOL0     H54882   5.411   1.458   1.553  1.6015 -0.8787  0.2465
  416MOL0     H54883   5.284   1.546   1.450 -0.3892  1.0103 -0.1285
  416MOL0     H54884   5.598   1.560   1.395 -0.0107  0.5412 -1.6948
  416MOL0     H54885   5.473   1.640   1.313  3.6642  1.8449 -0.2100
  416MOL0     H54886   5.570   1.695   1.582 -0.7509 -0.2943  0.7195
  416MOL0     H54887   5.405   1.753   1.546 -0.6514 -2.0592 -2.5789
  416MOL0     H54888   5.577   1.918   1.527  0.8964 -0.3572  1.0846
  416MOL0     H54889   5.493   1.906   1.374  0.8060 -1.8228 -2.4978
  416MOL0     H54890   5.776   1.798   1.439 -0.7690  0.8703 -0.1548
  416MOL0     H54891   5.699   1.754   1.291  1.1675 -2.9101  1.7805
  416MOL0     H54892   5.842   1.979   1.258  0.0385  0.0761 -0.1571
  416MOL0     H54893   5.708   2.047   1.355 -2.2984  0.2610  0.3876
  416MOL0     H54894   5.490   1.076   1.131 -1.0964 -0.2819 -0.3143
  416MOL0     H54895   5.615   0.862   1.152  1.2276 -0.1043  2.3704
  416MOL0     H54896   5.431   0.427   1.393  0.0240 -1.0984  2.7796
  416MOL0     H54897   5.432   0.184   1.397  0.0715  1.3593  1.5814
  416MOL0     H54898   5.687   1.300   0.676  0.1828 -1.5162  0.1821
  416MOL0     H54899   5.524   1.487   0.715  2.0077  0.6640 -1.2245
  416MOL0     H54900   5.485   1.806   0.999  0.0718 -1.7382 -0.6774
  416MOL0     H54901   5.408   2.042   1.015  0.3854  1.1583 -1.8668
  416MOL0     H54902   5.025   2.219   0.958  0.7183  0.0566  0.0048
  416MOL0     H54903   5.075   2.184   0.781 -3.0499  0.1386 -0.7413
  416MOL0     H54904   5.189   2.384   0.778 -0.4706 -3.8982 -0.5441
  416MOL0     H54905   5.020   2.429   0.837  0.7541  1.7906  0.1131
  416MOL0     H54906   5.278   2.410   1.011  1.0579  2.5727 -0.0622
  416MOL0     H54907   5.108   2.409   1.071  0.1585 -1.0338 -0.8558
  416MOL0     H54908   5.097   2.653   0.960 -1.2621 -2.0918 -2.9541
  416MOL0     H54909   5.231   2.621   1.063  1.3760  0.2298 -1.1109
  416MOL0     H54910   5.482   2.650   0.745  1.2267  0.3364  2.5110
  416MOL0     H54911   5.031   1.936   0.835 -0.0396 -0.1537 -0.3135
  416MOL0     H54912   5.094   1.706   0.850  0.2923  0.2637  0.4471
  417MOL0     O54913   3.457   3.662   8.663  0.0626 -0.0238  0.7031
  417MOL0     C54914   3.572   3.618   8.677 -0.0905  0.6145 -1.2860
  417MOL0     O54915   3.615   3.554   8.788  1.0637  0.2499  0.2540
  417MOL0     C54916   3.527   3.510   8.889  0.3644 -0.2906  0.3518
  417MOL0     C54917   3.398   3.538   8.909 -0.7058 -0.0635  0.2273
  417MOL0     C54918   3.338   3.505   9.028  0.6505 -0.4695  1.3134
  417MOL0     C54919   3.402   3.435   9.126 -0.8599  0.1732  0.1742
  417MOL0     O54920   3.335   3.422   9.245 -0.0135  0.8266  0.2627
  417MOL0     C54921   3.404   3.374   9.360 -0.5191 -0.3932  0.7651
  417MOL0     C54922   3.497   3.483   9.411 -0.5230  0.0554 -0.1149
  417MOL0     C54923   3.544   3.467   9.554  0.1050  0.7680 -0.5078
  417MOL0     C54924   3.611   3.339   9.578 -0.6761  0.9195  1.1003
  417MOL0     C54925   3.687   3.344   9.707 -0.3239  0.9680  0.4788
  417MOL0     C54926   3.802   3.445   9.697  0.6275 -0.2874  0.2328
  417MOL0     C54927   3.938   3.407   9.741 -0.6183  0.6624 -0.1321
  417MOL0     C54928   4.020   3.505   9.824 -0.4157 -0.3845 -0.1953
  417MOL0     N54929   3.967   3.545   9.954 -0.9420 -0.1676 -0.2534
  417MOL0     C54930   3.993   3.461  10.061  0.5807  0.1312 -0.6307
  417MOL0     C54931   3.879   3.484  10.136 -0.0669  0.2142 -0.4164
  417MOL0     C54932   3.856   3.405  10.254 -0.0703 -0.6097  0.4666
  417MOL0     C54933   3.744   3.308  10.215  0.1180  0.1845  0.5896
  417MOL0     C54934   3.719   3.196  10.305 -0.5307  0.3885  0.4740
  417MOL0     C54935   3.595   3.125  10.259  0.3655 -0.2610 -0.0189
  417MOL0     O54936   3.637   3.066  10.135  0.1970  0.1535 -0.2692
  417MOL0     C54937   3.696   2.935  10.134 -0.4487 -0.3202 -0.0935
  417MOL0     C54938   3.737   2.887  10.006  0.5317  0.2982  0.2522
  417MOL0     C54939   3.803   2.766   9.980  1.0279  0.4806  0.2708
  417MOL0     C54940   3.814   2.676  10.091 -0.1014  0.6416 -0.2422
  417MOL0     C54941   3.875   2.543  10.088  0.2907  1.0105  0.5615
  417MOL0     O54942   3.856   2.469   9.972  0.2638  0.6339 -0.6624
  417MOL0     C54943   3.894   2.335   9.960 -0.3593  0.0284  0.7946
  417MOL0     C54944   3.867   2.237  10.054  1.2358  0.0433  0.0380
  417MOL0     C54945   3.885   2.100  10.017 -0.8627  0.1738  0.5160
  417MOL0     C54946   3.948   2.066   9.891  0.5487 -0.2536  0.4091
  417MOL0     O54947   3.976   1.937   9.841  0.9127  0.1169  0.2596
  417MOL0     C54948   3.954   1.824   9.936 -0.0461  1.1998  0.1225
  417MOL0     C54949   4.079   1.803  10.015  0.2702 -0.1175 -0.2371
  417MOL0     C54950   4.191   1.750   9.936 -0.0392 -0.0230  0.0830
  417MOL0     C54951   4.330   1.737  10.002 -1.3650 -0.4217 -0.3795
  417MOL0     C54952   4.445   1.703   9.906  0.5659 -1.1488 -0.5284
  417MOL0     C54953   4.490   1.818   9.817  0.1647  0.2429 -0.3010
  417MOL0     C54954   4.629   1.789   9.743  0.6936  0.6178 -0.2195
  417MOL0     C54955   4.689   1.914   9.682 -0.2982 -0.9791 -0.2132
  417MOL0    Cl54956   4.551   1.991   9.587 -0.7231  0.4738 -0.1714
  417MOL0     C54957   3.982   2.167   9.803  0.4381  0.2466  0.0968
  417MOL0     C54958   3.960   2.302   9.839  0.6731  0.7349 -0.4044
  417MOL0     O54959   3.930   2.504  10.184 -1.0412  0.1913 -0.9972
  417MOL0     C54960   3.759   2.713  10.216 -0.3625 -0.1024  0.3487
  417MOL0     C54961   3.697   2.837  10.237 -0.0659 -0.0189 -1.5035
  417MOL0     N54962   3.818   3.606  10.091 -0.8386  0.3063  0.9909
  417MOL0     N54963   3.870   3.634   9.973 -0.2255 -0.6636  0.8703
  417MOL0     C54964   3.531   3.391   9.097 -1.0536  0.4511 -0.2644
  417MOL0     C54965   3.597   3.436   8.983  0.1449 -0.4684 -0.4041
  417MOL0     C54966   3.670   3.651   8.581 -0.8079  0.0365  0.4993
  417MOL0     C54967   3.804   3.592   8.591  0.1240 -0.1197 -0.3105
  417MOL0     C54968   3.891   3.622   8.494 -0.5220 -0.5488 -0.2259
  417MOL0     C54969   3.859   3.699   8.385 -0.6054 -0.8738  0.6189
  417MOL0     O54970   3.966   3.704   8.295 -0.2407  0.0015 -0.1234
  417MOL0     C54971   3.950   3.694   8.157 -0.2054 -0.6740 -0.0615
  417MOL0     C54972   3.942   3.830   8.102 -0.1104  1.3818  0.4505
  417MOL0     C54973   4.074   3.910   8.109 -0.8477 -0.3279 -0.6731
  417MOL0     C54974   4.082   4.051   8.061  0.8743  0.3045 -0.2618
  417MOL0     C54975   4.048   4.062   7.923 -0.6465 -0.9143 -0.2172
  417MOL0     C54976   4.021   4.094   7.809 -1.3866  0.5407  0.7308
  417MOL0     C54977   3.734   3.751   8.366 -0.5206 -0.1281  0.1846
  417MOL0     C54978   3.640   3.732   8.473  0.2564 -0.6924 -0.2360
  417MOL0     H54979   3.331   3.581   8.835  0.8905  2.3016  0.0614
  417MOL0     H54980   3.238   3.541   9.047  1.9011  2.0469  3.9141
  417MOL0     H54981   3.456   3.283   9.330  0.5399  1.0794 -2.2454
  417MOL0     H54982   3.329   3.345   9.434  0.9895 -0.1925  2.4752
  417MOL0     H54983   3.440   3.575   9.393  0.2462  0.4375 -0.6784
  417MOL0     H54984   3.579   3.490   9.339 -1.7054  3.2542 -1.3124
  417MOL0     H54985   3.455   3.470   9.618  0.0130 -1.6911 -0.4407
  417MOL0     H54986   3.618   3.543   9.579  1.6415 -0.5983 -0.7589
  417MOL0     H54987   3.538   3.259   9.593  1.6691 -1.3448  1.1419
  417MOL0     H54988   3.687   3.306   9.507  0.5701 -1.9980  3.5366
  417MOL0     H54989   3.725   3.244   9.730 -0.1453  1.5073  2.7196
  417MOL0     H54990   3.622   3.380   9.787 -2.6262 -1.8187  0.0104
  417MOL0     H54991   3.755   3.518   9.764 -0.9770 -2.8420  2.1086
  417MOL0     H54992   3.800   3.478   9.593 -6.0854 -0.2442 -0.1180
  417MOL0     H54993   3.934   3.314   9.798 -1.2076  0.1287 -1.0142
  417MOL0     H54994   4.001   3.378   9.657 -0.7174  0.7866 -0.2490
  417MOL0     H54995   4.045   3.599   9.775  3.1610  0.2232  2.4155
  417MOL0     H54996   4.108   3.443   9.837  0.8450  1.1254 -1.1480
  417MOL0     H54997   4.069   3.385  10.075  0.8282  0.2872 -1.0881
  417MOL0     H54998   3.817   3.457  10.342  0.3009  1.4568 -0.5447
  417MOL0     H54999   3.950   3.354  10.277 -0.4862 -2.2545 -1.1752
  417MOL0     H55000   3.764   3.262  10.117 -3.6592 -2.9624  1.0928
  417MOL0     H55001   3.654   3.368  10.202  2.2525  3.7922  1.0680
  417MOL0     H55002   3.804   3.127  10.308 -0.6630  0.2461  1.2773
  417MOL0     H55003   3.696   3.233  10.405  0.9304 -0.2379  1.0749
  417MOL0     H55004   3.524   3.201  10.225  2.1598  1.2195 -0.6346
  417MOL0     H55005   3.558   3.058  10.337 -0.8012  2.2576  1.7532
  417MOL0     H55006   3.734   2.953   9.919 -4.7493  1.3528  0.9386
  417MOL0     H55007   3.835   2.744   9.878  0.8365 -4.2436  1.0185
  417MOL0     H55008   3.820   2.263  10.148 -0.0651 -2.1428  0.0535
  417MOL0     H55009   3.855   2.023  10.087  2.5289 -1.0958  0.7595
  417MOL0     H55010   3.947   1.746   9.860  1.0237  3.5228 -2.5518
  417MOL0     H55011   3.863   1.833   9.994 -0.8511 -2.1251 -0.4348
  417MOL0     H55012   4.052   1.731  10.093 -0.3235  0.7729  0.4009
  417MOL0     H55013   4.121   1.891  10.065  1.7232 -0.6870 -0.4371
  417MOL0     H55014   4.197   1.811   9.845 -0.0442  1.1068  0.8220
  417MOL0     H55015   4.163   1.648   9.911 -1.2189 -0.7556  3.7846
  417MOL0     H55016   4.362   1.827  10.056 -1.3256 -0.4304 -0.3881
  417MOL0     H55017   4.334   1.649  10.066  1.0942 -0.0054  0.1458
  417MOL0     H55018   4.427   1.610   9.850  0.8682 -1.5535  0.0300
  417MOL0     H55019   4.521   1.656   9.970 -0.4454  1.4467  2.8899
  417MOL0     H55020   4.492   1.911   9.875  0.0095  1.0760 -1.5800
  417MOL0     H55021   4.411   1.825   9.742 -2.7263 -1.5131  2.3547
  417MOL0     H55022   4.698   1.741   9.813  0.6056  3.5330  2.0744
  417MOL0     H55023   4.602   1.712   9.671 -0.0981 -0.2537  0.9709
  417MOL0     H55024   4.761   1.882   9.605 -0.7379 -2.9276  0.1295
  417MOL0     H55025   4.730   1.985   9.754  1.2338 -0.5939 -1.4090
  417MOL0     H55026   4.021   2.154   9.702  0.4970 -3.2614  0.4619
  417MOL0     H55027   3.984   2.379   9.767  0.9798  2.2899  1.2943
  417MOL0     H55028   3.765   2.638  10.295 -0.9743 -0.6485 -0.1127
  417MOL0     H55029   3.667   2.858  10.339  2.3473 -0.3492 -0.6687
  417MOL0     H55030   3.598   3.332   9.159 -0.7401  0.6325 -0.4256
  417MOL0     H55031   3.700   3.406   8.966  1.6494  3.9807 -0.2246
  417MOL0     H55032   3.839   3.534   8.675  0.4339 -0.7895 -0.8889
  417MOL0     H55033   3.990   3.582   8.513  0.0538  1.2850  0.8699
  417MOL0     H55034   3.854   3.647   8.134 -0.2949  0.4254 -2.2277
  417MOL0     H55035   4.034   3.645   8.106 -1.2322 -0.5949 -1.9315
  417MOL0     H55036   3.920   3.824   7.995 -0.9456 -0.5160  0.6907
  417MOL0     H55037   3.859   3.891   8.140  0.0001  4.1292 -3.1094
  417MOL0     H55038   4.147   3.853   8.052 -1.5535 -1.8605 -0.0892
  417MOL0     H55039   4.113   3.919   8.211 -0.3835  1.7434 -0.9786
  417MOL0     H55040   4.023   4.112   8.130  0.9177  1.9480 -1.6095
  417MOL0     H55041   4.183   4.092   8.057  0.5594  1.0881 -0.4912
  417MOL0     H55042   4.006   4.113   7.705 -1.3899  3.6525  1.2194
  417MOL0     H55043   3.710   3.792   8.269  2.5854 -0.9208 -1.0666
  417MOL0     H55044   3.544   3.773   8.443  0.1804 -1.4066 -1.0194
  418MOL0     O55045   2.636   0.193   5.062  0.5242 -0.5333  0.0385
  418MOL0     C55046   2.602   0.165   5.171  1.0094 -0.7740 -1.0054
  418MOL0     O55047   2.589   0.043   5.226 -0.3705  0.1361 -0.2660
  418MOL0     C55048   2.595  -0.077   5.147 -0.3852 -0.0673 -0.0000
  418MOL0     C55049   2.536  -0.084   5.027  0.3488 -0.1035  0.1054
  418MOL0     C55050   2.533  -0.197   4.947  0.8059  0.1529  0.2122
  418MOL0     C55051   2.595  -0.311   5.001  0.1091  0.1182  0.6393
  418MOL0     O55052   2.598  -0.427   4.922 -0.3098 -0.2366  0.2287
  418MOL0     C55053   2.618  -0.558   4.989  0.1732 -0.1286  0.3383
  418MOL0     C55054   2.572  -0.683   4.911  0.4458 -0.6416  0.1183
  418MOL0     C55055   2.632  -0.697   4.774 -0.2595 -0.0274 -0.6504
  418MOL0     C55056   2.592  -0.833   4.707 -0.2367  0.6035  0.8391
  418MOL0     C55057   2.613  -0.833   4.560  0.1915  0.6103  0.2405
  418MOL0     C55058   2.611  -0.981   4.492 -0.0132  0.0052 -0.3125
  418MOL0     C55059   2.601  -0.984   4.343  0.6747  0.3271  1.0954
  418MOL0     C55060   2.459  -0.982   4.291  0.0390  0.3349  0.0184
  418MOL0     N55061   2.470  -1.013   4.144 -0.4373  0.2046  0.3536
  418MOL0     C55062   2.495  -0.912   4.057 -0.8801  0.5669  0.3775
  418MOL0     C55063   2.501  -0.978   3.944 -0.0695  0.2942 -0.1879
  418MOL0     C55064   2.532  -0.920   3.815 -0.1710  0.3073  0.1177
  418MOL0     C55065   2.616  -0.794   3.816  0.4733 -0.7941  0.2187
  418MOL0     C55066   2.629  -0.753   3.673 -0.7978  0.3118 -1.3290
  418MOL0     C55067   2.700  -0.615   3.675 -0.3055  0.9069 -0.3820
  418MOL0     O55068   2.717  -0.572   3.539  0.6172 -0.2117 -0.2748
  418MOL0     C55069   2.609  -0.531   3.473  0.0956 -0.3537  0.6269
  418MOL0     C55070   2.581  -0.610   3.358 -0.9954  0.2847  0.8451
  418MOL0     C55071   2.475  -0.572   3.272  0.1062 -0.3505 -0.9372
  418MOL0     C55072   2.384  -0.474   3.316  1.2442  0.6525  0.0322
  418MOL0     C55073   2.261  -0.450   3.232  0.5485  0.4442  0.4048
  418MOL0     O55074   2.265  -0.495   3.100  0.2054  0.6222 -0.7955
  418MOL0     C55075   2.159  -0.494   3.021  0.3458  1.1626  0.5156
  418MOL0     C55076   2.083  -0.376   2.989  0.7537 -0.2824 -0.1794
  418MOL0     C55077   1.976  -0.380   2.905 -0.3961 -1.3786 -0.1867
  418MOL0     C55078   1.928  -0.492   2.841 -0.3858 -0.7056 -0.8952
  418MOL0     O55079   1.826  -0.496   2.750 -0.7006  0.9409 -0.3757
  418MOL0     C55080   1.735  -0.392   2.757  0.7870  0.8456 -0.4840
  418MOL0     C55081   1.618  -0.432   2.675 -0.0330 -0.7850 -0.8805
  418MOL0     C55082   1.629  -0.425   2.519 -0.7701  0.1651 -0.1856
  418MOL0     C55083   1.491  -0.451   2.461  0.2256  0.0778 -0.0441
  418MOL0     C55084   1.509  -0.468   2.306 -0.3282 -0.7775 -0.9540
  418MOL0     C55085   1.381  -0.515   2.247  0.2333  0.8321  0.3261
  418MOL0     C55086   1.373  -0.524   2.082 -0.2975  0.7940  0.3832
  418MOL0     C55087   1.227  -0.536   2.039  0.5917 -1.2729  0.0820
  418MOL0    Cl55088   1.132  -0.664   2.126  0.1619 -0.6329  0.1759
  418MOL0     C55089   2.002  -0.605   2.865  0.2216 -0.3313  0.2933
  418MOL0     C55090   2.120  -0.607   2.945 -0.0718  0.2608  0.0152
  418MOL0     O55091   2.160  -0.386   3.280  0.2832 -0.3030 -0.2474
  418MOL0     C55092   2.409  -0.393   3.429  0.6713 -0.4663 -0.4370
  418MOL0     C55093   2.523  -0.428   3.508  0.3601 -0.0923 -0.0604
  418MOL0     N55094   2.454  -1.106   3.965  0.1775  0.6264 -0.5472
  418MOL0     N55095   2.433  -1.126   4.088  0.3324 -0.2011 -0.7683
  418MOL0     C55096   2.662  -0.297   5.126 -0.4874  0.1975 -0.0938
  418MOL0     C55097   2.660  -0.183   5.198 -0.8744  0.4649  1.0640
  418MOL0     C55098   2.581   0.283   5.263  0.6217  1.1752 -0.4565
  418MOL0     C55099   2.575   0.412   5.212 -0.2384  0.3416 -0.0251
  418MOL0     C55100   2.551   0.521   5.297  0.3480  0.0111 -0.4013
  418MOL0     C55101   2.505   0.501   5.428 -0.5569  0.8497  0.0495
  418MOL0     O55102   2.457   0.599   5.504  0.1009 -0.1495 -0.4957
  418MOL0     C55103   2.500   0.735   5.501 -0.0813 -0.8826  1.0361
  418MOL0     C55104   2.622   0.762   5.596  0.1084  0.1340  0.7184
  418MOL0     C55105   2.605   0.689   5.729 -0.2339 -0.6363  0.7246
  418MOL0     C55106   2.684   0.764   5.837 -0.3018 -0.2317  0.1762
  418MOL0     C55107   2.701   0.676   5.953  0.3923 -0.7343 -0.6400
  418MOL0     C55108   2.721   0.605   6.047 -1.8909 -0.1149 -0.4096
  418MOL0     C55109   2.524   0.373   5.482 -0.1546 -0.2359 -1.0310
  418MOL0     C55110   2.559   0.266   5.405  0.2798  0.1501 -0.0612
  418MOL0     H55111   2.472  -0.003   4.993  0.8710  1.1822  2.0040
  418MOL0     H55112   2.472  -0.183   4.858  0.1679 -1.5103  0.3542
  418MOL0     H55113   2.565  -0.568   5.084  0.7231 -2.7719  0.4493
  418MOL0     H55114   2.725  -0.573   5.002  0.6828 -1.2499 -3.6404
  418MOL0     H55115   2.463  -0.691   4.922  0.6162 -1.2143  1.6477
  418MOL0     H55116   2.613  -0.772   4.960  1.3669 -1.2109 -1.6063
  418MOL0     H55117   2.741  -0.689   4.777 -0.1741 -1.0018  2.5167
  418MOL0     H55118   2.592  -0.613   4.716  0.3399  1.0272  0.4035
  418MOL0     H55119   2.649  -0.910   4.760  1.5772  0.9121 -0.5479
  418MOL0     H55120   2.485  -0.852   4.712 -0.0060 -3.2491 -2.7609
  418MOL0     H55121   2.707  -0.786   4.528  1.1205 -1.3756 -0.1033
  418MOL0     H55122   2.520  -0.791   4.520 -1.3045 -2.6078 -0.0323
  418MOL0     H55123   2.530  -1.040   4.537  1.8764  0.0765  3.5864
  418MOL0     H55124   2.696  -1.041   4.526 -1.3825 -2.7981 -1.5300
  418MOL0     H55125   2.662  -0.905   4.296 -1.1513 -0.0059 -2.1330
  418MOL0     H55126   2.634  -1.082   4.309 -3.1114 -0.4759 -0.7737
  418MOL0     H55127   2.406  -0.889   4.312 -0.7321 -0.0292 -0.3045
  418MOL0     H55128   2.397  -1.062   4.332  0.4576 -3.1870 -5.1966
  418MOL0     H55129   2.508  -0.806   4.076 -2.0222  0.5945  1.1029
  418MOL0     H55130   2.432  -0.903   3.775 -0.8955 -2.3956  0.5650
  418MOL0     H55131   2.598  -0.991   3.763 -0.1854  1.5531 -1.6972
  418MOL0     H55132   2.710  -0.814   3.868 -0.6079 -2.7698  1.6138
  418MOL0     H55133   2.559  -0.721   3.874  1.3323 -0.0869  0.1866
  418MOL0     H55134   2.689  -0.828   3.622  1.8015  0.4694  1.2648
  418MOL0     H55135   2.526  -0.737   3.639 -1.0314 -1.8373 -1.7828
  418MOL0     H55136   2.802  -0.627   3.711  0.3095 -0.3732 -2.3344
  418MOL0     H55137   2.645  -0.540   3.732 -0.2705  0.8743 -0.3061
  418MOL0     H55138   2.644  -0.695   3.333  1.7164  2.0914  1.0728
  418MOL0     H55139   2.462  -0.636   3.186 -1.1209 -2.2242  0.5369
  418MOL0     H55140   2.111  -0.277   3.024  1.5334 -0.3777 -0.5206
  418MOL0     H55141   1.931  -0.286   2.875  0.0112 -1.0566  0.1921
  418MOL0     H55142   1.782  -0.299   2.723  1.1595  0.9914  0.3830
  418MOL0     H55143   1.699  -0.382   2.860 -0.6049 -2.5210 -0.5211
  418MOL0     H55144   1.537  -0.362   2.693 -0.4099 -0.5307 -3.2297
  418MOL0     H55145   1.594  -0.534   2.705  1.2892 -1.1856 -1.1283
  418MOL0     H55146   1.705  -0.498   2.489  0.3689  1.6939 -1.1663
  418MOL0     H55147   1.659  -0.325   2.488 -0.7359 -0.0587 -0.8809
  418MOL0     H55148   1.458  -0.550   2.496 -1.8153 -0.3143 -2.7026
  418MOL0     H55149   1.420  -0.373   2.491 -1.2056 -1.8121  1.8017
  418MOL0     H55150   1.586  -0.544   2.290  0.8690  0.1116  0.3959
  418MOL0     H55151   1.531  -0.382   2.242  1.2867 -0.5696 -0.1524
  418MOL0     H55152   1.289  -0.467   2.282  0.1690 -0.7590  2.5227
  418MOL0     H55153   1.366  -0.621   2.271  0.6884  0.0935 -2.3115
  418MOL0     H55154   1.410  -0.435   2.031  1.4934 -0.9261 -1.5214
  418MOL0     H55155   1.423  -0.610   2.036 -2.9950 -0.2492 -0.8089
  418MOL0     H55156   1.215  -0.548   1.931  3.0131  2.1529 -0.7321
  418MOL0     H55157   1.186  -0.441   2.075  1.0397 -0.9854 -0.1641
  418MOL0     H55158   1.970  -0.699   2.821 -0.1139 -1.3091  2.5084
  418MOL0     H55159   2.176  -0.700   2.954 -2.9215 -1.3761  2.9754
  418MOL0     H55160   2.343  -0.309   3.451  1.0224  0.3713 -2.3855
  418MOL0     H55161   2.549  -0.364   3.592 -1.6001  0.1755  0.3886
  418MOL0     H55162   2.719  -0.381   5.165 -1.2248  0.0390  0.6707
  418MOL0     H55163   2.709  -0.166   5.294  0.4402  0.6132  0.3827
  418MOL0     H55164   2.588   0.429   5.106  1.6502 -0.2253  0.0740
  418MOL0     H55165   2.540   0.620   5.252 -1.2374  0.2631  0.4484
  418MOL0     H55166   2.414   0.793   5.536  1.6307  1.9504  0.8268
  418MOL0     H55167   2.507   0.774   5.400 -0.6801  2.0446  2.0331
  418MOL0     H55168   2.711   0.715   5.553 -0.8730 -5.4694  3.8369
  418MOL0     H55169   2.632   0.870   5.610 -2.2808  0.4831  0.2796
  418MOL0     H55170   2.641   0.586   5.717  2.9730  0.4934 -0.3677
  418MOL0     H55171   2.498   0.690   5.752  0.1726 -0.1617  2.7572
  418MOL0     H55172   2.784   0.793   5.805  0.9063 -1.9981  2.0949
  418MOL0     H55173   2.626   0.851   5.869  0.4712  0.0526  0.8226
  418MOL0     H55174   2.748   0.557   6.138  0.8708  1.2628 -0.3863
  418MOL0     H55175   2.492   0.353   5.583  0.1199  2.4386 -0.3450
  418MOL0     H55176   2.575   0.171   5.456 -1.1894  0.2925  0.7151
  419MOL0     O55177  11.004  11.245   5.911  0.6140  0.2641 -0.5269
  419MOL0     C55178  11.000  11.219   6.034  0.0929  0.4051  0.1927
  419MOL0     O55179  11.100  11.241   6.116 -0.2417  0.0578  0.0107
  419MOL0     C55180  11.186  11.334   6.079  0.8284 -0.3415 -0.3837
  419MOL0     C55181  11.171  11.468   6.123 -0.1554 -0.4786  0.1792
  419MOL0     C55182  11.274  11.562   6.099 -0.3370 -0.3399 -0.0536
  419MOL0     C55183  11.394  11.512   6.048 -0.5058 -0.2878 -0.5864
  419MOL0     O55184  11.501  11.596   6.038 -0.4615 -0.1584 -0.5968
  419MOL0     C55185  11.533  11.699   6.130  0.0730 -0.7494  0.0816
  419MOL0     C55186  11.674  11.753   6.097 -0.6453 -0.5445  0.6788
  419MOL0     C55187  11.669  11.818   5.960  0.2609  0.6600 -0.0534
  419MOL0     C55188  11.796  11.875   5.899  0.5907 -0.3713 -0.9464
  419MOL0     C55189  11.786  11.925   5.753 -0.6256  0.9014 -0.8001
  419MOL0     C55190  11.875  12.028   5.691 -0.6604 -0.2973 -1.2219
  419MOL0     C55191  12.027  12.011   5.734 -0.3053 -1.2185  0.3633
  419MOL0     C55192  12.091  11.881   5.672 -0.1144  0.2989 -1.3933
  419MOL0     N55193  12.115  11.903   5.536 -0.4642 -0.3987  1.0402
  419MOL0     C55194  12.028  11.895   5.427 -0.1203 -0.3733  0.4100
  419MOL0     C55195  12.108  11.873   5.323 -0.0623  1.6034 -0.2064
  419MOL0     C55196  12.051  11.841   5.183 -1.2439 -0.3987  0.3695
  419MOL0     C55197  11.908  11.878   5.145 -0.5736 -0.7850  0.6577
  419MOL0     C55198  11.884  11.845   4.990 -0.3954  0.6458 -0.3132
  419MOL0     C55199  11.927  11.970   4.907  0.1724  0.3744  0.5179
  419MOL0     O55200  11.925  11.940   4.773  0.0886 -0.0822  0.1637
  419MOL0     C55201  12.037  11.897   4.706  0.1936 -0.3567 -0.1453
  419MOL0     C55202  12.031  11.900   4.565  0.2668 -0.5176 -0.1734
  419MOL0     C55203  12.128  11.839   4.485 -1.3868 -0.1194 -1.0383
  419MOL0     C55204  12.264  11.814   4.545  0.5139 -0.5622 -0.7018
  419MOL0     C55205  12.378  11.774   4.462 -0.1127  0.2855 -1.3905
  419MOL0     O55206  12.497  11.785   4.526  0.0808 -0.3999 -0.5492
  419MOL0     C55207  12.612  11.772   4.460 -0.2511  0.0257 -0.1845
  419MOL0     C55208  12.711  11.711   4.533  0.5424 -0.3868  0.0548
  419MOL0     C55209  12.827  11.674   4.488 -0.2334 -0.4593 -0.1054
  419MOL0     C55210  12.866  11.716   4.363 -0.4384  0.0804  0.2651
  419MOL0     O55211  12.981  11.670   4.304 -0.6815  0.4380  0.4059
  419MOL0     C55212  13.075  11.769   4.327 -0.2257  0.2060  0.4895
  419MOL0     C55213  13.216  11.755   4.260 -0.9886 -0.8161  0.1387
  419MOL0     C55214  13.279  11.623   4.261  1.0292  0.5175 -0.3884
  419MOL0     C55215  13.410  11.637   4.185 -0.0483 -0.8537 -0.5631
  419MOL0     C55216  13.470  11.496   4.170  0.1517  0.6234 -0.1057
  419MOL0     C55217  13.507  11.425   4.295 -0.3022 -0.8105 -0.3422
  419MOL0     C55218  13.626  11.500   4.369  0.8685  0.0708 -0.4490
  419MOL0     C55219  13.751  11.563   4.280  0.1497  0.6847 -0.0318
  419MOL0    Cl55220  13.843  11.439   4.197  0.0402  0.2997 -0.3043
  419MOL0     C55221  12.775  11.786   4.280  0.5869  0.1135  0.2694
  419MOL0     C55222  12.652  11.807   4.335  0.2419  0.5287  0.0166
  419MOL0     O55223  12.364  11.746   4.347  0.5365  0.2082 -0.5732
  419MOL0     C55224  12.274  11.812   4.683  0.1877 -0.0077 -0.7259
  419MOL0     C55225  12.159  11.853   4.765  0.1521 -0.6030  0.2445
  419MOL0     N55226  12.241  11.869   5.365  0.0842 -1.0783 -0.3266
  419MOL0     N55227  12.248  11.895   5.491  0.5198  0.4616 -0.5732
  419MOL0     C55228  11.409  11.379   6.008  0.7971  0.5304  0.3413
  419MOL0     C55229  11.307  11.290   6.022  0.7796 -0.2767  0.0382
  419MOL0     C55230  10.871  11.170   6.091  0.0755  0.6392  1.0455
  419MOL0     C55231  10.857  11.177   6.228  0.0459  0.1088 -0.1480
  419MOL0     C55232  10.737  11.147   6.286 -0.6031  1.0982 -0.1687
  419MOL0     C55233  10.634  11.096   6.215 -0.3913 -0.4209 -0.3591
  419MOL0     O55234  10.527  11.070   6.287 -0.4772  0.1269 -0.5394
  419MOL0     C55235  10.406  11.032   6.229  0.8833  0.3672  0.3716
  419MOL0     C55236  10.306  11.000   6.343  0.9038 -0.2820  0.1458
  419MOL0     C55237  10.197  10.909   6.287  0.7360 -1.4595 -0.1164
  419MOL0     C55238  10.073  10.936   6.360  0.6976  0.6211 -0.3182
  419MOL0     C55239   9.970  11.008   6.287  0.2266 -0.8271  0.0236
  419MOL0     C55240   9.865  11.043   6.239 -0.4310 -0.2014  0.3738
  419MOL0     C55241  10.641  11.085   6.074  0.1996  0.1312  0.5366
  419MOL0     C55242  10.763  11.123   6.013  0.4482  0.4141  0.2003
  419MOL0     H55243  11.081  11.496   6.177 -0.8416 -2.6354  0.2434
  419MOL0     H55244  11.263  11.667   6.122  0.4658  0.0328 -1.3013
  419MOL0     H55245  11.518  11.665   6.233 -2.6970 -0.3293 -0.1211
  419MOL0     H55246  11.459  11.774   6.104 -1.4959 -1.7955  1.3224
  419MOL0     H55247  11.750  11.675   6.100 -1.3833 -1.3902 -1.1355
  419MOL0     H55248  11.705  11.832   6.166  2.0102 -0.3525 -0.6169
  419MOL0     H55249  11.591  11.893   5.971  0.0575  0.9437 -2.7396
  419MOL0     H55250  11.638  11.750   5.880  2.3700 -1.0451  0.4813
  419MOL0     H55251  11.831  11.963   5.954 -4.0536  3.2589 -3.1041
  419MOL0     H55252  11.861  11.787   5.901  1.0997 -0.0014 -0.6851
  419MOL0     H55253  11.684  11.964   5.747 -1.3779 -0.2076  2.5967
  419MOL0     H55254  11.794  11.839   5.685  1.2302  0.3734  0.0017
  419MOL0     H55255  11.855  12.127   5.733 -1.2862 -0.6919 -0.5824
  419MOL0     H55256  11.859  12.028   5.582 -3.7832 -1.8868 -0.8646
  419MOL0     H55257  12.074  12.102   5.698  1.0620 -2.2542 -0.5555
  419MOL0     H55258  12.039  12.011   5.843 -0.9620  3.9094  0.6752
  419MOL0     H55259  12.026  11.795   5.686 -1.3464  1.7126  3.7780
  419MOL0     H55260  12.182  11.858   5.728 -1.9473 -0.0811  1.7066
  419MOL0     H55261  11.920  11.898   5.424 -0.1929  4.1593 -2.2426
  419MOL0     H55262  12.058  11.734   5.164 -0.3199 -0.2931  0.0442
  419MOL0     H55263  12.115  11.887   5.107 -1.1202 -1.5288 -0.2382
  419MOL0     H55264  11.888  11.985   5.158 -1.0736 -0.0432 -4.2500
  419MOL0     H55265  11.836  11.821   5.205  1.8237 -2.8416  1.7809
  419MOL0     H55266  11.957  11.771   4.955  0.8645  2.7179 -2.3248
  419MOL0     H55267  11.777  11.829   4.970 -1.2782  2.0412  2.7384
  419MOL0     H55268  12.019  12.017   4.943  1.1801 -0.4151 -0.9468
  419MOL0     H55269  11.854  12.046   4.935 -0.4315 -1.2639  3.9128
  419MOL0     H55270  11.942  11.943   4.522 -2.0152 -2.9359  1.7762
  419MOL0     H55271  12.114  11.840   4.377  0.7800 -4.2114 -1.5727
  419MOL0     H55272  12.688  11.691   4.637  1.1895 -1.3282  0.0323
  419MOL0     H55273  12.898  11.616   4.548  0.5707 -0.6859 -1.2401
  419MOL0     H55274  13.094  11.762   4.434  0.2032 -1.6493  0.3326
  419MOL0     H55275  13.029  11.866   4.310 -3.0631 -1.1834 -0.2929
  419MOL0     H55276  13.286  11.817   4.316 -0.0855 -4.2770  3.2352
  419MOL0     H55277  13.212  11.782   4.154 -0.3459 -0.4695  0.1994
  419MOL0     H55278  13.203  11.553   4.224 -1.7625  0.0870  5.1490
  419MOL0     H55279  13.292  11.587   4.364  1.3737 -1.2285 -1.0024
  419MOL0     H55280  13.394  11.686   4.089 -2.0362  1.9026  1.0312
  419MOL0     H55281  13.478  11.699   4.244  3.0061 -2.0169 -2.6394
  419MOL0     H55282  13.558  11.491   4.105  0.5560 -1.0345  0.5271
  419MOL0     H55283  13.403  11.431   4.113 -0.5263  3.3767 -2.7676
  419MOL0     H55284  13.552  11.331   4.262 -0.5283 -1.1887  0.3787
  419MOL0     H55285  13.419  11.402   4.356 -1.5573 -0.0343 -1.7852
  419MOL0     H55286  13.579  11.572   4.437  0.6077 -0.3458 -0.1838
  419MOL0     H55287  13.674  11.432   4.439  1.8971  2.7814  1.6687
  419MOL0     H55288  13.819  11.609   4.352  0.2558  0.9479 -0.3004
  419MOL0     H55289  13.707  11.641   4.218 -1.6867  0.8386  1.3537
  419MOL0     H55290  12.799  11.841   4.190 -2.6463  2.1155  0.4529
  419MOL0     H55291  12.581  11.871   4.284 -1.1533  0.3254  1.6432
  419MOL0     H55292  12.365  11.795   4.739 -1.4713 -2.1947  1.5031
  419MOL0     H55293  12.182  11.853   4.871 -2.6820 -1.3517  0.9651
  419MOL0     H55294  11.501  11.341   5.964 -0.3584 -1.1099 -0.7844
  419MOL0     H55295  11.318  11.190   5.983  4.7366 -0.5614  1.3947
  419MOL0     H55296  10.942  11.204   6.290  1.8879 -3.9477 -0.6025
  419MOL0     H55297  10.729  11.156   6.394  1.1032  4.6885 -0.1798
  419MOL0     H55298  10.411  10.947   6.160 -2.0492  1.2542 -1.0600
  419MOL0     H55299  10.371  11.116   6.168  1.0245 -0.7394 -1.3073
  419MOL0     H55300  10.356  10.952   6.428 -0.4261 -0.3428  0.9241
  419MOL0     H55301  10.268  11.096   6.377  0.5771 -0.2992 -0.1632
  419MOL0     H55302  10.226  10.806   6.310 -0.4756 -1.5773  1.0302
  419MOL0     H55303  10.184  10.921   6.179 -1.9639  2.3304  0.4568
  419MOL0     H55304  10.038  10.840   6.399  0.9979  0.8232  0.4724
  419MOL0     H55305  10.086  10.992   6.453  1.4670 -0.0860  0.0112
  419MOL0     H55306   9.785  11.078   6.177  0.1038  0.0774 -0.1669
  419MOL0     H55307  10.559  11.045   6.015  1.1611 -1.7692  0.3952
  419MOL0     H55308  10.753  11.117   5.905 -5.6536 -2.6078  0.5184
  420MOL0     O55309   2.225  10.765   6.273 -0.2148 -0.1503  0.4744
  420MOL0     C55310   2.121  10.818   6.309  1.0927  0.2102 -0.1882
  420MOL0     O55311   2.096  10.863   6.430  0.1694 -0.3602 -0.4659
  420MOL0     C55312   2.181  10.819   6.527 -0.2668 -0.2968  0.1137
  420MOL0     C55313   2.196  10.673   6.545  0.9982 -0.3256 -0.2347
  420MOL0     C55314   2.273  10.622   6.648 -0.2399  0.7192  0.1778
  420MOL0     C55315   2.348  10.711   6.724 -0.5630 -0.0374 -1.2591
  420MOL0     O55316   2.420  10.674   6.837 -0.7244 -0.3804  0.0064
  420MOL0     C55317   2.487  10.551   6.823 -0.2519  0.7293  0.0774
  420MOL0     C55318   2.558  10.500   6.947  0.6896 -0.1517 -0.0426
  420MOL0     C55319   2.641  10.385   6.917  0.0557  0.4533 -0.7366
  420MOL0     C55320   2.693  10.320   7.045  0.7264  0.4234  0.2200
  420MOL0     C55321   2.751  10.181   7.027  0.5916  0.7457 -0.5370
  420MOL0     C55322   2.867  10.156   6.931 -0.0708  0.3549 -0.1568
  420MOL0     C55323   3.003  10.193   6.990  0.2250 -0.2167  0.7661
  420MOL0     C55324   3.084  10.084   7.067 -0.4239 -0.1170 -0.2990
  420MOL0     N55325   3.010  10.053   7.194 -0.3722  1.3694  0.0332
  420MOL0     C55326   3.043  10.121   7.311  0.3801  0.1027 -0.3545
  420MOL0     C55327   2.973  10.046   7.401  0.2216 -0.0135  0.0072
  420MOL0     C55328   2.941  10.082   7.541  0.9575 -0.8611 -0.2314
  420MOL0     C55329   3.052  10.028   7.625  0.2617  0.1320 -0.5433
  420MOL0     C55330   3.006  10.029   7.766  0.2758  0.3665 -0.6177
  420MOL0     C55331   3.115   9.990   7.867  0.5541 -0.5032  0.9968
  420MOL0     O55332   3.201  10.101   7.882 -0.6964  0.3404  0.3881
  420MOL0     C55333   3.311  10.075   7.955 -0.2256 -0.3585  0.0859
  420MOL0     C55334   3.407  10.182   7.952 -0.6176  0.0922  0.7791
  420MOL0     C55335   3.520  10.183   8.030  0.0641 -0.1386 -1.2161
  420MOL0     C55336   3.557  10.072   8.105 -0.1474 -0.3002 -0.2913
  420MOL0     C55337   3.685  10.065   8.175 -0.5492  0.2995 -0.2389
  420MOL0     O55338   3.797  10.130   8.130  0.6283 -0.4043  0.2015
  420MOL0     C55339   3.900  10.141   8.216 -0.1654 -0.6078 -0.4646
  420MOL0     C55340   4.027  10.103   8.169 -0.5156 -0.1426 -0.9796
  420MOL0     C55341   4.140  10.103   8.249 -0.7868 -0.5620 -0.0875
  420MOL0     C55342   4.132  10.165   8.375 -0.5201  0.1248 -0.2256
  420MOL0     O55343   4.247  10.184   8.444 -0.2517  0.1356  0.2459
  420MOL0     C55344   4.265  10.266   8.555 -0.2813  0.4628 -0.4609
  420MOL0     C55345   4.369  10.366   8.518 -0.1833  0.0625  0.4218
  420MOL0     C55346   4.518  10.320   8.536  1.1928  0.2884  0.0799
  420MOL0     C55347   4.614  10.418   8.483 -0.1901 -1.0298 -0.8577
  420MOL0     C55348   4.624  10.557   8.567 -0.6907 -0.3713 -0.2037
  420MOL0     C55349   4.732  10.650   8.522  0.2950 -0.5122  0.6976
  420MOL0     C55350   4.735  10.683   8.372  0.1682  1.0185 -0.3759
  420MOL0     C55351   4.616  10.771   8.339  0.6501  0.0141 -0.0554
  420MOL0    Cl55352   4.632  10.806   8.162 -0.2465  0.0653  0.2236
  420MOL0     C55353   4.002  10.205   8.424  0.6688 -0.4911 -0.6980
  420MOL0     C55354   3.891  10.184   8.351  0.3728 -0.1948  0.1742
  420MOL0     O55355   3.689   9.990   8.274  0.6985  0.1914  0.5097
  420MOL0     C55356   3.472   9.961   8.104 -0.9693  0.2140  0.4306
  420MOL0     C55357   3.350   9.969   8.040  1.0155 -0.4251 -0.2012
  420MOL0     N55358   2.914   9.940   7.335 -0.3944  1.0061 -0.6867
  420MOL0     N55359   2.939   9.942   7.213  0.1134  0.3406 -0.3100
  420MOL0     C55360   2.327  10.853   6.708  0.2317  0.0011 -0.4604
  420MOL0     C55361   2.253  10.908   6.609  0.5416 -0.1155  0.3536
  420MOL0     C55362   2.015  10.835   6.205  0.9184 -0.5420  0.0499
  420MOL0     C55363   2.013  10.757   6.089  0.5386 -0.1686 -0.5358
  420MOL0     C55364   1.907  10.772   5.988 -0.4576 -1.3004  0.4449
  420MOL0     C55365   1.808  10.871   5.998  0.5877 -1.1262  0.4914
  420MOL0     O55366   1.719  10.876   5.893  0.5273  0.2946  0.4595
  420MOL0     C55367   1.608  10.956   5.919 -0.3318 -0.4715  0.2272
  420MOL0     C55368   1.498  10.927   5.825  1.5386 -0.8667  0.5244
  420MOL0     C55369   1.374  11.008   5.858  0.4057 -0.2880  0.0077
  420MOL0     C55370   1.248  10.956   5.786  0.5132 -0.2192  0.7386
  420MOL0     C55371   1.251  10.992   5.639 -0.7210 -0.2449  0.6904
  420MOL0     C55372   1.252  11.007   5.516  0.0483  0.8246  0.2888
  420MOL0     C55373   1.808  10.947   6.113 -0.6136  0.3988  0.7180
  420MOL0     C55374   1.901  10.931   6.218 -0.5911  0.8766 -0.4902
  420MOL0     H55375   2.133  10.619   6.474  0.2322  0.1698  0.0616
  420MOL0     H55376   2.246  10.520   6.672 -3.1904  1.4739  0.4477
  420MOL0     H55377   2.553  10.559   6.736  2.9184 -1.5967  2.0438
  420MOL0     H55378   2.408  10.478   6.805  0.0840  0.6192 -1.0457
  420MOL0     H55379   2.473  10.477   7.012 -0.7399  3.8354 -0.2242
  420MOL0     H55380   2.619  10.576   6.997  1.1688 -1.3826  1.2983
  420MOL0     H55381   2.717  10.424   6.848 -0.7987  2.2783 -0.7086
  420MOL0     H55382   2.587  10.304   6.868  2.2246  0.0418 -2.6238
  420MOL0     H55383   2.769  10.382   7.093 -0.1928  2.6426 -1.0328
  420MOL0     H55384   2.616  10.311   7.123 -1.4741  1.0330 -1.7766
  420MOL0     H55385   2.673  10.115   6.986 -0.0473  0.5140  1.0078
  420MOL0     H55386   2.772  10.147   7.129  0.0523 -4.1192 -1.7900
  420MOL0     H55387   2.839  10.213   6.842 -0.0761 -1.4631 -1.3857
  420MOL0     H55388   2.878  10.048   6.918 -0.6529  0.4083 -1.2900
  420MOL0     H55389   3.068  10.234   6.912 -1.8354 -1.6475 -1.8871
  420MOL0     H55390   2.984  10.278   7.055 -1.1737  0.1365 -0.0736
  420MOL0     H55391   3.182  10.125   7.092 -1.3844  1.0785  1.8240
  420MOL0     H55392   3.094   9.997   7.001 -2.1450 -1.6163  1.2837
  420MOL0     H55393   3.096  10.207   7.349 -1.4900  1.1566  0.0015
  420MOL0     H55394   2.849  10.033   7.573  0.4945  1.1034  1.6781
  420MOL0     H55395   2.923  10.190   7.543  2.0247 -0.6583  2.5871
  420MOL0     H55396   3.137  10.093   7.606 -0.0746 -0.0295 -2.7675
  420MOL0     H55397   3.070   9.923   7.599  2.0291  0.6282 -1.4615
  420MOL0     H55398   2.967  10.127   7.792 -1.4366  0.0602 -1.8926
  420MOL0     H55399   2.925   9.957   7.781  0.1300  0.1375 -2.3738
  420MOL0     H55400   3.164   9.900   7.829 -2.0469 -0.8410 -1.9233
  420MOL0     H55401   3.069   9.969   7.965 -0.0532 -1.3295  0.5550
  420MOL0     H55402   3.371  10.270   7.899 -1.1864 -1.0287 -0.7623
  420MOL0     H55403   3.590  10.266   8.032  4.3235 -3.3804  0.3585
  420MOL0     H55404   4.019  10.070   8.066 -0.8740 -2.2173 -0.3338
  420MOL0     H55405   4.224  10.039   8.222 -1.5066 -1.0850 -1.1647
  420MOL0     H55406   4.292  10.207   8.643  0.7900  2.5719  0.6910
  420MOL0     H55407   4.175  10.316   8.592 -0.4621 -0.0492 -0.1954
  420MOL0     H55408   4.350  10.432   8.603 -3.4388  0.0694 -0.1668
  420MOL0     H55409   4.351  10.419   8.425 -1.0397  1.9144  1.5775
  420MOL0     H55410   4.527  10.221   8.490 -0.8105 -0.4303  1.1267
  420MOL0     H55411   4.529  10.303   8.643  1.1286 -1.0414 -0.1060
  420MOL0     H55412   4.714  10.374   8.489  0.2633 -0.2245 -2.2001
  420MOL0     H55413   4.600  10.435   8.376  0.1893 -1.3845 -0.9662
  420MOL0     H55414   4.657  10.540   8.670  2.3080  1.2020 -0.7801
  420MOL0     H55415   4.528  10.610   8.575  0.2493  2.0615 -3.0526
  420MOL0     H55416   4.818  10.588   8.547  1.0230 -1.0713 -2.6538
  420MOL0     H55417   4.721  10.745   8.575 -2.5262 -1.7842  2.6463
  420MOL0     H55418   4.826  10.739   8.350  0.4216  1.3284  1.2964
  420MOL0     H55419   4.741  10.588   8.319  1.3598  0.2104  1.1274
  420MOL0     H55420   4.608  10.868   8.389  0.0119  0.1225 -0.3499
  420MOL0     H55421   4.522  10.717   8.352 -0.3003  0.6537 -3.2976
  420MOL0     H55422   3.993  10.237   8.527  0.0730 -3.1978  0.1554
  420MOL0     H55423   3.794  10.210   8.391  0.5027  1.8350 -0.6957
  420MOL0     H55424   3.479   9.861   8.146 -0.6389 -0.5191 -1.2844
  420MOL0     H55425   3.270   9.897   8.050  1.4872 -1.1024 -1.1866
  420MOL0     H55426   2.368  10.911   6.790 -1.1403 -0.2510  0.4352
  420MOL0     H55427   2.238  11.016   6.610  0.3740 -0.0406  4.2641
  420MOL0     H55428   2.096  10.688   6.075  1.4543  0.5629  0.9669
  420MOL0     H55429   1.924  10.708   5.902  2.6273 -1.8293  1.3300
  420MOL0     H55430   1.633  11.062   5.915 -2.0903  0.1461  2.9764
  420MOL0     H55431   1.566  10.934   6.017  2.4817 -0.4295  1.5312
  420MOL0     H55432   1.524  10.948   5.721  0.6808 -3.3138 -0.2488
  420MOL0     H55433   1.472  10.821   5.831 -1.3083 -0.1903  2.0941
  420MOL0     H55434   1.393  11.114   5.838 -0.4760 -0.4688 -2.0276
  420MOL0     H55435   1.362  11.010   5.967  1.2326  0.4108  0.0958
  420MOL0     H55436   1.245  10.848   5.802  0.6295 -0.0766  1.8258
  420MOL0     H55437   1.159  11.007   5.826  3.4355  2.4985  4.5395
  420MOL0     H55438   1.256  11.010   5.409 -3.4860 -0.9892 -0.0684
  420MOL0     H55439   1.727  11.016   6.131 -0.1675  0.7450  1.4055
  420MOL0     H55440   1.886  10.988   6.309 -1.0443 -2.1885  1.5197
  421MOL0     O55441   6.122   2.354   9.158  0.2678  0.4175  0.1428
  421MOL0     C55442   6.115   2.284   9.053 -0.1054 -0.5302 -1.4609
  421MOL0     O55443   6.175   2.160   9.035 -0.3644 -0.5013  0.0492
  421MOL0     C55444   6.272   2.123   9.130 -0.9808  0.1365 -0.9301
  421MOL0     C55445   6.375   2.204   9.187  0.6875  0.2485 -0.6782
  421MOL0     C55446   6.460   2.166   9.298  0.9838 -0.3106  0.3557
  421MOL0     C55447   6.453   2.038   9.346 -0.5652  0.2929  0.0406
  421MOL0     O55448   6.536   1.988   9.439  0.3297 -0.3007 -0.0260
  421MOL0     C55449   6.467   1.946   9.555  0.3380  0.6125 -0.5151
  421MOL0     C55450   6.571   1.921   9.667 -0.1532  0.2404  0.0520
  421MOL0     C55451   6.631   1.772   9.669 -0.9006 -0.7544  0.3652
  421MOL0     C55452   6.695   1.734   9.804  0.1762 -0.1965 -0.4438
  421MOL0     C55453   6.744   1.590   9.808  0.1976  0.3098  0.1972
  421MOL0     C55454   6.873   1.562   9.722  0.4914  1.4974  0.3819
  421MOL0     C55455   6.904   1.414   9.715 -0.0102  0.0077 -0.8128
  421MOL0     C55456   7.057   1.377   9.676 -0.6448  0.0199 -0.1614
  421MOL0     N55457   7.082   1.232   9.636  0.3798 -0.3229  0.8589
  421MOL0     C55458   7.113   1.128   9.723  1.0254  0.5233 -0.3625
  421MOL0     C55459   7.111   1.008   9.661  0.7842 -0.5050 -0.0919
  421MOL0     C55460   7.141   0.874   9.720 -0.0056 -1.0027 -0.5757
  421MOL0     C55461   7.297   0.860   9.742 -0.4403  0.6166  0.3705
  421MOL0     C55462   7.312   0.790   9.881 -0.3326 -0.0633 -0.6406
  421MOL0     C55463   7.252   0.648   9.885 -0.1072  0.5224  0.4213
  421MOL0     O55464   7.332   0.584   9.785  0.4749  0.4198  0.5587
  421MOL0     C55465   7.285   0.462   9.749  0.3803  0.2612  0.7095
  421MOL0     C55466   7.208   0.451   9.632  0.5027 -0.2764  0.3998
  421MOL0     C55467   7.129   0.340   9.616  0.8911  0.5143 -0.0998
  421MOL0     C55468   7.141   0.228   9.693  0.3590  0.0991  0.3911
  421MOL0     C55469   7.057   0.100   9.687  0.3422  0.4336  0.8840
  421MOL0     O55470   6.937   0.118   9.619  0.3959  0.1917 -0.4531
  421MOL0     C55471   6.838   0.030   9.584  0.4612  1.0942  0.5356
  421MOL0     C55472   6.811  -0.092   9.654 -0.8963  0.3818  0.2577
  421MOL0     C55473   6.710  -0.182   9.602  0.8533 -0.6158 -0.0497
  421MOL0     C55474   6.627  -0.140   9.495 -0.3392 -0.7940  0.7322
  421MOL0     O55475   6.540  -0.226   9.432  0.0474 -0.1005  0.4856
  421MOL0     C55476   6.473  -0.321   9.510  0.1124  0.5357 -0.4408
  421MOL0     C55477   6.332  -0.334   9.466 -0.5345  0.8104 -0.2099
  421MOL0     C55478   6.243  -0.461   9.506 -0.5876 -0.3235 -0.1957
  421MOL0     C55479   6.307  -0.543   9.621  1.0087  0.8370 -0.3957
  421MOL0     C55480   6.217  -0.639   9.697  0.7163 -0.0277 -0.1720
  421MOL0     C55481   6.285  -0.719   9.809 -0.1840  1.0209  0.1242
  421MOL0     C55482   6.426  -0.660   9.850  0.6943  0.8928 -0.3130
  421MOL0     C55483   6.513  -0.780   9.921  0.1754 -1.0532 -0.2376
  421MOL0    Cl55484   6.461  -0.805  10.081  0.1456  0.0933  0.1209
  421MOL0     C55485   6.649  -0.009   9.441  0.6180 -0.2257 -0.0043
  421MOL0     C55486   6.754   0.067   9.479 -0.6014 -0.2238  0.1190
  421MOL0     O55487   7.090  -0.004   9.744  0.0733 -0.0019  0.5358
  421MOL0     C55488   7.246   0.225   9.781 -0.8399 -0.0566 -0.2140
  421MOL0     C55489   7.309   0.341   9.817  0.0980 -0.3512  0.9341
  421MOL0     N55490   7.094   1.052   9.521  0.0580 -1.3640 -1.1634
  421MOL0     N55491   7.084   1.185   9.517 -0.1842  0.2636  0.9686
  421MOL0     C55492   6.369   1.950   9.271  0.2101  0.2061 -0.2277
  421MOL0     C55493   6.274   1.989   9.168 -0.0081 -1.6439  0.2679
  421MOL0     C55494   6.029   2.346   8.945 -0.5461 -1.2190 -0.5703
  421MOL0     C55495   5.981   2.478   8.970 -0.4316 -0.0358  0.3482
  421MOL0     C55496   5.913   2.542   8.869 -0.6084 -0.4790  0.2240
  421MOL0     C55497   5.892   2.487   8.736  0.3745 -0.8022  0.4611
  421MOL0     O55498   5.826   2.548   8.629 -0.4040  0.4103  0.4535
  421MOL0     C55499   5.708   2.623   8.666  0.3198  0.5457  0.4769
  421MOL0     C55500   5.620   2.657   8.543  0.4101 -0.0435 -0.4507
  421MOL0     C55501   5.535   2.542   8.499  0.4314 -0.4750 -0.4658
  421MOL0     C55502   5.626   2.439   8.419  0.9724 -0.5179 -0.5945
  421MOL0     C55503   5.538   2.336   8.369  0.6525 -0.1963 -0.3754
  421MOL0     C55504   5.475   2.241   8.325  0.1205  0.2018  0.5086
  421MOL0     C55505   5.943   2.363   8.720 -0.5241  0.1299 -0.2009
  421MOL0     C55506   6.010   2.297   8.820 -1.8528 -0.0974 -1.3407
  421MOL0     H55507   6.379   2.309   9.161  1.1575  0.9935  2.0646
  421MOL0     H55508   6.522   2.239   9.349 -0.1957 -0.4120  2.0094
  421MOL0     H55509   6.404   1.858   9.542 -1.1936  1.6728 -0.5060
  421MOL0     H55510   6.399   2.019   9.601 -2.8901 -3.0887  1.1371
  421MOL0     H55511   6.514   1.935   9.759 -0.6681 -2.1926  0.1600
  421MOL0     H55512   6.651   1.996   9.668  1.1464 -1.0994  1.4173
  421MOL0     H55513   6.686   1.753   9.577 -0.9420  1.4458 -0.1853
  421MOL0     H55514   6.543   1.707   9.663  0.2954 -2.2938 -1.8111
  421MOL0     H55515   6.786   1.789   9.829 -0.3290  0.1473  0.7384
  421MOL0     H55516   6.628   1.753   9.889 -1.8217  0.4284 -2.0819
  421MOL0     H55517   6.668   1.519   9.775  0.5315  0.4856 -0.9706
  421MOL0     H55518   6.778   1.576   9.911  0.7543  0.9530  0.1087
  421MOL0     H55519   6.958   1.620   9.759  1.8109  0.1363 -0.3832
  421MOL0     H55520   6.871   1.591   9.616 -1.3844 -0.5560 -0.2109
  421MOL0     H55521   6.905   1.382   9.819  0.4184  1.2425 -0.4111
  421MOL0     H55522   6.838   1.368   9.641 -0.1799  0.2980 -0.8443
  421MOL0     H55523   7.129   1.409   9.751  0.6921  2.7955 -2.4616
  421MOL0     H55524   7.076   1.436   9.586  1.9200  0.0207  0.3200
  421MOL0     H55525   7.139   1.122   9.829  3.4403 -2.5618 -1.0023
  421MOL0     H55526   7.114   0.802   9.642 -0.5212 -0.2066 -1.1498
  421MOL0     H55527   7.085   0.847   9.809  1.8069 -1.0600  0.5942
  421MOL0     H55528   7.349   0.956   9.734  0.2179  0.1449 -1.7803
  421MOL0     H55529   7.358   0.812   9.664  0.6601 -1.1437  2.2001
  421MOL0     H55530   7.417   0.789   9.910 -0.3395  0.9426 -0.5383
  421MOL0     H55531   7.255   0.848   9.954  1.5657  2.3925 -0.9927
  421MOL0     H55532   7.145   0.646   9.863 -0.1808 -1.6034  0.8021
  421MOL0     H55533   7.259   0.593   9.979 -2.6873 -3.6557 -1.5358
  421MOL0     H55534   7.214   0.537   9.566  2.8454  1.8523  3.0940
  421MOL0     H55535   7.052   0.336   9.540 -1.7042 -0.3157  2.4334
  421MOL0     H55536   6.863  -0.128   9.742  3.9877  0.6606 -2.1187
  421MOL0     H55537   6.705  -0.285   9.638  0.5552 -1.3304 -1.9950
  421MOL0     H55538   6.467  -0.285   9.613  1.5165  2.6837 -1.0487
  421MOL0     H55539   6.531  -0.414   9.505  0.4858  0.7464 -0.0591
  421MOL0     H55540   6.348  -0.332   9.358  1.5191 -2.0742 -0.0736
  421MOL0     H55541   6.261  -0.255   9.494 -1.8789  0.2350 -1.7889
  421MOL0     H55542   6.237  -0.530   9.422  0.1646 -0.0507 -0.4880
  421MOL0     H55543   6.145  -0.427   9.540 -0.7609  0.8148 -1.7343
  421MOL0     H55544   6.388  -0.608   9.585 -1.1438 -2.4162  0.1800
  421MOL0     H55545   6.340  -0.468   9.693 -0.8699 -0.4035  1.9099
  421MOL0     H55546   6.165  -0.712   9.634 -2.2663  1.2203  0.6691
  421MOL0     H55547   6.134  -0.574   9.724  1.4383  1.2229 -0.8458
  421MOL0     H55548   6.299  -0.823   9.778  3.5435  0.6798  2.2995
  421MOL0     H55549   6.214  -0.720   9.893 -1.1819  2.1404 -0.6590
  421MOL0     H55550   6.488  -0.638   9.763  0.3062 -1.4970 -1.2607
  421MOL0     H55551   6.416  -0.576   9.920  0.2947 -0.3269  1.1674
  421MOL0     H55552   6.622  -0.766   9.920  0.5439 -3.5256  0.2913
  421MOL0     H55553   6.491  -0.871   9.865 -0.7919 -1.0431  0.0988
  421MOL0     H55554   6.605   0.046   9.358 -2.9310 -1.7558  0.6508
  421MOL0     H55555   6.770   0.168   9.443  0.5415  0.7442  3.0669
  421MOL0     H55556   7.269   0.134   9.836  0.3319  2.1870  3.3015
  421MOL0     H55557   7.385   0.337   9.895 -0.3924  1.0142  1.5166
  421MOL0     H55558   6.367   1.849   9.309 -1.0964  0.3383  0.0952
  421MOL0     H55559   6.214   1.914   9.118 -1.1459 -1.2864  1.0564
  421MOL0     H55560   5.994   2.527   9.066  1.0004  1.5877 -0.6101
  421MOL0     H55561   5.890   2.647   8.882  1.5196 -0.0204  0.6047
  421MOL0     H55562   5.747   2.716   8.708  4.8190 -1.8975  2.4657
  421MOL0     H55563   5.656   2.570   8.746  3.1849 -3.0529  0.2321
  421MOL0     H55564   5.554   2.741   8.565 -1.7445 -1.3809 -1.4579
  421MOL0     H55565   5.679   2.682   8.454  1.8471 -1.2144  0.1236
  421MOL0     H55566   5.462   2.599   8.441  1.0329  1.0658  0.2485
  421MOL0     H55567   5.489   2.480   8.577  2.8254  1.7188  2.9910
  421MOL0     H55568   5.675   2.488   8.334 -0.7758 -1.5188 -2.2809
  421MOL0     H55569   5.702   2.394   8.483  3.0570  0.1931 -2.4126
  421MOL0     H55570   5.421   2.161   8.279  3.0413 -2.4968  1.4125
  421MOL0     H55571   5.925   2.308   8.628  0.1006 -2.7545  1.2757
  421MOL0     H55572   6.051   2.198   8.802  1.4417  0.7972  0.4561
  422MOL0     O55573   3.548   0.835   1.127 -0.0387  0.3412  0.7716
  422MOL0     C55574   3.664   0.813   1.098 -0.0277  0.3345  0.2748
  422MOL0     O55575   3.709   0.803   0.970  0.6127  0.7814  0.8593
  422MOL0     C55576   3.639   0.843   0.861 -0.3711  0.1987 -1.0143
  422MOL0     C55577   3.498   0.834   0.854  2.1005 -0.1086  0.3342
  422MOL0     C55578   3.419   0.890   0.752  0.7319  0.3112 -0.3651
  422MOL0     C55579   3.491   0.968   0.646  0.5525  0.0068 -0.9356
  422MOL0     O55580   3.422   1.046   0.561  0.5681  0.1617 -0.3080
  422MOL0     C55581   3.446   1.185   0.585  0.0031 -0.1410  0.2055
  422MOL0     C55582   3.305   1.264   0.570  0.3676  0.0745 -0.4476
  422MOL0     C55583   3.322   1.413   0.622  0.4605  0.4967 -0.0655
  422MOL0     C55584   3.414   1.495   0.540 -0.7236  1.2129  0.4652
  422MOL0     C55585   3.424   1.650   0.586  0.3268  0.9412 -0.0990
  422MOL0     C55586   3.538   1.726   0.510  0.4706  0.0798  0.0369
  422MOL0     C55587   3.525   1.874   0.550 -1.1547 -0.0378  0.5671
  422MOL0     C55588   3.567   1.975   0.446 -0.1531  0.3249 -0.3991
  422MOL0     N55589   3.710   2.000   0.437 -0.5283 -0.5152 -0.5491
  422MOL0     C55590   3.771   2.103   0.372  0.0553  0.1934 -0.7108
  422MOL0     C55591   3.908   2.079   0.381  0.2653  0.1199  1.0486
  422MOL0     C55592   4.013   2.184   0.339  0.6715 -0.0661 -0.2437
  422MOL0     C55593   4.043   2.187   0.191 -0.5436 -0.4395 -0.7424
  422MOL0     C55594   3.955   2.313   0.142 -0.7297 -0.2237 -0.3421
  422MOL0     C55595   3.993   2.319  -0.013  0.0355  0.8063 -0.2280
  422MOL0     O55596   3.912   2.414  -0.083  0.3048 -0.1437  0.6275
  422MOL0     C55597   3.953   2.550  -0.074  0.2400  0.0020 -0.0700
  422MOL0     C55598   4.054   2.608   0.005  0.2025  0.7258 -1.5214
  422MOL0     C55599   4.076   2.749   0.001  0.2840  0.1123 -0.2992
  422MOL0     C55600   4.016   2.824  -0.101  0.2486 -0.6067  0.3320
  422MOL0     C55601   4.064   2.969  -0.114 -0.2923  0.5468 -0.0164
  422MOL0     O55602   3.974   3.046  -0.185 -0.0278 -0.9311 -0.0129
  422MOL0     C55603   4.010   3.162  -0.246 -0.6109 -0.6308  0.2378
  422MOL0     C55604   4.139   3.210  -0.276  0.7865  0.0913  1.1447
  422MOL0     C55605   4.147   3.332  -0.344 -0.1533 -0.5101 -0.8117
  422MOL0     C55606   4.042   3.411  -0.383  0.5419  0.2370  0.9337
  422MOL0     O55607   4.063   3.538  -0.427 -0.1567  0.0290  0.8765
  422MOL0     C55608   3.979   3.595  -0.520 -1.2014 -0.5321 -0.0453
  422MOL0     C55609   4.073   3.704  -0.577  0.3040 -0.3116  0.0919
  422MOL0     C55610   4.011   3.788  -0.684 -0.4355  0.1520  0.4621
  422MOL0     C55611   3.968   3.701  -0.809 -0.0554 -0.8974  0.0218
  422MOL0     C55612   3.816   3.733  -0.854 -0.5159  0.1064 -1.1006
  422MOL0     C55613   3.715   3.685  -0.749 -0.1348  0.4161 -0.7595
  422MOL0     C55614   3.565   3.698  -0.796  0.3764 -0.9327 -0.2176
  422MOL0     C55615   3.458   3.632  -0.711 -0.2262  0.1498 -0.3228
  422MOL0    Cl55616   3.455   3.708  -0.551  0.3677  0.0336 -0.5059
  422MOL0     C55617   3.912   3.351  -0.379 -0.1428 -1.7089  0.2382
  422MOL0     C55618   3.905   3.233  -0.310  0.5307 -0.0136 -0.1178
  422MOL0     O55619   4.173   3.001  -0.069  0.3033  1.0076 -0.3933
  422MOL0     C55620   3.915   2.767  -0.182 -0.0049  0.8555 -0.2235
  422MOL0     C55621   3.899   2.628  -0.173  0.7913 -0.6770 -0.3252
  422MOL0     N55622   3.919   1.954   0.428  0.1553 -0.2559  0.4151
  422MOL0     N55623   3.805   1.912   0.460 -0.3447  0.0535 -0.1462
  422MOL0     C55624   3.632   0.968   0.651 -1.3358  1.0969  0.3387
  422MOL0     C55625   3.702   0.911   0.759 -1.0895  0.0427 -0.3506
  422MOL0     C55626   3.762   0.788   1.207 -0.2654  0.6526 -0.0163
  422MOL0     C55627   3.872   0.704   1.188  0.1846  0.1836 -0.1607
  422MOL0     C55628   3.970   0.686   1.289  0.9207  0.3229 -0.0753
  422MOL0     C55629   3.965   0.756   1.413  0.5437  0.1792 -0.4385
  422MOL0     O55630   4.068   0.735   1.497  0.1408 -0.3806 -0.0613
  422MOL0     C55631   4.084   0.807   1.615 -0.0920  0.0464  0.2552
  422MOL0     C55632   4.161   0.931   1.568 -0.0871  0.5590 -0.1480
  422MOL0     C55633   4.153   1.049   1.664 -0.9032 -0.6739  1.2685
  422MOL0     C55634   4.200   1.169   1.590  0.6920 -0.5599  1.0758
  422MOL0     C55635   4.185   1.286   1.674 -0.4036  0.6722  0.4829
  422MOL0     C55636   4.186   1.375   1.755  0.8060 -0.1829 -0.2134
  422MOL0     C55637   3.853   0.834   1.432  0.2293 -0.6753 -0.1427
  422MOL0     C55638   3.745   0.842   1.336 -0.1966 -0.4616  0.6391
  422MOL0     H55639   3.448   0.770   0.926  0.7820  0.4291 -0.0622
  422MOL0     H55640   3.311   0.875   0.747  0.5066  1.9415 -1.0868
  422MOL0     H55641   3.511   1.219   0.505  2.2112 -1.7688  1.2142
  422MOL0     H55642   3.464   1.208   0.691 -0.5978 -0.1652  0.3212
  422MOL0     H55643   3.221   1.212   0.617  0.3119 -0.1566 -0.7988
  422MOL0     H55644   3.290   1.272   0.462 -0.2096  1.3042 -0.2952
  422MOL0     H55645   3.353   1.418   0.727  0.3730  1.1220 -0.0653
  422MOL0     H55646   3.221   1.453   0.613  0.1035 -0.5821 -1.1129
  422MOL0     H55647   3.512   1.446   0.543 -1.1454  0.3684  2.8628
  422MOL0     H55648   3.369   1.492   0.441 -0.6053  1.3367  0.4071
  422MOL0     H55649   3.446   1.663   0.692 -0.3630  3.5599 -0.2192
  422MOL0     H55650   3.328   1.701   0.581 -0.0435  0.2150 -0.7344
  422MOL0     H55651   3.507   1.713   0.405  1.4696 -0.8629 -0.1459
  422MOL0     H55652   3.632   1.685   0.548 -0.0713 -2.7574 -1.3861
  422MOL0     H55653   3.424   1.897   0.583 -0.4875  2.0302  1.3347
  422MOL0     H55654   3.587   1.895   0.637  0.9325 -0.8767 -0.6294
  422MOL0     H55655   3.511   2.069   0.451 -1.2240 -0.0986 -2.7863
  422MOL0     H55656   3.535   1.928   0.353 -1.3674 -3.1707  1.5950
  422MOL0     H55657   3.713   2.187   0.334 -3.2023 -1.4522  0.2748
  422MOL0     H55658   4.102   2.148   0.393 -0.1836 -0.8822  0.6504
  422MOL0     H55659   3.979   2.279   0.382 -1.2596 -0.7954 -0.0808
  422MOL0     H55660   4.007   2.096   0.143  0.1850 -0.5985 -0.9953
  422MOL0     H55661   4.150   2.199   0.169  0.3811 -4.5827  0.7003
  422MOL0     H55662   3.847   2.299   0.153 -0.5944 -1.4638 -0.4080
  422MOL0     H55663   3.991   2.408   0.184  0.8867 -0.9754  0.0597
  422MOL0     H55664   3.977   2.218  -0.051  0.5513 -0.9206  3.6519
  422MOL0     H55665   4.100   2.340  -0.025 -0.2861  2.0306 -1.1168
  422MOL0     H55666   4.102   2.551   0.084  0.2338 -0.8482 -2.6312
  422MOL0     H55667   4.140   2.791   0.078 -1.4847  0.4297  1.0919
  422MOL0     H55668   4.225   3.154  -0.243  0.2805 -1.5881 -0.2501
  422MOL0     H55669   4.238   3.389  -0.359 -1.5515  2.1533  0.1674
  422MOL0     H55670   3.888   3.628  -0.469 -2.1783  0.5542 -2.3450
  422MOL0     H55671   3.958   3.525  -0.602  0.0432  0.9609 -1.7122
  422MOL0     H55672   4.164   3.666  -0.624  0.2755  2.3830 -2.4702
  422MOL0     H55673   4.106   3.764  -0.492 -0.9023 -1.8079  1.6680
  422MOL0     H55674   4.077   3.868  -0.719 -1.2328 -0.3426 -2.4329
  422MOL0     H55675   3.938   3.848  -0.629  1.5399  1.6447  1.6135
  422MOL0     H55676   4.035   3.729  -0.891  0.0113 -0.6834  0.1511
  422MOL0     H55677   3.960   3.592  -0.805  1.0927 -1.0821 -1.5308
  422MOL0     H55678   3.786   3.692  -0.951 -1.3830 -0.7857 -0.4721
  422MOL0     H55679   3.799   3.841  -0.852 -0.0161  0.1809 -0.8015
  422MOL0     H55680   3.727   3.735  -0.653  0.8016 -2.4725  0.7737
  422MOL0     H55681   3.728   3.577  -0.735 -2.2137  0.0506 -1.3118
  422MOL0     H55682   3.548   3.806  -0.798 -0.3233 -1.0193  0.6864
  422MOL0     H55683   3.560   3.645  -0.892  3.9310 -0.0933 -1.0295
  422MOL0     H55684   3.496   3.530  -0.700 -0.8733 -0.0795 -0.1861
  422MOL0     H55685   3.359   3.632  -0.757  0.0476  0.9221 -0.9329
  422MOL0     H55686   3.828   3.402  -0.426 -0.1844 -0.3967  1.6513
  422MOL0     H55687   3.803   3.199  -0.297  0.8696 -1.1272 -0.2963
  422MOL0     H55688   3.857   2.837  -0.242 -1.1401  2.1292  2.2283
  422MOL0     H55689   3.828   2.576  -0.237  0.9786 -0.9135 -0.3403
  422MOL0     H55690   3.690   1.030   0.583 -4.1260  3.2258 -0.2882
  422MOL0     H55691   3.808   0.931   0.773  0.1978 -5.2812 -0.3113
  422MOL0     H55692   3.883   0.639   1.101 -2.0070  0.4349 -0.6887
  422MOL0     H55693   4.050   0.620   1.257 -1.4576 -1.5733 -2.5636
  422MOL0     H55694   4.147   0.754   1.688 -0.8368 -0.6549  0.4007
  422MOL0     H55695   3.990   0.841   1.659 -0.3404  2.0993 -1.6804
  422MOL0     H55696   4.266   0.901   1.561 -1.0803 -3.0170 -2.3372
  422MOL0     H55697   4.125   0.971   1.473 -0.4114  0.3791 -0.1020
  422MOL0     H55698   4.219   1.036   1.751  0.2385 -2.7562  0.1797
  422MOL0     H55699   4.054   1.077   1.699  0.1054  2.6931  1.8458
  422MOL0     H55700   4.307   1.168   1.566  0.7763  3.7746  0.4355
  422MOL0     H55701   4.145   1.192   1.498  0.9537  1.1660  1.3150
  422MOL0     H55702   4.190   1.452   1.830 -3.2561 -1.6419  1.7757
  422MOL0     H55703   3.830   0.890   1.522 -0.4396  0.5764 -1.0542
  422MOL0     H55704   3.655   0.900   1.357 -0.1010 -0.2572  0.4845
  423MOL0     O55705   8.052   2.189   0.158  0.0314 -0.2827 -0.1434
  423MOL0     C55706   8.116   2.193   0.259 -0.4235  0.3596 -0.2424
  423MOL0     O55707   8.193   2.088   0.312 -0.6143  0.1116 -0.4031
  423MOL0     C55708   8.219   1.977   0.235  0.2997  0.1813 -0.5092
  423MOL0     C55709   8.237   1.860   0.309  0.4756  0.1421 -1.0057
  423MOL0     C55710   8.311   1.752   0.255 -0.1661  0.0148  0.0865
  423MOL0     C55711   8.343   1.758   0.120 -0.1554 -0.4736  0.5871
  423MOL0     O55712   8.416   1.652   0.067  0.4127 -0.5582  0.0643
  423MOL0     C55713   8.422   1.522   0.121 -0.2282 -0.3458 -0.3298
  423MOL0     C55714   8.519   1.428   0.050  0.2007 -0.1761 -0.1459
  423MOL0     C55715   8.667   1.470   0.058 -0.0296  0.2478  0.0682
  423MOL0     C55716   8.740   1.387  -0.058 -0.5630 -0.1511 -0.5127
  423MOL0     C55717   8.898   1.383  -0.052  0.8431 -0.8830 -0.5759
  423MOL0     C55718   8.965   1.517  -0.070  0.0233  0.8585  0.9938
  423MOL0     C55719   9.036   1.561   0.065 -1.0472  0.7360  0.7944
  423MOL0     C55720   9.089   1.702   0.056  0.3264 -0.7390 -0.4983
  423MOL0     N55721   8.993   1.798  -0.004 -0.1518  0.3739 -0.2143
  423MOL0     C55722   8.860   1.805   0.036 -0.2675  0.2554  0.1214
  423MOL0     C55723   8.796   1.868  -0.060 -0.3487  0.8916  0.5614
  423MOL0     C55724   8.656   1.899  -0.071 -0.2874 -0.0226  0.7713
  423MOL0     C55725   8.630   2.027   0.019 -0.2739 -0.1080 -0.2112
  423MOL0     C55726   8.638   1.995   0.164 -0.6581  0.1436 -0.4842
  423MOL0     C55727   8.591   2.106   0.260 -0.5302  0.1789  0.3072
  423MOL0     O55728   8.688   2.209   0.262 -0.0514  0.0956 -0.1161
  423MOL0     C55729   8.658   2.344   0.278  0.0117 -0.3928  0.6239
  423MOL0     C55730   8.765   2.430   0.247  0.2849 -0.1743  0.0682
  423MOL0     C55731   8.763   2.565   0.285  0.8166  0.4947  0.2362
  423MOL0     C55732   8.647   2.620   0.342 -0.2002 -0.4359 -0.1064
  423MOL0     C55733   8.639   2.759   0.383  0.7429 -0.7579 -0.3025
  423MOL0     O55734   8.532   2.785   0.469 -0.3436 -0.2929 -0.4942
  423MOL0     C55735   8.541   2.912   0.534  0.4851 -0.3549 -0.5127
  423MOL0     C55736   8.536   3.032   0.458  1.2237  0.1486 -1.1356
  423MOL0     C55737   8.517   3.163   0.524 -0.4839  0.2863  0.6088
  423MOL0     C55738   8.502   3.165   0.665 -0.8412 -0.6533 -0.0890
  423MOL0     O55739   8.484   3.299   0.716  0.0393  0.1991  0.4325
  423MOL0     C55740   8.468   3.314   0.861 -0.0962 -0.1452 -0.6696
  423MOL0     C55741   8.332   3.262   0.915 -0.2809 -0.3089  1.3021
  423MOL0     C55742   8.247   3.379   0.953  0.1289  0.0758 -0.1590
  423MOL0     C55743   8.093   3.337   0.976 -0.8293 -0.7410  0.5119
  423MOL0     C55744   8.015   3.463   1.019 -0.5320 -0.6522 -0.4189
  423MOL0     C55745   7.979   3.540   0.895  0.3745  0.6206  0.6077
  423MOL0     C55746   7.907   3.664   0.928 -0.4619 -0.2453  0.1500
  423MOL0     C55747   7.886   3.753   0.803  0.6460 -0.8936  0.8583
  423MOL0    Cl55748   7.773   3.670   0.682  0.5115 -0.1981  0.3874
  423MOL0     C55749   8.515   3.037   0.737 -0.5230 -0.9763  0.2412
  423MOL0     C55750   8.537   2.909   0.678  0.3004 -0.0438  0.4218
  423MOL0     O55751   8.724   2.837   0.356 -1.1413 -0.5448  0.0971
  423MOL0     C55752   8.542   2.532   0.366  0.2722  0.6475 -0.8171
  423MOL0     C55753   8.540   2.395   0.325 -0.0783 -0.5189 -0.1837
  423MOL0     N55754   8.898   1.907  -0.155 -0.1968 -0.0624 -0.3227
  423MOL0     N55755   9.017   1.865  -0.121 -0.4017 -0.1173  1.3510
  423MOL0     C55756   8.323   1.873   0.041  0.3507  1.2778  0.5037
  423MOL0     C55757   8.262   1.978   0.099  1.9449 -0.2570  0.1908
  423MOL0     C55758   8.106   2.314   0.345  0.4119 -0.4745 -0.6598
  423MOL0     C55759   8.026   2.422   0.310  0.1458 -0.0362 -0.4499
  423MOL0     C55760   8.006   2.528   0.401 -0.5003  0.0974  0.4444
  423MOL0     C55761   8.054   2.522   0.532  0.3517  1.2379  0.1350
  423MOL0     O55762   8.006   2.616   0.615 -0.2196 -0.3578 -0.1828
  423MOL0     C55763   8.008   2.613   0.758 -0.2896  0.4737  0.8839
  423MOL0     C55764   7.899   2.521   0.832 -0.4478 -0.5169  0.4474
  423MOL0     C55765   7.765   2.594   0.832 -0.2169  0.3332 -1.2650
  423MOL0     C55766   7.667   2.494   0.892 -0.3218  0.5964  0.0917
  423MOL0     C55767   7.532   2.552   0.909  0.7371  0.4884 -0.1542
  423MOL0     C55768   7.413   2.593   0.926 -0.2881  0.0272  0.0654
  423MOL0     C55769   8.127   2.408   0.570 -0.1625  1.0420  0.6530
  423MOL0     C55770   8.173   2.316   0.473  0.2563 -0.2660 -0.1824
  423MOL0     H55771   8.206   1.846   0.412 -2.1585  1.4591 -1.5597
  423MOL0     H55772   8.342   1.672   0.322 -2.1852 -1.6360 -0.8509
  423MOL0     H55773   8.320   1.482   0.118  0.2794 -1.7018 -0.3414
  423MOL0     H55774   8.446   1.534   0.227 -4.0195  0.2283  0.6334
  423MOL0     H55775   8.486   1.427  -0.055 -0.9724  0.6454  0.1917
  423MOL0     H55776   8.498   1.327   0.086 -0.1893 -0.3127 -0.7354
  423MOL0     H55777   8.700   1.416   0.148  1.9486 -2.4066 -2.1088
  423MOL0     H55778   8.691   1.576   0.049 -0.3176  0.1927 -1.5521
  423MOL0     H55779   8.714   1.281  -0.048  0.7131 -0.6916 -2.4073
  423MOL0     H55780   8.700   1.414  -0.156 -1.3806  2.9033  0.5651
  423MOL0     H55781   8.919   1.304  -0.125 -3.9078 -2.5556 -0.4960
  423MOL0     H55782   8.912   1.347   0.051  1.6773  1.4215  0.1753
  423MOL0     H55783   8.903   1.588  -0.125  1.2267  1.4133  0.3097
  423MOL0     H55784   9.049   1.505  -0.139  2.3281  1.8191  3.4387
  423MOL0     H55785   8.951   1.574   0.133 -1.7761  1.0133 -0.1602
  423MOL0     H55786   9.120   1.508   0.113 -0.9724  0.1844  0.0674
  423MOL0     H55787   9.183   1.710   0.000  1.3207 -0.3928  1.1724
  423MOL0     H55788   9.120   1.734   0.155  1.4720 -0.9192 -0.7821
  423MOL0     H55789   8.807   1.765   0.121 -3.3453  0.0540 -1.7285
  423MOL0     H55790   8.592   1.817  -0.037 -4.0133  1.0794 -2.7682
  423MOL0     H55791   8.636   1.915  -0.177  2.8020  4.3889  0.6006
  423MOL0     H55792   8.529   2.068   0.007 -1.0380 -2.0558 -0.8056
  423MOL0     H55793   8.703   2.103  -0.011  0.5972 -1.0808 -0.5971
  423MOL0     H55794   8.587   1.901   0.188 -4.7819  2.8392  2.6985
  423MOL0     H55795   8.744   1.974   0.181 -0.7579 -3.6474 -3.1837
  423MOL0     H55796   8.580   2.069   0.363 -0.2126  2.7692  1.3355
  423MOL0     H55797   8.494   2.134   0.216 -0.5008  0.7941  0.6213
  423MOL0     H55798   8.850   2.385   0.196  0.1289 -0.3711 -0.0220
  423MOL0     H55799   8.859   2.615   0.274  2.0273 -1.1111  2.5151
  423MOL0     H55800   8.544   3.015   0.351  2.9086 -1.0491 -0.8558
  423MOL0     H55801   8.524   3.255   0.465 -1.4789 -0.3237 -0.5133
  423MOL0     H55802   8.471   3.419   0.893  0.8705  0.1736 -1.7679
  423MOL0     H55803   8.551   3.260   0.907 -1.3097  0.0399  1.9413
  423MOL0     H55804   8.361   3.205   1.003 -0.7718  3.3226  4.0648
  423MOL0     H55805   8.280   3.191   0.850 -2.2102  1.2192  1.1072
  423MOL0     H55806   8.259   3.457   0.877  1.5645 -0.2616 -0.3220
  423MOL0     H55807   8.287   3.418   1.047  1.1756  1.9252 -1.3151
  423MOL0     H55808   8.047   3.308   0.881  0.4036  1.2145 -0.7570
  423MOL0     H55809   8.099   3.256   1.049 -1.6971 -2.8478 -1.6324
  423MOL0     H55810   8.069   3.524   1.091 -1.0378  2.2657 -2.3037
  423MOL0     H55811   7.917   3.437   1.060 -0.8264 -0.3875 -0.9352
  423MOL0     H55812   7.918   3.482   0.825  0.6193 -0.3856  1.2052
  423MOL0     H55813   8.076   3.565   0.852  0.8906  2.5741  2.6951
  423MOL0     H55814   7.811   3.634   0.972 -0.7502  0.2404 -0.1467
  423MOL0     H55815   7.967   3.718   1.002  2.3043  0.5046 -2.4483
  423MOL0     H55816   7.975   3.755   0.740 -2.1396 -1.6503 -3.4714
  423MOL0     H55817   7.861   3.858   0.827 -0.8095 -0.7622 -1.0315
  423MOL0     H55818   8.514   3.033   0.846 -2.4302 -2.2517  0.2253
  423MOL0     H55819   8.548   2.822   0.741  2.2518  0.0902  0.3196
  423MOL0     H55820   8.451   2.573   0.410  0.4269 -0.7606  0.8920
  423MOL0     H55821   8.450   2.335   0.342 -2.4681  2.5781 -1.0225
  423MOL0     H55822   8.349   1.889  -0.063 -0.9327 -2.1394 -0.4756
  423MOL0     H55823   8.252   2.063   0.031  0.5361 -1.8924 -1.7862
  423MOL0     H55824   7.978   2.435   0.214  2.0937 -0.3234 -1.5086
  423MOL0     H55825   7.928   2.602   0.385 -2.3666 -1.8309  0.1437
  423MOL0     H55826   7.991   2.716   0.790 -0.8372  0.8363 -0.4938
  423MOL0     H55827   8.111   2.594   0.789  0.4561  2.4410 -0.2069
  423MOL0     H55828   7.891   2.418   0.797 -0.2376  0.0474 -1.4028
  423MOL0     H55829   7.935   2.509   0.934 -0.1702 -1.0492  0.2898
  423MOL0     H55830   7.718   2.620   0.737 -0.5821  0.7209 -0.9787
  423MOL0     H55831   7.774   2.685   0.892 -0.3302  1.6707 -3.2143
  423MOL0     H55832   7.650   2.414   0.819 -1.3061 -0.9025  1.8647
  423MOL0     H55833   7.693   2.457   0.992  1.5210  2.0080  0.1740
  423MOL0     H55834   7.320   2.646   0.924 -0.9503 -0.6651  4.4378
  423MOL0     H55835   8.170   2.399   0.670 -1.2258  1.4856  1.1722
  423MOL0     H55836   8.252   2.244   0.495 -1.2263 -1.7023  0.7211
  424MOL0     O55837   5.822   0.721   6.791 -0.3932  0.0915  0.2551
  424MOL0     C55838   5.881   0.636   6.855 -1.7410 -1.1614 -0.1891
  424MOL0     O55839   5.843   0.580   6.972  0.4136  0.0564 -0.1305
  424MOL0     C55840   5.727   0.627   7.035  0.1318  0.5599 -0.7935
  424MOL0     C55841   5.651   0.527   7.101 -0.1165 -0.4841 -0.1576
  424MOL0     C55842   5.560   0.564   7.193  0.0865  0.1978 -0.0348
  424MOL0     C55843   5.540   0.699   7.220  0.1287 -0.6045 -0.5396
  424MOL0     O55844   5.435   0.736   7.302  0.6832 -0.5901  0.4123
  424MOL0     C55845   5.438   0.675   7.435  0.6988  0.1165 -0.1540
  424MOL0     C55846   5.315   0.702   7.511 -0.2393  1.0088  0.1031
  424MOL0     C55847   5.307   0.671   7.661 -0.1660 -0.4698  0.0942
  424MOL0     C55848   5.295   0.522   7.680 -0.3240  0.0605 -0.1897
  424MOL0     C55849   5.282   0.484   7.826  0.2536  0.2143 -0.7890
  424MOL0     C55850   5.141   0.510   7.875  0.9545  0.2033  0.3763
  424MOL0     C55851   5.117   0.487   8.027  0.4662  0.2618 -0.7456
  424MOL0     C55852   4.978   0.532   8.068 -0.3541 -0.1149 -0.7557
  424MOL0     N55853   4.941   0.493   8.208 -0.8424 -0.0328 -0.0390
  424MOL0     C55854   4.880   0.567   8.303  0.5910 -0.4707 -0.8804
  424MOL0     C55855   4.866   0.488   8.408 -0.3110 -0.4102  0.1748
  424MOL0     C55856   4.780   0.513   8.532 -0.5006  0.4661  0.0181
  424MOL0     C55857   4.783   0.652   8.596 -0.9277  0.7520  0.4426
  424MOL0     C55858   4.927   0.699   8.646  0.1073 -0.5629  0.5644
  424MOL0     C55859   4.987   0.615   8.759  0.4429 -0.6714 -0.3649
  424MOL0     O55860   4.960   0.690   8.876 -0.5511  0.4267 -1.1138
  424MOL0     C55861   4.845   0.661   8.952 -0.2254 -0.5977  1.0981
  424MOL0     C55862   4.778   0.778   8.998  0.3071 -0.3511  0.5734
  424MOL0     C55863   4.687   0.774   9.103 -0.0104  0.0400  0.1238
  424MOL0     C55864   4.659   0.649   9.158 -0.4972  0.1848 -0.2515
  424MOL0     C55865   4.564   0.632   9.276  0.6129  0.1213 -0.1985
  424MOL0     O55866   4.527   0.761   9.321  0.5213 -0.0173  0.0534
  424MOL0     C55867   4.449   0.781   9.437 -0.1295 -0.3438 -0.9291
  424MOL0     C55868   4.461   0.911   9.500  0.1530  0.1014 -0.0811
  424MOL0     C55869   4.396   0.934   9.623  0.2630 -0.4150 -0.3198
  424MOL0     C55870   4.308   0.838   9.682  0.7798  0.0906  0.6792
  424MOL0     O55871   4.233   0.861   9.788 -0.3240  0.1702 -0.4941
  424MOL0     C55872   4.168   0.988   9.810  0.1682  0.9018 -0.4076
  424MOL0     C55873   4.100   0.985   9.947  0.4789 -0.5648 -0.0865
  424MOL0     C55874   4.212   1.005  10.047 -0.2542 -0.1820  0.1219
  424MOL0     C55875   4.184   0.991  10.203 -0.0159  0.2720  0.4978
  424MOL0     C55876   4.094   1.109  10.259 -1.0737 -0.0492 -0.1539
  424MOL0     C55877   3.946   1.082  10.250  1.5833 -0.3536  0.3848
  424MOL0     C55878   3.851   1.186  10.313  0.5832  0.2156  0.0519
  424MOL0     C55879   3.706   1.126  10.344 -0.3531 -1.3067  0.3185
  424MOL0    Cl55880   3.611   1.231  10.456 -0.3188  0.2043  0.3633
  424MOL0     C55881   4.295   0.712   9.614  1.0128 -0.1950  0.3352
  424MOL0     C55882   4.362   0.690   9.493 -0.0712  0.6683  0.8105
  424MOL0     O55883   4.534   0.526   9.327  0.3835 -0.3443  0.4817
  424MOL0     C55884   4.722   0.535   9.105 -0.1099 -0.2297  0.6722
  424MOL0     C55885   4.815   0.540   9.002 -0.6433  1.4550  0.1689
  424MOL0     N55886   4.911   0.366   8.378  0.0173  0.2701  0.1104
  424MOL0     N55887   4.945   0.368   8.251  0.5323 -0.0697 -0.3142
  424MOL0     C55888   5.622   0.799   7.157 -1.3783  0.9852  1.2416
  424MOL0     C55889   5.713   0.761   7.057  0.8214  0.0017 -1.4241
  424MOL0     C55890   6.005   0.568   6.809  0.1289 -1.2116  0.9720
  424MOL0     C55891   6.048   0.441   6.863 -0.0697 -0.5594 -0.4449
  424MOL0     C55892   6.165   0.376   6.823  0.1308  0.3642 -0.5249
  424MOL0     C55893   6.240   0.422   6.719  0.6144 -0.2968  1.0772
  424MOL0     O55894   6.341   0.339   6.683  0.3969  0.4280 -0.4773
  424MOL0     C55895   6.443   0.389   6.590 -0.6891 -0.1313 -1.1664
  424MOL0     C55896   6.570   0.322   6.628 -0.8276 -0.1307  0.0596
  424MOL0     C55897   6.679   0.378   6.539 -0.0523  0.4832 -0.1044
  424MOL0     C55898   6.731   0.514   6.590  0.6295 -0.2864  0.3224
  424MOL0     C55899   6.856   0.551   6.511 -0.1514  0.2226 -0.2351
  424MOL0     C55900   6.948   0.589   6.445 -0.2168  1.0864 -0.1954
  424MOL0     C55901   6.194   0.541   6.651 -0.4229  0.3667 -0.6491
  424MOL0     C55902   6.077   0.615   6.699 -0.4081 -0.8305  0.1930
  424MOL0     H55903   5.686   0.425   7.087  1.8515  0.1656 -0.2684
  424MOL0     H55904   5.499   0.493   7.249  0.5528 -0.1107  0.0849
  424MOL0     H55905   5.522   0.719   7.488  0.2788  0.1742  0.4771
  424MOL0     H55906   5.459   0.567   7.438  3.2120  0.5620  0.4770
  424MOL0     H55907   5.229   0.650   7.468 -1.1793  2.7368 -0.1979
  424MOL0     H55908   5.300   0.810   7.502  1.6157  1.4306  1.4712
  424MOL0     H55909   5.214   0.717   7.694  1.0762  2.3456 -0.0523
  424MOL0     H55910   5.393   0.708   7.718 -0.9325  1.0078  0.3346
  424MOL0     H55911   5.217   0.480   7.617 -1.8153  0.3406  1.3930
  424MOL0     H55912   5.388   0.473   7.648  0.4074  2.4402 -1.8975
  424MOL0     H55913   5.350   0.545   7.886  0.0598  0.9511 -1.3092
  424MOL0     H55914   5.310   0.381   7.849 -1.4186 -0.7036 -2.5304
  424MOL0     H55915   5.078   0.437   7.822  1.5264 -1.2013  1.5663
  424MOL0     H55916   5.120   0.616   7.858 -0.0264  0.1309  1.0275
  424MOL0     H55917   5.115   0.379   8.045  0.7957  0.5052  0.9410
  424MOL0     H55918   5.197   0.541   8.080  0.9979 -0.0426 -1.2296
  424MOL0     H55919   4.905   0.488   8.000 -3.0794  2.8732 -0.0211
  424MOL0     H55920   4.968   0.641   8.070  0.6740  0.0106 -1.5781
  424MOL0     H55921   4.839   0.666   8.291 -1.7189 -0.8978  2.1370
  424MOL0     H55922   4.812   0.448   8.614 -0.3887  0.1066 -0.3047
  424MOL0     H55923   4.678   0.480   8.506 -0.3043 -0.4246  0.3610
  424MOL0     H55924   4.716   0.649   8.682 -1.9696 -1.3909 -0.3855
  424MOL0     H55925   4.750   0.720   8.517 -2.7525 -2.8995 -2.2568
  424MOL0     H55926   5.000   0.702   8.564  2.1026  1.7755  2.2704
  424MOL0     H55927   4.917   0.803   8.678 -0.0791  0.1242 -1.5645
  424MOL0     H55928   5.096   0.613   8.764  0.4168  0.2585  2.6631
  424MOL0     H55929   4.953   0.511   8.759  0.8843 -0.9034  2.6825
  424MOL0     H55930   4.824   0.870   8.963  2.3786 -0.6976  2.1621
  424MOL0     H55931   4.644   0.868   9.136  0.5809 -0.3305  2.0189
  424MOL0     H55932   4.547   0.969   9.468 -0.3433  0.9582  0.0766
  424MOL0     H55933   4.418   1.030   9.669  4.2764 -0.5959 -1.4531
  424MOL0     H55934   4.096   1.009   9.730 -0.3459  0.1119 -0.1584
  424MOL0     H55935   4.248   1.063   9.807  0.2013  0.8427 -2.0820
  424MOL0     H55936   4.051   0.890   9.970 -0.3582 -0.3218 -0.8429
  424MOL0     H55937   4.023   1.062   9.947 -2.0475 -2.9509 -1.2093
  424MOL0     H55938   4.267   1.095  10.018  2.1937 -1.3111  0.9612
  424MOL0     H55939   4.281   0.921  10.033  2.5437  1.8342  0.9813
  424MOL0     H55940   4.140   0.895  10.231 -0.4154  0.8887  2.0882
  424MOL0     H55941   4.284   0.989  10.248  0.3613  0.9115 -0.2911
  424MOL0     H55942   4.114   1.188  10.187  0.9332 -0.8894 -0.5934
  424MOL0     H55943   4.112   1.137  10.363 -3.0980  0.7843  0.0071
  424MOL0     H55944   3.925   0.984  10.294  1.7443 -0.0283  1.1999
  424MOL0     H55945   3.916   1.070  10.145  0.8612 -1.3557  0.6783
  424MOL0     H55946   3.888   1.213  10.412 -0.1988 -0.3688  0.5200
  424MOL0     H55947   3.846   1.267  10.240  0.5080 -0.6490 -0.9390
  424MOL0     H55948   3.714   1.032  10.398  2.4235 -3.0090 -2.7457
  424MOL0     H55949   3.658   1.105  10.248  2.1289  3.6348 -2.4322
  424MOL0     H55950   4.239   0.630   9.658  0.3057 -0.8462 -1.6779
  424MOL0     H55951   4.344   0.593   9.447 -0.7030  1.6259 -1.0612
  424MOL0     H55952   4.704   0.440   9.156  0.0327 -1.5520 -1.5864
  424MOL0     H55953   4.859   0.451   8.959 -4.7329 -0.6198 -0.2057
  424MOL0     H55954   5.611   0.904   7.183 -2.0698  1.0674  0.6554
  424MOL0     H55955   5.780   0.834   7.013 -0.2317 -0.1477 -3.3931
  424MOL0     H55956   5.988   0.392   6.939 -0.1180  2.6526  1.7506
  424MOL0     H55957   6.189   0.274   6.852 -2.9809 -0.6904 -1.2861
  424MOL0     H55958   6.442   0.498   6.587 -1.8995 -0.0491  0.8890
  424MOL0     H55959   6.427   0.352   6.488  4.2240  3.0025 -3.5059
  424MOL0     H55960   6.580   0.341   6.735 -3.6200  0.9102  0.2167
  424MOL0     H55961   6.553   0.216   6.611 -0.0436 -0.3118  0.3967
  424MOL0     H55962   6.633   0.405   6.444  0.2350  2.7652  0.3389
  424MOL0     H55963   6.761   0.307   6.526  1.1935  2.0297 -1.0716
  424MOL0     H55964   6.647   0.583   6.581  2.3771  2.2086  1.7814
  424MOL0     H55965   6.759   0.515   6.696  0.3623  0.0231  0.3920
  424MOL0     H55966   7.029   0.624   6.384 -0.5360  1.5389 -0.3609
  424MOL0     H55967   6.229   0.592   6.562 -1.3885  1.6344 -0.3379
  424MOL0     H55968   6.043   0.704   6.648 -0.2749 -0.0986  1.3498
  425MOL0     O55969  11.331   8.701   0.912  0.4531  0.6525  0.1807
  425MOL0     C55970  11.233   8.721   0.832 -0.0254 -0.6124 -0.5575
  425MOL0     O55971  11.136   8.819   0.849 -0.4293  0.1431  0.5822
  425MOL0     C55972  11.144   8.893   0.967 -0.0726  0.1922  0.6876
  425MOL0     C55973  11.021   8.916   1.022  0.3199 -0.3096  0.4642
  425MOL0     C55974  11.009   8.996   1.136 -0.5688  0.3119 -1.0904
  425MOL0     C55975  11.121   9.067   1.187 -0.3997  0.2643  0.6766
  425MOL0     O55976  11.083   9.143   1.296  0.7248 -0.3891  0.0852
  425MOL0     C55977  11.169   9.225   1.363 -1.3106 -0.3745 -0.0306
  425MOL0     C55978  11.115   9.326   1.468  0.0229  0.5066 -0.5751
  425MOL0     C55979  11.172   9.469   1.463  0.1493  0.1941  0.5758
  425MOL0     C55980  11.178   9.541   1.315 -0.0468  0.9055 -0.1665
  425MOL0     C55981  11.239   9.679   1.325  0.0218 -0.9460  0.5635
  425MOL0     C55982  11.137   9.780   1.375 -0.1422 -0.2199 -0.0442
  425MOL0     C55983  11.156   9.931   1.326  0.3111  0.1476 -0.3199
  425MOL0     C55984  11.078  10.026   1.409  1.1388 -0.1854  0.4455
  425MOL0     N55985  11.003  10.126   1.330 -0.1932 -0.3123  0.4366
  425MOL0     C55986  10.886  10.182   1.368  0.1833  0.8441 -0.1102
  425MOL0     C55987  10.871  10.297   1.296  0.4252  0.7392 -0.2703
  425MOL0     C55988  10.751  10.389   1.293 -0.2553  0.3291 -0.2006
  425MOL0     C55989  10.689  10.380   1.156  0.6583  0.3336  0.7466
  425MOL0     C55990  10.753  10.473   1.063 -0.0233  1.3202  0.9068
  425MOL0     C55991  10.716  10.464   0.910  0.9658 -0.8809  0.0636
  425MOL0     O55992  10.576  10.466   0.874  0.2193  0.5844 -0.0288
  425MOL0     C55993  10.509  10.580   0.852 -0.7760 -0.9739 -0.4814
  425MOL0     C55994  10.556  10.711   0.860 -1.1194  0.2421 -0.2859
  425MOL0     C55995  10.485  10.824   0.827  1.3074 -0.0021  0.1733
  425MOL0     C55996  10.360  10.813   0.766  0.0730  0.3635 -0.1371
  425MOL0     C55997  10.276  10.931   0.716  0.1257  0.2199  0.3991
  425MOL0     O55998  10.333  11.049   0.769  0.2791  0.2293 -0.4736
  425MOL0     C55999  10.286  11.166   0.723  0.5646  1.0840 -0.2375
  425MOL0     C56000  10.304  11.277   0.805  0.0549 -0.5764  0.1129
  425MOL0     C56001  10.261  11.403   0.764 -0.4754  0.4208 -1.1442
  425MOL0     C56002  10.211  11.419   0.634  0.5910  1.6147 -0.3328
  425MOL0     O56003  10.154  11.536   0.601  0.0963  0.1990 -0.7767
  425MOL0     C56004  10.038  11.546   0.511  1.0223 -0.2502  0.2195
  425MOL0     C56005  10.002  11.692   0.485  0.1954  0.1838 -1.2167
  425MOL0     C56006  10.114  11.784   0.452 -0.5425 -0.6331  0.0684
  425MOL0     C56007  10.070  11.916   0.379  0.1919 -0.0974 -0.4808
  425MOL0     C56008  10.193  11.991   0.335 -0.2501 -0.1122 -0.1523
  425MOL0     C56009  10.167  12.112   0.245  0.2798 -0.2774 -0.5049
  425MOL0     C56010  10.289  12.142   0.177  0.1008 -0.4226  0.8651
  425MOL0     C56011  10.287  12.262   0.076  0.7124  1.1909 -0.1484
  425MOL0    Cl56012  10.200  12.189  -0.067  0.1576  0.1207  0.1151
  425MOL0     C56013  10.196  11.309   0.552  0.1947  0.1744 -0.0111
  425MOL0     C56014  10.234  11.184   0.593  0.2379  0.2239 -0.4728
  425MOL0     O56015  10.172  10.927   0.655  0.1062 -0.5586 -0.8030
  425MOL0     C56016  10.304  10.679   0.764 -1.5075  0.0367  1.0394
  425MOL0     C56017  10.378  10.560   0.806  0.1534 -0.2245 -0.4818
  425MOL0     N56018  10.975  10.300   1.214 -0.4708 -0.5165 -1.0774
  425MOL0     N56019  11.061  10.213   1.252 -0.4033 -0.3694  0.2928
  425MOL0     C56020  11.243   9.051   1.121 -0.3031 -0.0455 -0.2503
  425MOL0     C56021  11.256   8.966   1.011  0.0496 -0.2509  0.0382
  425MOL0     C56022  11.232   8.640   0.705 -0.2783  1.0395  0.0098
  425MOL0     C56023  11.131   8.655   0.616  0.7721 -0.9298  0.5419
  425MOL0     C56024  11.132   8.566   0.502 -0.3726  0.2907 -0.3128
  425MOL0     C56025  11.236   8.483   0.465  0.3912 -0.4058  0.8517
  425MOL0     O56026  11.240   8.432   0.333 -0.1896  0.5204  0.0728
  425MOL0     C56027  11.342   8.341   0.308 -1.0620 -0.4667 -0.0326
  425MOL0     C56028  11.381   8.335   0.164 -0.7611 -0.2286  0.5221
  425MOL0     C56029  11.522   8.271   0.135  0.4778 -0.1732 -0.4251
  425MOL0     C56030  11.591   8.291   0.003 -1.0975 -0.0679 -0.1807
  425MOL0     C56031  11.506   8.245  -0.110 -1.0651 -0.3983  0.9732
  425MOL0     C56032  11.442   8.191  -0.198  0.9851 -0.4610  0.3967
  425MOL0     C56033  11.345   8.477   0.565 -0.1833  0.2598 -0.1096
  425MOL0     C56034  11.339   8.560   0.680  0.0427 -0.3142  0.3620
  425MOL0     H56035  10.941   8.875   0.961 -0.6113  1.8364  0.1273
  425MOL0     H56036  10.905   9.009   1.163  0.1452  0.3542  1.9589
  425MOL0     H56037  11.219   9.281   1.283  0.6182 -2.0425 -0.1053
  425MOL0     H56038  11.237   9.151   1.408 -0.0575 -0.1284 -1.4395
  425MOL0     H56039  11.123   9.290   1.570  1.9201  2.9592  0.2575
  425MOL0     H56040  11.008   9.333   1.448 -0.2478 -0.5036  0.4414
  425MOL0     H56041  11.275   9.475   1.499 -0.0587 -1.0755  1.4317
  425MOL0     H56042  11.100   9.531   1.517 -3.5341 -1.8202 -1.6331
  425MOL0     H56043  11.247   9.477   1.259  2.0771  0.8711  2.2980
  425MOL0     H56044  11.088   9.553   1.254  0.9862  1.0966 -1.7097
  425MOL0     H56045  11.255   9.711   1.221  0.3864 -1.7679  0.3592
  425MOL0     H56046  11.326   9.676   1.391  0.3112 -0.2725  0.2244
  425MOL0     H56047  11.138   9.780   1.484 -1.8496  1.0510  0.0273
  425MOL0     H56048  11.038   9.749   1.342  0.1238 -0.7946 -0.3055
  425MOL0     H56049  11.263   9.952   1.331  0.4512 -0.8161  1.1187
  425MOL0     H56050  11.125   9.946   1.222  2.2789 -1.2429 -1.1726
  425MOL0     H56051  11.151  10.072   1.477  0.0872 -0.0976  1.5630
  425MOL0     H56052  11.004   9.982   1.478 -0.1591  0.4074 -0.5221
  425MOL0     H56053  10.807  10.140   1.430 -0.3511 -0.8518 -1.8568
  425MOL0     H56054  10.794  10.488   1.314  1.1345 -0.2882  0.0199
  425MOL0     H56055  10.673  10.364   1.365  1.4340  0.6549  1.8615
  425MOL0     H56056  10.583  10.398   1.173 -0.9181 -5.8097 -0.1225
  425MOL0     H56057  10.693  10.279   1.114 -3.1854  0.6325 -0.6833
  425MOL0     H56058  10.736  10.577   1.092  2.2927  3.1843 -3.4653
  425MOL0     H56059  10.861  10.453   1.068 -0.3945 -0.8938  1.1804
  425MOL0     H56060  10.737  10.361   0.879 -1.1643 -0.3970 -3.4873
  425MOL0     H56061  10.773  10.538   0.852 -1.3678  1.5697  0.7022
  425MOL0     H56062  10.652  10.736   0.905 -1.1796  0.5834 -0.3446
  425MOL0     H56063  10.529  10.910   0.877  0.7752 -1.5774  3.6359
  425MOL0     H56064  10.353  11.260   0.901  0.5781  1.5848  0.2706
  425MOL0     H56065  10.281  11.481   0.837  0.2823 -1.9761  1.3436
  425MOL0     H56066   9.951  11.508   0.565  0.2350  1.5148  0.2505
  425MOL0     H56067  10.039  11.498   0.413  1.7519  0.2531 -0.0271
  425MOL0     H56068   9.972  11.738   0.580 -2.1413 -0.1619 -1.7462
  425MOL0     H56069   9.923  11.703   0.411 -1.2624 -0.4436  0.1763
  425MOL0     H56070  10.168  11.719   0.382 -1.9480 -0.8489 -0.8572
  425MOL0     H56071  10.176  11.807   0.539 -1.6739  0.2041  0.6926
  425MOL0     H56072  10.019  11.887   0.286  3.0394 -5.3081 -0.8388
  425MOL0     H56073  10.003  11.974   0.442  0.6596  1.3720 -1.2845
  425MOL0     H56074  10.243  11.917   0.273  1.7269  1.3040 -0.3187
  425MOL0     H56075  10.250  12.033   0.418  0.1770  0.1217 -0.5612
  425MOL0     H56076  10.140  12.196   0.310  0.3679 -2.2003  2.1904
  425MOL0     H56077  10.079  12.097   0.182  1.5278 -3.8188 -1.6500
  425MOL0     H56078  10.364  12.173   0.250  2.9868 -0.2048 -1.9800
  425MOL0     H56079  10.322  12.058   0.116  0.6625  0.7882 -0.5558
  425MOL0     H56080  10.388  12.302   0.064  1.5570 -1.1502 -1.6558
  425MOL0     H56081  10.217  12.339   0.109  0.9395  1.9929 -1.4366
  425MOL0     H56082  10.163  11.324   0.450 -2.1816  0.4507  0.7431
  425MOL0     H56083  10.248  11.097   0.530 -1.5613 -0.4570  0.0019
  425MOL0     H56084  10.199  10.672   0.738 -1.6406  3.2161  0.3007
  425MOL0     H56085  10.340  10.458   0.803  0.7586 -0.5842  1.9207
  425MOL0     H56086  11.327   9.106   1.162 -1.4468  0.7998  1.0395
  425MOL0     H56087  11.348   8.933   0.963 -2.3068 -1.1567 -4.4813
  425MOL0     H56088  11.050   8.725   0.632 -0.4578 -2.3421  0.7431
  425MOL0     H56089  11.043   8.549   0.443  0.4098 -2.7933 -0.8030
  425MOL0     H56090  11.298   8.246   0.340 -2.4179  0.5844  1.3350
  425MOL0     H56091  11.436   8.374   0.353 -1.4957  0.0095  0.5385
  425MOL0     H56092  11.305   8.277   0.110 -1.9530 -2.2841  4.0660
  425MOL0     H56093  11.399   8.432   0.116  3.8672 -2.3977 -2.8078
  425MOL0     H56094  11.514   8.165   0.161 -0.2087  0.2558  1.2230
  425MOL0     H56095  11.602   8.310   0.199  0.6998  1.0970 -1.4166
  425MOL0     H56096  11.615   8.397  -0.014 -0.1003 -0.3668 -0.6936
  425MOL0     H56097  11.673   8.221  -0.014 -2.2718 -1.2404 -1.2474
  425MOL0     H56098  11.385   8.141  -0.274 -0.2642 -0.1606  1.1100
  425MOL0     H56099  11.440   8.427   0.550  0.2900 -0.6374  4.3215
  425MOL0     H56100  11.430   8.554   0.739  1.5722 -1.7420 -2.0052
  426MOL0     O56101   3.954   6.712   1.552 -0.8782 -0.4805  0.7337
  426MOL0     C56102   3.986   6.621   1.625  0.5006  0.6118 -0.6640
  426MOL0     O56103   3.966   6.612   1.763 -0.2244 -0.7892  0.2931
  426MOL0     C56104   3.893   6.706   1.819  1.2395 -0.5180  0.1329
  426MOL0     C56105   3.771   6.750   1.752 -0.2283  0.7888 -0.6953
  426MOL0     C56106   3.708   6.856   1.815  0.2476  0.3217  0.6702
  426MOL0     C56107   3.743   6.913   1.936 -0.1762  0.2731 -0.7058
  426MOL0     O56108   3.659   7.021   1.981  0.1715  0.1424 -0.6334
  426MOL0     C56109   3.672   7.052   2.126  0.2185  0.1419  0.1716
  426MOL0     C56110   3.559   7.146   2.157  0.8727 -0.6743 -0.5061
  426MOL0     C56111   3.488   7.105   2.285 -0.4150 -0.3635  0.3491
  426MOL0     C56112   3.367   7.176   2.322  0.3332 -0.2503  1.0301
  426MOL0     C56113   3.294   7.103   2.444 -0.2016 -0.2975 -0.6517
  426MOL0     C56114   3.151   7.163   2.453  0.2809 -0.2323 -0.1668
  426MOL0     C56115   3.081   7.104   2.582  0.0688 -0.5539  1.0717
  426MOL0     C56116   3.133   7.176   2.711  0.1072 -0.3043  0.4230
  426MOL0     N56117   3.096   7.122   2.843  0.2968 -0.3001  0.1505
  426MOL0     C56118   2.984   7.149   2.915  0.3278 -0.0003  0.3556
  426MOL0     C56119   2.988   7.070   3.020  0.1864 -0.2433  0.3485
  426MOL0     C56120   2.886   7.060   3.129 -0.3135  0.3071 -0.1667
  426MOL0     C56121   2.960   7.046   3.269  0.3079 -0.3878 -0.0720
  426MOL0     C56122   2.887   6.952   3.352  0.3705  0.2602 -0.3375
  426MOL0     C56123   2.956   6.921   3.484  0.0114 -0.2263 -0.8336
  426MOL0     O56124   2.926   7.024   3.579 -0.9707 -0.0969  0.3516
  426MOL0     C56125   2.955   6.995   3.710  0.2568  0.6171  0.1855
  426MOL0     C56126   2.952   7.115   3.789  0.4140  0.9196 -0.7736
  426MOL0     C56127   2.992   7.100   3.921  0.4779  0.3008 -0.0547
  426MOL0     C56128   3.053   6.983   3.968 -0.2317  0.0956 -0.1370
  426MOL0     C56129   3.079   6.971   4.119 -0.4245 -0.2436 -0.4342
  426MOL0     O56130   3.129   6.853   4.154 -0.3668  0.0722 -0.9054
  426MOL0     C56131   3.180   6.834   4.277 -0.0298 -1.2786 -0.8750
  426MOL0     C56132   3.313   6.854   4.312  0.2732 -0.5270 -0.0901
  426MOL0     C56133   3.356   6.832   4.443 -0.7268  0.1830 -0.9753
  426MOL0     C56134   3.271   6.796   4.545 -0.7842 -0.2009 -0.8319
  426MOL0     O56135   3.316   6.765   4.668 -0.2148 -0.3011 -0.5156
  426MOL0     C56136   3.235   6.676   4.735  0.1605 -0.2291  0.4539
  426MOL0     C56137   3.300   6.592   4.843 -0.4185  0.0791  0.4233
  426MOL0     C56138   3.367   6.687   4.930 -0.4978  0.2901 -1.0581
  426MOL0     C56139   3.417   6.634   5.076  0.1050 -0.8939  1.0540
  426MOL0     C56140   3.554   6.574   5.070 -0.0235  0.2183  0.2840
  426MOL0     C56141   3.541   6.433   5.000 -0.2310  0.0813  0.4312
  426MOL0     C56142   3.676   6.347   5.009 -0.3082 -0.9193  0.4522
  426MOL0     C56143   3.670   6.222   4.925  0.4976  0.7380 -0.2160
  426MOL0    Cl56144   3.547   6.119   4.999 -0.3728 -0.9145 -0.6871
  426MOL0     C56145   3.137   6.801   4.514 -0.4268 -1.0248  0.9466
  426MOL0     C56146   3.094   6.814   4.380 -0.8352  0.3006  0.0052
  426MOL0     O56147   3.059   7.067   4.196  0.2319 -0.0430 -0.1526
  426MOL0     C56148   3.054   6.868   3.887 -0.4862 -0.5681 -0.1410
  426MOL0     C56149   3.000   6.876   3.763  0.2436  0.3422 -0.6550
  426MOL0     N56150   3.112   7.000   3.010 -0.0650 -0.5821 -0.8337
  426MOL0     N56151   3.172   7.035   2.905 -0.0638 -0.2673 -0.4795
  426MOL0     C56152   3.865   6.875   1.996  0.0403  0.3637 -0.1855
  426MOL0     C56153   3.945   6.772   1.938 -0.8198 -0.4336  0.1949
  426MOL0     C56154   4.060   6.505   1.570  0.6222 -1.1966 -0.6581
  426MOL0     C56155   4.057   6.382   1.639 -1.6005  0.4171  0.4937
  426MOL0     C56156   4.100   6.267   1.575 -0.2145 -0.1462  0.2290
  426MOL0     C56157   4.128   6.262   1.439  0.3066 -0.0929 -0.1090
  426MOL0     O56158   4.158   6.144   1.376 -0.3118 -0.2660 -0.9813
  426MOL0     C56159   4.282   6.090   1.421 -0.8243 -0.0774 -0.9081
  426MOL0     C56160   4.399   6.152   1.344  0.4592 -0.4342  0.5536
  426MOL0     C56161   4.425   6.086   1.207  0.5818 -0.1682 -0.2898
  426MOL0     C56162   4.361   6.155   1.086 -0.3095 -0.0841 -0.2006
  426MOL0     C56163   4.391   6.302   1.068  0.0405  0.1173 -1.0623
  426MOL0     C56164   4.407   6.422   1.050 -0.8526 -0.8724 -0.2592
  426MOL0     C56165   4.146   6.380   1.373  0.1856 -0.6141  0.8510
  426MOL0     C56166   4.099   6.500   1.436 -1.2757  0.4542 -0.3873
  426MOL0     H56167   3.749   6.715   1.652  1.2953  0.9993 -1.1301
  426MOL0     H56168   3.637   6.902   1.747  0.8697 -2.1533 -1.8211
  426MOL0     H56169   3.761   7.110   2.151 -0.9741  2.0410  0.2543
  426MOL0     H56170   3.669   6.963   2.188 -1.3416 -2.0343 -2.7501
  426MOL0     H56171   3.486   7.163   2.077  0.2220  0.5934  0.3202
  426MOL0     H56172   3.609   7.240   2.183 -2.6753  1.8079 -1.8290
  426MOL0     H56173   3.562   7.114   2.365  2.4718 -3.3389 -1.6872
  426MOL0     H56174   3.459   7.001   2.264 -2.2245 -0.3061  2.3009
  426MOL0     H56175   3.373   7.280   2.356  1.8691 -0.5656  1.8401
  426MOL0     H56176   3.297   7.187   2.240 -1.1584  0.0418  2.2912
  426MOL0     H56177   3.349   7.126   2.535 -3.7503  2.2600  1.0786
  426MOL0     H56178   3.290   6.997   2.416 -2.3115  0.0528 -1.9140
  426MOL0     H56179   3.087   7.138   2.368 -0.0969  0.1694 -0.0032
  426MOL0     H56180   3.164   7.271   2.455  3.1518 -0.5017  0.2512
  426MOL0     H56181   2.973   7.114   2.571  0.0573  1.5919  2.5399
  426MOL0     H56182   3.113   7.000   2.581  1.1158 -0.2426 -0.3550
  426MOL0     H56183   3.115   7.284   2.708  0.1566 -0.3080  0.0005
  426MOL0     H56184   3.242   7.165   2.715  0.1944  0.5985  1.1481
  426MOL0     H56185   2.897   7.210   2.892 -0.8957 -1.3970  1.1500
  426MOL0     H56186   2.823   6.972   3.114  0.3077 -0.1039 -0.3794
  426MOL0     H56187   2.838   7.158   3.123 -1.1910 -0.1932 -2.3569
  426MOL0     H56188   2.967   7.143   3.318 -1.4058 -0.8518  1.1818
  426MOL0     H56189   3.064   7.014   3.252  0.6971 -0.2995  1.8950
  426MOL0     H56190   2.785   6.985   3.374  1.8399  3.2735  3.0524
  426MOL0     H56191   2.881   6.860   3.294 -0.5132 -0.1240  0.3408
  426MOL0     H56192   3.063   6.907   3.467 -0.1466 -1.6663 -0.8012
  426MOL0     H56193   2.910   6.826   3.514 -0.2083  0.1466  0.0499
  426MOL0     H56194   2.910   7.211   3.760  0.0033 -0.0492 -3.8077
  426MOL0     H56195   2.973   7.178   3.994  0.0407 -1.4445  1.7909
  426MOL0     H56196   3.387   6.860   4.233  0.6472  0.3820  0.3174
  426MOL0     H56197   3.464   6.832   4.451 -0.6225 -4.9307  1.2312
  426MOL0     H56198   3.198   6.593   4.674 -0.2075 -1.5971  2.4113
  426MOL0     H56199   3.152   6.727   4.785 -0.8664 -2.4324  1.1431
  426MOL0     H56200   3.372   6.532   4.786 -0.6347 -0.1972  0.4407
  426MOL0     H56201   3.224   6.529   4.891  1.1683 -3.6676 -1.5171
  426MOL0     H56202   3.299   6.771   4.942  0.2418  0.8416 -0.6593
  426MOL0     H56203   3.460   6.724   4.885  0.9148 -1.1566  0.5274
  426MOL0     H56204   3.411   6.717   5.147  0.0205 -0.0618  0.1045
  426MOL0     H56205   3.342   6.558   5.099 -3.6822  2.0254 -0.6152
  426MOL0     H56206   3.595   6.559   5.170 -1.0264  0.4488  0.7334
  426MOL0     H56207   3.627   6.638   5.020  0.4324 -0.2476  0.3394
  426MOL0     H56208   3.514   6.446   4.894 -3.1392 -2.3790  0.7309
  426MOL0     H56209   3.461   6.376   5.048  0.7808 -0.1121  1.9263
  426MOL0     H56210   3.766   6.404   4.985  0.7783 -2.1605  1.4354
  426MOL0     H56211   3.700   6.323   5.113 -2.7384  0.5785  1.4712
  426MOL0     H56212   3.768   6.174   4.918  0.5953  0.9193 -0.0832
  426MOL0     H56213   3.645   6.244   4.820  2.8658  0.4295 -0.8921
  426MOL0     H56214   3.071   6.802   4.600 -3.0024  4.7580 -0.5727
  426MOL0     H56215   2.986   6.818   4.364 -0.5869  0.9477 -1.6228
  426MOL0     H56216   3.098   6.773   3.917  1.7869  0.6560  0.6393
  426MOL0     H56217   3.010   6.785   3.706 -2.4950 -1.6831  1.7797
  426MOL0     H56218   3.905   6.937   2.075 -2.0058  0.0779  1.1529
  426MOL0     H56219   4.038   6.745   1.988 -0.6815  0.5387  0.4744
  426MOL0     H56220   4.037   6.375   1.746 -0.7403 -1.5777  0.5461
  426MOL0     H56221   4.109   6.174   1.630 -0.2201 -0.1276  0.2617
  426MOL0     H56222   4.304   5.985   1.397  1.9758  0.3068 -0.3283
  426MOL0     H56223   4.304   6.103   1.527 -2.6516  0.1294 -0.5267
  426MOL0     H56224   4.376   6.258   1.330 -3.6017 -1.3503 -1.2389
  426MOL0     H56225   4.488   6.134   1.405  0.8645 -2.5205 -0.5430
  426MOL0     H56226   4.383   5.985   1.204  0.9578 -0.4844  2.6922
  426MOL0     H56227   4.529   6.075   1.175  0.4342 -0.4591 -0.6899
  426MOL0     H56228   4.397   6.108   0.994  0.6557 -0.9124  0.5793
  426MOL0     H56229   4.252   6.154   1.095 -0.5980  0.6130 -2.6960
  426MOL0     H56230   4.409   6.527   1.032 -0.6963 -0.9897 -0.9805
  426MOL0     H56231   4.163   6.389   1.266 -2.2119 -1.1361  0.3547
  426MOL0     H56232   4.109   6.587   1.371 -0.5262  1.8586  1.5132
  427MOL0     O56233   3.715   4.882   7.925  0.1829  0.0052 -0.2243
  427MOL0     C56234   3.693   4.814   7.827 -0.3849  0.5219 -0.3685
  427MOL0     O56235   3.787   4.727   7.777  0.8084 -0.4645 -0.1172
  427MOL0     C56236   3.902   4.691   7.840  0.8257 -0.0168  0.0610
  427MOL0     C56237   3.987   4.770   7.918  0.1133  0.0550 -0.7715
  427MOL0     C56238   4.106   4.716   7.973  0.4077  0.1475 -1.2978
  427MOL0     C56239   4.147   4.589   7.954 -1.1930 -0.9402 -0.0039
  427MOL0     O56240   4.262   4.557   8.008  0.1420  0.5556  0.2344
  427MOL0     C56241   4.271   4.424   8.051  0.1542  0.2867  0.0683
  427MOL0     C56242   4.399   4.427   8.142  1.0120  0.5326  0.5380
  427MOL0     C56243   4.399   4.301   8.227  0.0644 -0.2095 -0.2304
  427MOL0     C56244   4.290   4.282   8.332  0.6074 -0.0530 -0.5302
  427MOL0     C56245   4.358   4.245   8.470 -1.1467 -0.6248  1.5448
  427MOL0     C56246   4.245   4.220   8.570 -0.0842  0.4170 -0.4419
  427MOL0     C56247   4.146   4.334   8.600  0.4705 -0.9368  0.0585
  427MOL0     C56248   4.062   4.300   8.719  0.4551  0.1306  0.0649
  427MOL0     N56249   3.964   4.414   8.754 -0.2695  0.1435  0.8225
  427MOL0     C56250   3.846   4.427   8.676  0.6302  0.2015  1.0923
  427MOL0     C56251   3.791   4.540   8.724  0.2287  0.1016  0.2582
  427MOL0     C56252   3.654   4.592   8.694 -0.1269  0.2754  0.8665
  427MOL0     C56253   3.611   4.574   8.547 -0.0283 -0.1866 -1.0382
  427MOL0     C56254   3.480   4.643   8.517 -0.6904  0.0119 -0.1281
  427MOL0     C56255   3.356   4.566   8.574 -0.3231 -0.0887 -0.7230
  427MOL0     O56256   3.237   4.631   8.550  1.3784  0.0172  0.2418
  427MOL0     C56257   3.162   4.572   8.446 -0.4776  0.8776  0.3596
  427MOL0     C56258   3.217   4.498   8.336 -0.7450  1.0497 -0.4865
  427MOL0     C56259   3.144   4.442   8.232 -0.1257 -0.1838  0.4035
  427MOL0     C56260   3.000   4.440   8.258 -0.3533 -0.1587 -0.4994
  427MOL0     C56261   2.911   4.369   8.167 -0.1931 -0.3503  0.9745
  427MOL0     O56262   2.959   4.275   8.073  0.1329 -0.9368 -0.0426
  427MOL0     C56263   2.882   4.180   8.006  0.8289 -0.1356 -1.0342
  427MOL0     C56264   2.962   4.099   7.939  0.1976 -0.0029  0.6787
  427MOL0     C56265   2.908   4.006   7.848 -0.4443 -0.7280 -0.2854
  427MOL0     C56266   2.770   3.983   7.839 -0.3737 -0.0682 -0.3166
  427MOL0     O56267   2.725   3.874   7.765  0.5020 -0.2698  0.0892
  427MOL0     C56268   2.593   3.821   7.766  0.5930 -0.7129 -0.1184
  427MOL0     C56269   2.504   3.877   7.651  0.2492  0.1532 -0.6417
  427MOL0     C56270   2.544   3.815   7.521  1.1079  0.9404 -0.6487
  427MOL0     C56271   2.446   3.827   7.406  1.0392 -0.6496 -0.5732
  427MOL0     C56272   2.515   3.796   7.278  0.6396  0.1667  0.8696
  427MOL0     C56273   2.414   3.812   7.162 -0.3582 -1.0558 -0.1176
  427MOL0     C56274   2.484   3.778   7.028  0.1747 -0.1068  1.1980
  427MOL0     C56275   2.394   3.773   6.906 -0.6376  0.1910  0.0564
  427MOL0    Cl56276   2.300   3.923   6.891  0.0969  0.3248 -0.4246
  427MOL0     C56277   2.683   4.060   7.916 -0.8213  0.1970 -0.7727
  427MOL0     C56278   2.741   4.165   7.993  1.1107  0.5464  0.6290
  427MOL0     O56279   2.795   4.406   8.174 -0.3130 -0.5994  0.1451
  427MOL0     C56280   2.945   4.495   8.370 -0.9002 -0.8630 -0.5812
  427MOL0     C56281   3.030   4.563   8.463  0.0968  0.1695  0.0622
  427MOL0     N56282   3.882   4.599   8.808 -0.1639 -0.5006 -0.3820
  427MOL0     N56283   3.970   4.518   8.839 -0.6400 -0.0353 -0.9981
  427MOL0     C56284   4.054   4.499   7.891 -0.5152 -0.8240  0.1918
  427MOL0     C56285   3.931   4.550   7.834  0.1553 -0.0158 -0.0726
  427MOL0     C56286   3.564   4.808   7.756 -0.0899  0.1463  0.3877
  427MOL0     C56287   3.441   4.850   7.826  0.1643  0.1415  0.9436
  427MOL0     C56288   3.314   4.851   7.763 -0.1968 -0.1641  0.6883
  427MOL0     C56289   3.302   4.797   7.630  1.1655  0.6069 -0.3765
  427MOL0     O56290   3.181   4.775   7.568  0.3843  1.0486  0.1011
  427MOL0     C56291   3.092   4.882   7.568  0.9409  0.3085  0.7689
  427MOL0     C56292   3.112   4.976   7.454  0.0099  0.2359 -0.3039
  427MOL0     C56293   3.061   4.912   7.329 -0.0304 -0.0315 -0.4658
  427MOL0     C56294   3.071   4.999   7.201  0.7140 -0.7713 -0.7237
  427MOL0     C56295   3.024   4.919   7.085 -0.2132  0.1835  0.0564
  427MOL0     C56296   2.970   4.853   7.002  0.3294 -0.8582 -0.0353
  427MOL0     C56297   3.415   4.760   7.569 -1.1464  0.2150  0.0660
  427MOL0     C56298   3.544   4.765   7.624 -0.5035  0.2671  1.0195
  427MOL0     H56299   3.958   4.874   7.931  1.2495  0.2325  0.5985
  427MOL0     H56300   4.176   4.776   8.031  1.5903  0.4765 -2.9848
  427MOL0     H56301   4.312   4.359   7.972 -1.9347 -0.1436 -0.7257
  427MOL0     H56302   4.182   4.384   8.101  1.4150 -0.4250  1.8535
  427MOL0     H56303   4.398   4.513   8.209 -1.9884  1.1120 -0.1181
  427MOL0     H56304   4.490   4.425   8.082  0.5581 -0.0197 -0.1615
  427MOL0     H56305   4.499   4.302   8.271 -0.4652  0.3197  1.0069
  427MOL0     H56306   4.387   4.219   8.156  0.1440  0.3447 -0.8995
  427MOL0     H56307   4.243   4.380   8.337 -0.0337 -0.3702 -0.2048
  427MOL0     H56308   4.210   4.210   8.313  0.9679 -0.6036 -0.0087
  427MOL0     H56309   4.415   4.330   8.509 -0.7142 -0.6228  0.9157
  427MOL0     H56310   4.420   4.157   8.452 -1.6320 -1.1737  2.4734
  427MOL0     H56311   4.288   4.192   8.667 -0.2070 -0.1166 -0.5396
  427MOL0     H56312   4.191   4.128   8.546  0.5586 -0.3461  0.9176
  427MOL0     H56313   4.202   4.427   8.613  0.8927 -0.8013 -2.3266
  427MOL0     H56314   4.072   4.345   8.521 -0.3858 -0.9474  0.8397
  427MOL0     H56315   4.135   4.296   8.801 -1.8180 -1.0705  2.1579
  427MOL0     H56316   4.015   4.201   8.725  0.6440  0.0826  0.7871
  427MOL0     H56317   3.803   4.356   8.606  1.3657 -0.9629  1.7834
  427MOL0     H56318   3.644   4.697   8.724  1.1817  0.8742 -0.6619
  427MOL0     H56319   3.577   4.534   8.745 -2.0053  2.6577  0.8631
  427MOL0     H56320   3.593   4.466   8.538 -3.2475 -0.0545  1.8124
  427MOL0     H56321   3.690   4.603   8.478  1.7823 -3.3176 -0.4865
  427MOL0     H56322   3.475   4.744   8.560  1.9678  0.6532 -1.1211
  427MOL0     H56323   3.481   4.656   8.409 -1.3952  3.0173  0.1257
  427MOL0     H56324   3.367   4.566   8.683 -0.6187 -3.6487 -0.5694
  427MOL0     H56325   3.351   4.459   8.552  3.9982 -1.2234  2.3628
  427MOL0     H56326   3.325   4.502   8.328 -0.7981  5.0671 -0.7902
  427MOL0     H56327   3.186   4.401   8.141 -0.7516  0.3015 -0.1143
  427MOL0     H56328   3.070   4.104   7.933  0.0850  0.2694 -2.7615
  427MOL0     H56329   2.965   3.941   7.783  1.8863  0.0339  0.8580
  427MOL0     H56330   2.552   3.838   7.865  0.5564 -0.8717 -0.1060
  427MOL0     H56331   2.590   3.713   7.752 -2.5108 -0.9127  1.3794
  427MOL0     H56332   2.516   3.985   7.633  0.9585  0.1619 -0.1580
  427MOL0     H56333   2.400   3.860   7.678 -0.4244  0.2055 -2.9845
  427MOL0     H56334   2.560   3.709   7.546 -0.0218  1.5918  3.7164
  427MOL0     H56335   2.640   3.860   7.493  1.2341 -0.1896 -2.1452
  427MOL0     H56336   2.356   3.765   7.407 -0.0436  0.6051 -3.9577
  427MOL0     H56337   2.412   3.931   7.401 -0.4720 -1.0617  0.4884
  427MOL0     H56338   2.542   3.691   7.268  0.0194 -0.0174  1.0865
  427MOL0     H56339   2.598   3.867   7.270 -2.3974  3.9752 -0.0198
  427MOL0     H56340   2.382   3.916   7.164 -0.4576 -1.0999  0.9693
  427MOL0     H56341   2.330   3.744   7.179 -0.5377 -0.6199  0.7835
  427MOL0     H56342   2.553   3.858   7.004 -0.6507  0.9774  2.3122
  427MOL0     H56343   2.533   3.680   7.038  0.2124  0.1305  3.9972
  427MOL0     H56344   2.324   3.690   6.913  0.7732 -0.9775  0.9891
  427MOL0     H56345   2.455   3.758   6.817 -2.0395 -0.8109 -0.7639
  427MOL0     H56346   2.576   4.054   7.905 -1.0000  0.3759  0.7226
  427MOL0     H56347   2.679   4.235   8.048  0.5450 -1.2822  2.4494
  427MOL0     H56348   2.841   4.508   8.396 -1.2276 -1.3449 -1.5809
  427MOL0     H56349   2.988   4.613   8.550 -1.1301 -1.4183  0.4232
  427MOL0     H56350   4.075   4.393   7.879 -0.4637 -0.7177 -0.7425
  427MOL0     H56351   3.857   4.493   7.778  2.1007 -1.9265 -0.8129
  427MOL0     H56352   3.459   4.892   7.924  0.4553  0.8735  0.5870
  427MOL0     H56353   3.232   4.882   7.828 -1.2449  2.7566 -1.7976
  427MOL0     H56354   3.099   4.928   7.667 -1.4512 -1.7934  2.0502
  427MOL0     H56355   2.989   4.847   7.550 -0.0917  3.4977 -0.3253
  427MOL0     H56356   3.056   5.069   7.462 -1.8076 -0.7635 -0.7567
  427MOL0     H56357   3.215   5.011   7.441  0.4142  0.6687  3.2168
  427MOL0     H56358   2.957   4.881   7.347  0.9780 -1.9188  2.8355
  427MOL0     H56359   3.134   4.832   7.314 -0.4297 -0.5421  0.2485
  427MOL0     H56360   2.998   5.079   7.197  1.5188 -0.0430 -4.3860
  427MOL0     H56361   3.172   5.036   7.179  1.4690  0.4276  3.8369
  427MOL0     H56362   2.912   4.797   6.932 -2.2992  0.7392  0.7378
  427MOL0     H56363   3.422   4.713   7.471  3.0065  0.5605  0.0100
  427MOL0     H56364   3.626   4.734   7.559  0.2584  5.5376 -1.0367
  428MOL0     O56365   9.407   3.499  11.418  0.1229 -0.5621  0.4337
  428MOL0     C56366   9.528   3.477  11.411 -0.2994  0.4664  0.6503
  428MOL0     O56367   9.626   3.548  11.469 -0.4971 -0.3889  0.1249
  428MOL0     C56368   9.587   3.656  11.545  0.1936  0.2763  0.5361
  428MOL0     C56369   9.512   3.765  11.506  0.0031  0.2324  0.8555
  428MOL0     C56370   9.471   3.856  11.607 -0.3548 -0.0519 -0.5070
  428MOL0     C56371   9.524   3.854  11.737  0.3171  0.3178  0.8637
  428MOL0     O56372   9.505   3.940  11.840 -0.7678  0.3746  0.3303
  428MOL0     C56373   9.425   4.055  11.808  0.1182  0.2372 -0.3307
  428MOL0     C56374   9.393   4.126  11.946 -0.1850  0.6577  0.3985
  428MOL0     C56375   9.484   4.245  11.970 -0.6879  0.4259 -0.0993
  428MOL0     C56376   9.447   4.310  12.100 -0.2316 -0.1132  0.2067
  428MOL0     C56377   9.561   4.391  12.150 -0.0702  0.3314  0.6035
  428MOL0     C56378   9.543   4.434  12.296  0.0285  0.4268  0.0065
  428MOL0     C56379   9.673   4.493  12.348 -0.2057  0.0308 -0.8150
  428MOL0     C56380   9.659   4.533  12.495 -0.1452 -0.3507  0.0327
  428MOL0     N56381   9.765   4.623  12.535 -0.7263 -1.3554  0.6277
  428MOL0     C56382   9.782   4.759  12.503 -0.3011 -0.1330  0.6889
  428MOL0     C56383   9.881   4.802  12.581  0.8634  0.6658  1.0826
  428MOL0     C56384   9.920   4.941  12.577 -0.0250 -1.1006  0.1097
  428MOL0     C56385   9.883   5.018  12.697  0.4442  0.2636 -0.4876
  428MOL0     C56386   9.954   4.969  12.823 -0.6075  0.0913  0.4647
  428MOL0     C56387   9.941   5.069  12.934 -0.2913 -0.3939  0.1300
  428MOL0     O56388   9.819   5.034  13.001  0.3074 -0.1673  0.1527
  428MOL0     C56389   9.721   5.126  13.016  0.1326  0.4294  0.2398
  428MOL0     C56390   9.735   5.226  13.109  0.7231  0.1124  0.1327
  428MOL0     C56391   9.641   5.321  13.119  0.4937 -1.1667  0.7192
  428MOL0     C56392   9.524   5.314  13.035 -0.2407  0.2873  0.3489
  428MOL0     C56393   9.413   5.410  13.062  0.3299 -0.1189 -0.2809
  428MOL0     O56394   9.389   5.441  13.192 -0.6441  0.8408 -0.6506
  428MOL0     C56395   9.284   5.525  13.236  0.0889 -0.6776  0.0769
  428MOL0     C56396   9.269   5.656  13.189 -0.0398  0.3776 -0.6308
  428MOL0     C56397   9.159   5.736  13.229  0.7236  0.0163 -1.0894
  428MOL0     C56398   9.057   5.682  13.311 -1.2249  0.1316 -0.5514
  428MOL0     O56399   8.942   5.756  13.338  1.1419 -0.3192 -0.2156
  428MOL0     C56400   8.868   5.775  13.221  0.3445 -0.3658  0.7763
  428MOL0     C56401   8.724   5.782  13.265 -0.8605 -0.1918 -0.1699
  428MOL0     C56402   8.644   5.838  13.154 -0.6101 -0.4273 -1.3258
  428MOL0     C56403   8.515   5.897  13.210  0.0640  0.0069 -0.4076
  428MOL0     C56404   8.434   5.933  13.081 -1.2788  0.3395  0.3660
  428MOL0     C56405   8.378   6.076  13.095 -0.2863  0.6852  0.6962
  428MOL0     C56406   8.491   6.177  13.061  0.0382 -0.3229  0.3004
  428MOL0     C56407   8.450   6.312  13.125  1.0394 -0.0629  0.1028
  428MOL0    Cl56408   8.570   6.426  13.092  0.5237 -0.1511 -0.3280
  428MOL0     C56409   9.086   5.557  13.376 -0.2213  0.5689  0.5443
  428MOL0     C56410   9.199   5.484  13.342  0.9457  0.0449  0.5048
  428MOL0     O56411   9.343   5.448  12.966  0.1027  0.4455 -0.2494
  428MOL0     C56412   9.504   5.207  12.942  0.5759 -0.9340 -0.0286
  428MOL0     C56413   9.617   5.123  12.921  0.0380 -0.0949  0.3476
  428MOL0     N56414   9.948   4.692  12.633  0.1741 -0.2951 -0.5392
  428MOL0     N56415   9.864   4.592  12.614 -0.6053  0.0588 -1.1454
  428MOL0     C56416   9.609   3.750  11.778  0.1246  0.5296  0.5352
  428MOL0     C56417   9.644   3.658  11.674 -0.8699  0.9241  0.4763
  428MOL0     C56418   9.565   3.349  11.351 -0.3314 -0.3741  0.1023
  428MOL0     C56419   9.682   3.285  11.386 -0.7715 -0.4628 -0.1293
  428MOL0     C56420   9.711   3.151  11.333 -0.0025 -0.6009  0.0403
  428MOL0     C56421   9.617   3.093  11.244  0.3143 -0.3770 -0.6791
  428MOL0     O56422   9.633   2.970  11.190 -0.2551  0.0063 -0.2920
  428MOL0     C56423   9.674   2.868  11.283  0.6484  0.2904 -0.2788
  428MOL0     C56424   9.582   2.863  11.408 -0.2019 -0.0302  0.5236
  428MOL0     C56425   9.603   2.736  11.498 -0.1991 -0.0217 -0.4243
  428MOL0     C56426   9.494   2.632  11.482 -0.5203  0.6267  0.4500
  428MOL0     C56427   9.486   2.590  11.346 -0.6847  0.2899  0.6571
  428MOL0     C56428   9.462   2.572  11.234 -0.2185 -0.9387 -0.5698
  428MOL0     C56429   9.506   3.172  11.213  0.5163  0.0170  0.0872
  428MOL0     C56430   9.483   3.295  11.264  0.4505  0.7495  0.4160
  428MOL0     H56431   9.447   3.768  11.419  1.0847  2.8865  0.0145
  428MOL0     H56432   9.397   3.931  11.583  0.8632  0.5686 -2.5253
  428MOL0     H56433   9.328   4.026  11.764  0.3338 -1.9235  0.4825
  428MOL0     H56434   9.464   4.123  11.732  0.0964  2.2892  1.4191
  428MOL0     H56435   9.396   4.056  12.030  1.1951  3.9118  3.2693
  428MOL0     H56436   9.294   4.169  11.931 -1.8545 -2.1532  2.3252
  428MOL0     H56437   9.489   4.319  11.890  1.5892  1.0697  0.5600
  428MOL0     H56438   9.586   4.208  11.986 -0.3765  2.4435  3.9757
  428MOL0     H56439   9.356   4.370  12.091 -0.3535 -0.3170  0.0828
  428MOL0     H56440   9.444   4.231  12.176  3.4759 -2.7642 -2.0707
  428MOL0     H56441   9.575   4.479  12.086 -1.8834 -0.9071 -1.6767
  428MOL0     H56442   9.654   4.336  12.137 -0.2342  0.7800 -4.3600
  428MOL0     H56443   9.512   4.350  12.359 -0.3059  0.7068  0.2158
  428MOL0     H56444   9.465   4.510  12.289  0.1171  0.3843 -1.9116
  428MOL0     H56445   9.758   4.426  12.329 -0.9829 -0.1261 -4.3181
  428MOL0     H56446   9.698   4.581  12.288  2.0583 -0.3028 -0.4574
  428MOL0     H56447   9.643   4.453  12.569 -2.5619  2.7704  3.1903
  428MOL0     H56448   9.570   4.595  12.497  0.6489  0.8675 -1.0272
  428MOL0     H56449   9.723   4.822  12.437 -2.1883 -1.5556  0.9284
  428MOL0     H56450   9.891   4.989  12.483  2.2072 -2.8463 -1.5690
  428MOL0     H56451  10.029   4.949  12.570 -0.0966 -0.8008 -0.8192
  428MOL0     H56452   9.774   5.020  12.712  0.0816  0.4373 -2.8306
  428MOL0     H56453   9.927   5.117  12.681  0.8117  0.4862  1.5879
  428MOL0     H56454   9.917   4.868  12.847  0.0426 -1.4942 -4.0593
  428MOL0     H56455  10.059   4.956  12.795 -1.1694  0.4789 -2.1505
  428MOL0     H56456   9.930   5.167  12.885 -0.5155 -0.6393 -0.3109
  428MOL0     H56457  10.034   5.065  12.992  0.5717 -1.0842 -1.2560
  428MOL0     H56458   9.831   5.226  13.159  0.8973  2.9178 -0.0436
  428MOL0     H56459   9.654   5.408  13.183 -1.2208 -0.6349  0.3922
  428MOL0     H56460   9.344   5.699  13.122 -1.1977 -0.3924 -2.5099
  428MOL0     H56461   9.162   5.836  13.187 -3.0489  1.2964  1.2621
  428MOL0     H56462   8.888   5.687  13.159 -0.3814 -0.9331  1.3199
  428MOL0     H56463   8.891   5.865  13.164 -0.3493 -0.4944  0.2696
  428MOL0     H56464   8.724   5.841  13.357  0.5665 -3.7107  2.3033
  428MOL0     H56465   8.695   5.682  13.298  0.2729  0.2536  2.3874
  428MOL0     H56466   8.629   5.762  13.077 -1.0630 -1.3109 -0.3893
  428MOL0     H56467   8.703   5.919  13.111 -0.3717 -0.1711 -0.5455
  428MOL0     H56468   8.457   5.815  13.255  0.2375 -0.5623 -1.2099
  428MOL0     H56469   8.525   5.976  13.285 -0.6226  0.5282 -0.8571
  428MOL0     H56470   8.351   5.862  13.073 -0.8950 -0.0330 -0.3966
  428MOL0     H56471   8.480   5.925  12.982  1.3173 -1.3181  1.6065
  428MOL0     H56472   8.343   6.085  13.198 -0.6192  0.4300  0.6066
  428MOL0     H56473   8.288   6.095  13.035  1.6037 -1.1080 -3.0979
  428MOL0     H56474   8.590   6.146  13.098  2.2473  5.8838  0.7509
  428MOL0     H56475   8.500   6.192  12.953  1.6348 -1.3069  0.2578
  428MOL0     H56476   8.438   6.290  13.232 -1.8045 -1.8510 -0.4520
  428MOL0     H56477   8.354   6.353  13.090  1.7774  0.7916 -0.9865
  428MOL0     H56478   9.019   5.512  13.448  0.0409  0.2825  0.6112
  428MOL0     H56479   9.198   5.392  13.400  0.0248 -0.7054 -0.6497
  428MOL0     H56480   9.417   5.204  12.879 -0.2063  0.5594  0.9306
  428MOL0     H56481   9.618   5.047  12.844  2.3145 -1.8475  1.9439
  428MOL0     H56482   9.645   3.742  11.881  0.1510  0.9436  0.5613
  428MOL0     H56483   9.720   3.586  11.702 -1.8069 -0.0844  0.4946
  428MOL0     H56484   9.754   3.327  11.455  0.7920  0.9513 -2.5280
  428MOL0     H56485   9.791   3.084  11.360 -1.9410 -2.9402  0.3543
  428MOL0     H56486   9.777   2.893  11.308  0.4015 -0.0706  1.1693
  428MOL0     H56487   9.665   2.771  11.233  5.9772 -0.9728  0.6900
  428MOL0     H56488   9.597   2.950  11.473  0.4387  0.0407  0.2931
  428MOL0     H56489   9.483   2.869  11.361  1.1859  3.1488 -2.4747
  428MOL0     H56490   9.619   2.763  11.602  2.3214  1.2234 -1.0561
  428MOL0     H56491   9.694   2.690  11.458 -2.0069 -3.2945 -1.1755
  428MOL0     H56492   9.530   2.540  11.528  1.4704 -1.2050 -4.1158
  428MOL0     H56493   9.397   2.667  11.519  0.1440  2.4310  0.5911
  428MOL0     H56494   9.436   2.589  11.132 -1.6032 -1.0413 -0.2609
  428MOL0     H56495   9.430   3.140  11.142 -0.0932 -1.0881  1.1956
  428MOL0     H56496   9.384   3.338  11.255 -0.4464 -1.2287  0.4227
  429MOL0     O56497   6.323   5.395   1.496  0.3540  0.5828 -0.3437
  429MOL0     C56498   6.252   5.286   1.495 -0.5986  0.1178 -0.5647
  429MOL0     O56499   6.265   5.192   1.592  0.4227  0.2072 -0.2452
  429MOL0     C56500   6.357   5.211   1.691  0.1666 -0.3813 -0.0526
  429MOL0     C56501   6.486   5.161   1.675 -0.5277 -0.0110 -0.5973
  429MOL0     C56502   6.594   5.177   1.766  0.7962 -0.4227 -0.0234
  429MOL0     C56503   6.563   5.252   1.875 -0.3151 -1.3333  0.5414
  429MOL0     O56504   6.658   5.278   1.971  0.1631  0.1027  0.8629
  429MOL0     C56505   6.641   5.350   2.092  0.0563  0.0321  0.6218
  429MOL0     C56506   6.768   5.365   2.178  0.3136 -0.4366  0.1031
  429MOL0     C56507   6.729   5.415   2.320  0.3070  0.0997  0.2562
  429MOL0     C56508   6.687   5.564   2.332 -0.1253 -0.0779  0.2465
  429MOL0     C56509   6.792   5.665   2.269  0.7755  0.6702  0.1922
  429MOL0     C56510   6.734   5.803   2.289 -0.8481  0.7763  0.0886
  429MOL0     C56511   6.703   5.865   2.430  1.1680  0.7501  0.2424
  429MOL0     C56512   6.818   5.949   2.473 -0.4480  0.2969  0.1536
  429MOL0     N56513   6.786   6.022   2.591  0.1492 -0.1900  1.2542
  429MOL0     C56514   6.860   6.130   2.633 -0.0227  0.6097  0.5372
  429MOL0     C56515   6.810   6.156   2.756  0.4307  0.3129  0.4780
  429MOL0     C56516   6.866   6.275   2.832  0.4902  0.1081 -0.2635
  429MOL0     C56517   6.859   6.253   2.985  0.1530 -0.5767  0.1875
  429MOL0     C56518   6.720   6.232   3.050 -0.4147 -1.5073 -0.9426
  429MOL0     C56519   6.703   6.275   3.195 -0.6966 -0.2626 -0.2808
  429MOL0     O56520   6.608   6.193   3.273  0.2416  1.0309 -0.3379
  429MOL0     C56521   6.609   6.219   3.404 -0.1435  1.2803 -0.0300
  429MOL0     C56522   6.524   6.143   3.489  0.5859  0.3418  0.7296
  429MOL0     C56523   6.504   6.176   3.622 -0.0162 -0.1056  0.0049
  429MOL0     C56524   6.588   6.278   3.684 -1.2520 -0.5696 -0.1461
  429MOL0     C56525   6.580   6.325   3.821  0.1282  0.3960  0.2067
  429MOL0     O56526   6.459   6.294   3.882 -0.2746  0.5703 -0.4720
  429MOL0     C56527   6.436   6.360   3.996  0.1807 -1.0107 -0.1751
  429MOL0     C56528   6.388   6.488   3.991  0.4244  0.2267 -0.2125
  429MOL0     C56529   6.352   6.553   4.112  0.1761  0.5958  0.0975
  429MOL0     C56530   6.384   6.500   4.236 -0.2461  0.0498  0.5682
  429MOL0     O56531   6.350   6.571   4.353 -0.4197  0.0576  0.5701
  429MOL0     C56532   6.390   6.532   4.486  0.3344 -0.6063  0.1732
  429MOL0     C56533   6.361   6.653   4.577 -0.6833 -0.4287 -0.5336
  429MOL0     C56534   6.215   6.685   4.571 -0.1058  0.3453 -0.2289
  429MOL0     C56535   6.188   6.808   4.661 -0.2470  0.3944 -0.3130
  429MOL0     C56536   6.043   6.848   4.661 -0.6520  0.1350 -0.1259
  429MOL0     C56537   6.017   7.003   4.697 -0.1008  0.0575 -0.1327
  429MOL0     C56538   6.111   7.066   4.789  0.0801  0.3033 -0.2893
  429MOL0     C56539   6.066   7.201   4.824  0.8088  0.9529  0.5648
  429MOL0    Cl56540   6.162   7.287   4.958 -0.1444 -0.2743 -0.3872
  429MOL0     C56541   6.443   6.371   4.238 -0.7277  0.6617 -0.0145
  429MOL0     C56542   6.467   6.308   4.117  0.6589  0.1796 -0.1883
  429MOL0     O56543   6.668   6.401   3.865  1.3691 -0.0101 -0.0634
  429MOL0     C56544   6.666   6.352   3.599 -0.9689 -0.2279  0.3555
  429MOL0     C56545   6.682   6.321   3.465 -0.6702  0.1930  0.1571
  429MOL0     N56546   6.725   6.060   2.794 -0.4039 -0.7098  0.8496
  429MOL0     N56547   6.706   5.972   2.693  0.0585  0.0732 -0.6095
  429MOL0     C56548   6.439   5.321   1.883  0.7190  0.4691  0.0455
  429MOL0     C56549   6.337   5.306   1.795 -0.0744 -0.2119 -0.0060
  429MOL0     C56550   6.145   5.261   1.394 -0.8179 -0.5202 -0.6241
  429MOL0     C56551   6.116   5.359   1.302 -0.5579 -0.4268 -0.3484
  429MOL0     C56552   6.021   5.334   1.207  0.7221  1.1850  0.3475
  429MOL0     C56553   5.940   5.219   1.209  0.6945  0.9031 -0.2364
  429MOL0     O56554   5.835   5.202   1.128  0.0442 -0.2994 -0.2527
  429MOL0     C56555   5.702   5.221   1.189 -0.3683 -0.7306  0.9224
  429MOL0     C56556   5.606   5.124   1.128 -1.0500 -0.3752  0.4064
  429MOL0     C56557   5.569   5.145   0.979 -0.2013  0.0312  0.1033
  429MOL0     C56558   5.647   5.054   0.884 -0.5190 -0.2964  0.3693
  429MOL0     C56559   5.587   4.920   0.890  0.3910 -0.9680 -0.1142
  429MOL0     C56560   5.538   4.818   0.920  0.7008  0.1924  1.0659
  429MOL0     C56561   5.964   5.123   1.308  0.1972 -0.1940 -0.1863
  429MOL0     C56562   6.062   5.148   1.396  0.0548 -0.5365  0.9201
  429MOL0     H56563   6.496   5.099   1.587 -0.4322 -0.7737 -0.0655
  429MOL0     H56564   6.690   5.129   1.752  1.0593  0.2701 -0.6806
  429MOL0     H56565   6.573   5.304   2.164  0.2557  0.1194  0.8695
  429MOL0     H56566   6.593   5.449   2.093 -2.4727 -1.1026  2.0968
  429MOL0     H56567   6.834   5.433   2.122 -0.1426 -0.3950 -0.3952
  429MOL0     H56568   6.803   5.262   2.183 -1.5912 -1.1063  0.6165
  429MOL0     H56569   6.810   5.418   2.394  0.5526 -1.7404  0.0989
  429MOL0     H56570   6.648   5.354   2.361 -0.9978  1.5417 -0.0554
  429MOL0     H56571   6.591   5.578   2.282 -0.2872  0.9942  0.8341
  429MOL0     H56572   6.674   5.595   2.436 -2.0431  0.2627 -0.0518
  429MOL0     H56573   6.786   5.658   2.160 -1.8951  1.6090  0.2109
  429MOL0     H56574   6.893   5.653   2.309  1.4451  1.1831 -1.2896
  429MOL0     H56575   6.640   5.803   2.233 -0.0643  2.9625 -1.3217
  429MOL0     H56576   6.791   5.878   2.234 -0.7068  1.6693  1.4179
  429MOL0     H56577   6.618   5.933   2.420  0.9033  0.1385 -3.0354
  429MOL0     H56578   6.655   5.802   2.505 -1.2943  0.3217 -1.5544
  429MOL0     H56579   6.855   6.023   2.402  0.9364  0.2698  0.8203
  429MOL0     H56580   6.895   5.877   2.503  0.5824  1.9149  1.5346
  429MOL0     H56581   6.929   6.172   2.561  0.6046 -0.2392  0.6172
  429MOL0     H56582   6.814   6.368   2.806 -0.4394 -1.2544 -3.8179
  429MOL0     H56583   6.970   6.294   2.801  0.8426 -0.8252  0.3228
  429MOL0     H56584   6.904   6.341   3.032 -0.2838 -0.2565  0.0102
  429MOL0     H56585   6.916   6.163   3.008  1.2471 -0.8548 -3.0071
  429MOL0     H56586   6.643   6.276   2.986  0.6277  0.3994 -0.9365
  429MOL0     H56587   6.706   6.123   3.057  3.5108 -2.0795  0.2633
  429MOL0     H56588   6.681   6.381   3.209  1.7795  0.0301  2.2017
  429MOL0     H56589   6.796   6.251   3.246 -2.4207 -0.9872  2.7143
  429MOL0     H56590   6.451   6.079   3.440 -2.4976  4.6995 -1.0084
  429MOL0     H56591   6.427   6.121   3.675  1.4679 -1.7944  0.5348
  429MOL0     H56592   6.374   6.526   3.890 -2.9033 -2.1214 -0.8009
  429MOL0     H56593   6.313   6.654   4.106 -2.8848 -0.5297 -1.0450
  429MOL0     H56594   6.499   6.526   4.473  0.0863 -1.2100 -1.8683
  429MOL0     H56595   6.355   6.439   4.531  1.0172 -1.0235 -0.1453
  429MOL0     H56596   6.413   6.740   4.537 -0.0571  0.3426  1.8379
  429MOL0     H56597   6.397   6.651   4.680  2.6883  0.3339 -1.5419
  429MOL0     H56598   6.146   6.608   4.607 -0.5176  1.3182  1.1779
  429MOL0     H56599   6.180   6.701   4.469  0.5024 -0.1169 -0.5202
  429MOL0     H56600   6.231   6.786   4.759  0.8243  2.5784 -0.2514
  429MOL0     H56601   6.245   6.891   4.618 -0.2139  0.3509 -0.3535
  429MOL0     H56602   5.987   6.773   4.718  1.0509 -0.2270  1.1834
  429MOL0     H56603   6.000   6.833   4.562  1.4273  0.0521 -1.0587
  429MOL0     H56604   5.909   7.013   4.715  0.0810 -1.3293  1.9594
  429MOL0     H56605   6.028   7.062   4.605  0.4811  0.0598 -0.0627
  429MOL0     H56606   6.121   7.009   4.881 -3.5361  1.5634  1.0878
  429MOL0     H56607   6.208   7.074   4.739 -0.1395 -1.4756 -1.0594
  429MOL0     H56608   5.960   7.201   4.852  0.0015  1.8237 -2.1673
  429MOL0     H56609   6.066   7.260   4.732 -0.3071 -0.6978 -0.5535
  429MOL0     H56610   6.475   6.321   4.329 -1.8433 -2.5266 -1.2122
  429MOL0     H56611   6.500   6.205   4.109 -2.0597 -0.7297 -0.9098
  429MOL0     H56612   6.725   6.436   3.636 -0.5927 -0.1596 -0.3787
  429MOL0     H56613   6.743   6.398   3.420 -1.9781  0.8587 -0.5199
  429MOL0     H56614   6.430   5.401   1.957  1.6383  0.4714  0.1746
  429MOL0     H56615   6.242   5.358   1.805 -0.7973 -1.7107  1.3641
  429MOL0     H56616   6.167   5.455   1.296 -1.0275  0.2978  3.8525
  429MOL0     H56617   6.001   5.395   1.120  0.4959  0.4935 -0.0947
  429MOL0     H56618   5.665   5.321   1.165  3.4200  0.3832 -1.0399
  429MOL0     H56619   5.709   5.208   1.298  0.4519 -2.7655  0.6621
  429MOL0     H56620   5.634   5.022   1.157  2.2497  0.5810  0.9404
  429MOL0     H56621   5.517   5.140   1.189  0.3310 -1.0298  2.7210
  429MOL0     H56622   5.600   5.247   0.954  1.3334 -0.5296 -0.4204
  429MOL0     H56623   5.461   5.134   0.968 -0.3226 -2.4933  2.4648
  429MOL0     H56624   5.638   5.086   0.780 -0.4243 -2.5389 -0.3768
  429MOL0     H56625   5.749   5.064   0.923 -0.6130  3.5117  0.0391
  429MOL0     H56626   5.486   4.732   0.958 -0.6978  2.2394  4.1698
  429MOL0     H56627   5.903   5.033   1.311 -1.4629  0.8555 -0.8652
  429MOL0     H56628   6.096   5.088   1.480  2.3023  1.1838  1.3562
  430MOL0     O56629   6.438   6.886   1.070 -0.4286 -0.7592 -0.6741
  430MOL0     C56630   6.493   6.994   1.041 -0.0377 -0.9976 -0.5725
  430MOL0     O56631   6.453   7.125   1.071 -0.0565  0.5071  0.5333
  430MOL0     C56632   6.346   7.133   1.162 -0.3442 -0.2962 -0.9904
  430MOL0     C56633   6.225   7.203   1.130 -0.1447 -0.4989  0.3111
  430MOL0     C56634   6.128   7.227   1.224 -0.3968  0.2314  0.2530
  430MOL0     C56635   6.152   7.192   1.359 -0.5723  0.2037  0.9816
  430MOL0     O56636   6.052   7.230   1.445  0.9369 -1.0378 -0.1620
  430MOL0     C56637   6.026   7.155   1.564 -0.6829  0.7016  0.4182
  430MOL0     C56638   5.871   7.158   1.598 -0.5517  0.0325  0.8740
  430MOL0     C56639   5.850   7.067   1.713 -0.7799 -0.0884 -0.1589
  430MOL0     C56640   5.702   7.078   1.777 -0.5075 -0.2071  0.5159
  430MOL0     C56641   5.695   7.202   1.869 -0.6289  0.3607  0.9027
  430MOL0     C56642   5.545   7.245   1.884  0.7806  0.9420 -0.6597
  430MOL0     C56643   5.469   7.163   1.975  0.2398  0.2768 -1.2257
  430MOL0     C56644   5.316   7.189   1.963  0.1372 -0.5791 -0.0037
  430MOL0     N56645   5.282   7.289   2.072  0.4703  0.5896  0.4888
  430MOL0     C56646   5.336   7.412   2.072 -0.2801 -0.7903  0.2995
  430MOL0     C56647   5.307   7.452   2.192  0.7763 -0.0640 -0.9098
  430MOL0     C56648   5.346   7.583   2.257 -0.0694  0.3046  0.2777
  430MOL0     C56649   5.237   7.691   2.249 -0.6533 -0.3503  0.7051
  430MOL0     C56650   5.120   7.666   2.351  0.5311  0.4088  0.1010
  430MOL0     C56651   5.021   7.782   2.355  0.2606 -0.0577  0.2874
  430MOL0     O56652   5.068   7.905   2.412 -0.4416 -0.4353 -0.1513
  430MOL0     C56653   4.978   8.004   2.438  0.4630  0.1389  0.5705
  430MOL0     C56654   5.027   8.142   2.429 -0.6363  0.0456 -0.4679
  430MOL0     C56655   4.949   8.250   2.469 -0.0986 -0.5228 -0.0609
  430MOL0     C56656   4.820   8.236   2.525  0.5754  1.3583  0.2874
  430MOL0     C56657   4.725   8.353   2.563 -0.6906  0.0633  0.0298
  430MOL0     O56658   4.607   8.328   2.619  0.3319  1.0216  0.1419
  430MOL0     C56659   4.534   8.422   2.687 -0.1670  0.8006 -0.5708
  430MOL0     C56660   4.593   8.527   2.751  0.5642 -0.3361 -1.2171
  430MOL0     C56661   4.516   8.626   2.820 -0.2449 -1.1157  0.6365
  430MOL0     C56662   4.374   8.608   2.830 -0.2139  0.4175  1.1279
  430MOL0     O56663   4.294   8.697   2.892  0.4843 -0.2945  0.3544
  430MOL0     C56664   4.358   8.802   2.962 -0.0434 -0.4697 -0.3844
  430MOL0     C56665   4.239   8.877   3.026 -0.5057 -0.3142 -0.5232
  430MOL0     C56666   4.285   9.006   3.098  0.5013  0.1098  0.6934
  430MOL0     C56667   4.166   9.098   3.129  0.3348  0.5460  0.0356
  430MOL0     C56668   4.208   9.203   3.235 -0.1263 -0.2622 -0.5233
  430MOL0     C56669   4.076   9.301   3.268  0.1000 -0.2094  0.3387
  430MOL0     C56670   4.038   9.378   3.146 -0.1425  0.4678  0.6242
  430MOL0     C56671   3.950   9.499   3.158 -0.6493 -1.0259  0.2179
  430MOL0    Cl56672   3.790   9.445   3.203 -0.0783  0.1510  0.3273
  430MOL0     C56673   4.325   8.498   2.766  0.0871 -0.0994 -0.6980
  430MOL0     C56674   4.397   8.404   2.701 -0.1899  0.5459 -0.6412
  430MOL0     O56675   4.771   8.463   2.532  0.4109 -1.1250  0.6232
  430MOL0     C56676   4.769   8.102   2.534 -0.1856 -0.9615 -0.1606
  430MOL0     C56677   4.836   7.990   2.485 -0.2362 -0.4785  0.3221
  430MOL0     N56678   5.259   7.350   2.267 -0.4148 -0.4690 -0.1278
  430MOL0     N56679   5.238   7.250   2.197  0.4564  0.4202  0.3298
  430MOL0     C56680   6.265   7.127   1.392 -0.5830  0.2110  0.6270
  430MOL0     C56681   6.367   7.101   1.297  0.2037  0.8238  0.5085
  430MOL0     C56682   6.632   6.987   0.984 -0.6630 -0.3162  0.3348
  430MOL0     C56683   6.731   7.085   1.006  0.3451 -0.0558 -0.0162
  430MOL0     C56684   6.854   7.079   0.948 -0.7375 -0.2563  0.5339
  430MOL0     C56685   6.892   6.962   0.876 -0.0702  0.9646 -0.6817
  430MOL0     O56686   7.016   6.958   0.826 -0.3155  0.7069  0.2511
  430MOL0     C56687   7.059   6.861   0.736  0.1447  0.6377  0.6808
  430MOL0     C56688   7.208   6.878   0.711  0.4016 -1.3163 -0.8858
  430MOL0     C56689   7.252   6.757   0.626 -0.7553 -0.4723  1.2037
  430MOL0     C56690   7.405   6.717   0.643  0.1892  0.0336 -0.3892
  430MOL0     C56691   7.430   6.643   0.763  0.1490 -0.6013  0.9025
  430MOL0     C56692   7.445   6.561   0.855  0.2450 -0.8511  0.1552
  430MOL0     C56693   6.798   6.864   0.850 -0.4426  0.3287  0.3613
  430MOL0     C56694   6.668   6.869   0.911 -0.6243  0.5633 -0.4506
  430MOL0     H56695   6.192   7.230   1.031  0.4457  1.6370  0.6550
  430MOL0     H56696   6.039   7.283   1.199  0.2956  0.9829 -0.5558
  430MOL0     H56697   6.090   7.210   1.633  2.9309  3.3510 -4.4142
  430MOL0     H56698   6.057   7.050   1.555  1.8444  0.9310  4.3818
  430MOL0     H56699   5.827   7.117   1.506  2.4330  0.3345 -0.8263
  430MOL0     H56700   5.846   7.264   1.603  2.5100  1.2189 -3.0739
  430MOL0     H56701   5.917   7.117   1.784 -1.3839  1.8573 -0.8881
  430MOL0     H56702   5.872   6.962   1.694  1.5309  0.1350  0.8611
  430MOL0     H56703   5.634   7.092   1.692  0.8002 -1.6326 -0.8042
  430MOL0     H56704   5.679   6.985   1.830  0.0002 -0.8257 -0.3343
  430MOL0     H56705   5.744   7.290   1.824  1.8181 -1.9803 -1.3982
  430MOL0     H56706   5.732   7.181   1.970  1.9717  2.4067  0.4927
  430MOL0     H56707   5.494   7.237   1.787  1.0411  2.7656 -0.9958
  430MOL0     H56708   5.548   7.352   1.909 -0.0880  0.1202  3.7018
  430MOL0     H56709   5.489   7.058   1.949 -0.8955 -0.4610  0.6717
  430MOL0     H56710   5.510   7.159   2.076 -1.8504 -0.3735 -0.3539
  430MOL0     H56711   5.263   7.097   1.988  0.6569 -0.9991 -0.4193
  430MOL0     H56712   5.279   7.220   1.864 -0.9216 -3.1798 -0.5294
  430MOL0     H56713   5.386   7.463   1.990 -0.8368 -3.4324 -1.8478
  430MOL0     H56714   5.438   7.619   2.210  0.3001 -2.7085 -1.5485
  430MOL0     H56715   5.365   7.556   2.361 -0.0727 -0.1812  0.1563
  430MOL0     H56716   5.202   7.674   2.147  1.3687  0.2798 -0.1491
  430MOL0     H56717   5.284   7.790   2.251 -2.5413  0.7019 -1.5292
  430MOL0     H56718   5.065   7.577   2.320  1.4881 -1.3443  3.0644
  430MOL0     H56719   5.156   7.637   2.450 -1.0370 -0.6987  0.3806
  430MOL0     H56720   4.937   7.744   2.414 -0.3424 -2.1074 -1.7232
  430MOL0     H56721   4.981   7.793   2.254  0.5931  0.4650  0.2069
  430MOL0     H56722   5.125   8.158   2.385 -0.0815  0.0749  0.7595
  430MOL0     H56723   4.999   8.344   2.453  1.6998 -2.0415 -5.3171
  430MOL0     H56724   4.698   8.548   2.737  0.9179 -1.2173 -0.0301
  430MOL0     H56725   4.564   8.714   2.862  2.0815 -3.2689  2.8912
  430MOL0     H56726   4.420   8.866   2.898 -2.0923  1.6660 -0.3602
  430MOL0     H56727   4.411   8.763   3.049  2.3480  0.7265 -1.2013
  430MOL0     H56728   4.186   8.811   3.096 -1.9407  0.8100 -0.4871
  430MOL0     H56729   4.163   8.909   2.953 -4.0122  0.8447  3.2346
  430MOL0     H56730   4.342   9.074   3.034  2.6444 -0.0946  2.2739
  430MOL0     H56731   4.345   8.987   3.187 -1.4324  0.9950  2.2780
  430MOL0     H56732   4.120   9.146   3.042 -3.6359 -1.9892  0.4761
  430MOL0     H56733   4.087   9.035   3.170  1.6899 -1.8253 -0.7992
  430MOL0     H56734   4.287   9.269   3.198 -0.4852  1.4780  1.6468
  430MOL0     H56735   4.244   9.164   3.330 -1.3736  2.6703  1.3030
  430MOL0     H56736   4.093   9.366   3.354  0.6933  1.3638 -0.9029
  430MOL0     H56737   3.985   9.245   3.286 -0.1425  0.2749  0.6403
  430MOL0     H56738   4.127   9.407   3.088 -2.3209  0.1345 -3.2767
  430MOL0     H56739   3.993   9.318   3.066  3.3195 -0.4960 -0.8267
  430MOL0     H56740   3.947   9.553   3.063  0.6627  1.4873  1.5182
  430MOL0     H56741   3.984   9.567   3.236 -0.3413 -0.4512 -0.4039
  430MOL0     H56742   4.217   8.488   2.776 -0.2403  1.7187 -1.9320
  430MOL0     H56743   4.347   8.318   2.657  2.6050 -1.4499 -0.1725
  430MOL0     H56744   4.668   8.096   2.575 -0.3395 -0.9147 -0.5312
  430MOL0     H56745   4.779   7.897   2.485 -1.5578  0.2993  1.1938
  430MOL0     H56746   6.271   7.096   1.496 -0.0956  0.2699  0.6205
  430MOL0     H56747   6.462   7.053   1.319  1.3500  0.7780 -3.6745
  430MOL0     H56748   6.699   7.171   1.063  2.0179  0.9026 -0.4832
  430MOL0     H56749   6.917   7.167   0.956 -0.1185 -0.6379 -0.0609
  430MOL0     H56750   7.001   6.858   0.643  1.8345 -0.5956 -0.4124
  430MOL0     H56751   7.048   6.763   0.784  1.3965  1.4744  2.8422
  430MOL0     H56752   7.231   6.977   0.670  0.8344  0.0733  2.3891
  430MOL0     H56753   7.260   6.881   0.807  0.5156 -2.6628 -0.8919
  430MOL0     H56754   7.227   6.771   0.520  0.1409 -1.1714  0.8919
  430MOL0     H56755   7.202   6.662   0.648  1.3660 -2.1900 -0.8188
  430MOL0     H56756   7.428   6.642   0.566 -0.6578  0.5818 -1.1907
  430MOL0     H56757   7.481   6.795   0.636  1.3391 -0.6646  2.6800
  430MOL0     H56758   7.450   6.504   0.946 -1.3021  0.5187  1.1565
  430MOL0     H56759   6.825   6.785   0.781  0.4067  1.8528 -1.1392
  430MOL0     H56760   6.600   6.788   0.886 -2.4110  2.5023 -2.2743
  431MOL0     O56761   1.742   6.924  10.584 -0.1181  0.5153 -0.4160
  431MOL0     C56762   1.758   6.827  10.653  0.9002  0.4399 -0.2366
  431MOL0     O56763   1.777   6.828  10.789  0.1644 -0.3330 -0.3086
  431MOL0     C56764   1.805   6.946  10.862  0.5758 -0.3222  0.0936
  431MOL0     C56765   1.900   7.039  10.811  0.7468 -0.1752  0.4370
  431MOL0     C56766   1.925   7.156  10.881 -0.6701 -1.0317  0.4731
  431MOL0     C56767   1.857   7.189  11.000 -1.3386 -0.2976 -0.3118
  431MOL0     O56768   1.902   7.293  11.084 -0.5601  0.6611 -0.0619
  431MOL0     C56769   1.793   7.381  11.103  0.2870  0.9969 -0.6452
  431MOL0     C56770   1.730   7.352  11.236 -0.5253  0.9030 -0.0777
  431MOL0     C56771   1.637   7.459  11.288  0.0007  0.2044  1.9281
  431MOL0     C56772   1.607   7.443  11.427  0.0741 -0.8916  0.0457
  431MOL0     C56773   1.526   7.554  11.498 -0.6283 -0.1799 -0.2145
  431MOL0     C56774   1.618   7.652  11.571  0.2175  0.5738  0.1805
  431MOL0     C56775   1.524   7.752  11.647 -0.0272  0.3511  0.3585
  431MOL0     C56776   1.602   7.884  11.683 -0.1361  0.7070 -0.0653
  431MOL0     N56777   1.677   7.866  11.803 -0.1704 -0.5582 -0.1945
  431MOL0     C56778   1.641   7.928  11.920 -0.0613  0.0404  0.9227
  431MOL0     C56779   1.729   7.897  12.020  0.0584 -0.1095  0.7989
  431MOL0     C56780   1.721   7.946  12.161  0.3574 -0.2974  0.0112
  431MOL0     C56781   1.852   7.930  12.239  1.0654  0.1125  0.0834
  431MOL0     C56782   1.963   8.010  12.177  0.4916 -0.0991 -0.8971
  431MOL0     C56783   2.089   7.995  12.264 -0.7774  0.8003 -0.2130
  431MOL0     O56784   2.078   8.073  12.384  0.0243 -0.0344 -0.3654
  431MOL0     C56785   2.182   8.065  12.473 -0.5196  0.0165  0.1012
  431MOL0     C56786   2.317   8.044  12.444 -0.1726  1.1479 -0.1637
  431MOL0     C56787   2.412   8.072  12.538  0.4759 -0.2045 -0.1725
  431MOL0     C56788   2.382   8.118  12.666 -0.0675  0.8638  0.0542
  431MOL0     C56789   2.484   8.139  12.770  0.0276  0.4198 -0.2619
  431MOL0     O56790   2.445   8.133  12.901  0.2093  0.9697 -0.4191
  431MOL0     C56791   2.547   8.134  13.001 -0.2006 -0.6475  0.0445
  431MOL0     C56792   2.556   8.233  13.106 -0.3870  1.5812 -0.2512
  431MOL0     C56793   2.665   8.221  13.194 -0.9913 -0.0787 -0.5219
  431MOL0     C56794   2.764   8.124  13.183 -0.0208  0.2279  0.1978
  431MOL0     O56795   2.873   8.107  13.263  0.3340  0.0896 -0.5600
  431MOL0     C56796   2.937   8.225  13.324  0.5864  0.4048  0.6109
  431MOL0     C56797   3.044   8.191  13.429 -1.2978 -0.2723 -0.2736
  431MOL0     C56798   2.984   8.098  13.539  0.4853 -0.4880  0.0413
  431MOL0     C56799   3.075   8.080  13.661  0.3219  1.4326 -0.3683
  431MOL0     C56800   3.200   7.992  13.625  0.5506  0.2025  0.2752
  431MOL0     C56801   3.309   8.004  13.729  0.2939 -0.2007 -0.7021
  431MOL0     C56802   3.438   7.929  13.694 -0.1674 -0.5942 -0.0632
  431MOL0     C56803   3.549   7.931  13.799 -0.1035 -0.1469 -0.4277
  431MOL0    Cl56804   3.576   8.094  13.869 -0.4312  0.3121  0.3814
  431MOL0     C56805   2.760   8.034  13.084 -0.3436  0.2293  0.8464
  431MOL0     C56806   2.651   8.037  12.992 -0.4491  0.5158  0.1453
  431MOL0     O56807   2.594   8.160  12.729 -0.5268 -0.0611 -0.8987
  431MOL0     C56808   2.255   8.156  12.696  0.4161  0.7172  0.1291
  431MOL0     C56809   2.153   8.127  12.594  0.6599  0.9029  0.1465
  431MOL0     N56810   1.821   7.819  11.958 -0.0566  0.3465 -0.1524
  431MOL0     N56811   1.795   7.787  11.838 -0.2048  0.0259  0.4278
  431MOL0     C56812   1.746   7.095  11.040 -0.1318 -0.9243  0.4611
  431MOL0     C56813   1.737   6.963  10.980 -0.4335 -0.1004 -0.3964
  431MOL0     C56814   1.761   6.693  10.576  0.6519 -0.5210 -0.1774
  431MOL0     C56815   1.752   6.691  10.437 -1.3327  0.0014 -0.8967
  431MOL0     C56816   1.753   6.576  10.368  1.1791 -0.1231  0.2658
  431MOL0     C56817   1.735   6.458  10.429  0.4383 -0.8159 -0.2767
  431MOL0     O56818   1.734   6.335  10.381 -0.0140 -0.0769  0.5016
  431MOL0     C56819   1.750   6.323  10.240 -0.2809  0.5040 -0.8853
  431MOL0     C56820   1.744   6.177  10.200 -0.2190  0.4106  0.2051
  431MOL0     C56821   1.822   6.079  10.280 -0.4433 -0.1762  0.5076
  431MOL0     C56822   1.874   5.959  10.191 -0.2891 -0.5073 -0.1492
  431MOL0     C56823   1.990   6.001  10.113 -0.6883  0.7317  0.0334
  431MOL0     C56824   2.080   6.042  10.046  0.0161 -0.3363 -1.1128
  431MOL0     C56825   1.730   6.450  10.573  0.0033 -0.8129  0.6200
  431MOL0     C56826   1.752   6.573  10.649  0.3707 -0.1085 -0.4739
  431MOL0     H56827   1.953   7.014  10.720  1.1929 -2.0162  1.1499
  431MOL0     H56828   2.005   7.222  10.846  0.5481 -4.1825 -3.4094
  431MOL0     H56829   1.719   7.368  11.023 -0.2115  1.7461 -0.3217
  431MOL0     H56830   1.830   7.484  11.095 -0.0688  1.1231 -0.7143
  431MOL0     H56831   1.809   7.331  11.309 -0.2591  2.1107 -0.0093
  431MOL0     H56832   1.668   7.261  11.240  1.0201 -0.1666  0.6197
  431MOL0     H56833   1.554   7.463  11.217 -0.7517 -2.7024  2.5118
  431MOL0     H56834   1.696   7.551  11.290 -0.2941  0.4074  1.3813
  431MOL0     H56835   1.545   7.354  11.440  1.8432 -1.9797  1.3461
  431MOL0     H56836   1.704   7.426  11.474  1.6161  2.8065 -1.3928
  431MOL0     H56837   1.462   7.495  11.564 -1.3273  1.0645  0.2630
  431MOL0     H56838   1.459   7.612  11.435 -2.1362 -1.3341  0.2665
  431MOL0     H56839   1.686   7.699  11.500  1.8384  0.0411  1.3283
  431MOL0     H56840   1.682   7.613  11.650  1.3553 -1.0266 -1.4602
  431MOL0     H56841   1.449   7.770  11.569  1.0168 -2.3623 -1.4263
  431MOL0     H56842   1.473   7.706  11.732  2.5172 -0.7143  1.4018
  431MOL0     H56843   1.528   7.963  11.698  1.8914  2.6515  0.2826
  431MOL0     H56844   1.666   7.911  11.599  0.8441  3.4376  1.4334
  431MOL0     H56845   1.555   7.989  11.942  1.6545  1.9308  2.8676
  431MOL0     H56846   1.646   7.882  12.209 -1.4911  1.7091 -0.0740
  431MOL0     H56847   1.672   8.044  12.159 -0.6655 -0.7966 -1.6344
  431MOL0     H56848   1.878   7.824  12.235 -0.5581 -0.4339  2.1049
  431MOL0     H56849   1.844   7.955  12.345  0.5596  1.8875 -0.3424
  431MOL0     H56850   1.977   7.977  12.074  1.6866 -0.2873 -0.6927
  431MOL0     H56851   1.931   8.114  12.181 -1.5868 -0.7243  0.8999
  431MOL0     H56852   2.177   8.028  12.208  1.7844 -1.5541  2.1397
  431MOL0     H56853   2.097   7.888  12.281 -2.1497  0.7916  0.5980
  431MOL0     H56854   2.344   8.003  12.347 -0.4283 -1.1600  0.6743
  431MOL0     H56855   2.519   8.060  12.523  0.3301 -0.8953 -0.7189
  431MOL0     H56856   2.475   8.304  13.121  0.4554  2.2693  1.3730
  431MOL0     H56857   2.674   8.288  13.279  2.3688  0.1675 -0.9490
  431MOL0     H56858   2.862   8.278  13.383 -1.6675  1.7872 -3.1361
  431MOL0     H56859   2.972   8.286  13.240 -1.5113  1.4547  0.4517
  431MOL0     H56860   3.081   8.292  13.450  2.2533 -0.9058 -2.5730
  431MOL0     H56861   3.132   8.154  13.375 -1.4183  2.5190 -2.6708
  431MOL0     H56862   2.977   7.999  13.493  0.9564 -1.2592  1.5862
  431MOL0     H56863   2.884   8.135  13.563  1.7411  2.0802  1.8203
  431MOL0     H56864   3.103   8.172  13.713  0.6168  2.0054 -1.5027
  431MOL0     H56865   3.019   8.024  13.737  1.5481  3.0489  1.8608
  431MOL0     H56866   3.238   8.034  13.531  0.1384  0.8520  0.3940
  431MOL0     H56867   3.173   7.888  13.608  2.2407 -0.8189  3.0657
  431MOL0     H56868   3.288   7.953  13.823  3.4969  2.1945  1.5349
  431MOL0     H56869   3.332   8.110  13.739  1.5507 -0.3251 -1.9388
  431MOL0     H56870   3.425   7.823  13.670  2.3888 -1.4213  1.7614
  431MOL0     H56871   3.471   7.979  13.603  0.8710 -1.1452 -0.0033
  431MOL0     H56872   3.644   7.892  13.762  3.2052  2.4298  4.3115
  431MOL0     H56873   3.520   7.866  13.882  2.7760 -0.8660  0.1072
  431MOL0     H56874   2.834   7.956  13.071 -0.5846  0.1054  0.1635
  431MOL0     H56875   2.650   7.956  12.920  0.0937 -0.5146  1.2727
  431MOL0     H56876   2.233   8.213  12.786  0.6359  1.2876 -0.1715
  431MOL0     H56877   2.053   8.165  12.608  1.2755  1.8397  2.3201
  431MOL0     H56878   1.690   7.101  11.133 -1.8178 -1.4489 -0.4827
  431MOL0     H56879   1.674   6.885  11.020 -0.1006 -1.9037 -3.1260
  431MOL0     H56880   1.763   6.790  10.395  3.6326  0.8276  1.5358
  431MOL0     H56881   1.739   6.568  10.261 -2.7037  1.5994  0.4648
  431MOL0     H56882   1.848   6.367  10.218  0.2199 -0.3233 -0.3380
  431MOL0     H56883   1.670   6.377  10.188  2.2140  1.9282 -3.5765
  431MOL0     H56884   1.643   6.141  10.177  0.9519 -0.9645 -3.4970
  431MOL0     H56885   1.794   6.185  10.103  0.6965 -3.5783  0.2083
  431MOL0     H56886   1.750   6.040  10.353 -1.7534  1.5056  0.1647
  431MOL0     H56887   1.907   6.129  10.325 -0.0910  1.5628 -1.9241
  431MOL0     H56888   1.910   5.871  10.245  0.3077 -0.8152 -1.0146
  431MOL0     H56889   1.794   5.927  10.123  0.6744 -1.1745 -1.0016
  431MOL0     H56890   2.169   6.077   9.996 -1.6649  2.9207 -2.1377
  431MOL0     H56891   1.721   6.350  10.613  1.6332 -1.1363  0.2477
  431MOL0     H56892   1.754   6.575  10.758  1.9382 -2.1427 -0.4167
  432MOL0     O56893   6.392   8.988   6.692  0.3594 -0.4206  0.6492
  432MOL0     C56894   6.274   8.971   6.670  0.1403 -0.0523  0.4337
  432MOL0     O56895   6.206   8.857   6.637 -0.3594  0.1775 -0.4560
  432MOL0     C56896   6.274   8.734   6.627 -0.0020 -0.3398 -0.1082
  432MOL0     C56897   6.214   8.639   6.546  0.3856 -0.2191 -0.2502
  432MOL0     C56898   6.267   8.513   6.536 -0.2949  0.0023  0.3775
  432MOL0     C56899   6.396   8.479   6.591  0.6655  0.0412 -0.0438
  432MOL0     O56900   6.442   8.358   6.555 -0.3247 -0.0689 -0.0667
  432MOL0     C56901   6.583   8.325   6.602  1.2556 -0.2153 -0.2504
  432MOL0     C56902   6.619   8.176   6.583 -0.9427  0.2423 -0.5066
  432MOL0     C56903   6.758   8.159   6.653  0.1110  1.1786  0.0601
  432MOL0     C56904   6.786   8.010   6.671  0.9560  0.6574  0.2078
  432MOL0     C56905   6.906   7.981   6.765  0.0735 -0.0499  0.0812
  432MOL0     C56906   6.952   7.838   6.734  1.1097  0.0781 -0.0719
  432MOL0     C56907   7.025   7.812   6.598 -1.0768  0.0090  0.7489
  432MOL0     C56908   7.068   7.671   6.574 -0.3469  1.8687 -0.2546
  432MOL0     N56909   7.222   7.664   6.561  1.2423 -0.1573  0.6482
  432MOL0     C56910   7.299   7.586   6.473 -0.2451  0.3130  0.2485
  432MOL0     C56911   7.430   7.603   6.518  0.2339  1.5865 -0.2695
  432MOL0     C56912   7.565   7.575   6.445 -0.0237 -0.4555  0.3331
  432MOL0     C56913   7.601   7.425   6.444  0.2671  0.1343 -0.1580
  432MOL0     C56914   7.749   7.417   6.408  0.2883 -0.0321 -0.5577
  432MOL0     C56915   7.789   7.446   6.263  0.5423 -0.1917  0.4670
  432MOL0     O56916   7.797   7.579   6.224  0.2579  0.3997  0.7900
  432MOL0     C56917   7.821   7.621   6.094  0.4361 -0.6691 -0.4992
  432MOL0     C56918   7.840   7.535   5.992  0.0378  0.6210 -0.2362
  432MOL0     C56919   7.875   7.576   5.854  0.2454  0.7793 -0.4757
  432MOL0     C56920   7.874   7.716   5.831 -0.1922 -0.4176  0.5571
  432MOL0     C56921   7.889   7.768   5.694 -0.3630  0.2912  0.4920
  432MOL0     O56922   7.860   7.903   5.666  0.0591  0.6539  0.0795
  432MOL0     C56923   7.885   7.946   5.539  1.2591 -0.9639  0.0220
  432MOL0     C56924   7.805   8.046   5.482 -0.2008  0.1476 -0.3677
  432MOL0     C56925   7.822   8.097   5.353  0.5877 -0.3901  0.3816
  432MOL0     C56926   7.917   8.042   5.271 -0.5493 -0.9742 -0.7297
  432MOL0     O56927   7.924   8.069   5.138  0.1022  0.3626 -0.4086
  432MOL0     C56928   7.914   8.206   5.099  0.5553  0.5735 -0.8416
  432MOL0     C56929   7.988   8.194   4.964 -0.3099 -0.5419 -0.5074
  432MOL0     C56930   8.000   8.320   4.883  0.6154 -0.1350 -0.8550
  432MOL0     C56931   8.005   8.291   4.735  0.2433  0.6831  0.4670
  432MOL0     C56932   8.139   8.339   4.659  0.4073  0.2061 -0.0899
  432MOL0     C56933   8.131   8.305   4.508  0.4907  0.1109  0.5369
  432MOL0     C56934   8.223   8.406   4.428  0.3981  0.3944 -0.6279
  432MOL0     C56935   8.202   8.408   4.271  1.2227  0.0747 -0.8523
  432MOL0    Cl56936   8.193   8.238   4.204 -0.4304  0.1790 -0.0531
  432MOL0     C56937   8.005   7.951   5.324  0.1910  0.8470 -0.4902
  432MOL0     C56938   7.988   7.906   5.456  0.9192  0.0507 -0.0735
  432MOL0     O56939   7.906   7.677   5.609 -0.6565 -0.1063 -0.7120
  432MOL0     C56940   7.854   7.804   5.937  0.0312 -0.2503  0.5612
  432MOL0     C56941   7.841   7.758   6.066  0.8930  0.8835  0.2032
  432MOL0     N56942   7.426   7.686   6.627  0.1690 -0.2417 -0.4490
  432MOL0     N56943   7.310   7.720   6.649  0.7719 -0.3703  0.9339
  432MOL0     C56944   6.453   8.580   6.672  0.9147  0.6884  0.5223
  432MOL0     C56945   6.390   8.701   6.698  0.1415 -0.0681  0.7915
  432MOL0     C56946   6.199   9.094   6.664 -1.2878 -0.1850 -0.9211
  432MOL0     C56947   6.253   9.205   6.729  0.0752  0.1809 -0.0413
  432MOL0     C56948   6.178   9.325   6.731  1.0646 -0.1618  0.1749
  432MOL0     C56949   6.056   9.332   6.667  0.7882  0.0087 -0.3929
  432MOL0     O56950   5.974   9.444   6.655 -0.1992  0.1245 -0.5182
  432MOL0     C56951   6.036   9.580   6.671  0.0882  0.4404  0.6088
  432MOL0     C56952   6.119   9.618   6.550  0.4894  0.8425  0.4910
  432MOL0     C56953   6.033   9.611   6.422 -0.4908  0.2363  0.3005
  432MOL0     C56954   5.891   9.676   6.430 -0.6912  0.7367 -0.4619
  432MOL0     C56955   5.836   9.682   6.294 -0.2472  0.0959 -0.4103
  432MOL0     C56956   5.790   9.668   6.182  0.3365 -0.0111 -0.7350
  432MOL0     C56957   6.003   9.223   6.605 -0.1104  1.0649 -0.1191
  432MOL0     C56958   6.072   9.102   6.608  0.4087  0.1622 -0.0091
  432MOL0     H56959   6.129   8.676   6.490 -0.9145 -0.3348  1.5622
  432MOL0     H56960   6.212   8.438   6.481  2.5318 -0.8467 -1.5297
  432MOL0     H56961   6.567   8.332   6.710 -2.5316  2.9128 -0.7868
  432MOL0     H56962   6.654   8.395   6.556 -0.6538 -0.8766 -4.7085
  432MOL0     H56963   6.616   8.147   6.478 -3.3303 -1.0112 -0.1512
  432MOL0     H56964   6.544   8.114   6.633 -2.5798  2.5417  0.0833
  432MOL0     H56965   6.776   8.220   6.741 -1.6628 -1.7444  2.6817
  432MOL0     H56966   6.830   8.200   6.582 -1.2443  1.6337 -1.1098
  432MOL0     H56967   6.699   7.964   6.719 -1.0142  1.9114 -1.9432
  432MOL0     H56968   6.797   7.967   6.571 -0.2252 -1.6328  1.0063
  432MOL0     H56969   6.875   8.000   6.868  2.0606  0.0736  0.6927
  432MOL0     H56970   6.985   8.051   6.738  1.8542 -1.1439  2.1373
  432MOL0     H56971   6.862   7.779   6.715  0.7287  1.9134 -5.6656
  432MOL0     H56972   7.011   7.790   6.812  0.9723 -0.4602 -0.2963
  432MOL0     H56973   6.963   7.848   6.516 -1.5616 -2.2191  0.0675
  432MOL0     H56974   7.108   7.883   6.593 -0.7677 -0.4155 -0.4207
  432MOL0     H56975   7.032   7.630   6.479  2.1106 -1.3801  0.0381
  432MOL0     H56976   7.029   7.610   6.655 -2.1591  2.4706 -0.6431
  432MOL0     H56977   7.284   7.535   6.378  0.3259 -0.4006  0.5337
  432MOL0     H56978   7.644   7.616   6.508 -0.7560  0.4728  0.6682
  432MOL0     H56979   7.571   7.617   6.344 -4.2483  1.5407  0.6872
  432MOL0     H56980   7.542   7.369   6.370 -0.7496  1.3490 -0.3051
  432MOL0     H56981   7.582   7.381   6.542 -3.7855  2.9998  0.6095
  432MOL0     H56982   7.811   7.476   6.476 -4.4151  3.9797  0.8194
  432MOL0     H56983   7.773   7.315   6.442  0.0234 -0.1445 -0.7067
  432MOL0     H56984   7.722   7.393   6.195 -0.0685  1.2194 -0.0540
  432MOL0     H56985   7.884   7.394   6.247 -0.6232 -1.7308 -1.9991
  432MOL0     H56986   7.829   7.427   5.989  0.8867  0.5442 -1.1874
  432MOL0     H56987   7.882   7.502   5.775  2.3726  0.2936  0.1161
  432MOL0     H56988   7.727   8.085   5.547  0.5495  0.7729  0.1822
  432MOL0     H56989   7.758   8.178   5.318  1.4704 -0.7758 -2.3419
  432MOL0     H56990   7.962   8.258   5.183 -0.2346 -4.1002  2.9591
  432MOL0     H56991   7.810   8.234   5.086 -0.5048 -2.5922 -0.1150
  432MOL0     H56992   7.948   8.112   4.904  2.9306 -1.0847 -2.1463
  432MOL0     H56993   8.088   8.157   4.990 -0.1604  0.0179 -0.2782
  432MOL0     H56994   8.095   8.364   4.915  1.2621 -2.8304  1.2054
  432MOL0     H56995   7.911   8.376   4.915  0.6550 -0.9656  0.7892
  432MOL0     H56996   8.004   8.184   4.709 -1.9090 -0.0215  2.9812
  432MOL0     H56997   7.926   8.348   4.686  1.5343  0.5336 -1.9331
  432MOL0     H56998   8.220   8.283   4.707  1.8024  0.6211 -1.8377
  432MOL0     H56999   8.153   8.444   4.688  2.2991 -0.2878  1.0116
  432MOL0     H57000   8.033   8.318   4.460 -0.2214 -1.9957  1.3163
  432MOL0     H57001   8.154   8.200   4.487  1.9193  0.7379 -1.3442
  432MOL0     H57002   8.187   8.506   4.452 -5.2242 -0.5723 -3.3920
  432MOL0     H57003   8.331   8.396   4.442  0.0455 -1.0205  1.4248
  432MOL0     H57004   8.282   8.461   4.219 -0.5725  1.5284 -2.2906
  432MOL0     H57005   8.110   8.464   4.249  0.5338  0.4422  2.4617
  432MOL0     H57006   8.092   7.904   5.278  0.5257 -0.5561  1.4606
  432MOL0     H57007   8.061   7.835   5.493  1.7429  1.0771  0.3266
  432MOL0     H57008   7.865   7.911   5.922  0.4141  0.0727  2.7490
  432MOL0     H57009   7.832   7.833   6.144 -2.4022 -0.7035  1.5749
  432MOL0     H57010   6.541   8.563   6.733  1.3272  0.4902 -0.1125
  432MOL0     H57011   6.428   8.765   6.777 -1.1945  1.8794 -0.0799
  432MOL0     H57012   6.349   9.187   6.775  1.5378  0.6478 -2.7445
  432MOL0     H57013   6.215   9.404   6.796 -0.8534  0.1476  0.9373
  432MOL0     H57014   6.085   9.595   6.767 -1.8221 -1.5880  2.0182
  432MOL0     H57015   5.954   9.651   6.686  1.2446  1.4947  2.1983
  432MOL0     H57016   6.158   9.720   6.560 -1.3115  1.6737 -0.4602
  432MOL0     H57017   6.206   9.554   6.533 -0.3747 -0.3495  0.4309
  432MOL0     H57018   6.035   9.510   6.381  0.3129 -0.2764  1.5580
  432MOL0     H57019   6.096   9.658   6.346  0.3361  0.5625  1.1707
  432MOL0     H57020   5.829   9.622   6.502 -1.5422  1.7187 -0.4280
  432MOL0     H57021   5.910   9.776   6.471 -2.6277  0.9420  0.0156
  432MOL0     H57022   5.740   9.666   6.088 -0.3689 -0.6065 -0.3580
  432MOL0     H57023   5.911   9.210   6.549 -0.2412 -2.8010  0.7243
  432MOL0     H57024   6.030   9.010   6.570  1.2554 -0.5963  0.8121
  433MOL0     O57025   4.550   2.701   0.687  0.2741 -0.4809 -0.1933
  433MOL0     C57026   4.665   2.702   0.730  0.4670 -0.3706 -0.4346
  433MOL0     O57027   4.757   2.613   0.699 -0.7234  0.3530 -0.2404
  433MOL0     C57028   4.731   2.497   0.620 -0.6284 -0.5068 -0.6415
  433MOL0     C57029   4.661   2.383   0.657 -0.3624  0.3218  1.0675
  433MOL0     C57030   4.623   2.289   0.556 -0.2510 -1.0387  0.1408
  433MOL0     C57031   4.668   2.296   0.419  0.1225 -0.2449 -0.1872
  433MOL0     O57032   4.602   2.208   0.334 -0.1140 -0.0459 -0.2631
  433MOL0     C57033   4.645   2.200   0.194 -0.4677 -0.2769 -0.7167
  433MOL0     C57034   4.528   2.153   0.097  0.5185 -0.3934 -0.2789
  433MOL0     C57035   4.601   2.121  -0.037  0.0459 -0.8571  0.6679
  433MOL0     C57036   4.492   2.064  -0.135  0.0702 -0.2324 -0.3724
  433MOL0     C57037   4.533   2.065  -0.289  0.1152  0.5949  0.6182
  433MOL0     C57038   4.605   1.936  -0.336  0.4407 -0.1502  1.1411
  433MOL0     C57039   4.739   1.910  -0.256 -0.9193 -0.5604  0.4215
  433MOL0     C57040   4.815   1.793  -0.317 -0.7902  0.2652  0.6035
  433MOL0     N57041   4.942   1.836  -0.375  0.1027  0.2022 -0.2446
  433MOL0     C57042   4.952   1.928  -0.475 -0.5572  0.1465 -0.2540
  433MOL0     C57043   5.086   1.928  -0.495 -0.1252 -1.1720 -0.9929
  433MOL0     C57044   5.158   2.034  -0.577 -0.5182 -0.7489 -0.3716
  433MOL0     C57045   5.264   1.983  -0.669  0.0408  0.9878  0.4082
  433MOL0     C57046   5.304   2.070  -0.788 -1.1718  0.2455  0.0701
  433MOL0     C57047   5.350   2.211  -0.754 -0.6527 -0.1404  0.6347
  433MOL0     O57048   5.230   2.279  -0.724 -0.3642 -0.9887 -0.1860
  433MOL0     C57049   5.237   2.416  -0.698 -0.5657  0.0189 -0.1427
  433MOL0     C57050   5.115   2.482  -0.709  0.1099 -0.9785  0.3546
  433MOL0     C57051   5.100   2.621  -0.698  0.1044 -0.7177 -0.2723
  433MOL0     C57052   5.219   2.699  -0.686  0.5221  0.0041  0.2552
  433MOL0     C57053   5.214   2.854  -0.675  0.4157  0.5630  0.4217
  433MOL0     O57054   5.334   2.920  -0.681  1.0192  0.0453  0.2907
  433MOL0     C57055   5.334   3.056  -0.675  0.3018  0.3642 -0.3349
  433MOL0     C57056   5.337   3.137  -0.790  0.4279  0.5197 -0.3441
  433MOL0     C57057   5.361   3.275  -0.788 -0.2692  0.1073  1.3529
  433MOL0     C57058   5.381   3.330  -0.660 -0.8128  0.2886  0.9231
  433MOL0     O57059   5.417   3.462  -0.642 -0.5244 -0.3358 -0.9870
  433MOL0     C57060   5.369   3.566  -0.726  0.3301  0.5250 -0.1729
  433MOL0     C57061   5.467   3.610  -0.839  0.3858  0.8799 -0.1782
  433MOL0     C57062   5.405   3.735  -0.919 -0.4809  0.9630 -1.2553
  433MOL0     C57063   5.397   3.862  -0.843 -0.2424 -0.2632  0.0542
  433MOL0     C57064   5.346   3.962  -0.926  0.1338 -0.3021 -0.5603
  433MOL0     C57065   5.337   4.089  -0.841 -1.2353 -0.4364  0.5156
  433MOL0     C57066   5.194   4.140  -0.827  0.5001 -0.2599 -0.3914
  433MOL0     C57067   5.207   4.280  -0.770 -0.0746 -1.3817 -0.3842
  433MOL0    Cl57068   5.261   4.284  -0.594 -0.2634 -0.2603 -0.7724
  433MOL0     C57069   5.376   3.248  -0.546  0.8948 -0.0556  0.1638
  433MOL0     C57070   5.344   3.120  -0.552  0.6171 -0.6203 -0.2938
  433MOL0     O57071   5.104   2.907  -0.662 -0.7540  0.6020 -0.2376
  433MOL0     C57072   5.340   2.634  -0.696  0.8630 -0.6753  0.2192
  433MOL0     C57073   5.351   2.496  -0.694 -0.3089 -0.6286 -0.1607
  433MOL0     N57074   5.151   1.848  -0.407 -0.2859  0.0709  0.2324
  433MOL0     N57075   5.065   1.790  -0.334 -0.0312  0.4002  0.1204
  433MOL0     C57076   4.763   2.402   0.390  0.8164 -0.6067  0.1312
  433MOL0     C57077   4.787   2.501   0.488 -0.0638  0.5910  0.9406
  433MOL0     C57078   4.705   2.794   0.833 -0.2853 -0.5970 -0.4861
  433MOL0     C57079   4.608   2.844   0.924 -0.0831 -0.2594  0.0660
  433MOL0     C57080   4.647   2.932   1.035 -0.4008  0.3982 -0.5977
  433MOL0     C57081   4.781   2.944   1.065 -0.4551 -0.1876  0.2972
  433MOL0     O57082   4.813   3.022   1.171 -0.0680  0.6328 -0.2591
  433MOL0     C57083   4.938   3.000   1.232  0.0558  0.0800  0.0034
  433MOL0     C57084   4.912   2.935   1.369  0.4380 -0.5188  0.1318
  433MOL0     C57085   5.040   2.895   1.442 -0.0217 -0.3800 -0.6044
  433MOL0     C57086   5.029   2.848   1.596 -0.7670  0.1742  0.2550
  433MOL0     C57087   4.979   2.959   1.676 -0.1011 -0.8912 -0.6323
  433MOL0     C57088   4.959   3.061   1.747  1.5242  0.1063 -1.5050
  433MOL0     C57089   4.875   2.896   0.971 -0.0419 -0.0064 -0.4932
  433MOL0     C57090   4.835   2.820   0.858 -0.3459 -0.8018  0.4432
  433MOL0     H57091   4.610   2.357   0.749  0.1997 -1.7747  0.8373
  433MOL0     H57092   4.556   2.207   0.579 -2.1992  0.9135  1.8248
  433MOL0     H57093   4.739   2.143   0.196 -0.4998 -0.4288  2.2911
  433MOL0     H57094   4.663   2.302   0.161  2.7893 -1.1557 -2.0750
  433MOL0     H57095   4.452   2.230   0.084  0.2350  0.0245  3.0086
  433MOL0     H57096   4.479   2.063   0.135  2.3123 -1.7215 -0.9217
  433MOL0     H57097   4.694   2.063  -0.035  2.5824  2.8442  3.5491
  433MOL0     H57098   4.639   2.217  -0.075 -0.0984 -0.8436  0.5553
  433MOL0     H57099   4.479   1.958  -0.110  4.0255 -1.2693 -1.9304
  433MOL0     H57100   4.402   2.125  -0.121 -0.2489 -0.5678 -0.9430
  433MOL0     H57101   4.611   2.138  -0.315  0.6665  0.2640  1.2984
  433MOL0     H57102   4.443   2.088  -0.346 -0.2353  1.4815  1.5011
  433MOL0     H57103   4.625   1.930  -0.444 -2.8820  2.4656  0.2034
  433MOL0     H57104   4.543   1.853  -0.303  0.5269 -1.1564 -1.0538
  433MOL0     H57105   4.802   1.998  -0.271 -1.5205  0.0823  1.5223
  433MOL0     H57106   4.731   1.886  -0.150 -1.2466  1.0122  0.7749
  433MOL0     H57107   4.746   1.732  -0.377  0.2490 -0.8783  0.5193
  433MOL0     H57108   4.856   1.730  -0.238 -1.7392  1.4330  2.0700
  433MOL0     H57109   4.871   1.979  -0.526 -2.2328  0.8715  2.8590
  433MOL0     H57110   5.198   2.102  -0.502  0.0957 -2.9881  1.4376
  433MOL0     H57111   5.083   2.090  -0.633 -1.6417 -0.5818  1.2479
  433MOL0     H57112   5.219   1.896  -0.718 -1.4493  1.9834 -0.0755
  433MOL0     H57113   5.351   1.949  -0.612 -2.2213 -3.5954  1.6253
  433MOL0     H57114   5.381   2.004  -0.828 -1.5618 -0.5905  0.6577
  433MOL0     H57115   5.225   2.067  -0.863 -0.6458 -3.5013 -0.5344
  433MOL0     H57116   5.399   2.269  -0.833  1.6570  0.1045  2.1367
  433MOL0     H57117   5.419   2.226  -0.670  0.6708  2.4149 -0.7930
  433MOL0     H57118   5.025   2.428  -0.737 -0.6987  1.8198 -3.0503
  433MOL0     H57119   5.008   2.679  -0.704  0.5167  0.0879  0.8827
  433MOL0     H57120   5.324   3.078  -0.881 -0.2761  0.7076 -0.3778
  433MOL0     H57121   5.378   3.325  -0.883 -1.5834 -2.8753 -0.6334
  433MOL0     H57122   5.344   3.656  -0.669  1.4868  2.2084 -2.1915
  433MOL0     H57123   5.274   3.528  -0.764  0.6465 -1.7514  1.1347
  433MOL0     H57124   5.464   3.529  -0.913  0.8592  0.0567  0.6791
  433MOL0     H57125   5.569   3.622  -0.803 -0.4328  1.6892  2.0571
  433MOL0     H57126   5.307   3.698  -0.948 -2.4129  2.2871  2.7849
  433MOL0     H57127   5.461   3.753  -1.011 -0.0974 -1.7108 -1.6418
  433MOL0     H57128   5.332   3.856  -0.755  0.1208 -0.5409  0.3076
  433MOL0     H57129   5.500   3.885  -0.817  0.1475 -1.1875 -0.6219
  433MOL0     H57130   5.246   3.928  -0.955  0.7751 -0.2527 -3.0076
  433MOL0     H57131   5.397   3.986  -1.020 -2.3754  1.2071 -1.6418
  433MOL0     H57132   5.399   4.167  -0.885 -0.5456  0.6654  3.1970
  433MOL0     H57133   5.370   4.076  -0.737 -3.2247  1.7913  1.5025
  433MOL0     H57134   5.148   4.140  -0.927  0.7861 -5.3393 -0.7515
  433MOL0     H57135   5.139   4.080  -0.754  0.9987 -0.7013 -0.3784
  433MOL0     H57136   5.106   4.322  -0.769  0.7360  0.8435  2.7135
  433MOL0     H57137   5.269   4.346  -0.831  0.5982 -0.8975  0.7817
  433MOL0     H57138   5.373   3.284  -0.443  1.0877 -3.9308  1.7146
  433MOL0     H57139   5.350   3.061  -0.461 -1.0077 -0.7601 -0.2549
  433MOL0     H57140   5.424   2.701  -0.713  1.6604 -0.9707  2.5628
  433MOL0     H57141   5.450   2.452  -0.701  0.4653  1.0200 -0.0402
  433MOL0     H57142   4.812   2.392   0.293  0.6992 -2.0465  0.1915
  433MOL0     H57143   4.847   2.590   0.479  0.7965  0.2273  2.6392
  433MOL0     H57144   4.505   2.842   0.892  0.3990 -0.7265 -1.5371
  433MOL0     H57145   4.568   2.985   1.088 -0.8193  0.1200 -0.9327
  433MOL0     H57146   4.998   3.091   1.244  2.6567 -1.2031 -2.2549
  433MOL0     H57147   5.012   2.940   1.179  1.7416  4.0762 -2.6565
  433MOL0     H57148   4.862   3.012   1.428  1.4624 -0.6403  1.1782
  433MOL0     H57149   4.858   2.843   1.343  2.9262 -1.9541 -0.2994
  433MOL0     H57150   5.101   2.985   1.449 -1.4528  0.4986  2.8542
  433MOL0     H57151   5.106   2.827   1.387  0.6516 -0.3622  0.1659
  433MOL0     H57152   4.980   2.750   1.601 -1.9211  0.4227 -3.3431
  433MOL0     H57153   5.132   2.826   1.625 -0.8276 -1.0833 -0.4044
  433MOL0     H57154   4.944   3.151   1.804 -0.1143 -1.6425  1.0637
  433MOL0     H57155   4.982   2.904   0.992 -0.1234  1.3140 -0.5210
  433MOL0     H57156   4.914   2.774   0.800  0.5810 -1.1898  1.9329
  434MOL0     O57157   0.694   1.366   5.102 -0.1633 -0.6554 -0.7105
  434MOL0     C57158   0.641   1.263   5.133  0.8513  0.0279  0.1572
  434MOL0     O57159   0.706   1.147   5.166 -0.1952  0.0652  0.0548
  434MOL0     C57160   0.825   1.173   5.230  0.1113 -1.1275  0.4556
  434MOL0     C57161   0.821   1.209   5.363  0.1276 -0.5029  1.2074
  434MOL0     C57162   0.940   1.228   5.432 -0.3141  0.4968 -0.2776
  434MOL0     C57163   1.063   1.183   5.378 -0.1284 -0.4706 -0.7389
  434MOL0     O57164   1.187   1.202   5.435  0.0083  0.8384 -0.4000
  434MOL0     C57165   1.192   1.253   5.564  0.4354 -0.3416 -0.1666
  434MOL0     C57166   1.337   1.285   5.613 -0.3911 -0.3751  0.1890
  434MOL0     C57167   1.374   1.431   5.580  0.1400  0.4415 -0.9079
  434MOL0     C57168   1.515   1.463   5.633  0.5113  0.3223 -0.0587
  434MOL0     C57169   1.588   1.556   5.523  0.2593  0.7403 -0.2317
  434MOL0     C57170   1.694   1.646   5.584  0.5693  0.0235  0.0438
  434MOL0     C57171   1.747   1.753   5.493  0.5974  0.1279  1.0838
  434MOL0     C57172   1.839   1.848   5.579 -0.7083  0.4878  0.5404
  434MOL0     N57173   1.914   1.959   5.504  0.7820  0.7336 -0.6613
  434MOL0     C57174   1.919   2.009   5.374  0.8964  0.6081 -0.1741
  434MOL0     C57175   2.041   2.076   5.366  1.0257 -0.5441 -1.1338
  434MOL0     C57176   2.110   2.154   5.253 -0.2545 -0.1268 -0.5333
  434MOL0     C57177   2.057   2.298   5.246 -0.1320  0.1976 -0.0799
  434MOL0     C57178   2.126   2.396   5.343 -0.3664  0.9108 -1.4544
  434MOL0     C57179   2.260   2.456   5.304 -0.6221 -1.4234  0.3688
  434MOL0     O57180   2.244   2.493   5.162  0.4133 -0.4282  0.4469
  434MOL0     C57181   2.351   2.542   5.088 -0.4185  0.2906  0.3619
  434MOL0     C57182   2.334   2.575   4.957  0.5636 -1.2842  0.1125
  434MOL0     C57183   2.438   2.598   4.873  0.5144  0.6484 -0.3193
  434MOL0     C57184   2.577   2.583   4.911  0.0704 -0.6605 -0.0242
  434MOL0     C57185   2.677   2.619   4.813 -0.7799 -0.4030 -0.1410
  434MOL0     O57186   2.812   2.625   4.857  0.1198 -0.1544  0.7133
  434MOL0     C57187   2.917   2.636   4.764  0.1030 -0.3096 -0.1499
  434MOL0     C57188   2.942   2.545   4.665  1.0641 -0.9041 -0.0950
  434MOL0     C57189   3.048   2.560   4.579  0.4674  0.5749 -0.7281
  434MOL0     C57190   3.138   2.671   4.592  0.2032 -0.2104 -0.4575
  434MOL0     O57191   3.234   2.692   4.496  0.1813  0.5392 -0.0640
  434MOL0     C57192   3.329   2.798   4.521  0.0290  0.3706 -0.7616
  434MOL0     C57193   3.428   2.810   4.406  0.0218 -0.8734 -0.3273
  434MOL0     C57194   3.502   2.946   4.414 -0.1749  0.7314  0.7257
  434MOL0     C57195   3.597   2.942   4.287  0.3464 -0.9084 -0.0021
  434MOL0     C57196   3.650   3.084   4.256 -1.2397 -0.1023 -0.1602
  434MOL0     C57197   3.734   3.150   4.363  0.3484 -0.0178  0.2393
  434MOL0     C57198   3.773   3.289   4.314 -0.6430 -0.2044 -0.0048
  434MOL0     C57199   3.851   3.369   4.427  0.2840 -0.3387  0.3909
  434MOL0    Cl57200   3.989   3.276   4.484 -0.2062  0.0506 -0.0711
  434MOL0     C57201   3.098   2.778   4.678  0.3595  0.8014  0.1856
  434MOL0     C57202   2.991   2.750   4.767 -1.6586 -0.0574  1.0543
  434MOL0     O57203   2.641   2.615   4.696 -0.1996  0.5567  0.2259
  434MOL0     C57204   2.597   2.554   5.043 -0.0010  0.6230  1.3756
  434MOL0     C57205   2.486   2.542   5.128  0.0026  0.4142 -0.3485
  434MOL0     N57206   2.085   2.092   5.502  0.2212 -0.4570  0.5190
  434MOL0     N57207   2.010   2.021   5.567 -0.1436 -0.6034 -1.5197
  434MOL0     C57208   1.061   1.155   5.245  0.2285  0.2970  0.0921
  434MOL0     C57209   0.948   1.148   5.166 -0.0536  0.8050  0.1262
  434MOL0     C57210   0.494   1.252   5.099  0.1925  0.2546  0.2279
  434MOL0     C57211   0.431   1.146   5.147 -0.0750  0.1310 -0.1029
  434MOL0     C57212   0.286   1.117   5.122  0.8625 -0.9315 -0.0243
  434MOL0     C57213   0.212   1.228   5.074 -0.4132  0.5270  0.6237
  434MOL0     O57214   0.078   1.218   5.064 -0.0073 -0.3424  0.4940
  434MOL0     C57215   0.022   1.137   4.952 -0.2867 -1.5363  0.5470
  434MOL0     C57216  -0.040   1.001   5.001  0.2569  0.3427 -0.0767
  434MOL0     C57217  -0.183   1.017   5.068 -0.2488 -0.4693 -0.1504
  434MOL0     C57218  -0.250   0.885   5.101  0.0052  0.3276 -0.2814
  434MOL0     C57219  -0.390   0.900   5.150  0.2308  0.0417  0.0374
  434MOL0     C57220  -0.511   0.914   5.178  0.1193  0.3719  1.3335
  434MOL0     C57221   0.281   1.341   5.028  0.0724  0.3136  0.0281
  434MOL0     C57222   0.422   1.350   5.036  0.2185  0.0129  0.8178
  434MOL0     H57223   0.730   1.242   5.412  0.4914  0.6242  1.1478
  434MOL0     H57224   0.934   1.275   5.530  1.5386 -0.0172  0.1185
  434MOL0     H57225   1.157   1.178   5.635 -0.1691  0.1265  0.0408
  434MOL0     H57226   1.124   1.338   5.576  0.3925 -0.1711 -1.5043
  434MOL0     H57227   1.408   1.209   5.579 -2.2353 -2.5599  0.8829
  434MOL0     H57228   1.317   1.265   5.719 -2.8101  1.0245  0.0644
  434MOL0     H57229   1.293   1.495   5.617 -1.7120 -0.6649 -2.7942
  434MOL0     H57230   1.378   1.440   5.471  0.1110  2.7128 -0.7765
  434MOL0     H57231   1.496   1.501   5.733 -2.0611 -0.5147 -0.1513
  434MOL0     H57232   1.574   1.371   5.637  0.3958  0.1117 -2.1194
  434MOL0     H57233   1.525   1.619   5.460  0.2337  0.7567 -0.1897
  434MOL0     H57234   1.641   1.488   5.455  2.3477  2.4665 -0.4335
  434MOL0     H57235   1.787   1.599   5.617  1.8182  1.8411 -0.7439
  434MOL0     H57236   1.648   1.699   5.668  0.6002 -0.7962  0.5968
  434MOL0     H57237   1.797   1.721   5.401 -0.2933  0.4792  0.4568
  434MOL0     H57238   1.660   1.811   5.462 -0.5729 -1.6220  0.9080
  434MOL0     H57239   1.927   1.785   5.596 -0.6022 -0.4002 -2.6643
  434MOL0     H57240   1.789   1.894   5.665  1.0534  0.1044  1.8334
  434MOL0     H57241   1.845   1.986   5.298 -1.3008  3.3903  0.9476
  434MOL0     H57242   2.081   2.102   5.162 -2.8750 -2.7444  1.6216
  434MOL0     H57243   2.219   2.167   5.263 -0.5794  2.1723  0.7049
  434MOL0     H57244   1.949   2.296   5.265 -0.0312 -1.2342  0.4601
  434MOL0     H57245   2.066   2.332   5.142  0.7532 -0.9763 -0.4094
  434MOL0     H57246   2.055   2.472   5.375 -2.8478 -2.3626  1.5945
  434MOL0     H57247   2.147   2.346   5.438 -0.2065  1.7172 -1.0547
  434MOL0     H57248   2.337   2.379   5.316 -0.9309 -1.4957  2.1324
  434MOL0     H57249   2.291   2.536   5.371  3.5526 -2.4994  0.0205
  434MOL0     H57250   2.234   2.593   4.919  1.4815  1.8966 -1.1564
  434MOL0     H57251   2.428   2.628   4.769 -0.7273  5.1644  0.8457
  434MOL0     H57252   2.879   2.460   4.641 -1.9664  0.9360  0.6816
  434MOL0     H57253   3.068   2.493   4.497  2.6466 -0.3146  0.4318
  434MOL0     H57254   3.385   2.789   4.615 -3.5532  2.6511  1.8468
  434MOL0     H57255   3.287   2.898   4.537  1.9618  1.1835 -0.4428
  434MOL0     H57256   3.376   2.801   4.310  0.4096 -0.6430 -0.5603
  434MOL0     H57257   3.506   2.735   4.418  2.2169  1.5614  1.7763
  434MOL0     H57258   3.559   2.954   4.507 -0.8841 -2.9029  1.6296
  434MOL0     H57259   3.426   3.022   4.395 -1.9384 -0.3984  2.8359
  434MOL0     H57260   3.677   2.886   4.336 -0.4430  0.3188  2.8936
  434MOL0     H57261   3.552   2.906   4.194 -2.0792 -3.2413  1.9165
  434MOL0     H57262   3.563   3.146   4.233  1.5087  3.0848 -3.1056
  434MOL0     H57263   3.713   3.073   4.168  1.9542  2.6324  1.5669
  434MOL0     H57264   3.819   3.084   4.379 -0.1425 -0.4215  1.2971
  434MOL0     H57265   3.670   3.157   4.451  0.2574 -1.1933  0.2734
  434MOL0     H57266   3.843   3.278   4.230 -1.0061  2.7827 -0.8344
  434MOL0     H57267   3.692   3.341   4.262  1.5425 -1.6537 -5.6707
  434MOL0     H57268   3.786   3.397   4.510  0.6794  0.2141  0.5202
  434MOL0     H57269   3.886   3.460   4.377 -0.5482 -0.1456  0.1544
  434MOL0     H57270   3.157   2.869   4.682  1.3549  0.1458  1.3995
  434MOL0     H57271   2.987   2.830   4.841  1.9694  1.2571  0.0490
  434MOL0     H57272   2.695   2.532   5.084  0.4954 -0.1979 -0.1835
  434MOL0     H57273   2.503   2.522   5.234 -1.7681 -2.2211 -0.4812
  434MOL0     H57274   1.157   1.138   5.196  1.4564  0.7276  2.1880
  434MOL0     H57275   0.959   1.130   5.060  2.6275  2.1575  0.0874
  434MOL0     H57276   0.483   1.066   5.198  2.8086  2.3207  0.6542
  434MOL0     H57277   0.233   1.032   5.163 -2.1139 -0.0985 -1.8125
  434MOL0     H57278   0.102   1.103   4.885 -0.6082 -0.4251 -0.4346
  434MOL0     H57279  -0.040   1.209   4.898  2.3719  1.5063  1.2877
  434MOL0     H57280  -0.062   0.928   4.922  1.4920 -0.8729  0.6552
  434MOL0     H57281   0.023   0.955   5.078 -1.6545  1.6529  2.4110
  434MOL0     H57282  -0.248   1.070   4.997 -0.0648 -1.3297 -0.9952
  434MOL0     H57283  -0.179   1.074   5.161 -4.9597 -1.6553  1.0591
  434MOL0     H57284  -0.255   0.830   5.007 -1.9208 -0.8532  0.4422
  434MOL0     H57285  -0.183   0.835   5.171 -0.0780  0.3935 -0.1523
  434MOL0     H57286  -0.617   0.923   5.179  0.1932  2.0632 -0.4309
  434MOL0     H57287   0.222   1.414   4.974 -0.1236 -1.0615 -1.7088
  434MOL0     H57288   0.467   1.442   5.002  0.5572  0.5855  2.7114
  435MOL0     O57289   3.266  11.000  10.651  0.1809 -0.3528  0.6391
  435MOL0     C57290   3.244  11.104  10.592 -0.3224  0.4724 -0.2433
  435MOL0     O57291   3.167  11.207  10.643  0.1767  1.3474 -0.3386
  435MOL0     C57292   3.109  11.207  10.767  0.0361  0.5267  0.1660
  435MOL0     C57293   3.071  11.095  10.841 -0.3441 -0.1657 -0.3238
  435MOL0     C57294   2.998  11.124  10.960  0.0853  0.9461  0.5484
  435MOL0     C57295   2.960  11.257  10.992 -0.1194  0.6595 -0.3980
  435MOL0     O57296   2.866  11.285  11.093 -0.7759  0.3393 -0.5640
  435MOL0     C57297   2.743  11.339  11.048  0.5391 -0.0866  0.0089
  435MOL0     C57298   2.688  11.422  11.167 -1.1936 -0.4737  0.8547
  435MOL0     C57299   2.702  11.342  11.299 -0.4526  0.5735 -0.1333
  435MOL0     C57300   2.629  11.421  11.410 -0.4602  0.2704 -0.1696
  435MOL0     C57301   2.659  11.361  11.544  1.2977  0.3274  0.6072
  435MOL0     C57302   2.641  11.458  11.657  0.2292 -1.1474 -0.1813
  435MOL0     C57303   2.683  11.398  11.791  0.0912  0.2214 -0.1094
  435MOL0     C57304   2.830  11.389  11.813 -0.1086 -0.4421  0.8609
  435MOL0     N57305   2.852  11.327  11.940  0.7539 -0.0351  0.5721
  435MOL0     C57306   2.887  11.196  11.965  0.2359 -0.2925  0.5892
  435MOL0     C57307   2.901  11.194  12.102 -0.2326 -1.0216  0.2056
  435MOL0     C57308   2.956  11.082  12.177  0.4773 -0.5878  0.6739
  435MOL0     C57309   2.970  11.113  12.326  0.1380  1.1077  0.1812
  435MOL0     C57310   2.832  11.107  12.403 -1.2554 -0.6798 -0.8263
  435MOL0     C57311   2.844  11.141  12.551 -0.1653  0.0136 -0.0008
  435MOL0     O57312   2.785  11.272  12.591 -0.6287 -0.2151  0.9411
  435MOL0     C57313   2.648  11.302  12.601 -0.3353  0.8748  0.6100
  435MOL0     C57314   2.610  11.416  12.661  0.1499 -0.1142 -0.1949
  435MOL0     C57315   2.476  11.456  12.678 -0.3636 -0.2560  1.5338
  435MOL0     C57316   2.376  11.376  12.612  0.6450 -0.1742  0.2307
  435MOL0     C57317   2.229  11.416  12.621  0.9290  0.6552  0.4486
  435MOL0     O57318   2.195  11.541  12.651 -0.1551  0.2853 -0.2866
  435MOL0     C57319   2.081  11.579  12.582  0.0883 -0.1620 -0.9652
  435MOL0     C57320   1.977  11.639  12.654 -0.7294 -0.9679  0.0113
  435MOL0     C57321   1.874  11.708  12.589  0.4289  0.4815  0.5058
  435MOL0     C57322   1.866  11.709  12.446 -0.3177  0.2382 -0.0714
  435MOL0     O57323   1.767  11.780  12.385  0.5781  0.4105 -0.2238
  435MOL0     C57324   1.808  11.910  12.351  0.5059  0.1504 -0.8091
  435MOL0     C57325   1.705  11.991  12.260  0.6013  0.1272 -0.9834
  435MOL0     C57326   1.716  11.938  12.117 -0.6051 -1.3077 -0.1249
  435MOL0     C57327   1.638  12.014  12.004  0.3380  0.4987  0.1889
  435MOL0     C57328   1.716  12.004  11.875 -0.6489 -0.1871  0.1183
  435MOL0     C57329   1.729  11.862  11.832  0.5367  0.0743  1.2219
  435MOL0     C57330   1.799  11.849  11.687 -0.7474  0.0673  0.0826
  435MOL0     C57331   1.913  11.748  11.689 -0.8178  0.6930  0.0514
  435MOL0    Cl57332   1.870  11.567  11.660 -0.6759 -0.1904  0.4647
  435MOL0     C57333   1.961  11.645  12.374 -0.0534 -0.1711  0.8429
  435MOL0     C57334   2.069  11.579  12.436  0.8098  0.6669 -0.1154
  435MOL0     O57335   2.145  11.326  12.608  0.2895 -0.6501 -0.0275
  435MOL0     C57336   2.415  11.254  12.558 -0.0285  0.0624  0.1319
  435MOL0     C57337   2.550  11.219  12.557  0.4113  0.0292 -0.1916
  435MOL0     N57338   2.871  11.320  12.152  0.1296  0.3242 -0.0918
  435MOL0     N57339   2.832  11.399  12.059 -0.3969 -0.1485  0.7425
  435MOL0     C57340   3.015  11.370  10.922  0.4313  0.1282 -1.7171
  435MOL0     C57341   3.080  11.337  10.803 -0.9876  0.5138 -0.2889
  435MOL0     C57342   3.290  11.125  10.450 -0.0792  0.0632  0.1296
  435MOL0     C57343   3.304  11.250  10.392 -0.1916  0.5714  0.1343
  435MOL0     C57344   3.360  11.268  10.261 -0.1607 -0.1025 -0.3799
  435MOL0     C57345   3.391  11.160  10.180 -0.4033  0.3283  0.3330
  435MOL0     O57346   3.440  11.166  10.048  0.1121 -0.0980 -0.2752
  435MOL0     C57347   3.440  11.048   9.966  0.1699 -1.0788  0.5062
  435MOL0     C57348   3.503  11.071   9.830  1.0324 -0.2833  0.0687
  435MOL0     C57349   3.473  10.962   9.727  0.1204  0.0140  0.2513
  435MOL0     C57350   3.519  10.998   9.596 -1.2206 -0.0094  0.9382
  435MOL0     C57351   3.513  10.885   9.508  0.1372  0.2523  0.7525
  435MOL0     C57352   3.497  10.795   9.420 -0.7751 -0.3221 -0.4794
  435MOL0     C57353   3.358  11.041  10.245  0.3086  0.8771  0.9454
  435MOL0     C57354   3.319  11.019  10.377  0.1166  0.5202 -0.3508
  435MOL0     H57355   3.091  10.993  10.812  0.3174 -0.9218  2.4768
  435MOL0     H57356   2.949  11.053  11.026 -0.8315  1.6024  0.5901
  435MOL0     H57357   2.676  11.253  11.037  0.8560 -0.6765  2.1031
  435MOL0     H57358   2.749  11.398  10.957  3.4333 -0.2841 -0.0177
  435MOL0     H57359   2.581  11.443  11.151 -0.5824 -0.1404 -5.1366
  435MOL0     H57360   2.748  11.512  11.179  0.1048 -1.3064  0.8286
  435MOL0     H57361   2.808  11.335  11.323 -0.3601 -1.0765 -0.9117
  435MOL0     H57362   2.659  11.241  11.298 -3.3425  1.5865  3.0098
  435MOL0     H57363   2.638  11.530  11.411 -0.6222  0.3535 -2.5775
  435MOL0     H57364   2.522  11.411  11.392  0.0124 -2.0701 -2.3417
  435MOL0     H57365   2.764  11.332  11.533  1.0114 -0.3408 -0.4099
  435MOL0     H57366   2.600  11.274  11.573  2.4710  0.0804  2.3900
  435MOL0     H57367   2.534  11.481  11.661  0.1692 -1.3375 -0.5700
  435MOL0     H57368   2.700  11.550  11.643  0.5648 -1.2723  0.4088
  435MOL0     H57369   2.628  11.450  11.869 -1.3958 -1.9265  0.3526
  435MOL0     H57370   2.640  11.299  11.809 -0.8102  0.6628  0.2166
  435MOL0     H57371   2.880  11.485  11.799  2.0503 -1.5779  0.4337
  435MOL0     H57372   2.879  11.313  11.752 -0.2859 -1.7999  2.3498
  435MOL0     H57373   2.912  11.104  11.913 -0.5856  0.5941 -1.4735
  435MOL0     H57374   3.061  11.095  12.149  0.6793 -0.7730  1.3315
  435MOL0     H57375   2.899  10.990  12.161 -0.4322 -0.0439  0.6936
  435MOL0     H57376   3.010  11.214  12.336 -1.0950  1.6450 -0.1591
  435MOL0     H57377   3.041  11.042  12.369 -0.1719 -0.5847 -1.8759
  435MOL0     H57378   2.755  11.170  12.357 -3.1800 -2.1649  0.2421
  435MOL0     H57379   2.794  11.006  12.386  0.4051 -1.5112  0.1628
  435MOL0     H57380   2.948  11.133  12.584 -0.5418 -0.5344  1.1296
  435MOL0     H57381   2.801  11.067  12.620 -0.7730  1.0720  0.7913
  435MOL0     H57382   2.684  11.478  12.711  0.1014 -1.4660  1.6654
  435MOL0     H57383   2.452  11.552  12.723  0.5335 -0.1060  1.7042
  435MOL0     H57384   1.986  11.637  12.762 -2.4006 -1.3063  0.1706
  435MOL0     H57385   1.794  11.756  12.643 -0.8392 -0.3774 -0.5669
  435MOL0     H57386   1.910  11.924  12.312  0.8433  0.4855  0.1619
  435MOL0     H57387   1.813  11.954  12.451 -2.6320 -2.2274  0.5495
  435MOL0     H57388   1.736  12.096  12.260 -0.2737  0.4084 -2.3699
  435MOL0     H57389   1.604  11.982  12.301  1.0215  0.0799  0.0929
  435MOL0     H57390   1.678  11.836  12.131 -1.0890 -0.9968  0.8821
  435MOL0     H57391   1.822  11.920  12.096 -0.6544 -0.2582 -1.4059
  435MOL0     H57392   1.540  11.969  11.988  0.1916  1.3811 -1.8061
  435MOL0     H57393   1.620  12.120  12.025 -2.0476  0.6826 -2.2056
  435MOL0     H57394   1.817  12.043  11.887 -0.4600  0.6540 -3.1962
  435MOL0     H57395   1.668  12.061  11.796  2.0941  1.1828 -0.6947
  435MOL0     H57396   1.626  11.827  11.814 -0.5886  3.8010 -0.5510
  435MOL0     H57397   1.787  11.804  11.904 -1.5369 -1.7970  1.5145
  435MOL0     H57398   1.737  11.805  11.609  1.8881 -2.8746 -0.5877
  435MOL0     H57399   1.831  11.949  11.656  1.0865 -0.8218 -1.0810
  435MOL0     H57400   1.975  11.779  11.773  0.2507  2.0684 -1.1774
  435MOL0     H57401   1.971  11.765  11.598 -0.5298 -3.2017 -0.6816
  435MOL0     H57402   1.965  11.645  12.265  2.4390  3.5676  0.7545
  435MOL0     H57403   2.144  11.533  12.373 -2.1962 -2.2571 -1.8639
  435MOL0     H57404   2.334  11.189  12.527  0.3833 -0.1532 -0.5125
  435MOL0     H57405   2.583  11.122  12.522  0.4757  0.3425 -1.0154
  435MOL0     H57406   2.999  11.475  10.946  2.1803 -0.0495  0.6051
  435MOL0     H57407   3.113  11.423  10.745  3.0362 -0.1682  0.6899
  435MOL0     H57408   3.274  11.335  10.452 -1.8256  0.4664 -0.4987
  435MOL0     H57409   3.392  11.368  10.232 -0.5353 -0.4213 -2.0360
  435MOL0     H57410   3.342  10.999   9.955  0.5865 -1.4590 -2.2161
  435MOL0     H57411   3.512  10.981  10.014  1.1758 -0.4240 -0.0640
  435MOL0     H57412   3.463  11.161   9.782  0.5041 -1.3135 -1.4659
  435MOL0     H57413   3.610  11.095   9.830  0.5063  2.3698 -0.4946
  435MOL0     H57414   3.367  10.936   9.723 -0.2212  0.2332  4.0886
  435MOL0     H57415   3.526  10.874   9.763  0.0686  0.0758  0.4763
  435MOL0     H57416   3.451  11.080   9.569 -2.1144 -1.4058 -1.3578
  435MOL0     H57417   3.620  11.041   9.598 -1.6409  1.2535 -1.3068
  435MOL0     H57418   3.481  10.737   9.331  1.4214 -1.1524 -0.3820
  435MOL0     H57419   3.370  10.940  10.207 -3.1486 -0.3731  2.7674
  435MOL0     H57420   3.312  10.920  10.419 -3.7102  0.2593 -1.2344
  436MOL0     O57421   9.143   4.274   7.080  1.0430  0.2651 -0.1017
  436MOL0     C57422   9.201   4.281   7.188  0.4045 -0.4306  0.2226
  436MOL0     O57423   9.207   4.182   7.276 -0.1577 -0.1213  0.9712
  436MOL0     C57424   9.138   4.063   7.260 -0.2449 -1.0123 -0.6285
  436MOL0     C57425   9.151   3.977   7.369  0.1971 -0.2159  0.2996
  436MOL0     C57426   9.072   3.863   7.387 -1.0448 -0.4970  0.0625
  436MOL0     C57427   8.986   3.818   7.288 -0.2537 -0.3981 -0.2020
  436MOL0     O57428   8.911   3.708   7.299  0.4942  0.0179 -0.7492
  436MOL0     C57429   8.916   3.602   7.196 -0.6079  0.3188 -0.6266
  436MOL0     C57430   9.053   3.536   7.180 -0.4308  0.0252  0.1414
  436MOL0     C57431   9.102   3.466   7.309 -0.4239  0.6167  0.1581
  436MOL0     C57432   9.225   3.373   7.285  0.8121 -0.0298 -0.6293
  436MOL0     C57433   9.307   3.331   7.402 -0.4536 -0.6970  0.3962
  436MOL0     C57434   9.401   3.219   7.344 -0.1619 -0.1130 -0.2968
  436MOL0     C57435   9.463   3.131   7.457 -0.0026  0.4300 -0.3503
  436MOL0     C57436   9.556   3.208   7.560  0.0957  0.2431  1.1810
  436MOL0     N57437   9.641   3.113   7.636  0.1714 -0.1721 -0.1184
  436MOL0     C57438   9.604   2.985   7.663  0.7809 -0.2463  1.1928
  436MOL0     C57439   9.722   2.918   7.676 -0.4015  0.3714 -0.1838
  436MOL0     C57440   9.734   2.772   7.690 -0.8931  0.1555 -0.4166
  436MOL0     C57441   9.769   2.697   7.565 -0.2860 -0.4447 -0.0868
  436MOL0     C57442   9.656   2.668   7.469  0.0347 -0.6480 -0.1847
  436MOL0     C57443   9.547   2.573   7.520 -0.0870 -1.2121  0.4598
  436MOL0     O57444   9.461   2.642   7.611  0.4540 -0.2736  0.6003
  436MOL0     C57445   9.345   2.577   7.649  0.9239  0.5905  0.0051
  436MOL0     C57446   9.236   2.659   7.670  0.2954 -0.2463  0.1738
  436MOL0     C57447   9.122   2.605   7.722  0.6420  0.5141  0.2494
  436MOL0     C57448   9.099   2.472   7.741  0.4032 -0.2173 -0.0274
  436MOL0     C57449   8.975   2.417   7.800 -0.1697  0.1837  0.1318
  436MOL0     O57450   8.964   2.280   7.825 -0.0943  0.0722 -0.6985
  436MOL0     C57451   8.854   2.226   7.891  0.3762  0.3574 -1.1677
  436MOL0     C57452   8.883   2.152   8.008  0.0158  0.8400 -0.0935
  436MOL0     C57453   8.783   2.122   8.095  0.3595  0.2009  0.1731
  436MOL0     C57454   8.655   2.167   8.079 -0.7458 -1.1416  0.2043
  436MOL0     O57455   8.556   2.131   8.156  1.4693 -0.3672  0.7588
  436MOL0     C57456   8.555   2.195   8.288 -0.4132 -0.6328 -0.4938
  436MOL0     C57457   8.459   2.127   8.378 -0.3300 -0.6335  0.0581
  436MOL0     C57458   8.517   1.996   8.425 -0.4660  0.1540  0.8304
  436MOL0     C57459   8.412   1.927   8.527 -0.1960  0.4382  0.2535
  436MOL0     C57460   8.338   1.822   8.452 -0.2217 -0.2317  0.1542
  436MOL0     C57461   8.251   1.874   8.331  0.6638  0.6825 -0.3788
  436MOL0     C57462   8.159   1.767   8.279  0.1247 -0.2058 -0.7524
  436MOL0     C57463   8.068   1.827   8.177  0.6316 -0.2455  0.4233
  436MOL0    Cl57464   7.957   1.714   8.102  0.0933  0.0750  0.0923
  436MOL0     C57465   8.631   2.248   7.957 -0.0674  0.3666  0.8261
  436MOL0     C57466   8.727   2.260   7.854  0.2755 -0.8883 -0.2903
  436MOL0     O57467   8.885   2.498   7.810 -0.2127 -0.2557 -0.3326
  436MOL0     C57468   9.207   2.382   7.699  0.0080 -0.0757 -0.6991
  436MOL0     C57469   9.327   2.437   7.658 -0.2242 -0.4560 -0.4033
  436MOL0     N57470   9.831   3.008   7.676 -0.8236  0.4060  0.1358
  436MOL0     N57471   9.774   3.112   7.648  0.4544 -0.8983 -0.3794
  436MOL0     C57472   8.968   3.900   7.175 -0.4853  0.2218 -0.3857
  436MOL0     C57473   9.035   4.023   7.163  0.2549 -0.7790 -0.6731
  436MOL0     C57474   9.270   4.402   7.242 -1.1952  0.7860 -0.3749
  436MOL0     C57475   9.270   4.524   7.165 -1.1352  0.2458 -0.4233
  436MOL0     C57476   9.330   4.643   7.217 -0.3402 -1.0101 -0.3787
  436MOL0     C57477   9.387   4.655   7.344  0.3568 -1.1887 -1.1298
  436MOL0     O57478   9.435   4.775   7.389 -0.0839  0.2526  0.3249
  436MOL0     C57479   9.470   4.788   7.529  0.0610 -0.5261  0.8474
  436MOL0     C57480   9.516   4.938   7.561 -1.2041  0.7688  0.8685
  436MOL0     C57481   9.408   5.032   7.528  0.1383 -0.5983 -0.9374
  436MOL0     C57482   9.427   5.169   7.571  0.3806  0.2046  1.2315
  436MOL0     C57483   9.448   5.185   7.722  0.4867 -0.0564  0.1662
  436MOL0     C57484   9.474   5.178   7.843  0.8947 -1.1159  0.5783
  436MOL0     C57485   9.373   4.534   7.422 -0.3922 -0.9011 -0.3228
  436MOL0     C57486   9.320   4.413   7.373 -0.1199  0.3576 -0.1610
  436MOL0     H57487   9.217   4.013   7.447 -0.9222  0.8189  0.7955
  436MOL0     H57488   9.075   3.831   7.491 -1.4592 -0.5704  0.0534
  436MOL0     H57489   8.889   3.636   7.096  4.0516  2.2550 -1.4694
  436MOL0     H57490   8.837   3.527   7.208 -1.5560  0.4890 -4.4356
  436MOL0     H57491   9.118   3.615   7.141 -1.6234  1.4273  0.8816
  436MOL0     H57492   9.034   3.464   7.100 -1.4647 -0.4604  0.7998
  436MOL0     H57493   9.016   3.411   7.349 -0.5342  1.5637  1.2995
  436MOL0     H57494   9.141   3.531   7.388 -0.6241 -0.8298  1.5110
  436MOL0     H57495   9.177   3.289   7.234 -1.1586 -0.8888  2.4149
  436MOL0     H57496   9.292   3.426   7.216 -1.6277  2.4643 -1.2541
  436MOL0     H57497   9.254   3.298   7.492  1.8040  0.1710  2.1367
  436MOL0     H57498   9.367   3.417   7.434 -1.5044  0.5257 -0.7782
  436MOL0     H57499   9.478   3.254   7.274  1.3823 -1.7537  0.5101
  436MOL0     H57500   9.339   3.141   7.299 -0.6213  0.0726  0.0015
  436MOL0     H57501   9.382   3.091   7.518 -0.3907 -3.6105 -3.1210
  436MOL0     H57502   9.525   3.049   7.420 -4.6898 -4.9060  1.9891
  436MOL0     H57503   9.491   3.275   7.616 -2.1680  0.3658 -1.3678
  436MOL0     H57504   9.625   3.280   7.513  0.0420  0.1666  0.9800
  436MOL0     H57505   9.510   2.933   7.650  1.3990 -1.0953 -0.0646
  436MOL0     H57506   9.653   2.733   7.753  1.2399  0.6055  2.8212
  436MOL0     H57507   9.816   2.766   7.761 -0.7882  3.9318 -0.0140
  436MOL0     H57508   9.816   2.600   7.584 -1.0727 -1.3209 -2.3420
  436MOL0     H57509   9.849   2.756   7.519 -0.2180  0.1522  0.7691
  436MOL0     H57510   9.604   2.757   7.434 -2.6848 -1.2081  1.9844
  436MOL0     H57511   9.697   2.618   7.381  0.7731 -0.4410  0.0388
  436MOL0     H57512   9.601   2.493   7.572  1.9594  0.6449  1.3634
  436MOL0     H57513   9.493   2.532   7.434  2.1035 -2.2021 -0.5152
  436MOL0     H57514   9.252   2.765   7.655  1.2413 -0.4307 -0.1764
  436MOL0     H57515   9.045   2.673   7.758 -0.5881 -1.3871  1.4320
  436MOL0     H57516   8.984   2.114   8.020  1.5713  4.5486 -0.1227
  436MOL0     H57517   8.816   2.050   8.169 -0.1206 -0.7320 -0.5022
  436MOL0     H57518   8.517   2.298   8.286 -2.3283 -1.2715  0.4705
  436MOL0     H57519   8.654   2.207   8.331  0.3265  0.3614 -2.3449
  436MOL0     H57520   8.365   2.115   8.322  0.1274  1.8159 -1.3788
  436MOL0     H57521   8.431   2.185   8.466  2.7684 -2.6512  2.6101
  436MOL0     H57522   8.608   2.020   8.481 -0.1247  0.6300  0.0924
  436MOL0     H57523   8.550   1.920   8.354  1.6497  0.8723  0.9792
  436MOL0     H57524   8.467   1.885   8.611  0.8271 -2.7557 -1.8695
  436MOL0     H57525   8.340   2.005   8.557  0.2016  0.8247  0.2206
  436MOL0     H57526   8.271   1.783   8.530 -0.1150  1.0886  0.9295
  436MOL0     H57527   8.405   1.743   8.417  0.9379  1.2017 -0.9984
  436MOL0     H57528   8.312   1.900   8.244  1.7525 -1.3231 -0.2765
  436MOL0     H57529   8.196   1.960   8.370  1.6687  0.5549  1.4122
  436MOL0     H57530   8.217   1.685   8.236 -0.5781 -1.9154  1.3582
  436MOL0     H57531   8.099   1.724   8.360  0.4626  0.6734 -0.0200
  436MOL0     H57532   8.120   1.885   8.101 -2.1650 -0.6317 -1.9594
  436MOL0     H57533   8.019   1.911   8.227  1.6462 -1.5351  3.8702
  436MOL0     H57534   8.534   2.298   7.961 -1.2597 -0.9508 -4.5025
  436MOL0     H57535   8.714   2.317   7.763 -0.7777  0.2077  0.5142
  436MOL0     H57536   9.200   2.274   7.697 -3.4863 -0.0667  1.7152
  436MOL0     H57537   9.404   2.362   7.641  2.3960  0.1752  5.8272
  436MOL0     H57538   8.892   3.869   7.104  0.1830 -2.7109  0.0472
  436MOL0     H57539   9.010   4.075   7.072  0.1211  1.2720  0.4811
  436MOL0     H57540   9.225   4.518   7.067 -1.6409 -2.3163 -0.1242
  436MOL0     H57541   9.333   4.730   7.153 -1.7623 -0.5412  0.1500
  436MOL0     H57542   9.549   4.715   7.552  2.0051  1.1922 -0.0368
  436MOL0     H57543   9.381   4.774   7.591 -0.0777 -1.2832  0.4952
  436MOL0     H57544   9.533   4.949   7.668 -0.3153  1.6691  0.6560
  436MOL0     H57545   9.608   4.954   7.504 -0.2191 -3.2225  0.9845
  436MOL0     H57546   9.313   4.997   7.571  0.6757  0.6354  1.4238
  436MOL0     H57547   9.391   5.041   7.420  0.1288  0.0760 -0.8784
  436MOL0     H57548   9.510   5.202   7.508 -0.9521 -0.7351 -1.1377
  436MOL0     H57549   9.339   5.229   7.546  0.0666 -1.2019 -1.4716
  436MOL0     H57550   9.489   5.187   7.949 -1.8505  2.0275  0.8561
  436MOL0     H57551   9.366   4.544   7.530 -0.0982 -1.2365 -0.2715
  436MOL0     H57552   9.290   4.338   7.446 -4.0869  0.8798 -1.0438
  437MOL0     O57553   1.044   1.123   8.247 -1.1780 -0.4238 -0.2281
  437MOL0     C57554   1.150   1.072   8.273  0.1719  0.1123  0.8040
  437MOL0     O57555   1.225   1.098   8.388  0.7640  0.7898  0.5879
  437MOL0     C57556   1.169   1.169   8.491 -0.3612  0.0707 -0.2325
  437MOL0     C57557   1.160   1.308   8.469  0.1439 -0.3346 -0.3509
  437MOL0     C57558   1.094   1.388   8.565  0.4127  0.0565 -0.4223
  437MOL0     C57559   1.034   1.334   8.680 -0.5942 -0.9208  0.3484
  437MOL0     O57560   0.966   1.421   8.763  0.1798  0.3094 -0.4979
  437MOL0     C57561   0.827   1.440   8.727 -0.2523  0.1116  0.0123
  437MOL0     C57562   0.739   1.457   8.851 -0.3503 -0.0395  0.7764
  437MOL0     C57563   0.797   1.583   8.925  0.3282  1.2849 -0.3444
  437MOL0     C57564   0.738   1.708   8.883  0.4504 -0.4474 -0.7576
  437MOL0     C57565   0.818   1.840   8.915  0.2726 -0.8392  1.1221
  437MOL0     C57566   0.741   1.965   8.855 -0.7438  0.4096 -0.6089
  437MOL0     C57567   0.619   2.018   8.935 -0.5489  0.0300 -0.8923
  437MOL0     C57568   0.617   2.172   8.944 -0.6331 -0.0748  0.1869
  437MOL0     N57569   0.595   2.220   8.807  0.1563 -0.8252  0.0966
  437MOL0     C57570   0.683   2.279   8.723 -0.9389  0.2717  0.3009
  437MOL0     C57571   0.606   2.349   8.634 -0.4420  0.0903 -0.1695
  437MOL0     C57572   0.626   2.452   8.532 -0.0377 -0.7445  0.0867
  437MOL0     C57573   0.598   2.601   8.576  0.2341 -0.5180  0.2952
  437MOL0     C57574   0.636   2.656   8.719  0.2817 -0.5523  1.0671
  437MOL0     C57575   0.568   2.784   8.744  0.3514 -0.7345 -0.0273
  437MOL0     O57576   0.626   2.888   8.662 -0.5915  0.0790  0.3895
  437MOL0     C57577   0.759   2.919   8.675  0.1087 -0.1286 -0.4312
  437MOL0     C57578   0.833   2.952   8.555  0.0102 -0.2293 -0.3900
  437MOL0     C57579   0.976   2.980   8.569  0.5926  0.0032  0.2114
  437MOL0     C57580   1.037   2.983   8.694  0.9090 -0.1271 -0.6337
  437MOL0     C57581   1.180   3.006   8.691  0.3687 -0.5116  0.6366
  437MOL0     O57582   1.244   3.032   8.569  0.3431  0.2990 -0.5200
  437MOL0     C57583   1.376   3.069   8.584 -0.1979 -0.0207 -0.5108
  437MOL0     C57584   1.413   3.195   8.571 -0.4820 -0.6712 -0.1875
  437MOL0     C57585   1.550   3.228   8.575  0.1226 -0.6299  0.4317
  437MOL0     C57586   1.649   3.131   8.597 -0.3746  0.0247 -0.0875
  437MOL0     O57587   1.789   3.150   8.611  0.4381 -0.2223 -0.2168
  437MOL0     C57588   1.824   3.285   8.638 -0.5220  0.1846 -0.9778
  437MOL0     C57589   1.959   3.321   8.715  0.6414 -0.3675  0.0219
  437MOL0     C57590   2.094   3.298   8.648 -0.1801  0.3525  0.0658
  437MOL0     C57591   2.105   3.396   8.531  0.1720  0.5641 -0.0081
  437MOL0     C57592   2.260   3.423   8.497 -0.2079  0.1366 -0.3760
  437MOL0     C57593   2.350   3.449   8.627 -0.4468  0.2533  0.8264
  437MOL0     C57594   2.490   3.505   8.596 -0.0637  1.0211 -0.2051
  437MOL0     C57595   2.595   3.405   8.621  0.4969 -0.2933  0.6965
  437MOL0    Cl57596   2.615   3.331   8.462  0.4023  0.3633 -0.3866
  437MOL0     C57597   1.607   2.999   8.623 -0.7211  0.4849  0.0180
  437MOL0     C57598   1.473   2.976   8.607  0.4357 -0.1996 -0.9516
  437MOL0     O57599   1.233   3.001   8.799 -0.6061  0.2853  0.1490
  437MOL0     C57600   0.961   2.962   8.816  0.7033  0.0770  0.0990
  437MOL0     C57601   0.828   2.923   8.797  0.9389 -0.8004 -0.9627
  437MOL0     N57602   0.481   2.323   8.659  0.5749  0.5525  0.4022
  437MOL0     N57603   0.473   2.249   8.761 -0.6515 -0.1511  0.8844
  437MOL0     C57604   1.048   1.196   8.708 -1.3853 -0.2303  0.0461
  437MOL0     C57605   1.131   1.116   8.619  0.4543 -1.0531 -0.5828
  437MOL0     C57606   1.203   0.962   8.193 -0.3897 -0.4994 -0.2691
  437MOL0     C57607   1.128   0.887   8.104  0.2087  0.1283 -0.7106
  437MOL0     C57608   1.175   0.786   8.024 -0.2585 -0.3666  0.0663
  437MOL0     C57609   1.312   0.745   8.033  0.2999 -0.0594 -0.4433
  437MOL0     O57610   1.361   0.628   7.972  0.5870 -0.3980 -0.3169
  437MOL0     C57611   1.281   0.552   7.883  0.3128  0.5467 -0.1061
  437MOL0     C57612   1.194   0.462   7.961  0.0200  0.8674 -0.5872
  437MOL0     C57613   1.242   0.402   8.096 -0.3823 -0.3623  0.9362
  437MOL0     C57614   1.155   0.312   8.173  0.0712  0.5548 -0.0529
  437MOL0     C57615   1.049   0.374   8.255  0.2779  0.6759  0.5861
  437MOL0     C57616   0.965   0.428   8.316  0.3904  1.2089  0.3034
  437MOL0     C57617   1.391   0.827   8.114  0.2485 -1.1231  0.8628
  437MOL0     C57618   1.335   0.934   8.192 -0.4066 -0.5985  0.3004
  437MOL0     H57619   1.184   1.361   8.377  0.6356 -0.5737 -0.3609
  437MOL0     H57620   1.088   1.496   8.554  2.8467  0.2128 -0.8173
  437MOL0     H57621   0.792   1.348   8.679 -0.1931  0.7590 -1.3224
  437MOL0     H57622   0.827   1.530   8.665  1.1242  1.7738  2.2692
  437MOL0     H57623   0.750   1.367   8.913 -0.6269  0.2534  1.2621
  437MOL0     H57624   0.632   1.471   8.832 -0.3169  1.1427  1.3570
  437MOL0     H57625   0.904   1.595   8.908  0.8620 -0.9834  0.9049
  437MOL0     H57626   0.786   1.558   9.031 -5.7755 -2.1899 -1.3225
  437MOL0     H57627   0.728   1.705   8.774 -1.4206 -1.5703 -0.5894
  437MOL0     H57628   0.633   1.723   8.910 -1.0126 -2.9786 -4.3006
  437MOL0     H57629   0.916   1.835   8.867  1.7236  2.9781  3.2347
  437MOL0     H57630   0.830   1.858   9.022 -2.1228  2.6100  1.0048
  437MOL0     H57631   0.714   1.942   8.752  3.6784 -4.8993 -1.0618
  437MOL0     H57632   0.811   2.049   8.859  0.3358 -0.4725 -0.3520
  437MOL0     H57633   0.521   1.977   8.907 -2.0684  2.1038  0.9692
  437MOL0     H57634   0.614   1.978   9.036 -0.3484 -0.6901 -1.1611
  437MOL0     H57635   0.700   2.224   8.993 -1.2987  0.1098  1.1462
  437MOL0     H57636   0.529   2.192   9.005 -0.9997  0.5183 -0.5206
  437MOL0     H57637   0.791   2.286   8.733 -0.3541 -1.8303 -3.1067
  437MOL0     H57638   0.557   2.446   8.447  1.0562  0.9400 -0.9964
  437MOL0     H57639   0.724   2.453   8.483  0.3179 -2.5221  0.7095
  437MOL0     H57640   0.489   2.610   8.573  0.3903  1.7584 -0.6719
  437MOL0     H57641   0.633   2.673   8.502  2.5306  1.9202  3.4583
  437MOL0     H57642   0.609   2.580   8.793 -1.9226 -1.2625 -0.3719
  437MOL0     H57643   0.744   2.673   8.717  0.0428  1.2187 -1.6641
  437MOL0     H57644   0.584   2.809   8.850 -2.9693  1.1358  0.1711
  437MOL0     H57645   0.461   2.778   8.723  0.0527 -0.6164  1.3300
  437MOL0     H57646   0.796   2.946   8.453  2.7371  0.9319 -1.5633
  437MOL0     H57647   1.029   3.022   8.483  0.1988  0.8405  0.3705
  437MOL0     H57648   1.336   3.269   8.551 -1.7928 -2.5110 -2.4116
  437MOL0     H57649   1.566   3.332   8.550 -0.7689 -0.6109 -0.1108
  437MOL0     H57650   1.746   3.339   8.693  0.3208  2.0693 -1.5168
  437MOL0     H57651   1.834   3.334   8.540  3.1223  1.6788 -0.0318
  437MOL0     H57652   1.949   3.263   8.807 -0.5550  0.2598  0.3077
  437MOL0     H57653   1.953   3.426   8.745  0.4519  0.1623 -1.7410
  437MOL0     H57654   2.120   3.199   8.607  2.6625  1.8505 -2.0841
  437MOL0     H57655   2.168   3.321   8.725 -0.1891  0.1824  0.1262
  437MOL0     H57656   2.065   3.351   8.439  0.4347  3.1888 -1.5050
  437MOL0     H57657   2.056   3.492   8.550  1.8015  2.1084 -2.9191
  437MOL0     H57658   2.262   3.513   8.435 -0.6759  1.0226  0.8478
  437MOL0     H57659   2.290   3.329   8.450 -3.1493 -1.0422 -0.1351
  437MOL0     H57660   2.357   3.361   8.692  2.6430 -1.7883 -1.9629
  437MOL0     H57661   2.287   3.521   8.680 -1.2361  0.6165 -0.5642
  437MOL0     H57662   2.493   3.553   8.497  3.6331 -0.8791 -1.2220
  437MOL0     H57663   2.494   3.588   8.667 -0.1101  1.5699 -0.8263
  437MOL0     H57664   2.584   3.322   8.691 -0.0782 -1.3892 -0.6403
  437MOL0     H57665   2.678   3.467   8.656 -0.0354  0.7545  0.1643
  437MOL0     H57666   1.675   2.916   8.638  0.1013  0.7857 -1.7207
  437MOL0     H57667   1.440   2.874   8.627  2.7496 -1.2498 -2.0452
  437MOL0     H57668   0.995   2.977   8.918  0.0916  2.1015  0.0351
  437MOL0     H57669   0.780   2.893   8.891  2.2765 -1.6243 -0.5064
  437MOL0     H57670   1.008   1.145   8.795 -1.4804 -0.1070  0.0757
  437MOL0     H57671   1.150   1.011   8.637 -0.4041 -1.0407  0.4511
  437MOL0     H57672   1.023   0.911   8.098 -0.5726 -2.7968 -0.4435
  437MOL0     H57673   1.101   0.739   7.959 -1.1118 -3.0320  2.6992
  437MOL0     H57674   1.353   0.489   7.830 -1.7218 -2.1736  0.1461
  437MOL0     H57675   1.219   0.602   7.807 -0.3811 -0.4048 -0.1780
  437MOL0     H57676   1.096   0.509   7.978  0.0067  0.5234  0.3085
  437MOL0     H57677   1.171   0.379   7.894 -5.8469 -1.1506  3.1449
  437MOL0     H57678   1.268   0.482   8.166 -2.0894  1.0667  0.0162
  437MOL0     H57679   1.332   0.343   8.076 -0.1045  1.2461 -4.3795
  437MOL0     H57680   1.122   0.228   8.111  0.8596 -2.1227  2.9143
  437MOL0     H57681   1.226   0.268   8.243 -2.6853 -4.3029  0.1631
  437MOL0     H57682   0.880   0.466   8.370  0.6233 -0.0108  1.5847
  437MOL0     H57683   1.495   0.797   8.117  0.7127  0.0861 -1.2081
  437MOL0     H57684   1.403   1.003   8.240  0.3672 -1.5368  0.6040
  438MOL0     O57685   1.132   6.563   1.919  0.9634  0.1424  0.4053
  438MOL0     C57686   1.230   6.627   1.958 -0.1167 -0.5870  0.8471
  438MOL0     O57687   1.246   6.668   2.089  0.0891 -0.8196  1.1782
  438MOL0     C57688   1.145   6.699   2.179 -0.1301 -0.0638  0.1581
  438MOL0     C57689   1.031   6.624   2.194  0.1758 -0.3417  0.0236
  438MOL0     C57690   0.933   6.673   2.282  0.0136  0.1502 -0.7572
  438MOL0     C57691   0.939   6.794   2.351 -0.0920  0.8002  0.8601
  438MOL0     O57692   0.829   6.818   2.418  1.6482 -0.4283 -0.2874
  438MOL0     C57693   0.810   6.942   2.493  0.4538  0.6288 -0.1309
  438MOL0     C57694   0.678   6.947   2.562  0.5013 -0.4437 -0.3553
  438MOL0     C57695   0.650   7.079   2.634 -0.4436  0.8918  0.3482
  438MOL0     C57696   0.514   7.072   2.704  0.1672 -0.8776 -0.1245
  438MOL0     C57697   0.471   7.221   2.730  0.3994 -0.2873 -0.4808
  438MOL0     C57698   0.359   7.234   2.837  0.3041 -0.0235 -0.6270
  438MOL0     C57699   0.287   7.369   2.814  0.6074  0.8098  0.3481
  438MOL0     C57700   0.173   7.388   2.915 -0.4624  0.1782 -0.4690
  438MOL0     N57701   0.109   7.522   2.901 -0.4587  0.4330  0.1604
  438MOL0     C57702   0.165   7.635   2.938  0.1129  0.1692  0.1961
  438MOL0     C57703   0.073   7.729   2.921  0.3859 -0.0999 -0.2664
  438MOL0     C57704   0.086   7.872   2.965  0.3330 -0.8349 -0.8824
  438MOL0     C57705   0.222   7.932   2.936 -0.7423 -0.5842  0.3908
  438MOL0     C57706   0.238   8.085   2.984  0.2880 -0.0081  0.0618
  438MOL0     C57707   0.377   8.138   2.937 -0.3257  0.1021 -0.0559
  438MOL0     O57708   0.415   8.262   3.006 -0.0831  0.9745  0.7869
  438MOL0     C57709   0.540   8.305   3.000 -0.2429  0.5917  0.8815
  438MOL0     C57710   0.633   8.264   2.901 -0.3582  0.0438 -0.3873
  438MOL0     C57711   0.755   8.334   2.893 -0.0631 -0.4747 -0.4666
  438MOL0     C57712   0.789   8.447   2.965 -0.5483  0.1578  0.3685
  438MOL0     C57713   0.917   8.522   2.957  0.7063  0.5352  0.1042
  438MOL0     O57714   1.010   8.455   2.882 -0.5807  1.0451  0.6228
  438MOL0     C57715   1.130   8.523   2.864 -1.1015  0.6820  0.5408
  438MOL0     C57716   1.246   8.495   2.954 -0.4334 -0.6348  0.4798
  438MOL0     C57717   1.359   8.575   2.933 -0.9520 -0.0512 -0.2349
  438MOL0     C57718   1.366   8.665   2.832  0.6635 -0.9361 -0.0382
  438MOL0     O57719   1.480   8.733   2.796 -0.1868 -0.0214 -0.5196
  438MOL0     C57720   1.575   8.657   2.714 -0.5216  0.7676  0.6882
  438MOL0     C57721   1.680   8.562   2.772  0.0079  0.0560  0.9392
  438MOL0     C57722   1.773   8.640   2.870  0.8161  0.7251 -0.1149
  438MOL0     C57723   1.914   8.596   2.847  0.0379 -1.4698 -0.2003
  438MOL0     C57724   2.029   8.655   2.926  0.7718  0.0003 -0.3870
  438MOL0     C57725   2.037   8.574   3.062  0.0549 -0.7483 -0.4130
  438MOL0     C57726   2.125   8.647   3.173  0.8378  0.2162  0.3561
  438MOL0     C57727   2.277   8.658   3.118  0.9440  0.1003 -0.7632
  438MOL0    Cl57728   2.389   8.706   3.243 -0.4195 -0.4386 -0.0138
  438MOL0     C57729   1.249   8.693   2.756  0.1005  0.2870  0.2066
  438MOL0     C57730   1.129   8.630   2.776 -0.5227  0.6400  0.6571
  438MOL0     O57731   0.935   8.624   3.018 -0.3308  0.2264 -1.3301
  438MOL0     C57732   0.687   8.498   3.049  0.0138  0.3642  0.3909
  438MOL0     C57733   0.572   8.423   3.067  0.1511 -0.9297 -0.0891
  438MOL0     N57734  -0.040   7.676   2.875  0.0574  0.0447  0.1301
  438MOL0     N57735  -0.020   7.546   2.865  0.0483 -0.7376 -0.2265
  438MOL0     C57736   1.053   6.878   2.331 -0.6815 -0.6122 -0.1166
  438MOL0     C57737   1.166   6.817   2.258  0.7363 -0.4081  0.5417
  438MOL0     C57738   1.344   6.625   1.868  0.1463  0.0594  0.6310
  438MOL0     C57739   1.331   6.616   1.731 -0.1474  0.7363 -0.0277
  438MOL0     C57740   1.446   6.632   1.652 -0.4547 -0.5576  0.7859
  438MOL0     C57741   1.578   6.660   1.709  1.1305 -0.1646  0.2509
  438MOL0     O57742   1.689   6.670   1.634 -0.1362 -0.1579 -0.3645
  438MOL0     C57743   1.669   6.656   1.497 -0.2277 -0.3075 -0.8295
  438MOL0     C57744   1.806   6.706   1.434  1.0382  0.4017 -0.3837
  438MOL0     C57745   1.795   6.858   1.419 -0.1227  0.0217 -0.2687
  438MOL0     C57746   1.936   6.924   1.383  0.1618  0.8295 -0.0182
  438MOL0     C57747   2.029   6.932   1.496 -1.0695  0.0406 -0.0319
  438MOL0     C57748   2.111   6.925   1.589  0.3305  0.3198  0.5016
  438MOL0     C57749   1.595   6.661   1.846 -0.5868  0.8415 -0.3540
  438MOL0     C57750   1.476   6.651   1.923 -0.3084 -0.2872  0.0109
  438MOL0     H57751   1.025   6.528   2.143  0.5920 -0.3708  0.0245
  438MOL0     H57752   0.853   6.601   2.289 -1.2233  1.5951  0.7951
  438MOL0     H57753   0.805   7.024   2.421 -0.2234  0.7290  0.0187
  438MOL0     H57754   0.880   6.951   2.576 -0.7661  0.3861  0.9593
  438MOL0     H57755   0.660   6.859   2.624  0.5293  0.8882  1.6453
  438MOL0     H57756   0.601   6.937   2.486  1.6221 -1.3413 -1.4076
  438MOL0     H57757   0.657   7.157   2.559  2.2724  1.2107  0.8252
  438MOL0     H57758   0.717   7.096   2.719  1.2111  0.4329 -0.8204
  438MOL0     H57759   0.438   7.018   2.646 -1.5899  0.4189  0.8910
  438MOL0     H57760   0.522   7.018   2.799  0.4189  1.1647  1.0650
  438MOL0     H57761   0.427   7.249   2.634 -0.4578 -0.8531 -0.2621
  438MOL0     H57762   0.549   7.286   2.771 -0.5183 -0.3753  1.5722
  438MOL0     H57763   0.393   7.228   2.941  0.0737 -3.7598 -0.6049
  438MOL0     H57764   0.281   7.157   2.831  0.6244 -0.3570 -0.5982
  438MOL0     H57765   0.359   7.450   2.831  1.3564  0.6484 -1.7778
  438MOL0     H57766   0.253   7.366   2.710  0.1355 -0.0182  0.5138
  438MOL0     H57767   0.202   7.375   3.019 -1.3233 -1.4971 -0.4165
  438MOL0     H57768   0.106   7.306   2.890  0.5908 -0.8482 -0.0069
  438MOL0     H57769   0.271   7.648   2.955  0.1397  1.6768 -0.9446
  438MOL0     H57770   0.074   7.875   3.074 -0.4685 -1.1536 -0.9514
  438MOL0     H57771   0.003   7.928   2.921  1.3863  1.7237  0.1902
  438MOL0     H57772   0.236   7.941   2.828  1.5431  0.5337  0.7241
  438MOL0     H57773   0.312   7.879   2.968  1.2248  0.6359 -2.6385
  438MOL0     H57774   0.156   8.147   2.949  0.4571  0.2123  0.0575
  438MOL0     H57775   0.242   8.099   3.093 -1.9683  0.6319  0.1066
  438MOL0     H57776   0.385   8.140   2.828 -0.7051 -0.8139 -0.1056
  438MOL0     H57777   0.457   8.068   2.962  0.7823  1.2187 -0.3489
  438MOL0     H57778   0.612   8.171   2.850 -3.9109 -0.6539  1.9895
  438MOL0     H57779   0.829   8.279   2.836  0.4350 -1.2184  0.8352
  438MOL0     H57780   1.243   8.429   3.040 -0.7469  0.8170  1.6231
  438MOL0     H57781   1.442   8.561   3.001 -1.5910 -2.2221  0.1690
  438MOL0     H57782   1.635   8.728   2.655  2.6634 -1.1891  1.3018
  438MOL0     H57783   1.515   8.603   2.640 -1.3769 -0.1132  1.9895
  438MOL0     H57784   1.739   8.508   2.697  1.1702 -1.3079  2.7451
  438MOL0     H57785   1.631   8.486   2.834  0.9782  1.3738  3.4876
  438MOL0     H57786   1.754   8.624   2.977 -1.1657 -0.2807 -0.5715
  438MOL0     H57787   1.768   8.743   2.834 -2.4392  0.3757 -0.9145
  438MOL0     H57788   1.928   8.488   2.858 -1.0464 -1.4267  2.4120
  438MOL0     H57789   1.939   8.622   2.744  1.9703  0.0674  0.5928
  438MOL0     H57790   2.013   8.761   2.949  1.1102  0.3801 -1.8190
  438MOL0     H57791   2.124   8.658   2.873  0.8478  1.9517 -0.2250
  438MOL0     H57792   2.072   8.470   3.062  0.1358 -0.7209 -0.6041
  438MOL0     H57793   1.940   8.567   3.113  1.4296  1.8278  2.9921
  438MOL0     H57794   2.076   8.733   3.219  1.6390  0.7052  0.3183
  438MOL0     H57795   2.147   8.564   3.241 -0.3743 -1.0938 -0.7702
  438MOL0     H57796   2.286   8.731   3.036 -0.3761 -0.8736 -1.8206
  438MOL0     H57797   2.308   8.560   3.081  0.4733 -1.0496  1.6974
  438MOL0     H57798   1.249   8.769   2.678 -3.0895 -2.0501 -2.3686
  438MOL0     H57799   1.045   8.668   2.719  0.0170  0.1366 -0.5120
  438MOL0     H57800   0.685   8.593   3.101  0.1577 -0.4359  1.9127
  438MOL0     H57801   0.487   8.470   3.114 -1.0031 -2.0649 -0.9693
  438MOL0     H57802   1.067   6.966   2.392 -0.0637  0.1053 -1.2629
  438MOL0     H57803   1.252   6.883   2.250 -1.1501  2.2885  1.3225
  438MOL0     H57804   1.243   6.587   1.674  1.6204 -1.2903 -1.9528
  438MOL0     H57805   1.424   6.624   1.546  0.0880 -1.8913  0.7509
  438MOL0     H57806   1.588   6.715   1.454  0.1396  0.7180 -0.1637
  438MOL0     H57807   1.656   6.553   1.463 -2.0790 -0.0391 -1.0229
  438MOL0     H57808   1.893   6.676   1.493 -0.1419  0.6203  1.5245
  438MOL0     H57809   1.810   6.655   1.337 -1.2699 -2.7644  0.9929
  438MOL0     H57810   1.749   6.913   1.502 -0.0196  2.1316 -1.5398
  438MOL0     H57811   1.733   6.870   1.330 -1.4501 -0.9158  0.4975
  438MOL0     H57812   1.978   6.862   1.303  0.8383 -0.6965  1.4532
  438MOL0     H57813   1.923   7.024   1.341  0.4429  1.0200  0.3358
  438MOL0     H57814   2.170   6.915   1.679  1.5303 -0.2090 -0.3193
  438MOL0     H57815   1.691   6.676   1.893 -1.2524  0.0207  1.3424
  438MOL0     H57816   1.486   6.658   2.031  0.6253 -0.7441 -0.0308
  439MOL0     O57817   2.467   2.599  10.971 -1.1559  0.4799  0.4165
  439MOL0     C57818   2.465   2.697  10.895  0.6382  0.1765  0.6403
  439MOL0     O57819   2.478   2.690  10.763  0.0529 -0.4679 -0.8163
  439MOL0     C57820   2.535   2.576  10.704  0.0922  0.0081  0.1984
  439MOL0     C57821   2.506   2.581  10.564  0.1518  1.0260 -0.2039
  439MOL0     C57822   2.541   2.480  10.488 -0.4186  0.6171  0.2751
  439MOL0     C57823   2.597   2.364  10.539  0.4047  0.9975  0.1462
  439MOL0     O57824   2.641   2.257  10.459  0.2620 -0.0691  0.0349
  439MOL0     C57825   2.602   2.247  10.321  0.3721 -0.0866  0.0021
  439MOL0     C57826   2.627   2.111  10.264 -0.0028  0.3932  1.2942
  439MOL0     C57827   2.550   2.015  10.361 -0.4778 -0.7574  0.2046
  439MOL0     C57828   2.505   1.877  10.298 -0.7965 -1.1176 -0.5844
  439MOL0     C57829   2.627   1.771  10.303  1.3774 -0.8229  0.5153
  439MOL0     C57830   2.639   1.697  10.438  0.0233 -0.3707  0.2711
  439MOL0     C57831   2.774   1.618  10.440  0.2808 -0.4168  1.1324
  439MOL0     C57832   2.796   1.495  10.349  0.3085 -0.0512 -0.3881
  439MOL0     N57833   2.940   1.447  10.357  0.3911  0.4405  0.6947
  439MOL0     C57834   3.040   1.469  10.269 -0.3586  0.1086  0.6721
  439MOL0     C57835   3.151   1.421  10.330  0.9501 -0.1765  0.5237
  439MOL0     C57836   3.289   1.424  10.262  0.8568 -0.1017  0.8393
  439MOL0     C57837   3.315   1.306  10.177  0.1173  0.4006  0.4938
  439MOL0     C57838   3.273   1.176  10.245  0.0640 -0.0803 -0.7135
  439MOL0     C57839   3.334   1.051  10.175  0.0234  0.2127 -0.6720
  439MOL0     O57840   3.295   1.059  10.034  0.6291 -0.0177 -0.2323
  439MOL0     C57841   3.304   0.950   9.950  0.5461 -0.3984  0.6710
  439MOL0     C57842   3.235   0.971   9.835  0.7631 -0.0529  0.4900
  439MOL0     C57843   3.220   0.860   9.743 -0.6950 -0.2080 -0.4489
  439MOL0     C57844   3.298   0.747   9.751  0.0791 -0.1182  0.9719
  439MOL0     C57845   3.321   0.656   9.630 -0.5848 -0.1056  0.0536
  439MOL0     O57846   3.246   0.670   9.523 -0.0512  0.1602 -0.0929
  439MOL0     C57847   3.290   0.590   9.410  0.4309 -0.0886 -0.5496
  439MOL0     C57848   3.410   0.622   9.336 -0.8998  0.1518  0.3412
  439MOL0     C57849   3.469   0.541   9.243  0.1175 -0.6136  0.1484
  439MOL0     C57850   3.403   0.417   9.202  0.6630  0.1409  0.0600
  439MOL0     O57851   3.436   0.340   9.092 -0.0445  0.1150 -0.6167
  439MOL0     C57852   3.545   0.374   9.014 -0.1379 -0.1566  0.6095
  439MOL0     C57853   3.533   0.282   8.892 -0.0520 -1.0161 -0.9189
  439MOL0     C57854   3.594   0.145   8.908  0.1030 -0.4723 -0.3523
  439MOL0     C57855   3.606   0.056   8.782  0.6183 -0.8611  0.6861
  439MOL0     C57856   3.697  -0.068   8.790 -0.7778  0.2388 -0.3781
  439MOL0     C57857   3.644  -0.180   8.697 -0.3767  0.5533 -0.2147
  439MOL0     C57858   3.627  -0.138   8.548 -0.3711 -0.5047  0.7268
  439MOL0     C57859   3.604  -0.256   8.453  0.7381  0.0045 -0.7298
  439MOL0    Cl57860   3.608  -0.205   8.282  0.4131 -0.2155  0.3314
  439MOL0     C57861   3.280   0.388   9.266 -0.5132 -0.4967  0.3563
  439MOL0     C57862   3.220   0.471   9.367 -0.6399 -0.3644 -0.7609
  439MOL0     O57863   3.418   0.575   9.646  0.2795  0.0206  0.1330
  439MOL0     C57864   3.361   0.725   9.874  0.4823 -0.3184 -0.1744
  439MOL0     C57865   3.367   0.827   9.973  0.1579 -1.0913  0.1329
  439MOL0     N57866   3.123   1.393  10.461  0.9147 -1.0689 -0.0931
  439MOL0     N57867   2.993   1.399  10.476  0.1389 -0.4435  0.3626
  439MOL0     C57868   2.627   2.358  10.675 -0.2129 -0.1958 -0.1928
  439MOL0     C57869   2.593   2.465  10.761 -1.4981 -0.1782  1.0138
  439MOL0     C57870   2.426   2.827  10.962 -0.2260  0.2111  1.1696
  439MOL0     C57871   2.411   2.949  10.887  0.8671 -0.1473  0.3190
  439MOL0     C57872   2.396   3.066  10.955 -0.7028 -1.1738 -0.9896
  439MOL0     C57873   2.385   3.072  11.096 -0.0397  0.3815 -0.2962
  439MOL0     O57874   2.369   3.192  11.161  0.7690  0.2958 -0.0490
  439MOL0     C57875   2.244   3.220  11.227  1.2974  0.0609  0.6375
  439MOL0     C57876   2.265   3.245  11.372  0.1698  0.5531 -1.2378
  439MOL0     C57877   2.398   3.309  11.415  0.0972  0.4343  0.0466
  439MOL0     C57878   2.398   3.359  11.554  0.9659 -0.4178 -1.3467
  439MOL0     C57879   2.543   3.363  11.599  0.3016 -0.5460  0.1470
  439MOL0     C57880   2.658   3.375  11.624  0.1508  0.3478 -0.2725
  439MOL0     C57881   2.384   2.953  11.165 -0.1689  0.4457  0.0938
  439MOL0     C57882   2.422   2.836  11.098  0.5349 -0.0064 -0.6523
  439MOL0     H57883   2.445   2.664  10.530 -2.7443 -0.5192  0.8070
  439MOL0     H57884   2.498   2.477  10.389 -1.4086 -0.6240  0.7185
  439MOL0     H57885   2.658   2.317  10.258  2.3738 -1.6001 -0.0086
  439MOL0     H57886   2.495   2.269  10.323  0.7894  2.1712 -0.0606
  439MOL0     H57887   2.732   2.084  10.249 -1.1736 -3.5033 -1.4044
  439MOL0     H57888   2.572   2.098  10.170  1.4418 -1.5593  0.6753
  439MOL0     H57889   2.464   2.069  10.401  0.1338  1.8467 -1.7440
  439MOL0     H57890   2.605   1.991  10.452 -1.7481 -5.0994  0.0839
  439MOL0     H57891   2.409   1.854  10.345 -0.3613  0.4490  1.1883
  439MOL0     H57892   2.490   1.898  10.192 -2.2696 -0.6591 -0.3090
  439MOL0     H57893   2.720   1.817  10.267  0.6994 -0.9858 -1.5756
  439MOL0     H57894   2.610   1.705  10.217 -1.6148  0.4926 -0.0110
  439MOL0     H57895   2.551   1.636  10.462 -0.4605  0.7716  1.5536
  439MOL0     H57896   2.646   1.771  10.518  2.0696  0.8179 -0.9203
  439MOL0     H57897   2.856   1.685  10.415  0.7839 -2.2871 -2.8994
  439MOL0     H57898   2.773   1.586  10.545 -2.9379 -1.7032  0.8397
  439MOL0     H57899   2.764   1.517  10.247 -0.7982  0.6514  0.0983
  439MOL0     H57900   2.723   1.414  10.365  0.4378  0.2005  1.8252
  439MOL0     H57901   3.022   1.510  10.170 -1.0437  2.4166  1.6858
  439MOL0     H57902   3.366   1.427  10.340  1.6522  2.1820  0.0475
  439MOL0     H57903   3.307   1.509  10.196  0.5075 -2.0414 -1.8951
  439MOL0     H57904   3.420   1.293  10.148 -0.3138 -2.3484 -0.0903
  439MOL0     H57905   3.263   1.314  10.081  3.5055 -1.3355 -1.6851
  439MOL0     H57906   3.309   1.181  10.348 -0.1076  3.0687 -0.7253
  439MOL0     H57907   3.164   1.181  10.245 -0.0028  0.1881  2.5754
  439MOL0     H57908   3.298   0.956  10.216 -0.0774  0.6942  0.3807
  439MOL0     H57909   3.442   1.052  10.188 -0.2172  1.7926  1.9517
  439MOL0     H57910   3.178   1.060   9.811  2.3016  0.6104 -0.9343
  439MOL0     H57911   3.149   0.874   9.662 -2.4652  2.0020  1.3535
  439MOL0     H57912   3.448   0.718   9.369  1.9911 -0.7403 -0.1145
  439MOL0     H57913   3.553   0.587   9.193 -0.1981 -1.5878 -1.3424
  439MOL0     H57914   3.640   0.352   9.064  1.4307 -0.5875 -2.2826
  439MOL0     H57915   3.552   0.478   8.981 -0.7696 -0.7915 -1.7150
  439MOL0     H57916   3.563   0.334   8.800 -0.8779  2.7542  0.7742
  439MOL0     H57917   3.427   0.270   8.866 -0.1238 -0.5246 -0.8692
  439MOL0     H57918   3.516   0.083   8.955 -1.0939 -0.7834 -2.6053
  439MOL0     H57919   3.686   0.144   8.966  0.1048 -0.3331 -0.3531
  439MOL0     H57920   3.507   0.015   8.758  1.8405 -3.1284 -0.8250
  439MOL0     H57921   3.647   0.120   8.703  1.8429 -0.4799  1.6076
  439MOL0     H57922   3.703  -0.106   8.892  2.4708 -1.0528 -0.9342
  439MOL0     H57923   3.801  -0.045   8.768 -0.0729 -0.8547  1.5746
  439MOL0     H57924   3.546  -0.221   8.724 -0.1109  1.0437  1.6488
  439MOL0     H57925   3.718  -0.259   8.710  0.0925  1.1806  1.1101
  439MOL0     H57926   3.562  -0.051   8.535  2.8184  1.6942 -2.2668
  439MOL0     H57927   3.718  -0.087   8.515 -0.5771 -0.8494 -0.4454
  439MOL0     H57928   3.502  -0.291   8.467  1.4910 -2.0583 -0.0116
  439MOL0     H57929   3.674  -0.339   8.470 -0.3890 -1.4589 -2.7680
  439MOL0     H57930   3.222   0.303   9.232  0.8854 -1.0538 -0.7314
  439MOL0     H57931   3.143   0.431   9.432 -1.6944 -2.3198 -3.0815
  439MOL0     H57932   3.412   0.631   9.889  2.0076  0.2454 -1.5151
  439MOL0     H57933   3.424   0.810  10.064 -1.6260 -1.8985  1.1549
  439MOL0     H57934   2.675   2.265  10.705 -2.1489 -0.8998  0.9258
  439MOL0     H57935   2.612   2.458  10.867 -3.3621 -1.2020  1.3185
  439MOL0     H57936   2.408   2.942  10.779 -0.9521  1.3456  0.2304
  439MOL0     H57937   2.385   3.155  10.894  1.3983  0.4538  0.8449
  439MOL0     H57938   2.169   3.143  11.206  2.4206 -0.4885 -1.6805
  439MOL0     H57939   2.204   3.313  11.186  0.3613  0.5621  2.5737
  439MOL0     H57940   2.188   3.318  11.401  0.5347 -0.0183  1.4925
  439MOL0     H57941   2.261   3.157  11.437 -1.1120  3.2407  2.6720
  439MOL0     H57942   2.415   3.391  11.345 -3.5972 -0.3799 -2.0787
  439MOL0     H57943   2.469   3.228  11.394 -1.0892 -0.2625 -1.4084
  439MOL0     H57944   2.351   3.457  11.569 -1.2292 -1.6629  0.6567
  439MOL0     H57945   2.339   3.288  11.613 -2.2644  2.8229 -0.3291
  439MOL0     H57946   2.761   3.363  11.652  0.1007 -2.0785 -0.9119
  439MOL0     H57947   2.385   2.954  11.273 -0.6951 -3.3439  0.2859
  439MOL0     H57948   2.442   2.747  11.158  1.1539 -0.9079 -2.1359
  440MOL0     O57949   2.845   2.646   1.040 -0.7263  0.9808 -0.0195
  440MOL0     C57950   2.731   2.693   1.036  0.8775 -0.2139  0.7422
  440MOL0     O57951   2.616   2.624   1.087  0.7721 -0.4599  0.6759
  440MOL0     C57952   2.631   2.517   1.172 -0.1579 -0.5086 -0.3261
  440MOL0     C57953   2.591   2.400   1.129  1.0807  0.5209 -0.1169
  440MOL0     C57954   2.613   2.283   1.205 -0.3376 -0.6677  0.7705
  440MOL0     C57955   2.664   2.291   1.333  0.0274  0.1992 -0.8929
  440MOL0     O57956   2.697   2.187   1.407 -0.2533 -0.3525 -0.5717
  440MOL0     C57957   2.706   2.054   1.347  1.5403  0.2268 -0.7804
  440MOL0     C57958   2.815   2.029   1.242  0.3715  0.6658  0.6821
  440MOL0     C57959   2.956   2.047   1.291  0.6716  0.5145  0.1916
  440MOL0     C57960   3.065   2.050   1.188 -1.3633 -0.9105  0.8387
  440MOL0     C57961   3.206   2.028   1.245  0.7026 -0.3569 -0.7133
  440MOL0     C57962   3.221   1.900   1.323 -0.7924  0.0766  0.3222
  440MOL0     C57963   3.374   1.865   1.348 -0.5878 -0.4480  1.2445
  440MOL0     C57964   3.407   1.771   1.463 -0.1498  0.1970  0.6091
  440MOL0     N57965   3.426   1.847   1.594  0.1117  0.1830 -0.0584
  440MOL0     C57966   3.545   1.875   1.652  0.0211 -0.7341 -0.4842
  440MOL0     C57967   3.510   1.928   1.773 -0.8593 -1.2241 -0.2956
  440MOL0     C57968   3.599   1.994   1.874 -0.8095 -0.0984 -0.9377
  440MOL0     C57969   3.649   1.891   1.982  0.0429  0.2451  0.7682
  440MOL0     C57970   3.747   1.963   2.077 -0.2725 -0.8233  0.7004
  440MOL0     C57971   3.700   2.068   2.166  0.8458 -0.3320 -1.2993
  440MOL0     O57972   3.567   2.047   2.220 -0.2007 -0.1826  0.7550
  440MOL0     C57973   3.488   2.155   2.245 -0.7305 -0.0652 -0.4863
  440MOL0     C57974   3.416   2.224   2.149 -0.7475 -0.1264 -0.1620
  440MOL0     C57975   3.334   2.331   2.173 -0.1185  0.8121 -1.0500
  440MOL0     C57976   3.310   2.365   2.313 -0.1948 -0.9340 -0.9301
  440MOL0     C57977   3.195   2.453   2.351 -0.7755  0.3391  0.2485
  440MOL0     O57978   3.131   2.517   2.245  0.4969  0.5429 -0.1655
  440MOL0     C57979   3.011   2.593   2.268  0.2983 -0.2861  0.4277
  440MOL0     C57980   2.979   2.693   2.167  1.3886  0.1336  0.5164
  440MOL0     C57981   2.864   2.776   2.180  0.4429 -0.5837 -0.3171
  440MOL0     C57982   2.780   2.759   2.286  0.9668  0.8583 -1.0090
  440MOL0     O57983   2.673   2.844   2.300 -0.5070  0.1185 -0.5728
  440MOL0     C57984   2.707   2.983   2.326 -0.3340  1.0820 -0.5233
  440MOL0     C57985   2.797   2.990   2.449  1.2726  0.3444 -0.1172
  440MOL0     C57986   2.792   3.130   2.512 -0.4406 -0.1502  0.5002
  440MOL0     C57987   2.646   3.176   2.552  0.2969 -0.4954  0.4044
  440MOL0     C57988   2.654   3.282   2.655  0.4851  0.5488 -0.2667
  440MOL0     C57989   2.703   3.412   2.597 -0.1084 -0.0894  0.0106
  440MOL0     C57990   2.642   3.464   2.463  0.2858 -1.5143  0.0932
  440MOL0     C57991   2.707   3.600   2.437 -0.1465 -0.2788 -0.5593
  440MOL0    Cl57992   2.615   3.721   2.526 -0.7594 -0.1453  0.4629
  440MOL0     C57993   2.815   2.666   2.389 -0.1356  0.0694 -0.2711
  440MOL0     C57994   2.925   2.584   2.378 -0.0691  0.7582  0.6346
  440MOL0     O57995   3.178   2.478   2.470 -0.0277 -0.1822  0.0859
  440MOL0     C57996   3.374   2.290   2.414 -0.7470 -0.0009  0.4552
  440MOL0     C57997   3.465   2.186   2.380  0.3315  0.2781 -0.4789
  440MOL0     N57998   3.372   1.930   1.791 -0.1635  0.9999  0.4591
  440MOL0     N57999   3.328   1.888   1.674 -1.1966  0.5594  0.1928
  440MOL0     C58000   2.695   2.424   1.381 -0.0333  1.3171 -0.1421
  440MOL0     C58001   2.680   2.541   1.303  0.0405  0.3241  0.0421
  440MOL0     C58002   2.705   2.828   0.981  0.4451 -0.3208 -0.0794
  440MOL0     C58003   2.805   2.918   0.961 -0.4424  0.9977  0.1246
  440MOL0     C58004   2.781   3.047   0.937 -0.3129  0.4208  0.3132
  440MOL0     C58005   2.643   3.087   0.914 -0.0213  0.0561 -0.4003
  440MOL0     O58006   2.610   3.214   0.873 -0.3711 -0.8982 -0.2286
  440MOL0     C58007   2.619   3.303   0.984  0.9573 -0.2958 -0.1880
  440MOL0     C58008   2.649   3.444   0.943 -0.6300  0.3644  0.4263
  440MOL0     C58009   2.535   3.531   0.894  0.6949 -0.4228  0.0229
  440MOL0     C58010   2.449   3.460   0.782  0.8171  0.7170  0.4462
  440MOL0     C58011   2.508   3.459   0.648  0.2291 -0.3030 -0.1722
  440MOL0     C58012   2.560   3.465   0.538  0.1309 -0.6475  0.1091
  440MOL0     C58013   2.540   2.997   0.935  0.1169  0.0615 -0.3366
  440MOL0     C58014   2.572   2.869   0.971  0.5417 -0.0657  0.0956
  440MOL0     H58015   2.552   2.396   1.027  3.4804 -2.4241 -1.0760
  440MOL0     H58016   2.566   2.197   1.158 -1.1087 -0.7660  1.6850
  440MOL0     H58017   2.602   2.033   1.321  0.5844  1.2507  1.8288
  440MOL0     H58018   2.728   1.990   1.434  0.2148  1.8558  0.8175
  440MOL0     H58019   2.804   2.101   1.161  1.5084 -3.0574 -3.1774
  440MOL0     H58020   2.809   1.938   1.182  2.2470  1.9924 -1.7005
  440MOL0     H58021   2.974   1.960   1.355 -0.5643 -0.0347 -0.1835
  440MOL0     H58022   2.953   2.139   1.351 -1.2348 -1.1987  3.0116
  440MOL0     H58023   3.062   1.971   1.112  0.8682  1.2252 -1.6457
  440MOL0     H58024   3.064   2.147   1.138 -1.0611 -1.0631  0.5273
  440MOL0     H58025   3.224   2.102   1.324  2.8077 -2.4727  0.9189
  440MOL0     H58026   3.284   2.029   1.169  1.4549 -0.4532  0.0419
  440MOL0     H58027   3.172   1.822   1.264  0.4078  0.2631 -0.9548
  440MOL0     H58028   3.171   1.908   1.420 -2.7017  1.3043 -0.6999
  440MOL0     H58029   3.423   1.830   1.256 -1.2731  1.7698 -0.0515
  440MOL0     H58030   3.431   1.952   1.382 -0.6986 -0.3214  1.1065
  440MOL0     H58031   3.496   1.718   1.428  1.6506  2.8312  0.9172
  440MOL0     H58032   3.329   1.696   1.479  0.8233 -1.5467 -1.9658
  440MOL0     H58033   3.643   1.855   1.611  0.4771  2.7643 -1.4117
  440MOL0     H58034   3.536   2.076   1.910  0.2252  1.2698 -2.1064
  440MOL0     H58035   3.679   2.031   1.809  0.2263 -2.8768 -1.3861
  440MOL0     H58036   3.693   1.807   1.929 -0.0986 -0.4348  1.7067
  440MOL0     H58037   3.557   1.858   2.032  0.6001 -2.1036  0.3442
  440MOL0     H58038   3.785   1.888   2.147 -0.3454 -0.5647  1.0223
  440MOL0     H58039   3.831   2.005   2.020 -0.9733 -0.2911  0.0353
  440MOL0     H58040   3.693   2.158   2.104  0.2691 -1.4709 -2.9695
  440MOL0     H58041   3.765   2.093   2.250 -0.6224  2.7448 -0.9607
  440MOL0     H58042   3.425   2.203   2.043  0.4514 -0.3285 -0.0376
  440MOL0     H58043   3.268   2.369   2.096 -0.9005  1.8593  0.0904
  440MOL0     H58044   3.022   2.692   2.067 -4.0629  2.7354 -2.3259
  440MOL0     H58045   2.837   2.840   2.095  2.2602  1.7574  0.7513
  440MOL0     H58046   2.607   3.029   2.325 -1.8556 -1.9203 -2.0558
  440MOL0     H58047   2.770   3.024   2.246  1.5880  1.8482  1.2852
  440MOL0     H58048   2.902   2.977   2.421  0.9160  0.6750 -1.7104
  440MOL0     H58049   2.756   2.920   2.522 -0.8289  0.5102 -1.0699
  440MOL0     H58050   2.825   3.201   2.435 -0.1570  0.0372  0.7975
  440MOL0     H58051   2.858   3.129   2.598  0.6098  0.1378 -0.2788
  440MOL0     H58052   2.591   3.217   2.467  0.7684 -0.6364  0.0262
  440MOL0     H58053   2.583   3.099   2.598 -0.5025  0.9479  1.8333
  440MOL0     H58054   2.730   3.246   2.725 -0.1135 -1.8662 -0.7830
  440MOL0     H58055   2.562   3.290   2.713 -0.5605 -2.6020 -1.3368
  440MOL0     H58056   2.810   3.399   2.578  0.2417  1.1396  0.9614
  440MOL0     H58057   2.700   3.497   2.667 -2.5042  1.0977 -1.3906
  440MOL0     H58058   2.641   3.391   2.381 -3.8284 -0.1703 -1.2885
  440MOL0     H58059   2.537   3.486   2.484  0.8247  1.8415 -0.2160
  440MOL0     H58060   2.704   3.621   2.330  1.7934 -1.2712 -0.8385
  440MOL0     H58061   2.814   3.598   2.458 -0.3710 -0.8937  0.6236
  440MOL0     H58062   2.766   2.652   2.485 -0.1302  1.0168 -0.1193
  440MOL0     H58063   2.936   2.503   2.449  0.8787 -1.2183 -1.6181
  440MOL0     H58064   3.351   2.313   2.518 -3.5797  1.5467 -0.3960
  440MOL0     H58065   3.526   2.139   2.457 -0.1833  0.3610 -0.0161
  440MOL0     H58066   2.743   2.437   1.478 -0.7065  2.2470  0.0812
  440MOL0     H58067   2.703   2.639   1.343 -4.8714  2.0946 -0.6891
  440MOL0     H58068   2.907   2.882   0.970 -0.8817 -0.5043 -0.6435
  440MOL0     H58069   2.866   3.114   0.947  0.9677 -1.4312  3.2276
  440MOL0     H58070   2.691   3.277   1.061  1.9170  0.7285 -0.7150
  440MOL0     H58071   2.526   3.307   1.041  0.9675  4.2825 -0.1425
  440MOL0     H58072   2.689   3.500   1.029 -0.4739  1.3411 -0.2618
  440MOL0     H58073   2.722   3.432   0.862 -0.7433  0.4527  0.3110
  440MOL0     H58074   2.580   3.621   0.853  0.6591 -1.1940 -1.7806
  440MOL0     H58075   2.474   3.565   0.978  3.0565 -0.1893  1.7459
  440MOL0     H58076   2.425   3.359   0.816  0.4317 -0.4650 -2.9911
  440MOL0     H58077   2.350   3.507   0.774  0.4350  0.1868  1.7432
  440MOL0     H58078   2.615   3.485   0.448  2.3106  0.2873  1.5736
  440MOL0     H58079   2.442   3.039   0.916 -1.6985 -3.1489  1.1651
  440MOL0     H58080   2.482   2.816   1.002  0.2220  0.5652  0.2636
  441MOL0     O58081   2.901   4.477   3.554  0.0687 -0.9979  0.5646
  441MOL0     C58082   2.838   4.413   3.635  0.6436 -1.0291  0.7209
  441MOL0     O58083   2.723   4.453   3.685  0.6386 -0.0387 -1.1819
  441MOL0     C58084   2.709   4.584   3.694 -0.0323  0.2858 -0.2304
  441MOL0     C58085   2.672   4.663   3.588  0.6779 -0.4860 -0.1780
  441MOL0     C58086   2.675   4.800   3.601  1.3983 -0.0457 -0.4921
  441MOL0     C58087   2.704   4.867   3.724 -0.0513  0.6010 -0.8821
  441MOL0     O58088   2.703   4.999   3.757 -0.4792  0.7547  0.3173
  441MOL0     C58089   2.636   5.098   3.678 -0.8822 -0.1624 -0.0979
  441MOL0     C58090   2.578   5.208   3.775  0.3578 -0.0682 -0.1196
  441MOL0     C58091   2.523   5.342   3.725 -0.0276 -0.4103  1.1306
  441MOL0     C58092   2.413   5.324   3.620  0.8179 -0.0830  0.3322
  441MOL0     C58093   2.367   5.457   3.575 -0.1719 -0.0614 -0.4571
  441MOL0     C58094   2.285   5.533   3.680 -0.2447 -0.9838 -0.3666
  441MOL0     C58095   2.217   5.658   3.629  0.3716 -1.0087 -0.2738
  441MOL0     C58096   2.144   5.734   3.746  0.4665 -0.7284  0.1262
  441MOL0     N58097   2.053   5.830   3.693 -0.1440 -0.6071 -0.7817
  441MOL0     C58098   2.069   5.911   3.586  0.2798  0.3773  0.3242
  441MOL0     C58099   1.983   6.017   3.604 -0.5268  0.1762  0.4053
  441MOL0     C58100   1.963   6.133   3.514 -1.1033  0.2910 -0.3878
  441MOL0     C58101   1.816   6.178   3.504  0.3810  0.6462  0.6241
  441MOL0     C58102   1.801   6.323   3.441 -0.6464  0.5816 -0.2611
  441MOL0     C58103   1.660   6.329   3.390  0.2088 -0.4619 -0.2050
  441MOL0     O58104   1.655   6.256   3.263 -0.5634 -0.0519 -0.8929
  441MOL0     C58105   1.529   6.229   3.217 -0.2811  0.1892 -0.1977
  441MOL0     C58106   1.412   6.265   3.275  0.9212  0.3298  0.2823
  441MOL0     C58107   1.284   6.224   3.220 -1.2031  0.4695  0.5192
  441MOL0     C58108   1.274   6.149   3.099 -0.7216  0.0383  0.5421
  441MOL0     C58109   1.149   6.107   3.033  0.0528 -0.5213  0.2372
  441MOL0     O58110   1.028   6.163   3.075 -0.1524  0.1560  0.1146
  441MOL0     C58111   0.912   6.097   3.042 -0.0345 -0.4689  0.0991
  441MOL0     C58112   0.823   6.076   3.155 -0.2423  0.1298 -0.1817
  441MOL0     C58113   0.696   6.021   3.135 -0.1427 -0.7408 -0.6597
  441MOL0     C58114   0.658   5.986   3.007  0.0347  0.2931  0.4343
  441MOL0     O58115   0.547   5.916   2.975 -0.1043 -0.6831  0.3072
  441MOL0     C58116   0.426   5.983   3.027 -1.2908 -0.8657 -0.1433
  441MOL0     C58117   0.317   5.976   2.915  0.1471 -0.4825  0.3601
  441MOL0     C58118   0.351   6.047   2.790  0.8961 -0.0300 -0.3864
  441MOL0     C58119   0.226   6.071   2.698  0.2865  0.8271  0.2314
  441MOL0     C58120   0.116   6.160   2.763 -0.1952  0.2712 -0.2849
  441MOL0     C58121   0.000   6.181   2.670 -1.0115 -0.0357 -0.4143
  441MOL0     C58122   0.038   6.230   2.523  0.2814 -0.4570  0.4404
  441MOL0     C58123   0.096   6.372   2.527  0.1061 -0.4694 -0.1169
  441MOL0    Cl58124  -0.000   6.483   2.435 -0.2755  0.0419 -0.1855
  441MOL0     C58125   0.744   6.018   2.903 -0.4999  0.3124  0.1671
  441MOL0     C58126   0.867   6.076   2.919 -1.1228  0.2116 -0.0788
  441MOL0     O58127   1.154   6.027   2.942  0.3228  0.4435  0.4450
  441MOL0     C58128   1.401   6.127   3.034  0.0786  0.0023  0.0371
  441MOL0     C58129   1.526   6.159   3.099  0.5023  0.6060 -0.1483
  441MOL0     N58130   1.928   6.005   3.730  0.2935 -0.5398  0.0017
  441MOL0     N58131   1.967   5.890   3.778  0.5598  0.0078 -0.3013
  441MOL0     C58132   2.744   4.785   3.833  0.0318  0.1574  0.3837
  441MOL0     C58133   2.756   4.646   3.815  0.6409  0.2455 -0.6183
  441MOL0     C58134   2.882   4.270   3.639  0.3136 -0.1771  0.1008
  441MOL0     C58135   2.990   4.218   3.564  0.6718 -0.7747 -0.1173
  441MOL0     C58136   3.028   4.081   3.574  0.3565 -0.3918  0.5492
  441MOL0     C58137   2.964   3.997   3.665 -0.4559  1.6139 -0.0208
  441MOL0     O58138   3.003   3.863   3.677 -0.0373 -0.9931  0.2621
  441MOL0     C58139   3.066   3.789   3.573 -0.1462  0.0616 -0.4133
  441MOL0     C58140   3.059   3.642   3.611  0.4189  0.5311  0.3633
  441MOL0     C58141   3.154   3.566   3.518 -0.1647  1.2631  1.2500
  441MOL0     C58142   3.096   3.522   3.386 -0.3087 -0.2120 -0.6082
  441MOL0     C58143   3.163   3.607   3.282 -0.0423  0.7624  0.6577
  441MOL0     C58144   3.232   3.679   3.206 -0.0594  0.5349 -0.2666
  441MOL0     C58145   2.850   4.046   3.733 -0.2023 -0.4323 -0.2417
  441MOL0     C58146   2.819   4.183   3.720  0.2756 -0.2028  0.1097
  441MOL0     H58147   2.653   4.619   3.490  1.7371 -2.0471  0.2836
  441MOL0     H58148   2.661   4.857   3.510 -0.0366 -0.5772 -0.6314
  441MOL0     H58149   2.550   5.052   3.629 -0.1329  0.8550 -2.4891
  441MOL0     H58150   2.699   5.158   3.612 -0.7855  4.0674  3.4125
  441MOL0     H58151   2.655   5.227   3.850 -0.4714 -1.3343  1.1005
  441MOL0     H58152   2.500   5.178   3.846 -0.8899  3.3113  0.1230
  441MOL0     H58153   2.610   5.387   3.676 -1.1544  0.1909 -0.4302
  441MOL0     H58154   2.487   5.403   3.809 -0.7871  1.4126 -0.4269
  441MOL0     H58155   2.439   5.254   3.540 -0.0945  1.7806 -1.7143
  441MOL0     H58156   2.328   5.282   3.675 -0.6834  1.3190 -0.8272
  441MOL0     H58157   2.297   5.451   3.491  0.2659  2.1985 -1.0534
  441MOL0     H58158   2.454   5.517   3.548  1.4927 -1.1027  2.2664
  441MOL0     H58159   2.348   5.560   3.765  1.5660 -1.1454 -1.5852
  441MOL0     H58160   2.200   5.473   3.714 -0.2663 -2.0580 -2.1772
  441MOL0     H58161   2.303   5.716   3.594  1.3691 -0.8155  2.3446
  441MOL0     H58162   2.143   5.622   3.556 -0.3780 -1.1251  0.5333
  441MOL0     H58163   2.226   5.783   3.799  1.3891 -0.0091 -1.8850
  441MOL0     H58164   2.079   5.676   3.812  1.7384 -1.6413  0.5982
  441MOL0     H58165   2.128   5.904   3.495 -3.3307 -0.9412 -2.1345
  441MOL0     H58166   2.010   6.109   3.418  0.3717 -1.2966  0.6612
  441MOL0     H58167   2.028   6.209   3.559  0.8195 -1.3433 -0.2484
  441MOL0     H58168   1.768   6.186   3.601 -1.2449  1.6154 -0.2161
  441MOL0     H58169   1.757   6.115   3.437 -1.6263  2.7511  0.2845
  441MOL0     H58170   1.809   6.397   3.521 -1.3556  1.8765 -1.3626
  441MOL0     H58171   1.879   6.340   3.366 -0.5287 -1.1081 -0.5628
  441MOL0     H58172   1.621   6.431   3.392  0.0956 -0.4073 -2.4755
  441MOL0     H58173   1.606   6.276   3.469 -0.7889  1.8354  0.7424
  441MOL0     H58174   1.410   6.323   3.367  1.6287  1.4173 -0.3612
  441MOL0     H58175   1.194   6.252   3.274 -0.9361  1.4027  0.4955
  441MOL0     H58176   0.869   6.103   3.250 -0.5921 -2.7479  0.9141
  441MOL0     H58177   0.640   6.002   3.226  4.9286 -2.1901  2.5599
  441MOL0     H58178   0.427   6.091   3.041  0.2477 -0.8775  0.0155
  441MOL0     H58179   0.394   5.930   3.118 -3.2248  1.8724  0.9055
  441MOL0     H58180   0.237   6.023   2.972  0.4031  0.3866  0.0168
  441MOL0     H58181   0.297   5.871   2.889 -1.6785 -0.0070 -0.3663
  441MOL0     H58182   0.429   5.994   2.735 -0.8758 -1.6990 -1.4421
  441MOL0     H58183   0.391   6.145   2.820 -1.0263  0.4533  0.7569
  441MOL0     H58184   0.264   6.127   2.612 -1.4274  1.7620  0.0412
  441MOL0     H58185   0.178   5.976   2.673 -1.2614  1.5951  0.1537
  441MOL0     H58186   0.162   6.255   2.791  0.4139 -0.7515  2.5166
  441MOL0     H58187   0.083   6.112   2.855  2.2782 -0.0147  0.5342
  441MOL0     H58188  -0.059   6.265   2.708 -0.0015  0.9020 -0.8699
  441MOL0     H58189  -0.060   6.090   2.664 -0.6771 -0.3520  0.6937
  441MOL0     H58190   0.115   6.166   2.480  0.2425 -0.4243  0.3220
  441MOL0     H58191  -0.042   6.228   2.448  0.1579 -0.8586  0.5802
  441MOL0     H58192   0.198   6.349   2.493 -0.8470 -1.3189 -2.6313
  441MOL0     H58193   0.096   6.402   2.632 -2.4276 -3.7894  1.0373
  441MOL0     H58194   0.714   5.994   2.802 -0.9109 -1.9488  0.7593
  441MOL0     H58195   0.932   6.085   2.832 -2.0271 -3.6931 -1.3556
  441MOL0     H58196   1.414   6.065   2.946  2.7828  0.1994  0.1875
  441MOL0     H58197   1.608   6.115   3.043  1.0629  0.4843  0.7477
  441MOL0     H58198   2.764   4.839   3.925  1.7298  0.9366 -0.3918
  441MOL0     H58199   2.796   4.584   3.895  2.0612 -1.7936 -2.7611
  441MOL0     H58200   3.042   4.279   3.492 -3.2714 -0.1361 -2.7146
  441MOL0     H58201   3.120   4.048   3.527  0.8199  1.3673  0.1127
  441MOL0     H58202   3.166   3.833   3.567  0.4512 -1.1917 -0.0264
  441MOL0     H58203   3.023   3.810   3.475 -0.2817  1.3775 -0.0897
  441MOL0     H58204   3.081   3.634   3.717 -0.4040  1.2433  0.6057
  441MOL0     H58205   2.953   3.624   3.587  0.5997 -0.4754  0.2756
  441MOL0     H58206   3.194   3.476   3.566 -1.6544  0.2002  0.5969
  441MOL0     H58207   3.238   3.632   3.494  0.8383 -0.4234 -0.1696
  441MOL0     H58208   3.108   3.414   3.378  2.1291 -0.0602  0.0796
  441MOL0     H58209   2.989   3.536   3.371 -0.7853 -3.7960 -1.2504
  441MOL0     H58210   3.296   3.750   3.159 -0.7693  3.5420  2.9018
  441MOL0     H58211   2.798   3.982   3.803  0.8327 -1.6092 -0.5010
  441MOL0     H58212   2.737   4.231   3.772  0.3320  2.8164 -2.3619
  442MOL0     O58213   8.847  10.793   9.088  0.3607  0.7484  0.6652
  442MOL0     C58214   8.904  10.874   9.158 -0.7210 -0.4402  0.4685
  442MOL0     O58215   8.981  10.849   9.268  0.3994 -0.3096  0.6117
  442MOL0     C58216   9.011  10.730   9.319 -0.3885 -0.4716  0.1099
  442MOL0     C58217   9.035  10.738   9.459 -0.9854  0.4497  0.3333
  442MOL0     C58218   9.044  10.619   9.537 -0.0448  0.3388  0.3150
  442MOL0     C58219   9.030  10.492   9.485 -0.3154  0.0669 -0.6008
  442MOL0     O58220   9.043  10.380   9.575  0.5887 -0.5071 -0.3691
  442MOL0     C58221   9.030  10.248   9.514 -0.0907  0.3599  0.2311
  442MOL0     C58222   9.030  10.148   9.629  0.0248 -0.4022 -0.6175
  442MOL0     C58223   9.090  10.015   9.583  0.2119 -0.0776  0.3070
  442MOL0     C58224   9.147   9.930   9.693  0.0857  0.3055 -1.1012
  442MOL0     C58225   9.042   9.846   9.768 -0.0493  0.2825  0.5403
  442MOL0     C58226   9.085   9.751   9.872  1.1427 -0.1260  0.3138
  442MOL0     C58227   9.174   9.821   9.973  0.0281 -1.6033 -0.0578
  442MOL0     C58228   9.167   9.752  10.112 -0.0708  0.5241  0.2979
  442MOL0     N58229   9.267   9.799  10.203  0.6153 -0.2468  0.2387
  442MOL0     C58230   9.289   9.934  10.241  0.0012 -0.3272 -1.5684
  442MOL0     C58231   9.374   9.908  10.349  0.9055 -0.1871  0.8877
  442MOL0     C58232   9.433  10.028  10.432 -0.3022  0.7577 -0.3869
  442MOL0     C58233   9.379  10.172  10.424  0.1644  0.4272  0.1830
  442MOL0     C58234   9.246  10.183  10.509 -1.0839  0.8594 -0.2063
  442MOL0     C58235   9.182  10.314  10.523 -0.9174  0.1162 -0.4592
  442MOL0     O58236   9.135  10.369  10.401 -0.1917 -0.9241  0.2509
  442MOL0     C58237   9.133  10.503  10.397  0.1938 -0.4814  0.9850
  442MOL0     C58238   9.024  10.570  10.444  0.3819  0.2799 -0.0634
  442MOL0     C58239   9.012  10.713  10.420 -0.6349  0.2585  0.1444
  442MOL0     C58240   9.114  10.787  10.356 -0.3404 -0.3730  0.6431
  442MOL0     C58241   9.098  10.941  10.327 -0.3574  0.0285 -0.2188
  442MOL0     O58242   9.201  10.995  10.246  0.6939  0.7591  0.4443
  442MOL0     C58243   9.197  11.132  10.245 -0.7920  0.0356 -0.1846
  442MOL0     C58244   9.312  11.208  10.295 -0.5832 -0.0942 -0.3419
  442MOL0     C58245   9.316  11.349  10.284 -0.3511  1.1932  0.3004
  442MOL0     C58246   9.206  11.423  10.232  0.4680  0.4066  0.6660
  442MOL0     O58247   9.229  11.559  10.220 -0.3753 -0.4279 -0.4627
  442MOL0     C58248   9.124  11.634  10.155 -0.5977 -0.6559 -0.9690
  442MOL0     C58249   9.152  11.668  10.006  1.6272  0.0694 -0.3603
  442MOL0     C58250   9.148  11.826   9.980 -0.6317 -0.5248  0.3550
  442MOL0     C58251   9.270  11.882  10.049  0.6799 -0.6204  0.5254
  442MOL0     C58252   9.278  12.040  10.025  0.0317  0.0077 -0.3610
  442MOL0     C58253   9.327  12.079   9.890  0.0691  0.7310  0.3280
  442MOL0     C58254   9.342  12.221   9.869 -0.6299 -0.2395  0.0874
  442MOL0     C58255   9.209  12.303   9.849 -0.1640 -0.6500 -0.4140
  442MOL0    Cl58256   9.263  12.458   9.787 -0.0662 -0.1164  0.1089
  442MOL0     C58257   9.089  11.348  10.187 -0.9646  0.5226 -0.1654
  442MOL0     C58258   9.092  11.208  10.181 -0.6514  0.5975  0.3104
  442MOL0     O58259   8.998  11.007  10.374  0.4545  0.4206 -0.4672
  442MOL0     C58260   9.213  10.710  10.298  0.6468 -0.6648 -0.0286
  442MOL0     C58261   9.224  10.575  10.314 -0.3382 -0.2298 -1.2516
  442MOL0     N58262   9.412   9.772  10.357 -0.2752  0.7668  1.0172
  442MOL0     N58263   9.351   9.711  10.270 -0.6146 -0.6084  0.6517
  442MOL0     C58264   9.007  10.484   9.347  0.0083 -0.5010  0.8303
  442MOL0     C58265   9.001  10.603   9.266 -0.9980  0.0318 -0.4365
  442MOL0     C58266   8.881  11.015   9.124  0.5766 -1.1193 -0.2218
  442MOL0     C58267   8.757  11.056   9.060 -0.3719 -0.2733  0.1836
  442MOL0     C58268   8.736  11.191   9.037 -0.3943  0.6845  0.5190
  442MOL0     C58269   8.825  11.291   9.068  0.0775  0.2101  0.3952
  442MOL0     O58270   8.806  11.421   9.032 -0.0609  0.1009 -0.1014
  442MOL0     C58271   8.668  11.468   9.009  0.4094 -0.1148  0.0060
  442MOL0     C58272   8.645  11.619   9.027 -0.3671 -0.8290  0.1434
  442MOL0     C58273   8.497  11.664   9.013 -0.6930 -0.4428  0.0451
  442MOL0     C58274   8.411  11.631   9.131  0.4276 -0.2335 -0.4414
  442MOL0     C58275   8.466  11.667   9.258 -0.1983 -0.1951 -0.3091
  442MOL0     C58276   8.496  11.696   9.371  0.1622  0.7918 -0.1481
  442MOL0     C58277   8.947  11.250   9.118 -0.1464  0.5818 -0.5927
  442MOL0     C58278   8.979  11.113   9.143 -0.5538  0.0858 -1.0081
  442MOL0     H58279   9.050  10.830   9.514 -0.7657  0.5984  0.0298
  442MOL0     H58280   9.072  10.631   9.641  1.8852 -1.8707  0.1498
  442MOL0     H58281   9.105  10.232   9.437  1.5973  1.4438  1.5717
  442MOL0     H58282   8.934  10.237   9.464  0.6421 -2.6527 -0.6563
  442MOL0     H58283   8.928  10.142   9.670 -0.2014 -3.1035 -1.3971
  442MOL0     H58284   9.091  10.183   9.712 -1.3585 -0.8156  0.6283
  442MOL0     H58285   9.172  10.036   9.513  0.4220  1.1430  0.8935
  442MOL0     H58286   9.007   9.971   9.528  0.7825 -0.2452 -0.4427
  442MOL0     H58287   9.202   9.857   9.633 -0.7641 -1.1812 -0.1351
  442MOL0     H58288   9.210   9.994   9.756 -2.3821  2.3194 -0.4903
  442MOL0     H58289   8.996   9.778   9.695 -1.0081 -0.0282  1.4088
  442MOL0     H58290   8.973   9.917   9.815  0.6102  1.3629 -0.0885
  442MOL0     H58291   9.120   9.655   9.833  1.0826  0.1281 -0.3826
  442MOL0     H58292   8.999   9.724   9.934  2.1823  0.4861  2.0736
  442MOL0     H58293   9.273   9.825   9.927 -0.5985  3.2768 -1.5531
  442MOL0     H58294   9.144   9.926   9.978 -1.9141 -1.8285 -3.7250
  442MOL0     H58295   9.177   9.644  10.096  0.1718  0.3363  1.6193
  442MOL0     H58296   9.071   9.757  10.164  0.1575 -0.6704  0.8611
  442MOL0     H58297   9.244  10.031  10.223 -0.2449  0.9918  4.0485
  442MOL0     H58298   9.534  10.047  10.393 -0.7531  2.9744 -0.6056
  442MOL0     H58299   9.447  10.006  10.538  3.2657  0.4316 -0.7964
  442MOL0     H58300   9.356  10.207  10.323  0.2649 -2.2506 -0.8326
  442MOL0     H58301   9.453  10.241  10.464  0.7167 -1.5977  2.9421
  442MOL0     H58302   9.184  10.116  10.449  0.1357  0.8871 -1.5578
  442MOL0     H58303   9.260  10.153  10.612  0.8408  2.0914 -0.0681
  442MOL0     H58304   9.254  10.377  10.577  0.0092  0.4081 -1.9722
  442MOL0     H58305   9.094  10.294  10.584  1.0222 -2.2991  1.8331
  442MOL0     H58306   8.940  10.515  10.484 -0.2308  1.5674  0.4862
  442MOL0     H58307   8.928  10.771  10.456 -0.4123 -0.1268  1.3062
  442MOL0     H58308   9.402  11.166  10.338 -0.5876  2.6790  2.6919
  442MOL0     H58309   9.409  11.400  10.306 -0.5946  3.1656 -2.7023
  442MOL0     H58310   9.116  11.726  10.214 -1.8057 -1.5065  0.2804
  442MOL0     H58311   9.024  11.590  10.157 -0.8429 -0.0983 -0.2476
  442MOL0     H58312   9.076  11.621   9.942 -0.2979  3.6136 -0.9430
  442MOL0     H58313   9.250  11.633   9.973  1.9681  0.0045  0.6892
  442MOL0     H58314   9.057  11.858  10.030  0.7211 -1.7171  3.8967
  442MOL0     H58315   9.161  11.846   9.873  2.9517  2.9394  1.2181
  442MOL0     H58316   9.268  11.855  10.155 -1.8699  0.3547  0.8163
  442MOL0     H58317   9.349  11.822  10.003 -2.0507 -3.4587 -0.9072
  442MOL0     H58318   9.349  12.079  10.099 -0.3322 -0.4049  0.2125
  442MOL0     H58319   9.186  12.093  10.048  1.7464  2.2482  1.8836
  442MOL0     H58320   9.259  12.043   9.812  2.3928 -1.2770 -0.9423
  442MOL0     H58321   9.421  12.028   9.866 -0.6955 -1.4799  1.7183
  442MOL0     H58322   9.400  12.279   9.940  1.3933 -2.0188 -0.0072
  442MOL0     H58323   9.402  12.223   9.778  1.2529  0.4633  1.2997
  442MOL0     H58324   9.152  12.308   9.942  1.3590 -0.4572  0.5324
  442MOL0     H58325   9.150  12.254   9.771  0.1957 -1.1612 -0.3680
  442MOL0     H58326   8.997  11.395  10.154 -2.6621 -2.1944  0.3587
  442MOL0     H58327   9.004  11.160  10.139 -0.2280  1.1319 -1.2605
  442MOL0     H58328   9.301  10.753  10.251 -0.7161  0.1043 -2.0105
  442MOL0     H58329   9.315  10.535  10.271  1.9387  2.3754  0.7871
  442MOL0     H58330   8.994  10.386   9.302 -1.1168 -0.6062  1.3289
  442MOL0     H58331   8.996  10.598   9.158  2.0183  2.2304 -0.8168
  442MOL0     H58332   8.673  10.990   9.040  0.8920 -2.0239  0.3795
  442MOL0     H58333   8.647  11.216   8.979 -1.7847  0.2273  2.3425
  442MOL0     H58334   8.602  11.412   9.077 -0.7819 -0.2780 -1.2365
  442MOL0     H58335   8.628  11.444   8.910 -1.1985 -2.2011  1.0597
  442MOL0     H58336   8.692  11.650   9.120  2.5367 -1.8099 -0.8879
  442MOL0     H58337   8.709  11.671   8.955  1.0063 -1.9741  0.4984
  442MOL0     H58338   8.447  11.619   8.927 -1.8789 -0.9834  0.9770
  442MOL0     H58339   8.504  11.773   9.008  1.6190 -0.5409  0.1949
  442MOL0     H58340   8.314  11.681   9.122  0.8777  0.8525  0.4792
  442MOL0     H58341   8.385  11.525   9.134 -0.5293 -0.1080 -2.6734
  442MOL0     H58342   8.518  11.747   9.463 -3.7322  1.9296  0.3253
  442MOL0     H58343   9.022  11.328   9.134  1.5679 -1.1754  0.4277
  442MOL0     H58344   9.079  11.088   9.180 -1.2942  1.2194  2.0658
  443MOL0     O58345   6.840  10.426   9.979  0.5310 -0.4893  0.3215
  443MOL0     C58346   6.724  10.389   9.984  0.5875 -0.4809  0.2777
  443MOL0     O58347   6.653  10.371   9.869  0.1666  0.5646 -1.0092
  443MOL0     C58348   6.721  10.373   9.758 -0.5368  0.4902 -0.5191
  443MOL0     C58349   6.792  10.258   9.726 -0.1873  0.5076 -0.6367
  443MOL0     C58350   6.858  10.245   9.603  0.0119 -0.5153  0.6990
  443MOL0     C58351   6.828  10.332   9.498  0.3215 -0.0248 -0.0657
  443MOL0     O58352   6.848  10.305   9.365  0.1413 -0.1552 -0.2718
  443MOL0     C58353   6.982  10.259   9.348  1.1475  1.2250  0.1705
  443MOL0     C58354   7.005  10.277   9.205  1.0569 -0.4710 -0.3542
  443MOL0     C58355   7.124  10.205   9.146  0.6509 -0.4178 -0.3807
  443MOL0     C58356   7.165  10.262   9.007 -0.6075  0.6005 -0.4063
  443MOL0     C58357   7.320  10.236   8.999 -0.1493  0.4312  0.0100
  443MOL0     C58358   7.398  10.350   9.056 -0.0935 -0.0978  0.4727
  443MOL0     C58359   7.544  10.340   9.055 -0.4211 -1.0028  0.3177
  443MOL0     C58360   7.603  10.297   9.190  0.4402 -0.1969 -0.0673
  443MOL0     N58361   7.563  10.158   9.215 -0.4500 -0.0011 -0.3371
  443MOL0     C58362   7.606  10.052   9.134  1.2464  0.5219  0.8556
  443MOL0     C58363   7.565   9.936   9.195  0.4861 -0.6726 -0.4462
  443MOL0     C58364   7.566   9.799   9.130  0.8927  0.2987  0.5135
  443MOL0     C58365   7.469   9.797   9.005 -0.0888 -0.3585 -0.3875
  443MOL0     C58366   7.338   9.719   9.020  0.7735 -0.1875  0.0714
  443MOL0     C58367   7.247   9.770   9.127  0.6834  0.5418 -0.7789
  443MOL0     O58368   7.148   9.669   9.136  0.0930  0.0684  0.5354
  443MOL0     C58369   7.066   9.697   9.246  0.1640  0.1575 -0.6870
  443MOL0     C58370   6.960   9.606   9.249  1.0304 -0.3744 -0.2592
  443MOL0     C58371   6.859   9.619   9.343  0.1524  0.2401  0.0616
  443MOL0     C58372   6.849   9.739   9.426 -0.3271  0.4078  0.4771
  443MOL0     C58373   6.741   9.769   9.520 -0.3637  0.1357  0.2048
  443MOL0     O58374   6.758   9.876   9.599  0.5731 -0.3070  0.4005
  443MOL0     C58375   6.691   9.894   9.721 -0.4728 -0.4416 -0.0616
  443MOL0     C58376   6.757   9.870   9.840 -0.7149  0.7007 -0.2648
  443MOL0     C58377   6.687   9.872   9.967 -0.6095 -0.1720 -0.1700
  443MOL0     C58378   6.551   9.914   9.964 -0.9495 -0.0669  0.8015
  443MOL0     O58379   6.482   9.928  10.088  0.2935 -0.5939  0.0253
  443MOL0     C58380   6.493   9.804  10.163  1.0589  0.1612  0.7391
  443MOL0     C58381   6.370   9.780  10.253  0.2877 -0.0688 -0.0622
  443MOL0     C58382   6.384   9.649  10.339 -0.6452  0.2438 -0.3160
  443MOL0     C58383   6.271   9.603  10.414  0.4984  0.2991 -1.7698
  443MOL0     C58384   6.237   9.706  10.533 -0.8256  0.1702  0.2297
  443MOL0     C58385   6.342   9.698  10.643 -0.2220 -0.3312  0.0155
  443MOL0     C58386   6.304   9.778  10.758 -0.2345  0.0608 -0.5493
  443MOL0     C58387   6.403   9.763  10.871 -1.1316  0.3127 -0.6351
  443MOL0    Cl58388   6.316   9.799  11.024 -0.2848  0.6823 -0.5138
  443MOL0     C58389   6.496   9.946   9.842  0.3667 -0.3604 -0.0578
  443MOL0     C58390   6.563   9.930   9.719 -0.9091  1.1715  0.0966
  443MOL0     O58391   6.653   9.686   9.523 -0.2396  0.0698 -0.5397
  443MOL0     C58392   6.965   9.822   9.423 -0.9139 -0.1569  0.5146
  443MOL0     C58393   7.077   9.797   9.348  0.2277  0.9659  0.0190
  443MOL0     N58394   7.500   9.977   9.312 -1.1496  1.0373 -0.0410
  443MOL0     N58395   7.505  10.105   9.326  0.3967  0.2967 -0.8227
  443MOL0     C58396   6.746  10.439   9.527  0.1575 -0.2655  0.3251
  443MOL0     C58397   6.700  10.465   9.657  0.4898 -0.3139  0.3976
  443MOL0     C58398   6.658  10.346  10.111 -0.7017  0.0422 -0.1750
  443MOL0     C58399   6.545  10.261  10.109  0.2718 -1.1373 -0.2191
  443MOL0     C58400   6.489  10.208  10.220 -0.3325 -0.1296  0.0027
  443MOL0     C58401   6.546  10.237  10.353 -0.2443  0.4099 -0.1925
  443MOL0     O58402   6.500  10.179  10.468 -0.2722 -0.8468  0.1424
  443MOL0     C58403   6.366  10.200  10.492  0.6335  0.5395 -0.6688
  443MOL0     C58404   6.344  10.228  10.640  0.2870 -0.0581 -0.1621
  443MOL0     C58405   6.440  10.158  10.738 -0.1167  0.0487  0.3627
  443MOL0     C58406   6.397  10.182  10.883  0.4440  0.6798  0.0252
  443MOL0     C58407   6.464  10.295  10.945 -1.1604  0.3543 -0.2263
  443MOL0     C58408   6.532  10.381  10.986  0.0255 -1.0155  0.0023
  443MOL0     C58409   6.654  10.329  10.363  0.4776 -0.9600  0.5798
  443MOL0     C58410   6.716  10.372  10.243 -0.8108  0.4376  0.5059
  443MOL0     H58411   6.812  10.181   9.800  0.1917  0.7088 -0.5281
  443MOL0     H58412   6.926  10.163   9.579 -0.1655 -0.1749 -1.0788
  443MOL0     H58413   6.979  10.150   9.361 -0.6072  1.0606 -1.1927
  443MOL0     H58414   7.048  10.312   9.417  0.9879  1.7145 -0.0517
  443MOL0     H58415   7.006  10.385   9.185 -0.7703 -0.4426 -0.4771
  443MOL0     H58416   6.922  10.229   9.152  0.3561 -0.4553  0.6960
  443MOL0     H58417   7.106  10.098   9.153  0.4354 -0.4117 -0.8107
  443MOL0     H58418   7.206  10.215   9.218 -0.0302 -1.3590  0.5666
  443MOL0     H58419   7.110  10.207   8.931 -1.5463  0.9830 -0.0257
  443MOL0     H58420   7.148  10.370   9.004 -1.8496  0.4323  0.0090
  443MOL0     H58421   7.339  10.222   8.892 -1.6589 -0.8072 -0.1305
  443MOL0     H58422   7.341  10.143   9.053 -0.7008  1.2182  1.6671
  443MOL0     H58423   7.361  10.394   9.149 -1.1070  1.9780 -0.8241
  443MOL0     H58424   7.376  10.429   8.984  1.6417 -0.5788 -0.6310
  443MOL0     H58425   7.571  10.261   8.984  0.9536 -1.3113  1.1353
  443MOL0     H58426   7.588  10.437   9.031 -0.7192 -0.7615  0.7382
  443MOL0     H58427   7.561  10.360   9.269 -1.0927 -3.4234  1.9037
  443MOL0     H58428   7.712  10.302   9.185  0.3981  1.6793 -0.1375
  443MOL0     H58429   7.647  10.054   9.034  1.0065  1.0227  0.7660
  443MOL0     H58430   7.518   9.736   9.205  1.2428 -0.6370 -0.0240
  443MOL0     H58431   7.667   9.759   9.117  1.0003  0.0316  2.0674
  443MOL0     H58432   7.531   9.755   8.926  1.5398  0.5983  0.3278
  443MOL0     H58433   7.449   9.899   8.973  2.2621  0.8990  1.8135
  443MOL0     H58434   7.297   9.723   8.918  0.6929 -2.1822 -0.0144
  443MOL0     H58435   7.353   9.613   9.045 -4.1488 -1.6710 -2.0185
  443MOL0     H58436   7.213   9.867   9.089 -0.5715 -0.2018 -1.6224
  443MOL0     H58437   7.312   9.775   9.215  1.8856  1.3256 -1.6829
  443MOL0     H58438   6.977   9.525   9.179  0.5822  1.8754 -3.1767
  443MOL0     H58439   6.777   9.548   9.349  0.0835  0.2730 -0.4123
  443MOL0     H58440   6.863   9.849   9.825 -1.2536 -0.7586 -2.6874
  443MOL0     H58441   6.745   9.860  10.058  1.3289 -0.5398 -1.3892
  443MOL0     H58442   6.590   9.806  10.212  0.7404  2.3500  1.3705
  443MOL0     H58443   6.477   9.721  10.093 -1.6157 -0.2555  1.6890
  443MOL0     H58444   6.282   9.755  10.194 -0.8120  0.0066  1.4803
  443MOL0     H58445   6.349   9.856  10.329  0.1829 -2.1119  2.0801
  443MOL0     H58446   6.474   9.655  10.401 -3.4813 -0.5172  4.3531
  443MOL0     H58447   6.404   9.565  10.271 -2.7596  0.2168 -0.9930
  443MOL0     H58448   6.198   9.592  10.333 -1.3298  0.3083 -0.2027
  443MOL0     H58449   6.291   9.506  10.459  2.8825  2.2963  2.0200
  443MOL0     H58450   6.133   9.688  10.561 -1.0378  1.4667  0.3747
  443MOL0     H58451   6.234   9.809  10.495  1.8045  0.1077 -0.3431
  443MOL0     H58452   6.441   9.721  10.603 -1.2047  2.3519 -1.1133
  443MOL0     H58453   6.342   9.594  10.676  0.2080 -0.6390 -0.9329
  443MOL0     H58454   6.278   9.881  10.731 -2.6176  0.9225  3.9833
  443MOL0     H58455   6.215   9.728  10.798  0.1871 -0.1297  0.1726
  443MOL0     H58456   6.486   9.834  10.858  1.4599 -2.4627 -0.4813
  443MOL0     H58457   6.448   9.664  10.879 -1.5036  0.1895 -0.0144
  443MOL0     H58458   6.391   9.968   9.826  0.7382  0.1611 -2.1184
  443MOL0     H58459   6.498   9.933   9.632 -1.1938  1.9883  0.3302
  443MOL0     H58460   6.964   9.916   9.477  0.7553 -0.2763  0.8250
  443MOL0     H58461   7.164   9.862   9.351  1.7292 -0.9857  0.6543
  443MOL0     H58462   6.711  10.505   9.449  0.4083 -0.7626 -0.2105
  443MOL0     H58463   6.640  10.549   9.688  0.1255 -0.4794  0.1530
  443MOL0     H58464   6.488  10.237  10.019 -0.1667 -1.0689  0.0363
  443MOL0     H58465   6.416  10.129  10.204 -2.9563  2.0192  0.7634
  443MOL0     H58466   6.303  10.120  10.452 -1.4982  0.9158  1.6456
  443MOL0     H58467   6.323  10.289  10.446  3.4043  2.5568  0.3396
  443MOL0     H58468   6.335  10.335  10.660  0.6388  0.0485 -0.5484
  443MOL0     H58469   6.247  10.183  10.663 -0.3773  1.1050 -0.5671
  443MOL0     H58470   6.546  10.184  10.725 -0.6711  1.5302 -1.7123
  443MOL0     H58471   6.430  10.051  10.718  1.7311  0.1503 -1.4008
  443MOL0     H58472   6.288  10.182  10.892  0.3914 -1.4118  0.0851
  443MOL0     H58473   6.418  10.087  10.933  1.3521 -1.4597 -3.9711
  443MOL0     H58474   6.610  10.447  11.020  0.2385  0.1023 -2.4325
  443MOL0     H58475   6.687  10.342  10.466 -1.3117  1.1106  0.9841
  443MOL0     H58476   6.806  10.431  10.256 -0.5344  0.7188 -2.1289
  444MOL0     O58477  10.754  10.139   5.803  0.2456 -0.0731 -0.8630
  444MOL0     C58478  10.867  10.167   5.829  0.5171 -0.2435 -0.4035
  444MOL0     O58479  10.948  10.232   5.748  0.1396 -0.4425  0.1977
  444MOL0     C58480  10.914  10.308   5.634 -0.2220 -0.0774  0.2539
  444MOL0     C58481  10.785  10.335   5.583 -0.5078  0.5849  0.1023
  444MOL0     C58482  10.777  10.416   5.472  0.1604 -0.5234  0.9504
  444MOL0     C58483  10.886  10.467   5.403  0.6963 -0.2178  0.5186
  444MOL0     O58484  10.858  10.530   5.286  0.9125 -0.8231  0.0609
  444MOL0     C58485  10.958  10.621   5.236 -0.7845 -0.7482  0.8724
  444MOL0     C58486  10.932  10.761   5.307  0.1008 -0.4565  0.4737
  444MOL0     C58487  10.784  10.805   5.298 -0.0454  0.1475  0.2117
  444MOL0     C58488  10.772  10.947   5.370  0.6391 -0.3045  0.1935
  444MOL0     C58489  10.811  10.946   5.521  0.7382  0.4145  0.1420
  444MOL0     C58490  10.731  10.838   5.590  0.1515 -0.5955 -1.1501
  444MOL0     C58491  10.759  10.821   5.739 -0.4307 -0.2862  0.8105
  444MOL0     C58492  10.654  10.873   5.825 -0.2527  0.8272 -0.0205
  444MOL0     N58493  10.527  10.809   5.791  0.6261 -0.5757 -0.0191
  444MOL0     C58494  10.472  10.687   5.815  0.1154 -0.5361  0.3721
  444MOL0     C58495  10.353  10.676   5.773 -0.4139 -0.4068  0.6070
  444MOL0     C58496  10.288  10.543   5.721 -0.0865  0.5561 -0.3281
  444MOL0     C58497  10.224  10.542   5.584  0.6790 -0.2257  0.1563
  444MOL0     C58498  10.332  10.569   5.472 -0.1624 -0.3888 -0.0051
  444MOL0     C58499  10.262  10.607   5.341 -0.8449 -0.0923 -0.5928
  444MOL0     O58500  10.359  10.639   5.240 -0.1824 -0.6256 -0.3577
  444MOL0     C58501  10.304  10.628   5.106 -0.4071 -0.5761  1.2580
  444MOL0     C58502  10.242  10.738   5.050 -0.3924  0.5426  0.3950
  444MOL0     C58503  10.192  10.739   4.915  0.6057 -1.1755  0.7741
  444MOL0     C58504  10.212  10.631   4.837 -0.3162  0.5277 -1.0523
  444MOL0     C58505  10.173  10.630   4.695  0.4388  0.8904  0.1601
  444MOL0     O58506  10.118  10.735   4.638  0.4722  0.3514  1.1344
  444MOL0     C58507  10.038  10.720   4.523 -1.0235 -1.1790  1.2047
  444MOL0     C58508  10.059  10.809   4.415 -0.0365 -1.0562 -0.6223
  444MOL0     C58509   9.997  10.787   4.292 -0.2289  0.8629 -0.1725
  444MOL0     C58510   9.922  10.670   4.266  0.0845 -0.6376 -0.0758
  444MOL0     O58511   9.865  10.634   4.151 -0.2460 -0.3931  0.2772
  444MOL0     C58512   9.863  10.724   4.047 -0.1155 -0.0451  0.3935
  444MOL0     C58513   9.744  10.826   4.064 -0.2659 -0.2643 -0.0948
  444MOL0     C58514   9.773  10.967   4.008 -0.8597  0.3639 -0.9125
  444MOL0     C58515   9.657  11.057   4.041  0.1575  0.0861  0.2793
  444MOL0     C58516   9.674  11.201   3.992  0.4533  0.8158 -0.0456
  444MOL0     C58517   9.672  11.225   3.843  0.4387 -0.2498  0.5408
  444MOL0     C58518   9.682  11.375   3.813 -0.4615 -0.4249 -0.3866
  444MOL0     C58519   9.723  11.397   3.668 -1.0658 -0.5488  0.6725
  444MOL0    Cl58520   9.609  11.313   3.570 -0.5288 -0.1101 -0.4288
  444MOL0     C58521   9.888  10.599   4.379  0.1818  1.2931 -0.3593
  444MOL0     C58522   9.948  10.621   4.502  0.4226 -0.1379 -0.3543
  444MOL0     O58523  10.187  10.519   4.635  0.0844  0.2891 -0.3262
  444MOL0     C58524  10.275  10.527   4.895  0.1648  0.5652 -0.3960
  444MOL0     C58525  10.316  10.522   5.022 -0.3368 -0.2264 -0.1172
  444MOL0     N58526  10.314  10.809   5.743 -0.8703  0.3217 -0.2267
  444MOL0     N58527  10.419  10.887   5.747  0.3160 -0.3435  0.7653
  444MOL0     C58528  11.016  10.444   5.452 -0.3446  0.2764 -0.1991
  444MOL0     C58529  11.026  10.357   5.563  0.4870  0.5130 -0.3711
  444MOL0     C58530  10.927  10.139   5.963 -0.4280 -0.3458  0.3343
  444MOL0     C58531  10.886  10.033   6.048  0.0414  0.4540 -0.2320
  444MOL0     C58532  10.945  10.012   6.171 -0.1625 -0.0757  0.1986
  444MOL0     C58533  11.052  10.088   6.215 -0.3990 -0.5318  0.4829
  444MOL0     O58534  11.108  10.058   6.337  0.4293 -0.1254 -0.0652
  444MOL0     C58535  11.249  10.077   6.357  0.8430  0.3014 -0.0259
  444MOL0     C58536  11.291   9.937   6.399  1.2460 -1.2551 -0.0917
  444MOL0     C58537  11.264   9.816   6.299  0.0909 -0.4128  0.8146
  444MOL0     C58538  11.322   9.854   6.160  1.0200  0.8988 -0.2752
  444MOL0     C58539  11.468   9.893   6.147 -0.2468  0.7019  0.0277
  444MOL0     C58540  11.589   9.899   6.151 -0.1165 -0.5241  0.2868
  444MOL0     C58541  11.091  10.202   6.140 -0.7749 -0.5272 -0.4756
  444MOL0     C58542  11.032  10.220   6.012 -0.3744  0.4370 -0.7632
  444MOL0     H58543  10.709  10.277   5.635  1.0445 -0.1322  1.6761
  444MOL0     H58544  10.683  10.426   5.419 -0.0468 -1.4423  1.1298
  444MOL0     H58545  10.945  10.627   5.128 -0.4876  0.6711  0.8968
  444MOL0     H58546  11.064  10.594   5.242 -0.0571  1.9901  1.9164
  444MOL0     H58547  10.996  10.831   5.251 -0.5877 -0.8855 -0.8973
  444MOL0     H58548  10.971  10.758   5.409  0.8940  3.6803  0.4591
  444MOL0     H58549  10.718  10.730   5.342  3.6044 -1.5453  3.3626
  444MOL0     H58550  10.764  10.811   5.191 -2.4429  0.9554  0.6469
  444MOL0     H58551  10.822  11.014   5.300  0.7777 -2.0076 -1.3894
  444MOL0     H58552  10.667  10.978   5.373  0.0828 -2.0400 -0.6265
  444MOL0     H58553  10.801  11.042   5.574  2.1033 -0.2411  1.6765
  444MOL0     H58554  10.920  10.944   5.531  1.0649 -0.5164 -2.7560
  444MOL0     H58555  10.749  10.737   5.553 -1.2179 -1.2170 -0.2149
  444MOL0     H58556  10.624  10.860   5.580 -0.3647 -3.0328 -1.5847
  444MOL0     H58557  10.764  10.712   5.754 -3.1267 -0.3113  2.2689
  444MOL0     H58558  10.849  10.877   5.765  2.2950 -0.6932 -5.7218
  444MOL0     H58559  10.644  10.979   5.802  0.7961  0.4665 -2.4609
  444MOL0     H58560  10.677  10.843   5.928 -5.7688 -0.5254  1.1293
  444MOL0     H58561  10.529  10.601   5.847 -2.1214 -2.4842 -0.5344
  444MOL0     H58562  10.216  10.510   5.797 -0.2928 -0.0943 -0.8004
  444MOL0     H58563  10.376  10.479   5.728  1.2794  2.2094 -1.6278
  444MOL0     H58564  10.157  10.628   5.592  1.2087  0.1697  0.4468
  444MOL0     H58565  10.174  10.446   5.573  1.1403 -0.2160 -2.7862
  444MOL0     H58566  10.400  10.652   5.496 -0.7386  0.4507 -1.2043
  444MOL0     H58567  10.391  10.478   5.454  1.9066  1.4082 -3.2778
  444MOL0     H58568  10.201  10.697   5.358 -3.4509 -1.6320 -1.2283
  444MOL0     H58569  10.199  10.522   5.313 -0.8232  0.4507 -2.3611
  444MOL0     H58570  10.214  10.819   5.117 -1.7217 -0.5786  1.2416
  444MOL0     H58571  10.134  10.826   4.885 -0.0722 -1.6615  0.6439
  444MOL0     H58572  10.121  10.896   4.432  0.8911 -1.5092 -1.5613
  444MOL0     H58573  10.018  10.858   4.212  2.5090  2.0403  1.4815
  444MOL0     H58574   9.856  10.675   3.949 -3.7302 -0.9907  0.9566
  444MOL0     H58575   9.961  10.772   4.048  0.1082 -0.3382 -2.0753
  444MOL0     H58576   9.731  10.841   4.171  0.1371 -2.9308  0.4151
  444MOL0     H58577   9.650  10.783   4.028 -0.7759  0.1397  0.7509
  444MOL0     H58578   9.798  10.975   3.901 -1.0166 -1.2022 -1.0918
  444MOL0     H58579   9.861  11.012   4.055 -0.1992 -1.7156 -0.0195
  444MOL0     H58580   9.566  11.020   3.993 -0.1911  2.6005 -1.1760
  444MOL0     H58581   9.641  11.060   4.150 -0.3805  0.1847  0.2012
  444MOL0     H58582   9.761  11.256   4.030  2.1677 -1.6216 -0.1674
  444MOL0     H58583   9.594  11.269   4.023  1.2711  2.2387 -0.9181
  444MOL0     H58584   9.586  11.176   3.795 -0.9401  1.4559  1.1464
  444MOL0     H58585   9.763  11.178   3.806 -0.1638 -0.7446 -0.3610
  444MOL0     H58586   9.583  11.414   3.840 -1.4288 -2.5982 -0.6478
  444MOL0     H58587   9.758  11.423   3.876 -0.3508 -1.3638  0.2078
  444MOL0     H58588   9.825  11.369   3.642 -1.2531  0.5140 -1.3832
  444MOL0     H58589   9.711  11.505   3.655  0.5840 -0.4552 -0.4192
  444MOL0     H58590   9.822  10.516   4.358 -0.0611  1.6254 -0.9374
  444MOL0     H58591   9.930  10.547   4.580 -1.2717  1.6425  1.0685
  444MOL0     H58592  10.295  10.448   4.823  1.1052  2.3349 -2.1961
  444MOL0     H58593  10.371  10.440   5.068  0.5350  0.5221  0.1894
  444MOL0     H58594  11.102  10.472   5.392  1.2729 -0.1583  1.8118
  444MOL0     H58595  11.123  10.338   5.608 -0.0572 -0.4191  0.4921
  444MOL0     H58596  10.814   9.965   6.003  0.3774  0.3499 -0.6200
  444MOL0     H58597  10.924   9.923   6.230  0.0799 -0.4595 -0.2785
  444MOL0     H58598  11.281  10.145   6.436  0.5429  0.5173 -0.0883
  444MOL0     H58599  11.297  10.119   6.268 -1.3556  2.7589 -0.1957
  444MOL0     H58600  11.395   9.940   6.435  0.7879  0.8508  1.2503
  444MOL0     H58601  11.228   9.909   6.484  2.5029 -0.1874  1.2579
  444MOL0     H58602  11.159   9.788   6.286 -0.4199  0.7252  2.2382
  444MOL0     H58603  11.316   9.726   6.335  1.0437  0.3475  1.3943
  444MOL0     H58604  11.303   9.771   6.090  0.8694 -0.5408  1.4127
  444MOL0     H58605  11.265   9.932   6.108 -0.0509 -0.2102 -0.8123
  444MOL0     H58606  11.695   9.896   6.141 -0.3628 -0.5168 -4.5392
  444MOL0     H58607  11.160  10.282   6.168  0.4290 -1.5564 -0.4152
  444MOL0     H58608  11.082  10.299   5.957  0.9550  1.7683  2.1883
  445MOL0     O58609   1.410   9.346   5.475  0.5812 -0.2855 -0.2785
  445MOL0     C58610   1.352   9.345   5.368  0.0784  0.4778 -0.7003
  445MOL0     O58611   1.226   9.284   5.341  0.5655 -0.5628  0.7487
  445MOL0     C58612   1.160   9.235   5.447  0.7383  0.0539 -1.0178
  445MOL0     C58613   1.175   9.098   5.486  0.0629  0.3973 -0.4144
  445MOL0     C58614   1.121   9.045   5.602 -0.1462  0.5312 -0.4667
  445MOL0     C58615   1.032   9.120   5.681 -0.3791  0.0879 -0.3979
  445MOL0     O58616   0.982   9.053   5.791 -0.5298  0.0785 -0.0359
  445MOL0     C58617   0.839   9.063   5.804 -0.5030 -0.7255  0.8622
  445MOL0     C58618   0.782   9.009   5.935 -0.3253  0.5417  0.1016
  445MOL0     C58619   0.637   8.975   5.917  0.0733 -0.4811 -1.2487
  445MOL0     C58620   0.578   8.972   6.057 -0.5726  0.0025 -1.0035
  445MOL0     C58621   0.432   8.922   6.062  0.1687 -0.0732 -0.8212
  445MOL0     C58622   0.329   9.038   6.052 -0.0976  0.1911  0.3931
  445MOL0     C58623   0.179   9.000   6.043 -0.3099 -0.5434 -0.1075
  445MOL0     C58624   0.104   9.048   6.167 -0.1115  1.0250  0.0289
  445MOL0     N58625  -0.035   8.987   6.183 -0.2482  0.4005  0.2574
  445MOL0     C58626  -0.072   8.908   6.288  0.1547  0.2540  0.5412
  445MOL0     C58627  -0.209   8.918   6.288  0.7544 -0.0726 -0.4045
  445MOL0     C58628  -0.299   8.863   6.392 -0.4143  0.3464  0.0016
  445MOL0     C58629  -0.401   8.961   6.461 -0.3865  0.2198  0.2588
  445MOL0     C58630  -0.347   9.107   6.458  0.9840 -0.3821  0.7559
  445MOL0     C58631  -0.423   9.190   6.568  0.7374  0.3927 -0.4075
  445MOL0     O58632  -0.359   9.154   6.684  0.4046  0.0733 -0.0498
  445MOL0     C58633  -0.434   9.132   6.796  0.6283 -0.1863 -0.9429
  445MOL0     C58634  -0.389   9.048   6.894  0.9353 -0.2714 -1.0361
  445MOL0     C58635  -0.453   9.032   7.018  0.0860 -0.1743 -0.0044
  445MOL0     C58636  -0.570   9.111   7.042 -0.7189 -1.0354 -0.8070
  445MOL0     C58637  -0.641   9.134   7.172 -0.7530  0.4535 -0.0902
  445MOL0     O58638  -0.769   9.193   7.178 -0.4858  0.5461  0.0453
  445MOL0     C58639  -0.836   9.202   7.298  0.6948  0.6825 -0.2593
  445MOL0     C58640  -0.961   9.143   7.303 -0.5716 -0.9221 -0.2477
  445MOL0     C58641  -1.034   9.146   7.426 -0.0491  0.4189 -0.1682
  445MOL0     C58642  -0.977   9.181   7.546  0.5889 -0.3935  0.0537
  445MOL0     O58643  -1.057   9.160   7.658 -0.2668  0.0160 -0.1370
  445MOL0     C58644  -1.009   9.067   7.757 -0.1966  0.1757 -0.3873
  445MOL0     C58645  -1.007   8.929   7.703  0.2676 -0.1314 -0.2392
  445MOL0     C58646  -1.153   8.864   7.703 -0.3969 -0.6808 -0.3566
  445MOL0     C58647  -1.139   8.734   7.627 -0.6227  1.2732  0.3678
  445MOL0     C58648  -1.262   8.650   7.597  0.2543  0.1848 -0.8613
  445MOL0     C58649  -1.392   8.727   7.542 -0.3707 -1.0971  0.1648
  445MOL0     C58650  -1.376   8.804   7.409  0.3917  0.6085  0.2895
  445MOL0     C58651  -1.509   8.853   7.349 -0.6898 -0.1045  0.4324
  445MOL0    Cl58652  -1.597   8.714   7.293 -0.2678 -0.4508 -0.3674
  445MOL0     C58653  -0.851   9.234   7.550  0.2851 -0.5407  0.4227
  445MOL0     C58654  -0.784   9.255   7.424 -0.1243  0.2922 -0.8359
  445MOL0     O58655  -0.576   9.085   7.265  0.2807  0.2645  0.4279
  445MOL0     C58656  -0.603   9.207   6.943  0.2165 -0.1403 -0.2279
  445MOL0     C58657  -0.538   9.218   6.826 -0.6489  0.7837  0.2961
  445MOL0     N58658  -0.256   8.985   6.181  0.2272 -1.0250  0.2071
  445MOL0     N58659  -0.153   9.029   6.117  0.4414 -0.1360  0.1258
  445MOL0     C58660   1.010   9.252   5.644 -0.7302  0.3655 -0.4896
  445MOL0     C58661   1.074   9.313   5.531  0.8264 -0.0995 -0.4023
  445MOL0     C58662   1.427   9.415   5.256 -1.0267 -0.2384 -0.4852
  445MOL0     C58663   1.415   9.359   5.130  0.2737 -0.1175  0.3368
  445MOL0     C58664   1.473   9.426   5.014  0.7108  0.5015  0.0625
  445MOL0     C58665   1.543   9.554   5.036  0.6422  0.0017  1.1225
  445MOL0     O58666   1.582   9.621   4.917  0.4753  0.1445  0.2228
  445MOL0     C58667   1.705   9.704   4.914  0.5942 -0.2517 -0.1309
  445MOL0     C58668   1.693   9.806   4.801  0.1074 -0.1339  0.3111
  445MOL0     C58669   1.570   9.893   4.812  0.5786  0.9425  0.9793
  445MOL0     C58670   1.584  10.017   4.893 -0.0607  0.8874 -0.1797
  445MOL0     C58671   1.454  10.080   4.930 -0.5262 -0.9535  0.8421
  445MOL0     C58672   1.295  10.168   4.980 -0.4393 -1.1685 -0.6349
  445MOL0     C58673   1.548   9.609   5.163  1.6479  0.3136  0.2823
  445MOL0     C58674   1.486   9.543   5.264 -0.2841 -0.5394 -0.5850
  445MOL0     H58675   1.236   9.031   5.426  2.3644  0.7708  1.3469
  445MOL0     H58676   1.140   8.943   5.631 -2.2218  0.1613 -0.2208
  445MOL0     H58677   0.810   9.023   5.706  0.5507 -0.7180  0.5418
  445MOL0     H58678   0.800   9.165   5.801 -0.6111 -0.7784  0.4657
  445MOL0     H58679   0.796   9.100   5.994  2.8166 -0.4933  1.1558
  445MOL0     H58680   0.840   8.929   5.982 -0.8192  0.1268  0.0152
  445MOL0     H58681   0.618   8.880   5.867 -1.0081 -0.7160 -0.4299
  445MOL0     H58682   0.588   9.051   5.855  1.7266  2.3064  0.6567
  445MOL0     H58683   0.632   8.901   6.120 -1.6622  0.4299  0.4698
  445MOL0     H58684   0.581   9.079   6.082 -1.4226 -0.0652 -0.5631
  445MOL0     H58685   0.410   8.861   6.150 -1.0261 -2.6343 -2.7724
  445MOL0     H58686   0.405   8.851   5.983 -3.5288  2.3663 -2.0164
  445MOL0     H58687   0.349   9.089   5.957  1.3861 -2.5953 -0.9277
  445MOL0     H58688   0.353   9.104   6.135 -2.3710  4.2448 -1.8425
  445MOL0     H58689   0.139   9.058   5.959  1.6130  0.7502 -0.1865
  445MOL0     H58690   0.164   8.896   6.011  1.1257 -0.5969 -0.6513
  445MOL0     H58691   0.097   9.157   6.153 -1.7539  0.9355 -0.0373
  445MOL0     H58692   0.150   9.011   6.259 -0.0895  0.7607 -0.0895
  445MOL0     H58693  -0.009   8.867   6.367  1.1290  0.2783 -0.2016
  445MOL0     H58694  -0.225   8.830   6.465  0.3727  0.7378 -0.6099
  445MOL0     H58695  -0.350   8.779   6.344 -0.4906  0.8564 -0.8283
  445MOL0     H58696  -0.413   8.937   6.567  2.2243 -2.8137 -0.0018
  445MOL0     H58697  -0.497   8.966   6.408 -1.5374  0.4690  2.2375
  445MOL0     H58698  -0.239   9.089   6.468  0.8404 -3.2075 -1.6114
  445MOL0     H58699  -0.363   9.170   6.370  1.2138 -1.3214  0.0229
  445MOL0     H58700  -0.528   9.161   6.558 -0.0985  2.3593  1.8617
  445MOL0     H58701  -0.412   9.298   6.556  3.0800  0.2134 -0.3654
  445MOL0     H58702  -0.304   8.983   6.874  0.6390 -0.0796 -3.2294
  445MOL0     H58703  -0.407   8.960   7.086  3.5156  1.1138 -0.7282
  445MOL0     H58704  -1.019   9.108   7.218 -1.4451  1.0918 -0.5414
  445MOL0     H58705  -1.136   9.110   7.433 -0.1543  1.1351  3.6300
  445MOL0     H58706  -1.070   9.077   7.848 -1.5648  2.4701 -1.4525
  445MOL0     H58707  -0.907   9.093   7.787 -2.0590  4.4376  3.5278
  445MOL0     H58708  -0.944   8.865   7.766 -1.2755 -1.1197  0.3616
  445MOL0     H58709  -0.956   8.927   7.606  1.2381  0.5818  0.2375
  445MOL0     H58710  -1.229   8.921   7.650 -2.3783 -2.2597  0.6402
  445MOL0     H58711  -1.191   8.848   7.805 -1.4564  4.7629  0.3702
  445MOL0     H58712  -1.089   8.754   7.532 -1.5045  2.1543  0.0766
  445MOL0     H58713  -1.061   8.677   7.678 -0.0116  1.3130 -0.4941
  445MOL0     H58714  -1.302   8.598   7.685  2.0877 -1.8022 -1.1365
  445MOL0     H58715  -1.248   8.569   7.525  0.5247  2.1429 -3.1622
  445MOL0     H58716  -1.421   8.793   7.624  1.1726  0.5748 -0.5804
  445MOL0     H58717  -1.480   8.662   7.542  0.1227 -1.7874 -0.9878
  445MOL0     H58718  -1.308   8.887   7.427  0.7398 -0.0423  2.2843
  445MOL0     H58719  -1.326   8.742   7.334 -3.1501  1.7685 -3.3084
  445MOL0     H58720  -1.488   8.927   7.271 -2.8563  0.4120  0.2624
  445MOL0     H58721  -1.561   8.902   7.433  0.9085  1.9004  0.3247
  445MOL0     H58722  -0.818   9.257   7.651  0.0287  1.6147  0.0642
  445MOL0     H58723  -0.684   9.296   7.428  0.8713 -2.0949  0.3788
  445MOL0     H58724  -0.680   9.283   6.956  0.5624  0.0405  0.9021
  445MOL0     H58725  -0.558   9.301   6.759 -0.2293  2.3313  2.0158
  445MOL0     H58726   0.941   9.314   5.700  1.4054  1.3600  1.1888
  445MOL0     H58727   1.070   9.417   5.503 -1.1472  0.2212  0.8672
  445MOL0     H58728   1.351   9.274   5.109 -2.3347  1.8957 -0.5214
  445MOL0     H58729   1.490   9.369   4.923  0.4362 -0.5309  0.6474
  445MOL0     H58730   1.794   9.644   4.894  0.7276  0.4759 -1.9028
  445MOL0     H58731   1.709   9.747   5.015  0.5812 -2.3196  0.8082
  445MOL0     H58732   1.781   9.871   4.803  0.4640 -0.6166  1.2102
  445MOL0     H58733   1.687   9.753   4.706  0.7598  1.0971 -0.4460
  445MOL0     H58734   1.487   9.835   4.855  0.4204  0.8469  0.5549
  445MOL0     H58735   1.539   9.895   4.707  2.3200 -0.5494  0.3755
  445MOL0     H58736   1.632   9.991   4.988 -0.2630  3.5692  0.7211
  445MOL0     H58737   1.644  10.088   4.835 -0.5433  1.1336 -0.3761
  445MOL0     H58738   1.200  10.211   5.004  0.1143  0.7244 -1.6498
  445MOL0     H58739   1.582   9.707   5.193 -2.9616  1.9132  1.0692
  445MOL0     H58740   1.498   9.591   5.361  2.9511 -2.2764  0.0063
  446MOL0     O58741   2.990   7.696   8.288 -0.2861 -0.4892  0.4086
  446MOL0     C58742   2.929   7.794   8.254 -0.3526 -0.1852 -0.8007
  446MOL0     O58743   2.980   7.917   8.229 -0.6877 -0.0012  0.1292
  446MOL0     C58744   3.112   7.923   8.190 -0.1275 -0.2407  0.1072
  446MOL0     C58745   3.195   8.002   8.267  0.4093 -0.0664  0.0677
  446MOL0     C58746   3.329   8.007   8.224  0.0597  0.5845 -0.3354
  446MOL0     C58747   3.385   7.935   8.125 -0.4774  0.8443  0.6070
  446MOL0     O58748   3.523   7.950   8.098  0.0904  0.5388  0.2277
  446MOL0     C58749   3.607   7.987   8.203 -0.2356  0.5086  0.1422
  446MOL0     C58750   3.749   7.928   8.182  0.6620  0.4016  1.0686
  446MOL0     C58751   3.836   7.948   8.300  0.1858 -0.1547  1.2806
  446MOL0     C58752   3.982   7.887   8.267  0.1795  0.0628  0.5618
  446MOL0     C58753   4.093   7.890   8.371 -1.2127  0.1811 -0.2202
  446MOL0     C58754   4.231   7.813   8.331 -0.1379  0.1907  0.3516
  446MOL0     C58755   4.342   7.812   8.432  0.7783  0.0711 -0.2469
  446MOL0     C58756   4.305   7.742   8.563 -0.0119 -0.4033  0.2736
  446MOL0     N58757   4.419   7.701   8.645 -0.0068  0.5296  0.3877
  446MOL0     C58758   4.532   7.645   8.595 -0.2562 -0.6127 -0.4205
  446MOL0     C58759   4.625   7.659   8.693 -0.2421 -0.4180 -0.3940
  446MOL0     C58760   4.772   7.627   8.701  0.5300  1.3834  0.2223
  446MOL0     C58761   4.852   7.697   8.810  0.2103  0.2109 -0.2657
  446MOL0     C58762   4.871   7.849   8.780 -0.6575 -0.5450 -0.6449
  446MOL0     C58763   4.945   7.935   8.884  0.3371  0.1262 -0.5849
  446MOL0     O58764   5.066   7.871   8.928 -0.2082 -0.6890  0.0439
  446MOL0     C58765   5.118   7.898   9.048 -0.5265  0.1420  0.6869
  446MOL0     C58766   5.084   8.020   9.101 -0.7049 -0.1468 -0.2065
  446MOL0     C58767   5.142   8.062   9.229  0.0165 -0.1869  0.4987
  446MOL0     C58768   5.234   7.975   9.291 -0.9452 -1.1594 -1.1107
  446MOL0     C58769   5.312   8.009   9.415  0.5929 -0.1178 -0.3754
  446MOL0     O58770   5.339   7.908   9.500 -0.5456 -0.2149 -0.1711
  446MOL0     C58771   5.438   7.920   9.593 -0.0573 -0.3519  0.0379
  446MOL0     C58772   5.427   8.001   9.710  0.8968  1.3806  0.5508
  446MOL0     C58773   5.510   7.995   9.821  0.8110  0.0521  0.2093
  446MOL0     C58774   5.605   7.889   9.828  1.1355  0.6484  0.5950
  446MOL0     O58775   5.682   7.857   9.934 -0.6488 -0.5091  0.2695
  446MOL0     C58776   5.724   7.967  10.020 -0.7405  0.0825  1.0879
  446MOL0     C58777   5.715   7.921  10.165  0.3379 -0.2083  0.2859
  446MOL0     C58778   5.783   8.024  10.250  0.0592  0.3706  0.2289
  446MOL0     C58779   5.772   7.971  10.396 -0.1624 -0.3985  0.2066
  446MOL0     C58780   5.832   8.065  10.496  0.4046  0.2368  1.0969
  446MOL0     C58781   5.753   8.186  10.539  0.5099 -0.1935  0.2905
  446MOL0     C58782   5.811   8.241  10.666 -0.2269  0.9457  0.4443
  446MOL0     C58783   5.804   8.395  10.652  0.3673  0.2040 -0.6909
  446MOL0    Cl58784   5.896   8.504  10.768  0.3126  0.1054 -0.2092
  446MOL0     C58785   5.623   7.812   9.706 -0.1480 -0.2288 -0.7100
  446MOL0     C58786   5.549   7.832   9.593  1.7025  0.1321 -0.0872
  446MOL0     O58787   5.344   8.123   9.426 -0.1390 -0.3549 -0.4080
  446MOL0     C58788   5.258   7.851   9.238 -1.6258 -1.0983 -0.4431
  446MOL0     C58789   5.203   7.816   9.118 -0.6592  0.2289  0.1385
  446MOL0     N58790   4.559   7.723   8.797  0.4372 -0.1425  0.0300
  446MOL0     N58791   4.439   7.744   8.769  0.2326 -0.0671  0.1212
  446MOL0     C58792   3.295   7.861   8.047 -0.0390 -0.3214  0.0192
  446MOL0     C58793   3.159   7.855   8.080 -0.0757 -0.9288 -0.3591
  446MOL0     C58794   2.788   7.766   8.232 -0.1675  0.0005 -0.2630
  446MOL0     C58795   2.746   7.649   8.167  1.1542 -0.0672 -0.5513
  446MOL0     C58796   2.607   7.632   8.146  0.8041  0.2743  0.7326
  446MOL0     C58797   2.509   7.727   8.176 -0.5464  0.1832  0.0292
  446MOL0     O58798   2.376   7.717   8.140 -0.1393  0.0869  0.4193
  446MOL0     C58799   2.308   7.826   8.078  0.1792  0.1774 -0.0915
  446MOL0     C58800   2.173   7.775   8.017  0.0749 -0.2348 -0.8696
  446MOL0     C58801   2.197   7.658   7.917 -0.0380  0.0448 -0.4505
  446MOL0     C58802   2.068   7.648   7.831  0.2421 -0.0374 -0.3014
  446MOL0     C58803   1.979   7.562   7.912  0.0158 -0.9869  0.4297
  446MOL0     C58804   1.887   7.496   7.960  0.6350  0.0354  0.6454
  446MOL0     C58805   2.556   7.850   8.224  0.2853  0.0883  0.5613
  446MOL0     C58806   2.694   7.867   8.251 -0.2747 -0.2667 -0.4755
  446MOL0     H58807   3.174   8.070   8.349 -0.3241  1.6684 -1.4638
  446MOL0     H58808   3.391   8.063   8.293  1.0550  0.9662 -1.5092
  446MOL0     H58809   3.567   7.939   8.292  3.3535 -1.4933  0.8804
  446MOL0     H58810   3.611   8.096   8.211 -3.2001  0.7412 -0.5741
  446MOL0     H58811   3.806   7.982   8.106 -1.3898  1.3507  0.1379
  446MOL0     H58812   3.753   7.820   8.163 -0.0517  0.7223 -1.2412
  446MOL0     H58813   3.793   7.901   8.389  0.5571 -3.3160 -0.0854
  446MOL0     H58814   3.852   8.055   8.316 -0.0106  0.1455 -0.3366
  446MOL0     H58815   3.956   7.786   8.235  3.0322  0.2766 -3.0097
  446MOL0     H58816   4.016   7.931   8.173  0.4688 -0.3222  0.4839
  446MOL0     H58817   4.063   7.835   8.461  0.6313  1.2085  1.0795
  446MOL0     H58818   4.103   7.991   8.413 -3.2239  0.6895 -0.8518
  446MOL0     H58819   4.256   7.860   8.236 -2.4023  2.4488  0.7555
  446MOL0     H58820   4.200   7.710   8.312 -0.6702 -0.0759  2.4313
  446MOL0     H58821   4.427   7.764   8.382 -1.1603 -2.1857 -1.5471
  446MOL0     H58822   4.365   7.916   8.456 -4.4047  1.0553  1.7601
  446MOL0     H58823   4.247   7.654   8.536  0.2648  0.2271 -2.7152
  446MOL0     H58824   4.246   7.806   8.630 -1.3324 -0.0175 -1.2141
  446MOL0     H58825   4.544   7.613   8.492  0.1092 -0.4574 -0.4245
  446MOL0     H58826   4.825   7.647   8.607 -0.4062 -0.3352 -0.7218
  446MOL0     H58827   4.771   7.518   8.711 -0.8904  1.3863  0.3299
  446MOL0     H58828   4.955   7.663   8.826  0.4753 -1.0401 -3.7378
  446MOL0     H58829   4.797   7.683   8.903  0.3725 -1.7253 -0.4030
  446MOL0     H58830   4.920   7.858   8.683  1.1933  1.8959  0.4299
  446MOL0     H58831   4.775   7.897   8.759 -0.7106 -1.3714 -2.4965
  446MOL0     H58832   4.873   7.942   8.967  0.4665 -0.7987 -0.3853
  446MOL0     H58833   4.966   8.035   8.845 -2.9047  1.4129  0.5830
  446MOL0     H58834   5.026   8.102   9.058 -0.1667  0.5412  0.3470
  446MOL0     H58835   5.129   8.166   9.256  0.2072 -0.4936  1.8565
  446MOL0     H58836   5.347   8.075   9.712  0.0426  0.5229 -0.5147
  446MOL0     H58837   5.473   8.057   9.902 -2.2851 -1.9484  0.5004
  446MOL0     H58838   5.672   8.063  10.016 -1.0250 -0.1228 -0.8007
  446MOL0     H58839   5.821   8.008   9.991  1.3458 -0.4201  6.2669
  446MOL0     H58840   5.749   7.818  10.179 -0.9754 -0.6479  0.4292
  446MOL0     H58841   5.607   7.918  10.185  0.3310  2.0773  0.8911
  446MOL0     H58842   5.724   8.116  10.243 -0.1455  0.3172  1.0708
  446MOL0     H58843   5.883   8.052  10.217  0.0622 -0.2074 -0.2612
  446MOL0     H58844   5.670   7.950  10.430 -0.8162  0.3698 -1.1883
  446MOL0     H58845   5.829   7.878  10.392 -0.9357 -0.9251  1.0463
  446MOL0     H58846   5.933   8.092  10.462 -1.0585  0.3645 -3.9024
  446MOL0     H58847   5.841   7.999  10.583 -0.2171 -2.2258 -0.6032
  446MOL0     H58848   5.647   8.161  10.550  1.0197 -3.4007 -0.9840
  446MOL0     H58849   5.755   8.268  10.467  0.5615  2.1594  2.8075
  446MOL0     H58850   5.749   8.214  10.752 -1.9594  2.5680 -0.2198
  446MOL0     H58851   5.912   8.204  10.690  0.3307  2.2324  0.1825
  446MOL0     H58852   5.697   8.417  10.660  0.1853 -0.7045 -0.4191
  446MOL0     H58853   5.851   8.431  10.561 -0.7688  1.4643 -0.8036
  446MOL0     H58854   5.702   7.738   9.696  0.0442  0.1685 -2.3880
  446MOL0     H58855   5.552   7.760   9.512 -2.0700  1.5342 -1.7146
  446MOL0     H58856   5.326   7.787   9.293 -1.4474 -0.1704  0.4546
  446MOL0     H58857   5.220   7.716   9.078 -3.2551 -0.0584 -0.4361
  446MOL0     H58858   3.316   7.794   7.965  0.2108  1.2022 -1.1900
  446MOL0     H58859   3.100   7.794   8.012  3.5158 -1.2633 -3.5132
  446MOL0     H58860   2.820   7.580   8.126  3.9773  2.9667 -0.9483
  446MOL0     H58861   2.574   7.542   8.095 -2.9025  1.4020  0.7981
  446MOL0     H58862   2.365   7.868   7.995  1.6212  0.1231  0.8533
  446MOL0     H58863   2.280   7.910   8.142 -1.6995  1.3984 -2.3347
  446MOL0     H58864   2.099   7.741   8.090  1.1199 -1.4878 -0.3601
  446MOL0     H58865   2.134   7.861   7.962  2.0102  2.1333  1.1906
  446MOL0     H58866   2.232   7.566   7.966  2.5507  1.1284 -0.1070
  446MOL0     H58867   2.282   7.684   7.854  0.7989  0.6654  0.8732
  446MOL0     H58868   2.024   7.744   7.804  2.5179  1.6564  1.5497
  446MOL0     H58869   2.084   7.589   7.741 -0.9066 -0.3003 -0.3444
  446MOL0     H58870   1.808   7.443   8.010  0.9092 -0.9586  0.0627
  446MOL0     H58871   2.484   7.920   8.262 -0.9686 -1.8165  1.8597
  446MOL0     H58872   2.727   7.954   8.308  0.4791 -1.7887  1.5196
  447MOL0     O58873   4.961   0.032   5.143  0.6708 -1.0264 -0.3895
  447MOL0     C58874   4.883   0.123   5.135  0.8447  1.4229 -0.9582
  447MOL0     O58875   4.749   0.109   5.114 -0.1425  0.8171 -0.3406
  447MOL0     C58876   4.692  -0.013   5.091 -0.7115  0.3459  0.1964
  447MOL0     C58877   4.644  -0.091   5.198  0.0733 -0.3966  0.9531
  447MOL0     C58878   4.558  -0.198   5.181 -0.5897  1.2029  0.0494
  447MOL0     C58879   4.520  -0.237   5.056  0.4211 -0.5093 -0.3704
  447MOL0     O58880   4.438  -0.342   5.023 -0.2218  0.2338 -0.3935
  447MOL0     C58881   4.370  -0.402   5.132  1.1406  0.0740  0.4839
  447MOL0     C58882   4.258  -0.499   5.075 -0.0109 -0.0379 -0.2343
  447MOL0     C58883   4.199  -0.596   5.183  0.3106  0.2078 -0.3088
  447MOL0     C58884   4.100  -0.684   5.102 -0.3676 -0.1226  0.3943
  447MOL0     C58885   4.029  -0.780   5.194 -1.1193 -0.1394 -0.4100
  447MOL0     C58886   3.914  -0.859   5.118 -0.2614 -0.5390 -0.1964
  447MOL0     C58887   3.956  -0.932   4.987  0.2818 -0.4724 -0.3885
  447MOL0     C58888   4.074  -1.023   5.010 -0.4520 -0.1533 -0.2975
  447MOL0     N58889   4.117  -1.086   4.891  0.2031  1.1768 -0.1391
  447MOL0     C58890   4.250  -1.075   4.845 -0.5722  0.0198  0.3372
  447MOL0     C58891   4.258  -1.155   4.737  0.2104  0.1578  0.3995
  447MOL0     C58892   4.372  -1.166   4.644  0.8398 -0.1169  1.0096
  447MOL0     C58893   4.400  -1.029   4.586  0.2019 -0.6625  1.2846
  447MOL0     C58894   4.481  -1.048   4.454 -0.3347  0.3936 -0.4412
  447MOL0     C58895   4.438  -0.961   4.340 -0.4677 -0.4311 -0.2966
  447MOL0     O58896   4.504  -1.017   4.224 -0.1512 -0.0037 -0.2236
  447MOL0     C58897   4.629  -0.979   4.185 -0.0227  0.7610  0.9015
  447MOL0     C58898   4.706  -0.894   4.267 -0.0462  0.4723  1.0226
  447MOL0     C58899   4.829  -0.854   4.223 -0.8875  0.0157  0.3129
  447MOL0     C58900   4.879  -0.892   4.096 -0.1737 -0.2069  0.3977
  447MOL0     C58901   5.018  -0.846   4.052  0.8946  0.2270  0.7827
  447MOL0     O58902   5.063  -0.919   3.944  0.0606 -0.1446 -0.0700
  447MOL0     C58903   5.199  -0.910   3.895  0.7773 -0.0378 -0.8516
  447MOL0     C58904   5.229  -0.914   3.758  0.6523  0.5012  0.0412
  447MOL0     C58905   5.357  -0.926   3.704 -0.0948 -0.0555  0.3168
  447MOL0     C58906   5.469  -0.901   3.788 -0.0865 -0.0097  0.2108
  447MOL0     O58907   5.594  -0.889   3.731  0.6237  0.3467  0.7835
  447MOL0     C58908   5.664  -1.005   3.679  0.3392  0.2309  0.2730
  447MOL0     C58909   5.705  -0.962   3.535  0.6761  0.4645  0.0124
  447MOL0     C58910   5.769  -1.085   3.463 -0.4309 -0.6861  0.4098
  447MOL0     C58911   5.668  -1.199   3.430  0.3370 -0.5866 -0.2869
  447MOL0     C58912   5.536  -1.156   3.356 -0.4298  0.1567 -0.3276
  447MOL0     C58913   5.432  -1.268   3.344  0.0862  0.9493  0.0500
  447MOL0     C58914   5.370  -1.310   3.480 -0.0666  0.5790 -0.3111
  447MOL0     C58915   5.258  -1.408   3.468 -0.3900  0.0985  0.1606
  447MOL0    Cl58916   5.305  -1.574   3.416 -0.5969 -0.2210 -0.2699
  447MOL0     C58917   5.447  -0.887   3.922 -0.0194  0.1024  0.4971
  447MOL0     C58918   5.315  -0.888   3.982 -0.3993 -0.3397 -0.6425
  447MOL0     O58919   5.080  -0.765   4.113  0.5011 -0.1586  0.9650
  447MOL0     C58920   4.807  -0.986   4.016  1.7474  0.1448  0.9122
  447MOL0     C58921   4.682  -1.035   4.063 -0.4139 -0.0719  0.0392
  447MOL0     N58922   4.132  -1.205   4.707  0.5913  0.2674  0.0007
  447MOL0     N58923   4.047  -1.154   4.795 -0.0556 -0.5653 -1.1969
  447MOL0     C58924   4.565  -0.158   4.948  0.1144  0.4524 -0.4022
  447MOL0     C58925   4.652  -0.048   4.958 -0.4648  0.4741  0.5966
  447MOL0     C58926   4.949   0.252   5.152  0.6987 -0.8951  0.6953
  447MOL0     C58927   5.092   0.274   5.177 -0.5248 -0.5863  0.3057
  447MOL0     C58928   5.152   0.399   5.198 -0.2121 -0.7748 -0.0660
  447MOL0     C58929   5.073   0.518   5.179 -0.4018  0.2944 -0.8392
  447MOL0     O58930   5.130   0.639   5.214 -0.0698  0.6572  0.2073
  447MOL0     C58931   5.060   0.709   5.311 -1.2684 -0.2685 -0.3634
  447MOL0     C58932   5.165   0.784   5.392 -0.8009  0.3033  0.3051
  447MOL0     C58933   5.125   0.931   5.419  0.0301 -0.7586 -0.2230
  447MOL0     C58934   5.204   0.994   5.535  0.0772  0.1983  0.3358
  447MOL0     C58935   5.347   0.987   5.523 -0.1077 -0.2625 -0.4943
  447MOL0     C58936   5.463   0.975   5.496 -0.5736  0.1469  0.8578
  447MOL0     C58937   4.934   0.500   5.146 -0.3158  0.2283 -0.7141
  447MOL0     C58938   4.876   0.367   5.141 -0.0482  0.3314  1.3068
  447MOL0     H58939   4.636  -0.045   5.297 -2.8748 -0.4772  0.8180
  447MOL0     H58940   4.516  -0.255   5.263  1.2890 -0.0463  0.2038
  447MOL0     H58941   4.313  -0.324   5.183 -3.8175 -2.1429 -1.0341
  447MOL0     H58942   4.444  -0.453   5.194 -0.3033  0.1457  2.3571
  447MOL0     H58943   4.305  -0.552   4.991  1.3893 -0.9393  1.0733
  447MOL0     H58944   4.183  -0.428   5.038 -1.3546 -0.7892  0.9954
  447MOL0     H58945   4.146  -0.559   5.271  3.2873 -1.4238  2.3652
  447MOL0     H58946   4.276  -0.663   5.222  1.3425 -0.2062 -2.8700
  447MOL0     H58947   4.026  -0.615   5.061 -0.8180 -0.5314  0.5152
  447MOL0     H58948   4.150  -0.743   5.025 -1.7398 -3.1905  1.6890
  447MOL0     H58949   3.982  -0.727   5.278 -0.9400  0.4908 -0.7024
  447MOL0     H58950   4.103  -0.849   5.235 -1.1277  0.0931  0.0031
  447MOL0     H58951   3.841  -0.783   5.089 -1.0370  0.2345  3.3624
  447MOL0     H58952   3.865  -0.928   5.187 -1.6184 -1.3069 -1.8505
  447MOL0     H58953   3.872  -0.993   4.951  1.3207 -2.8058  0.9207
  447MOL0     H58954   3.984  -0.865   4.905  1.3248 -0.2421  0.1510
  447MOL0     H58955   4.053  -1.101   5.084  2.0485 -1.0276 -0.4158
  447MOL0     H58956   4.149  -0.956   5.053 -3.0466  1.9022  1.3200
  447MOL0     H58957   4.324  -1.025   4.907  0.6405  0.8520 -1.6924
  447MOL0     H58958   4.338  -1.242   4.573  0.0897 -2.2484  3.4867
  447MOL0     H58959   4.467  -1.201   4.686  2.4762 -0.0565 -2.3139
  447MOL0     H58960   4.460  -0.962   4.648 -1.4574 -0.0900  2.3241
  447MOL0     H58961   4.303  -0.987   4.559  0.6521 -1.1271 -1.3060
  447MOL0     H58962   4.588  -1.034   4.473 -0.2711 -0.9576  0.3256
  447MOL0     H58963   4.464  -1.151   4.423  3.3190 -0.5306  0.1704
  447MOL0     H58964   4.461  -0.856   4.361  0.7354 -1.1646  2.6287
  447MOL0     H58965   4.329  -0.959   4.330 -0.2857  1.6101 -3.2364
  447MOL0     H58966   4.681  -0.858   4.366 -0.4464 -1.6289  1.7360
  447MOL0     H58967   4.884  -0.786   4.287  3.8685  0.0781 -3.2545
  447MOL0     H58968   5.135  -0.931   3.707  1.4651 -1.4028 -0.9487
  447MOL0     H58969   5.366  -0.949   3.598 -0.0993 -1.0540  0.5261
  447MOL0     H58970   5.597  -1.092   3.676 -0.4258  0.8364 -0.6719
  447MOL0     H58971   5.754  -1.031   3.735 -1.3548 -3.3217  1.7118
  447MOL0     H58972   5.792  -0.897   3.546  2.0554 -1.4250  1.0139
  447MOL0     H58973   5.617  -0.923   3.483  1.7344  1.6214 -0.9785
  447MOL0     H58974   5.858  -1.133   3.506  0.5499 -3.3313 -3.9139
  447MOL0     H58975   5.795  -1.061   3.359  1.3377 -3.5936  0.0647
  447MOL0     H58976   5.725  -1.277   3.378 -1.1243 -0.2276 -2.5898
  447MOL0     H58977   5.629  -1.233   3.526 -1.9310  3.6580  0.5552
  447MOL0     H58978   5.558  -1.120   3.255  2.4360  0.2264  0.2403
  447MOL0     H58979   5.487  -1.074   3.410  2.1453  0.9490  0.9480
  447MOL0     H58980   5.472  -1.356   3.292  0.2991  1.4139 -0.5867
  447MOL0     H58981   5.347  -1.223   3.291 -0.2236 -1.2338 -1.4209
  447MOL0     H58982   5.443  -1.356   3.547 -2.2321 -1.4423  0.8394
  447MOL0     H58983   5.338  -1.212   3.518  2.3524  1.8650 -1.3904
  447MOL0     H58984   5.186  -1.354   3.407  0.4783 -0.3012 -1.2642
  447MOL0     H58985   5.222  -1.414   3.571 -1.2507 -0.1797 -0.1494
  447MOL0     H58986   5.532  -0.871   3.987  0.5853 -1.1487  0.0397
  447MOL0     H58987   5.286  -0.878   4.086  0.3119  0.6251 -0.5328
  447MOL0     H58988   4.835  -1.014   3.915 -0.7298  3.1432 -0.7772
  447MOL0     H58989   4.633  -1.115   4.009 -0.3861  2.2853 -3.8142
  447MOL0     H58990   4.517  -0.187   4.855 -1.4912 -0.9492  0.7965
  447MOL0     H58991   4.680   0.007   4.868 -1.6355  0.0954 -0.0155
  447MOL0     H58992   5.153   0.188   5.205 -0.5620  0.0127  2.3278
  447MOL0     H58993   5.258   0.403   5.221 -0.3487 -0.0882  0.4754
  447MOL0     H58994   4.998   0.643   5.373 -1.4767  1.7638  1.7596
  447MOL0     H58995   5.003   0.793   5.272  0.1633  3.2088  4.0586
  447MOL0     H58996   5.180   0.738   5.490 -1.9173  2.9830  1.8395
  447MOL0     H58997   5.259   0.784   5.336 -2.3151  0.6384 -2.4031
  447MOL0     H58998   5.018   0.940   5.442  0.2370 -1.5918  1.2175
  447MOL0     H58999   5.129   0.992   5.329  1.5591 -0.1291  0.2422
  447MOL0     H59000   5.181   1.099   5.557 -1.3370  0.0330 -0.2495
  447MOL0     H59001   5.172   0.943   5.625 -0.7207 -0.6015 -0.3825
  447MOL0     H59002   5.562   0.941   5.476 -0.9485 -0.2406 -0.4107
  447MOL0     H59003   4.875   0.589   5.125 -1.0743  0.1580  0.8979
  447MOL0     H59004   4.770   0.359   5.121  0.0988  1.0111  0.1834
  448MOL0     O59005   7.955   6.012   2.829  1.1531  0.9169 -0.8584
  448MOL0     C59006   7.930   6.073   2.732 -0.0690 -0.4727 -0.5441
  448MOL0     O59007   7.810   6.118   2.697 -0.1505  0.9277 -0.4201
  448MOL0     C59008   7.696   6.086   2.781  0.0253  0.4627 -0.2564
  448MOL0     C59009   7.680   6.168   2.896 -0.1041  0.0240  1.0513
  448MOL0     C59010   7.577   6.135   2.991  0.3916 -0.8138 -0.3190
  448MOL0     C59011   7.495   6.018   2.968 -0.9741 -0.3123 -0.0197
  448MOL0     O59012   7.399   5.975   3.054  0.3936  0.5297 -0.3082
  448MOL0     C59013   7.371   6.045   3.177  0.5042  0.4034 -0.0974
  448MOL0     C59014   7.266   6.156   3.155  0.3918 -0.7396 -0.5402
  448MOL0     C59015   7.231   6.236   3.282 -0.1183 -0.3805  0.0608
  448MOL0     C59016   7.288   6.374   3.292 -0.1042  0.1521 -0.4225
  448MOL0     C59017   7.280   6.434   3.432  0.3028 -0.1564  0.8108
  448MOL0     C59018   7.373   6.554   3.460  0.1193 -0.1196 -0.2164
  448MOL0     C59019   7.328   6.680   3.374 -0.3423 -0.5570 -0.0567
  448MOL0     C59020   7.336   6.812   3.443 -0.7679  0.6645  0.3500
  448MOL0     N59021   7.289   6.914   3.356  0.7939  0.2776  0.2858
  448MOL0     C59022   7.203   7.008   3.401 -0.5554  0.0570  0.4482
  448MOL0     C59023   7.165   7.073   3.297 -0.3600 -0.2729  0.5277
  448MOL0     C59024   7.056   7.171   3.297  0.9014 -0.1007  0.6847
  448MOL0     C59025   7.104   7.296   3.220  0.2720 -0.7589  0.4022
  448MOL0     C59026   7.000   7.400   3.230  0.3539  0.4355  0.2928
  448MOL0     C59027   7.027   7.525   3.145  0.0304  1.2338 -0.2325
  448MOL0     O59028   7.026   7.485   3.013  1.0234 -0.7469 -0.4566
  448MOL0     C59029   7.091   7.574   2.925  0.7003  0.0820  0.2898
  448MOL0     C59030   7.113   7.714   2.946 -0.3633 -0.3540 -0.1869
  448MOL0     C59031   7.164   7.790   2.844 -0.2770  0.0758  1.3189
  448MOL0     C59032   7.190   7.728   2.724  0.4651  0.4003  1.4217
  448MOL0     C59033   7.259   7.808   2.613 -1.6554 -1.2199  0.6028
  448MOL0     O59034   7.304   7.936   2.653 -0.1856  0.0963 -0.1093
  448MOL0     C59035   7.354   8.028   2.563 -0.6288  0.5257  0.0664
  448MOL0     C59036   7.334   8.032   2.416 -0.3458  0.9887  0.2236
  448MOL0     C59037   7.406   8.128   2.343 -1.9299 -0.2494  0.0570
  448MOL0     C59038   7.482   8.233   2.391 -0.3115  0.6697  0.0974
  448MOL0     O59039   7.564   8.315   2.318  0.4143 -0.7857 -0.3545
  448MOL0     C59040   7.618   8.264   2.200 -0.1126 -0.0276 -0.7402
  448MOL0     C59041   7.730   8.361   2.166 -0.0030 -1.3474  0.1427
  448MOL0     C59042   7.779   8.334   2.021 -0.9621 -0.0495  0.4123
  448MOL0     C59043   7.921   8.392   1.997 -0.5866 -0.3041  0.4447
  448MOL0     C59044   7.982   8.342   1.870 -0.7981  0.9466 -0.0794
  448MOL0     C59045   8.107   8.406   1.816 -0.0882  0.9980 -1.5687
  448MOL0     C59046   8.156   8.345   1.691  0.0093  0.7969  0.1349
  448MOL0     C59047   8.294   8.412   1.663 -0.0450 -0.4025 -0.3749
  448MOL0    Cl59048   8.326   8.325   1.507 -0.0061 -0.5130  0.1648
  448MOL0     C59049   7.486   8.244   2.535 -0.2714 -0.0774  0.3668
  448MOL0     C59050   7.429   8.144   2.613  0.7625 -0.2591 -1.5954
  448MOL0     O59051   7.267   7.751   2.505  1.6803 -0.0199 -0.6719
  448MOL0     C59052   7.165   7.594   2.702 -0.1292 -0.7837  0.5351
  448MOL0     C59053   7.116   7.511   2.802  0.0901 -0.2031 -0.6642
  448MOL0     N59054   7.223   7.022   3.179  0.1431 -0.8955 -0.6408
  448MOL0     N59055   7.303   6.925   3.222 -0.5381 -0.2411 -0.1010
  448MOL0     C59056   7.520   5.936   2.856 -0.0568  0.5254  0.2261
  448MOL0     C59057   7.621   5.968   2.773  0.2847 -0.2777 -0.1895
  448MOL0     C59058   8.035   6.093   2.634  0.4661  0.7610 -0.3672
  448MOL0     C59059   8.168   6.053   2.672  0.8401 -0.2055  0.6182
  448MOL0     C59060   8.272   6.076   2.583 -0.0421 -0.0656  1.0354
  448MOL0     C59061   8.238   6.127   2.454 -0.8709 -1.0857  0.0934
  448MOL0     O59062   8.349   6.155   2.371 -0.3000  0.2973  0.2260
  448MOL0     C59063   8.324   6.107   2.238  0.2655  1.2667 -0.2088
  448MOL0     C59064   8.447   6.128   2.142  0.5296 -0.3953 -0.3920
  448MOL0     C59065   8.476   6.281   2.145 -0.5468  0.2312 -0.2490
  448MOL0     C59066   8.589   6.328   2.044 -0.1360  1.1579  0.3916
  448MOL0     C59067   8.696   6.386   2.121 -0.9343  0.2070 -0.1296
  448MOL0     C59068   8.781   6.438   2.197 -0.2187 -0.6697 -0.2863
  448MOL0     C59069   8.111   6.151   2.416  0.6177  0.3045 -0.4672
  448MOL0     C59070   8.012   6.138   2.512 -0.2743 -0.5554  0.9992
  448MOL0     H59071   7.740   6.258   2.908  1.2320 -0.8392  1.1411
  448MOL0     H59072   7.567   6.213   3.066 -0.3712  0.3114 -1.5311
  448MOL0     H59073   7.466   6.078   3.220  1.4930 -2.7907  0.4433
  448MOL0     H59074   7.325   5.969   3.242 -2.5879  2.0354 -0.1769
  448MOL0     H59075   7.175   6.119   3.107 -0.4268 -1.2993  1.3428
  448MOL0     H59076   7.308   6.225   3.081  0.3510 -1.2254 -1.0223
  448MOL0     H59077   7.265   6.175   3.367  1.6540  1.3554  0.6631
  448MOL0     H59078   7.123   6.253   3.287  0.2105  3.3131 -1.9579
  448MOL0     H59079   7.395   6.360   3.278 -0.1864 -1.3176  0.2766
  448MOL0     H59080   7.264   6.441   3.208  0.7412  1.7736  0.5908
  448MOL0     H59081   7.318   6.360   3.503 -1.3109 -1.6717  0.1648
  448MOL0     H59082   7.174   6.458   3.432  0.1599 -0.6057 -1.2513
  448MOL0     H59083   7.473   6.531   3.425  0.6034  2.4153 -0.7169
  448MOL0     H59084   7.367   6.576   3.567 -3.6246  2.5657 -0.7517
  448MOL0     H59085   7.386   6.674   3.281  1.6040  0.6298  0.9896
  448MOL0     H59086   7.226   6.669   3.338 -0.2471  4.4021 -2.7530
  448MOL0     H59087   7.439   6.834   3.474 -1.5221  1.3125  2.6319
  448MOL0     H59088   7.273   6.793   3.531  1.1601 -2.3241  1.2217
  448MOL0     H59089   7.172   7.018   3.505 -0.2407 -2.2154  0.8100
  448MOL0     H59090   7.029   7.214   3.394  0.0492 -0.8518  0.7943
  448MOL0     H59091   6.966   7.133   3.248 -1.0496  4.5987  0.0699
  448MOL0     H59092   7.118   7.268   3.115 -3.8851 -1.4938 -0.1346
  448MOL0     H59093   7.199   7.334   3.259 -0.6277  0.5403  1.3833
  448MOL0     H59094   6.906   7.355   3.198  0.2960  1.4287 -1.0116
  448MOL0     H59095   6.993   7.430   3.335  0.2233  4.1291 -0.6282
  448MOL0     H59096   7.124   7.571   3.167  0.2377  2.3765 -3.0872
  448MOL0     H59097   6.954   7.606   3.153  0.7422  1.7356  1.8504
  448MOL0     H59098   7.097   7.758   3.043  2.6006 -2.6867  1.5417
  448MOL0     H59099   7.191   7.895   2.850  2.0207 -0.4972  2.5395
  448MOL0     H59100   7.278   7.953   2.368  0.8554 -1.6895  2.8840
  448MOL0     H59101   7.405   8.100   2.238 -2.1145  3.7158 -1.1474
  448MOL0     H59102   7.540   8.262   2.124 -1.1350  1.6170  0.1946
  448MOL0     H59103   7.654   8.163   2.219 -1.7987  0.1261  5.7052
  448MOL0     H59104   7.808   8.355   2.243 -0.3857  1.7576  0.8843
  448MOL0     H59105   7.688   8.462   2.167 -2.5034 -2.2972 -0.1733
  448MOL0     H59106   7.716   8.385   1.947  0.5041  2.6814  0.9238
  448MOL0     H59107   7.785   8.226   2.005 -0.1018 -0.3690  2.6007
  448MOL0     H59108   7.922   8.502   1.991  2.8852 -0.2585 -0.3976
  448MOL0     H59109   7.985   8.371   2.084 -0.1532 -1.8875 -0.2241
  448MOL0     H59110   7.904   8.367   1.797 -0.4743  4.2707  0.5715
  448MOL0     H59111   8.003   8.236   1.888  4.0247  1.0370 -3.3415
  448MOL0     H59112   8.187   8.429   1.886 -1.4500  2.7883 -0.5414
  448MOL0     H59113   8.083   8.508   1.785 -1.6233  0.2375 -3.0571
  448MOL0     H59114   8.160   8.237   1.705 -0.7023  0.9580  1.8548
  448MOL0     H59115   8.083   8.363   1.611  0.0853 -1.7610 -0.5701
  448MOL0     H59116   8.363   8.387   1.744  0.1165 -0.6221 -0.5795
  448MOL0     H59117   8.286   8.520   1.655  1.1490 -0.3250 -0.6194
  448MOL0     H59118   7.533   8.333   2.574  1.4274 -0.0047 -1.6810
  448MOL0     H59119   7.430   8.154   2.721 -0.3461  1.6534 -1.7227
  448MOL0     H59120   7.205   7.550   2.611  1.3028  0.1501  0.6898
  448MOL0     H59121   7.106   7.403   2.796 -1.5288 -0.0276 -1.7243
  448MOL0     H59122   7.462   5.845   2.843 -0.7749  1.0788 -0.5180
  448MOL0     H59123   7.642   5.909   2.684 -2.6251 -0.8963 -0.5599
  448MOL0     H59124   8.187   6.021   2.774  0.9887  1.1240  1.0265
  448MOL0     H59125   8.376   6.058   2.608  0.2760 -0.8454 -0.7075
  448MOL0     H59126   8.237   6.147   2.184  0.4418  0.5458 -1.0521
  448MOL0     H59127   8.303   6.000   2.245 -1.8618  1.7063  1.2973
  448MOL0     H59128   8.530   6.067   2.179 -0.4078 -1.5372 -0.0905
  448MOL0     H59129   8.425   6.084   2.044  2.1378  1.7968 -1.8249
  448MOL0     H59130   8.510   6.301   2.247 -0.6657  0.7617 -0.3125
  448MOL0     H59131   8.382   6.338   2.147 -1.2450 -0.8666  2.0893
  448MOL0     H59132   8.617   6.252   1.970  1.4391  2.2499 -0.2083
  448MOL0     H59133   8.537   6.393   1.973  0.6388  1.4100  0.0337
  448MOL0     H59134   8.849   6.482   2.267  0.1723 -4.2631  1.9123
  448MOL0     H59135   8.087   6.200   2.322  1.1397  1.6594  0.0821
  448MOL0     H59136   7.917   6.182   2.482 -0.0684 -1.6817 -1.5302
  449MOL0     O59137   1.815   0.456  10.665  0.2857 -0.4059  0.6363
  449MOL0     C59138   1.727   0.533  10.626  0.0691 -1.2122  0.8165
  449MOL0     O59139   1.595   0.503  10.597  0.5873  0.8016  0.6929
  449MOL0     C59140   1.553   0.388  10.671  0.6055 -0.6305  0.4580
  449MOL0     C59141   1.517   0.272  10.604 -0.1488 -0.3908 -0.0866
  449MOL0     C59142   1.473   0.160  10.680 -0.5393  0.0052  0.4466
  449MOL0     C59143   1.481   0.155  10.816 -0.2245  1.2542  0.7978
  449MOL0     O59144   1.438   0.053  10.894 -0.0576  0.8609 -0.4099
  449MOL0     C59145   1.375  -0.065  10.842 -0.4386 -0.5828 -0.4611
  449MOL0     C59146   1.433  -0.178  10.930 -0.5544 -0.6683  0.1953
  449MOL0     C59147   1.351  -0.191  11.063 -0.5140  0.6757  0.2548
  449MOL0     C59148   1.418  -0.301  11.140  0.0848 -0.2115 -1.0728
  449MOL0     C59149   1.330  -0.370  11.254 -0.4642  0.5197  0.9748
  449MOL0     C59150   1.368  -0.520  11.256 -1.1352  0.6742 -0.4077
  449MOL0     C59151   1.516  -0.555  11.319  1.0009 -0.5155 -0.1046
  449MOL0     C59152   1.509  -0.699  11.372 -0.2066 -0.3040 -0.5270
  449MOL0     N59153   1.461  -0.800  11.270  0.0759  0.1406 -0.0034
  449MOL0     C59154   1.362  -0.889  11.286  0.5803 -0.0879 -0.4092
  449MOL0     C59155   1.362  -0.949  11.162 -0.3112  0.4147  1.0149
  449MOL0     C59156   1.248  -1.038  11.122 -0.2215 -0.2983 -0.5425
  449MOL0     C59157   1.250  -1.086  10.978  0.2587  0.4043  0.0617
  449MOL0     C59158   1.124  -1.163  10.937 -0.0909 -0.1906  0.1153
  449MOL0     C59159   1.108  -1.294  11.011  0.1654  0.5885  0.7406
  449MOL0     O59160   1.061  -1.273  11.146  0.1873  0.2998  0.7170
  449MOL0     C59161   0.958  -1.362  11.190 -0.4385 -0.4027  0.2048
  449MOL0     C59162   0.945  -1.406  11.329 -1.0782  0.4939  0.8724
  449MOL0     C59163   0.857  -1.501  11.382 -0.2537 -0.3894  0.9291
  449MOL0     C59164   0.764  -1.548  11.287 -0.3159 -0.5341 -0.4792
  449MOL0     C59165   0.667  -1.636  11.340 -0.7124  1.1876  0.4182
  449MOL0     O59166   0.598  -1.598  11.453  0.4444  0.4111  0.1696
  449MOL0     C59167   0.504  -1.687  11.501 -0.3280  0.2420 -0.4716
  449MOL0     C59168   0.406  -1.751  11.419 -0.4473  0.7726  0.1141
  449MOL0     C59169   0.322  -1.847  11.485 -0.9856 -0.0425 -0.1706
  449MOL0     C59170   0.322  -1.862  11.623  0.1137  0.0086 -0.0299
  449MOL0     O59171   0.238  -1.948  11.687 -0.6599 -0.3118  0.0398
  449MOL0     C59172   0.188  -1.905  11.807  0.4606 -0.7381  0.2718
  449MOL0     C59173   0.070  -1.990  11.856  0.9274  0.5337 -0.5365
  449MOL0     C59174  -0.035  -1.975  11.746 -0.7198 -0.8203 -0.1064
  449MOL0     C59175  -0.135  -1.874  11.772 -0.0997  0.5951 -0.1352
  449MOL0     C59176  -0.239  -1.888  11.661  0.9802 -0.4383 -0.0789
  449MOL0     C59177  -0.308  -2.020  11.659  0.0051 -0.3311 -0.2059
  449MOL0     C59178  -0.443  -2.016  11.588  0.6541 -1.2073 -0.9384
  449MOL0     C59179  -0.551  -1.953  11.683 -0.8322  0.0067 -0.0002
  449MOL0    Cl59180  -0.557  -2.021  11.856  0.2168  0.2280  0.3719
  449MOL0     C59181   0.418  -1.789  11.698  0.4330  0.2284  0.3519
  449MOL0     C59182   0.509  -1.710  11.634 -0.4900 -0.5662  0.0687
  449MOL0     O59183   0.666  -1.750  11.287 -0.5095 -0.4129 -0.4956
  449MOL0     C59184   0.753  -1.500  11.158  0.0657  0.4797 -0.8221
  449MOL0     C59185   0.853  -1.411  11.109  1.5233 -0.2771  0.0019
  449MOL0     N59186   1.468  -0.911  11.084 -0.5249  0.3336  0.2165
  449MOL0     N59187   1.534  -0.822  11.150 -0.3337  0.8528 -0.4243
  449MOL0     C59188   1.537   0.271  10.878 -0.0278  0.6969 -0.9473
  449MOL0     C59189   1.556   0.388  10.812  0.3279 -0.2342 -0.6024
  449MOL0     C59190   1.758   0.676  10.613 -0.7976  0.5098 -0.0954
  449MOL0     C59191   1.886   0.726  10.655  0.7026  1.0723  0.2769
  449MOL0     C59192   1.901   0.868  10.649 -0.9001  0.5133  0.1288
  449MOL0     C59193   1.804   0.959  10.622  0.7490  0.3913 -0.3483
  449MOL0     O59194   1.839   1.090  10.612  0.2511 -0.6240 -0.4251
  449MOL0     C59195   1.761   1.190  10.687  0.3091  0.1055 -0.4243
  449MOL0     C59196   1.840   1.313  10.724  0.4679 -0.2796 -0.2470
  449MOL0     C59197   1.938   1.264  10.833  0.3095  0.2741 -0.9322
  449MOL0     C59198   2.036   1.368  10.887  0.4140 -0.1581  0.7042
  449MOL0     C59199   2.130   1.413  10.780 -0.9590  0.1377 -0.7111
  449MOL0     C59200   2.217   1.427  10.698  0.2326  0.9072  1.2618
  449MOL0     C59201   1.683   0.906  10.584  0.0937  0.3237  0.4738
  449MOL0     C59202   1.658   0.767  10.577 -0.0177 -0.1448  0.5003
  449MOL0     H59203   1.531   0.257  10.497 -0.0268 -1.1523  0.0283
  449MOL0     H59204   1.441   0.075  10.620 -1.8607  0.5686  0.3331
  449MOL0     H59205   1.397  -0.092  10.738 -0.0914  1.3553 -0.9307
  449MOL0     H59206   1.267  -0.049  10.844 -0.3528  0.1301 -0.9062
  449MOL0     H59207   1.538  -0.158  10.950 -0.8710  1.4367 -0.0609
  449MOL0     H59208   1.437  -0.274  10.877 -0.6594  0.4692 -1.9941
  449MOL0     H59209   1.250  -0.224  11.040 -0.6156 -1.0966  2.7854
  449MOL0     H59210   1.333  -0.103  11.126 -3.5367 -0.8181  1.6632
  449MOL0     H59211   1.454  -0.379  11.073  5.4286  1.3566 -0.4885
  449MOL0     H59212   1.511  -0.262  11.183  0.6700 -4.3277  1.9842
  449MOL0     H59213   1.224  -0.346  11.244 -0.8405 -0.4617  2.3024
  449MOL0     H59214   1.361  -0.327  11.350  2.6969 -0.5731  0.5687
  449MOL0     H59215   1.358  -0.549  11.152 -2.5336  2.0584 -0.6985
  449MOL0     H59216   1.296  -0.574  11.319 -1.4793  0.8619 -0.6392
  449MOL0     H59217   1.592  -0.547  11.240  1.2959  1.6030  0.3412
  449MOL0     H59218   1.541  -0.478  11.392 -2.0403 -0.0492  0.5891
  449MOL0     H59219   1.434  -0.697  11.452  0.8300 -0.1853  0.4714
  449MOL0     H59220   1.606  -0.726  11.415 -0.7639 -2.3063 -0.4120
  449MOL0     H59221   1.292  -0.905  11.367  1.9581 -1.7229  0.5132
  449MOL0     H59222   1.168  -0.973  11.158  0.6169 -0.1576  1.2043
  449MOL0     H59223   1.249  -1.120  11.195  1.5043  0.5663  0.4816
  449MOL0     H59224   1.340  -1.145  10.955 -0.0419 -0.0233 -0.0392
  449MOL0     H59225   1.263  -1.002  10.908  1.9178  0.9169  0.9248
  449MOL0     H59226   1.035  -1.101  10.948 -1.3313 -2.0683  1.2142
  449MOL0     H59227   1.138  -1.179  10.829 -0.1560  2.2956 -0.3101
  449MOL0     H59228   1.204  -1.348  11.015  0.4967  1.1948  1.4048
  449MOL0     H59229   1.032  -1.344  10.951  2.2119  0.4797 -1.9595
  449MOL0     H59230   1.020  -1.356  11.390  0.2521  2.4289 -2.1291
  449MOL0     H59231   0.857  -1.537  11.484  1.2867 -2.6344  0.2255
  449MOL0     H59232   0.411  -1.729  11.313  1.6005 -0.6536 -0.1599
  449MOL0     H59233   0.256  -1.914  11.431 -0.4313 -1.3244  0.6801
  449MOL0     H59234   0.135  -1.810  11.794 -2.9031 -2.3914  0.8035
  449MOL0     H59235   0.256  -1.895  11.892  0.0565  4.0504  0.3026
  449MOL0     H59236   0.032  -1.953  11.951 -0.1129 -0.2488 -0.6346
  449MOL0     H59237   0.101  -2.095  11.864 -1.0533 -0.2082 -1.8362
  449MOL0     H59238  -0.062  -2.081  11.737 -0.3428 -0.8234 -1.3617
  449MOL0     H59239   0.006  -1.959  11.646 -0.1375 -0.2096  0.2196
  449MOL0     H59240  -0.190  -1.874  11.867 -0.7179  3.4050 -0.4198
  449MOL0     H59241  -0.077  -1.781  11.779  2.9804 -1.1994 -0.0504
  449MOL0     H59242  -0.193  -1.881  11.562  0.4280 -3.5568 -0.6601
  449MOL0     H59243  -0.316  -1.810  11.668  2.0606  0.8224 -1.4746
  449MOL0     H59244  -0.326  -2.050  11.762  0.2982 -2.0294 -0.6175
  449MOL0     H59245  -0.250  -2.097  11.608  1.2262  1.3672 -1.4859
  449MOL0     H59246  -0.426  -1.967  11.491 -2.1214 -3.3416 -2.6805
  449MOL0     H59247  -0.472  -2.116  11.554 -0.5531 -1.5302  0.9309
  449MOL0     H59248  -0.652  -1.956  11.643 -0.7302 -0.6839 -0.2112
  449MOL0     H59249  -0.541  -1.846  11.703 -0.2416 -0.1997  0.8817
  449MOL0     H59250   0.430  -1.805  11.805 -5.1086  0.6083  1.3536
  449MOL0     H59251   0.594  -1.659  11.679  0.2068  0.5527 -2.3277
  449MOL0     H59252   0.661  -1.520  11.104  0.5017  0.7695 -1.6939
  449MOL0     H59253   0.836  -1.370  11.010  2.3463 -0.8730 -0.3974
  449MOL0     H59254   1.566   0.253  10.981  0.9563  0.5435 -1.2416
  449MOL0     H59255   1.585   0.473  10.873 -0.7911 -2.3806  3.2674
  449MOL0     H59256   1.944   0.653  10.711 -0.9531 -2.4964 -2.2577
  449MOL0     H59257   1.994   0.905  10.692 -1.3051  2.7255 -0.8072
  449MOL0     H59258   1.718   1.139  10.774 -0.6419 -1.7519 -1.9090
  449MOL0     H59259   1.675   1.220  10.627 -1.4242 -0.8279  1.4869
  449MOL0     H59260   1.886   1.361  10.637 -3.6825  0.9300 -2.0459
  449MOL0     H59261   1.782   1.402  10.753  2.3707  1.6165 -1.9109
  449MOL0     H59262   2.006   1.197  10.780  0.3447  0.8047 -1.5732
  449MOL0     H59263   1.887   1.222  10.920 -2.5347 -0.1342 -2.6542
  449MOL0     H59264   1.975   1.451  10.924 -3.0185 -1.6205 -1.1305
  449MOL0     H59265   2.100   1.324  10.964  0.2538  0.2148  1.0536
  449MOL0     H59266   2.288   1.435  10.618 -1.2180  0.2531 -0.1636
  449MOL0     H59267   1.609   0.976  10.547 -2.0583 -2.9337 -1.9467
  449MOL0     H59268   1.560   0.737  10.541 -0.1850  1.6584 -0.6623
  450MOL0     O59269   0.509   8.747   8.409  0.2533 -0.1316 -0.6991
  450MOL0     C59270   0.408   8.807   8.452  0.3358 -0.4765  0.0968
  450MOL0     O59271   0.395   8.944   8.448  0.3733  0.3761  0.0497
  450MOL0     C59272   0.504   9.032   8.463  1.4720 -0.1341 -0.4516
  450MOL0     C59273   0.477   9.161   8.419  0.1915  0.9243  0.1432
  450MOL0     C59274   0.570   9.255   8.433  0.1372 -0.1048 -0.9444
  450MOL0     C59275   0.703   9.239   8.472 -1.0185 -0.7099  0.0446
  450MOL0     O59276   0.790   9.341   8.460  0.3173  0.2505 -0.0129
  450MOL0     C59277   0.926   9.305   8.418  0.5535 -0.4730 -0.6344
  450MOL0     C59278   1.003   9.413   8.363 -0.1297 -0.1275 -0.0147
  450MOL0     C59279   1.132   9.368   8.298 -0.3520  0.5215  0.2102
  450MOL0     C59280   1.120   9.337   8.148  0.4992  0.1653  0.1381
  450MOL0     C59281   1.254   9.295   8.091  0.0297  0.5815  0.6448
  450MOL0     C59282   1.267   9.278   7.940 -0.0379  0.0285 -0.4661
  450MOL0     C59283   1.182   9.174   7.878  0.2981 -0.2193 -0.5579
  450MOL0     C59284   1.196   9.146   7.725 -0.0263 -0.1340 -0.0605
  450MOL0     N59285   1.123   9.025   7.688  0.0701  1.4532  0.3914
  450MOL0     C59286   0.992   9.001   7.702 -0.3854  0.7944 -0.7096
  450MOL0     C59287   0.957   8.874   7.676 -0.0863  0.1328 -1.2575
  450MOL0     C59288   0.824   8.807   7.673  0.0118  0.7583  0.2944
  450MOL0     C59289   0.825   8.659   7.705  0.3695  0.3074  0.2236
  450MOL0     C59290   0.697   8.602   7.772 -0.3850 -0.8720 -0.3140
  450MOL0     C59291   0.695   8.454   7.805 -0.3677  0.0286  0.0285
  450MOL0     O59292   0.769   8.432   7.936  0.1835  0.7032  0.6525
  450MOL0     C59293   0.880   8.354   7.940 -0.2649  0.5023  0.8734
  450MOL0     C59294   0.902   8.282   8.060  0.6405  0.2431  0.1748
  450MOL0     C59295   1.011   8.209   8.083  0.3659 -0.4779 -0.3145
  450MOL0     C59296   1.107   8.211   7.983  0.2288  0.4700  0.5691
  450MOL0     C59297   1.228   8.140   8.019 -0.5864 -0.6306  0.2427
  450MOL0     O59298   1.250   8.108   8.152  0.6217 -0.5263  0.0167
  450MOL0     C59299   1.361   8.042   8.184 -0.1442  0.0799 -0.1467
  450MOL0     C59300   1.455   8.107   8.265 -0.5078 -0.1364 -0.6821
  450MOL0     C59301   1.573   8.053   8.321 -1.0059 -1.5468  0.2758
  450MOL0     C59302   1.607   7.928   8.275 -0.2038  1.7294  0.1907
  450MOL0     O59303   1.738   7.898   8.318  0.6577  0.1505 -0.3999
  450MOL0     C59304   1.779   7.765   8.273 -0.9419  0.6904  0.1155
  450MOL0     C59305   1.913   7.738   8.356 -0.4855  0.8014 -0.4624
  450MOL0     C59306   1.902   7.753   8.506  0.6027  0.0032 -0.1289
  450MOL0     C59307   1.809   7.644   8.568 -0.5577 -0.3748  0.3153
  450MOL0     C59308   1.746   7.708   8.696 -0.2890 -0.1380  0.5889
  450MOL0     C59309   1.650   7.823   8.684  0.6402  0.1936  0.1793
  450MOL0     C59310   1.679   7.930   8.794  0.2174 -0.0587  0.3172
  450MOL0     C59311   1.558   8.017   8.826 -0.3483 -1.2304 -0.4291
  450MOL0    Cl59312   1.478   8.088   8.680  0.0657  0.5782  0.3094
  450MOL0     C59313   1.519   7.860   8.182 -0.6867  0.1519 -0.4521
  450MOL0     C59314   1.392   7.907   8.153  0.7935  0.8743 -0.8614
  450MOL0     O59315   1.307   8.109   7.926  0.1414  0.0522  0.0405
  450MOL0     C59316   1.089   8.277   7.853 -0.0301  0.7288  0.3402
  450MOL0     C59317   0.969   8.343   7.833  0.8463  0.5546  0.6144
  450MOL0     N59318   1.078   8.821   7.628  0.1005  0.5201  0.1642
  450MOL0     N59319   1.175   8.907   7.645  0.4061 -0.4609 -0.0982
  450MOL0     C59320   0.731   9.114   8.529  0.2226 -0.2103  0.4147
  450MOL0     C59321   0.630   9.012   8.525  0.1471 -0.1983  0.0578
  450MOL0     C59322   0.304   8.720   8.509 -0.3682  0.8197 -1.0095
  450MOL0     C59323   0.334   8.590   8.567  0.2543  0.6564 -0.0298
  450MOL0     C59324   0.231   8.507   8.614 -0.2535 -0.1320  0.2107
  450MOL0     C59325   0.101   8.544   8.598  0.6437  0.7837  0.8327
  450MOL0     O59326   0.007   8.449   8.646  0.0437  0.2174  0.2977
  450MOL0     C59327  -0.132   8.479   8.624 -0.3902  1.1043 -0.1126
  450MOL0     C59328  -0.208   8.351   8.622 -0.9509  0.3625 -0.7509
  450MOL0     C59329  -0.167   8.250   8.516 -0.3172  0.1315 -0.0810
  450MOL0     C59330  -0.206   8.274   8.369  0.7231 -0.8899  0.4465
  450MOL0     C59331  -0.116   8.368   8.294 -0.2261  0.1549  0.1560
  450MOL0     C59332  -0.041   8.428   8.229  0.6425 -0.3843  0.7561
  450MOL0     C59333   0.064   8.662   8.524  0.1129 -0.3146 -0.4890
  450MOL0     C59334   0.161   8.743   8.478 -0.6677 -0.8542 -0.0759
  450MOL0     H59335   0.388   9.198   8.371  1.7837  1.1273 -2.8839
  450MOL0     H59336   0.544   9.352   8.392  2.3447 -0.0759 -2.4640
  450MOL0     H59337   0.920   9.237   8.333 -0.9449  0.0749 -0.9904
  450MOL0     H59338   0.981   9.271   8.507 -0.6222 -0.8472 -0.0243
  450MOL0     H59339   1.037   9.473   8.448  0.9982 -1.8220  0.7983
  450MOL0     H59340   0.943   9.469   8.291 -2.3598 -0.3748  1.5535
  450MOL0     H59341   1.171   9.287   8.360  0.7155  0.8748  0.0267
  450MOL0     H59342   1.211   9.443   8.315 -1.5004  1.8822 -0.2557
  450MOL0     H59343   1.055   9.253   8.124  0.7942 -0.3838  1.2173
  450MOL0     H59344   1.070   9.415   8.089  0.4992  0.5015  0.5783
  450MOL0     H59345   1.275   9.201   8.142  1.2252  0.2155 -0.4454
  450MOL0     H59346   1.332   9.365   8.123  0.6689  2.3216 -3.8587
  450MOL0     H59347   1.373   9.270   7.914  0.9218  3.1220  1.8838
  450MOL0     H59348   1.226   9.366   7.889 -1.7279 -0.8368 -0.6718
  450MOL0     H59349   1.214   9.081   7.925  4.2569  0.8683 -0.7282
  450MOL0     H59350   1.077   9.201   7.898  0.3779 -0.6989  0.6047
  450MOL0     H59351   1.300   9.140   7.692  0.1449 -2.7217  0.7349
  450MOL0     H59352   1.168   9.235   7.667  2.5535  2.8650  2.8501
  450MOL0     H59353   0.921   9.079   7.727  0.5427  1.0992  1.1842
  450MOL0     H59354   0.780   8.824   7.574  2.3126  2.3762 -0.5511
  450MOL0     H59355   0.761   8.856   7.747 -0.4759 -0.1812  0.5175
  450MOL0     H59356   0.900   8.645   7.783  0.6361  1.1706  0.1296
  450MOL0     H59357   0.858   8.597   7.621  1.3144  2.4775 -1.0828
  450MOL0     H59358   0.665   8.661   7.858  0.2751 -0.7164 -0.1743
  450MOL0     H59359   0.619   8.618   7.696 -1.6901 -0.6298  1.0168
  450MOL0     H59360   0.733   8.390   7.725  0.0584 -0.0098  0.2606
  450MOL0     H59361   0.594   8.429   7.838  1.0563 -1.0715  4.2291
  450MOL0     H59362   0.841   8.276   8.150  2.3728  0.7743  1.4254
  450MOL0     H59363   1.023   8.161   8.179 -2.2197 -1.6665 -0.5109
  450MOL0     H59364   1.428   8.206   8.301 -0.5452 -0.0235 -1.0147
  450MOL0     H59365   1.627   8.114   8.393 -1.2606 -1.7336  0.6330
  450MOL0     H59366   1.800   7.771   8.166 -1.7934  2.7792  0.0300
  450MOL0     H59367   1.705   7.689   8.301 -1.8975  1.3767 -0.5516
  450MOL0     H59368   1.987   7.810   8.319  1.1462 -0.4362  0.2379
  450MOL0     H59369   1.948   7.638   8.329 -1.0357  0.8803 -1.5179
  450MOL0     H59370   1.871   7.855   8.532  3.6997  0.5939  1.8715
  450MOL0     H59371   1.983   7.733   8.576 -1.6967 -0.9103  2.4254
  450MOL0     H59372   1.725   7.631   8.499 -1.3274 -0.6277  1.2759
  450MOL0     H59373   1.857   7.548   8.590  1.4634  0.9986  2.3121
  450MOL0     H59374   1.827   7.734   8.765  1.0012 -0.4865 -0.7171
  450MOL0     H59375   1.694   7.627   8.747  1.2349 -1.8937 -0.4947
  450MOL0     H59376   1.552   7.775   8.690  1.3268 -2.0372 -3.2176
  450MOL0     H59377   1.648   7.865   8.583 -1.3322  1.8780  0.8617
  450MOL0     H59378   1.719   7.889   8.887  0.8442 -4.1460 -1.5125
  450MOL0     H59379   1.756   8.003   8.765 -0.5145  1.8072  2.7606
  450MOL0     H59380   1.599   8.096   8.889  1.8105 -3.3726  1.0563
  450MOL0     H59381   1.488   7.962   8.891 -0.2128 -0.2394  0.5760
  450MOL0     H59382   1.555   7.763   8.151  2.4739  1.8555 -2.7653
  450MOL0     H59383   1.324   7.839   8.103 -0.1982  1.4770 -0.3660
  450MOL0     H59384   1.164   8.273   7.775  0.8651  1.5793  1.1481
  450MOL0     H59385   0.955   8.395   7.739  2.4326  1.2209  0.7202
  450MOL0     H59386   0.826   9.099   8.580  1.3900  0.0701 -1.5854
  450MOL0     H59387   0.646   8.918   8.577 -2.0220 -0.3880  0.4697
  450MOL0     H59388   0.437   8.554   8.569  0.1882  0.4356 -0.4611
  450MOL0     H59389   0.259   8.417   8.667  1.1196 -1.0561 -1.9474
  450MOL0     H59390  -0.143   8.535   8.531 -0.1542  2.7370  0.8031
  450MOL0     H59391  -0.175   8.537   8.707  2.8460 -0.2554  2.7661
  450MOL0     H59392  -0.172   8.302   8.713  3.5110  3.1823 -0.7248
  450MOL0     H59393  -0.316   8.369   8.625 -0.9452  0.2878  1.0966
  450MOL0     H59394  -0.215   8.155   8.544  1.6487 -1.2386 -1.1413
  450MOL0     H59395  -0.063   8.220   8.533 -1.3421 -2.0574  3.4309
  450MOL0     H59396  -0.203   8.187   8.302  1.9390 -0.1043 -0.5585
  450MOL0     H59397  -0.308   8.312   8.365  1.0901  0.2287  1.1180
  450MOL0     H59398   0.035   8.495   8.193 -1.0132  1.8749  1.2190
  450MOL0     H59399  -0.037   8.697   8.507 -1.7874 -4.7370  0.3230
  450MOL0     H59400   0.125   8.837   8.436 -3.1739  0.5633  4.5198
  451MOL0     O59401   4.937   2.150   2.849 -0.1808  0.7191 -0.1619
  451MOL0     C59402   5.033   2.210   2.799 -0.3857 -0.0064  0.0099
  451MOL0     O59403   5.167   2.164   2.811 -0.2448 -0.6606 -0.0447
  451MOL0     C59404   5.187   2.073   2.899  0.4851  1.2823  0.5674
  451MOL0     C59405   5.184   2.085   3.036 -1.2817 -0.0089  0.6439
  451MOL0     C59406   5.197   1.980   3.133  0.5285 -0.0258  0.4656
  451MOL0     C59407   5.222   1.852   3.083 -0.0067 -0.8319  0.0238
  451MOL0     O59408   5.227   1.759   3.180 -0.4937  0.3666  0.1631
  451MOL0     C59409   5.339   1.668   3.177 -0.5133 -0.3065 -0.0574
  451MOL0     C59410   5.288   1.540   3.255 -0.3718  0.7181  0.3617
  451MOL0     C59411   5.191   1.450   3.183 -0.4896  0.9273 -0.3382
  451MOL0     C59412   5.252   1.394   3.052 -0.3651  0.5231  1.3406
  451MOL0     C59413   5.176   1.269   3.000 -0.6284  0.4196  0.9108
  451MOL0     C59414   5.239   1.234   2.858  0.4422  0.0110  0.7448
  451MOL0     C59415   5.203   1.096   2.812 -0.8785  0.1795  0.0155
  451MOL0     C59416   5.050   1.063   2.817  0.1372 -0.3643  0.2182
  451MOL0     N59417   4.956   1.152   2.745 -0.7123 -0.6020 -0.3953
  451MOL0     C59418   4.976   1.201   2.622  0.2668 -0.3600  0.7753
  451MOL0     C59419   4.889   1.300   2.604  0.0489 -0.4389  0.1124
  451MOL0     C59420   4.880   1.401   2.491  0.6077  0.1133  0.5095
  451MOL0     C59421   4.885   1.549   2.539  0.0904 -0.4878  0.4187
  451MOL0     C59422   4.765   1.606   2.606 -0.6572  0.7793  0.4141
  451MOL0     C59423   4.811   1.748   2.669  0.2308  0.5894  0.6382
  451MOL0     O59424   4.909   1.717   2.772  0.4934  0.8950 -0.4858
  451MOL0     C59425   4.864   1.738   2.898  1.0371 -0.5083 -1.0593
  451MOL0     C59426   4.811   1.854   2.944  0.5085 -0.2373  0.0993
  451MOL0     C59427   4.761   1.875   3.075 -0.5958  0.9477 -0.6114
  451MOL0     C59428   4.774   1.769   3.171  0.9091 -0.4913  0.0920
  451MOL0     C59429   4.761   1.794   3.321  0.3194 -0.1264 -1.1236
  451MOL0     O59430   4.718   1.695   3.407  0.6178  0.0476 -0.0094
  451MOL0     C59431   4.745   1.727   3.541 -0.6944 -0.6776 -0.0493
  451MOL0     C59432   4.622   1.723   3.618 -0.4865  0.1177  0.4077
  451MOL0     C59433   4.632   1.723   3.759 -0.0544  0.4974  0.8561
  451MOL0     C59434   4.750   1.726   3.826  0.1551 -0.2398 -0.0044
  451MOL0     O59435   4.747   1.725   3.961 -0.3205  0.3174  0.7844
  451MOL0     C59436   4.791   1.607   4.035 -0.0196  0.0978  0.0520
  451MOL0     C59437   4.694   1.571   4.154 -0.5781 -1.1810  0.5057
  451MOL0     C59438   4.547   1.555   4.101 -0.3953 -0.3047  0.4461
  451MOL0     C59439   4.543   1.433   4.007 -1.1591  0.2252  0.6784
  451MOL0     C59440   4.394   1.389   3.980  0.2386  0.4211  0.1279
  451MOL0     C59441   4.329   1.292   4.075 -0.2704 -0.7422  0.3308
  451MOL0     C59442   4.374   1.146   4.063  0.3916  0.8989 -0.1788
  451MOL0     C59443   4.279   1.071   3.971 -0.8452  0.3335  1.1299
  451MOL0    Cl59444   4.305   0.906   3.967 -0.5066  0.8767 -0.0708
  451MOL0     C59445   4.869   1.733   3.752 -0.2486  0.1154  0.4656
  451MOL0     C59446   4.869   1.718   3.611  0.2480 -0.9058 -0.1019
  451MOL0     O59447   4.797   1.909   3.354  0.1618  0.1387 -0.3769
  451MOL0     C59448   4.809   1.643   3.119 -0.2587  0.2289  1.3461
  451MOL0     C59449   4.858   1.626   2.989  0.8959  0.2445 -0.0276
  451MOL0     N59450   4.800   1.294   2.714  0.5789  0.6166 -0.1374
  451MOL0     N59451   4.843   1.201   2.794 -0.1271 -0.6015 -0.4949
  451MOL0     C59452   5.222   1.829   2.945 -0.9735 -0.4163  0.2994
  451MOL0     C59453   5.213   1.940   2.854  0.5160 -0.5192  0.1657
  451MOL0     C59454   5.019   2.306   2.683  1.0921 -2.0593 -0.0477
  451MOL0     C59455   5.132   2.374   2.641 -0.2513 -0.1025  0.5349
  451MOL0     C59456   5.123   2.453   2.529  0.0775 -0.8815 -0.1968
  451MOL0     C59457   5.006   2.484   2.462 -0.3991 -0.6214  0.0686
  451MOL0     O59458   4.994   2.572   2.355  0.7264 -0.6983  0.3858
  451MOL0     C59459   5.103   2.610   2.266 -0.4467 -0.0462  0.8809
  451MOL0     C59460   5.057   2.727   2.172  0.1879 -0.3628 -0.3836
  451MOL0     C59461   5.152   2.752   2.061  0.3523  0.3043  0.0482
  451MOL0     C59462   5.155   2.643   1.957 -0.2900  0.9779  0.4767
  451MOL0     C59463   5.028   2.575   1.916  0.6801 -0.6084 -0.1213
  451MOL0     C59464   4.926   2.523   1.882  0.0578 -0.2118 -0.7756
  451MOL0     C59465   4.888   2.440   2.521 -0.8817 -0.3252 -0.4620
  451MOL0     C59466   4.893   2.347   2.631 -0.1858 -0.0649 -0.2725
  451MOL0     H59467   5.183   2.183   3.083  1.2237 -0.6078  2.1041
  451MOL0     H59468   5.202   1.996   3.240 -0.7966  1.0284  0.4072
  451MOL0     H59469   5.423   1.715   3.229 -1.2353  2.4666 -1.2203
  451MOL0     H59470   5.376   1.645   3.076  0.2536 -0.5452  0.2743
  451MOL0     H59471   5.235   1.578   3.343 -0.8408 -1.7277  1.2087
  451MOL0     H59472   5.372   1.488   3.301 -0.8017 -0.4019 -0.0711
  451MOL0     H59473   5.103   1.514   3.172  0.0055  2.1514  2.0852
  451MOL0     H59474   5.171   1.368   3.252  0.8165 -2.3729 -3.5594
  451MOL0     H59475   5.249   1.471   2.974  1.1068 -2.4914 -1.9625
  451MOL0     H59476   5.356   1.362   3.063 -1.3613 -4.5512 -0.9459
  451MOL0     H59477   5.072   1.298   2.980 -1.3831 -2.3368  0.3743
  451MOL0     H59478   5.197   1.182   3.063  3.3715  0.6127  0.1071
  451MOL0     H59479   5.348   1.246   2.860  1.1184 -4.2269 -0.2585
  451MOL0     H59480   5.213   1.311   2.785 -0.2433 -0.4352  0.5097
  451MOL0     H59481   5.235   1.080   2.708  1.9984 -1.0152  0.9838
  451MOL0     H59482   5.257   1.033   2.883  0.9135  0.9747 -0.5744
  451MOL0     H59483   5.021   1.085   2.920 -0.9597  3.7991 -0.7713
  451MOL0     H59484   5.028   0.962   2.783  0.6943  0.2685 -2.1868
  451MOL0     H59485   5.064   1.168   2.568 -0.7476 -3.6008  0.8410
  451MOL0     H59486   4.784   1.379   2.444  1.3462 -1.2927 -0.3818
  451MOL0     H59487   4.955   1.383   2.413 -0.7900  0.0948 -0.8675
  451MOL0     H59488   4.892   1.610   2.448  1.9127 -0.4961  0.5179
  451MOL0     H59489   4.977   1.560   2.597 -0.9220 -3.4113  2.7909
  451MOL0     H59490   4.679   1.619   2.540 -1.2671 -0.7092  0.8821
  451MOL0     H59491   4.742   1.543   2.693  0.9296 -0.0080  0.3096
  451MOL0     H59492   4.723   1.800   2.708 -0.3424 -0.7133  1.1311
  451MOL0     H59493   4.845   1.803   2.580  0.2001  1.0652  0.9192
  451MOL0     H59494   4.811   1.937   2.874 -1.8894  1.5638  2.0500
  451MOL0     H59495   4.714   1.968   3.105 -1.0726  0.4934  0.0852
  451MOL0     H59496   4.534   1.751   3.561  0.4393  0.6563 -0.8166
  451MOL0     H59497   4.555   1.737   3.834 -0.3421  2.2375  0.2856
  451MOL0     H59498   4.893   1.621   4.073  1.1425 -2.1087 -1.9950
  451MOL0     H59499   4.793   1.516   3.975 -0.7498  2.0304 -3.1079
  451MOL0     H59500   4.708   1.651   4.227  1.9022  3.0193 -4.0090
  451MOL0     H59501   4.717   1.475   4.202 -1.3516 -0.6313  2.0544
  451MOL0     H59502   4.517   1.648   4.053 -0.9751 -0.4392  0.5434
  451MOL0     H59503   4.493   1.528   4.193  2.2704 -2.9046  1.4191
  451MOL0     H59504   4.597   1.451   3.913 -1.7382 -1.2344  0.0242
  451MOL0     H59505   4.589   1.340   4.042 -1.8528 -0.5637 -0.4258
  451MOL0     H59506   4.396   1.349   3.878  0.5140  0.4600  0.1162
  451MOL0     H59507   4.325   1.473   3.987 -1.3377 -0.4338 -3.3698
  451MOL0     H59508   4.220   1.304   4.070 -0.3465 -0.7555  1.6072
  451MOL0     H59509   4.364   1.324   4.173  1.1928  1.7179 -0.9156
  451MOL0     H59510   4.479   1.144   4.030  0.1291 -0.3739 -0.9973
  451MOL0     H59511   4.364   1.108   4.165 -1.5884  1.2537 -0.1979
  451MOL0     H59512   4.290   1.111   3.870  0.2295 -0.0716  1.0687
  451MOL0     H59513   4.175   1.083   4.003 -1.9353 -5.1150  0.6090
  451MOL0     H59514   4.955   1.743   3.816 -1.6788  3.7475  2.1024
  451MOL0     H59515   4.961   1.703   3.555  0.7847 -2.1735  1.0400
  451MOL0     H59516   4.836   1.570   3.196  1.3552 -0.4398  0.2008
  451MOL0     H59517   4.897   1.528   2.962 -0.6164 -0.1280 -0.9739
  451MOL0     H59518   5.244   1.734   2.896  1.3040  0.0532  0.2991
  451MOL0     H59519   5.210   1.919   2.748 -0.1080  2.3652 -0.4924
  451MOL0     H59520   5.232   2.371   2.683 -0.6772  3.7695  2.2074
  451MOL0     H59521   5.218   2.494   2.497 -0.0260 -1.6486 -1.5829
  451MOL0     H59522   5.132   2.521   2.211 -2.1843 -2.2887  3.3375
  451MOL0     H59523   5.193   2.650   2.315  1.2810  0.3264 -2.3480
  451MOL0     H59524   4.953   2.716   2.138 -0.2521  1.1800  0.3469
  451MOL0     H59525   5.060   2.811   2.242  2.3874 -1.0731  0.4724
  451MOL0     H59526   5.249   2.788   2.097 -0.7156  2.4446  1.0252
  451MOL0     H59527   5.109   2.840   2.012 -0.2787  0.9101  1.5938
  451MOL0     H59528   5.195   2.689   1.867 -1.7906  1.5263  0.0676
  451MOL0     H59529   5.219   2.555   1.968  0.6293  0.9028 -3.9492
  451MOL0     H59530   4.830   2.481   1.858 -1.6240  2.0304  1.5045
  451MOL0     H59531   4.790   2.471   2.484 -1.3088 -1.7242 -0.5521
  451MOL0     H59532   4.809   2.301   2.681 -0.9509  2.8172  1.3329
  452MOL0     O59533   9.419  10.250   8.436  0.3079  0.6917  0.0242
  452MOL0     C59534   9.481  10.156   8.385  0.0742  0.6300  0.3111
  452MOL0     O59535   9.424  10.066   8.301 -0.6601 -0.1913  0.6048
  452MOL0     C59536   9.295  10.053   8.259 -1.1453 -0.4772 -0.9702
  452MOL0     C59537   9.189  10.142   8.279  0.4821 -0.4019  0.3894
  452MOL0     C59538   9.063  10.122   8.212  0.3712  0.5098  0.4257
  452MOL0     C59539   9.046  10.011   8.131  0.3019  0.4147 -0.4876
  452MOL0     O59540   8.936   9.995   8.048 -0.1073 -0.5410  0.5231
  452MOL0     C59541   8.813  10.046   8.097  0.0754  0.0173  1.0212
  452MOL0     C59542   8.697   9.959   8.040  0.3966 -0.5147  0.0844
  452MOL0     C59543   8.674   9.998   7.891 -0.2741 -0.1291 -0.3278
  452MOL0     C59544   8.775   9.940   7.790 -0.4237 -0.7187 -0.3955
  452MOL0     C59545   8.722   9.991   7.650 -0.2170  1.1389  0.9224
  452MOL0     C59546   8.803   9.923   7.535  0.0203  0.4610  0.1807
  452MOL0     C59547   8.758   9.967   7.394 -0.2595  0.0350 -0.2740
  452MOL0     C59548   8.615   9.927   7.363  0.9434 -0.7156 -0.3936
  452MOL0     N59549   8.613   9.792   7.306  0.0236 -0.2703 -0.7373
  452MOL0     C59550   8.586   9.684   7.390  0.4172  1.1058  1.5778
  452MOL0     C59551   8.578   9.574   7.299 -0.0703 -0.1548  0.1375
  452MOL0     C59552   8.527   9.430   7.322  0.2440  0.2912 -0.2276
  452MOL0     C59553   8.507   9.402   7.472 -0.4409 -0.0562 -0.3134
  452MOL0     C59554   8.632   9.402   7.544  0.5899 -0.1801 -0.7267
  452MOL0     C59555   8.602   9.427   7.689  0.3990  0.0211 -0.3621
  452MOL0     O59556   8.572   9.568   7.702  0.1813  0.4370  0.0439
  452MOL0     C59557   8.536   9.618   7.828  0.1879  0.3993 -0.1673
  452MOL0     C59558   8.570   9.550   7.946  0.0401 -0.1894 -0.0699
  452MOL0     C59559   8.538   9.604   8.070  0.6289 -0.1890 -0.1336
  452MOL0     C59560   8.456   9.717   8.080  0.6602  0.7032  0.0160
  452MOL0     C59561   8.418   9.761   8.214  0.8375 -0.0972 -0.3805
  452MOL0     O59562   8.339   9.878   8.209  0.3127  0.1857 -0.1371
  452MOL0     C59563   8.325   9.960   8.320 -0.6641 -0.4509 -0.1114
  452MOL0     C59564   8.196  10.011   8.328 -0.1723 -0.2591 -0.5816
  452MOL0     C59565   8.171  10.113   8.418 -0.7731 -0.2900  0.1118
  452MOL0     C59566   8.265  10.151   8.512  0.0566 -0.1411 -0.7432
  452MOL0     O59567   8.219  10.241   8.604  0.3311 -0.5448 -0.8416
  452MOL0     C59568   8.280  10.240   8.728 -0.5347  0.5806  0.6880
  452MOL0     C59569   8.171  10.254   8.841  0.4139  1.1384 -0.7693
  452MOL0     C59570   8.078  10.134   8.821  0.0907 -0.4550  0.3195
  452MOL0     C59571   7.990  10.109   8.938 -0.3698 -0.3346  0.8121
  452MOL0     C59572   7.909   9.988   8.931 -0.1081  0.3643  0.1108
  452MOL0     C59573   7.984   9.863   8.906  0.3293  0.1632 -0.4197
  452MOL0     C59574   7.908   9.733   8.940  0.0348  0.1162 -0.4072
  452MOL0     C59575   7.993   9.612   8.917  0.1218  0.2639  0.1121
  452MOL0    Cl59576   7.985   9.553   8.748 -0.2277  0.1059 -0.0539
  452MOL0     C59577   8.396  10.100   8.513  0.0497  0.1878 -0.1575
  452MOL0     C59578   8.425  10.009   8.406  0.2090  0.0945  0.4366
  452MOL0     O59579   8.468   9.714   8.316 -0.0410 -0.3098  0.1448
  452MOL0     C59580   8.411   9.774   7.968  0.3517 -0.3177  0.5586
  452MOL0     C59581   8.444   9.720   7.842  0.0866  0.2432 -0.1592
  452MOL0     N59582   8.624   9.619   7.175  0.9930 -0.2076 -1.1133
  452MOL0     N59583   8.647   9.744   7.180  0.2169  0.1945  0.3122
  452MOL0     C59584   9.151   9.918   8.129  0.2947 -0.4122  0.8854
  452MOL0     C59585   9.270   9.933   8.199 -0.5393  0.1359 -0.1890
  452MOL0     C59586   9.629  10.166   8.405  0.3127 -1.4476 -0.4974
  452MOL0     C59587   9.704  10.063   8.349  0.3324 -0.3430  1.0323
  452MOL0     C59588   9.843  10.088   8.338 -0.7551 -0.4096 -0.4482
  452MOL0     C59589   9.912  10.190   8.411  0.0672  0.0500  0.9835
  452MOL0     O59590  10.047  10.204   8.405 -0.3154 -0.1077  0.3510
  452MOL0     C59591  10.109  10.308   8.491  0.1768  0.2522  1.0736
  452MOL0     C59592  10.262  10.312   8.480 -0.0428 -0.6621  0.0104
  452MOL0     C59593  10.318  10.402   8.366  0.1528  0.1016 -1.1743
  452MOL0     C59594  10.274  10.378   8.225 -1.1462  0.4813 -0.0194
  452MOL0     C59595  10.347  10.477   8.138  0.5869 -0.0707  0.7080
  452MOL0     C59596  10.391  10.543   8.048  0.5021 -0.6093 -0.5751
  452MOL0     C59597   9.835  10.288   8.471 -0.5616  0.8774  0.4835
  452MOL0     C59598   9.689  10.279   8.469  0.0434  1.0012  0.7907
  452MOL0     H59599   9.199  10.235   8.334 -0.2630  0.7461 -1.3360
  452MOL0     H59600   8.986  10.198   8.215  1.7513  1.9209  0.9065
  452MOL0     H59601   8.797  10.153   8.077  1.9744  0.2381  0.5122
  452MOL0     H59602   8.801  10.034   8.205  1.6436  0.1542  1.2247
  452MOL0     H59603   8.614   9.984   8.107  2.3386  0.9745  2.1368
  452MOL0     H59604   8.729   9.855   8.049  0.0255 -0.4696  2.9215
  452MOL0     H59605   8.659  10.106   7.878  1.7650  0.2511  0.1375
  452MOL0     H59606   8.578   9.955   7.861  0.8611 -1.5100 -2.0865
  452MOL0     H59607   8.878   9.967   7.815 -0.4608 -0.6904 -0.2695
  452MOL0     H59608   8.781   9.831   7.787  1.0330 -0.6475 -0.4371
  452MOL0     H59609   8.722  10.099   7.633  1.3053  1.2178  1.2142
  452MOL0     H59610   8.617   9.964   7.643  0.2974 -0.5181 -2.4528
  452MOL0     H59611   8.793   9.814   7.545  3.2849  0.1694  1.5354
  452MOL0     H59612   8.910   9.940   7.544  0.1612  1.9227 -3.1030
  452MOL0     H59613   8.777  10.074   7.380  0.3035 -0.1901 -1.3321
  452MOL0     H59614   8.815   9.918   7.314  0.1726  3.2635 -2.1396
  452MOL0     H59615   8.570   9.987   7.283  1.2503 -0.7855 -0.6229
  452MOL0     H59616   8.550   9.942   7.449  2.4411 -0.5717  0.7551
  452MOL0     H59617   8.549   9.673   7.492 -0.4195 -1.3789  1.0575
  452MOL0     H59618   8.595   9.351   7.287 -2.4811 -2.1105 -0.4214
  452MOL0     H59619   8.432   9.407   7.274  0.1575 -0.0676  0.1100
  452MOL0     H59620   8.452   9.307   7.478 -0.5036 -0.2169 -2.5531
  452MOL0     H59621   8.447   9.488   7.503 -0.3218 -0.8303  2.3180
  452MOL0     H59622   8.669   9.301   7.521  0.1592 -0.1988 -1.3545
  452MOL0     H59623   8.702   9.474   7.500  0.8575 -0.7382 -1.2345
  452MOL0     H59624   8.694   9.404   7.744 -0.5046 -2.9639  0.0595
  452MOL0     H59625   8.522   9.366   7.732  1.3989 -1.0738  0.0043
  452MOL0     H59626   8.629   9.459   7.948 -0.8134 -0.7501 -0.0287
  452MOL0     H59627   8.591   9.555   8.150  2.5822  0.5435 -0.9162
  452MOL0     H59628   8.115   9.976   8.265 -4.1263  3.0813  2.0842
  452MOL0     H59629   8.067  10.144   8.420 -0.9021 -0.4936 -1.7399
  452MOL0     H59630   8.346  10.326   8.742 -1.6704  1.3946  1.2036
  452MOL0     H59631   8.340  10.150   8.745 -1.4142 -0.3765 -1.0074
  452MOL0     H59632   8.121  10.351   8.834 -0.7648  0.6527  0.4333
  452MOL0     H59633   8.221  10.263   8.939 -0.6300  0.2235 -0.1302
  452MOL0     H59634   8.141  10.052   8.785  0.3418 -0.1722  0.1020
  452MOL0     H59635   8.008  10.145   8.737 -0.6996 -1.6996  0.8025
  452MOL0     H59636   8.051  10.124   9.028 -1.2893 -0.5235  1.4837
  452MOL0     H59637   7.904  10.177   8.946 -2.9917 -3.5784  2.8689
  452MOL0     H59638   7.828  10.001   8.858 -0.6890 -2.0180  0.2651
  452MOL0     H59639   7.864   9.989   9.030 -0.6474  0.5402 -0.1347
  452MOL0     H59640   8.075   9.877   8.966 -0.4293  3.6383  0.1616
  452MOL0     H59641   8.025   9.845   8.806  1.2755 -0.0438 -0.0092
  452MOL0     H59642   7.871   9.724   9.042 -0.4676  2.1953 -0.3544
  452MOL0     H59643   7.812   9.733   8.887 -0.0486 -0.5896 -0.2676
  452MOL0     H59644   7.977   9.533   8.991  2.4875  0.5544  1.0224
  452MOL0     H59645   8.093   9.647   8.944 -1.4704  2.8788  3.3994
  452MOL0     H59646   8.472  10.147   8.574 -0.8766  0.9192  0.4692
  452MOL0     H59647   8.525   9.973   8.385  1.0637  1.4566  1.9137
  452MOL0     H59648   8.345   9.860   7.968  2.3412  1.3417 -1.6457
  452MOL0     H59649   8.402   9.775   7.759  0.3233 -0.2708 -0.6330
  452MOL0     H59650   9.128   9.824   8.081 -0.8635 -0.2830  1.1695
  452MOL0     H59651   9.338   9.851   8.177 -0.3613  0.0160  0.7907
  452MOL0     H59652   9.656   9.974   8.310 -2.1294 -0.2124  3.4876
  452MOL0     H59653   9.895  10.016   8.276 -1.0120 -0.8099 -0.1986
  452MOL0     H59654  10.076  10.275   8.590 -1.7333 -1.8974 -0.1569
  452MOL0     H59655  10.067  10.407   8.472 -3.3350 -1.5334 -1.9320
  452MOL0     H59656  10.303  10.350   8.574  0.5447  1.0958 -0.8968
  452MOL0     H59657  10.294  10.208   8.470 -0.1761 -0.6513 -0.5481
  452MOL0     H59658  10.427  10.397   8.373 -0.0148 -2.6994  1.4892
  452MOL0     H59659  10.297  10.503   8.403 -0.3486  0.2357 -1.8066
  452MOL0     H59660  10.297  10.276   8.191  4.4814  0.6005  2.3215
  452MOL0     H59661  10.166  10.388   8.228 -1.2051 -0.0594 -0.2647
  452MOL0     H59662  10.426  10.580   7.954 -0.6194 -5.3756 -3.2290
  452MOL0     H59663   9.872  10.382   8.510 -0.2824  0.1721  2.0008
  452MOL0     H59664   9.634  10.365   8.504 -1.5768 -0.5148  2.2042
  453MOL0     O59665   4.989   5.357   4.709 -0.7594  0.9270 -0.2477
  453MOL0     C59666   4.951   5.247   4.671  0.6029  1.0306 -0.3791
  453MOL0     O59667   4.988   5.123   4.728 -0.1897  0.4829  0.6904
  453MOL0     C59668   5.093   5.110   4.812  0.6628  0.2077  0.1205
  453MOL0     C59669   5.205   5.192   4.828  0.9916 -0.1912 -0.6291
  453MOL0     C59670   5.328   5.143   4.884  0.1411  0.8239  0.0635
  453MOL0     C59671   5.342   5.005   4.909  0.4480 -0.1037  0.3351
  453MOL0     O59672   5.448   4.952   4.983 -0.5049 -0.6116  0.4497
  453MOL0     C59673   5.482   5.022   5.099  0.3577 -0.0849 -0.2971
  453MOL0     C59674   5.551   4.926   5.191 -0.7110  0.2101  0.1478
  453MOL0     C59675   5.455   4.860   5.289 -0.9299  1.1614  0.1398
  453MOL0     C59676   5.538   4.775   5.397  0.2153 -0.4397 -0.8615
  453MOL0     C59677   5.469   4.681   5.481  0.2920 -0.6639 -0.3156
  453MOL0     C59678   5.354   4.754   5.561 -0.2145  0.8698  0.2709
  453MOL0     C59679   5.332   4.681   5.694 -0.1890  1.0405 -0.6680
  453MOL0     C59680   5.271   4.544   5.689  0.4012  0.2584  0.9556
  453MOL0     N59681   5.154   4.534   5.608  0.7633  0.2744  0.1950
  453MOL0     C59682   5.028   4.578   5.648 -0.0386 -0.5829  0.4914
  453MOL0     C59683   4.940   4.548   5.546 -0.3343  0.6444 -0.8242
  453MOL0     C59684   4.782   4.584   5.535 -0.5039 -0.3793 -0.2449
  453MOL0     C59685   4.699   4.478   5.447 -0.6422 -0.5412 -0.2800
  453MOL0     C59686   4.545   4.506   5.452 -0.4620 -0.6156  0.6374
  453MOL0     C59687   4.492   4.636   5.375  0.3095 -0.1389 -0.9332
  453MOL0     O59688   4.351   4.624   5.369 -0.0403 -0.2504  0.2038
  453MOL0     C59689   4.279   4.726   5.305  0.5584  0.0074 -1.1786
  453MOL0     C59690   4.328   4.822   5.222 -0.2549  0.0950 -0.1762
  453MOL0     C59691   4.256   4.917   5.152 -0.3651 -0.2564 -0.7889
  453MOL0     C59692   4.113   4.933   5.182 -0.0614 -0.0674  0.1085
  453MOL0     C59693   4.040   5.056   5.138 -0.0574  0.0551  0.6096
  453MOL0     O59694   4.118   5.153   5.097  0.1502 -0.3278  0.4177
  453MOL0     C59695   4.073   5.269   5.047  0.5210 -0.2956 -0.2471
  453MOL0     C59696   4.132   5.336   4.938  0.2545  1.0682  0.4932
  453MOL0     C59697   4.088   5.461   4.903 -0.0931  0.2833 -0.2457
  453MOL0     C59698   3.972   5.525   4.960 -0.0233  0.8698 -0.1076
  453MOL0     O59699   3.928   5.651   4.929  0.9741 -0.4979 -0.4155
  453MOL0     C59700   4.008   5.746   4.846 -0.5258 -0.0632  0.0165
  453MOL0     C59701   3.946   5.888   4.840 -0.7668  0.5483 -0.4651
  453MOL0     C59702   3.827   5.892   4.741 -0.7051 -0.1186  0.7572
  453MOL0     C59703   3.696   5.811   4.790 -0.4839 -0.4315  0.2454
  453MOL0     C59704   3.572   5.835   4.699  0.1253  0.3262 -0.2927
  453MOL0     C59705   3.575   5.789   4.556 -1.5021 -0.1267  2.0601
  453MOL0     C59706   3.584   5.641   4.551 -0.8123 -1.0729 -0.3454
  453MOL0     C59707   3.560   5.552   4.428  0.2506 -0.2150 -0.0637
  453MOL0    Cl59708   3.626   5.637   4.284  0.2092  0.1097  0.1152
  453MOL0     C59709   3.915   5.460   5.067  0.5089  0.1575  0.3155
  453MOL0     C59710   3.971   5.333   5.108 -0.4308 -1.0225 -0.9844
  453MOL0     O59711   3.920   5.063   5.140  0.9233  0.5644  0.1004
  453MOL0     C59712   4.059   4.852   5.281 -0.0633  0.6735 -0.5590
  453MOL0     C59713   4.139   4.737   5.323  0.4283 -0.1345  0.5001
  453MOL0     N59714   5.012   4.497   5.439  0.3658 -0.6214 -0.7320
  453MOL0     N59715   5.137   4.489   5.480  0.2744  0.6295  0.6124
  453MOL0     C59716   5.232   4.920   4.886 -0.1532  0.2294 -0.9360
  453MOL0     C59717   5.116   4.977   4.844  0.7720 -0.0309 -0.3308
  453MOL0     C59718   4.839   5.250   4.576  0.1179  1.0697 -0.0617
  453MOL0     C59719   4.763   5.135   4.552 -0.0166  0.2262  0.3420
  453MOL0     C59720   4.648   5.144   4.475 -0.3693  0.5216  0.3266
  453MOL0     C59721   4.615   5.263   4.397  0.6602  0.3148 -0.8268
  453MOL0     O59722   4.503   5.272   4.311  0.3548 -0.2772 -0.6488
  453MOL0     C59723   4.399   5.174   4.309 -0.3288  0.9386 -1.1642
  453MOL0     C59724   4.286   5.205   4.205  0.4657 -0.4345 -0.5527
  453MOL0     C59725   4.337   5.247   4.068 -0.5260 -0.2114  0.4774
  453MOL0     C59726   4.413   5.136   3.993 -0.8024  0.0170 -0.4729
  453MOL0     C59727   4.330   5.016   3.977  1.3550  0.8350  0.2343
  453MOL0     C59728   4.261   4.925   3.957  0.7398 -0.4620 -0.2941
  453MOL0     C59729   4.705   5.368   4.398 -0.0259  0.9043 -0.7579
  453MOL0     C59730   4.814   5.358   4.491  1.0573 -0.3922  0.1209
  453MOL0     H59731   5.194   5.300   4.819 -0.6613 -0.1417  1.2524
  453MOL0     H59732   5.410   5.211   4.905  0.5897 -0.3077  2.3273
  453MOL0     H59733   5.402   5.074   5.151 -2.4701 -0.3137 -4.0140
  453MOL0     H59734   5.546   5.106   5.071  1.9145 -0.0800  2.7954
  453MOL0     H59735   5.621   4.976   5.259  1.5055 -4.4842  1.7618
  453MOL0     H59736   5.610   4.858   5.129 -5.6884 -1.4356 -3.3965
  453MOL0     H59737   5.414   4.773   5.236  0.7528 -0.7978  1.8667
  453MOL0     H59738   5.377   4.933   5.312 -3.3320 -0.1533 -3.0274
  453MOL0     H59739   5.621   4.718   5.354  1.6053 -2.0717  3.4433
  453MOL0     H59740   5.597   4.842   5.461  0.6905 -2.6160  1.1028
  453MOL0     H59741   5.546   4.655   5.554 -1.0640  0.1561  1.4892
  453MOL0     H59742   5.429   4.593   5.430  1.1475 -2.8207  2.4484
  453MOL0     H59743   5.256   4.754   5.512  0.1990 -3.1172 -0.9313
  453MOL0     H59744   5.387   4.856   5.580 -0.0774  0.6267  1.4240
  453MOL0     H59745   5.421   4.678   5.759  0.9744  2.4178 -2.1218
  453MOL0     H59746   5.253   4.740   5.742 -2.7252 -1.4007 -1.5489
  453MOL0     H59747   5.240   4.509   5.788  0.9366 -0.3605  0.9069
  453MOL0     H59748   5.343   4.483   5.635  0.8911  1.9150 -0.3447
  453MOL0     H59749   4.999   4.629   5.740  1.0423  1.0206 -0.0119
  453MOL0     H59750   4.774   4.685   5.494 -2.1787  1.4227  3.9070
  453MOL0     H59751   4.738   4.591   5.635  0.1989  0.6269  0.0101
  453MOL0     H59752   4.726   4.379   5.483  0.4001 -0.1670  0.0114
  453MOL0     H59753   4.735   4.485   5.344  0.5728 -2.3658 -0.0229
  453MOL0     H59754   4.494   4.422   5.405 -2.2598  0.7625  0.0213
  453MOL0     H59755   4.511   4.501   5.556 -1.2014 -0.2610  0.4176
  453MOL0     H59756   4.528   4.621   5.272  2.3001  0.8101 -0.4174
  453MOL0     H59757   4.523   4.727   5.428  0.0319 -0.4709 -0.1977
  453MOL0     H59758   4.435   4.828   5.206  0.0314  4.2422  1.9382
  453MOL0     H59759   4.319   4.983   5.093 -0.1587  1.9537  1.7057
  453MOL0     H59760   4.204   5.299   4.866 -0.8432  3.4584 -2.0462
  453MOL0     H59761   4.140   5.534   4.842 -2.3734  0.6184 -1.9125
  453MOL0     H59762   4.007   5.716   4.741 -0.1110  1.3746 -0.4118
  453MOL0     H59763   4.106   5.745   4.895 -0.8475 -0.3514  0.6715
  453MOL0     H59764   4.026   5.962   4.832 -0.4606  0.1465 -1.2972
  453MOL0     H59765   3.918   5.913   4.942  2.1145  0.2350  0.4863
  453MOL0     H59766   3.864   5.859   4.644  0.1801  1.9431  0.3416
  453MOL0     H59767   3.788   5.993   4.725  3.6376  1.4921 -1.3647
  453MOL0     H59768   3.719   5.704   4.790  2.1328  0.0393  1.5541
  453MOL0     H59769   3.664   5.841   4.890 -2.8267 -0.8871 -0.3160
  453MOL0     H59770   3.542   5.940   4.704  2.2730  0.9584  3.9299
  453MOL0     H59771   3.487   5.782   4.742 -2.4477  1.1957 -3.8347
  453MOL0     H59772   3.655   5.836   4.499 -0.3786 -2.7091  1.3375
  453MOL0     H59773   3.482   5.834   4.522  0.1239  1.2046 -0.9265
  453MOL0     H59774   3.689   5.624   4.577 -0.7620  0.2859  0.4096
  453MOL0     H59775   3.522   5.610   4.636 -0.8406 -1.4378 -0.4957
  453MOL0     H59776   3.452   5.538   4.424  0.1286  0.8643 -2.0947
  453MOL0     H59777   3.617   5.460   4.444  0.4536 -0.0256  0.3217
  453MOL0     H59778   3.845   5.514   5.129  0.9779  0.8863  0.2190
  453MOL0     H59779   3.929   5.292   5.200  2.7299 -0.2605  0.9703
  453MOL0     H59780   3.962   4.853   5.330 -0.1149  1.0387 -0.6635
  453MOL0     H59781   4.096   4.657   5.383  2.3234  0.3778  2.6874
  453MOL0     H59782   5.240   4.815   4.910 -3.2301  0.0351 -0.2388
  453MOL0     H59783   5.040   4.908   4.810  0.8570 -0.3712  0.1534
  453MOL0     H59784   4.786   5.042   4.603  2.9441  1.6658  1.8701
  453MOL0     H59785   4.592   5.051   4.467  2.7251 -1.3336 -1.5627
  453MOL0     H59786   4.363   5.155   4.411  1.5381 -0.4253 -0.6980
  453MOL0     H59787   4.445   5.080   4.277  0.3425  0.1160  1.8839
  453MOL0     H59788   4.224   5.119   4.180  0.1530  0.5763 -3.8124
  453MOL0     H59789   4.214   5.284   4.229 -1.3917 -0.8238 -4.0686
  453MOL0     H59790   4.397   5.336   4.087 -0.9182  0.2077 -0.1955
  453MOL0     H59791   4.264   5.295   4.002 -0.5655  0.5757  1.0795
  453MOL0     H59792   4.436   5.176   3.894 -2.3751  0.2497 -0.7744
  453MOL0     H59793   4.509   5.106   4.037  0.1557 -0.0876 -2.5231
  453MOL0     H59794   4.187   4.847   3.951 -0.1459  0.3373  0.0022
  453MOL0     H59795   4.691   5.452   4.330 -0.9679  0.1208 -1.5688
  453MOL0     H59796   4.880   5.444   4.490  0.4978  0.0412 -0.1656
  454MOL0     O59797   1.163   7.649   9.270 -0.3909 -0.0254 -0.0314
  454MOL0     C59798   1.250   7.678   9.186 -0.3587  1.0005 -0.0147
  454MOL0     O59799   1.382   7.657   9.206  0.2093  0.3460 -0.0346
  454MOL0     C59800   1.435   7.594   9.317  0.0028 -0.2417  0.0203
  454MOL0     C59801   1.544   7.653   9.378 -0.0844 -0.4454  0.0979
  454MOL0     C59802   1.607   7.598   9.486 -0.0081 -0.3039  0.0843
  454MOL0     C59803   1.580   7.460   9.508 -0.2995  0.4685  0.2662
  454MOL0     O59804   1.669   7.395   9.592 -0.0666 -0.2466 -0.3399
  454MOL0     C59805   1.622   7.282   9.664 -0.2621 -0.2445 -0.5040
  454MOL0     C59806   1.537   7.314   9.785  0.2421 -0.0612 -0.2277
  454MOL0     C59807   1.425   7.208   9.807  0.6027 -0.2113  0.4146
  454MOL0     C59808   1.487   7.079   9.872  0.0710 -0.0097 -0.7935
  454MOL0     C59809   1.381   6.972   9.884  0.8580 -0.8448  0.7661
  454MOL0     C59810   1.450   6.854   9.950 -0.0160  0.3485  0.1222
  454MOL0     C59811   1.340   6.750  10.009 -0.5137  0.0864  0.3383
  454MOL0     C59812   1.408   6.641  10.101  0.3469  1.5878  0.7513
  454MOL0     N59813   1.449   6.518  10.038 -0.2565  0.2872 -0.2525
  454MOL0     C59814   1.369   6.410  10.031 -0.1205  0.5582  0.2977
  454MOL0     C59815   1.436   6.320   9.959  0.1037 -0.2087 -0.5119
  454MOL0     C59816   1.377   6.203   9.898  0.0703  0.9645 -0.5821
  454MOL0     C59817   1.420   6.091   9.994  0.5073  0.1899  0.5008
  454MOL0     C59818   1.358   5.945   9.989  0.5292  0.3857 -0.0767
  454MOL0     C59819   1.438   5.843  10.073 -0.0631 -0.7226  0.3761
  454MOL0     O59820   1.464   5.882  10.208 -0.3063  0.2202 -0.2589
  454MOL0     C59821   1.535   5.788  10.282 -0.2821 -0.0337  0.0736
  454MOL0     C59822   1.560   5.649  10.253  0.5967  0.4276 -0.3152
  454MOL0     C59823   1.619   5.559  10.350  0.1537  0.2986  1.2016
  454MOL0     C59824   1.675   5.611  10.459  0.0897 -0.2204 -0.6263
  454MOL0     C59825   1.763   5.528  10.544  0.3840  0.3969 -0.1642
  454MOL0     O59826   1.841   5.429  10.488  0.0720 -0.2593 -0.2112
  454MOL0     C59827   1.957   5.378  10.542 -1.1220 -0.3154 -0.3204
  454MOL0     C59828   2.079   5.440  10.520 -0.2605 -0.6277  0.2704
  454MOL0     C59829   2.187   5.406  10.593  0.0636 -0.0540 -0.4762
  454MOL0     C59830   2.184   5.300  10.687 -0.9258  0.8972 -0.5117
  454MOL0     O59831   2.275   5.260  10.782  0.4277 -0.8299  0.2811
  454MOL0     C59832   2.378   5.356  10.822  0.4663 -0.7213  0.5235
  454MOL0     C59833   2.402   5.332  10.973 -0.0268  0.2313 -1.1316
  454MOL0     C59834   2.519   5.409  11.036 -0.0740  0.2048 -0.5313
  454MOL0     C59835   2.645   5.345  10.993 -0.6387 -0.7767 -0.4588
  454MOL0     C59836   2.754   5.407  11.091 -0.4163 -0.0365 -0.0449
  454MOL0     C59837   2.889   5.432  11.032 -0.2644  0.0525  0.8435
  454MOL0     C59838   2.976   5.522  11.121  0.6110 -0.3435  0.5163
  454MOL0     C59839   3.120   5.522  11.091 -0.0395  0.6816 -0.0072
  454MOL0    Cl59840   3.200   5.358  11.122 -0.3094 -0.0552  0.0950
  454MOL0     C59841   2.062   5.231  10.701 -0.0251 -0.4050 -1.0413
  454MOL0     C59842   1.946   5.271  10.624  0.4609 -0.2634 -0.2981
  454MOL0     O59843   1.776   5.564  10.661  0.3150  0.3522 -0.3648
  454MOL0     C59844   1.647   5.750  10.493  0.0707  0.5462 -0.5220
  454MOL0     C59845   1.584   5.834  10.406  0.0477 -0.4567  0.7053
  454MOL0     N59846   1.559   6.364   9.937 -0.2230 -1.2977  0.5390
  454MOL0     N59847   1.570   6.489   9.981 -0.2456  0.7739  0.5661
  454MOL0     C59848   1.473   7.401   9.446 -0.1137 -0.2935 -0.3559
  454MOL0     C59849   1.393   7.471   9.352  0.5001 -0.6746 -1.3545
  454MOL0     C59850   1.212   7.746   9.056  0.4598  0.2647 -0.1446
  454MOL0     C59851   1.298   7.738   8.943  0.1965 -0.3930 -0.4339
  454MOL0     C59852   1.261   7.783   8.823  0.6005  0.2844  0.0393
  454MOL0     C59853   1.141   7.858   8.812 -0.0284 -0.4758 -0.0707
  454MOL0     O59854   1.088   7.905   8.695 -0.1673  0.7031 -0.2218
  454MOL0     C59855   1.161   7.900   8.576 -0.0959 -0.5727  0.6824
  454MOL0     C59856   1.100   7.986   8.473 -0.2892  0.6892 -0.4092
  454MOL0     C59857   0.960   7.942   8.431  0.1027 -0.3322 -0.1024
  454MOL0     C59858   0.852   7.997   8.520  1.2359  0.1827 -0.3365
  454MOL0     C59859   0.801   8.129   8.464  0.6033 -0.2776 -0.0098
  454MOL0     C59860   0.756   8.240   8.419 -0.3091  0.5931 -0.8245
  454MOL0     C59861   1.057   7.869   8.925  0.5115  0.3281  1.2410
  454MOL0     C59862   1.086   7.803   9.043 -0.3865  0.8609 -0.1168
  454MOL0     H59863   1.556   7.759   9.359 -2.9193 -0.0851 -0.2229
  454MOL0     H59864   1.677   7.657   9.543 -1.7396  1.2778  0.6653
  454MOL0     H59865   1.706   7.228   9.708  0.8315  1.0122 -0.9695
  454MOL0     H59866   1.579   7.216   9.588 -2.6385  0.8828 -0.2408
  454MOL0     H59867   1.491   7.413   9.773 -1.8320 -1.3068 -4.5338
  454MOL0     H59868   1.605   7.324   9.871 -1.5710  3.5993  0.9889
  454MOL0     H59869   1.387   7.199   9.705  3.2982  2.5343 -1.0172
  454MOL0     H59870   1.349   7.249   9.874  1.0382 -0.9683  1.4023
  454MOL0     H59871   1.568   7.045   9.806  2.0590 -1.7445  2.2980
  454MOL0     H59872   1.540   7.090   9.967 -1.5811  4.1482 -0.1320
  454MOL0     H59873   1.350   6.937   9.785 -2.4106 -1.2548  1.8020
  454MOL0     H59874   1.294   7.006   9.940  0.6796  0.0673 -0.0513
  454MOL0     H59875   1.509   6.895  10.032  3.1782 -1.8170 -0.9014
  454MOL0     H59876   1.519   6.813   9.876 -0.8433 -0.1440 -0.4013
  454MOL0     H59877   1.276   6.804  10.079 -0.3382  1.2654 -0.3781
  454MOL0     H59878   1.281   6.694   9.937  0.3576  0.0591 -0.3742
  454MOL0     H59879   1.335   6.619  10.179  0.5117 -1.1724  0.2014
  454MOL0     H59880   1.495   6.688  10.148 -0.5330  0.2315  4.0027
  454MOL0     H59881   1.267   6.401  10.066 -1.2025 -3.5647 -2.9851
  454MOL0     H59882   1.416   6.182   9.798  1.3376  0.5379 -0.0191
  454MOL0     H59883   1.268   6.206   9.893 -0.1656 -2.9720 -1.1471
  454MOL0     H59884   1.385   6.122  10.093 -2.5781 -1.0053 -0.1151
  454MOL0     H59885   1.530   6.091   9.995  0.5610 -1.6793 -0.7534
  454MOL0     H59886   1.251   5.950  10.015  0.4162 -2.5721  0.3117
  454MOL0     H59887   1.361   5.900   9.889  4.0954 -0.3660  0.2436
  454MOL0     H59888   1.522   5.802  10.017 -1.1845 -2.1564 -0.3563
  454MOL0     H59889   1.373   5.755  10.081 -0.4320 -0.4315  0.6485
  454MOL0     H59890   1.514   5.605  10.165  0.3153 -1.7940  0.8725
  454MOL0     H59891   1.609   5.453  10.330 -3.7408  1.0339 -2.1812
  454MOL0     H59892   2.091   5.530  10.461 -2.0786 -1.0904 -0.8882
  454MOL0     H59893   2.269   5.475  10.575 -0.6248  1.2639  1.2213
  454MOL0     H59894   2.341   5.458  10.805  1.2261 -0.7788 -1.8875
  454MOL0     H59895   2.471   5.353  10.764  1.3621 -0.4922  1.8975
  454MOL0     H59896   2.407   5.224  10.990  0.5364  0.5105  0.6935
  454MOL0     H59897   2.319   5.365  11.037  2.1299  3.4516  0.3128
  454MOL0     H59898   2.508   5.402  11.145  2.5463 -2.9829 -0.3223
  454MOL0     H59899   2.519   5.511  10.996 -3.0251  0.3507 -0.3765
  454MOL0     H59900   2.639   5.236  10.984  2.5820 -0.9847 -1.1578
  454MOL0     H59901   2.668   5.375  10.890 -0.7958 -0.9363 -0.5418
  454MOL0     H59902   2.773   5.332  11.168  0.6182 -0.9652 -1.1485
  454MOL0     H59903   2.721   5.502  11.134 -2.3197  0.4934 -2.4656
  454MOL0     H59904   2.888   5.468  10.928 -2.0033 -3.6110 -0.5980
  454MOL0     H59905   2.926   5.331  11.018 -1.3606 -1.2251  5.4821
  454MOL0     H59906   2.937   5.624  11.120  0.7688 -0.2422 -1.7175
  454MOL0     H59907   2.969   5.494  11.226 -0.7492 -2.2368 -0.0002
  454MOL0     H59908   3.168   5.601  11.150  1.1586  3.3209 -4.0998
  454MOL0     H59909   3.134   5.540  10.984 -0.5139  1.0368 -0.0148
  454MOL0     H59910   2.058   5.148  10.770  0.9359  1.7260  1.7797
  454MOL0     H59911   1.853   5.221  10.646  1.3944 -2.2471 -0.6207
  454MOL0     H59912   1.663   5.798  10.588 -0.1508 -2.6427  1.2706
  454MOL0     H59913   1.558   5.934  10.437 -3.2143 -0.4024 -1.6802
  454MOL0     H59914   1.444   7.296   9.441 -0.0138 -0.2674 -2.3656
  454MOL0     H59915   1.303   7.430   9.309 -0.0546 -0.8545 -0.0776
  454MOL0     H59916   1.393   7.689   8.958 -1.4410 -3.0866  2.5841
  454MOL0     H59917   1.324   7.759   8.737  0.1415 -0.1801 -0.1704
  454MOL0     H59918   1.152   7.795   8.546  0.8462 -0.9354  1.5873
  454MOL0     H59919   1.264   7.935   8.575  0.2398 -1.3508 -2.2992
  454MOL0     H59920   1.088   8.089   8.508  0.4897  0.5485  0.2960
  454MOL0     H59921   1.171   7.983   8.390  3.4846  1.0788  2.5529
  454MOL0     H59922   0.950   7.833   8.431 -1.0845 -0.2376  0.0011
  454MOL0     H59923   0.940   7.977   8.329 -3.3379 -4.3150 -1.0463
  454MOL0     H59924   0.764   7.933   8.520  0.9628  0.5138  1.1007
  454MOL0     H59925   0.870   8.012   8.627 -2.7322  2.0357  0.2639
  454MOL0     H59926   0.747   8.332   8.364  3.0828 -0.2147 -2.9954
  454MOL0     H59927   0.961   7.914   8.904 -0.3228 -1.9180 -0.1176
  454MOL0     H59928   1.012   7.806   9.122 -1.0879 -2.3989 -0.5265
  455MOL0     O59929  10.478   7.634  10.773  0.4795  0.6955 -0.4690
  455MOL0     C59930  10.583   7.656  10.718 -0.3457 -0.1831  0.5635
  455MOL0     O59931  10.591   7.739  10.611 -0.4049  0.3340 -0.5300
  455MOL0     C59932  10.487   7.812  10.575  0.3036 -0.6903 -0.0388
  455MOL0     C59933  10.474   7.954  10.584 -0.5449  0.8872 -1.0538
  455MOL0     C59934  10.349   8.011  10.563  0.3003 -0.1912  0.7233
  455MOL0     C59935  10.239   7.948  10.505 -0.5108  0.7569  0.4361
  455MOL0     O59936  10.130   8.013  10.474  0.4685  0.1907  0.0469
  455MOL0     C59937  10.007   7.962  10.539 -1.1015  0.6715 -0.0450
  455MOL0     C59938   9.895   8.034  10.461 -0.5950  0.6502 -1.0790
  455MOL0     C59939   9.899   8.186  10.499  0.1052  0.1904  0.3379
  455MOL0     C59940   9.779   8.259  10.436 -0.3527 -0.2560  0.0637
  455MOL0     C59941   9.762   8.399  10.492  0.4558 -0.2821 -0.2771
  455MOL0     C59942   9.663   8.466  10.411 -0.0572 -0.1099  1.1320
  455MOL0     C59943   9.641   8.614  10.460  0.5600  0.4576  0.6348
  455MOL0     C59944   9.564   8.714  10.365 -0.1131  0.4734 -0.7854
  455MOL0     N59945   9.421   8.679  10.379 -0.1994  0.6905  0.1532
  455MOL0     C59946   9.332   8.741  10.470 -0.7739  0.0794  0.4385
  455MOL0     C59947   9.217   8.690  10.438 -0.2286  1.1071 -0.2013
  455MOL0     C59948   9.099   8.707  10.528  0.0813  0.2711 -0.0723
  455MOL0     C59949   9.049   8.845  10.522 -0.2422 -0.0331  0.8261
  455MOL0     C59950   8.988   8.898  10.654 -0.0771  0.5247 -0.1591
  455MOL0     C59951   8.946   9.039  10.669  0.6391 -0.6946  0.1016
  455MOL0     O59952   8.984   9.080  10.801  0.2505 -0.6146  0.6579
  455MOL0     C59953   8.961   9.214  10.822 -0.7760  0.6916  0.4551
  455MOL0     C59954   9.015   9.261  10.944 -0.1624 -0.0747 -0.0111
  455MOL0     C59955   8.993   9.389  10.994 -0.2142  0.3339  0.6853
  455MOL0     C59956   8.938   9.488  10.911 -0.4120  0.3550  0.0764
  455MOL0     C59957   8.921   9.622  10.975  0.4758 -1.3274 -0.3464
  455MOL0     O59958   8.861   9.715  10.895  0.1495  0.5857  0.2167
  455MOL0     C59959   8.826   9.833  10.950 -0.4363 -0.0218 -0.6187
  455MOL0     C59960   8.920   9.905  11.034 -0.5032 -0.8772  0.7263
  455MOL0     C59961   8.879  10.031  11.096 -0.1624  0.8391 -0.2897
  455MOL0     C59962   8.746  10.073  11.086 -0.9237  0.9950  0.3026
  455MOL0     O59963   8.712  10.187  11.151  0.3462 -0.2334 -0.2709
  455MOL0     C59964   8.586  10.166  11.216 -0.6014 -0.0156 -0.1082
  455MOL0     C59965   8.468  10.243  11.155 -0.7904 -0.2074  0.2374
  455MOL0     C59966   8.344  10.180  11.204 -0.4227 -0.0367  0.5935
  455MOL0     C59967   8.225  10.278  11.175  0.5817  0.0327 -0.0876
  455MOL0     C59968   8.087  10.214  11.197  0.7273 -0.5432 -0.0593
  455MOL0     C59969   8.048  10.136  11.068 -0.2790  0.2896  0.1849
  455MOL0     C59970   7.913  10.076  11.088 -0.6368 -0.3129 -0.5865
  455MOL0     C59971   7.855  10.006  10.970  0.0651 -0.0069 -0.2739
  455MOL0    Cl59972   7.945   9.845  10.922  0.4399 -0.2114  0.1756
  455MOL0     C59973   8.659   9.991  11.007  0.0311 -0.2123  0.3982
  455MOL0     C59974   8.701   9.881  10.939  0.6272  0.3578  0.2153
  455MOL0     O59975   8.964   9.645  11.090 -0.1077 -0.4294  0.1393
  455MOL0     C59976   8.879   9.445  10.790 -0.1270  0.2979  0.4367
  455MOL0     C59977   8.897   9.305  10.743  0.4871 -1.0254  1.0219
  455MOL0     N59978   9.231   8.598  10.336 -0.7597  0.9804 -0.0840
  455MOL0     N59979   9.357   8.598  10.292 -0.4652  0.6735 -0.4081
  455MOL0     C59980  10.272   7.823  10.454  0.4508  0.4796 -0.5889
  455MOL0     C59981  10.386   7.750  10.495 -0.1780  0.1685  0.3501
  455MOL0     C59982  10.717   7.602  10.761 -0.8444  0.2698  0.1600
  455MOL0     C59983  10.731   7.517  10.867 -0.5260  0.4157 -0.0871
  455MOL0     C59984  10.866   7.464  10.899  1.2975 -0.5077  0.2571
  455MOL0     C59985  10.972   7.493  10.823 -0.7053 -0.8776 -0.2598
  455MOL0     O59986  11.102   7.453  10.853  0.3048  0.2952  0.2344
  455MOL0     C59987  11.117   7.330  10.925 -0.0367  0.5579 -0.4510
  455MOL0     C59988  11.255   7.285  10.941 -0.1704  0.8726  0.7403
  455MOL0     C59989  11.263   7.170  11.043  0.2528  0.0590 -0.4487
  455MOL0     C59990  11.403   7.110  11.053 -0.1095 -0.2934 -0.1617
  455MOL0     C59991  11.401   6.994  11.139 -0.3077  0.1218 -0.6751
  455MOL0     C59992  11.409   6.895  11.216  0.8903 -0.4943 -0.4805
  455MOL0     C59993  10.956   7.573  10.710 -0.4157  0.4096 -0.7613
  455MOL0     C59994  10.829   7.622  10.684 -1.1997 -0.1052 -0.1108
  455MOL0     H59995  10.548   8.023  10.624 -0.2149 -0.0054 -0.0613
  455MOL0     H59996  10.337   8.113  10.596 -1.9113 -0.0445 -0.3841
  455MOL0     H59997  10.009   7.999  10.642 -0.1831  4.4762 -1.2677
  455MOL0     H59998  10.001   7.853  10.543  1.7086  0.4722  2.3999
  455MOL0     H59999   9.799   7.992  10.493  0.1607 -0.2208  0.1506
  455MOL0     H60000   9.909   8.019  10.354 -0.7097 -1.4771 -0.8398
  455MOL0     H60001   9.991   8.217  10.448 -0.2439 -3.2270 -2.7842
  455MOL0     H60002   9.902   8.217  10.604  0.2453  0.6480  0.2032
  455MOL0     H60003   9.794   8.264  10.328  1.7406 -0.7589  0.2977
  455MOL0     H60004   9.690   8.197  10.454 -0.0137 -1.5714 -2.3451
  455MOL0     H60005   9.859   8.449  10.489 -1.2468  3.3509 -0.0922
  455MOL0     H60006   9.722   8.400  10.594  1.2602  1.3891  0.0554
  455MOL0     H60007   9.566   8.417  10.397 -0.1469  0.1979  0.6549
  455MOL0     H60008   9.708   8.463  10.311  0.4565  0.4208  1.3446
  455MOL0     H60009   9.580   8.604  10.550 -3.3705  0.2719 -1.7771
  455MOL0     H60010   9.739   8.661  10.475  0.7590  0.3234 -0.2085
  455MOL0     H60011   9.590   8.705  10.259 -0.3414  1.9442 -0.9834
  455MOL0     H60012   9.583   8.817  10.397 -1.6869  0.9622 -1.3436
  455MOL0     H60013   9.359   8.818  10.541 -1.0961  0.3835  0.2339
  455MOL0     H60014   9.131   8.680  10.629  0.3828  1.5626  0.1994
  455MOL0     H60015   9.025   8.633  10.497  1.3591 -0.7710 -0.7058
  455MOL0     H60016   8.975   8.850  10.441  3.4353 -3.0699 -3.2007
  455MOL0     H60017   9.119   8.918  10.479  1.8243 -2.7597 -0.7684
  455MOL0     H60018   8.894   8.842  10.667  1.8795 -2.5682  2.0604
  455MOL0     H60019   9.068   8.871  10.724 -1.2930  0.7416  1.3742
  455MOL0     H60020   8.839   9.047  10.649  0.2739 -0.5897  1.8858
  455MOL0     H60021   8.983   9.104  10.590 -3.1910  0.2130 -1.1526
  455MOL0     H60022   9.072   9.194  11.008  0.9123  0.3494 -0.5075
  455MOL0     H60023   9.038   9.418  11.088  1.1284 -1.6898  0.7334
  455MOL0     H60024   9.026   9.879  11.042 -0.2504 -0.7256 -1.5492
  455MOL0     H60025   8.940  10.072  11.176  1.3497 -1.1151 -0.3670
  455MOL0     H60026   8.600  10.208  11.316 -1.3712 -0.3560  0.1511
  455MOL0     H60027   8.558  10.062  11.236 -2.4991  0.6537  1.0541
  455MOL0     H60028   8.469  10.234  11.046 -3.5298  0.0123  0.1223
  455MOL0     H60029   8.473  10.347  11.189 -1.7217 -0.1168  0.1019
  455MOL0     H60030   8.342  10.155  11.311  0.6622 -1.3582  0.3245
  455MOL0     H60031   8.335  10.084  11.152  3.8218  1.1127 -2.7401
  455MOL0     H60032   8.216  10.363  11.243 -0.4362  1.0417 -1.4389
  455MOL0     H60033   8.233  10.323  11.076 -2.2649  1.1617  0.0942
  455MOL0     H60034   8.010  10.290  11.215 -1.5447 -1.6657 -3.7341
  455MOL0     H60035   8.099  10.143  11.279  3.5337 -2.0857 -1.6533
  455MOL0     H60036   8.127  10.065  11.042  1.2759  2.6740 -2.2284
  455MOL0     H60037   8.041  10.209  10.986  1.9142  2.7792  2.0142
  455MOL0     H60038   7.927   9.996  11.161  0.3097  1.1344  0.8727
  455MOL0     H60039   7.848  10.149  11.136 -0.0173 -3.4283  6.1436
  455MOL0     H60040   7.851  10.070  10.881 -0.9152 -0.2023 -0.3746
  455MOL0     H60041   7.750   9.985  10.988 -0.3584  0.6975 -1.7064
  455MOL0     H60042   8.559  10.032  11.000  0.8586  1.7560 -1.1552
  455MOL0     H60043   8.625   9.826  10.883 -0.0939 -2.0173  3.2650
  455MOL0     H60044   8.817   9.507  10.726  1.5246  0.7487 -0.8070
  455MOL0     H60045   8.858   9.288  10.643  0.7404  1.7675  0.3499
  455MOL0     H60046  10.197   7.757  10.411  0.1925 -0.3652  1.0776
  455MOL0     H60047  10.387   7.646  10.462 -1.9485 -0.5804  2.4251
  455MOL0     H60048  10.638   7.479  10.909 -0.4279 -2.2007 -1.9849
  455MOL0     H60049  10.868   7.403  10.989  1.4726 -0.5506  0.2242
  455MOL0     H60050  11.067   7.246  10.876  0.0098 -0.6846  1.4948
  455MOL0     H60051  11.072   7.340  11.025  0.1742 -0.7074 -0.2187
  455MOL0     H60052  11.286   7.249  10.842 -0.6105  1.0527  0.5332
  455MOL0     H60053  11.323   7.363  10.974  1.3422 -0.8207  1.8136
  455MOL0     H60054  11.195   7.092  11.008 -1.6249 -0.9020  4.5112
  455MOL0     H60055  11.225   7.211  11.137  0.6876  1.1314 -0.7265
  455MOL0     H60056  11.454   7.091  10.958  2.5757  2.8502  0.4414
  455MOL0     H60057  11.474   7.180  11.098  0.0992 -1.7632  1.9338
  455MOL0     H60058  11.432   6.815  11.284 -1.0076 -0.3824  0.3552
  455MOL0     H60059  11.031   7.587  10.633  2.5262 -2.6778  1.2730
  455MOL0     H60060  10.824   7.695  10.604 -0.9097 -0.1389 -0.1618
  456MOL0     O60061   2.863   4.974   1.964  0.4162 -0.6198  0.2390
  456MOL0     C60062   2.773   4.911   2.014 -0.6431  0.4483  0.2969
  456MOL0     O60063   2.666   4.955   2.090 -0.0622  0.1446 -0.4891
  456MOL0     C60064   2.668   5.087   2.136  0.4259  0.7603  0.6636
  456MOL0     C60065   2.619   5.105   2.270  0.0944 -0.4498  0.0264
  456MOL0     C60066   2.592   5.229   2.318 -0.3018  0.2614 -0.4561
  456MOL0     C60067   2.617   5.349   2.250 -1.4021 -0.7713 -0.2216
  456MOL0     O60068   2.628   5.460   2.336 -0.6242 -0.0378  0.3702
  456MOL0     C60069   2.645   5.591   2.271 -1.3348  0.5721 -0.6020
  456MOL0     C60070   2.524   5.674   2.226 -0.7203 -0.5337  0.1530
  456MOL0     C60071   2.414   5.691   2.326  0.2138  0.7412 -0.8240
  456MOL0     C60072   2.447   5.798   2.427 -0.1457  0.5675 -0.2827
  456MOL0     C60073   2.332   5.846   2.511  0.2437 -0.1477 -0.7906
  456MOL0     C60074   2.260   5.735   2.585 -0.6493 -0.8189  0.4225
  456MOL0     C60075   2.145   5.793   2.688  0.4425  0.8080 -0.8229
  456MOL0     C60076   2.022   5.849   2.614  0.0256  0.6301 -0.7733
  456MOL0     N60077   1.971   5.760   2.510 -0.3287 -0.0352 -0.2154
  456MOL0     C60078   1.924   5.636   2.516 -0.0454 -0.1448  0.3377
  456MOL0     C60079   1.902   5.601   2.387 -0.0351  0.1501 -0.7674
  456MOL0     C60080   1.836   5.474   2.354 -0.0719  0.4957  0.6832
  456MOL0     C60081   1.878   5.418   2.218 -0.5664 -0.2100  0.0827
  456MOL0     C60082   2.030   5.400   2.209 -1.2141 -0.0881 -0.3952
  456MOL0     C60083   2.078   5.255   2.198  0.4189 -0.4730 -0.3755
  456MOL0     O60084   2.043   5.184   2.315 -0.5802  0.4668 -0.8786
  456MOL0     C60085   2.100   5.058   2.333  0.2768 -1.2228  0.3274
  456MOL0     C60086   2.177   4.987   2.240 -1.3679 -0.0478  0.9363
  456MOL0     C60087   2.245   4.868   2.261  0.3402  0.1475  0.2726
  456MOL0     C60088   2.231   4.805   2.390 -0.5180 -0.6690 -0.1128
  456MOL0     C60089   2.305   4.681   2.428  0.8402 -0.0702 -0.2787
  456MOL0     O60090   2.421   4.653   2.369 -0.0482 -0.3303 -1.0224
  456MOL0     C60091   2.486   4.534   2.406  0.2025  0.4978 -0.2846
  456MOL0     C60092   2.514   4.495   2.543  0.9038  0.1345 -0.4146
  456MOL0     C60093   2.583   4.375   2.582  0.2931 -0.6221  0.9086
  456MOL0     C60094   2.632   4.302   2.475  1.2000 -0.1654 -0.4249
  456MOL0     O60095   2.694   4.182   2.522  0.0846  0.3305  0.5367
  456MOL0     C60096   2.806   4.134   2.434  0.5612  0.2694  0.5924
  456MOL0     C60097   2.925   4.109   2.527 -0.2216 -0.7173 -1.1247
  456MOL0     C60098   2.902   4.027   2.659  1.3564  0.2182  0.4391
  456MOL0     C60099   2.935   3.876   2.649  0.2074 -0.4781 -0.6355
  456MOL0     C60100   2.939   3.814   2.788 -0.3890  0.1841 -1.1209
  456MOL0     C60101   2.925   3.663   2.780 -0.7161 -0.3789 -0.4737
  456MOL0     C60102   3.034   3.584   2.860 -0.6379 -1.2502  0.3333
  456MOL0     C60103   2.981   3.465   2.917  0.6972  0.4024  0.4931
  456MOL0    Cl60104   3.112   3.359   2.959  0.0006  0.0270  0.3322
  456MOL0     C60105   2.611   4.339   2.344 -0.2581 -0.5628 -0.8839
  456MOL0     C60106   2.560   4.464   2.309  0.4927 -0.0614  0.3975
  456MOL0     O60107   2.242   4.610   2.510 -0.1648  0.1582  0.7152
  456MOL0     C60108   2.152   4.870   2.488  0.3225 -0.4321 -0.2937
  456MOL0     C60109   2.086   4.985   2.454 -0.0006 -0.9233 -0.0688
  456MOL0     N60110   1.929   5.713   2.302 -0.3653  0.3350 -0.9091
  456MOL0     N60111   1.976   5.801   2.385  0.0400  0.4482 -0.1892
  456MOL0     C60112   2.685   5.326   2.131  1.1067  0.7699  0.3062
  456MOL0     C60113   2.692   5.205   2.060  0.6299  0.0373  0.0428
  456MOL0     C60114   2.797   4.764   1.999 -0.0270 -2.0718 -0.9318
  456MOL0     C60115   2.875   4.718   1.888  0.2229  0.7199 -0.9448
  456MOL0     C60116   2.915   4.578   1.877  0.3485  0.1402  0.7243
  456MOL0     C60117   2.882   4.496   1.989  0.3572 -0.3128  0.6727
  456MOL0     O60118   2.901   4.367   2.005  0.1528  0.9253  0.4234
  456MOL0     C60119   2.978   4.304   1.900 -0.5500 -0.3923 -0.5839
  456MOL0     C60120   3.126   4.331   1.924  0.2799 -0.3773  0.5735
  456MOL0     C60121   3.206   4.288   1.804 -0.3495 -0.2918 -0.5977
  456MOL0     C60122   3.206   4.133   1.770 -1.1537  0.0358 -0.5063
  456MOL0     C60123   3.088   4.090   1.693 -0.5659  0.1145  0.5372
  456MOL0     C60124   3.000   4.069   1.608 -0.4316 -0.7372 -0.1442
  456MOL0     C60125   2.810   4.546   2.091  0.0806 -0.2688  0.4827
  456MOL0     C60126   2.775   4.686   2.111 -0.1086  0.4575 -0.1199
  456MOL0     H60127   2.594   5.024   2.337 -0.6666  0.3029  0.6714
  456MOL0     H60128   2.566   5.236   2.423  0.5688 -0.2995 -0.1987
  456MOL0     H60129   2.721   5.581   2.192 -0.2895  2.0072  0.1805
  456MOL0     H60130   2.689   5.656   2.347 -2.7720  0.3876  0.4213
  456MOL0     H60131   2.490   5.628   2.134  0.9385  1.3552 -1.5239
  456MOL0     H60132   2.568   5.773   2.208  0.5821 -0.2878  3.7673
  456MOL0     H60133   2.403   5.597   2.381  0.5715  1.6062  0.7687
  456MOL0     H60134   2.320   5.710   2.274 -1.8300 -0.9988  1.9038
  456MOL0     H60135   2.523   5.760   2.497 -1.4782  1.1908  1.5796
  456MOL0     H60136   2.492   5.883   2.375 -0.9179  1.9858  1.2821
  456MOL0     H60137   2.255   5.885   2.445 -1.5912 -0.3155  1.1447
  456MOL0     H60138   2.373   5.907   2.591 -0.4516 -0.6248 -0.0536
  456MOL0     H60139   2.326   5.661   2.632 -1.2519 -3.1268 -2.1551
  456MOL0     H60140   2.206   5.668   2.518  1.2801 -3.8054  1.6131
  456MOL0     H60141   2.105   5.719   2.757 -1.4107  1.6557 -0.9476
  456MOL0     H60142   2.185   5.879   2.743  1.5772  0.8689 -1.7061
  456MOL0     H60143   2.044   5.948   2.572 -1.7727  0.4425 -2.2464
  456MOL0     H60144   1.946   5.874   2.689 -0.4783 -0.8686 -0.7553
  456MOL0     H60145   1.924   5.565   2.599 -1.1817 -2.5966 -1.6039
  456MOL0     H60146   1.727   5.487   2.353 -0.6641 -3.2708 -0.1186
  456MOL0     H60147   1.858   5.412   2.442  2.4453  1.3421  0.7353
  456MOL0     H60148   1.842   5.481   2.136  0.1677  2.3521  1.6328
  456MOL0     H60149   1.833   5.319   2.204  0.5058 -0.7304  0.1369
  456MOL0     H60150   2.048   5.461   2.119  0.0539  1.6100  0.9314
  456MOL0     H60151   2.082   5.449   2.292  1.7244  0.0164 -2.1415
  456MOL0     H60152   2.188   5.257   2.192  0.7334 -4.3925  1.3064
  456MOL0     H60153   2.028   5.211   2.111  0.1245 -5.0346  1.8483
  456MOL0     H60154   2.191   5.039   2.145  0.2495  0.8176  1.6066
  456MOL0     H60155   2.314   4.829   2.187  1.3919 -0.4866  1.5441
  456MOL0     H60156   2.476   4.563   2.619  2.0348  1.3763 -0.9202
  456MOL0     H60157   2.608   4.349   2.685 -1.8885 -2.2708  1.1083
  456MOL0     H60158   2.830   4.209   2.359 -0.5116  2.4756  2.3187
  456MOL0     H60159   2.778   4.040   2.387  2.7433 -0.6085  0.9209
  456MOL0     H60160   2.975   4.206   2.539 -1.4304  0.0851 -2.2409
  456MOL0     H60161   2.999   4.050   2.471 -0.8672 -1.4531 -1.2184
  456MOL0     H60162   2.795   4.031   2.685  1.8041 -1.0011  2.7130
  456MOL0     H60163   2.944   4.086   2.741 -0.8078  0.3084  1.5773
  456MOL0     H60164   2.865   3.816   2.591  1.0588 -0.8311 -1.3234
  456MOL0     H60165   3.037   3.859   2.612  1.6722 -0.7641  3.0959
  456MOL0     H60166   2.863   3.854   2.856 -1.6005 -1.9719 -1.1125
  456MOL0     H60167   3.029   3.847   2.839 -1.5929 -0.8053  1.8431
  456MOL0     H60168   2.927   3.631   2.676 -0.8840  1.6196 -1.1358
  456MOL0     H60169   2.829   3.635   2.822 -0.9059  0.6293 -0.2038
  456MOL0     H60170   3.120   3.562   2.796  2.2279  2.0703  2.6823
  456MOL0     H60171   3.069   3.644   2.944 -1.8187 -0.2489  0.1374
  456MOL0     H60172   2.910   3.412   2.852  2.0942  0.6900 -1.3359
  456MOL0     H60173   2.925   3.484   3.009 -3.2133 -0.1385 -1.5627
  456MOL0     H60174   2.664   4.297   2.259  0.9617  0.0859 -0.4708
  456MOL0     H60175   2.542   4.519   2.217 -3.1580 -1.1140  0.3339
  456MOL0     H60176   2.126   4.817   2.578  4.6176  0.7878  1.8952
  456MOL0     H60177   2.013   5.027   2.522  0.0114  1.3169 -1.3751
  456MOL0     H60178   2.704   5.414   2.071 -0.5387 -0.1520 -1.6679
  456MOL0     H60179   2.728   5.203   1.957  3.5228 -3.9969  0.8748
  456MOL0     H60180   2.896   4.780   1.802 -3.1025  0.6516 -1.9549
  456MOL0     H60181   2.971   4.543   1.792 -1.6375  0.8911 -0.9891
  456MOL0     H60182   2.946   4.334   1.800  3.7191  4.4484 -0.9050
  456MOL0     H60183   2.954   4.198   1.899  1.7716 -1.0058 -3.1244
  456MOL0     H60184   3.143   4.439   1.939 -1.0434  0.2268 -1.7636
  456MOL0     H60185   3.163   4.277   2.012 -0.0768  1.3624  1.8536
  456MOL0     H60186   3.308   4.305   1.839 -1.0400 -0.3544  1.5787
  456MOL0     H60187   3.174   4.337   1.711 -0.4215  1.7961  0.4690
  456MOL0     H60188   3.299   4.113   1.715 -0.3073 -0.0569  0.9177
  456MOL0     H60189   3.217   4.072   1.860 -1.5556  0.4935 -0.1487
  456MOL0     H60190   2.934   4.035   1.530 -1.5023 -0.9699  0.8354
  456MOL0     H60191   2.784   4.482   2.174 -3.6334  0.5791  0.1364
  456MOL0     H60192   2.737   4.723   2.206  2.6335 -1.0081  1.6700
  457MOL0     O60193   8.288   4.212   3.931  0.2711  0.5693 -0.3153
  457MOL0     C60194   8.387   4.135   3.924 -0.1181  0.1131 -0.0441
  457MOL0     O60195   8.395   4.026   3.839 -0.2118  0.9578 -0.3688
  457MOL0     C60196   8.353   4.027   3.711  0.8477 -0.1978 -0.5091
  457MOL0     C60197   8.370   3.907   3.644 -0.2027  0.7465 -0.0689
  457MOL0     C60198   8.326   3.901   3.511  0.2779 -1.4331  0.2234
  457MOL0     C60199   8.260   4.007   3.445  0.0831  0.4710  1.1973
  457MOL0     O60200   8.203   3.963   3.325 -0.9122 -0.1085  0.6333
  457MOL0     C60201   8.101   4.047   3.277  0.1275 -0.0751  0.4786
  457MOL0     C60202   8.032   3.978   3.166 -0.1183  0.9181 -0.5625
  457MOL0     C60203   7.905   4.033   3.104  1.1354  0.3278 -0.4393
  457MOL0     C60204   7.894   4.006   2.951  0.2723  0.3251  0.5645
  457MOL0     C60205   7.939   4.137   2.881 -0.0210 -0.1361  0.2116
  457MOL0     C60206   7.949   4.143   2.730  0.3154  0.2896  0.1661
  457MOL0     C60207   7.812   4.151   2.661  0.6162  0.1876  0.8073
  457MOL0     C60208   7.801   4.206   2.520 -0.0652  0.7361  0.5799
  457MOL0     N60209   7.786   4.351   2.526  0.1421  0.2884 -0.8234
  457MOL0     C60210   7.879   4.445   2.554 -0.5641  0.4072 -0.2136
  457MOL0     C60211   7.814   4.560   2.540 -0.2806 -0.4575 -0.3711
  457MOL0     C60212   7.873   4.696   2.566 -0.0118  0.4111 -0.2228
  457MOL0     C60213   7.944   4.744   2.441  0.5201 -0.2326  0.6800
  457MOL0     C60214   7.881   4.833   2.330 -0.2929  0.2217 -0.4090
  457MOL0     C60215   7.841   4.981   2.379 -0.1703  1.1644  0.2793
  457MOL0     O60216   7.704   4.990   2.416  0.5616  0.3815  0.6240
  457MOL0     C60217   7.660   5.073   2.524  0.6150  0.2632  0.7878
  457MOL0     C60218   7.522   5.062   2.542 -0.4538 -0.1266  1.0182
  457MOL0     C60219   7.458   5.130   2.642  0.9892 -0.9063  0.0857
  457MOL0     C60220   7.527   5.235   2.712 -0.2457 -0.3615 -0.1779
  457MOL0     C60221   7.466   5.321   2.811 -0.2515 -0.4685 -0.1645
  457MOL0     O60222   7.334   5.329   2.809 -0.2276 -0.1657  0.1490
  457MOL0     C60223   7.273   5.423   2.886 -0.1445 -0.6652  0.6409
  457MOL0     C60224   7.275   5.561   2.852  0.1807 -0.1430  0.5406
  457MOL0     C60225   7.210   5.656   2.934  0.4165 -0.3806 -0.1953
  457MOL0     C60226   7.136   5.606   3.040 -0.1919  0.0312  0.3584
  457MOL0     O60227   7.057   5.679   3.118  0.5752 -0.1031  0.0068
  457MOL0     C60228   7.108   5.797   3.166  0.3496  0.1667  0.5095
  457MOL0     C60229   6.988   5.895   3.184 -0.0719  0.1140 -0.0467
  457MOL0     C60230   6.868   5.848   3.269 -0.9571 -0.0391 -0.8416
  457MOL0     C60231   6.910   5.769   3.397 -0.5622  0.3864 -0.2863
  457MOL0     C60232   6.797   5.753   3.502 -0.2746 -0.1171 -0.6402
  457MOL0     C60233   6.668   5.698   3.440  0.3392 -0.2849 -0.4685
  457MOL0     C60234   6.560   5.706   3.549  1.0329  0.8247  0.1421
  457MOL0     C60235   6.563   5.582   3.644 -0.3996  0.4222  0.0968
  457MOL0    Cl60236   6.682   5.620   3.777 -0.2671 -0.0257 -0.6312
  457MOL0     C60237   7.126   5.474   3.080 -0.5643  0.9060 -0.9543
  457MOL0     C60238   7.194   5.383   2.995 -0.7532  1.0193  0.3061
  457MOL0     O60239   7.540   5.395   2.872  0.0212 -0.4265  0.1942
  457MOL0     C60240   7.669   5.240   2.687  0.0360 -0.3636  0.5370
  457MOL0     C60241   7.734   5.172   2.584 -0.3084  0.0617 -0.8694
  457MOL0     N60242   7.684   4.534   2.507 -0.1731  0.0447  0.8771
  457MOL0     N60243   7.669   4.407   2.495 -0.0914 -0.3098 -0.1520
  457MOL0     C60244   8.253   4.125   3.513 -0.5525  0.4408 -0.2952
  457MOL0     C60245   8.282   4.134   3.653  0.1502 -0.3010  0.5388
  457MOL0     C60246   8.497   4.160   4.015 -1.1627 -0.0505 -0.1980
  457MOL0     C60247   8.490   4.261   4.126 -0.2432  0.5020  0.2523
  457MOL0     C60248   8.594   4.268   4.220  0.0968 -0.3347 -0.7560
  457MOL0     C60249   8.702   4.175   4.218  0.5637 -0.5305 -0.4804
  457MOL0     O60250   8.795   4.169   4.315 -0.4955  0.2220  0.1901
  457MOL0     C60251   8.823   4.267   4.424  0.2167 -0.6030  0.7122
  457MOL0     C60252   8.875   4.408   4.376 -0.5086  0.1185  0.4555
  457MOL0     C60253   8.943   4.491   4.490  0.1178  0.7588 -0.8814
  457MOL0     C60254   8.954   4.639   4.466  0.7503  0.0260  0.6013
  457MOL0     C60255   9.058   4.693   4.563 -0.2456  0.4892 -0.1624
  457MOL0     C60256   9.133   4.740   4.645  0.1861  0.9510 -0.6404
  457MOL0     C60257   8.719   4.097   4.108  0.4937  0.0877 -0.5427
  457MOL0     C60258   8.619   4.086   4.005  0.3676  0.8887  0.1200
  457MOL0     H60259   8.427   3.825   3.687 -2.4594 -0.3470  1.0145
  457MOL0     H60260   8.335   3.807   3.457 -0.9268 -0.6162 -1.5148
  457MOL0     H60261   8.135   4.142   3.235  0.4064 -0.0340  0.7941
  457MOL0     H60262   8.037   4.070   3.362  0.3384 -0.4509  0.7434
  457MOL0     H60263   8.011   3.877   3.204  0.5522  1.0249  0.1198
  457MOL0     H60264   8.099   3.974   3.080 -0.4356 -0.4931 -0.7676
  457MOL0     H60265   7.889   4.139   3.127  0.2310  0.6456 -2.3381
  457MOL0     H60266   7.816   3.982   3.142  2.3651  0.5824  3.1360
  457MOL0     H60267   7.945   3.917   2.914  1.2628  0.8825  0.5254
  457MOL0     H60268   7.791   3.987   2.922  0.7710  1.1655 -2.0372
  457MOL0     H60269   8.041   4.166   2.909  1.0039 -0.9601 -2.3276
  457MOL0     H60270   7.876   4.219   2.915  0.4334  0.9110 -1.3906
  457MOL0     H60271   7.988   4.047   2.696  0.1339 -0.1682  1.2522
  457MOL0     H60272   8.022   4.219   2.698  2.4052 -1.4852  0.5327
  457MOL0     H60273   7.767   4.051   2.654 -0.3598  0.6792 -0.1790
  457MOL0     H60274   7.739   4.207   2.721 -2.9953  0.4942 -3.3676
  457MOL0     H60275   7.726   4.164   2.452 -1.1144  2.3797  0.6679
  457MOL0     H60276   7.897   4.191   2.469 -0.7232  4.3763 -2.1534
  457MOL0     H60277   7.980   4.440   2.591  0.5018 -1.0880 -2.9943
  457MOL0     H60278   7.938   4.683   2.653 -0.0385 -3.0229 -0.5792
  457MOL0     H60279   7.796   4.768   2.596  1.6020  1.5806  1.3384
  457MOL0     H60280   8.014   4.669   2.404  0.7952  0.3321  0.0483
  457MOL0     H60281   8.008   4.822   2.483  0.4771  1.2426 -1.8211
  457MOL0     H60282   7.951   4.835   2.246 -0.3032  0.5711 -0.4086
  457MOL0     H60283   7.790   4.788   2.287  1.0173 -0.1527 -2.9602
  457MOL0     H60284   7.854   5.050   2.295 -5.1789  1.6860 -0.4159
  457MOL0     H60285   7.906   5.017   2.459  0.1780 -0.4766  0.7836
  457MOL0     H60286   7.467   4.984   2.489  1.7994 -2.4066  1.8602
  457MOL0     H60287   7.357   5.111   2.676  1.6323 -1.3478  1.8698
  457MOL0     H60288   7.316   5.591   2.756 -3.2147  0.3396 -0.8867
  457MOL0     H60289   7.195   5.762   2.919 -2.0073 -0.1377  2.8536
  457MOL0     H60290   7.181   5.849   3.102  1.2937 -1.4484  0.2244
  457MOL0     H60291   7.170   5.779   3.254  0.1119 -3.8225  0.0294
  457MOL0     H60292   6.950   5.927   3.087 -4.5044  1.2900  1.8205
  457MOL0     H60293   7.028   5.990   3.222 -1.7182  0.4470  0.9563
  457MOL0     H60294   6.799   5.787   3.210 -0.3577 -1.2000 -0.3810
  457MOL0     H60295   6.819   5.939   3.305 -0.4353  0.5497 -1.5896
  457MOL0     H60296   6.952   5.674   3.362 -0.3553  0.8425 -1.3238
  457MOL0     H60297   6.991   5.826   3.445 -1.5083  0.6371  1.0623
  457MOL0     H60298   6.769   5.851   3.543  2.1875  0.0683  0.8014
  457MOL0     H60299   6.834   5.685   3.580  2.2401 -1.1720 -2.6353
  457MOL0     H60300   6.691   5.595   3.409  0.8656  0.0112 -1.0919
  457MOL0     H60301   6.638   5.772   3.365  1.3036  2.4520  1.7177
  457MOL0     H60302   6.561   5.807   3.591 -0.4454  1.3960 -1.0530
  457MOL0     H60303   6.469   5.697   3.489  1.3830  0.0343 -0.2781
  457MOL0     H60304   6.599   5.491   3.595 -1.2318  0.1365  0.0032
  457MOL0     H60305   6.466   5.561   3.689  0.6664  0.6875  2.7273
  457MOL0     H60306   7.047   5.445   3.148 -1.5249  1.1924 -1.9207
  457MOL0     H60307   7.175   5.276   2.992  3.1792  0.1764  0.0523
  457MOL0     H60308   7.738   5.306   2.738  1.6778 -1.3300 -0.3561
  457MOL0     H60309   7.839   5.187   2.562 -0.9237  2.3005 -2.6464
  457MOL0     H60310   8.207   4.214   3.471 -0.7535  0.5691  0.1922
  457MOL0     H60311   8.259   4.224   3.709 -5.2635  2.0938 -4.3969
  457MOL0     H60312   8.398   4.317   4.138 -0.9855 -0.9861  2.0352
  457MOL0     H60313   8.608   4.343   4.298 -0.2607 -1.8044  0.7907
  457MOL0     H60314   8.893   4.221   4.495  1.7585 -0.4812 -0.6633
  457MOL0     H60315   8.721   4.272   4.462 -1.5166 -1.3148 -3.2825
  457MOL0     H60316   8.949   4.390   4.297  0.6145  3.7794  0.4880
  457MOL0     H60317   8.795   4.464   4.327 -1.6003 -2.4625 -0.8848
  457MOL0     H60318   9.042   4.449   4.507  0.0135  0.3327 -1.2864
  457MOL0     H60319   8.885   4.471   4.580  0.4937  2.0865 -0.3326
  457MOL0     H60320   8.994   4.656   4.365 -0.3816 -0.3686  0.0650
  457MOL0     H60321   8.856   4.686   4.480  0.2983 -1.1245  1.4344
  457MOL0     H60322   9.193   4.780   4.724  0.1358  2.0537 -1.1475
  457MOL0     H60323   8.807   4.033   4.097  0.1903 -0.5598  0.6259
  457MOL0     H60324   8.632   4.022   3.918 -3.7388  0.4234 -0.3778
  458MOL0     O60325   5.201  10.328   4.215 -1.2261 -0.0774 -0.1516
  458MOL0     C60326   5.213  10.208   4.236  0.0529  0.0598  0.1526
  458MOL0     O60327   5.329  10.128   4.253  0.2619 -0.1422  0.5447
  458MOL0     C60328   5.442  10.200   4.277  0.5123  0.5679  0.9038
  458MOL0     C60329   5.530  10.239   4.173  0.3096  0.1139  0.2787
  458MOL0     C60330   5.646  10.314   4.205 -0.0871 -0.0368  1.2395
  458MOL0     C60331   5.668  10.364   4.331 -0.2801  0.4923  0.0306
  458MOL0     O60332   5.778  10.441   4.356 -0.3801 -0.2211 -0.0879
  458MOL0     C60333   5.832  10.423   4.486 -1.4360 -0.4916 -0.2266
  458MOL0     C60334   5.969  10.473   4.480  0.1993  0.7875  0.9038
  458MOL0     C60335   6.068  10.436   4.595 -0.7171  0.3022  0.0856
  458MOL0     C60336   6.175  10.548   4.625 -0.1538  0.3061  0.7065
  458MOL0     C60337   6.317  10.487   4.641 -0.3776  0.7712 -0.1337
  458MOL0     C60338   6.399  10.438   4.525 -0.2336 -1.0734  0.4703
  458MOL0     C60339   6.459  10.562   4.459 -0.1513  0.6677  0.5558
  458MOL0     C60340   6.549  10.518   4.349 -0.6146 -0.7180 -0.8178
  458MOL0     N60341   6.679  10.456   4.402  0.2251  0.0803  0.2099
  458MOL0     C60342   6.790  10.525   4.450  0.1861  0.8651 -0.0406
  458MOL0     C60343   6.880  10.432   4.480 -0.7166  0.7596  0.0484
  458MOL0     C60344   7.028  10.446   4.511  0.1055 -0.4298  0.3758
  458MOL0     C60345   7.055  10.389   4.645 -0.1686 -0.2289 -0.4354
  458MOL0     C60346   7.208  10.366   4.669 -0.2548 -0.1330  0.5888
  458MOL0     C60347   7.236  10.318   4.813 -1.0783  0.0982 -0.0019
  458MOL0     O60348   7.372  10.278   4.840  0.1381 -0.5487 -0.2749
  458MOL0     C60349   7.466  10.364   4.899 -0.5345  0.3281 -0.6137
  458MOL0     C60350   7.455  10.503   4.940 -0.0147 -0.2761  0.3075
  458MOL0     C60351   7.562  10.573   4.989 -0.7008 -0.7848 -0.1132
  458MOL0     C60352   7.689  10.514   5.009 -0.3525 -0.1197  0.7284
  458MOL0     C60353   7.801  10.597   5.064 -0.5113 -0.3258  0.5350
  458MOL0     O60354   7.924  10.532   5.066  0.4152  0.9400 -0.4518
  458MOL0     C60355   8.028  10.608   5.109  0.2042  0.0270 -0.5874
  458MOL0     C60356   8.107  10.679   5.022 -0.9888 -0.4258  0.1494
  458MOL0     C60357   8.214  10.763   5.079  0.1423 -1.0944 -0.0899
  458MOL0     C60358   8.230  10.771   5.224 -0.2430 -0.8653  0.0801
  458MOL0     O60359   8.348  10.842   5.264 -0.0117 -0.4018 -0.6176
  458MOL0     C60360   8.344  10.906   5.389  0.2803  0.4920  0.8121
  458MOL0     C60361   8.256  11.033   5.385 -0.5096  0.3209 -0.2886
  458MOL0     C60362   8.284  11.120   5.263 -0.7113  0.2455 -0.1423
  458MOL0     C60363   8.205  11.253   5.285  0.2525 -0.0940 -0.7303
  458MOL0     C60364   8.237  11.374   5.188 -0.5057 -0.5524  0.2385
  458MOL0     C60365   8.242  11.332   5.039 -0.2424  0.3958 -0.0675
  458MOL0     C60366   8.260  11.446   4.947 -0.1290 -0.2729 -0.6984
  458MOL0     C60367   8.202  11.424   4.812  1.1644  0.3922  1.2162
  458MOL0    Cl60368   8.029  11.438   4.824 -0.1996  0.2367  0.3165
  458MOL0     C60369   8.156  10.690   5.303 -0.3760 -0.0274 -0.1605
  458MOL0     C60370   8.062  10.598   5.241 -0.5338 -0.4537 -0.2618
  458MOL0     O60371   7.780  10.712   5.090  0.4758  0.2767  0.5309
  458MOL0     C60372   7.700  10.377   4.979  0.1480  0.1365 -0.1429
  458MOL0     C60373   7.597  10.306   4.922  0.4333  0.5580  0.5951
  458MOL0     N60374   6.817  10.311   4.462 -0.3487 -0.0071  0.2852
  458MOL0     N60375   6.701  10.319   4.418 -0.9724  0.2741  0.1299
  458MOL0     C60376   5.574  10.326   4.430 -0.1576 -0.3884  1.0559
  458MOL0     C60377   5.460  10.249   4.403 -0.4810 -0.9057 -0.2475
  458MOL0     C60378   5.089  10.134   4.269 -0.7129 -0.5320  0.2098
  458MOL0     C60379   5.076  10.001   4.323  0.0727 -0.2571  0.8324
  458MOL0     C60380   4.953   9.950   4.362  0.4292  0.3301 -0.0951
  458MOL0     C60381   4.838  10.017   4.335  0.6556 -0.0555 -0.4984
  458MOL0     O60382   4.715   9.986   4.383  0.3960  0.3178  0.7310
  458MOL0     C60383   4.689   9.886   4.484 -0.8826  0.1553 -0.0308
  458MOL0     C60384   4.684   9.942   4.628  0.4052  0.7891  0.3492
  458MOL0     C60385   4.645   9.835   4.728 -0.2459 -0.0684  0.0277
  458MOL0     C60386   4.609   9.893   4.864 -0.8396 -0.0349  0.1344
  458MOL0     C60387   4.562   9.802   4.971  0.4252  0.4472  0.5717
  458MOL0     C60388   4.528   9.724   5.057  0.0794  0.4200  1.0454
  458MOL0     C60389   4.841  10.145   4.285  0.1508  0.0532  0.6605
  458MOL0     C60390   4.965  10.197   4.255 -0.3074 -0.5199 -0.4602
  458MOL0     H60391   5.505  10.210   4.072 -1.8395  1.2123  0.4432
  458MOL0     H60392   5.713  10.335   4.123 -4.3617  1.5923 -2.2867
  458MOL0     H60393   5.826  10.320   4.521  0.1793  0.1276  2.0884
  458MOL0     H60394   5.790  10.483   4.568 -0.9251  0.0209 -0.3336
  458MOL0     H60395   5.956  10.582   4.474 -0.8790  0.5998 -3.0430
  458MOL0     H60396   6.009  10.439   4.384 -1.8066 -1.5661  0.8140
  458MOL0     H60397   6.120  10.348   4.557  2.3043  1.6272  0.9101
  458MOL0     H60398   6.013  10.408   4.685 -0.2244 -0.0348  0.2837
  458MOL0     H60399   6.184  10.625   4.547 -1.1967  1.7781  1.9719
  458MOL0     H60400   6.142  10.607   4.711 -0.9230 -0.5256  0.9958
  458MOL0     H60401   6.311  10.412   4.720 -2.2735  2.3487  1.3045
  458MOL0     H60402   6.367  10.574   4.685 -0.3926  0.9274 -0.4213
  458MOL0     H60403   6.342  10.372   4.458 -0.4205 -0.5653  0.1177
  458MOL0     H60404   6.479  10.378   4.569  0.1197 -1.9574 -1.2666
  458MOL0     H60405   6.373  10.608   4.412 -0.8834 -0.8897  0.2972
  458MOL0     H60406   6.505  10.638   4.523 -2.9368  2.3749  0.6577
  458MOL0     H60407   6.578  10.615   4.306  0.7375 -0.9700 -0.5438
  458MOL0     H60408   6.498  10.458   4.274 -0.7959 -1.5924 -0.0181
  458MOL0     H60409   6.804  10.633   4.447 -0.1997  0.9203  0.0504
  458MOL0     H60410   7.051  10.553   4.500  1.7421 -0.9150 -1.3349
  458MOL0     H60411   7.085  10.390   4.436 -1.5433  0.4931 -1.6795
  458MOL0     H60412   7.011  10.289   4.651 -1.4419  0.3980  1.3476
  458MOL0     H60413   7.002  10.446   4.722 -3.1765 -1.9275 -1.0896
  458MOL0     H60414   7.239  10.288   4.599 -1.5046 -2.9596  2.9580
  458MOL0     H60415   7.269  10.456   4.657  1.6964 -1.0961  2.7319
  458MOL0     H60416   7.179  10.229   4.840  0.7617 -0.8708  0.8499
  458MOL0     H60417   7.206  10.401   4.878  1.8619  1.1571  0.1572
  458MOL0     H60418   7.363  10.555   4.914 -1.3636 -2.0424  1.2681
  458MOL0     H60419   7.552  10.680   5.005 -0.4227 -0.6850 -0.5771
  458MOL0     H60420   8.101  10.674   4.914 -1.5175 -2.2000  0.2393
  458MOL0     H60421   8.267  10.828   5.011 -2.3440 -1.8092 -2.9411
  458MOL0     H60422   8.445  10.945   5.409  2.0509 -1.5008 -3.0660
  458MOL0     H60423   8.318  10.834   5.468 -1.1789 -0.7195 -0.7045
  458MOL0     H60424   8.273  11.092   5.475  3.1682 -0.9365  0.0165
  458MOL0     H60425   8.150  11.009   5.389 -0.6419  1.0259  0.8168
  458MOL0     H60426   8.252  11.064   5.176 -2.1720 -2.4180  1.9699
  458MOL0     H60427   8.387  11.143   5.233 -0.3376 -0.8808  0.2460
  458MOL0     H60428   8.100  11.223   5.289  0.4998 -0.9144  0.4094
  458MOL0     H60429   8.216  11.290   5.387  0.5603 -1.5582 -0.1995
  458MOL0     H60430   8.332  11.422   5.216 -0.7206 -1.4441  2.7452
  458MOL0     H60431   8.159  11.450   5.188 -0.4679 -0.5074 -0.4885
  458MOL0     H60432   8.153  11.274   5.015  0.5627 -1.6829  1.6261
  458MOL0     H60433   8.326  11.263   5.024 -1.3739 -1.3251  1.1811
  458MOL0     H60434   8.225  11.541   4.989  2.3334  0.9217 -1.1405
  458MOL0     H60435   8.368  11.453   4.928 -0.1063 -1.1090 -0.9232
  458MOL0     H60436   8.239  11.331   4.767 -0.4020  0.4177 -0.2177
  458MOL0     H60437   8.227  11.505   4.744  0.1117  0.2384  0.6252
  458MOL0     H60438   8.165  10.690   5.412 -1.2255 -4.0569  0.0526
  458MOL0     H60439   7.995  10.538   5.303 -0.6331  1.2642  1.3670
  458MOL0     H60440   7.791  10.320   4.988 -0.0636 -0.1036  0.5549
  458MOL0     H60441   7.613  10.202   4.896  0.8015  1.2362 -2.2753
  458MOL0     H60442   5.599  10.347   4.534  1.2887 -0.2893  0.7203
  458MOL0     H60443   5.395  10.221   4.485  2.3552 -2.7877  1.5367
  458MOL0     H60444   5.164   9.938   4.330 -2.0140 -3.3309  1.3951
  458MOL0     H60445   4.956   9.850   4.405  0.4048  2.1975  5.0035
  458MOL0     H60446   4.759   9.802   4.485 -2.4510 -1.2137  0.4266
  458MOL0     H60447   4.591   9.854   4.448 -0.9224  2.2263 -1.9394
  458MOL0     H60448   4.774   9.986   4.671  0.4610  1.3300 -0.3106
  458MOL0     H60449   4.609  10.020   4.620  1.2167  1.3985 -1.8159
  458MOL0     H60450   4.730   9.768   4.744 -0.3965 -0.0998  0.7246
  458MOL0     H60451   4.562   9.771   4.694 -0.2268 -0.2437  0.3081
  458MOL0     H60452   4.691   9.955   4.902  0.8014 -1.1562 -1.4046
  458MOL0     H60453   4.524   9.958   4.842  2.2567  5.3035  1.9643
  458MOL0     H60454   4.505   9.659   5.139 -0.6088  0.8469  1.2034
  458MOL0     H60455   4.749  10.202   4.282  0.0707 -0.1093 -0.6203
  458MOL0     H60456   4.973  10.299   4.219  1.3711 -0.6316 -0.4732
  459MOL0     O60457   6.165   6.999   3.572 -0.0068 -0.1758  0.2332
  459MOL0     C60458   6.143   6.975   3.453 -0.2418  0.9136  0.7562
  459MOL0     O60459   6.020   6.964   3.401 -0.6588  0.1939  0.0734
  459MOL0     C60460   5.927   6.907   3.483 -0.1083  1.1586  1.0867
  459MOL0     C60461   5.896   6.773   3.452  0.3181  0.2732 -0.3489
  459MOL0     C60462   5.806   6.707   3.537  0.5492  0.6336  0.2751
  459MOL0     C60463   5.740   6.768   3.646 -0.4551 -0.8754 -0.2130
  459MOL0     O60464   5.663   6.693   3.722  0.0430 -0.1394 -0.6648
  459MOL0     C60465   5.528   6.732   3.737  0.4176  1.2152  0.5628
  459MOL0     C60466   5.509   6.807   3.870  0.5690  0.9441 -0.1307
  459MOL0     C60467   5.569   6.732   3.985 -0.7570 -0.3896 -0.2480
  459MOL0     C60468   5.529   6.779   4.125  0.2945 -0.0925 -0.4867
  459MOL0     C60469   5.550   6.929   4.153 -0.2486 -0.1152 -0.2507
  459MOL0     C60470   5.537   6.959   4.308 -0.2041  0.8903  0.0030
  459MOL0     C60471   5.403   6.940   4.375  0.5352  0.3598 -0.1289
  459MOL0     C60472   5.408   6.983   4.522  0.3950 -0.5467 -0.3861
  459MOL0     N60473   5.281   6.986   4.596 -0.2722  0.0172 -0.6184
  459MOL0     C60474   5.166   6.915   4.559  0.0305 -0.2601 -0.1356
  459MOL0     C60475   5.079   6.943   4.656 -0.1483 -0.1527  0.7230
  459MOL0     C60476   4.933   6.905   4.662 -0.2840 -0.3334 -0.8973
  459MOL0     C60477   4.912   6.752   4.647 -0.1438 -0.3910 -0.7882
  459MOL0     C60478   4.775   6.719   4.602  0.3237 -0.3010  0.2675
  459MOL0     C60479   4.748   6.720   4.450  0.1635  0.5164  0.3749
  459MOL0     O60480   4.812   6.612   4.365  0.6148 -1.0714  0.0836
  459MOL0     C60481   4.784   6.616   4.226  0.4468 -0.0162  0.0598
  459MOL0     C60482   4.825   6.506   4.161  0.2160 -0.4784  0.0249
  459MOL0     C60483   4.798   6.491   4.015 -0.7141 -0.1788 -0.9691
  459MOL0     C60484   4.728   6.594   3.952 -0.7891 -0.2077  0.8024
  459MOL0     C60485   4.707   6.595   3.804 -0.2309  0.0211 -0.5464
  459MOL0     O60486   4.806   6.543   3.726  0.3380  0.5524  0.4446
  459MOL0     C60487   4.789   6.585   3.592 -1.0131  0.5157 -1.5269
  459MOL0     C60488   4.724   6.486   3.505  0.3134 -0.4626  0.0862
  459MOL0     C60489   4.693   6.527   3.373 -1.2066 -0.0774 -0.3442
  459MOL0     C60490   4.728   6.651   3.320 -0.1205 -0.0735 -0.2815
  459MOL0     O60491   4.707   6.688   3.191  0.2783 -0.7156  0.3174
  459MOL0     C60492   4.596   6.780   3.178 -0.7239  0.4436 -0.1866
  459MOL0     C60493   4.603   6.850   3.048 -0.7936 -0.5796 -0.1368
  459MOL0     C60494   4.738   6.909   3.014 -0.3792 -0.9656 -0.3839
  459MOL0     C60495   4.740   6.976   2.873  0.3894  0.0661 -0.1204
  459MOL0     C60496   4.872   7.027   2.836 -0.5714 -0.3842 -0.1577
  459MOL0     C60497   4.864   7.122   2.710  0.1621 -0.1687 -0.2652
  459MOL0     C60498   5.000   7.169   2.653 -0.7270  0.0184 -0.5787
  459MOL0     C60499   4.975   7.226   2.511 -0.6807 -0.3545  0.2166
  459MOL0    Cl60500   4.895   7.390   2.520 -0.4095 -0.2933 -0.2206
  459MOL0     C60501   4.804   6.733   3.407 -0.4371  1.0658  0.5690
  459MOL0     C60502   4.819   6.708   3.542 -0.8898 -0.7995 -0.8737
  459MOL0     O60503   4.613   6.661   3.760  0.1554  0.1782 -0.1948
  459MOL0     C60504   4.688   6.703   4.021  0.7887  0.2517 -0.5528
  459MOL0     C60505   4.725   6.721   4.154  0.5284  0.0124  0.5198
  459MOL0     N60506   5.137   7.032   4.742 -0.3131 -0.7770 -0.9374
  459MOL0     N60507   5.261   7.047   4.714 -0.0382  0.2837 -0.4408
  459MOL0     C60508   5.773   6.901   3.666 -0.6299 -0.6642  0.0426
  459MOL0     C60509   5.875   6.966   3.594 -0.1612 -0.3214 -0.2715
  459MOL0     C60510   6.251   6.991   3.349 -0.1351 -0.7658  0.5982
  459MOL0     C60511   6.212   6.957   3.213  0.4501  0.3959  0.7978
  459MOL0     C60512   6.304   6.955   3.111 -0.5232  0.4127  0.0123
  459MOL0     C60513   6.429   7.013   3.138  0.6600  0.6678 -0.7787
  459MOL0     O60514   6.528   7.000   3.055 -0.3977 -0.5035  0.1603
  459MOL0     C60515   6.535   7.104   2.963  0.1364  0.6037  0.8307
  459MOL0     C60516   6.665   7.083   2.892 -0.7099  0.5505 -0.1696
  459MOL0     C60517   6.783   7.093   2.990 -0.3049  0.1368  0.0736
  459MOL0     C60518   6.908   7.070   2.910 -0.2606 -0.4364  0.2912
  459MOL0     C60519   6.942   7.156   2.795  0.0507  0.4004  0.2355
  459MOL0     C60520   6.964   7.205   2.688  0.4731  0.3299  0.1924
  459MOL0     C60521   6.466   7.058   3.268  0.0036 -0.6729  0.3512
  459MOL0     C60522   6.377   7.040   3.377 -0.8316  0.1897  0.5524
  459MOL0     H60523   5.952   6.730   3.370  1.6613  3.7305 -1.4381
  459MOL0     H60524   5.772   6.606   3.519  2.8248  0.1393 -1.7380
  459MOL0     H60525   5.471   6.639   3.733 -0.3920  1.7398 -1.0093
  459MOL0     H60526   5.496   6.800   3.657  1.0744  1.4203  0.4647
  459MOL0     H60527   5.402   6.811   3.897  0.5884 -1.6211  0.5822
  459MOL0     H60528   5.544   6.911   3.864  0.5700  0.8767 -1.6584
  459MOL0     H60529   5.677   6.721   3.972 -0.8610 -3.0200  0.6234
  459MOL0     H60530   5.539   6.627   3.979 -1.2937 -0.1834 -1.2807
  459MOL0     H60531   5.428   6.743   4.148  0.9920 -0.4160  2.6448
  459MOL0     H60532   5.597   6.724   4.192  2.4685  0.7838 -1.8674
  459MOL0     H60533   5.471   6.988   4.104 -2.0115  1.0671  3.6524
  459MOL0     H60534   5.644   6.967   4.112  2.4638 -4.7864  0.9709
  459MOL0     H60535   5.558   7.065   4.325  1.1989  0.4555  1.1160
  459MOL0     H60536   5.607   6.891   4.357 -0.4397 -0.7301 -1.7868
  459MOL0     H60537   5.329   7.000   4.321  1.9264  1.9664 -0.3456
  459MOL0     H60538   5.373   6.835   4.375 -0.6147  0.5785  3.0941
  459MOL0     H60539   5.444   7.086   4.528  0.8687 -0.6761 -0.8704
  459MOL0     H60540   5.483   6.935   4.586  0.1347  0.6061  0.8283
  459MOL0     H60541   5.151   6.857   4.469 -0.6894 -1.2509  0.6038
  459MOL0     H60542   4.882   6.966   4.586 -1.5037 -0.6732 -0.3885
  459MOL0     H60543   4.894   6.937   4.759 -0.7258 -0.3434 -1.0675
  459MOL0     H60544   4.934   6.705   4.744 -0.9110 -0.3243 -0.5756
  459MOL0     H60545   4.982   6.701   4.581  0.3893  0.1429 -0.6392
  459MOL0     H60546   4.749   6.615   4.623  0.2284 -0.5001 -0.7654
  459MOL0     H60547   4.709   6.784   4.660 -4.4562 -2.8936 -1.6900
  459MOL0     H60548   4.788   6.817   4.418 -1.4957  1.2236  0.3202
  459MOL0     H60549   4.645   6.728   4.412  1.8761  0.7117 -5.2002
  459MOL0     H60550   4.887   6.439   4.221 -0.6960  1.8157  3.8467
  459MOL0     H60551   4.832   6.406   3.957 -1.5493  0.0475 -1.8194
  459MOL0     H60552   4.697   6.387   3.539 -0.9483 -0.6762 -1.4055
  459MOL0     H60553   4.663   6.445   3.309  2.9508 -1.3755 -0.9006
  459MOL0     H60554   4.604   6.853   3.259 -0.8028  2.0065 -1.5479
  459MOL0     H60555   4.495   6.737   3.185 -2.1328  3.4650 -0.4738
  459MOL0     H60556   4.535   6.936   3.045  1.4205  1.2800 -2.8622
  459MOL0     H60557   4.571   6.780   2.971 -1.6683 -0.2187 -0.1145
  459MOL0     H60558   4.819   6.835   3.019  3.4750  2.7671 -1.2955
  459MOL0     H60559   4.754   6.979   3.096  0.1168 -0.7869 -0.6298
  459MOL0     H60560   4.708   6.900   2.802  3.5904 -0.2677 -1.4068
  459MOL0     H60561   4.679   7.066   2.866  0.0752 -0.2016 -0.9366
  459MOL0     H60562   4.943   6.944   2.825 -1.4364 -0.8853 -2.8502
  459MOL0     H60563   4.904   7.095   2.915 -3.0886  0.5395  0.1728
  459MOL0     H60564   4.808   7.213   2.731 -0.5413 -0.3446 -1.2802
  459MOL0     H60565   4.808   7.074   2.629  0.1698  0.2586 -0.5261
  459MOL0     H60566   5.062   7.234   2.715 -2.3026  3.4505 -2.3334
  459MOL0     H60567   5.055   7.075   2.641 -0.8083 -0.9735  4.4713
  459MOL0     H60568   4.906   7.165   2.451 -1.1105 -1.4456  1.7389
  459MOL0     H60569   5.068   7.223   2.455 -0.4542  0.4783  0.5273
  459MOL0     H60570   4.834   6.829   3.367 -1.7120  1.0542 -0.4934
  459MOL0     H60571   4.866   6.781   3.607 -1.4211 -2.1155  1.0707
  459MOL0     H60572   4.629   6.785   3.982 -0.9944  0.5193  2.3848
  459MOL0     H60573   4.698   6.813   4.206  1.4002  0.3187  0.4515
  459MOL0     H60574   5.717   6.964   3.734  0.9631  1.7270 -0.7414
  459MOL0     H60575   5.907   7.067   3.612  1.6770 -0.7721 -0.8480
  459MOL0     H60576   6.117   6.909   3.188  1.7318 -1.4492 -0.8018
  459MOL0     H60577   6.286   6.926   3.008 -2.9666  0.9144  0.2235
  459MOL0     H60578   6.529   7.207   2.998  0.6910  1.0776 -0.4045
  459MOL0     H60579   6.455   7.099   2.888  0.4470  0.2566  0.5152
  459MOL0     H60580   6.665   6.993   2.830  0.4806  0.6735 -0.3666
  459MOL0     H60581   6.676   7.158   2.813 -2.5211 -1.5173 -2.5773
  459MOL0     H60582   6.785   7.018   3.069  2.6086  0.4667  0.4227
  459MOL0     H60583   6.784   7.188   3.045  1.4585  1.2695 -1.7567
  459MOL0     H60584   6.991   7.076   2.982  0.2859  0.9782 -0.4201
  459MOL0     H60585   6.908   6.966   2.876 -0.7273  0.0115 -1.1270
  459MOL0     H60586   6.979   7.247   2.591 -0.3404 -3.8898 -2.0429
  459MOL0     H60587   6.561   7.104   3.290 -0.4420  1.0115 -1.0689
  459MOL0     H60588   6.405   7.063   3.479 -4.7217  4.2048  1.0253
  460MOL0     O60589   1.112  10.985   1.428  0.4361 -0.7283 -0.0227
  460MOL0     C60590   1.102  11.110   1.436 -0.5744 -0.2880 -0.1040
  460MOL0     O60591   1.206  11.197   1.456  0.3621  0.3253 -0.0121
  460MOL0     C60592   1.328  11.134   1.455  0.8261 -0.2748  0.6900
  460MOL0     C60593   1.409  11.151   1.352  0.2992  0.5013  0.3164
  460MOL0     C60594   1.535  11.078   1.352  0.4852 -0.1504  0.1701
  460MOL0     C60595   1.571  10.988   1.450 -0.3246 -0.2479  0.0406
  460MOL0     O60596   1.696  10.934   1.436 -0.7904  0.4051  0.0726
  460MOL0     C60597   1.786  10.946   1.551  0.1094  0.7103 -0.6715
  460MOL0     C60598   1.942  10.935   1.519  0.0287  0.0326  0.6748
  460MOL0     C60599   2.021  10.907   1.645 -1.0396 -0.7517 -0.3039
  460MOL0     C60600   2.166  10.872   1.627 -0.6335 -0.3037  0.0959
  460MOL0     C60601   2.245  10.912   1.745 -1.0190  0.2413  0.2906
  460MOL0     C60602   2.393  10.874   1.737 -0.1167 -0.2777 -0.1821
  460MOL0     C60603   2.463  10.885   1.884  0.2987  0.1443 -0.4960
  460MOL0     C60604   2.463  10.754   1.958  0.0386 -0.5814 -0.3783
  460MOL0     N60605   2.521  10.775   2.097  1.0063  0.0408 -0.6248
  460MOL0     C60606   2.446  10.812   2.204 -0.0202  0.1501  0.1237
  460MOL0     C60607   2.525  10.790   2.311 -0.6889 -0.3279 -0.7574
  460MOL0     C60608   2.496  10.814   2.457  0.6547 -0.7608  0.6702
  460MOL0     C60609   2.432  10.686   2.509  0.9090 -0.0876  0.1985
  460MOL0     C60610   2.281  10.668   2.497  0.4107  0.1121  0.1787
  460MOL0     C60611   2.237  10.531   2.530 -0.1229  0.3133  0.0718
  460MOL0     O60612   2.092  10.540   2.546  0.4686 -0.3438  0.5741
  460MOL0     C60613   2.012  10.505   2.441 -0.5791 -0.4191 -0.0420
  460MOL0     C60614   1.917  10.594   2.390  0.4686 -0.3562 -0.3492
  460MOL0     C60615   1.844  10.564   2.275 -0.1716  1.1062  1.3806
  460MOL0     C60616   1.852  10.433   2.223  0.2962  0.3831  0.7552
  460MOL0     C60617   1.763  10.390   2.115  0.8193  0.1161  1.0672
  460MOL0     O60618   1.634  10.457   2.105  0.1464  0.7863 -0.3124
  460MOL0     C60619   1.510  10.405   2.060  0.3731 -0.2805  1.4123
  460MOL0     C60620   1.387  10.462   2.094  0.8478 -0.9884  0.6276
  460MOL0     C60621   1.263  10.409   2.060 -0.5848 -0.5454 -1.0108
  460MOL0     C60622   1.257  10.294   1.979  0.6488  0.5013  0.6597
  460MOL0     O60623   1.147  10.237   1.924  0.2850  0.0867  0.2757
  460MOL0     C60624   1.021  10.251   1.996 -0.6934 -1.2112 -0.9967
  460MOL0     C60625   0.918  10.171   1.915  0.4281 -0.4824  0.1766
  460MOL0     C60626   0.777  10.223   1.930  0.1283 -0.6320 -0.0980
  460MOL0     C60627   0.681  10.185   1.813  0.5691  0.4686  0.0467
  460MOL0     C60628   0.710  10.268   1.686 -1.2221 -0.8492  0.1021
  460MOL0     C60629   0.683  10.187   1.564 -0.6115 -0.0033  0.5733
  460MOL0     C60630   0.707  10.269   1.440  0.4771  0.0229  0.1639
  460MOL0     C60631   0.565  10.330   1.393 -0.7650 -0.0147  0.4835
  460MOL0    Cl60632   0.484  10.197   1.303 -0.0308 -0.5055 -0.2436
  460MOL0     C60633   1.377  10.238   1.935  0.7552  0.4306  0.2117
  460MOL0     C60634   1.501  10.295   1.971  1.1246 -0.3960  0.3194
  460MOL0     O60635   1.792  10.281   2.064 -0.1098  0.2647  0.3499
  460MOL0     C60636   1.930  10.346   2.282  0.1855  0.9591  0.4233
  460MOL0     C60637   2.014  10.378   2.386  0.6926  1.5494 -0.4113
  460MOL0     N60638   2.645  10.729   2.264 -0.2931  0.4196  0.5586
  460MOL0     N60639   2.640  10.720   2.133 -0.3242 -0.3846  0.9149
  460MOL0     C60640   1.476  10.971   1.547  0.3033  0.1104 -0.2608
  460MOL0     C60641   1.365  11.048   1.560 -1.1676  0.6469 -0.9294
  460MOL0     C60642   0.980  11.170   1.409  0.6101  0.6436  0.8445
  460MOL0     C60643   0.881  11.091   1.338  1.0262 -0.6397 -0.0983
  460MOL0     C60644   0.749  11.132   1.322  0.4819  0.1800 -0.4250
  460MOL0     C60645   0.704  11.250   1.375 -0.2669  0.2016  0.1893
  460MOL0     O60646   0.578  11.296   1.341 -0.4693 -0.2569  0.3001
  460MOL0     C60647   0.523  11.415   1.403 -0.3791 -0.7550 -0.6652
  460MOL0     C60648   0.402  11.476   1.336 -0.1326  0.3881  0.7243
  460MOL0     C60649   0.370  11.617   1.406  1.2237  0.2014 -0.9184
  460MOL0     C60650   0.260  11.683   1.326  1.2711 -0.4116  0.2779
  460MOL0     C60651   0.136  11.612   1.343  0.1223 -0.3611  0.0020
  460MOL0     C60652   0.034  11.560   1.362 -0.1038  0.4085 -0.6039
  460MOL0     C60653   0.796  11.330   1.446 -0.6933 -0.2034  0.8870
  460MOL0     C60654   0.923  11.276   1.477 -0.4741  0.0616  0.5465
  460MOL0     H60655   1.386  11.212   1.266 -0.0020 -1.9729 -1.4725
  460MOL0     H60656   1.604  11.085   1.267 -1.5581 -0.0399 -1.5626
  460MOL0     H60657   1.758  10.865   1.619  0.8505  0.1142 -1.0630
  460MOL0     H60658   1.767  11.042   1.600 -0.4502 -0.4322  1.4508
  460MOL0     H60659   1.978  11.028   1.474 -1.1118  0.5097  0.7405
  460MOL0     H60660   1.962  10.852   1.450  0.2951  0.2927  0.4313
  460MOL0     H60661   1.978  10.819   1.693  0.2412 -2.4484 -2.0876
  460MOL0     H60662   2.019  10.995   1.709 -2.5364 -1.8933  1.3088
  460MOL0     H60663   2.178  10.764   1.616  0.6238 -0.8659  4.7906
  460MOL0     H60664   2.208  10.926   1.541  4.2620 -1.3177  1.5415
  460MOL0     H60665   2.200  10.854   1.827 -1.2371  1.9303  1.4253
  460MOL0     H60666   2.238  11.020   1.761  0.6386  0.3026  0.7462
  460MOL0     H60667   2.443  10.939   1.664 -3.6922  1.9361 -0.9327
  460MOL0     H60668   2.406  10.769   1.709  0.2600 -0.2335 -0.1841
  460MOL0     H60669   2.567  10.917   1.884  0.2933  0.1610 -0.5236
  460MOL0     H60670   2.405  10.962   1.936 -1.5893 -0.1877 -2.0098
  460MOL0     H60671   2.528  10.686   1.903 -1.2840 -2.3531  0.1582
  460MOL0     H60672   2.367  10.702   1.960  0.0191 -0.6026 -1.3930
  460MOL0     H60673   2.354  10.869   2.207 -0.5072 -0.6441  1.4687
  460MOL0     H60674   2.429  10.900   2.469 -2.1846 -2.8690  1.0475
  460MOL0     H60675   2.579  10.835   2.525  0.1212 -0.3205  1.2001
  460MOL0     H60676   2.455  10.665   2.614 -0.1265 -2.4312  0.0135
  460MOL0     H60677   2.485  10.616   2.445  0.8192  0.5051 -0.5404
  460MOL0     H60678   2.240  10.744   2.563 -1.0248 -0.2128 -0.2968
  460MOL0     H60679   2.245  10.690   2.396  1.1918  0.6549  0.0084
  460MOL0     H60680   2.295  10.484   2.610  2.3100  0.3935 -1.5434
  460MOL0     H60681   2.266  10.457   2.456  0.5655 -0.0455  0.6856
  460MOL0     H60682   1.906  10.686   2.447  0.3067 -0.6135  0.0445
  460MOL0     H60683   1.770  10.626   2.225 -1.0490 -1.4850 -0.7619
  460MOL0     H60684   1.401  10.551   2.155  5.1151 -0.1130 -1.2512
  460MOL0     H60685   1.175  10.455   2.104  0.0621 -0.5210  0.3261
  460MOL0     H60686   1.007  10.360   1.997  3.1462 -0.5750 -1.2939
  460MOL0     H60687   1.028  10.224   2.101  1.4100  1.1197 -0.4325
  460MOL0     H60688   0.940  10.070   1.950  0.5762 -1.3560 -2.2272
  460MOL0     H60689   0.946  10.194   1.812  2.4608 -0.0420  0.7781
  460MOL0     H60690   0.785  10.333   1.929 -0.3740 -0.5646 -2.6044
  460MOL0     H60691   0.740  10.196   2.029 -0.0057  2.5731  0.8543
  460MOL0     H60692   0.692  10.078   1.794 -3.1353 -0.3920  1.8918
  460MOL0     H60693   0.578  10.192   1.849  0.1449  2.4478 -1.3919
  460MOL0     H60694   0.814  10.303   1.679 -2.0970  1.6603 -1.6096
  460MOL0     H60695   0.650  10.359   1.691 -1.3608 -0.7630 -2.1437
  460MOL0     H60696   0.582  10.143   1.561 -0.5083 -0.1973 -0.5904
  460MOL0     H60697   0.753  10.102   1.562 -2.4499 -1.6951  2.4002
  460MOL0     H60698   0.782  10.346   1.463  0.1259  0.8914 -1.4964
  460MOL0     H60699   0.742  10.209   1.356 -1.7230  2.4656 -2.6868
  460MOL0     H60700   0.583  10.424   1.341  3.1785 -1.1975 -0.6893
  460MOL0     H60701   0.484  10.359   1.460 -0.2582  5.0615 -0.7348
  460MOL0     H60702   1.365  10.157   1.863  0.1595  0.5753  0.1386
  460MOL0     H60703   1.583  10.244   1.922  2.5066  1.1861  0.8748
  460MOL0     H60704   1.941  10.242   2.251  1.7231  1.6043 -1.3643
  460MOL0     H60705   2.080  10.300   2.420 -1.7122 -1.3295 -1.9059
  460MOL0     H60706   1.492  10.912   1.637  1.3173 -1.4699 -1.4294
  460MOL0     H60707   1.296  11.035   1.644 -0.5906  0.5591 -0.4613
  460MOL0     H60708   0.911  10.996   1.296 -1.4544 -1.2159 -0.7811
  460MOL0     H60709   0.671  11.068   1.283 -0.3641 -1.7333  3.8606
  460MOL0     H60710   0.602  11.491   1.394 -0.7129  0.1693  2.8304
  460MOL0     H60711   0.507  11.402   1.510  0.4960  1.0051 -0.2777
  460MOL0     H60712   0.415  11.481   1.227  1.4655 -0.6505  0.8285
  460MOL0     H60713   0.316  11.410   1.349  0.8226 -0.9786  0.2789
  460MOL0     H60714   0.454  11.687   1.410  0.8276  0.6628 -0.5092
  460MOL0     H60715   0.341  11.593   1.508  1.1438 -1.2565 -1.2656
  460MOL0     H60716   0.248  11.784   1.366  1.0651 -1.7720  3.9347
  460MOL0     H60717   0.282  11.690   1.219  0.9815  2.2238  0.3257
  460MOL0     H60718  -0.061  11.517   1.385  1.2188 -5.0841 -3.5024
  460MOL0     H60719   0.790  11.428   1.492 -0.8788 -0.0158  0.4672
  460MOL0     H60720   0.991  11.316   1.552  0.0406 -1.6540  1.0328
  461MOL0     O60721   3.574   6.545   3.141  0.5718  0.5937 -0.8643
  461MOL0     C60722   3.629   6.565   3.248  0.2541 -0.3176 -0.0731
  461MOL0     O60723   3.670   6.690   3.288 -0.1111  0.3499 -0.2783
  461MOL0     C60724   3.671   6.813   3.228  0.3169  0.4310  0.7373
  461MOL0     C60725   3.786   6.891   3.250 -0.4605 -0.0913  0.6079
  461MOL0     C60726   3.814   7.008   3.179 -0.0870 -0.5103 -0.6766
  461MOL0     C60727   3.727   7.062   3.088  0.4256 -0.0237  0.2660
  461MOL0     O60728   3.747   7.189   3.043 -0.5079 -0.1868  0.4869
  461MOL0     C60729   3.633   7.272   3.063  0.2820  0.0615  0.7637
  461MOL0     C60730   3.684   7.421   3.067  0.5321  0.8562 -0.2041
  461MOL0     C60731   3.765   7.456   3.195  0.3124  0.2499 -0.0780
  461MOL0     C60732   3.795   7.605   3.186 -0.1313 -0.0057 -0.5558
  461MOL0     C60733   3.891   7.656   3.299  0.1300 -0.2716 -0.0953
  461MOL0     C60734   3.903   7.811   3.296  0.5569 -0.1606 -0.4289
  461MOL0     C60735   3.962   7.867   3.164  0.5299  0.5888 -0.2453
  461MOL0     C60736   4.020   7.997   3.208 -1.2155  0.2140  0.3420
  461MOL0     N60737   3.910   8.087   3.252 -0.4984  0.3325  0.3528
  461MOL0     C60738   3.788   8.117   3.195 -0.0303  0.5204  0.4171
  461MOL0     C60739   3.731   8.201   3.284 -0.4392 -0.9371  0.6460
  461MOL0     C60740   3.598   8.283   3.274  0.2711 -0.7745 -0.7481
  461MOL0     C60741   3.476   8.200   3.239  0.4460  0.4674  1.5572
  461MOL0     C60742   3.352   8.286   3.193 -0.4103 -0.6926  0.0895
  461MOL0     C60743   3.218   8.215   3.213  0.7268 -0.4679  0.0836
  461MOL0     O60744   3.154   8.251   3.334  0.3525  0.4640  0.3377
  461MOL0     C60745   3.022   8.228   3.366 -0.6916  0.6692  0.6327
  461MOL0     C60746   2.922   8.221   3.263  0.1749 -0.2913  0.3389
  461MOL0     C60747   2.788   8.233   3.297 -0.6135 -0.4703  0.0920
  461MOL0     C60748   2.749   8.228   3.433 -0.1358 -0.2898 -0.2008
  461MOL0     C60749   2.607   8.245   3.476 -0.0595 -0.0812  0.0144
  461MOL0     O60750   2.520   8.275   3.375  0.6476 -0.0189 -0.3471
  461MOL0     C60751   2.385   8.281   3.396  1.5162 -0.9972 -0.3935
  461MOL0     C60752   2.329   8.406   3.435 -0.0981  0.4150 -0.8914
  461MOL0     C60753   2.198   8.436   3.452 -0.3715 -0.4556 -0.5072
  461MOL0     C60754   2.113   8.330   3.438  0.3286  0.6606  1.0934
  461MOL0     O60755   1.977   8.351   3.461  0.1746  0.6521  0.3660
  461MOL0     C60756   1.932   8.387   3.590 -0.6583 -0.2223 -0.0352
  461MOL0     C60757   1.786   8.442   3.570 -0.6122 -0.2997 -0.1275
  461MOL0     C60758   1.768   8.557   3.467  0.1669  0.1250  0.8860
  461MOL0     C60759   1.854   8.678   3.505 -0.0139 -0.6163  1.0869
  461MOL0     C60760   1.858   8.774   3.387 -0.2551  0.8259 -0.4159
  461MOL0     C60761   1.725   8.841   3.359  0.0389  0.4375 -0.7244
  461MOL0     C60762   1.651   8.787   3.228  0.2897 -0.1115  0.1720
  461MOL0     C60763   1.519   8.860   3.227  0.9514  0.2970 -0.5083
  461MOL0    Cl60764   1.421   8.820   3.375  0.2591  0.1166  0.0238
  461MOL0     C60765   2.155   8.208   3.398  0.3091  0.7874  0.1167
  461MOL0     C60766   2.291   8.173   3.381 -0.5444 -0.5138 -0.2084
  461MOL0     O60767   2.573   8.219   3.596  0.2294  0.8037 -0.0334
  461MOL0     C60768   2.854   8.218   3.530  0.5944  0.3258  0.5227
  461MOL0     C60769   2.988   8.232   3.498  0.1532  0.2183  0.3572
  461MOL0     N60770   3.812   8.211   3.395  0.0388  0.7228  0.0743
  461MOL0     N60771   3.917   8.136   3.377  0.3559  0.6068  0.1718
  461MOL0     C60772   3.606   6.982   3.059 -0.2093 -0.5266  0.1204
  461MOL0     C60773   3.579   6.859   3.127  0.6171 -0.7428 -0.4512
  461MOL0     C60774   3.643   6.454   3.345  0.8887  0.1332  0.0588
  461MOL0     C60775   3.744   6.457   3.441 -0.0506 -0.3232  0.3396
  461MOL0     C60776   3.758   6.352   3.531 -0.0032 -0.1934 -0.8618
  461MOL0     C60777   3.684   6.238   3.528  0.3736  0.2429  0.3446
  461MOL0     O60778   3.690   6.120   3.608  0.2830 -0.1237 -0.5885
  461MOL0     C60779   3.793   6.110   3.710 -0.3723 -0.3450  0.4959
  461MOL0     C60780   3.757   5.994   3.806 -0.3724  0.1368 -1.2039
  461MOL0     C60781   3.625   6.031   3.876  0.3604 -0.2415 -0.4651
  461MOL0     C60782   3.615   5.947   4.009 -0.1939  0.0184 -0.2037
  461MOL0     C60783   3.510   6.003   4.093 -0.6666  1.0219 -0.4149
  461MOL0     C60784   3.428   6.037   4.175  0.0804  0.1074 -0.4415
  461MOL0     C60785   3.592   6.232   3.419  1.1287 -0.1600  1.2197
  461MOL0     C60786   3.564   6.342   3.333 -0.0680  0.7843 -0.0810
  461MOL0     H60787   3.855   6.861   3.328 -0.5139 -1.0643  0.2824
  461MOL0     H60788   3.903   7.063   3.206 -0.0713 -0.1615 -1.4003
  461MOL0     H60789   3.589   7.250   3.160 -0.9669 -1.8452 -0.1839
  461MOL0     H60790   3.558   7.254   2.986  0.6183  0.7630  0.2565
  461MOL0     H60791   3.599   7.490   3.073  0.3223  0.5435  0.4773
  461MOL0     H60792   3.728   7.453   2.972 -1.3379  1.8483 -0.7869
  461MOL0     H60793   3.861   7.402   3.191 -0.7992 -1.8420  0.1321
  461MOL0     H60794   3.707   7.432   3.284 -3.5723  3.3358 -1.5190
  461MOL0     H60795   3.849   7.616   3.091  1.7171 -4.0695 -0.1771
  461MOL0     H60796   3.695   7.649   3.178 -0.9150 -1.4758  0.5688
  461MOL0     H60797   3.991   7.611   3.294  0.6775  0.8585  0.4835
  461MOL0     H60798   3.846   7.632   3.396 -2.0464 -0.9562 -1.2028
  461MOL0     H60799   3.951   7.848   3.387  2.9619  1.6141 -2.2792
  461MOL0     H60800   3.799   7.847   3.296  0.1880 -1.1333 -2.0897
  461MOL0     H60801   4.038   7.806   3.115 -1.7044 -1.1424 -1.7847
  461MOL0     H60802   3.881   7.881   3.092 -0.0456  0.4185  0.3612
  461MOL0     H60803   4.079   8.048   3.131  2.0093 -1.7349  1.3678
  461MOL0     H60804   4.095   7.979   3.284  2.4153 -4.3195 -3.7076
  461MOL0     H60805   3.749   8.079   3.101  1.9565  1.3537 -0.8119
  461MOL0     H60806   3.619   8.357   3.196  0.9326  1.5775  1.5142
  461MOL0     H60807   3.571   8.337   3.365 -0.6701 -0.8253 -0.9829
  461MOL0     H60808   3.439   8.137   3.320 -3.1632 -1.0091 -0.9782
  461MOL0     H60809   3.509   8.125   3.167 -0.3949 -0.4857  2.1336
  461MOL0     H60810   3.365   8.387   3.233  0.2739  0.2742 -2.3860
  461MOL0     H60811   3.352   8.294   3.084 -2.2646  3.8309  0.1937
  461MOL0     H60812   3.230   8.106   3.213 -0.1535 -0.6095  2.2004
  461MOL0     H60813   3.149   8.234   3.130  2.4479 -0.4492 -1.4281
  461MOL0     H60814   2.942   8.237   3.157  1.8165  0.3537  0.7131
  461MOL0     H60815   2.724   8.255   3.213  2.6003  1.3088 -2.0884
  461MOL0     H60816   2.401   8.486   3.451 -0.6383  0.2629  3.3879
  461MOL0     H60817   2.157   8.529   3.489 -4.0807 -1.2813 -2.1194
  461MOL0     H60818   1.993   8.457   3.647  0.6858 -2.2098  1.0707
  461MOL0     H60819   1.929   8.302   3.659  0.3720 -2.2950 -2.3830
  461MOL0     H60820   1.744   8.480   3.663 -0.3484 -1.2693  0.3957
  461MOL0     H60821   1.730   8.351   3.543  0.0379 -0.1763 -2.0175
  461MOL0     H60822   1.666   8.594   3.481  1.3037  3.2630  1.6834
  461MOL0     H60823   1.777   8.531   3.361  1.2881  0.0459  0.9882
  461MOL0     H60824   1.812   8.737   3.587  0.8674  2.8180 -0.7747
  461MOL0     H60825   1.953   8.648   3.540  0.1176 -2.7580 -0.8123
  461MOL0     H60826   1.889   8.720   3.296 -0.0241 -0.5223  0.4377
  461MOL0     H60827   1.935   8.848   3.412  0.8880 -0.2816 -0.5350
  461MOL0     H60828   1.745   8.948   3.354 -2.5436  1.2326  2.5752
  461MOL0     H60829   1.666   8.820   3.449 -0.3735 -2.7953 -1.6188
  461MOL0     H60830   1.707   8.797   3.134  1.5073  0.3080  0.9216
  461MOL0     H60831   1.618   8.685   3.248 -3.4179  0.9304  0.1336
  461MOL0     H60832   1.467   8.820   3.139 -0.0286 -1.6458  0.8670
  461MOL0     H60833   1.525   8.968   3.216 -2.0865  0.6945  0.7266
  461MOL0     H60834   2.077   8.134   3.380  0.2011  1.1430 -0.9980
  461MOL0     H60835   2.332   8.078   3.349  0.1547 -0.5773  0.8612
  461MOL0     H60836   2.826   8.213   3.634 -1.6054  3.0344  0.1981
  461MOL0     H60837   3.067   8.239   3.573  0.3788  0.1845  0.1238
  461MOL0     H60838   3.528   7.022   2.995 -0.1084  0.5570  0.6493
  461MOL0     H60839   3.492   6.795   3.113  0.4616 -0.4899 -0.6541
  461MOL0     H60840   3.829   6.522   3.462  0.0107  0.0513 -0.9850
  461MOL0     H60841   3.831   6.352   3.611 -0.8162  1.5121 -0.0525
  461MOL0     H60842   3.814   6.202   3.766 -0.4944  0.9302 -1.4646
  461MOL0     H60843   3.889   6.093   3.663  0.0817 -0.6290  1.4937
  461MOL0     H60844   3.747   5.904   3.745 -0.8151 -0.0102 -0.9191
  461MOL0     H60845   3.830   5.983   3.887  0.5356  0.8832 -1.8861
  461MOL0     H60846   3.533   6.009   3.821 -0.6775 -1.8072  1.7399
  461MOL0     H60847   3.625   6.135   3.910 -3.6181 -0.1645 -0.2163
  461MOL0     H60848   3.588   5.842   3.990 -4.4162  1.0568 -0.7885
  461MOL0     H60849   3.712   5.936   4.060 -0.5147 -0.0335  0.4017
  461MOL0     H60850   3.357   6.064   4.251 -0.0384 -0.9763 -0.1567
  461MOL0     H60851   3.532   6.144   3.398  3.3529 -1.3504 -0.5968
  461MOL0     H60852   3.493   6.326   3.253  0.9316 -0.9131 -0.6862
  462MOL0     O60853   4.721   4.026   1.530 -0.0298 -0.9004 -0.6174
  462MOL0     C60854   4.789   3.950   1.471 -0.8700  0.2412  0.5248
  462MOL0     O60855   4.770   3.911   1.342 -0.3689 -0.2411 -0.4330
  462MOL0     C60856   4.674   3.973   1.258 -0.3874 -0.9996  0.3729
  462MOL0     C60857   4.621   3.896   1.150  0.7042 -0.2052 -0.5460
  462MOL0     C60858   4.530   3.948   1.053 -0.0665 -0.5571  0.2537
  462MOL0     C60859   4.475   4.079   1.076 -0.9486  0.5522 -0.3493
  462MOL0     O60860   4.373   4.139   1.000 -0.1910 -0.3786  0.2388
  462MOL0     C60861   4.394   4.114   0.859 -0.2677 -0.3147 -1.1336
  462MOL0     C60862   4.397   4.251   0.803  0.4949  0.3858  0.1842
  462MOL0     C60863   4.469   4.267   0.667 -0.1329  0.5063 -0.0355
  462MOL0     C60864   4.484   4.413   0.619  0.0739 -0.7148  0.5981
  462MOL0     C60865   4.572   4.424   0.495 -0.1302 -2.0266  1.0744
  462MOL0     C60866   4.620   4.568   0.454  0.5158  0.7175  0.1105
  462MOL0     C60867   4.749   4.577   0.381 -0.3888  0.1415  0.2306
  462MOL0     C60868   4.798   4.714   0.334 -0.7917  0.9218 -1.2742
  462MOL0     N60869   4.798   4.826   0.420  0.3675 -0.5303 -0.3141
  462MOL0     C60870   4.826   4.841   0.554  0.6488 -0.2760 -0.0965
  462MOL0     C60871   4.843   4.977   0.570 -0.2035 -0.0300 -0.0146
  462MOL0     C60872   4.860   5.029   0.713 -0.1462 -0.3751 -0.4654
  462MOL0     C60873   4.974   5.138   0.726  0.0644  0.8418 -0.0720
  462MOL0     C60874   5.113   5.079   0.702 -0.4357  0.5266  0.3789
  462MOL0     C60875   5.227   5.169   0.737 -0.4026 -0.2160  0.1824
  462MOL0     O60876   5.212   5.209   0.875  0.5977  0.0144  0.0789
  462MOL0     C60877   5.272   5.323   0.922 -0.2407  0.8472 -0.4489
  462MOL0     C60878   5.365   5.393   0.852  0.7687 -0.2809  0.0106
  462MOL0     C60879   5.401   5.517   0.898  0.2151 -0.0215  0.1916
  462MOL0     C60880   5.363   5.574   1.019 -0.1875 -0.2018 -0.5552
  462MOL0     C60881   5.424   5.700   1.064 -0.0579 -0.1343  0.6461
  462MOL0     O60882   5.370   5.772   1.157  0.8980 -0.0729 -0.2624
  462MOL0     C60883   5.426   5.889   1.194  1.3114  0.0435 -0.2050
  462MOL0     C60884   5.435   6.003   1.109  0.1125 -0.1034 -0.1187
  462MOL0     C60885   5.488   6.122   1.163  1.0735 -0.1476  0.1997
  462MOL0     C60886   5.541   6.124   1.289  0.0263 -0.7695  0.4006
  462MOL0     O60887   5.565   6.256   1.329  0.2908 -0.7063 -0.8738
  462MOL0     C60888   5.616   6.282   1.468  0.5725 -0.2661  0.2601
  462MOL0     C60889   5.526   6.239   1.591  0.0039 -0.3262 -1.1470
  462MOL0     C60890   5.614   6.175   1.701 -0.0686 -0.8012 -0.3226
  462MOL0     C60891   5.533   6.172   1.828  0.0282 -0.2240  0.0119
  462MOL0     C60892   5.596   6.092   1.944  0.6930 -0.0461  0.5946
  462MOL0     C60893   5.508   6.110   2.066 -0.5342  0.4579 -0.0366
  462MOL0     C60894   5.543   6.028   2.194  0.5994 -0.4310 -0.3997
  462MOL0     C60895   5.453   5.907   2.198  0.7250 -0.7026 -0.0325
  462MOL0    Cl60896   5.496   5.779   2.087 -0.4818 -0.0315  0.7254
  462MOL0     C60897   5.552   6.013   1.365 -1.8912 -0.0374  1.2497
  462MOL0     C60898   5.492   5.896   1.317  0.5787 -0.3011 -0.8348
  462MOL0     O60899   5.529   5.732   1.007 -0.0490  0.6548  0.2830
  462MOL0     C60900   5.265   5.499   1.092  0.1959 -0.7302 -0.3790
  462MOL0     C60901   5.221   5.377   1.042 -0.4882  0.5648 -0.6776
  462MOL0     N60902   4.824   5.040   0.445 -0.0829  0.0690 -0.5232
  462MOL0     N60903   4.791   4.952   0.359  0.7128 -0.1765  0.4575
  462MOL0     C60904   4.512   4.139   1.194  0.4318 -0.1520 -0.8402
  462MOL0     C60905   4.603   4.098   1.286  0.2421 -0.6392 -0.2922
  462MOL0     C60906   4.913   3.909   1.549  1.0148 -0.8890  0.0711
  462MOL0     C60907   4.983   3.798   1.501  0.3214 -0.0177  0.4779
  462MOL0     C60908   5.089   3.758   1.592  0.1064  0.1525  0.1624
  462MOL0     C60909   5.118   3.825   1.712 -0.6312 -0.2436 -0.3942
  462MOL0     O60910   5.232   3.780   1.785 -0.5517  0.9953  0.8119
  462MOL0     C60911   5.282   3.869   1.886  0.3895  0.3686 -0.5916
  462MOL0     C60912   5.414   3.834   1.949 -0.9698  0.1834 -0.5482
  462MOL0     C60913   5.513   3.758   1.868  0.1139  0.0377 -0.0167
  462MOL0     C60914   5.629   3.721   1.965  0.5498 -0.6527  0.3755
  462MOL0     C60915   5.696   3.586   1.947  0.4409  0.0585 -0.4591
  462MOL0     C60916   5.740   3.481   1.907  0.6812 -0.7431 -0.2992
  462MOL0     C60917   5.040   3.929   1.755  0.1076  0.8092  0.7935
  462MOL0     C60918   4.938   3.973   1.678 -0.0402  0.4074 -0.0065
  462MOL0     H60919   4.664   3.798   1.130  4.2162  0.3791  2.9104
  462MOL0     H60920   4.501   3.893   0.965 -2.2556  3.0702 -1.5150
  462MOL0     H60921   4.325   4.040   0.817  1.0237 -2.4316  0.2706
  462MOL0     H60922   4.491   4.068   0.838 -0.5293 -1.3226 -0.2059
  462MOL0     H60923   4.429   4.323   0.879  0.5106 -0.4466  0.9903
  462MOL0     H60924   4.290   4.266   0.783  0.1932 -1.5471  0.1173
  462MOL0     H60925   4.419   4.205   0.592 -1.7395  1.4873  0.1879
  462MOL0     H60926   4.571   4.228   0.678  0.2813  1.9643  1.6662
  462MOL0     H60927   4.389   4.459   0.591  1.1225  0.5893 -1.0001
  462MOL0     H60928   4.526   4.470   0.702 -1.3518  0.7405  0.3676
  462MOL0     H60929   4.515   4.378   0.414 -0.1111 -1.6885  0.8667
  462MOL0     H60930   4.659   4.357   0.495  0.5337 -1.5116 -3.5187
  462MOL0     H60931   4.627   4.628   0.545  1.7123  1.7166 -0.5975
  462MOL0     H60932   4.549   4.610   0.382 -0.4761 -1.9560 -0.5890
  462MOL0     H60933   4.832   4.541   0.443  0.4253  1.1134 -0.2716
  462MOL0     H60934   4.735   4.503   0.301 -4.6102 -0.4638  1.3163
  462MOL0     H60935   4.755   4.741   0.237 -1.5721  0.1662 -1.1564
  462MOL0     H60936   4.900   4.688   0.306 -0.5274  0.7854 -0.2194
  462MOL0     H60937   4.817   4.760   0.626  0.6389  0.4818  0.7798
  462MOL0     H60938   4.883   4.935   0.764  0.8458 -0.4974 -1.1072
  462MOL0     H60939   4.766   5.071   0.750  1.2706  2.8462 -0.1475
  462MOL0     H60940   4.973   5.179   0.828  2.1753  0.6399  0.0790
  462MOL0     H60941   4.955   5.219   0.655  2.4808  2.0225  0.5045
  462MOL0     H60942   5.125   4.983   0.754  1.9032  0.9288  0.6649
  462MOL0     H60943   5.126   5.046   0.599  1.7783  0.2641  0.6955
  462MOL0     H60944   5.221   5.256   0.672  0.8837  0.8083  1.3569
  462MOL0     H60945   5.317   5.117   0.702 -1.3265 -0.0354 -2.6740
  462MOL0     H60946   5.411   5.357   0.760  1.7253  2.6113 -0.7602
  462MOL0     H60947   5.472   5.558   0.827 -1.7544  2.0300 -0.7296
  462MOL0     H60948   5.391   6.009   1.010 -2.8957  0.7486  1.1633
  462MOL0     H60949   5.464   6.219   1.120 -0.0465  0.4456  2.0293
  462MOL0     H60950   5.619   6.391   1.468 -2.3647 -0.0373 -2.3026
  462MOL0     H60951   5.711   6.229   1.468 -0.8277 -3.0639 -1.7560
  462MOL0     H60952   5.456   6.157   1.571 -2.2778 -0.0398  4.1415
  462MOL0     H60953   5.472   6.329   1.621  0.9239  0.8161 -2.7458
  462MOL0     H60954   5.695   6.247   1.718 -1.1928  0.5174 -0.3660
  462MOL0     H60955   5.646   6.072   1.680  0.2873 -0.8886  0.5833
  462MOL0     H60956   5.526   6.276   1.861 -1.4148 -0.1765 -0.3479
  462MOL0     H60957   5.433   6.135   1.803 -1.7076  1.9566  2.9768
  462MOL0     H60958   5.701   6.119   1.956  0.6919 -0.4844  1.6753
  462MOL0     H60959   5.579   5.986   1.922 -0.6263  0.7006 -2.5963
  462MOL0     H60960   5.408   6.093   2.024  0.6614  2.4886 -4.3221
  462MOL0     H60961   5.520   6.215   2.096  0.9317 -0.0073  1.1427
  462MOL0     H60962   5.646   5.994   2.181  1.1725  1.0570  0.0171
  462MOL0     H60963   5.533   6.085   2.287 -1.6283  1.8114 -1.8814
  462MOL0     H60964   5.349   5.940   2.187  1.1644  0.9821  0.5327
  462MOL0     H60965   5.455   5.857   2.295  1.1185 -0.6768 -0.0246
  462MOL0     H60966   5.610   6.011   1.457  2.5149 -0.3324 -1.2483
  462MOL0     H60967   5.479   5.811   1.384 -2.6813  0.3084 -0.5076
  462MOL0     H60968   5.227   5.546   1.183  0.2591 -2.3343  0.5044
  462MOL0     H60969   5.142   5.320   1.092  1.0638 -1.0315  0.0509
  462MOL0     H60970   4.465   4.236   1.208  0.2898 -0.3971  0.4883
  462MOL0     H60971   4.637   4.169   1.361 -0.7734 -0.8042  0.3483
  462MOL0     H60972   4.990   3.756   1.401  2.6237  4.3526 -1.5020
  462MOL0     H60973   5.159   3.680   1.563  0.6006  0.5984  0.1429
  462MOL0     H60974   5.218   3.858   1.974 -0.9071  0.1706 -1.5398
  462MOL0     H60975   5.293   3.970   1.845  3.2430  0.8451  1.0336
  462MOL0     H60976   5.468   3.921   1.988  0.2934  0.1671 -2.1639
  462MOL0     H60977   5.385   3.784   2.041 -1.3537 -0.7458 -1.1624
  462MOL0     H60978   5.559   3.815   1.786  1.3702 -1.2509 -0.2434
  462MOL0     H60979   5.472   3.662   1.834 -2.3755  1.4269 -1.2311
  462MOL0     H60980   5.708   3.797   1.964 -1.0414  1.1325 -2.2538
  462MOL0     H60981   5.586   3.726   2.066 -2.0555  4.8134 -0.6171
  462MOL0     H60982   5.785   3.393   1.866 -1.2981 -3.2611  2.4711
  462MOL0     H60983   5.052   3.983   1.848  1.5437  2.2324 -0.1561
  462MOL0     H60984   4.862   4.035   1.725 -0.8429 -1.4955  1.3198
  463MOL0     O60985   0.697   6.366  10.094 -0.0815 -0.7043 -0.3441
  463MOL0     C60986   0.812   6.385  10.121 -0.1770 -0.4668 -0.0588
  463MOL0     O60987   0.906   6.290  10.126 -0.2485 -0.0161  0.1023
  463MOL0     C60988   0.881   6.162  10.079 -0.4387 -0.5630 -0.3937
  463MOL0     C60989   0.953   6.125   9.969  0.5724  0.2993 -0.4893
  463MOL0     C60990   0.945   5.995   9.921 -0.5182  0.0234  0.6742
  463MOL0     C60991   0.863   5.896   9.982  0.2987 -0.7770 -0.0123
  463MOL0     O60992   0.854   5.767   9.949 -0.3635 -0.2976  0.0600
  463MOL0     C60993   0.802   5.746   9.817 -0.1523 -1.6217  0.6599
  463MOL0     C60994   0.900   5.720   9.703  0.0091 -0.3481  0.0134
  463MOL0     C60995   1.008   5.611   9.740  1.1649 -0.1063 -0.2796
  463MOL0     C60996   1.117   5.624   9.647 -0.3387 -0.6282 -0.3587
  463MOL0     C60997   1.214   5.506   9.631  0.3572 -0.5817  0.7819
  463MOL0     C60998   1.159   5.392   9.545 -0.4447 -0.1717  0.5966
  463MOL0     C60999   1.237   5.261   9.555  0.2964  0.1352 -0.4765
  463MOL0     C61000   1.387   5.272   9.559 -0.5712 -0.0252 -0.3326
  463MOL0     N61001   1.442   5.310   9.419  1.0084 -0.5103 -0.7640
  463MOL0     C61002   1.495   5.437   9.396 -0.0859  0.9683 -0.5238
  463MOL0     C61003   1.553   5.425   9.271  0.1164  0.1031  0.3514
  463MOL0     C61004   1.595   5.542   9.195  0.5552 -0.0450 -0.6089
  463MOL0     C61005   1.749   5.545   9.201  0.0112 -0.5509 -0.4010
  463MOL0     C61006   1.810   5.468   9.087 -0.4855  0.1742  0.1666
  463MOL0     C61007   1.960   5.512   9.056  0.7640 -0.0697 -0.1605
  463MOL0     O61008   2.023   5.480   9.180 -0.2648  0.4096  0.0709
  463MOL0     C61009   2.140   5.554   9.202  0.3020  0.3618 -0.2709
  463MOL0     C61010   2.241   5.560   9.108 -0.0105 -0.2368 -0.0380
  463MOL0     C61011   2.371   5.615   9.138 -0.1809  0.0936  0.9161
  463MOL0     C61012   2.399   5.671   9.274 -0.4961 -0.2843  0.3609
  463MOL0     C61013   2.528   5.730   9.303  0.0323 -0.2370  0.0705
  463MOL0     O61014   2.553   5.757   9.439 -0.0276 -0.3399 -0.3629
  463MOL0     C61015   2.679   5.798   9.463 -0.2662 -0.1127 -0.9558
  463MOL0     C61016   2.711   5.936   9.446  0.3599 -0.0026  0.0183
  463MOL0     C61017   2.847   5.984   9.464 -0.4029  0.4326 -0.1891
  463MOL0     C61018   2.952   5.888   9.502  0.2544  0.0162 -0.1871
  463MOL0     O61019   3.085   5.932   9.510 -0.2289 -0.2992 -0.0993
  463MOL0     C61020   3.182   5.849   9.582  0.2441 -0.3900  0.8239
  463MOL0     C61021   3.157   5.900   9.730  0.2820 -0.1178 -0.8653
  463MOL0     C61022   3.280   5.858   9.813  0.2869  0.4410  0.2068
  463MOL0     C61023   3.275   5.940   9.943 -0.9592 -0.0045 -0.0297
  463MOL0     C61024   3.348   5.866  10.061  0.0376 -0.1001 -0.6340
  463MOL0     C61025   3.297   5.914  10.200  0.0243 -0.8319 -0.0820
  463MOL0     C61026   3.331   6.053  10.245 -0.5042  0.0501  0.1683
  463MOL0     C61027   3.321   6.070  10.398 -0.9967  0.2982 -0.6471
  463MOL0    Cl61028   3.338   6.240  10.444  0.0421 -0.0047 -0.1784
  463MOL0     C61029   2.920   5.752   9.514  0.6563  0.7416  0.2695
  463MOL0     C61030   2.786   5.707   9.501 -0.2591 -0.2170  0.3312
  463MOL0     O61031   2.600   5.757   9.202  0.5216  0.1731  0.4780
  463MOL0     C61032   2.297   5.648   9.372 -0.1876  0.2986 -0.9504
  463MOL0     C61033   2.176   5.597   9.329  0.2872  0.1898  0.7724
  463MOL0     N61034   1.532   5.295   9.225 -0.1523  0.5653 -0.7627
  463MOL0     N61035   1.484   5.224   9.316 -0.0910 -0.6427  0.4004
  463MOL0     C61036   0.786   5.942  10.086  0.4484 -0.2457  0.0030
  463MOL0     C61037   0.797   6.072  10.139 -0.0121 -0.0008 -0.1546
  463MOL0     C61038   0.847   6.518  10.174 -0.0605 -0.8686  0.4495
  463MOL0     C61039   0.979   6.548  10.207  0.3435  0.8212 -0.6410
  463MOL0     C61040   1.008   6.687  10.237 -0.0578 -0.3212  0.1255
  463MOL0     C61041   0.913   6.786  10.242 -0.3318  0.0570 -0.6051
  463MOL0     O61042   0.923   6.915  10.289  0.7878 -0.2323  0.4257
  463MOL0     C61043   1.024   6.939  10.395 -0.2158 -0.5653  0.0430
  463MOL0     C61044   0.966   7.059  10.478 -0.1367 -0.7822 -0.9464
  463MOL0     C61045   1.014   7.190  10.420  0.5304 -0.0284 -0.5038
  463MOL0     C61046   0.941   7.315  10.467  0.5492  0.4064 -0.6128
  463MOL0     C61047   0.826   7.366  10.392 -0.8293  1.1470 -0.0437
  463MOL0     C61048   0.752   7.423  10.313 -0.7095 -0.1492  0.2128
  463MOL0     C61049   0.785   6.749  10.210 -0.1663 -0.2105  0.4999
  463MOL0     C61050   0.748   6.620  10.174  0.6193  0.8471  0.4561
  463MOL0     H61051   1.019   6.200   9.927  3.6403 -1.7436  0.3386
  463MOL0     H61052   1.012   5.957   9.844 -1.4253  1.3910 -0.8478
  463MOL0     H61053   0.740   5.833   9.793  2.1799  0.2023  0.8802
  463MOL0     H61054   0.743   5.655   9.828 -1.3798 -0.9360 -0.0306
  463MOL0     H61055   0.942   5.812   9.661  2.1686 -2.0654 -1.9148
  463MOL0     H61056   0.851   5.671   9.618 -0.7300 -3.1437  1.8918
  463MOL0     H61057   0.955   5.515   9.739 -2.6903  1.7986  0.8648
  463MOL0     H61058   1.044   5.617   9.843 -0.0384 -2.9079  0.4042
  463MOL0     H61059   1.069   5.635   9.549 -2.3640 -0.8953  0.5490
  463MOL0     H61060   1.175   5.712   9.673  1.9661 -1.3307 -2.7026
  463MOL0     H61061   1.251   5.467   9.726  1.4736  2.5519  1.7287
  463MOL0     H61062   1.294   5.549   9.571 -2.9202  2.5060 -1.8463
  463MOL0     H61063   1.165   5.417   9.439  1.9348 -4.2073 -0.4014
  463MOL0     H61064   1.058   5.389   9.585 -0.6053  3.2938  0.7642
  463MOL0     H61065   1.203   5.208   9.645 -1.4963 -0.7922 -1.6407
  463MOL0     H61066   1.205   5.192   9.478 -1.0461 -1.4746  1.4226
  463MOL0     H61067   1.430   5.175   9.585 -0.8710  0.5571  2.7422
  463MOL0     H61068   1.420   5.336   9.642  2.7465  0.5306 -1.8756
  463MOL0     H61069   1.475   5.523   9.460 -2.3473 -0.1313  0.3982
  463MOL0     H61070   1.552   5.631   9.241  3.1141  1.4629 -0.9971
  463MOL0     H61071   1.557   5.531   9.093  1.7259  0.1573 -1.0764
  463MOL0     H61072   1.777   5.507   9.300  1.4841  0.9450 -0.1957
  463MOL0     H61073   1.785   5.649   9.198  0.3906 -0.6972 -0.8965
  463MOL0     H61074   1.803   5.360   9.096  1.8232  0.1205  3.0018
  463MOL0     H61075   1.747   5.501   9.004 -1.4169  1.1397  1.2138
  463MOL0     H61076   1.959   5.618   9.029 -1.0683  0.4048  1.5774
  463MOL0     H61077   2.000   5.454   8.971 -0.5633 -2.1783  0.5768
  463MOL0     H61078   2.228   5.509   9.013  0.4927  0.1824 -0.3437
  463MOL0     H61079   2.452   5.625   9.067  3.5427 -2.1374  4.4086
  463MOL0     H61080   2.634   6.010   9.425 -0.3127 -0.1042  1.8835
  463MOL0     H61081   2.850   6.090   9.441  4.9911  0.3947 -1.1318
  463MOL0     H61082   3.277   5.884   9.540  0.4449 -0.4310  1.2386
  463MOL0     H61083   3.180   5.740   9.574  3.9933 -0.5257 -0.1558
  463MOL0     H61084   3.064   5.873   9.780 -0.0701  0.6958 -1.0637
  463MOL0     H61085   3.144   6.009   9.727 -1.8423 -0.2682  0.6345
  463MOL0     H61086   3.382   5.877   9.779  1.8160 -1.3437  3.2780
  463MOL0     H61087   3.270   5.751   9.836 -0.7223  0.9627  2.4547
  463MOL0     H61088   3.335   6.031   9.935  4.2350 -3.1614 -2.2729
  463MOL0     H61089   3.169   5.958   9.965 -1.1160 -1.2678  0.3223
  463MOL0     H61090   3.456   5.860  10.046  0.7581 -0.4693  3.4594
  463MOL0     H61091   3.315   5.762  10.062 -3.5656  0.7408  3.8694
  463MOL0     H61092   3.331   5.848  10.281  0.2780 -2.6616 -1.6064
  463MOL0     H61093   3.189   5.899  10.209 -0.1114 -0.5935 -1.1332
  463MOL0     H61094   3.434   6.087  10.234 -0.8590  1.6299  1.3479
  463MOL0     H61095   3.258   6.112  10.188 -0.0354  0.1500 -0.3300
  463MOL0     H61096   3.404   6.019  10.446 -1.6556  0.0331  0.2299
  463MOL0     H61097   3.231   6.023  10.439  0.4351  0.7581  3.4540
  463MOL0     H61098   2.984   5.665   9.523 -1.0858 -1.1089 -2.9946
  463MOL0     H61099   2.767   5.601   9.514 -0.7549 -0.1317  0.3316
  463MOL0     H61100   2.303   5.686   9.474 -3.8092 -0.1974 -0.3906
  463MOL0     H61101   2.090   5.599   9.394 -0.8694  0.6099 -0.7036
  463MOL0     H61102   0.716   5.872  10.131  1.4200 -1.1080  0.2131
  463MOL0     H61103   0.734   6.107  10.221  2.2013  2.8852  0.4527
  463MOL0     H61104   1.057   6.473  10.204  0.9458  1.4622 -1.2227
  463MOL0     H61105   1.104   6.718  10.276  1.9917 -2.6865 -2.6270
  463MOL0     H61106   1.122   6.970  10.358 -0.6574 -1.1634 -1.7358
  463MOL0     H61107   1.035   6.853  10.462  3.8006  0.1007  0.4840
  463MOL0     H61108   0.858   7.077  10.475  0.0368  0.2125 -3.3564
  463MOL0     H61109   0.998   7.053  10.582  2.0054  0.3183 -1.4999
  463MOL0     H61110   0.986   7.182  10.315 -1.1549  3.1868 -0.4337
  463MOL0     H61111   1.121   7.209  10.427  0.2083  1.7802  0.1993
  463MOL0     H61112   0.899   7.300  10.567 -0.6075 -0.2681 -1.1859
  463MOL0     H61113   1.009   7.401  10.473 -0.9899  1.6855 -1.0183
  463MOL0     H61114   0.698   7.455  10.227  0.0004 -2.7753 -1.3163
  463MOL0     H61115   0.701   6.817  10.199 -1.4077 -1.5469  1.3486
  463MOL0     H61116   0.649   6.588  10.145 -0.1823  1.5753  2.3066
  464MOL0     O61117   0.053   7.335   6.066 -0.1738  0.1296  0.4460
  464MOL0     C61118   0.176   7.318   6.054  0.1917  0.0173 -0.6895
  464MOL0     O61119   0.265   7.275   6.148  0.3822 -0.3143  1.0444
  464MOL0     C61120   0.218   7.223   6.263 -0.0505 -0.0704 -0.2667
  464MOL0     C61121   0.256   7.088   6.303  0.6128  0.0879  0.4127
  464MOL0     C61122   0.211   7.050   6.426 -1.7844 -0.0823  0.3175
  464MOL0     C61123   0.126   7.115   6.515 -0.1430 -0.0020 -0.1057
  464MOL0     O61124   0.096   7.057   6.636  0.0016  0.8188  0.4111
  464MOL0     C61125   0.055   7.141   6.749 -0.7814  0.8555 -0.0494
  464MOL0     C61126   0.072   7.052   6.882 -0.7652 -0.3826 -0.3043
  464MOL0     C61127   0.215   6.987   6.901  1.0948 -0.8502 -0.5760
  464MOL0     C61128   0.238   6.959   7.052  0.0856  0.2897  0.6347
  464MOL0     C61129   0.370   6.884   7.067 -0.0445  0.3155  0.1216
  464MOL0     C61130   0.408   6.858   7.223 -0.7695 -0.9323  0.0479
  464MOL0     C61131   0.545   6.804   7.236 -1.0506  0.5039  0.2377
  464MOL0     C61132   0.610   6.830   7.375  0.2574 -0.2381  0.4212
  464MOL0     N61133   0.748   6.790   7.391  0.4629  0.4939 -0.1710
  464MOL0     C61134   0.860   6.813   7.313  0.3471  0.2865 -0.2536
  464MOL0     C61135   0.965   6.790   7.398  0.6468  0.1558  0.1979
  464MOL0     C61136   1.108   6.824   7.374 -0.2623 -0.7215 -0.0149
  464MOL0     C61137   1.174   6.913   7.473  0.5811  0.0066  0.0940
  464MOL0     C61138   1.229   6.850   7.612 -0.1124  1.0636  0.8199
  464MOL0     C61139   1.365   6.785   7.595  0.3261 -0.4895  0.0030
  464MOL0     O61140   1.473   6.886   7.604  0.4723 -0.6526 -0.3230
  464MOL0     C61141   1.589   6.868   7.677 -0.8392  0.6948  0.1373
  464MOL0     C61142   1.662   6.972   7.726  0.5168 -0.6484  0.8742
  464MOL0     C61143   1.789   6.955   7.785  0.1127  0.3266  0.5805
  464MOL0     C61144   1.841   6.837   7.819  0.2262  0.8055  0.7638
  464MOL0     C61145   1.976   6.818   7.887  0.0395 -1.1586  0.2528
  464MOL0     O61146   2.016   6.689   7.900 -0.0714  0.5204 -1.3994
  464MOL0     C61147   2.128   6.660   7.966  0.7161  0.6774  0.5227
  464MOL0     C61148   2.135   6.545   8.043  0.0790 -0.7762 -0.0345
  464MOL0     C61149   2.248   6.481   8.084 -0.1939 -0.1069 -0.0248
  464MOL0     C61150   2.372   6.520   8.040 -0.0346  0.3204  0.6780
  464MOL0     O61151   2.497   6.465   8.052  0.1298  0.2972  0.4282
  464MOL0     C61152   2.500   6.327   8.088  0.1410 -0.0523 -0.6488
  464MOL0     C61153   2.556   6.250   7.964 -0.0234  1.2063 -0.0414
  464MOL0     C61154   2.637   6.131   8.013 -0.0030 -0.0297  0.1530
  464MOL0     C61155   2.703   6.074   7.886 -0.9388  0.0182  0.0494
  464MOL0     C61156   2.621   5.986   7.795  0.2496  0.1877 -0.5988
  464MOL0     C61157   2.540   5.885   7.867 -0.7423 -0.2964 -0.3525
  464MOL0     C61158   2.500   5.774   7.771  0.8922 -0.2068 -0.1861
  464MOL0     C61159   2.458   5.638   7.839  0.1171 -0.0665  0.0184
  464MOL0    Cl61160   2.553   5.596   7.980  0.4977  0.0759 -0.7402
  464MOL0     C61161   2.368   6.643   7.968  0.2322 -0.0443  0.4003
  464MOL0     C61162   2.253   6.706   7.928  0.2864  0.0304 -0.2550
  464MOL0     O61163   2.028   6.918   7.940  0.6233  0.0096  0.5168
  464MOL0     C61164   1.761   6.721   7.782 -0.8626 -0.8297  0.6711
  464MOL0     C61165   1.650   6.742   7.698  0.0321  0.5759 -0.4221
  464MOL0     N61166   0.923   6.748   7.522  0.0901 -0.1278  0.5902
  464MOL0     N61167   0.799   6.742   7.515  0.0674 -0.2925 -0.5073
  464MOL0     C61168   0.090   7.247   6.479 -0.5743 -0.3236 -0.1934
  464MOL0     C61169   0.148   7.300   6.354  0.3933  0.3375 -0.2581
  464MOL0     C61170   0.231   7.360   5.922 -0.2753  0.2767  0.7331
  464MOL0     C61171   0.145   7.403   5.824  0.1169 -0.2145 -0.2226
  464MOL0     C61172   0.188   7.428   5.697 -0.7374  0.9546  0.6830
  464MOL0     C61173   0.326   7.416   5.660 -0.4847  0.3608  0.9178
  464MOL0     O61174   0.373   7.440   5.531  0.3655 -0.5427  0.2064
  464MOL0     C61175   0.295   7.509   5.434 -0.1223  0.7259  0.0119
  464MOL0     C61176   0.227   7.398   5.347  1.0815 -0.5072 -1.0940
  464MOL0     C61177   0.219   7.453   5.210  0.0229  0.4812  0.9293
  464MOL0     C61178   0.335   7.412   5.126  0.3246 -0.3068  0.0278
  464MOL0     C61179   0.344   7.260   5.111  0.8294  0.2610  0.9605
  464MOL0     C61180   0.336   7.140   5.101 -0.7040 -0.2633  0.2302
  464MOL0     C61181   0.420   7.371   5.760  1.1453 -0.4970  0.1277
  464MOL0     C61182   0.369   7.341   5.889 -0.3070  0.3112  0.6484
  464MOL0     H61183   0.318   7.024   6.242  0.0555 -0.2376  0.1818
  464MOL0     H61184   0.253   6.953   6.450  0.3561  0.1899 -1.9174
  464MOL0     H61185  -0.044   7.182   6.728  0.4478  2.6929 -2.9105
  464MOL0     H61186   0.116   7.232   6.747 -0.7585  0.8308 -0.9482
  464MOL0     H61187  -0.002   6.971   6.881  0.1267 -1.2575 -2.4882
  464MOL0     H61188   0.048   7.108   6.973 -0.9209  0.4103 -0.8190
  464MOL0     H61189   0.296   7.057   6.879 -1.1388  1.5870 -1.5761
  464MOL0     H61190   0.215   6.899   6.835  1.3491 -1.6041  0.3982
  464MOL0     H61191   0.250   7.050   7.112 -1.6057  0.5986  0.5478
  464MOL0     H61192   0.153   6.901   7.088 -1.2478  1.5066 -0.4577
  464MOL0     H61193   0.448   6.934   7.008  0.4860 -3.0504 -2.3411
  464MOL0     H61194   0.356   6.784   7.025 -1.3068  0.8864 -0.8717
  464MOL0     H61195   0.328   6.793   7.261  0.4953 -4.2200 -2.4644
  464MOL0     H61196   0.407   6.960   7.262 -2.5778 -0.5416 -0.8614
  464MOL0     H61197   0.559   6.696   7.218 -0.8142  0.4394  0.7930
  464MOL0     H61198   0.608   6.845   7.156 -2.4427 -2.1032 -2.3974
  464MOL0     H61199   0.549   6.786   7.454  1.6353 -0.3400  1.4652
  464MOL0     H61200   0.605   6.936   7.404  2.2879  0.7857 -2.4782
  464MOL0     H61201   0.863   6.839   7.207 -3.1624  0.8729 -0.3301
  464MOL0     H61202   1.126   6.878   7.280  4.0625 -0.2796  0.8666
  464MOL0     H61203   1.165   6.732   7.354  1.3163  0.7776 -3.1481
  464MOL0     H61204   1.098   6.988   7.499  0.6457  1.2256 -2.8388
  464MOL0     H61205   1.260   6.955   7.420  1.1476  1.7377  2.2555
  464MOL0     H61206   1.216   6.927   7.689 -3.6271  2.9249 -1.3562
  464MOL0     H61207   1.168   6.761   7.627  1.1566 -0.0791 -0.6171
  464MOL0     H61208   1.377   6.732   7.499 -2.8939  2.1586 -2.1023
  464MOL0     H61209   1.385   6.712   7.673  1.4321  0.8196  0.9870
  464MOL0     H61210   1.614   7.069   7.718 -2.0126 -1.8695  0.4668
  464MOL0     H61211   1.848   7.044   7.808  0.8772  1.3459 -4.3584
  464MOL0     H61212   2.044   6.502   8.083 -1.2517  1.8367 -0.0075
  464MOL0     H61213   2.242   6.392   8.145 -0.0675  0.5341  0.9601
  464MOL0     H61214   2.405   6.283   8.122  0.8518 -2.1444 -1.1846
  464MOL0     H61215   2.557   6.321   8.181 -0.4665 -2.4517 -0.3449
  464MOL0     H61216   2.615   6.315   7.899  2.9042 -2.3222 -1.2565
  464MOL0     H61217   2.467   6.207   7.916  2.5760 -1.9283 -2.4593
  464MOL0     H61218   2.574   6.062   8.069  0.1215  0.9212  1.5160
  464MOL0     H61219   2.719   6.169   8.076 -1.4761  1.1653  1.4291
  464MOL0     H61220   2.738   6.154   7.820 -2.1110  0.5872  0.0810
  464MOL0     H61221   2.790   6.016   7.916  0.6880  1.7065 -1.1985
  464MOL0     H61222   2.697   5.934   7.736 -0.9620 -2.1139 -0.2567
  464MOL0     H61223   2.555   6.052   7.738 -0.4034 -0.2294 -0.3348
  464MOL0     H61224   2.442   5.928   7.892 -1.3102  0.1379 -2.9636
  464MOL0     H61225   2.601   5.855   7.953  1.8258 -0.4350 -2.1123
  464MOL0     H61226   2.421   5.813   7.707 -0.3322 -0.0386  1.3853
  464MOL0     H61227   2.581   5.735   7.708  0.3466 -2.9607  0.6536
  464MOL0     H61228   2.467   5.551   7.774  0.2645 -0.2912  0.3328
  464MOL0     H61229   2.353   5.651   7.865 -0.2449 -3.0852  0.4669
  464MOL0     H61230   2.458   6.690   7.930 -2.1555  5.0005  0.1571
  464MOL0     H61231   2.239   6.793   7.866 -2.8502  0.7021  1.2159
  464MOL0     H61232   1.808   6.626   7.804  2.2071  0.5715  0.6617
  464MOL0     H61233   1.603   6.651   7.663  2.7486  0.1014 -3.2542
  464MOL0     H61234   0.033   7.321   6.535 -1.1670  0.1967 -1.4524
  464MOL0     H61235   0.123   7.403   6.330  0.2561  0.3043 -0.2560
  464MOL0     H61236   0.037   7.396   5.824  0.0690 -2.0769 -3.9209
  464MOL0     H61237   0.105   7.449   5.630  1.1194 -1.7588 -2.8215
  464MOL0     H61238   0.372   7.568   5.383 -0.2075  0.3744 -0.5375
  464MOL0     H61239   0.211   7.575   5.457 -0.0605  1.5465 -1.9074
  464MOL0     H61240   0.286   7.306   5.352  0.8200 -0.6305  2.3964
  464MOL0     H61241   0.127   7.385   5.391 -0.7207  1.7232 -4.1628
  464MOL0     H61242   0.211   7.562   5.215  1.4600  0.7212 -1.1293
  464MOL0     H61243   0.124   7.414   5.172 -0.3312 -0.0489  2.2934
  464MOL0     H61244   0.320   7.464   5.032 -0.8431  1.4048  1.1097
  464MOL0     H61245   0.428   7.445   5.173  1.4158  0.7495 -2.6784
  464MOL0     H61246   0.339   7.033   5.101 -0.9919 -0.3002  1.9439
  464MOL0     H61247   0.527   7.360   5.747  1.9040  1.0602  3.9168
  464MOL0     H61248   0.435   7.307   5.968 -0.1439  0.7571  0.7042
  465MOL0     O61249   3.481   5.035   0.767  0.1677 -0.3141  0.2372
  465MOL0     C61250   3.435   5.148   0.767 -0.1097 -0.3593 -0.3276
  465MOL0     O61251   3.305   5.179   0.758  0.7276 -0.1207  0.9966
  465MOL0     C61252   3.218   5.073   0.730 -0.3053 -1.5297 -0.6424
  465MOL0     C61253   3.219   4.997   0.620 -0.1471 -0.2450 -1.5577
  465MOL0     C61254   3.116   4.904   0.595  1.3661  0.5129 -0.0577
  465MOL0     C61255   3.011   4.878   0.695  0.6149  0.0935  0.1336
  465MOL0     O61256   2.895   4.801   0.683  1.0153 -0.3733 -0.2326
  465MOL0     C61257   2.908   4.674   0.641  0.0510 -0.4841  0.4844
  465MOL0     C61258   2.793   4.588   0.699  0.8389  0.3720  0.3941
  465MOL0     C61259   2.792   4.584   0.857 -0.1602  0.7772 -0.2089
  465MOL0     C61260   2.894   4.504   0.954  0.0281  0.4077 -1.0235
  465MOL0     C61261   2.917   4.360   0.919 -0.0015  0.9965 -0.5562
  465MOL0     C61262   3.038   4.301   1.000 -0.3184 -0.0164  0.6460
  465MOL0     C61263   3.093   4.162   0.942 -0.7345 -0.6904  0.0168
  465MOL0     C61264   3.144   4.164   0.802  0.0897 -0.7056 -0.0541
  465MOL0     N61265   3.244   4.273   0.785  0.2405 -0.4984  0.3467
  465MOL0     C61266   3.227   4.381   0.704 -0.0389  0.0172 -0.4486
  465MOL0     C61267   3.326   4.465   0.719  0.2899 -0.3836  0.2357
  465MOL0     C61268   3.349   4.594   0.665 -0.4902  0.6338  0.0914
  465MOL0     C61269   3.475   4.575   0.585  0.8054 -0.0612  0.9778
  465MOL0     C61270   3.553   4.703   0.561 -0.6215  0.3656  0.2966
  465MOL0     C61271   3.615   4.758   0.688  0.2455 -0.2427 -1.0058
  465MOL0     O61272   3.702   4.666   0.745  0.1376 -0.0521 -0.3661
  465MOL0     C61273   3.709   4.666   0.885 -0.1445  0.8515 -1.3617
  465MOL0     C61274   3.727   4.551   0.955  0.0619 -0.2750 -0.4571
  465MOL0     C61275   3.728   4.553   1.095 -1.0882  0.3524  0.4518
  465MOL0     C61276   3.731   4.667   1.169  0.7711  0.0395 -0.4486
  465MOL0     C61277   3.746   4.658   1.317 -0.3081  0.2589 -1.0921
  465MOL0     O61278   3.781   4.527   1.359 -0.5029 -0.7483 -0.4889
  465MOL0     C61279   3.846   4.516   1.480 -0.7220 -0.2600  0.0112
  465MOL0     C61280   3.789   4.444   1.583 -0.3705  0.0372 -0.2724
  465MOL0     C61281   3.854   4.442   1.706  0.7834  0.5887 -0.4436
  465MOL0     C61282   3.980   4.502   1.720  0.3829  0.3917 -0.0987
  465MOL0     O61283   4.041   4.519   1.842 -0.4724 -0.0789  0.2320
  465MOL0     C61284   3.963   4.485   1.954 -0.7300  0.1296 -1.1496
  465MOL0     C61285   4.041   4.533   2.077 -0.0734 -0.1199 -0.4777
  465MOL0     C61286   4.088   4.679   2.069  0.2144  0.0698  0.1166
  465MOL0     C61287   4.123   4.738   2.208 -0.1382 -0.2300 -0.4151
  465MOL0     C61288   4.262   4.694   2.246 -0.8312 -0.3197 -1.1005
  465MOL0     C61289   4.299   4.777   2.376 -0.1752  0.8058  0.2392
  465MOL0     C61290   4.439   4.739   2.425 -0.6050 -0.2023  0.4221
  465MOL0     C61291   4.546   4.807   2.344 -0.7432 -0.3120  0.3588
  465MOL0    Cl61292   4.697   4.775   2.422  0.0929 -0.0750  0.1375
  465MOL0     C61293   4.039   4.555   1.610 -0.1560 -1.8570  0.2833
  465MOL0     C61294   3.978   4.573   1.486 -0.7011 -0.5925  0.5993
  465MOL0     O61295   3.742   4.760   1.391 -0.0457  0.0057  1.0022
  465MOL0     C61296   3.711   4.785   1.101  0.0862  0.3317 -0.0281
  465MOL0     C61297   3.701   4.777   0.964 -0.0067 -1.0175  0.8853
  465MOL0     N61298   3.408   4.399   0.811  0.9087 -0.9615  0.4569
  465MOL0     N61299   3.355   4.293   0.855  0.3440  0.3108 -0.5863
  465MOL0     C61300   3.026   4.958   0.815  0.4338 -0.3894 -0.4779
  465MOL0     C61301   3.123   5.056   0.825 -0.0816  0.1485 -0.6547
  465MOL0     C61302   3.538   5.256   0.814  0.0855 -0.9483  0.2149
  465MOL0     C61303   3.509   5.392   0.809 -0.5992 -0.2690  0.8388
  465MOL0     C61304   3.607   5.485   0.838 -1.2344  0.1049  0.3784
  465MOL0     C61305   3.739   5.453   0.879  0.4362 -0.4786 -0.4765
  465MOL0     O61306   3.827   5.539   0.928  0.7074 -0.3563  0.4001
  465MOL0     C61307   3.785   5.647   1.014  0.5238  0.5751 -0.0038
  465MOL0     C61308   3.894   5.708   1.113 -0.0177  0.1360 -0.4733
  465MOL0     C61309   3.985   5.808   1.034 -0.3855  0.5667  0.0604
  465MOL0     C61310   4.124   5.842   1.096  0.3085 -0.3362 -0.2554
  465MOL0     C61311   4.199   5.874   0.976 -1.6755 -0.2482 -0.4321
  465MOL0     C61312   4.245   5.911   0.864  0.4826 -0.2086 -0.3948
  465MOL0     C61313   3.770   5.320   0.890  0.5961  0.8137  0.7946
  465MOL0     C61314   3.668   5.225   0.852 -0.3167 -0.3200 -0.2946
  465MOL0     H61315   3.297   5.011   0.546  1.1964 -2.5510 -0.6867
  465MOL0     H61316   3.110   4.857   0.498  3.9045 -0.8377  0.3482
  465MOL0     H61317   3.005   4.628   0.660  0.4616 -1.1213 -2.5816
  465MOL0     H61318   2.887   4.668   0.534 -1.8610 -0.7919  0.8472
  465MOL0     H61319   2.812   4.486   0.665 -0.9810  0.0004  0.3624
  465MOL0     H61320   2.696   4.592   0.647  2.2089 -1.8839 -2.6895
  465MOL0     H61321   2.696   4.538   0.882  1.6172 -1.6099  2.8176
  465MOL0     H61322   2.786   4.684   0.901 -0.1913 -0.0262  1.6770
  465MOL0     H61323   2.986   4.562   0.946 -0.2779  0.9352 -0.7069
  465MOL0     H61324   2.871   4.520   1.059  1.2477  0.9750 -0.8258
  465MOL0     H61325   2.916   4.353   0.810 -5.1922 -0.8464 -0.6662
  465MOL0     H61326   2.822   4.312   0.942  0.1971  1.3474  1.1457
  465MOL0     H61327   3.009   4.296   1.105 -0.4597 -0.5393  0.5852
  465MOL0     H61328   3.120   4.373   0.991  0.1231 -0.5691  0.1547
  465MOL0     H61329   3.158   4.122   1.021 -1.2822  0.9186  1.3624
  465MOL0     H61330   3.015   4.087   0.957 -0.7822 -0.7234 -0.3866
  465MOL0     H61331   3.056   4.174   0.737  0.4370  1.2739 -0.2956
  465MOL0     H61332   3.180   4.068   0.763 -0.5680 -1.4100  1.0338
  465MOL0     H61333   3.137   4.394   0.644  1.2401  1.2098 -2.2067
  465MOL0     H61334   3.366   4.656   0.754 -1.9505  0.2334  0.6834
  465MOL0     H61335   3.261   4.628   0.610 -0.3925  1.3560  0.3655
  465MOL0     H61336   3.450   4.535   0.487 -2.2477  0.3094  1.4861
  465MOL0     H61337   3.541   4.494   0.615  2.3512  0.5383 -0.6407
  465MOL0     H61338   3.641   4.681   0.501 -0.4800  1.0481  0.2439
  465MOL0     H61339   3.491   4.775   0.506 -3.0582 -1.5076  0.4279
  465MOL0     H61340   3.538   4.791   0.758  1.8787  2.7374 -0.4470
  465MOL0     H61341   3.669   4.850   0.664 -0.2725  0.8046  1.5195
  465MOL0     H61342   3.733   4.453   0.909 -3.2140 -0.0197 -1.6747
  465MOL0     H61343   3.728   4.458   1.148  4.3943  0.1341  0.5892
  465MOL0     H61344   3.690   4.401   1.571 -0.6087  0.6810 -0.6896
  465MOL0     H61345   3.814   4.389   1.792  0.6951 -0.4744 -1.1240
  465MOL0     H61346   3.934   4.380   1.965  0.1720 -0.1354 -1.2117
  465MOL0     H61347   3.874   4.546   1.938 -1.8417 -1.3751 -0.9164
  465MOL0     H61348   4.120   4.458   2.080 -1.2625 -1.4829 -1.7852
  465MOL0     H61349   3.972   4.517   2.161 -1.7614 -1.2948 -2.0241
  465MOL0     H61350   3.999   4.735   2.039 -1.3193 -0.2927  3.5068
  465MOL0     H61351   4.170   4.690   1.997 -1.5045 -3.9009 -2.9081
  465MOL0     H61352   4.120   4.847   2.199  0.4926 -0.1766 -0.0286
  465MOL0     H61353   4.045   4.713   2.280 -0.3815  0.6307 -0.3671
  465MOL0     H61354   4.326   4.730   2.165 -2.4122  2.6199 -1.1810
  465MOL0     H61355   4.275   4.586   2.259  5.1278 -0.2029 -3.0247
  465MOL0     H61356   4.229   4.759   2.458  0.2315 -3.4992 -0.0906
  465MOL0     H61357   4.297   4.882   2.345 -3.2473 -0.4262 -4.9365
  465MOL0     H61358   4.450   4.763   2.531 -1.3879 -2.3155  1.0166
  465MOL0     H61359   4.444   4.630   2.419  1.3884 -0.1175 -0.0361
  465MOL0     H61360   4.535   4.916   2.339 -1.5970 -0.3030  1.9411
  465MOL0     H61361   4.564   4.757   2.248  1.7256 -0.3882  0.7857
  465MOL0     H61362   4.137   4.599   1.625 -1.7860  2.0243  0.7946
  465MOL0     H61363   4.024   4.617   1.398  3.2065 -1.1818  2.1730
  465MOL0     H61364   3.714   4.882   1.149 -2.2533  1.2943 -1.6287
  465MOL0     H61365   3.684   4.869   0.909 -0.3736 -1.5216  0.1366
  465MOL0     H61366   2.955   4.942   0.896 -0.0012  1.9101 -0.3396
  465MOL0     H61367   3.115   5.110   0.919 -3.1798 -3.2224  1.2881
  465MOL0     H61368   3.421   5.434   0.764 -2.2993 -5.7318 -1.8564
  465MOL0     H61369   3.600   5.591   0.820  1.6706  0.0705 -1.7080
  465MOL0     H61370   3.700   5.606   1.069  2.8000 -1.5736  2.1821
  465MOL0     H61371   3.753   5.730   0.951  0.3556 -0.7500 -1.7566
  465MOL0     H61372   3.843   5.757   1.197  0.0194  1.8606 -1.4201
  465MOL0     H61373   3.946   5.625   1.163  0.8737  1.3555  0.7111
  465MOL0     H61374   3.936   5.905   1.020 -1.2677 -0.0635 -1.4287
  465MOL0     H61375   3.992   5.765   0.934  2.1487 -0.9339  0.7878
  465MOL0     H61376   4.103   5.925   1.165 -4.1580 -1.2858 -0.1476
  465MOL0     H61377   4.157   5.753   1.150 -3.6471 -0.6351  2.1131
  465MOL0     H61378   4.284   5.954   0.774 -0.9170 -0.8623 -1.3324
  465MOL0     H61379   3.870   5.288   0.919  1.4967  3.0653  0.3127
  465MOL0     H61380   3.707   5.125   0.868  1.6521  0.5619  0.7060
  466MOL0     O61381   4.370   9.815  10.823  0.7578  0.0857 -0.6634
  466MOL0     C61382   4.427   9.732  10.755 -0.3705  0.0528  0.1517
  466MOL0     O61383   4.388   9.604  10.735 -1.0127  0.0468  0.4106
  466MOL0     C61384   4.313   9.559  10.840  0.2737  0.3852 -0.3013
  466MOL0     C61385   4.171   9.578  10.817  0.7708  0.1322 -0.5391
  466MOL0     C61386   4.090   9.522  10.920 -0.2211 -0.2205 -0.1273
  466MOL0     C61387   4.138   9.448  11.032 -0.4154 -0.4531 -0.5111
  466MOL0     O61388   4.065   9.396  11.132 -0.0504 -0.6327  0.4675
  466MOL0     C61389   3.920   9.385  11.109  0.0520 -0.1317  0.4000
  466MOL0     C61390   3.853   9.306  11.227  0.2246 -0.0565  0.7120
  466MOL0     C61391   3.875   9.368  11.377 -0.5472 -0.0838 -0.1070
  466MOL0     C61392   3.784   9.477  11.416 -0.0003  0.1806  0.5295
  466MOL0     C61393   3.816   9.555  11.546  0.0050  0.4743 -1.3270
  466MOL0     C61394   3.852   9.468  11.672 -0.7276 -0.1119  0.7520
  466MOL0     C61395   3.730   9.379  11.714  0.1245  0.7789 -0.2812
  466MOL0     C61396   3.725   9.315  11.851 -0.1928 -0.4341 -0.7252
  466MOL0     N61397   3.824   9.206  11.856  0.6105  0.4027  0.3804
  466MOL0     C61398   3.829   9.091  11.779  0.1714 -0.3953  0.5048
  466MOL0     C61399   3.945   9.036  11.812 -0.1001  0.1865 -0.3323
  466MOL0     C61400   4.000   8.919  11.731  0.7031 -0.1850 -0.0278
  466MOL0     C61401   4.040   8.972  11.593 -0.4885  0.4935  0.4995
  466MOL0     C61402   4.120   8.872  11.518 -1.1571  0.3943  0.2747
  466MOL0     C61403   4.154   8.914  11.369  0.7252 -0.6096  0.3475
  466MOL0     O61404   4.278   8.995  11.358 -0.6969  0.5386 -0.8518
  466MOL0     C61405   4.337   9.019  11.233 -0.8164  1.2819  0.4173
  466MOL0     C61406   4.459   9.098  11.228 -0.3221  0.1370 -0.0350
  466MOL0     C61407   4.522   9.125  11.110  0.8460  0.2348 -0.2197
  466MOL0     C61408   4.472   9.069  10.989  0.4562 -0.5352  0.0181
  466MOL0     C61409   4.541   9.098  10.866 -0.2911  0.0112 -0.2733
  466MOL0     O61410   4.616   9.218  10.863 -1.0442 -0.3697 -0.3964
  466MOL0     C61411   4.707   9.249  10.759  0.0805 -0.7603 -0.4021
  466MOL0     C61412   4.806   9.341  10.806  0.3493 -0.3815  0.2655
  466MOL0     C61413   4.912   9.375  10.719  0.0428  0.2935 -0.1079
  466MOL0     C61414   4.919   9.309  10.599 -0.1765  0.0443  0.0360
  466MOL0     O61415   5.033   9.321  10.514 -0.2864  0.6312  0.6782
  466MOL0     C61416   5.124   9.426  10.519 -0.2786 -0.3263  0.5263
  466MOL0     C61417   5.062   9.545  10.447 -0.0005  0.1361 -0.1110
  466MOL0     C61418   5.177   9.649  10.441 -0.1857 -0.2685 -0.7864
  466MOL0     C61419   5.255   9.669  10.310  0.9292 -0.0479 -0.5025
  466MOL0     C61420   5.181   9.762  10.220 -1.2381  1.4607  0.4435
  466MOL0     C61421   5.239   9.759  10.075 -0.4280 -0.6764  0.8037
  466MOL0     C61422   5.371   9.840  10.070 -0.4793 -0.3201 -0.1327
  466MOL0     C61423   5.408   9.878   9.927  0.1222 -0.5228  0.1515
  466MOL0    Cl61424   5.561   9.981   9.938 -0.3594  0.3889  0.4698
  466MOL0     C61425   4.820   9.218  10.551  0.5600  0.2457 -0.4878
  466MOL0     C61426   4.711   9.193  10.627  0.0143  0.3004 -1.0452
  466MOL0     O61427   4.546   9.002  10.787 -0.8754 -0.5977  0.4174
  466MOL0     C61428   4.348   8.992  10.987 -0.6808 -0.3651 -0.2520
  466MOL0     C61429   4.285   8.961  11.112 -0.3681  0.4789  0.1421
  466MOL0     N61430   4.014   9.102  11.914  0.3085 -0.5391 -0.9399
  466MOL0     N61431   3.945   9.211  11.922 -0.7440  0.8623 -1.7822
  466MOL0     C61432   4.274   9.436  11.041  0.5164  0.6762 -0.6017
  466MOL0     C61433   4.364   9.480  10.946  0.5145  0.3198  1.0046
  466MOL0     C61434   4.549   9.764  10.674 -0.8491  0.9882 -0.1397
  466MOL0     C61435   4.638   9.673  10.609  0.5738 -0.0558 -0.7255
  466MOL0     C61436   4.732   9.717  10.514  0.7628  0.0789 -0.8032
  466MOL0     C61437   4.767   9.854  10.511 -0.1519 -0.2750 -0.9739
  466MOL0     O61438   4.880   9.901  10.447  0.5742 -0.3605  0.5130
  466MOL0     C61439   4.924  10.038  10.454  0.6196 -0.2379  0.9436
  466MOL0     C61440   4.875  10.106  10.326 -0.7275 -0.8126 -0.4957
  466MOL0     C61441   4.966  10.072  10.210  0.7730  0.2534  0.8082
  466MOL0     C61442   4.953  10.178  10.098 -0.6228 -0.1419  0.8760
  466MOL0     C61443   5.021  10.148   9.970  0.2745  0.7232  0.0975
  466MOL0     C61444   5.084  10.138   9.871  0.2806  0.0370  0.6539
  466MOL0     C61445   4.686   9.946  10.584 -0.2366  0.3492  0.4575
  466MOL0     C61446   4.583   9.901  10.666  0.2992 -0.2871 -0.0855
  466MOL0     H61447   4.129   9.626  10.730 -1.0178 -0.1136  0.1555
  466MOL0     H61448   3.986   9.534  10.890 -0.2924 -4.0331 -1.9983
  466MOL0     H61449   3.906   9.338  11.011  2.1958 -4.4637  1.9127
  466MOL0     H61450   3.870   9.482  11.112 -2.3455 -1.2886  0.0594
  466MOL0     H61451   3.884   9.201  11.224 -1.0578 -0.4239 -0.2908
  466MOL0     H61452   3.744   9.306  11.225  0.1813 -2.1982  0.9247
  466MOL0     H61453   3.976   9.409  11.380 -1.0604  1.2673 -0.5178
  466MOL0     H61454   3.878   9.280  11.442 -0.9646  0.7900  1.1356
  466MOL0     H61455   3.802   9.543  11.330  1.3183  0.4845  1.0091
  466MOL0     H61456   3.685   9.433  11.426 -1.0442  2.3724  0.4011
  466MOL0     H61457   3.733   9.623  11.568 -1.0898 -1.8228  2.7852
  466MOL0     H61458   3.906   9.616  11.531  2.2982 -2.3137  0.1555
  466MOL0     H61459   3.864   9.540  11.753  1.3194 -0.5678  0.9276
  466MOL0     H61460   3.939   9.404  11.655  0.1784  0.6351  2.3835
  466MOL0     H61461   3.650   9.454  11.717  1.6256  2.5161 -1.3915
  466MOL0     H61462   3.712   9.302  11.638  0.5069 -1.5840  1.8960
  466MOL0     H61463   3.628   9.272  11.876  0.1613 -0.1297  1.3417
  466MOL0     H61464   3.770   9.388  11.919  4.0436 -3.6837  0.4258
  466MOL0     H61465   3.762   9.042  11.710  1.2585  1.6548 -2.1775
  466MOL0     H61466   3.927   8.838  11.728  2.1406 -1.5293  0.1611
  466MOL0     H61467   4.089   8.896  11.790  1.7450  2.0849 -0.5904
  466MOL0     H61468   4.103   9.062  11.600 -0.4372  0.7021 -1.8393
  466MOL0     H61469   3.955   9.010  11.536 -1.9899  0.2795  2.4814
  466MOL0     H61470   4.215   8.850  11.568 -1.9168 -2.1193  0.7454
  466MOL0     H61471   4.077   8.771  11.523  0.0153 -0.0656  1.8674
  466MOL0     H61472   4.060   8.957  11.332 -1.9593 -3.5484  3.1363
  466MOL0     H61473   4.167   8.826  11.306  1.2970 -0.5265  0.3420
  466MOL0     H61474   4.494   9.154  11.315 -1.3692  1.0147 -0.1411
  466MOL0     H61475   4.609   9.191  11.111  0.6261  0.5601  1.7762
  466MOL0     H61476   4.798   9.373  10.910  3.3501  1.2435  0.0963
  466MOL0     H61477   4.995   9.437  10.750  0.1502 -0.1351  0.4979
  466MOL0     H61478   5.217   9.396  10.470  0.6242  1.9481  0.7102
  466MOL0     H61479   5.155   9.442  10.623 -2.8794 -4.1669  2.1221
  466MOL0     H61480   4.971   9.567  10.503  0.7706 -1.3335  1.8452
  466MOL0     H61481   5.044   9.517  10.342  1.1201 -0.6318 -0.1177
  466MOL0     H61482   5.259   9.630  10.512  2.1857  0.6363 -3.1086
  466MOL0     H61483   5.124   9.742  10.461  1.5878  0.8926 -1.2597
  466MOL0     H61484   5.351   9.716  10.332  1.5357 -2.1998  1.9335
  466MOL0     H61485   5.258   9.577  10.250  0.6608  0.3511 -1.1489
  466MOL0     H61486   5.166   9.863  10.260  0.2018  1.2808  1.4903
  466MOL0     H61487   5.080   9.720  10.213 -0.3471 -1.3785  2.5356
  466MOL0     H61488   5.161   9.798  10.009 -0.4195  1.0109  1.7245
  466MOL0     H61489   5.269   9.658  10.046  2.5544 -0.3095  2.1421
  466MOL0     H61490   5.354   9.935  10.121 -0.2708  0.7766 -1.9964
  466MOL0     H61491   5.455   9.782  10.111 -2.9136 -2.6016  1.9767
  466MOL0     H61492   5.325   9.927   9.875 -1.3140 -3.3936 -0.4494
  466MOL0     H61493   5.440   9.791   9.868  2.0577  0.9224 -1.0380
  466MOL0     H61494   4.827   9.162  10.458 -2.5637 -0.0425 -0.6429
  466MOL0     H61495   4.650   9.110  10.592  0.4177 -0.0421 -0.9512
  466MOL0     H61496   4.303   8.950  10.898  0.7869 -2.7594  0.0470
  466MOL0     H61497   4.197   8.898  11.099  0.3050 -0.3536 -0.5293
  466MOL0     H61498   4.301   9.385  11.133 -1.6247 -0.9363 -0.7893
  466MOL0     H61499   4.471   9.462  10.948  0.4661 -1.0599 -2.3968
  466MOL0     H61500   4.626   9.566  10.623 -1.9927  0.5110  2.9477
  466MOL0     H61501   4.799   9.644  10.472 -0.4802 -1.2532 -0.5600
  466MOL0     H61502   5.034  10.043  10.453  0.6166  4.1926  0.2757
  466MOL0     H61503   4.900  10.104  10.538 -1.1278  1.7578 -0.9830
  466MOL0     H61504   4.770  10.082  10.309 -0.6142 -2.5794  0.8950
  466MOL0     H61505   4.877  10.215  10.324 -1.5389 -0.8067 -1.7097
  466MOL0     H61506   4.955   9.976  10.159 -1.1295  0.4598  0.7741
  466MOL0     H61507   5.065  10.070  10.257  0.8227 -3.2387  0.8504
  466MOL0     H61508   4.846  10.194  10.085 -1.1792 -3.0821  1.2348
  466MOL0     H61509   4.984  10.275  10.139 -3.2939  0.8463  0.7384
  466MOL0     H61510   5.145  10.126   9.783 -0.4090  0.7523  0.0601
  466MOL0     H61511   4.689  10.053  10.564 -0.0710  0.3070  0.2513
  466MOL0     H61512   4.517   9.974  10.712  0.9536  0.3768 -0.1758
  467MOL0     O61513  10.647   7.586   6.817 -0.2199  0.0858 -0.8558
  467MOL0     C61514  10.645   7.500   6.728 -1.1455 -0.4517 -0.2663
  467MOL0     O61515  10.554   7.489   6.619  0.0597  0.0864 -0.7163
  467MOL0     C61516  10.434   7.560   6.617 -0.4964 -0.5313 -0.8918
  467MOL0     C61517  10.396   7.669   6.697 -0.1567  1.4063 -0.1865
  467MOL0     C61518  10.275   7.736   6.654 -0.6958 -0.3057 -0.8724
  467MOL0     C61519  10.190   7.696   6.552 -0.6388 -0.2542  0.7169
  467MOL0     O61520  10.073   7.761   6.551  0.4020 -0.0317 -0.4049
  467MOL0     C61521   9.959   7.686   6.507  0.8534 -0.6879  0.7987
  467MOL0     C61522   9.840   7.775   6.494  0.0255 -0.2040  0.8524
  467MOL0     C61523   9.817   7.902   6.577 -0.7007  0.2969 -0.0380
  467MOL0     C61524   9.807   7.883   6.725 -0.1326 -0.4363 -0.0858
  467MOL0     C61525   9.782   8.010   6.809 -0.0658 -0.9762 -1.0346
  467MOL0     C61526   9.725   7.991   6.947 -0.4471 -0.9836 -1.0547
  467MOL0     C61527   9.822   7.933   7.048 -0.5189  0.5255  0.3360
  467MOL0     C61528   9.759   7.927   7.187  0.7253 -0.1290 -0.3428
  467MOL0     N61529   9.842   7.868   7.290 -0.0039  0.3667  0.2421
  467MOL0     C61530   9.969   7.853   7.295 -0.4234 -0.2870 -0.3886
  467MOL0     C61531  10.012   7.776   7.399  1.1298  0.4724  1.0568
  467MOL0     C61532  10.147   7.734   7.424  0.5027  0.2535  0.3827
  467MOL0     C61533  10.173   7.700   7.568 -0.6009 -0.4796  0.6276
  467MOL0     C61534  10.305   7.621   7.581 -0.4827 -0.4774 -0.0713
  467MOL0     C61535  10.347   7.621   7.726  0.2882  0.8393  0.6063
  467MOL0     O61536  10.447   7.521   7.738  0.2663  0.7513  0.2343
  467MOL0     C61537  10.491   7.496   7.867  1.2829 -0.7825  0.1040
  467MOL0     C61538  10.596   7.405   7.884 -0.1847  0.0482  0.1931
  467MOL0     C61539  10.634   7.354   8.008  0.6166 -0.1244  0.3277
  467MOL0     C61540  10.572   7.389   8.125  0.3324  0.1307 -0.5476
  467MOL0     C61541  10.585   7.313   8.252  0.0441  0.0563 -0.5436
  467MOL0     O61542  10.489   7.322   8.343 -0.8178 -0.0153 -0.5001
  467MOL0     C61543  10.524   7.325   8.473  0.0375  0.7285 -0.4348
  467MOL0     C61544  10.614   7.410   8.535  0.7294  0.7021  0.7389
  467MOL0     C61545  10.628   7.390   8.675 -0.1056 -0.0377  0.7057
  467MOL0     C61546  10.560   7.284   8.754 -0.3581 -0.0282  0.5195
  467MOL0     O61547  10.576   7.267   8.888  1.1639  0.1137  0.5965
  467MOL0     C61548  10.659   7.368   8.946 -0.0853  0.2316  0.0720
  467MOL0     C61549  10.645   7.342   9.099  0.0045 -0.1253  0.1850
  467MOL0     C61550  10.739   7.231   9.152 -0.1472 -0.6438 -0.3802
  467MOL0     C61551  10.715   7.199   9.296 -0.8162 -0.1777  0.3533
  467MOL0     C61552  10.582   7.143   9.319 -0.1292 -0.5113  0.9947
  467MOL0     C61553  10.571   7.112   9.463  0.6670  0.4209 -0.1773
  467MOL0     C61554  10.467   7.008   9.504  0.3948  0.7593  0.0770
  467MOL0     C61555  10.484   6.973   9.652 -1.0637  0.0108  0.3744
  467MOL0    Cl61556  10.628   6.874   9.681  0.1139  0.0264  0.2931
  467MOL0     C61557  10.477   7.198   8.683  0.9088  0.0337  0.5737
  467MOL0     C61558  10.462   7.225   8.549  1.1745  0.8116  0.4419
  467MOL0     O61559  10.685   7.230   8.257 -1.0388 -0.8834  0.0498
  467MOL0     C61560  10.480   7.491   8.114  0.0419  0.2156  1.2113
  467MOL0     C61561  10.442   7.549   7.986  0.8364  0.7950  0.7851
  467MOL0     N61562   9.893   7.768   7.469 -0.0388  0.5822  0.0209
  467MOL0     N61563   9.790   7.815   7.412  0.2923  0.2577 -0.0940
  467MOL0     C61564  10.225   7.585   6.481  0.5981  0.2965 -0.1246
  467MOL0     C61565  10.351   7.528   6.509  0.0382  0.4287  0.2634
  467MOL0     C61566  10.747   7.395   6.737 -0.1905 -0.0199  0.4708
  467MOL0     C61567  10.772   7.301   6.635  0.3364  0.5506 -0.1886
  467MOL0     C61568  10.873   7.213   6.649 -0.0474  0.2365 -0.3801
  467MOL0     C61569  10.963   7.205   6.763 -0.3764 -0.3851 -0.0839
  467MOL0     O61570  11.084   7.134   6.769  0.1472  0.3165 -0.5247
  467MOL0     C61571  11.113   7.043   6.651  0.3257  0.0303  0.2948
  467MOL0     C61572  11.042   6.908   6.656 -0.0652 -0.3716  0.5545
  467MOL0     C61573  11.019   6.861   6.799  0.5715 -0.0372 -0.2503
  467MOL0     C61574  10.908   6.753   6.803  0.5997 -0.2933  0.7647
  467MOL0     C61575  10.868   6.723   6.940  0.9555  0.0920  0.2575
  467MOL0     C61576  10.808   6.689   7.040 -0.2375  0.7169 -0.0815
  467MOL0     C61577  10.921   7.279   6.870  0.2677 -0.0748  0.6941
  467MOL0     C61578  10.811   7.375   6.860 -0.2546 -0.5802 -0.1639
  467MOL0     H61579  10.452   7.683   6.789 -3.4756 -5.7517  3.8122
  467MOL0     H61580  10.242   7.827   6.703 -2.2303 -1.2638 -0.0269
  467MOL0     H61581   9.931   7.625   6.593 -1.9813  0.0524  0.4898
  467MOL0     H61582   9.975   7.628   6.416  1.3288 -0.6710  0.8671
  467MOL0     H61583   9.750   7.716   6.514 -0.7581  0.3985 -0.6945
  467MOL0     H61584   9.838   7.805   6.389  1.3623 -0.4237  0.7561
  467MOL0     H61585   9.728   7.957   6.545 -0.2497  1.2487  0.2985
  467MOL0     H61586   9.900   7.970   6.558  2.4635 -2.8169  1.4018
  467MOL0     H61587   9.722   7.816   6.740 -1.0216  0.3087 -1.6091
  467MOL0     H61588   9.903   7.838   6.754  0.5005 -0.2113 -1.7410
  467MOL0     H61589   9.723   8.085   6.755  0.0168 -0.3057 -0.2176
  467MOL0     H61590   9.882   8.051   6.829  0.2426 -1.4637 -1.5516
  467MOL0     H61591   9.626   7.945   6.940  0.8385 -4.1783  0.0397
  467MOL0     H61592   9.700   8.087   6.993 -3.5724 -2.4489  0.5998
  467MOL0     H61593   9.858   7.833   7.021  0.0600  0.3533  1.6502
  467MOL0     H61594   9.908   8.000   7.046 -0.3479  0.2844 -0.5384
  467MOL0     H61595   9.666   7.871   7.179  2.2058 -2.5965 -1.1986
  467MOL0     H61596   9.729   8.027   7.221  0.4807  1.2348 -4.0902
  467MOL0     H61597  10.032   7.896   7.218 -1.3037 -1.0123 -1.5543
  467MOL0     H61598  10.211   7.817   7.395 -0.4694  1.5515  1.7562
  467MOL0     H61599  10.176   7.654   7.356  2.8919 -2.2813  3.9890
  467MOL0     H61600  10.092   7.648   7.618 -1.0873 -2.3349 -1.8906
  467MOL0     H61601  10.185   7.796   7.619 -1.7260 -0.7516  1.4374
  467MOL0     H61602  10.293   7.515   7.557 -0.1231 -0.7825  1.0007
  467MOL0     H61603  10.387   7.663   7.523 -0.3222  2.0882  1.8693
  467MOL0     H61604  10.258   7.589   7.780 -0.7648  3.3210  0.5134
  467MOL0     H61605  10.392   7.717   7.753  2.5080 -0.0269  0.1711
  467MOL0     H61606  10.637   7.378   7.787 -1.2691  1.8596 -0.8337
  467MOL0     H61607  10.703   7.270   8.001  0.7907  0.1538 -2.1326
  467MOL0     H61608  10.683   7.469   8.475  1.0167 -1.3495 -1.0734
  467MOL0     H61609  10.687   7.473   8.714  3.8048 -0.7939 -2.8379
  467MOL0     H61610  10.622   7.469   8.929 -0.8352  0.3161  2.0066
  467MOL0     H61611  10.759   7.351   8.905 -0.6238 -2.1865 -0.3972
  467MOL0     H61612  10.543   7.303   9.107  0.8455 -4.0681 -4.0403
  467MOL0     H61613  10.649   7.442   9.143  0.3899  0.5906 -1.4190
  467MOL0     H61614  10.832   7.285   9.132  0.3862 -2.6018 -4.1637
  467MOL0     H61615  10.738   7.142   9.088 -0.7890 -0.5249 -0.5403
  467MOL0     H61616  10.781   7.114   9.314 -0.2477 -0.6195 -3.0490
  467MOL0     H61617  10.747   7.267   9.375  1.2452 -1.9121  1.1081
  467MOL0     H61618  10.564   7.048   9.268 -3.0938  0.6167 -0.2836
  467MOL0     H61619  10.510   7.218   9.284  1.1483  1.4538  2.3750
  467MOL0     H61620  10.534   7.201   9.515 -3.9149  1.2194 -4.0680
  467MOL0     H61621  10.670   7.074   9.492  0.7619  0.3739 -0.5527
  467MOL0     H61622  10.366   7.038   9.473  0.1566  0.9207  0.9782
  467MOL0     H61623  10.475   6.918   9.443 -1.1542  0.1230  0.7673
  467MOL0     H61624  10.402   6.907   9.684 -0.1389 -0.0476  2.8345
  467MOL0     H61625  10.490   7.068   9.705  3.4734  0.6750 -0.9097
  467MOL0     H61626  10.435   7.117   8.743 -1.7770  3.0435  3.1643
  467MOL0     H61627  10.388   7.170   8.492  2.8093 -1.0605  0.0249
  467MOL0     H61628  10.426   7.529   8.201 -2.5713 -1.3087  0.3871
  467MOL0     H61629  10.370   7.631   7.990  1.0242  0.9563  0.9003
  467MOL0     H61630  10.170   7.550   6.393 -0.6578  0.7742  0.4405
  467MOL0     H61631  10.390   7.450   6.443 -1.8840 -1.0692  0.7867
  467MOL0     H61632  10.729   7.313   6.536  1.4766  1.7289 -0.5723
  467MOL0     H61633  10.892   7.148   6.564  4.1581  0.2117  0.3266
  467MOL0     H61634  11.219   7.018   6.656  0.1755 -1.9279 -3.1878
  467MOL0     H61635  11.115   7.090   6.552 -0.0058  0.2525  0.3885
  467MOL0     H61636  10.950   6.921   6.598  0.1108 -0.3932  0.2703
  467MOL0     H61637  11.098   6.830   6.605 -2.9416 -3.2006  1.4266
  467MOL0     H61638  10.980   6.941   6.863 -1.4255 -2.0353  1.2107
  467MOL0     H61639  11.111   6.817   6.838  0.4209 -1.0848 -1.0211
  467MOL0     H61640  10.814   6.783   6.756  2.0109 -0.2222 -2.2026
  467MOL0     H61641  10.936   6.661   6.750 -1.7264 -1.6044  1.6743
  467MOL0     H61642  10.770   6.657   7.135  2.9970 -0.6566  0.9063
  467MOL0     H61643  10.986   7.272   6.956 -0.0994 -3.9668  0.8195
  467MOL0     H61644  10.800   7.446   6.941  4.8018  0.8832 -0.4173
  468MOL0     O61645   0.443   8.404   4.140  0.3066 -0.4079 -0.4366
  468MOL0     C61646   0.428   8.452   4.258  0.3645 -0.0998  1.2943
  468MOL0     O61647   0.518   8.523   4.324  0.0746  0.0697  0.4041
  468MOL0     C61648   0.641   8.545   4.262  0.5084 -0.1853 -0.4389
  468MOL0     C61649   0.726   8.442   4.228  0.4273  0.2001 -0.9519
  468MOL0     C61650   0.852   8.472   4.167 -0.0977  0.1376 -0.4604
  468MOL0     C61651   0.894   8.594   4.144 -0.1826 -0.0153 -0.3842
  468MOL0     O61652   1.010   8.608   4.074 -0.6167  0.4972  0.6229
  468MOL0     C61653   1.006   8.709   3.966 -0.4028 -0.0913 -0.1746
  468MOL0     C61654   1.127   8.676   3.884  0.2591  0.8268  0.9265
  468MOL0     C61655   1.141   8.778   3.759 -0.0236  0.2593  0.4184
  468MOL0     C61656   1.097   8.924   3.778 -0.5549  0.0022  0.5058
  468MOL0     C61657   1.163   9.019   3.675  0.2142 -0.6384 -0.1133
  468MOL0     C61658   1.169   8.971   3.521  0.7279 -0.8908 -0.0435
  468MOL0     C61659   1.038   8.949   3.456  0.4256 -0.7389 -0.7058
  468MOL0     C61660   1.035   8.893   3.317  0.4636  0.4579  0.1410
  468MOL0     N61661   1.113   8.970   3.215  0.3614  0.0827 -0.6193
  468MOL0     C61662   1.185   8.926   3.114 -0.7601  0.7677  0.1029
  468MOL0     C61663   1.218   9.032   3.049  0.3921 -0.4285 -0.1108
  468MOL0     C61664   1.290   9.032   2.919 -0.0238 -0.0251  0.3684
  468MOL0     C61665   1.442   9.061   2.923  0.5125 -0.1289  0.0579
  468MOL0     C61666   1.498   9.062   2.776  0.3042 -1.2568 -0.4514
  468MOL0     C61667   1.637   9.100   2.790  1.0316 -0.0742 -0.3863
  468MOL0     O61668   1.712   9.000   2.861  0.0077  0.1460 -0.6593
  468MOL0     C61669   1.842   9.036   2.881  0.7320 -0.0925 -1.3075
  468MOL0     C61670   1.927   8.987   2.788  0.4420 -0.0347  0.4211
  468MOL0     C61671   2.064   9.011   2.794 -0.4337  0.1217  0.2763
  468MOL0     C61672   2.119   9.071   2.912 -0.1275 -0.1789 -0.3654
  468MOL0     C61673   2.263   9.088   2.934 -0.4105 -0.1056 -0.1591
  468MOL0     O61674   2.337   9.024   2.840 -0.2826  0.2181  0.1323
  468MOL0     C61675   2.475   9.015   2.860 -0.6359  0.1034 -0.3599
  468MOL0     C61676   2.521   8.928   2.964 -0.1961 -0.0619  0.5297
  468MOL0     C61677   2.654   8.895   2.984 -0.4863 -0.0909  1.0030
  468MOL0     C61678   2.746   8.946   2.889  0.1905  0.1574  0.3739
  468MOL0     O61679   2.879   8.905   2.905 -0.3887 -0.5704  0.0863
  468MOL0     C61680   2.984   9.009   2.884 -0.3250 -0.8720  0.3649
  468MOL0     C61681   3.108   9.004   2.987 -0.0058  0.2184  0.5477
  468MOL0     C61682   3.214   9.101   2.930  0.4143  0.6485  0.9757
  468MOL0     C61683   3.353   9.077   3.005  1.0043 -0.0492  0.0691
  468MOL0     C61684   3.461   9.163   2.928  0.3242  0.8544  1.7086
  468MOL0     C61685   3.586   9.176   3.019  0.3758 -0.4898 -0.5202
  468MOL0     C61686   3.640   9.047   3.070 -0.2247  0.6991  0.4830
  468MOL0     C61687   3.782   9.065   3.126  0.3677  0.6176 -0.0031
  468MOL0    Cl61688   3.859   8.906   3.162  0.3283  0.0802 -0.4174
  468MOL0     C61689   2.703   9.017   2.772  0.6951 -0.4440 -0.1301
  468MOL0     C61690   2.566   9.050   2.760 -0.7580  0.4963 -0.0866
  468MOL0     O61691   2.304   9.146   3.036  0.2637  0.0317 -0.3746
  468MOL0     C61692   2.028   9.123   3.010 -0.4432  0.9918 -0.1656
  468MOL0     C61693   1.893   9.098   3.001 -0.0062 -0.0851  0.9032
  468MOL0     N61694   1.177   9.143   3.121 -0.1235 -0.2145 -0.6827
  468MOL0     N61695   1.112   9.103   3.220 -0.9292  0.0732 -0.6568
  468MOL0     C61696   0.816   8.697   4.190  0.0796 -0.8626  1.0225
  468MOL0     C61697   0.687   8.675   4.248 -0.2961 -0.4013  0.1275
  468MOL0     C61698   0.301   8.433   4.336 -0.0015 -1.3610  0.1948
  468MOL0     C61699   0.242   8.537   4.414  0.1716 -0.1068 -0.9565
  468MOL0     C61700   0.120   8.520   4.482 -0.0556  0.4021 -0.6757
  468MOL0     C61701   0.060   8.399   4.489 -0.0070 -0.2932 -0.6566
  468MOL0     O61702  -0.057   8.385   4.554 -0.1431 -0.0248 -0.2433
  468MOL0     C61703  -0.145   8.265   4.533  0.5077 -0.4219 -0.2988
  468MOL0     C61704  -0.201   8.260   4.390 -1.1472 -0.5448 -0.0171
  468MOL0     C61705  -0.315   8.160   4.375  0.3767  0.8467 -0.0161
  468MOL0     C61706  -0.451   8.225   4.342  0.2129  0.0635 -0.0982
  468MOL0     C61707  -0.517   8.271   4.467 -1.3515  0.2485  0.2388
  468MOL0     C61708  -0.568   8.301   4.567 -0.1985 -0.4116  0.0075
  468MOL0     C61709   0.123   8.294   4.416  0.4916 -1.3492  0.5998
  468MOL0     C61710   0.244   8.306   4.342  0.4314 -0.8564  0.2232
  468MOL0     H61711   0.697   8.338   4.229  1.1314 -0.0143 -1.6869
  468MOL0     H61712   0.907   8.390   4.122 -0.9553 -1.6974  1.6331
  468MOL0     H61713   1.027   8.804   4.015 -2.4468 -0.8909  2.4598
  468MOL0     H61714   0.916   8.705   3.905 -1.0463  0.2062  0.7378
  468MOL0     H61715   1.127   8.577   3.837  3.1359  1.1551  0.0076
  468MOL0     H61716   1.216   8.675   3.947  1.7530 -0.2704 -1.0544
  468MOL0     H61717   1.079   8.737   3.679 -1.1062  2.3141  0.1291
  468MOL0     H61718   1.248   8.785   3.739 -0.0845 -0.2600 -0.1081
  468MOL0     H61719   0.989   8.926   3.763 -1.1269 -0.5945  3.8122
  468MOL0     H61720   1.102   8.963   3.880 -0.1651  0.6468  0.2478
  468MOL0     H61721   1.265   9.043   3.705  0.2548  1.3445 -1.6331
  468MOL0     H61722   1.108   9.113   3.682 -1.3540 -1.5929  1.1053
  468MOL0     H61723   1.224   8.876   3.515 -0.9439 -1.9485  0.5653
  468MOL0     H61724   1.224   9.046   3.465 -3.4818  5.0744  2.7302
  468MOL0     H61725   0.978   8.877   3.511 -1.1585 -0.2527 -1.7436
  468MOL0     H61726   0.976   9.038   3.460 -0.4131 -1.3540  0.2984
  468MOL0     H61727   0.931   8.882   3.285  0.5541 -0.2294  0.0831
  468MOL0     H61728   1.073   8.791   3.325 -0.4052  0.0507 -0.7827
  468MOL0     H61729   1.190   8.821   3.089  1.3751  0.9822 -0.5645
  468MOL0     H61730   1.247   9.113   2.860  2.1714  0.8788 -0.0744
  468MOL0     H61731   1.282   8.937   2.865  1.6802  1.0271 -1.9037
  468MOL0     H61732   1.502   8.995   2.986  2.0755  0.4399 -0.7680
  468MOL0     H61733   1.448   9.165   2.958 -2.0161  0.1740 -0.2015
  468MOL0     H61734   1.481   8.964   2.731 -2.7696 -1.2933  0.5434
  468MOL0     H61735   1.443   9.142   2.725 -1.5290  0.3024  3.5091
  468MOL0     H61736   1.646   9.188   2.854  0.5790 -1.8515  2.2901
  468MOL0     H61737   1.681   9.135   2.696 -0.5240  0.3170 -0.9930
  468MOL0     H61738   1.874   8.959   2.698 -0.8678  1.8960  0.5412
  468MOL0     H61739   2.125   8.975   2.711 -0.9556  0.4416 -0.2521
  468MOL0     H61740   2.447   8.888   3.033  0.4776  0.7305  1.7613
  468MOL0     H61741   2.689   8.835   3.067 -0.5177 -0.7310  0.5656
  468MOL0     H61742   2.947   9.112   2.880  2.5764  0.2318 -0.7458
  468MOL0     H61743   3.040   8.999   2.791  0.7178  3.2431  0.3771
  468MOL0     H61744   3.148   8.903   2.996 -1.6962 -0.4227  1.1064
  468MOL0     H61745   3.077   9.045   3.083 -1.1119 -1.5687  0.9815
  468MOL0     H61746   3.170   9.200   2.932  0.9315  1.1591 -3.3257
  468MOL0     H61747   3.233   9.087   2.823  0.2650  3.2751  0.5531
  468MOL0     H61748   3.343   9.100   3.112  0.2996  0.5019 -0.1088
  468MOL0     H61749   3.377   8.971   2.994  0.2477 -0.2218 -0.0045
  468MOL0     H61750   3.420   9.261   2.902 -0.1630  0.4814  1.0656
  468MOL0     H61751   3.489   9.107   2.839 -1.0814 -2.0693  2.9997
  468MOL0     H61752   3.563   9.240   3.104  1.8017 -0.6393 -0.0001
  468MOL0     H61753   3.656   9.229   2.954 -0.4307 -1.3097 -2.1263
  468MOL0     H61754   3.568   9.012   3.144 -0.4764 -0.1064 -0.1257
  468MOL0     H61755   3.642   8.972   2.990  2.3202 -0.1705  1.2429
  468MOL0     H61756   3.781   9.129   3.215  2.0108  0.1996  0.3560
  468MOL0     H61757   3.845   9.130   3.065  1.3302  1.0100  1.3679
  468MOL0     H61758   2.768   9.045   2.691  1.3420  0.4576  0.6876
  468MOL0     H61759   2.535   9.102   2.670  2.2820 -0.6849 -1.9626
  468MOL0     H61760   2.062   9.162   3.105  2.2737 -2.6260  0.6018
  468MOL0     H61761   1.830   9.126   3.084 -1.1228 -1.6769  0.6320
  468MOL0     H61762   0.847   8.796   4.159  0.4926 -1.4591 -0.6142
  468MOL0     H61763   0.621   8.755   4.281  1.0099  0.9316 -0.3683
  468MOL0     H61764   0.281   8.639   4.413  1.5479 -0.6129 -1.3182
  468MOL0     H61765   0.086   8.605   4.542  2.5805  0.7467  0.4693
  468MOL0     H61766  -0.226   8.278   4.606 -0.5000 -1.0322 -1.2701
  468MOL0     H61767  -0.106   8.168   4.563 -0.3530 -0.0022  2.4735
  468MOL0     H61768  -0.245   8.356   4.364 -4.0320 -1.6410  0.4718
  468MOL0     H61769  -0.119   8.255   4.318  1.8901  2.9163  2.7833
  468MOL0     H61770  -0.331   8.107   4.469 -0.7275  3.1699  1.1672
  468MOL0     H61771  -0.277   8.091   4.298  4.5052  1.9155  0.8773
  468MOL0     H61772  -0.448   8.317   4.284  1.5587  0.0206 -0.1149
  468MOL0     H61773  -0.517   8.150   4.295 -0.6003  0.6095  0.1454
  468MOL0     H61774  -0.619   8.316   4.660 -1.0460 -2.9531  0.0250
  468MOL0     H61775   0.076   8.197   4.430 -1.6926 -0.7375 -1.7825
  468MOL0     H61776   0.287   8.225   4.284 -0.6035 -1.0293 -0.3132
  469MOL0     O61777   7.329  10.236   7.571 -0.2589 -0.0213  0.7798
  469MOL0     C61778   7.331  10.141   7.487 -0.3141 -0.3184 -0.4611
  469MOL0     O61779   7.267  10.133   7.365 -0.6713 -0.0776 -0.1200
  469MOL0     C61780   7.208  10.247   7.317 -0.6404 -0.2194  0.1932
  469MOL0     C61781   7.070  10.243   7.288  0.0733  0.5999 -0.6967
  469MOL0     C61782   7.017  10.356   7.223 -0.0386  1.1287 -0.6211
  469MOL0     C61783   7.084  10.473   7.204 -0.9091  0.5263  0.5358
  469MOL0     O61784   7.046  10.582   7.140  0.6313 -0.7634 -0.3403
  469MOL0     C61785   6.914  10.626   7.124 -0.2233  0.1796 -1.0903
  469MOL0     C61786   6.877  10.594   6.989  0.3147  0.2984  0.1592
  469MOL0     C61787   6.737  10.655   6.962 -0.5532  0.0946 -0.6910
  469MOL0     C61788   6.735  10.798   6.911  0.4017  0.0781  0.2734
  469MOL0     C61789   6.666  10.818   6.772 -0.3380  0.2464  0.3531
  469MOL0     C61790   6.651  10.966   6.733  0.0191  0.4506  0.8440
  469MOL0     C61791   6.617  10.980   6.585 -0.0985 -0.2062  0.2486
  469MOL0     C61792   6.465  10.957   6.569  0.2644  0.6536  0.3969
  469MOL0     N61793   6.385  11.053   6.639  0.3282 -0.1532  0.0053
  469MOL0     C61794   6.391  11.191   6.659  0.1631 -1.1271  0.5424
  469MOL0     C61795   6.277  11.230   6.713  0.4931  0.8660 -0.3955
  469MOL0     C61796   6.241  11.364   6.766  0.2368  0.4596  0.7746
  469MOL0     C61797   6.104  11.336   6.833 -0.2779  0.0638 -0.1396
  469MOL0     C61798   6.036  11.465   6.880 -0.3546 -0.3594 -0.9656
  469MOL0     C61799   5.876  11.441   6.899 -0.2092 -1.2794  0.4367
  469MOL0     O61800   5.819  11.399   6.781 -0.5678  0.1125  0.3223
  469MOL0     C61801   5.682  11.418   6.776 -0.0695  0.2741 -0.4421
  469MOL0     C61802   5.592  11.441   6.887  0.9039 -0.2229  1.0621
  469MOL0     C61803   5.451  11.446   6.857  1.3176 -0.7334 -0.3510
  469MOL0     C61804   5.400  11.440   6.727  0.6711  0.3611  0.0409
  469MOL0     C61805   5.253  11.460   6.692 -0.2116 -0.3092  0.6167
  469MOL0     O61806   5.199  11.396   6.580 -0.5975  0.0072  0.2669
  469MOL0     C61807   5.068  11.404   6.547  0.2233  0.2540  0.5523
  469MOL0     C61808   5.007  11.291   6.496  0.3173 -0.3831  0.0262
  469MOL0     C61809   4.875  11.300   6.453 -0.0458 -0.8652  0.0263
  469MOL0     C61810   4.805  11.413   6.454 -0.3320 -0.1623  0.2968
  469MOL0     O61811   4.680  11.405   6.405  0.1441 -0.0638  0.3794
  469MOL0     C61812   4.596  11.515   6.437  0.3673 -0.1167  0.7690
  469MOL0     C61813   4.452  11.496   6.391 -0.2367 -0.6150 -0.9201
  469MOL0     C61814   4.353  11.616   6.412 -0.0422 -0.7756 -0.5251
  469MOL0     C61815   4.223  11.576   6.339  0.0824 -0.3285  0.8235
  469MOL0     C61816   4.144  11.694   6.289 -0.0398  0.2253 -0.2404
  469MOL0     C61817   4.020  11.657   6.201  0.5998 -0.9212  0.5168
  469MOL0     C61818   3.960  11.780   6.137 -0.2865 -0.0549 -0.1027
  469MOL0     C61819   3.820  11.815   6.175  0.7714 -0.7608  0.2376
  469MOL0    Cl61820   3.809  11.846   6.354 -0.0629  0.0984 -0.3005
  469MOL0     C61821   4.870  11.527   6.503 -1.0959 -0.1685  0.3453
  469MOL0     C61822   5.006  11.528   6.548  0.2198 -0.6745  0.3281
  469MOL0     O61823   5.189  11.519   6.775  0.0460 -0.0492 -0.7243
  469MOL0     C61824   5.484  11.411   6.627 -0.0491  0.3453  0.1675
  469MOL0     C61825   5.622  11.391   6.648  0.2265 -0.2877 -1.0519
  469MOL0     N61826   6.213  11.101   6.732  0.6136 -1.0953 -0.2183
  469MOL0     N61827   6.267  11.007   6.684 -0.6250  0.2632  0.3014
  469MOL0     C61828   7.223  10.471   7.227 -1.2425  0.9789  0.6047
  469MOL0     C61829   7.283  10.362   7.293  0.1900 -0.1237 -0.7460
  469MOL0     C61830   7.418  10.031   7.540  0.0867  0.0202  1.0238
  469MOL0     C61831   7.463   9.938   7.447  0.3764  0.1823  0.4144
  469MOL0     C61832   7.545   9.827   7.486  0.3076 -1.0033  0.4418
  469MOL0     C61833   7.571   9.816   7.622 -0.0352  0.1883  0.3288
  469MOL0     O61834   7.644   9.701   7.656  0.1668  0.4814 -0.1425
  469MOL0     C61835   7.646   9.659   7.799  0.2915  0.1846  0.0164
  469MOL0     C61836   7.781   9.676   7.870 -0.5877 -0.2713  0.2729
  469MOL0     C61837   7.897   9.631   7.789  0.2018 -0.3590 -0.2657
  469MOL0     C61838   8.021   9.675   7.867  0.1502  0.0986  0.9325
  469MOL0     C61839   8.092   9.573   7.937  0.1713  0.3561  0.5752
  469MOL0     C61840   8.134   9.491   8.007 -0.3102  0.0961 -0.0740
  469MOL0     C61841   7.529   9.912   7.717  0.5647 -0.4103 -0.0597
  469MOL0     C61842   7.458  10.028   7.670 -0.5817  0.8617 -0.7259
  469MOL0     H61843   7.009  10.156   7.312 -0.6441  0.3309 -3.1890
  469MOL0     H61844   6.910  10.362   7.210 -0.0045 -0.1523 -1.7263
  469MOL0     H61845   6.914  10.735   7.135  2.5439  0.1661 -0.2569
  469MOL0     H61846   6.862  10.576   7.207  0.3281  0.6703 -0.4367
  469MOL0     H61847   6.864  10.485   6.984 -2.3504  0.5226  0.4016
  469MOL0     H61848   6.939  10.633   6.908 -1.4985 -0.0259 -1.4617
  469MOL0     H61849   6.671  10.650   7.049  0.5086 -0.7999  0.0957
  469MOL0     H61850   6.678  10.593   6.895 -3.4634 -0.4183  2.1019
  469MOL0     H61851   6.688  10.863   6.985  3.6287  2.4656  0.3894
  469MOL0     H61852   6.836  10.838   6.909  1.0633 -0.9936  4.0892
  469MOL0     H61853   6.568  10.775   6.797  0.1533 -1.2677 -0.2269
  469MOL0     H61854   6.731  10.757   6.709 -1.7813 -0.5390 -0.4286
  469MOL0     H61855   6.743  11.021   6.754  2.0488 -2.1323 -0.6135
  469MOL0     H61856   6.575  10.996   6.807 -0.4293 -0.9175  0.9734
  469MOL0     H61857   6.655  11.075   6.547  1.5271 -1.8270 -2.5908
  469MOL0     H61858   6.681  10.906   6.535  2.2064  1.7745  0.0945
  469MOL0     H61859   6.425  10.862   6.604 -0.1065  1.0250  1.0021
  469MOL0     H61860   6.440  10.965   6.463 -0.0190 -3.3184  0.0138
  469MOL0     H61861   6.465  11.260   6.620 -2.7592  1.4949 -0.7778
  469MOL0     H61862   6.238  11.425   6.675  0.6201  0.4019  0.7168
  469MOL0     H61863   6.322  11.392   6.834 -0.2357  0.6048  1.2818
  469MOL0     H61864   6.113  11.263   6.913 -3.7228  1.0079  1.3182
  469MOL0     H61865   6.032  11.297   6.760  0.3030 -0.1173 -0.6181
  469MOL0     H61866   6.078  11.507   6.972 -3.2842  1.3330 -0.2709
  469MOL0     H61867   6.040  11.536   6.797 -2.8935  1.7031  0.5339
  469MOL0     H61868   5.832  11.538   6.921 -0.8177 -1.5044  0.2149
  469MOL0     H61869   5.859  11.374   6.983  1.8839 -2.9021 -0.3196
  469MOL0     H61870   5.639  11.462   6.983  2.3895  1.7626 -0.0229
  469MOL0     H61871   5.375  11.472   6.931 -0.1287 -2.1458 -1.2861
  469MOL0     H61872   5.065  11.202   6.477  0.1582 -0.2278 -1.3126
  469MOL0     H61873   4.819  11.213   6.420  3.2671 -2.1877 -2.7314
  469MOL0     H61874   4.625  11.609   6.390 -0.0572 -0.6995 -0.7329
  469MOL0     H61875   4.595  11.521   6.546  1.7644 -0.3030  0.8145
  469MOL0     H61876   4.406  11.411   6.442 -4.3610  2.4014  0.9773
  469MOL0     H61877   4.444  11.473   6.284 -1.9104  0.0441 -0.9650
  469MOL0     H61878   4.399  11.705   6.369  0.2487  0.4024  2.0490
  469MOL0     H61879   4.346  11.646   6.517  0.3970  1.4703 -1.0877
  469MOL0     H61880   4.257  11.522   6.250 -0.2555  2.4632 -1.1401
  469MOL0     H61881   4.153  11.524   6.406  0.6912 -1.0391  0.9149
  469MOL0     H61882   4.218  11.753   6.235  2.3486 -1.2277  1.2733
  469MOL0     H61883   4.105  11.743   6.380  0.2833 -1.5209  0.8800
  469MOL0     H61884   3.939  11.613   6.261 -1.1908  0.5215 -0.7243
  469MOL0     H61885   4.040  11.583   6.123 -0.6618  0.1481 -0.8710
  469MOL0     H61886   4.025  11.864   6.160 -0.1367 -0.7966  2.4012
  469MOL0     H61887   3.958  11.759   6.029 -2.0256 -4.1390  0.5430
  469MOL0     H61888   3.759  11.727   6.153  1.0344 -1.2882  1.5158
  469MOL0     H61889   3.786  11.900   6.117 -1.0580 -1.4697  0.2192
  469MOL0     H61890   4.826  11.626   6.503 -1.3880 -0.0736  4.9832
  469MOL0     H61891   5.041  11.617   6.599 -0.1144  0.2956 -1.0529
  469MOL0     H61892   5.444  11.380   6.531 -0.6541 -0.5776  0.6948
  469MOL0     H61893   5.689  11.359   6.570 -1.0985  1.7132 -3.1522
  469MOL0     H61894   7.276  10.562   7.204 -0.6825  0.0590 -2.0615
  469MOL0     H61895   7.389  10.357   7.316 -0.2115 -0.3171  1.2444
  469MOL0     H61896   7.438   9.959   7.343 -0.2477 -0.0496  0.5164
  469MOL0     H61897   7.584   9.758   7.411  0.0527 -0.1989 -0.4633
  469MOL0     H61898   7.633   9.551   7.796  3.8550 -0.4528  2.0646
  469MOL0     H61899   7.559   9.700   7.851  1.8873  2.7052  0.9267
  469MOL0     H61900   7.800   9.779   7.903  2.2726 -1.5113  3.0768
  469MOL0     H61901   7.780   9.630   7.970 -2.4375  1.4301  1.1358
  469MOL0     H61902   7.893   9.679   7.691 -0.2117  1.2556  0.5084
  469MOL0     H61903   7.898   9.521   7.789  1.0853 -0.3608  0.2596
  469MOL0     H61904   8.097   9.718   7.802 -0.1626 -0.1133  0.4218
  469MOL0     H61905   7.996   9.756   7.936 -1.2795  2.2952 -1.9522
  469MOL0     H61906   8.181   9.407   8.055 -0.5332 -0.4032 -0.7192
  469MOL0     H61907   7.551   9.907   7.823  1.0810 -0.3262 -0.1617
  469MOL0     H61908   7.444  10.108   7.742  2.2641  1.3606 -0.6197
  470MOL0     O61909   5.450   5.849   4.955  0.4404 -0.7903 -0.0043
  470MOL0     C61910   5.347   5.863   5.021 -0.6208 -0.4817  0.3390
  470MOL0     O61911   5.338   5.885   5.158 -1.2617 -0.5591 -0.0861
  470MOL0     C61912   5.455   5.903   5.229  0.7952  1.2880 -0.4640
  470MOL0     C61913   5.554   5.807   5.227  0.1121 -0.5443 -0.4124
  470MOL0     C61914   5.652   5.807   5.332 -0.5217  0.7945  0.6954
  470MOL0     C61915   5.647   5.902   5.429 -0.4742 -0.2221 -0.3574
  470MOL0     O61916   5.743   5.897   5.526 -0.3004 -0.2253 -0.7845
  470MOL0     C61917   5.850   5.992   5.511  0.6317  0.4422  0.8274
  470MOL0     C61918   5.836   6.103   5.612 -0.3116  0.0233 -0.6279
  470MOL0     C61919   5.952   6.096   5.714  0.1838 -0.3119 -0.1708
  470MOL0     C61920   5.947   5.964   5.798 -0.0886  0.4455  0.2047
  470MOL0     C61921   5.997   5.987   5.941 -0.6557 -0.0592 -0.1243
  470MOL0     C61922   6.147   6.024   5.942  0.3079 -0.8420  0.0057
  470MOL0     C61923   6.197   6.084   6.076  0.0618 -0.0899 -0.1171
  470MOL0     C61924   6.165   5.980   6.188  0.0238 -0.0113  0.2214
  470MOL0     N61925   6.253   6.020   6.295  0.1100  0.1462 -0.0743
  470MOL0     C61926   6.234   6.100   6.406  0.0996 -0.0389 -0.0759
  470MOL0     C61927   6.357   6.121   6.462  0.5365  0.5514  0.1815
  470MOL0     C61928   6.388   6.211   6.576 -0.3528  0.7322 -0.5827
  470MOL0     C61929   6.477   6.153   6.693  0.2037 -0.8859  0.6780
  470MOL0     C61930   6.520   6.247   6.807 -0.3807  0.9796  0.3084
  470MOL0     C61931   6.407   6.310   6.886 -1.0088 -0.2425  0.0456
  470MOL0     O61932   6.338   6.218   6.964  0.2432  0.6598 -0.3347
  470MOL0     C61933   6.390   6.155   7.077 -1.0483 -0.2063 -0.8851
  470MOL0     C61934   6.490   6.215   7.154 -0.0540  0.3208 -0.2660
  470MOL0     C61935   6.557   6.151   7.259  0.0806 -0.4071  0.1995
  470MOL0     C61936   6.522   6.025   7.298  0.2409  0.3285  0.2830
  470MOL0     C61937   6.596   5.955   7.409  0.6415 -0.8172  1.0592
  470MOL0     O61938   6.700   6.020   7.473 -0.0221  0.1116  0.3833
  470MOL0     C61939   6.758   5.956   7.578  0.9777 -0.3199  0.1471
  470MOL0     C61940   6.719   5.993   7.705  0.8231 -0.4768  0.5065
  470MOL0     C61941   6.783   5.934   7.817  0.1135 -0.2669 -0.1807
  470MOL0     C61942   6.863   5.812   7.796  0.7051 -0.3167 -1.2175
  470MOL0     O61943   6.947   5.754   7.887  0.0499  0.3455  0.3937
  470MOL0     C61944   6.894   5.766   8.018 -0.2471 -0.5988  0.8020
  470MOL0     C61945   6.987   5.666   8.098 -0.0145  0.0857  0.1769
  470MOL0     C61946   6.967   5.514   8.064  0.7141 -0.2864 -1.3000
  470MOL0     C61947   6.930   5.414   8.179  0.4654  0.2004  0.0226
  470MOL0     C61948   7.060   5.363   8.249  0.2959  0.2929 -0.4580
  470MOL0     C61949   7.006   5.248   8.341  0.1422 -0.0996  0.5341
  470MOL0     C61950   7.125   5.217   8.430 -0.4728 -0.2556  0.6617
  470MOL0     C61951   7.085   5.103   8.533  0.0589  0.1262 -0.4779
  470MOL0    Cl61952   7.215   5.079   8.665  0.1803  0.1389  0.2340
  470MOL0     C61953   6.887   5.772   7.664  0.7079  0.4406 -0.3167
  470MOL0     C61954   6.836   5.851   7.552 -0.3852  0.0646 -0.6330
  470MOL0     O61955   6.536   5.856   7.443 -0.4324 -0.5438  0.6274
  470MOL0     C61956   6.415   5.964   7.226 -0.3393  0.0543  0.1194
  470MOL0     C61957   6.349   6.026   7.116 -0.2953  0.5879 -0.3027
  470MOL0     N61958   6.452   6.046   6.390 -0.3153 -0.9149 -0.2612
  470MOL0     N61959   6.389   5.996   6.287  0.2262 -0.0725 -0.4930
  470MOL0     C61960   5.553   6.001   5.427 -0.5287 -0.1375  1.4073
  470MOL0     C61961   5.460   5.995   5.326 -0.2172  0.7264 -0.2336
  470MOL0     C61962   5.212   5.843   4.962  0.8741 -0.4511  0.5967
  470MOL0     C61963   5.179   5.783   4.843 -0.3614 -0.3519  0.1656
  470MOL0     C61964   5.049   5.767   4.799  0.6212 -0.3869  1.3423
  470MOL0     C61965   4.943   5.821   4.871 -0.8803 -0.2189  0.1681
  470MOL0     O61966   4.815   5.831   4.816  0.2594  0.3674  0.4891
  470MOL0     C61967   4.759   5.713   4.757 -0.5466 -0.3765 -0.0228
  470MOL0     C61968   4.601   5.711   4.735  0.7086 -0.9423 -0.5674
  470MOL0     C61969   4.559   5.562   4.760  0.9347  0.1350  0.2739
  470MOL0     C61970   4.399   5.550   4.758  0.6357 -0.1333 -0.2665
  470MOL0     C61971   4.346   5.554   4.622  0.4900  0.1951 -0.2255
  470MOL0     C61972   4.294   5.557   4.512 -0.6534 -0.7350 -0.6483
  470MOL0     C61973   4.965   5.893   4.987  0.6128 -0.2282 -0.6995
  470MOL0     C61974   5.100   5.907   5.026 -0.3545  0.3860  0.6986
  470MOL0     H61975   5.541   5.720   5.163 -1.9484  1.8739 -3.6166
  470MOL0     H61976   5.738   5.740   5.330  0.0668  1.5031 -2.2330
  470MOL0     H61977   5.867   6.019   5.406 -1.5611 -2.2214 -0.3395
  470MOL0     H61978   5.942   5.937   5.534  1.5639  2.2708  1.6778
  470MOL0     H61979   5.748   6.107   5.677  0.6960  1.5693  0.7479
  470MOL0     H61980   5.833   6.200   5.561 -0.2489  2.0986  2.9302
  470MOL0     H61981   5.960   6.186   5.775  0.4295 -1.4933  1.6274
  470MOL0     H61982   6.049   6.097   5.663 -0.4135 -1.1751 -1.4058
  470MOL0     H61983   5.843   5.935   5.783  0.4345 -0.6938 -1.5596
  470MOL0     H61984   6.006   5.890   5.743  2.5243  2.1472  0.5215
  470MOL0     H61985   5.994   5.892   5.995  0.7683 -0.3123 -0.4525
  470MOL0     H61986   5.936   6.063   5.990 -2.5606 -1.3432 -0.4047
  470MOL0     H61987   6.173   6.103   5.871 -2.1985 -1.1480 -1.3412
  470MOL0     H61988   6.216   5.946   5.910  1.8060  0.5616 -0.3768
  470MOL0     H61989   6.305   6.103   6.071  0.4584 -2.1745 -0.5666
  470MOL0     H61990   6.155   6.183   6.093 -0.2999 -0.1835 -0.4525
  470MOL0     H61991   6.188   5.881   6.147 -3.0709  0.3626 -2.8889
  470MOL0     H61992   6.059   5.976   6.213  0.0858  0.6003  0.5865
  470MOL0     H61993   6.146   6.153   6.441  1.7337 -0.3318  5.2718
  470MOL0     H61994   6.293   6.239   6.623  0.2113  2.2792 -0.3251
  470MOL0     H61995   6.440   6.297   6.535 -0.4634 -0.5341 -3.6785
  470MOL0     H61996   6.558   6.115   6.631  0.4405 -1.0350  1.0757
  470MOL0     H61997   6.424   6.069   6.738  0.8296 -2.3263 -1.1407
  470MOL0     H61998   6.577   6.190   6.880  1.3196  0.7983 -1.0905
  470MOL0     H61999   6.594   6.315   6.762  1.3488 -1.5155 -0.8331
  470MOL0     H62000   6.335   6.357   6.818  2.0781  1.9765 -1.9677
  470MOL0     H62001   6.454   6.390   6.943  0.0281  0.4115 -1.6365
  470MOL0     H62002   6.523   6.315   7.128  0.0714 -0.1831 -2.2101
  470MOL0     H62003   6.634   6.214   7.303  1.7115  0.2873 -3.2274
  470MOL0     H62004   6.647   6.072   7.726 -1.2595 -2.6917  2.2437
  470MOL0     H62005   6.756   5.979   7.911 -1.7767  0.3514 -0.9793
  470MOL0     H62006   6.789   5.736   8.024 -0.3784 -0.8290 -1.7437
  470MOL0     H62007   6.905   5.866   8.059  2.1022  0.1224 -1.3100
  470MOL0     H62008   6.990   5.685   8.206 -0.2788  2.1013 -0.1379
  470MOL0     H62009   7.081   5.698   8.052  1.0310  0.7300  2.5860
  470MOL0     H62010   7.065   5.478   8.031  2.8657  0.3811  3.5146
  470MOL0     H62011   6.892   5.502   7.986 -2.7580 -0.8973  1.8443
  470MOL0     H62012   6.873   5.454   8.263  2.1314 -0.1337  1.3698
  470MOL0     H62013   6.872   5.334   8.132  1.6406  0.3951 -1.8550
  470MOL0     H62014   7.123   5.431   8.306 -2.4899  1.5631  1.3158
  470MOL0     H62015   7.130   5.320   8.177  2.1157  1.9442  0.2510
  470MOL0     H62016   6.988   5.158   8.282  2.0677  0.8641 -1.7090
  470MOL0     H62017   6.911   5.274   8.390 -1.0715 -0.8447 -1.3258
  470MOL0     H62018   7.212   5.170   8.383 -0.3830  1.1478 -0.6551
  470MOL0     H62019   7.161   5.312   8.472  1.6193  0.8056 -3.0450
  470MOL0     H62020   7.080   5.004   8.487  0.5244 -0.5660  0.8927
  470MOL0     H62021   6.987   5.130   8.574 -0.2547 -1.2299 -0.2605
  470MOL0     H62022   6.954   5.687   7.653 -1.0419 -1.2468  1.2975
  470MOL0     H62023   6.852   5.828   7.447 -1.8976 -0.9900 -0.6719
  470MOL0     H62024   6.394   5.859   7.245  0.6654 -0.7331 -2.5480
  470MOL0     H62025   6.265   5.968   7.079 -0.2347  1.7969 -2.5005
  470MOL0     H62026   5.552   6.087   5.493 -0.4431 -1.9805  3.9574
  470MOL0     H62027   5.395   6.081   5.336 -1.0129  0.1375 -0.2520
  470MOL0     H62028   5.259   5.761   4.772 -1.1249 -0.8386 -0.5670
  470MOL0     H62029   5.031   5.714   4.706  0.1006  1.5619  0.2660
  470MOL0     H62030   4.789   5.638   4.832  2.0121  0.3576 -0.1949
  470MOL0     H62031   4.802   5.693   4.659 -0.8773  1.2565 -0.5302
  470MOL0     H62032   4.560   5.779   4.810 -3.0819  0.7606 -3.8468
  470MOL0     H62033   4.566   5.745   4.638  0.1699  2.8663  0.8076
  470MOL0     H62034   4.597   5.529   4.857  1.6512  3.8150  1.4150
  470MOL0     H62035   4.607   5.499   4.685 -0.2521 -2.4564  1.5351
  470MOL0     H62036   4.370   5.449   4.790 -0.3167 -0.1295 -1.0609
  470MOL0     H62037   4.359   5.622   4.830  1.7211  1.7628 -1.4699
  470MOL0     H62038   4.235   5.570   4.424 -1.1810  0.6600 -0.1102
  470MOL0     H62039   4.884   5.956   5.024 -1.8194 -1.6862 -3.1843
  470MOL0     H62040   5.133   5.984   5.095  1.7888  2.1494 -2.0660
  471MOL0     O62041   8.961   1.955   2.492  0.1383  0.2801  0.2400
  471MOL0     C62042   9.064   1.887   2.514 -0.9054 -0.4244  0.3932
  471MOL0     O62043   9.091   1.759   2.469  0.3467  0.7657 -0.5633
  471MOL0     C62044   8.996   1.689   2.406  0.0826 -0.0187 -0.8341
  471MOL0     C62045   9.027   1.601   2.299 -0.2123  0.2289  0.1697
  471MOL0     C62046   8.923   1.531   2.237  0.1079 -0.0957 -0.4774
  471MOL0     C62047   8.788   1.550   2.272 -0.1990 -0.3816 -0.3423
  471MOL0     O62048   8.684   1.485   2.212  0.0060  0.4431  0.3694
  471MOL0     C62049   8.697   1.343   2.197 -0.9428  0.3972  0.9147
  471MOL0     C62050   8.591   1.293   2.102 -0.5895 -1.1273 -0.6233
  471MOL0     C62051   8.594   1.140   2.084 -0.1284  0.1299  0.8049
  471MOL0     C62052   8.488   1.103   1.988  0.4443 -0.8146 -0.1413
  471MOL0     C62053   8.452   0.955   1.962 -0.9879  0.1585  0.4578
  471MOL0     C62054   8.381   0.936   1.830 -0.8261  0.6908 -0.0639
  471MOL0     C62055   8.382   0.792   1.775 -0.3432 -1.4335 -0.1172
  471MOL0     C62056   8.305   0.778   1.644  0.2845  0.2578  0.6360
  471MOL0     N62057   8.311   0.880   1.535 -0.5019  0.1550  0.6457
  471MOL0     C62058   8.434   0.920   1.488 -0.4145  0.2539 -0.3228
  471MOL0     C62059   8.405   1.030   1.412  0.0328  0.0444 -0.4869
  471MOL0     C62060   8.495   1.102   1.315  0.0929 -0.1698  1.0818
  471MOL0     C62061   8.598   1.191   1.386  0.4686  0.7768  0.3460
  471MOL0     C62062   8.723   1.117   1.437  0.0572 -0.2184 -0.3942
  471MOL0     C62063   8.821   1.208   1.497  0.2231 -0.9498 -0.2891
  471MOL0     O62064   8.744   1.274   1.606 -0.0853 -0.0694  0.8847
  471MOL0     C62065   8.789   1.386   1.676  1.1486  0.1239  0.7032
  471MOL0     C62066   8.699   1.441   1.763 -0.1351 -0.0399  0.5438
  471MOL0     C62067   8.741   1.556   1.836  0.1622 -0.7638 -0.7852
  471MOL0     C62068   8.861   1.618   1.804 -0.3764  0.6729  0.9148
  471MOL0     C62069   8.891   1.749   1.851 -0.6252 -0.4897 -0.5084
  471MOL0     O62070   9.016   1.802   1.820 -0.0652 -0.1426  0.5788
  471MOL0     C62071   9.066   1.895   1.907  0.2222 -0.3129 -0.0569
  471MOL0     C62072   9.079   1.883   2.049  0.3947  1.2174  0.6484
  471MOL0     C62073   9.150   1.974   2.113  0.1950 -0.0807 -0.4176
  471MOL0     C62074   9.212   2.078   2.043  0.7597 -0.5858 -1.3656
  471MOL0     O62075   9.302   2.162   2.106 -0.6670 -0.7796 -0.2400
  471MOL0     C62076   9.334   2.127   2.245 -0.7271 -0.1730 -0.6877
  471MOL0     C62077   9.391   2.261   2.312 -0.4907 -0.6916  0.0257
  471MOL0     C62078   9.496   2.326   2.230 -0.3662 -0.4269 -0.2938
  471MOL0     C62079   9.564   2.445   2.305  0.5357 -0.1830  0.5374
  471MOL0     C62080   9.663   2.521   2.237  0.4390  0.2328 -0.5803
  471MOL0     C62081   9.739   2.615   2.340  0.1141 -1.0950  0.4434
  471MOL0     C62082   9.840   2.711   2.269  0.5109  0.4958 -0.0464
  471MOL0     C62083   9.980   2.692   2.329  1.0306  0.6779  0.0070
  471MOL0    Cl62084   9.981   2.748   2.501  0.1192 -0.3876 -0.1063
  471MOL0     C62085   9.200   2.093   1.904 -0.2370  0.0911 -0.1075
  471MOL0     C62086   9.119   2.006   1.839  0.4667  0.0942  0.3119
  471MOL0     O62087   8.803   1.805   1.925  0.4889  0.5123 -0.0815
  471MOL0     C62088   8.947   1.562   1.711 -1.0880  0.3953  0.2433
  471MOL0     C62089   8.909   1.444   1.649 -0.8890  0.4693  0.0148
  471MOL0     N62090   8.267   1.053   1.421 -0.3049  0.8969 -0.1457
  471MOL0     N62091   8.205   0.951   1.482 -0.0142 -0.7458  0.5365
  471MOL0     C62092   8.762   1.630   2.385  0.0998  0.2048  0.1720
  471MOL0     C62093   8.865   1.684   2.456  0.1063  0.0518  0.7894
  471MOL0     C62094   9.181   1.943   2.580  0.5434 -0.5931 -0.6640
  471MOL0     C62095   9.305   1.877   2.563 -0.4442 -0.0929  0.2591
  471MOL0     C62096   9.427   1.931   2.624  0.3895  0.3729 -1.0728
  471MOL0     C62097   9.421   2.050   2.692 -0.3548 -0.1287 -0.9494
  471MOL0     O62098   9.538   2.100   2.735  0.1817  0.0888 -0.8561
  471MOL0     C62099   9.546   2.204   2.837  1.4882 -0.2735  0.4506
  471MOL0     C62100   9.529   2.138   2.969  0.5112  0.4659 -0.2861
  471MOL0     C62101   9.625   2.199   3.069 -0.0354  0.4035 -0.0222
  471MOL0     C62102   9.655   2.074   3.162  1.2663 -0.1627  0.5723
  471MOL0     C62103   9.709   2.108   3.297  0.3104 -0.5286  0.4518
  471MOL0     C62104   9.737   2.119   3.415 -0.0146 -0.3086  1.2378
  471MOL0     C62105   9.299   2.114   2.705 -0.2730 -0.2758  0.3677
  471MOL0     C62106   9.185   2.059   2.662  0.0382  0.3739 -0.3126
  471MOL0     H62107   9.124   1.590   2.254 -0.8792 -0.3923 -1.1663
  471MOL0     H62108   8.939   1.462   2.155 -5.1246  0.8162 -2.6274
  471MOL0     H62109   8.684   1.271   2.278  1.9897 -1.2012  0.1094
  471MOL0     H62110   8.796   1.321   2.156 -1.0867  1.3091  0.0267
  471MOL0     H62111   8.601   1.345   2.007  0.6175  1.4502  0.8055
  471MOL0     H62112   8.497   1.333   2.142  0.5516  0.3825  0.6912
  471MOL0     H62113   8.581   1.102   2.186 -0.2705 -3.2496 -0.3452
  471MOL0     H62114   8.689   1.096   2.052 -1.7562 -4.1630  1.1567
  471MOL0     H62115   8.393   1.147   2.018  0.0122  0.3533 -2.9123
  471MOL0     H62116   8.519   1.139   1.889  1.3648 -2.6847 -0.5831
  471MOL0     H62117   8.384   0.919   2.040 -1.6669  0.7146  0.1258
  471MOL0     H62118   8.546   0.900   1.954 -1.8075 -0.9413 -3.0836
  471MOL0     H62119   8.428   1.005   1.760  2.1860 -0.0447  1.0993
  471MOL0     H62120   8.276   0.968   1.839 -0.4023  2.7207 -1.5932
  471MOL0     H62121   8.489   0.777   1.755  0.0982  0.2010  0.8498
  471MOL0     H62122   8.358   0.729   1.861  2.6738 -2.9868 -0.2798
  471MOL0     H62123   8.201   0.789   1.678  0.7714  1.8249  1.6751
  471MOL0     H62124   8.312   0.676   1.603 -1.6470  0.0369  0.7523
  471MOL0     H62125   8.531   0.875   1.506 -0.5386  0.5559  1.2557
  471MOL0     H62126   8.428   1.168   1.258 -1.4618 -2.6071 -0.1028
  471MOL0     H62127   8.544   1.038   1.241  3.1393  1.4870  1.4922
  471MOL0     H62128   8.536   1.230   1.467 -2.9352 -3.5399  0.1860
  471MOL0     H62129   8.634   1.274   1.323  0.6916  1.4520  1.3378
  471MOL0     H62130   8.703   1.037   1.509  1.5477 -3.0368 -2.8947
  471MOL0     H62131   8.780   1.072   1.355 -0.7290  0.7492 -1.5005
  471MOL0     H62132   8.872   1.279   1.431  1.8133 -0.0747  1.7649
  471MOL0     H62133   8.900   1.146   1.540  0.8237  1.1894  1.9558
  471MOL0     H62134   8.600   1.399   1.777  0.8032 -1.8603  2.1120
  471MOL0     H62135   8.663   1.605   1.893  0.6845  0.8215 -1.3724
  471MOL0     H62136   9.048   1.792   2.098  2.1791 -1.9113 -3.3601
  471MOL0     H62137   9.146   1.954   2.219 -3.0519 -1.1752 -0.6301
  471MOL0     H62138   9.407   2.047   2.232 -0.3062 -0.1688  1.3756
  471MOL0     H62139   9.257   2.099   2.318  0.8632 -1.8915  0.4312
  471MOL0     H62140   9.424   2.219   2.407 -0.3209  0.0901  0.3194
  471MOL0     H62141   9.312   2.333   2.334 -0.9291 -1.0972 -0.2202
  471MOL0     H62142   9.464   2.365   2.133 -1.9041  4.3594  1.8641
  471MOL0     H62143   9.571   2.246   2.225  0.7428  0.5906 -0.3975
  471MOL0     H62144   9.483   2.513   2.333 -0.0242 -0.0966 -1.1618
  471MOL0     H62145   9.604   2.398   2.396  2.8471 -1.4763 -1.0259
  471MOL0     H62146   9.617   2.573   2.153  0.4668 -2.2074 -2.2052
  471MOL0     H62147   9.729   2.449   2.187 -1.0681 -1.4849 -0.1762
  471MOL0     H62148   9.788   2.550   2.413  1.0389  1.2069  2.0145
  471MOL0     H62149   9.668   2.669   2.403 -2.9511 -3.2806 -0.9119
  471MOL0     H62150   9.841   2.683   2.163 -3.5535 -4.0188  0.7331
  471MOL0     H62151   9.801   2.811   2.290 -0.9692  0.2328 -1.3199
  471MOL0     H62152  10.047   2.752   2.268  0.1778  0.7484 -0.8903
  471MOL0     H62153  10.015   2.589   2.318 -0.0955  0.4699 -2.3781
  471MOL0     H62154   9.249   2.175   1.852 -2.4393  0.5702 -1.5510
  471MOL0     H62155   9.103   2.001   1.731  3.5645 -0.6045 -0.2290
  471MOL0     H62156   9.043   1.600   1.681 -0.4695 -1.2431  0.0664
  471MOL0     H62157   8.981   1.397   1.582 -0.2217 -0.5756  1.4196
  471MOL0     H62158   8.662   1.617   2.427 -0.1720 -0.2345 -0.5825
  471MOL0     H62159   8.833   1.744   2.540 -1.8010  1.4587 -0.8433
  471MOL0     H62160   9.326   1.800   2.489  0.4563 -1.4704  1.8740
  471MOL0     H62161   9.526   1.887   2.613  0.7349  0.6960  0.5256
  471MOL0     H62162   9.486   2.295   2.827  1.2958 -0.2758  1.4867
  471MOL0     H62163   9.649   2.238   2.830  1.2996  0.1571 -0.3568
  471MOL0     H62164   9.431   2.149   3.017  1.8469 -0.9694  3.0764
  471MOL0     H62165   9.536   2.029   2.960 -0.8102  0.0077  2.7959
  471MOL0     H62166   9.576   2.280   3.124 -1.5916 -1.4631  1.4859
  471MOL0     H62167   9.722   2.232   3.030  0.7859  1.1102  2.4339
  471MOL0     H62168   9.557   2.028   3.177  1.4223  0.0067  2.2809
  471MOL0     H62169   9.721   2.005   3.110 -1.2823 -0.7331 -2.2274
  471MOL0     H62170   9.761   2.141   3.517 -0.8665 -2.7233  2.0186
  471MOL0     H62171   9.295   2.211   2.753  3.2668 -0.5799  1.5766
  471MOL0     H62172   9.092   2.114   2.677 -1.6416 -2.3730  0.1651
  472MOL0     O62173   9.737   8.820  10.754  0.7353  0.3081 -0.0306
  472MOL0     C62174   9.627   8.862  10.795 -0.0601 -0.2800  1.1347
  472MOL0     O62175   9.568   8.812  10.900  0.1709  0.6044 -0.5345
  472MOL0     C62176   9.619   8.690  10.937  0.3528 -0.2052 -0.0661
  472MOL0     C62177   9.690   8.684  11.057  0.0425 -0.7697  0.4268
  472MOL0     C62178   9.729   8.546  11.096  0.0007 -0.2618  0.0114
  472MOL0     C62179   9.701   8.434  11.016  0.0721  0.3004  0.3582
  472MOL0     O62180   9.753   8.318  11.065 -0.6121 -0.2308  0.0791
  472MOL0     C62181   9.742   8.198  10.985 -0.5785  0.2618 -0.6632
  472MOL0     C62182   9.808   8.075  11.058 -0.1823  0.7106 -0.0677
  472MOL0     C62183   9.960   8.064  11.054  0.7929 -0.4518 -0.3171
  472MOL0     C62184  10.022   8.026  10.914 -0.0705  0.1624 -0.6021
  472MOL0     C62185  10.173   8.008  10.919 -0.5331 -0.0917  0.2675
  472MOL0     C62186  10.219   7.912  11.030  0.2883 -0.0966 -0.4116
  472MOL0     C62187  10.358   7.853  10.990  0.4818 -0.8205 -0.8970
  472MOL0     C62188  10.379   7.726  11.067 -0.9397  0.3275  0.2269
  472MOL0     N62189  10.370   7.748  11.214 -0.2947  0.3066  0.3738
  472MOL0     C62190  10.487   7.750  11.283  0.7279 -0.5849 -0.9756
  472MOL0     C62191  10.455   7.753  11.418  0.5195  0.1403  0.2465
  472MOL0     C62192  10.557   7.764  11.525 -0.1178  0.6727  0.4950
  472MOL0     C62193  10.607   7.621  11.569  0.0370 -0.0156 -0.2737
  472MOL0     C62194  10.739   7.627  11.650  0.2337 -0.8853 -0.2293
  472MOL0     C62195  10.786   7.487  11.693  0.5491 -0.7114 -0.0118
  472MOL0     O62196  10.802   7.417  11.568  0.0255 -0.3036  0.3777
  472MOL0     C62197  10.867   7.292  11.584 -0.0494 -0.7421  0.3213
  472MOL0     C62198  10.892   7.228  11.705 -0.3943  0.2900 -1.1043
  472MOL0     C62199  10.959   7.108  11.713 -0.0165  0.8030  0.0219
  472MOL0     C62200  11.011   7.040  11.603  0.4018 -0.2786  1.0099
  472MOL0     C62201  11.094   6.927  11.609  0.2428  0.4941 -0.0916
  472MOL0     O62202  11.136   6.892  11.736 -0.0470 -0.3214 -0.1753
  472MOL0     C62203  11.209   6.776  11.761  0.5373  0.2651 -0.3477
  472MOL0     C62204  11.325   6.735  11.697  0.7120 -0.9157 -1.2327
  472MOL0     C62205  11.375   6.607  11.722  0.7257  0.1331 -0.8996
  472MOL0     C62206  11.309   6.515  11.810  0.1859  0.7792  1.0019
  472MOL0     O62207  11.343   6.383  11.843  0.4801  0.8680 -0.1850
  472MOL0     C62208  11.472   6.325  11.803  0.8828  0.5246  0.5330
  472MOL0     C62209  11.492   6.177  11.858  0.4821 -0.1214 -0.3150
  472MOL0     C62210  11.630   6.132  11.838 -1.0645 -0.3010 -0.6456
  472MOL0     C62211  11.652   6.009  11.920 -0.2246 -0.1838 -0.9219
  472MOL0     C62212  11.802   5.999  11.933  0.3712  0.1167  0.9694
  472MOL0     C62213  11.855   5.889  12.022 -0.4081  0.4307  0.4534
  472MOL0     C62214  12.006   5.870  11.987 -0.0633  0.4559 -0.8076
  472MOL0     C62215  12.080   5.820  12.117 -0.0809 -0.8671 -1.3890
  472MOL0    Cl62216  12.012   5.664  12.165 -0.4839  0.1811 -0.0567
  472MOL0     C62217  11.198   6.562  11.874  0.1411 -0.2123 -0.2392
  472MOL0     C62218  11.147   6.692  11.852 -0.2850 -0.8523 -0.2460
  472MOL0     O62219  11.136   6.865  11.504  0.8871  0.5944  0.5810
  472MOL0     C62220  10.971   7.097  11.473  0.0572  0.4087 -1.0765
  472MOL0     C62221  10.904   7.225  11.471 -0.0413 -0.0315  0.4286
  472MOL0     N62222  10.315   7.748  11.427  0.4497  0.4508  0.6144
  472MOL0     N62223  10.270   7.738  11.300  0.1178  0.2002  0.7752
  472MOL0     C62224   9.647   8.447  10.885 -0.2229  0.1647  0.3712
  472MOL0     C62225   9.597   8.572  10.857 -0.6944 -0.6706  0.4540
  472MOL0     C62226   9.569   8.989  10.731 -0.0480  0.5235  0.0785
  472MOL0     C62227   9.638   9.062  10.642 -0.3794  0.6408  0.4613
  472MOL0     C62228   9.572   9.173  10.580  0.5973 -0.2530 -0.0882
  472MOL0     C62229   9.436   9.198  10.602  0.1419 -0.3828  0.1931
  472MOL0     O62230   9.361   9.295  10.534 -0.0313 -0.2414 -0.5737
  472MOL0     C62231   9.420   9.359  10.425 -0.3611  0.6394 -0.8852
  472MOL0     C62232   9.315   9.357  10.318  0.3815 -0.4053  0.1560
  472MOL0     C62233   9.244   9.218  10.291 -0.5822 -0.2805 -0.1932
  472MOL0     C62234   9.331   9.101  10.245  0.6938  0.3560 -0.8949
  472MOL0     C62235   9.422   9.140  10.141  0.1259  0.3897 -0.3119
  472MOL0     C62236   9.478   9.167  10.035  0.1235  0.0325  0.6837
  472MOL0     C62237   9.365   9.107  10.682  0.2009 -0.4463 -0.6880
  472MOL0     C62238   9.430   9.003  10.754  0.6279  0.2300 -0.0254
  472MOL0     H62239   9.707   8.773  11.117 -1.1254 -2.3276  3.2787
  472MOL0     H62240   9.765   8.530  11.198 -1.5194 -1.3576  0.4177
  472MOL0     H62241   9.789   8.213  10.888  1.8095  0.3475  0.4355
  472MOL0     H62242   9.640   8.166  10.963 -0.8630  0.4641  0.3100
  472MOL0     H62243   9.789   7.977  11.013  3.1667  0.3787 -1.0201
  472MOL0     H62244   9.781   8.076  11.164  1.0951  3.3567  0.3270
  472MOL0     H62245   9.989   7.991  11.129  0.3809  1.8844  2.2607
  472MOL0     H62246   9.990   8.164  11.085 -1.1868  0.2365 -0.4244
  472MOL0     H62247   9.980   7.928  10.890 -3.9975  0.6600  3.0833
  472MOL0     H62248   9.990   8.097  10.836 -0.2941 -1.1425 -1.7281
  472MOL0     H62249  10.218   8.108  10.919  1.0355 -0.7761 -0.4071
  472MOL0     H62250  10.221   7.965  10.831 -0.5115 -1.7150  1.0354
  472MOL0     H62251  10.141   7.835  11.035 -2.5137  2.4796 -1.1820
  472MOL0     H62252  10.220   7.944  11.135  1.5076 -1.8923  0.1826
  472MOL0     H62253  10.372   7.843  10.882  1.2571 -0.1458 -0.8699
  472MOL0     H62254  10.434   7.920  11.031 -0.9870 -0.0315  0.6464
  472MOL0     H62255  10.480   7.690  11.044  0.3116  1.1071  3.8405
  472MOL0     H62256  10.312   7.645  11.038  1.6457 -1.6988 -0.5571
  472MOL0     H62257  10.584   7.751  11.234 -0.3735  2.1975 -3.3620
  472MOL0     H62258  10.498   7.797  11.612  1.3461  0.7968  1.4718
  472MOL0     H62259  10.637   7.834  11.501  1.3230 -1.6139 -1.8017
  472MOL0     H62260  10.621   7.568  11.474  1.8196 -0.5876  0.2799
  472MOL0     H62261  10.527   7.568  11.622  0.5009 -0.7445 -0.2857
  472MOL0     H62262  10.812   7.665  11.578 -1.0183  2.9531  0.2724
  472MOL0     H62263  10.713   7.676  11.744  0.1925 -3.7807  1.3770
  472MOL0     H62264  10.707   7.439  11.750 -3.5770  2.5381 -2.4200
  472MOL0     H62265  10.871   7.497  11.762 -0.1190 -0.9156  0.8560
  472MOL0     H62266  10.853   7.275  11.795  2.8485  0.1440  0.5263
  472MOL0     H62267  10.964   7.073  11.816  0.9194 -0.2893 -0.3828
  472MOL0     H62268  11.368   6.803  11.624 -0.3504 -1.5854 -2.5266
  472MOL0     H62269  11.463   6.576  11.666 -0.0230 -2.1179 -0.9299
  472MOL0     H62270  11.558   6.377  11.848  1.3961 -2.2230  2.9888
  472MOL0     H62271  11.478   6.327  11.694  0.5406 -1.2423  0.4630
  472MOL0     H62272  11.429   6.118  11.791  0.5310 -1.0803  0.4607
  472MOL0     H62273  11.460   6.166  11.962  0.4180  1.1309 -0.1877
  472MOL0     H62274  11.686   6.213  11.886 -2.6824  1.0096 -0.8617
  472MOL0     H62275  11.670   6.102  11.740  3.8900 -1.0423  1.3293
  472MOL0     H62276  11.607   6.018  12.019  3.0422 -3.3507  1.1025
  472MOL0     H62277  11.610   5.924  11.865 -0.3406 -0.9005  0.2455
  472MOL0     H62278  11.836   6.090  11.984  1.3241  0.3731 -0.0731
  472MOL0     H62279  11.837   5.982  11.831 -1.7767 -0.1217  0.2247
  472MOL0     H62280  11.813   5.793  11.992  2.4646 -0.3909 -1.2836
  472MOL0     H62281  11.838   5.910  12.128 -0.4351  0.6040  0.4154
  472MOL0     H62282  12.018   5.803  11.902  0.1873 -0.8162  0.2059
  472MOL0     H62283  12.040   5.972  11.967 -0.1220  0.4308 -1.0324
  472MOL0     H62284  12.061   5.897  12.193  1.3625 -1.0933 -0.7746
  472MOL0     H62285  12.187   5.823  12.096  0.0802  1.7433 -0.6051
  472MOL0     H62286  11.154   6.508  11.957 -1.1506  1.6527  0.3485
  472MOL0     H62287  11.053   6.720  11.899 -1.0127 -1.9747 -1.0001
  472MOL0     H62288  10.991   7.048  11.378 -0.5872 -0.2771 -0.8724
  472MOL0     H62289  10.877   7.275  11.379 -1.6638 -0.4794  0.6260
  472MOL0     H62290   9.638   8.376  10.804 -2.0111  3.9837 -3.1728
  472MOL0     H62291   9.552   8.597  10.762 -2.3611  2.7297  1.9345
  472MOL0     H62292   9.743   9.044  10.619 -0.1415  1.9610  0.3879
  472MOL0     H62293   9.638   9.232  10.516 -1.7405  0.7638 -1.6752
  472MOL0     H62294   9.507   9.311  10.379 -0.4975 -1.0277  0.4870
  472MOL0     H62295   9.456   9.458  10.452  0.6371 -0.5232  2.5224
  472MOL0     H62296   9.242   9.435  10.345 -0.9941 -1.4239 -0.4900
  472MOL0     H62297   9.354   9.394  10.223  0.6875 -1.6751 -0.2344
  472MOL0     H62298   9.179   9.246  10.208  0.1643  0.0403 -0.6766
  472MOL0     H62299   9.189   9.185  10.380  1.6811 -1.9058  0.6922
  472MOL0     H62300   9.387   9.053  10.326  3.6433  4.8836  0.1836
  472MOL0     H62301   9.265   9.030  10.196 -2.0971  1.4363  1.0123
  472MOL0     H62302   9.536   9.198   9.951  0.5207  0.0671  0.9693
  472MOL0     H62303   9.263   9.133  10.707  0.5528  0.3201 -0.0023
  472MOL0     H62304   9.387   8.936  10.827  1.5987 -0.7874 -0.3580
  473MOL0     O62305   4.351   1.600   9.506  0.5685  0.0984 -0.2234
  473MOL0     C62306   4.327   1.488   9.553 -0.7950  0.2827 -0.3074
  473MOL0     O62307   4.416   1.381   9.571 -0.2367 -0.6412  0.1872
  473MOL0     C62308   4.541   1.394   9.509 -0.7387  0.4197 -0.5748
  473MOL0     C62309   4.651   1.429   9.597  0.7768 -0.9591  0.2138
  473MOL0     C62310   4.774   1.452   9.537 -0.4929 -0.3733  1.1402
  473MOL0     C62311   4.796   1.445   9.400 -0.2510  0.2197 -0.2049
  473MOL0     O62312   4.924   1.479   9.352  0.0456 -0.7123 -1.2782
  473MOL0     C62313   4.924   1.573   9.251  0.3856 -0.0342  0.4806
  473MOL0     C62314   4.865   1.708   9.295  0.2948 -0.1370 -0.2660
  473MOL0     C62315   4.707   1.737   9.289 -0.5153  0.7902 -0.0106
  473MOL0     C62316   4.656   1.713   9.144  0.1849  0.2924  0.8909
  473MOL0     C62317   4.525   1.782   9.132  0.1108 -0.3053  0.2497
  473MOL0     C62318   4.463   1.789   8.995  1.0080  0.0224  1.0279
  473MOL0     C62319   4.322   1.848   8.991 -0.8251 -0.0329  1.3923
  473MOL0     C62320   4.260   1.830   8.846  0.5502 -0.2349 -0.5602
  473MOL0     N62321   4.307   1.932   8.757 -0.9381  0.0559 -1.1676
  473MOL0     C62322   4.283   2.067   8.772 -0.4279  0.1477  0.3169
  473MOL0     C62323   4.360   2.125   8.681 -0.3482  0.3175  0.1278
  473MOL0     C62324   4.374   2.272   8.687 -0.1931 -0.8038  0.7276
  473MOL0     C62325   4.466   2.327   8.580 -0.3085  0.9864  0.2319
  473MOL0     C62326   4.443   2.475   8.559  0.2508 -0.3100 -0.4591
  473MOL0     C62327   4.561   2.537   8.488  0.2080 -0.0091  0.2662
  473MOL0     O62328   4.670   2.568   8.579 -0.0189 -0.2867  0.2182
  473MOL0     C62329   4.657   2.661   8.682 -0.0995 -0.1212  0.3695
  473MOL0     C62330   4.761   2.672   8.775 -0.3066  0.7593  0.2774
  473MOL0     C62331   4.779   2.789   8.854 -0.3561  0.4906 -0.3791
  473MOL0     C62332   4.688   2.893   8.855 -0.2830  0.5714  0.3450
  473MOL0     C62333   4.702   3.002   8.955  0.0421 -0.3807  0.4758
  473MOL0     O62334   4.586   3.074   8.984 -0.1187 -0.0447 -0.2211
  473MOL0     C62335   4.583   3.211   9.029  0.3452 -0.1160  0.4419
  473MOL0     C62336   4.677   3.309   8.999  1.0423 -0.4471  0.1864
  473MOL0     C62337   4.648   3.444   9.016  0.0600 -0.6818 -0.9101
  473MOL0     C62338   4.533   3.481   9.078  0.5992  0.1177 -0.3572
  473MOL0     O62339   4.525   3.609   9.122 -0.0334 -0.3626  0.0191
  473MOL0     C62340   4.400   3.658   9.142  0.5479 -0.4638  0.1766
  473MOL0     C62341   4.409   3.809   9.172  1.1579 -0.7702 -0.5820
  473MOL0     C62342   4.278   3.896   9.129  0.2778 -0.4108  0.5604
  473MOL0     C62343   4.286   4.032   9.202  0.5493  0.9163  1.9786
  473MOL0     C62344   4.210   4.147   9.128 -0.1148  0.1562  0.1869
  473MOL0     C62345   4.059   4.121   9.116  0.2312 -0.4138 -0.0059
  473MOL0     C62346   3.966   4.250   9.086  0.4335 -0.7423  0.0970
  473MOL0     C62347   3.851   4.273   9.181  0.0885 -0.0300 -0.3893
  473MOL0    Cl62348   3.912   4.356   9.342  0.1156  0.2755  0.4185
  473MOL0     C62349   4.432   3.385   9.108 -0.2690 -0.2274 -0.4188
  473MOL0     C62350   4.455   3.253   9.078 -0.4500 -0.0867  0.1362
  473MOL0     O62351   4.811   3.037   8.988 -0.3374  0.7197  0.0216
  473MOL0     C62352   4.570   2.871   8.776  0.3388 -0.1928  0.8956
  473MOL0     C62353   4.560   2.759   8.689 -0.4473  0.1046  0.0417
  473MOL0     N62354   4.425   2.031   8.606  0.0799  0.2382  0.3249
  473MOL0     N62355   4.385   1.918   8.642  0.9982 -0.2820  0.2697
  473MOL0     C62356   4.698   1.386   9.323  1.3463  0.4834 -0.5442
  473MOL0     C62357   4.570   1.368   9.379  1.1167 -0.1310 -0.1611
  473MOL0     C62358   4.208   1.463   9.627  0.5137 -0.9018 -0.0711
  473MOL0     C62359   4.196   1.375   9.733  0.0502  0.5326  0.1692
  473MOL0     C62360   4.073   1.337   9.789 -0.3407 -0.3183 -0.6341
  473MOL0     C62361   3.951   1.397   9.751 -0.1726  0.0635 -0.7712
  473MOL0     O62362   3.825   1.365   9.809 -0.8112 -0.2212 -0.2910
  473MOL0     C62363   3.776   1.246   9.758  0.3272 -1.4274  0.1666
  473MOL0     C62364   3.621   1.244   9.780  0.6549 -1.2666  0.5196
  473MOL0     C62365   3.565   1.105   9.784  0.6921  0.2146 -0.8992
  473MOL0     C62366   3.609   1.006   9.677  0.1274 -0.5709 -0.0269
  473MOL0     C62367   3.745   0.950   9.701  0.5781  0.1583  0.2788
  473MOL0     C62368   3.844   0.890   9.721 -0.3669 -0.3197 -0.6292
  473MOL0     C62369   3.961   1.487   9.646 -0.7110  0.3746  0.6872
  473MOL0     C62370   4.087   1.524   9.585 -0.0314 -0.3875 -0.3300
  473MOL0     H62371   4.643   1.426   9.705 -2.9071  2.0870  0.2139
  473MOL0     H62372   4.857   1.501   9.588  2.7635 -1.0701 -2.9573
  473MOL0     H62373   4.867   1.547   9.161 -1.4047  3.1706  0.5487
  473MOL0     H62374   5.025   1.608   9.226  0.0256  0.2759 -0.5894
  473MOL0     H62375   4.901   1.783   9.224 -2.7215 -1.6554 -3.6968
  473MOL0     H62376   4.903   1.739   9.393  0.7483 -0.8801 -0.1946
  473MOL0     H62377   4.693   1.837   9.333  0.9499  1.4407 -0.9510
  473MOL0     H62378   4.654   1.669   9.357 -2.4274  2.9751  0.8313
  473MOL0     H62379   4.728   1.760   9.075 -0.1336 -0.6512 -0.1080
  473MOL0     H62380   4.651   1.608   9.113  0.5028  0.9592 -1.6286
  473MOL0     H62381   4.542   1.882   9.173  1.3114  0.1737 -1.3128
  473MOL0     H62382   4.458   1.721   9.194  3.3000 -1.4810  2.8936
  473MOL0     H62383   4.458   1.688   8.952  1.2606 -0.5917  2.3948
  473MOL0     H62384   4.526   1.843   8.923  0.8214 -2.0710 -0.8432
  473MOL0     H62385   4.253   1.806   9.065 -2.6964 -0.1031 -0.2968
  473MOL0     H62386   4.321   1.957   9.004  0.5504  0.3930 -1.3386
  473MOL0     H62387   4.151   1.838   8.848  0.2365 -3.1572  2.0892
  473MOL0     H62388   4.280   1.729   8.808 -0.4511  0.1583 -2.2382
  473MOL0     H62389   4.217   2.121   8.839  0.0407 -1.8973  2.5731
  473MOL0     H62390   4.409   2.302   8.786 -1.5396 -1.0088  1.2733
  473MOL0     H62391   4.272   2.306   8.673 -0.2455 -0.3291  2.1662
  473MOL0     H62392   4.441   2.274   8.488  0.3314  1.6136 -0.3164
  473MOL0     H62393   4.574   2.316   8.599 -0.2460 -0.9031 -1.0354
  473MOL0     H62394   4.361   2.491   8.489 -0.0712 -0.3079 -0.0900
  473MOL0     H62395   4.408   2.525   8.650  0.5069 -3.4048  1.5126
  473MOL0     H62396   4.541   2.633   8.440  2.1345 -0.2225 -1.0539
  473MOL0     H62397   4.591   2.467   8.410  4.3687  0.5200  1.1449
  473MOL0     H62398   4.832   2.590   8.770 -2.3060 -0.9929 -1.5873
  473MOL0     H62399   4.859   2.780   8.926 -0.6518 -0.7073 -0.1830
  473MOL0     H62400   4.778   3.287   8.967  1.0145  1.5894 -1.5428
  473MOL0     H62401   4.717   3.526   8.996  0.5453 -0.7441  0.4071
  473MOL0     H62402   4.346   3.614   9.227  1.1845  0.5711  1.1528
  473MOL0     H62403   4.325   3.639   9.065 -0.0936  0.4906  0.5429
  473MOL0     H62404   4.503   3.849   9.132 -0.0069  0.6833 -2.0258
  473MOL0     H62405   4.426   3.811   9.280 -1.5358 -4.5236  0.0931
  473MOL0     H62406   4.183   3.846   9.151 -0.9689  1.3078 -0.6027
  473MOL0     H62407   4.264   3.911   9.022 -2.3592  1.0652  1.0147
  473MOL0     H62408   4.236   4.017   9.298  0.3771  1.9926  2.0757
  473MOL0     H62409   4.394   4.051   9.212  0.7646  1.8721 -1.0675
  473MOL0     H62410   4.266   4.178   9.040  0.3620 -0.2634  0.3356
  473MOL0     H62411   4.221   4.228   9.201 -1.3193  0.3501  0.1754
  473MOL0     H62412   4.020   4.068   9.204 -0.5736  2.2261  1.3491
  473MOL0     H62413   4.051   4.056   9.029  1.4924  0.4376 -0.7812
  473MOL0     H62414   4.034   4.335   9.079  0.8062 -1.1776 -2.5775
  473MOL0     H62415   3.921   4.243   8.987  2.9627 -0.1128 -1.1818
  473MOL0     H62416   3.798   4.179   9.198 -1.3371  0.6338 -0.9595
  473MOL0     H62417   3.780   4.347   9.141 -3.8441 -3.2935 -0.0773
  473MOL0     H62418   4.328   3.402   9.135 -0.3047 -2.2409  0.9291
  473MOL0     H62419   4.383   3.172   9.082 -0.6085  0.0356 -0.1914
  473MOL0     H62420   4.501   2.955   8.775 -0.2150 -0.6431  1.1465
  473MOL0     H62421   4.474   2.752   8.623 -0.6840  2.2314  0.0525
  473MOL0     H62422   4.704   1.375   9.215 -1.9175 -2.8913 -0.5774
  473MOL0     H62423   4.495   1.329   9.311  0.4994  0.1264  0.3592
  473MOL0     H62424   4.269   1.320   9.791 -0.6646  1.0122  1.5547
  473MOL0     H62425   4.079   1.264   9.869  3.1877  2.4331  1.9899
  473MOL0     H62426   3.821   1.164   9.814 -1.3120 -2.1250  0.5238
  473MOL0     H62427   3.813   1.232   9.656  0.5004  3.2390 -0.6033
  473MOL0     H62428   3.600   1.287   9.878  0.6214  0.7250 -0.3178
  473MOL0     H62429   3.572   1.304   9.703  2.6529  0.7418  0.7332
  473MOL0     H62430   3.457   1.121   9.776  0.3027 -2.2352 -1.1598
  473MOL0     H62431   3.585   1.055   9.879  1.7533  4.3902  1.3103
  473MOL0     H62432   3.541   0.921   9.670 -0.0563 -0.2946 -2.8150
  473MOL0     H62433   3.617   1.063   9.584  2.5924 -1.9016 -0.7034
  473MOL0     H62434   3.930   0.831   9.745  1.5718  2.6198  0.1346
  473MOL0     H62435   3.873   1.541   9.611 -0.2970 -0.4223 -1.6855
  473MOL0     H62436   4.097   1.605   9.514 -1.6265  0.7351  0.6809
  474MOL0     O62437   1.561  10.975   9.050 -0.5130  0.1806 -0.1686
  474MOL0     C62438   1.624  10.916   8.960 -0.1156 -0.8614 -0.2479
  474MOL0     O62439   1.623  10.780   8.930 -0.3225 -0.6082  0.4548
  474MOL0     C62440   1.529  10.699   8.983  0.0709 -0.6901 -0.5686
  474MOL0     C62441   1.580  10.603   9.078  0.5294 -0.0189  0.0345
  474MOL0     C62442   1.482  10.513   9.135  0.1753 -1.3163 -0.3202
  474MOL0     C62443   1.349  10.513   9.109  1.1538  0.6549 -0.2152
  474MOL0     O62444   1.273  10.413   9.163 -0.2238  0.1320  0.3057
  474MOL0     C62445   1.135  10.410   9.127 -0.5175 -0.1469  0.0438
  474MOL0     C62446   1.064  10.305   9.215  0.0461  0.5896  0.1009
  474MOL0     C62447   0.913  10.285   9.171  0.1330 -0.5194  0.6665
  474MOL0     C62448   0.855  10.156   9.230 -1.1526 -0.3976  0.0739
  474MOL0     C62449   0.857  10.148   9.383 -1.3626  0.5895  0.1667
  474MOL0     C62450   0.751  10.238   9.441  0.1148 -0.8287  0.5144
  474MOL0     C62451   0.745  10.232   9.594 -0.1542 -0.1514  0.7890
  474MOL0     C62452   0.626  10.309   9.649 -0.0512  0.0535 -0.2744
  474MOL0     N62453   0.640  10.322   9.797  0.0391  0.7256 -0.1835
  474MOL0     C62454   0.714  10.407   9.871  0.1374  0.0065  0.4380
  474MOL0     C62455   0.688  10.364  10.002 -0.0396 -0.0187  0.0493
  474MOL0     C62456   0.734  10.427  10.130  0.5921  0.3726 -0.3617
  474MOL0     C62457   0.866  10.355  10.159 -1.3523 -0.2902 -0.6460
  474MOL0     C62458   0.912  10.389  10.303 -0.2035 -0.2417  0.6842
  474MOL0     C62459   0.843  10.312  10.412 -0.3808  0.0180  0.6640
  474MOL0     O62460   0.848  10.396  10.524  0.5778  0.5452 -0.1212
  474MOL0     C62461   0.789  10.355  10.639 -0.6193  0.3037 -0.6764
  474MOL0     C62462   0.789  10.432  10.751  0.4785  0.3082  0.2633
  474MOL0     C62463   0.719  10.392  10.863 -0.6941  0.4506  0.0435
  474MOL0     C62464   0.667  10.253  10.865 -0.7499 -0.4366  0.1692
  474MOL0     C62465   0.584  10.221  10.982  0.7995 -0.7368 -0.3253
  474MOL0     O62466   0.461  10.157  10.952 -0.6399 -0.5748 -0.0446
  474MOL0     C62467   0.375  10.106  11.046  0.6458 -0.0178 -0.4763
  474MOL0     C62468   0.242  10.107  11.019  0.9755  0.1945 -0.1580
  474MOL0     C62469   0.141  10.068  11.108 -0.3317 -0.3548 -0.5295
  474MOL0     C62470   0.180  10.043  11.242 -0.0140  0.0405  0.0954
  474MOL0     O62471   0.081  10.046  11.342  0.3122 -0.3586  0.2087
  474MOL0     C62472   0.114   9.970  11.458  0.0785  0.5086  0.1354
  474MOL0     C62473   0.003  10.013  11.551 -0.3498  0.4338  0.2500
  474MOL0     C62474   0.026  10.168  11.583  1.0540  0.9620  0.6504
  474MOL0     C62475  -0.098  10.221  11.663  0.2751 -0.5131 -0.0587
  474MOL0     C62476  -0.174  10.332  11.590  0.0011 -0.0903  0.3451
  474MOL0     C62477  -0.259  10.423  11.677 -0.3990 -0.5274 -0.2765
  474MOL0     C62478  -0.302  10.541  11.590 -0.4991 -0.9104  0.3919
  474MOL0     C62479  -0.418  10.613  11.660 -0.1382 -0.2229 -0.1926
  474MOL0    Cl62480  -0.467  10.760  11.576  0.0009  0.0638  0.0767
  474MOL0     C62481   0.320  10.039  11.270  0.0202  0.1850 -0.3023
  474MOL0     C62482   0.416  10.069  11.173 -0.1776  0.8600 -0.3138
  474MOL0     O62483   0.629  10.248  11.091 -0.1628 -0.2437 -0.1013
  474MOL0     C62484   0.674  10.161  10.760 -0.1608 -0.4648 -1.2803
  474MOL0     C62485   0.734  10.218  10.646 -0.2078  0.5712  0.4451
  474MOL0     N62486   0.597  10.259   9.993  0.8926 -0.3167 -0.2446
  474MOL0     N62487   0.579  10.238   9.877  1.2255 -0.0083 -0.2329
  474MOL0     C62488   1.299  10.609   9.013  0.3907  1.1087 -0.3421
  474MOL0     C62489   1.390  10.700   8.952 -0.3786 -0.2456 -0.3828
  474MOL0     C62490   1.707  11.003   8.865  0.0809  0.3658  0.5570
  474MOL0     C62491   1.773  10.948   8.756 -0.2730  0.9626  0.0673
  474MOL0     C62492   1.837  11.029   8.658 -0.0081  0.8829  0.1563
  474MOL0     C62493   1.831  11.168   8.667  0.3966  1.0689  0.7642
  474MOL0     O62494   1.900  11.240   8.569  0.0458 -0.0059 -0.3125
  474MOL0     C62495   1.919  11.384   8.571  0.2373 -0.3641  0.1681
  474MOL0     C62496   1.985  11.443   8.449  0.1762  0.1267  0.2416
  474MOL0     C62497   1.916  11.398   8.323  0.6827  0.3099  0.2500
  474MOL0     C62498   1.964  11.468   8.191  0.4454  0.3961  0.7461
  474MOL0     C62499   1.934  11.388   8.071 -0.2031 -0.0796  0.9452
  474MOL0     C62500   1.921  11.321   7.969  1.0004  0.4265 -0.4615
  474MOL0     C62501   1.764  11.219   8.775 -0.3153 -0.1226 -0.0027
  474MOL0     C62502   1.696  11.142   8.878 -1.2426 -0.7888  0.3988
  474MOL0     H62503   1.686  10.595   9.100  0.2154 -2.0473  1.0072
  474MOL0     H62504   1.508  10.428   9.197 -1.7612 -0.9050  1.1486
  474MOL0     H62505   1.111  10.385   9.024  0.1370  2.8142 -0.9262
  474MOL0     H62506   1.087  10.507   9.138 -1.4939 -0.4535 -1.2912
  474MOL0     H62507   1.080  10.327   9.320  3.5262 -0.2254 -0.1380
  474MOL0     H62508   1.116  10.211   9.192  0.6047  0.7658  0.6320
  474MOL0     H62509   0.900  10.284   9.063  2.8301  0.7718  0.2334
  474MOL0     H62510   0.852  10.365   9.215  1.5853  2.2394 -1.9919
  474MOL0     H62511   0.753  10.136   9.198 -0.8181 -0.5000 -0.9446
  474MOL0     H62512   0.926  10.079   9.197  1.3224  1.7034  0.1478
  474MOL0     H62513   0.954  10.170   9.428 -0.4426  0.9831 -1.9022
  474MOL0     H62514   0.852  10.040   9.399  3.6050 -0.1797 -1.6541
  474MOL0     H62515   0.653  10.201   9.408 -0.0418  2.2101 -3.1083
  474MOL0     H62516   0.764  10.341   9.410 -2.6549 -0.3459  0.7154
  474MOL0     H62517   0.745  10.128   9.627 -0.7276 -0.1664  0.7461
  474MOL0     H62518   0.841  10.273   9.627  0.7167 -0.2696 -1.4311
  474MOL0     H62519   0.529  10.259   9.638  0.0117 -1.8733  4.9244
  474MOL0     H62520   0.621  10.409   9.605 -2.0914  1.1172  2.1195
  474MOL0     H62521   0.752  10.497   9.824  0.9680 -1.0157 -0.9421
  474MOL0     H62522   0.654  10.399  10.200  1.7796 -1.8522  0.2030
  474MOL0     H62523   0.743  10.536  10.123 -0.1376  0.3771 -1.4607
  474MOL0     H62524   0.942  10.390  10.089 -0.7533  0.4578  0.3517
  474MOL0     H62525   0.865  10.246  10.166  3.4321 -0.4712  3.6426
  474MOL0     H62526   1.017  10.360  10.309  0.8648  3.3119  1.3527
  474MOL0     H62527   0.920  10.496  10.320  3.1707  0.7045 -4.5008
  474MOL0     H62528   0.885  10.212  10.418 -0.5586 -0.0655  0.5391
  474MOL0     H62529   0.740  10.292  10.381  0.5279  0.1476 -2.9566
  474MOL0     H62530   0.841  10.528  10.751  0.0719  0.5576 -1.2424
  474MOL0     H62531   0.703  10.458  10.947 -1.4588  1.7154 -1.0490
  474MOL0     H62532   0.221  10.120  10.913 -0.6681 -1.7058 -0.1318
  474MOL0     H62533   0.037  10.065  11.078 -0.6979 -0.3263  0.6658
  474MOL0     H62534   0.208   9.997  11.507 -0.3215  3.5777 -0.6199
  474MOL0     H62535   0.113   9.863  11.434 -0.5013  0.3581  0.8048
  474MOL0     H62536   0.007   9.968  11.651  0.6981  4.0633  1.9885
  474MOL0     H62537  -0.100   9.995  11.517 -1.1522  4.7085 -0.0430
  474MOL0     H62538   0.040  10.223  11.490 -1.5797  0.4084 -0.1551
  474MOL0     H62539   0.114  10.162  11.648 -0.0066 -5.5119  2.2815
  474MOL0     H62540  -0.164  10.137  11.685  2.6883 -1.7275  3.2630
  474MOL0     H62541  -0.056  10.249  11.760  0.8451  0.7397 -0.6507
  474MOL0     H62542  -0.234  10.277  11.516  0.1920  0.6220 -0.3487
  474MOL0     H62543  -0.107  10.397  11.534 -0.1036 -1.7067 -1.7911
  474MOL0     H62544  -0.203  10.450  11.767  1.9037  0.3659 -1.8832
  474MOL0     H62545  -0.348  10.373  11.718 -0.1676 -0.1602  0.7021
  474MOL0     H62546  -0.226  10.616  11.566  2.1510 -3.4603  0.3200
  474MOL0     H62547  -0.337  10.510  11.491 -0.9913  2.2495 -0.5306
  474MOL0     H62548  -0.391  10.641  11.763  1.2087 -1.7266 -0.0852
  474MOL0     H62549  -0.504  10.547  11.654  0.5700 -1.0176 -2.2617
  474MOL0     H62550   0.365  10.025  11.368 -1.0909 -0.5113  0.1269
  474MOL0     H62551   0.523  10.065  11.191 -0.0482  0.6077 -1.1146
  474MOL0     H62552   0.654  10.054  10.763  0.3231 -0.6358  3.2461
  474MOL0     H62553   0.753  10.142  10.571  1.8354  1.7220 -0.2982
  474MOL0     H62554   1.196  10.618   8.978  0.6523 -0.9254 -1.8714
  474MOL0     H62555   1.356  10.762   8.870  3.8939  0.0870 -2.1602
  474MOL0     H62556   1.790  10.841   8.753  3.5123  1.4344 -1.7420
  474MOL0     H62557   1.891  10.981   8.577  0.3258  0.9730  0.3240
  474MOL0     H62558   1.971  11.407   8.665  0.5822 -1.9404  0.3832
  474MOL0     H62559   1.818  11.425   8.577  0.8350  2.0664 -3.2295
  474MOL0     H62560   1.990  11.553   8.453  3.2711  0.2193 -2.4201
  474MOL0     H62561   2.083  11.397   8.457 -0.3098 -1.4983 -2.1052
  474MOL0     H62562   1.810  11.420   8.334  0.9341  2.6431 -1.3733
  474MOL0     H62563   1.916  11.288   8.315 -1.8191  0.1902  1.1556
  474MOL0     H62564   1.915  11.565   8.186  1.9589  1.5990  4.8105
  474MOL0     H62565   2.073  11.482   8.184  0.3515  0.2966 -2.7570
  474MOL0     H62566   1.892  11.279   7.875 -2.3252 -0.4083  0.7787
  474MOL0     H62567   1.761  11.325   8.798 -3.2936 -0.4753  1.8648
  474MOL0     H62568   1.627  11.186   8.949 -0.5734  2.4955 -0.7942
  475MOL0     O62569   8.118  10.044  10.683  0.6050  0.5926  0.2925
  475MOL0     C62570   8.003  10.073  10.639 -0.6020 -0.7196 -0.7245
  475MOL0     O62571   7.913   9.986  10.583  0.3832  0.1171 -0.4659
  475MOL0     C62572   7.932   9.848  10.563  0.4836 -0.0496  0.1103
  475MOL0     C62573   8.048   9.772  10.577 -0.7467  0.1430 -0.2670
  475MOL0     C62574   8.061   9.637  10.540  1.3320 -0.5044  0.2490
  475MOL0     C62575   7.944   9.567  10.512  0.3777  0.8493  0.2278
  475MOL0     O62576   7.948   9.430  10.498  0.1918  0.3111 -0.4662
  475MOL0     C62577   7.936   9.375  10.371  0.2943  0.3023  0.6320
  475MOL0     C62578   7.879   9.235  10.376  0.4172 -0.3676  0.1604
  475MOL0     C62579   7.734   9.222  10.427  0.3200  1.2041  0.1680
  475MOL0     C62580   7.692   9.072  10.422  0.3713  0.1793  0.7726
  475MOL0     C62581   7.759   8.971  10.519  0.2592  0.2217  0.4400
  475MOL0     C62582   7.732   8.990  10.665 -0.4225 -0.0902 -0.1639
  475MOL0     C62583   7.594   9.045  10.695  0.1260 -0.2959  0.1150
  475MOL0     C62584   7.573   9.028  10.848  0.0673  0.8939  0.4685
  475MOL0     N62585   7.591   8.886  10.888  0.1781 -0.3251  0.2619
  475MOL0     C62586   7.506   8.789  10.847  1.2523  0.6252  0.5449
  475MOL0     C62587   7.554   8.677  10.917 -0.0281 -0.9133 -0.5149
  475MOL0     C62588   7.521   8.537  10.881 -0.1258  0.2499 -0.1084
  475MOL0     C62589   7.641   8.477  10.818 -0.1276 -1.0973 -0.3689
  475MOL0     C62590   7.600   8.350  10.756 -1.0971  0.2192  0.2397
  475MOL0     C62591   7.718   8.292  10.674  0.4172 -0.5792  0.4941
  475MOL0     O62592   7.730   8.369  10.550 -0.8609  0.7305 -0.0234
  475MOL0     C62593   7.806   8.316  10.451 -0.1566  0.5687 -0.1968
  475MOL0     C62594   7.885   8.202  10.464 -0.6687  0.8460  0.3177
  475MOL0     C62595   7.957   8.162  10.355  0.3845 -0.4368 -1.0045
  475MOL0     C62596   7.952   8.235  10.233 -0.2048 -0.1785 -0.0807
  475MOL0     C62597   8.027   8.180  10.123 -0.3882 -1.3453  0.6075
  475MOL0     O62598   8.073   8.047  10.135 -0.1416  0.3406 -0.8497
  475MOL0     C62599   8.130   8.000  10.011 -0.6433 -1.0431 -0.0330
  475MOL0     C62600   8.269   7.990   9.992  0.0216  0.2121  0.3290
  475MOL0     C62601   8.324   7.943   9.864 -0.4863 -0.2833 -0.5124
  475MOL0     C62602   8.239   7.894   9.770 -0.0884  0.2294 -0.0191
  475MOL0     O62603   8.277   7.834   9.654  0.2750  0.3820 -0.7287
  475MOL0     C62604   8.367   7.728   9.669  0.7307  1.0742  0.6217
  475MOL0     C62605   8.384   7.667   9.532 -0.8164  0.4746 -0.2914
  475MOL0     C62606   8.489   7.549   9.544 -0.2384  0.5762 -0.7608
  475MOL0     C62607   8.525   7.492   9.404 -0.3368 -1.0049 -0.4131
  475MOL0     C62608   8.398   7.440   9.332  0.3344 -0.4885 -0.2891
  475MOL0     C62609   8.454   7.373   9.206 -0.2501  0.1029  0.2901
  475MOL0     C62610   8.334   7.359   9.113  0.0324 -0.3638 -0.9502
  475MOL0     C62611   8.372   7.340   8.971  0.4264  0.6103  1.2515
  475MOL0    Cl62612   8.229   7.316   8.866 -0.0109 -0.2246  0.2708
  475MOL0     C62613   8.101   7.925   9.771 -0.4029  0.6861 -0.7167
  475MOL0     C62614   8.049   7.964   9.902 -0.0799  0.0299  0.4884
  475MOL0     O62615   8.060   8.263  10.035  0.6713 -0.7077  0.4318
  475MOL0     C62616   7.871   8.349  10.219  0.7515  0.3273 -0.1808
  475MOL0     C62617   7.798   8.387  10.326  0.0525 -0.7439 -0.3389
  475MOL0     N62618   7.661   8.711  10.999  0.4544  0.0805  0.2119
  475MOL0     N62619   7.678   8.841  10.981 -0.9305 -0.0589  0.1845
  475MOL0     C62620   7.830   9.636  10.501 -0.1090 -0.1053  0.0253
  475MOL0     C62621   7.819   9.772  10.529 -0.9159 -0.4715  0.4180
  475MOL0     C62622   7.962  10.212  10.658  0.3161 -0.2996  0.1705
  475MOL0     C62623   7.862  10.277  10.566  0.0247  0.3572  0.4783
  475MOL0     C62624   7.828  10.408  10.577 -0.3233  0.6732 -0.0153
  475MOL0     C62625   7.888  10.488  10.673  0.1282 -0.1711  0.9734
  475MOL0     O62626   7.855  10.624  10.688  0.5657  0.2915 -0.1655
  475MOL0     C62627   7.798  10.696  10.572  0.5860 -0.2361 -0.3670
  475MOL0     C62628   7.888  10.727  10.453 -0.5896 -0.0510  0.3993
  475MOL0     C62629   8.017  10.806  10.487 -0.1315 -0.3092 -0.2283
  475MOL0     C62630   8.097  10.836  10.358 -0.1083  0.6598  0.1166
  475MOL0     C62631   8.222  10.896  10.411 -0.0350 -0.5423 -0.1631
  475MOL0     C62632   8.308  10.969  10.440 -0.8590 -1.1959 -0.4004
  475MOL0     C62633   7.990  10.433  10.757 -0.1926 -0.3038  0.1307
  475MOL0     C62634   8.028  10.301  10.751 -0.1051  0.0878  0.3310
  475MOL0     H62635   8.140   9.818  10.610 -1.7216  0.9243  1.5161
  475MOL0     H62636   8.153   9.578  10.542 -0.2615 -3.1905  2.6079
  475MOL0     H62637   8.039   9.375  10.336  0.1049 -0.0925  0.0662
  475MOL0     H62638   7.892   9.441  10.295  0.7027 -1.5924 -1.3368
  475MOL0     H62639   7.942   9.175  10.443  0.3506  0.6407  1.1650
  475MOL0     H62640   7.881   9.187  10.278 -3.8334 -0.4497 -0.0561
  475MOL0     H62641   7.668   9.283  10.365 -1.6154 -3.4875 -2.9960
  475MOL0     H62642   7.714   9.268  10.524 -2.9987  0.1204  0.1414
  475MOL0     H62643   7.584   9.069  10.441 -0.0414  1.4114 -1.1130
  475MOL0     H62644   7.704   9.035  10.320 -1.1683  2.3565 -0.2733
  475MOL0     H62645   7.868   8.977  10.517  0.2806  0.8308  1.9758
  475MOL0     H62646   7.724   8.873  10.487  1.0713  0.4238 -1.1830
  475MOL0     H62647   7.789   9.072  10.711  1.3314 -2.4313  2.0756
  475MOL0     H62648   7.756   8.893  10.708 -3.8951 -0.0283  2.3124
  475MOL0     H62649   7.595   9.150  10.664  1.5897 -0.7160 -1.4271
  475MOL0     H62650   7.512   8.993  10.643  0.0503  0.5848 -0.6873
  475MOL0     H62651   7.472   9.053  10.883  0.4465  2.4076  0.5168
  475MOL0     H62652   7.646   9.085  10.904 -0.9188  0.8137  1.8960
  475MOL0     H62653   7.424   8.782  10.776 -0.9952 -4.4786  3.0814
  475MOL0     H62654   7.435   8.530  10.815  0.3120 -0.1716 -0.6458
  475MOL0     H62655   7.504   8.482  10.974 -1.7456 -2.7037 -2.0020
  475MOL0     H62656   7.723   8.475  10.890 -1.2720  2.1826  1.2326
  475MOL0     H62657   7.677   8.542  10.737  0.5132 -2.0413 -0.8553
  475MOL0     H62658   7.577   8.289  10.844  1.7742  1.9732  2.3569
  475MOL0     H62659   7.510   8.344  10.693 -4.7581 -1.5850  4.9998
  475MOL0     H62660   7.715   8.183  10.666  0.2281 -0.4431 -1.9819
  475MOL0     H62661   7.806   8.298  10.738 -0.9895 -2.2089  2.7522
  475MOL0     H62662   7.902   8.147  10.556  0.9126  3.0237  1.4062
  475MOL0     H62663   8.011   8.068  10.366  1.3077  0.1393 -0.5179
  475MOL0     H62664   8.345   8.026  10.061 -1.3879  0.6700  1.7251
  475MOL0     H62665   8.430   7.960   9.847 -0.2341 -0.9361  0.3279
  475MOL0     H62666   8.333   7.648   9.735  1.2153 -1.3138 -1.8936
  475MOL0     H62667   8.468   7.755   9.703  1.0087  0.1163  0.5716
  475MOL0     H62668   8.436   7.729   9.459  0.9526 -1.8314 -1.1582
  475MOL0     H62669   8.292   7.627   9.488 -0.1609 -0.1082 -1.1829
  475MOL0     H62670   8.448   7.477   9.615 -0.0275  0.5924 -0.6219
  475MOL0     H62671   8.581   7.591   9.585 -0.2755  1.1111 -1.2131
  475MOL0     H62672   8.568   7.573   9.345 -0.1927  0.0499  1.0856
  475MOL0     H62673   8.600   7.415   9.420  0.1814 -0.5641 -0.7076
  475MOL0     H62674   8.325   7.520   9.313  0.5959 -0.4014 -0.9358
  475MOL0     H62675   8.350   7.366   9.396 -0.7977 -0.7134 -1.3611
  475MOL0     H62676   8.467   7.268   9.231 -2.0842 -0.6240 -1.4817
  475MOL0     H62677   8.541   7.417   9.157 -1.3189  0.0857 -1.7127
  475MOL0     H62678   8.268   7.283   9.155 -0.2227 -0.5258 -1.6337
  475MOL0     H62679   8.276   7.452   9.117  0.6060 -0.0222 -0.3134
  475MOL0     H62680   8.436   7.254   8.953 -0.4779  0.1491  0.0713
  475MOL0     H62681   8.431   7.427   8.938  3.9975 -1.5620  1.3977
  475MOL0     H62682   8.039   7.886   9.691  0.7749 -5.0818  0.7345
  475MOL0     H62683   7.942   7.974   9.919 -0.0857 -2.2106  2.2679
  475MOL0     H62684   7.864   8.397  10.121 -2.6616 -1.8130 -1.1639
  475MOL0     H62685   7.718   8.461  10.329  0.5619 -0.2171  1.0796
  475MOL0     H62686   7.747   9.580  10.458  0.1305  0.1442 -0.7827
  475MOL0     H62687   7.730   9.830  10.506 -0.2400 -0.4010 -2.4334
  475MOL0     H62688   7.824  10.217  10.484  2.9835 -0.2128 -0.5858
  475MOL0     H62689   7.761  10.452  10.504 -2.9446 -0.8849  1.2537
  475MOL0     H62690   7.757  10.791  10.606 -0.2772 -0.1059 -1.6994
  475MOL0     H62691   7.699  10.656  10.549 -0.4993  0.6848  2.3353
  475MOL0     H62692   7.917  10.632  10.406  0.6822  0.9550 -0.9407
  475MOL0     H62693   7.825  10.782  10.383  1.0741  0.5686 -0.6655
  475MOL0     H62694   8.072  10.739  10.553 -1.9873  0.1656  1.9315
  475MOL0     H62695   7.986  10.886  10.554 -4.4958  0.2261 -2.5047
  475MOL0     H62696   8.127  10.751  10.295  1.5255  3.1127 -2.7210
  475MOL0     H62697   8.049  10.909  10.293 -0.3751  0.9232  0.6109
  475MOL0     H62698   8.390  11.037  10.448 -2.1076  0.2042  1.3683
  475MOL0     H62699   8.039  10.490  10.835 -2.1518 -0.7853  1.8064
  475MOL0     H62700   8.118  10.272  10.805  0.6852  1.6446 -0.0834
  476MOL0     O62701   1.226   4.951   7.784  0.0988  0.1898  0.4224
  476MOL0     C62702   1.268   5.033   7.868 -0.3898  0.3840 -0.3255
  476MOL0     O62703   1.292   5.010   7.999 -0.0136 -0.1517  0.0934
  476MOL0     C62704   1.276   4.881   8.042  0.0904  0.2183  0.3700
  476MOL0     C62705   1.154   4.840   8.096  0.3730  0.0254 -0.1488
  476MOL0     C62706   1.146   4.708   8.133 -0.5386  0.1805  0.1273
  476MOL0     C62707   1.254   4.614   8.116 -0.6156  0.4739 -0.7274
  476MOL0     O62708   1.225   4.482   8.159 -0.0246 -0.2686  0.4596
  476MOL0     C62709   1.332   4.390   8.160 -0.1678 -0.1477 -0.5565
  476MOL0     C62710   1.312   4.258   8.226  0.4285  0.2760 -0.7198
  476MOL0     C62711   1.208   4.178   8.143 -0.4059 -0.4134  0.4468
  476MOL0     C62712   1.197   4.024   8.161  0.2575 -0.1713 -0.5055
  476MOL0     C62713   1.122   3.989   8.290 -0.4598 -0.3308  0.5293
  476MOL0     C62714   1.028   3.872   8.262  0.0208 -0.4655 -0.0637
  476MOL0     C62715   1.107   3.751   8.220  0.4214 -0.5967 -0.2029
  476MOL0     C62716   1.184   3.692   8.342 -0.3630  0.4652 -0.5475
  476MOL0     N62717   1.109   3.575   8.404  0.5105  0.0609  0.6693
  476MOL0     C62718   0.974   3.554   8.411  0.2402  0.0281 -0.4804
  476MOL0     C62719   0.965   3.440   8.476  0.2292  0.2862  0.2964
  476MOL0     C62720   0.827   3.380   8.507  0.1066 -0.1233 -0.4504
  476MOL0     C62721   0.811   3.261   8.413  0.6321  0.0799 -0.4656
  476MOL0     C62722   0.742   3.290   8.282  0.4742  0.1255 -0.7759
  476MOL0     C62723   0.828   3.323   8.160  0.3174 -1.1234  0.1340
  476MOL0     O62724   0.769   3.433   8.092  0.5169  0.6581 -0.1002
  476MOL0     C62725   0.857   3.506   8.024 -0.4413  0.9521 -0.2133
  476MOL0     C62726   0.831   3.641   8.006  0.8330 -0.5646 -0.1040
  476MOL0     C62727   0.919   3.727   7.934  0.5572 -0.6559  0.2679
  476MOL0     C62728   1.038   3.674   7.863  0.0902 -0.9208  0.6370
  476MOL0     C62729   1.111   3.755   7.770  0.4004 -0.2442 -0.3382
  476MOL0     O62730   1.067   3.882   7.739  0.0905 -0.0979 -0.1699
  476MOL0     C62731   1.166   3.967   7.681 -0.1967 -0.0535 -0.2852
  476MOL0     C62732   1.169   3.993   7.541  0.1130  0.3436  1.1839
  476MOL0     C62733   1.276   4.077   7.492  0.5867 -0.0909  0.1341
  476MOL0     C62734   1.360   4.144   7.583 -1.0957  0.3710  0.1356
  476MOL0     O62735   1.464   4.233   7.542  0.0821  0.0834  0.5519
  476MOL0     C62736   1.503   4.234   7.404  0.3896  0.5756  0.8546
  476MOL0     C62737   1.638   4.313   7.418 -0.6028  0.9186 -0.2383
  476MOL0     C62738   1.718   4.311   7.293  0.9361  0.3169 -0.1598
  476MOL0     C62739   1.688   4.424   7.194  0.3203 -0.0348 -0.3827
  476MOL0     C62740   1.709   4.382   7.045  0.2283  1.1186 -0.1092
  476MOL0     C62741   1.853   4.348   7.000 -0.0190 -0.0320  0.4302
  476MOL0     C62742   1.912   4.211   7.056 -0.3533  0.5545  0.6796
  476MOL0     C62743   2.044   4.170   6.988 -0.2348  0.6017  0.8569
  476MOL0    Cl62744   2.127   4.036   7.094 -0.2459 -0.3382 -0.0279
  476MOL0     C62745   1.350   4.123   7.717 -0.1138  0.4807 -0.3595
  476MOL0     C62746   1.263   4.028   7.764  0.3267 -0.1608 -0.3848
  476MOL0     O62747   1.201   3.700   7.714 -0.1352  0.1821  0.4678
  476MOL0     C62748   1.055   3.538   7.875 -1.5426  0.7044  0.3172
  476MOL0     C62749   0.973   3.455   7.948  0.3527 -0.5200  0.7851
  476MOL0     N62750   1.089   3.387   8.493  0.2809  0.1499 -0.7367
  476MOL0     N62751   1.181   3.471   8.463  0.4963 -1.2723 -0.4748
  476MOL0     C62752   1.370   4.662   8.054 -0.0490  0.1468 -1.1064
  476MOL0     C62753   1.390   4.796   8.023  0.3357 -0.0262  0.0217
  476MOL0     C62754   1.285   5.175   7.818  0.8284  0.2978 -0.4672
  476MOL0     C62755   1.394   5.252   7.859 -0.1742 -0.1442  0.1801
  476MOL0     C62756   1.395   5.389   7.828  0.3876 -0.0463 -0.8190
  476MOL0     C62757   1.299   5.453   7.758  0.8048  0.5200  0.4334
  476MOL0     O62758   1.313   5.587   7.721 -1.4050 -0.1942  0.1646
  476MOL0     C62759   1.217   5.649   7.638  0.4908 -0.0566 -0.5878
  476MOL0     C62760   1.256   5.789   7.583 -0.6507  0.1808 -0.5781
  476MOL0     C62761   1.356   5.764   7.468 -0.0734 -0.6372 -0.1471
  476MOL0     C62762   1.375   5.891   7.402  0.8579 -0.2871 -0.1200
  476MOL0     C62763   1.432   5.991   7.490 -0.0426  0.2981 -0.9394
  476MOL0     C62764   1.463   6.069   7.577 -0.1106 -0.4355 -0.5723
  476MOL0     C62765   1.189   5.373   7.718 -0.0442  0.3186  0.1668
  476MOL0     C62766   1.177   5.237   7.741  1.2628 -0.2341  0.6137
  476MOL0     H62767   1.075   4.912   8.076  0.3590 -0.0818 -0.4893
  476MOL0     H62768   1.057   4.661   8.175 -1.3778  0.8782 -0.8277
  476MOL0     H62769   1.410   4.433   8.224 -2.5944 -0.4896  2.9396
  476MOL0     H62770   1.371   4.380   8.059  5.5359 -0.0349  1.2798
  476MOL0     H62771   1.257   4.281   8.318  1.5193  2.2567 -0.5196
  476MOL0     H62772   1.402   4.200   8.248  0.0658  0.1514  0.5454
  476MOL0     H62773   1.220   4.196   8.035  4.3336  1.0428  0.9426
  476MOL0     H62774   1.113   4.229   8.162 -0.3868  0.2394 -1.0511
  476MOL0     H62775   1.157   3.991   8.064  1.6913 -0.3850 -1.0426
  476MOL0     H62776   1.296   3.979   8.176 -0.4395 -1.1080  1.7549
  476MOL0     H62777   1.054   4.066   8.328 -1.2862 -0.4326 -0.6684
  476MOL0     H62778   1.198   3.965   8.364  3.5506  3.2760 -1.9547
  476MOL0     H62779   0.951   3.903   8.191  1.0189 -1.5739 -1.7044
  476MOL0     H62780   0.976   3.845   8.354  0.7742  1.4841  0.9755
  476MOL0     H62781   1.047   3.674   8.172  2.0480 -1.5895 -0.6981
  476MOL0     H62782   1.180   3.765   8.139  0.1790 -1.6524 -0.6123
  476MOL0     H62783   1.203   3.752   8.431  0.5003 -3.6087  2.2960
  476MOL0     H62784   1.282   3.662   8.304  0.5957  2.3113  0.3444
  476MOL0     H62785   0.889   3.619   8.392  0.4458  0.7575  0.9647
  476MOL0     H62786   0.740   3.446   8.510  0.3841  0.3388 -1.7876
  476MOL0     H62787   0.819   3.329   8.603 -3.1544 -2.6589 -1.8585
  476MOL0     H62788   0.754   3.181   8.460  1.4043 -1.4286 -1.9874
  476MOL0     H62789   0.909   3.215   8.396  0.7219  0.1545 -0.1501
  476MOL0     H62790   0.688   3.198   8.259 -0.9149  1.2988 -2.4748
  476MOL0     H62791   0.672   3.373   8.300  0.1427 -0.4755  0.8900
  476MOL0     H62792   0.845   3.242   8.089  3.0156  1.1714 -2.0719
  476MOL0     H62793   0.932   3.335   8.190 -0.3160  2.3269  1.3620
  476MOL0     H62794   0.748   3.686   8.061  1.4753 -1.4150  1.6324
  476MOL0     H62795   0.892   3.832   7.926 -1.2478 -1.1155  0.0915
  476MOL0     H62796   1.090   3.944   7.483  0.7246  0.1678  0.4818
  476MOL0     H62797   1.297   4.087   7.386 -1.9793  4.5054 -0.1874
  476MOL0     H62798   1.426   4.281   7.342  0.0097  0.9003  1.5448
  476MOL0     H62799   1.534   4.134   7.373 -0.1153 -0.2018  2.7156
  476MOL0     H62800   1.707   4.256   7.482 -1.7803 -1.0598 -0.6429
  476MOL0     H62801   1.622   4.413   7.460  0.8699  1.2396 -0.3777
  476MOL0     H62802   1.699   4.211   7.252 -0.8696  0.7846 -0.5617
  476MOL0     H62803   1.826   4.317   7.311  1.4003 -2.6547 -1.3956
  476MOL0     H62804   1.583   4.449   7.209 -0.4558 -2.9748 -0.4446
  476MOL0     H62805   1.760   4.504   7.215  0.9730 -0.8899  0.6795
  476MOL0     H62806   1.662   4.463   6.988 -2.7940 -0.6135 -0.3104
  476MOL0     H62807   1.651   4.292   7.021 -0.1106  0.1351  3.7619
  476MOL0     H62808   1.919   4.433   7.020 -3.1582  2.6129  0.3508
  476MOL0     H62809   1.857   4.325   6.893 -1.1890 -1.6547  0.6928
  476MOL0     H62810   1.935   4.213   7.163 -2.3066 -0.8001  1.1720
  476MOL0     H62811   1.837   4.133   7.038 -3.5054  3.3888  0.5667
  476MOL0     H62812   2.104   4.260   6.978 -0.0290  0.7195  2.8044
  476MOL0     H62813   2.027   4.130   6.887  1.0366 -0.8098  1.1702
  476MOL0     H62814   1.411   4.173   7.791  0.1959 -3.2271  2.2023
  476MOL0     H62815   1.270   3.982   7.862  0.4029  2.9911  1.2338
  476MOL0     H62816   1.125   3.498   7.803 -2.0845  2.9480 -1.5948
  476MOL0     H62817   1.001   3.350   7.945  3.0272  0.1102  1.0425
  476MOL0     H62818   1.460   4.609   8.025 -0.4925 -0.7641 -0.8222
  476MOL0     H62819   1.470   4.847   7.970  0.7786 -0.4648  0.2608
  476MOL0     H62820   1.467   5.186   7.904  0.9409 -1.4384 -3.1996
  476MOL0     H62821   1.480   5.451   7.854  1.4083 -1.1405 -1.4378
  476MOL0     H62822   1.132   5.671   7.703 -2.3479  1.5554 -4.4638
  476MOL0     H62823   1.188   5.582   7.557 -1.2201 -1.1475  0.8406
  476MOL0     H62824   1.164   5.835   7.546 -0.9367 -0.3107 -0.4891
  476MOL0     H62825   1.288   5.837   7.676 -1.3455 -1.3156  0.4659
  476MOL0     H62826   1.317   5.705   7.385 -0.1391  1.6689 -1.8727
  476MOL0     H62827   1.452   5.731   7.508 -1.6437 -2.5521  2.3543
  476MOL0     H62828   1.444   5.873   7.319 -0.7242  0.1787 -1.6069
  476MOL0     H62829   1.286   5.933   7.354  1.4679  0.7772 -0.3786
  476MOL0     H62830   1.489   6.146   7.646  2.2380 -0.0490 -1.7758
  476MOL0     H62831   1.100   5.424   7.679 -0.3341 -1.5848 -1.8714
  476MOL0     H62832   1.088   5.177   7.722  2.8250 -2.5870  0.3282
  477MOL0     O62833   0.246   0.035   2.761  0.4388 -0.1011  0.6873
  477MOL0     C62834   0.288   0.150   2.737 -0.4650 -0.4060 -0.8116
  477MOL0     O62835   0.282   0.214   2.621  0.1054  0.3272 -0.0739
  477MOL0     C62836   0.215   0.163   2.511 -0.0435 -0.0729 -0.3180
  477MOL0     C62837   0.075   0.156   2.514  0.3769  0.1755  0.1121
  477MOL0     C62838  -0.001   0.117   2.406  0.9116  0.9437 -1.0213
  477MOL0     C62839   0.064   0.080   2.289  1.1016 -0.1408 -0.7959
  477MOL0     O62840  -0.022   0.068   2.180 -0.2006  0.0946  0.3000
  477MOL0     C62841   0.030   0.052   2.048  0.3745  0.2549  0.0150
  477MOL0     C62842  -0.076   0.030   1.948  0.9323  0.4824  0.2130
  477MOL0     C62843  -0.153   0.168   1.933 -0.8641  0.2811  0.4866
  477MOL0     C62844  -0.266   0.145   1.832 -0.3491 -0.4668  0.7438
  477MOL0     C62845  -0.268   0.253   1.717  0.2825 -0.1822 -1.3052
  477MOL0     C62846  -0.314   0.385   1.787 -0.1541 -0.7345 -0.0443
  477MOL0     C62847  -0.463   0.423   1.735 -0.7103 -0.5268 -0.0113
  477MOL0     C62848  -0.527   0.496   1.858  0.6587 -1.5417  0.1800
  477MOL0     N62849  -0.578   0.394   1.951 -0.6257  0.5411  0.3396
  477MOL0     C62850  -0.530   0.378   2.078 -0.7024 -0.6123 -0.4896
  477MOL0     C62851  -0.573   0.260   2.110  0.7552 -0.6277 -0.2646
  477MOL0     C62852  -0.549   0.174   2.227 -0.3883  0.3074 -0.4532
  477MOL0     C62853  -0.469   0.248   2.338  0.1507 -0.3599  0.6070
  477MOL0     C62854  -0.453   0.194   2.482 -0.9233 -0.3460 -0.3410
  477MOL0     C62855  -0.364   0.296   2.558 -0.4792  0.1179 -0.1181
  477MOL0     O62856  -0.324   0.224   2.680 -0.0975  0.3995 -1.3397
  477MOL0     C62857  -0.236   0.285   2.761  0.9147  0.6250  1.1639
  477MOL0     C62858  -0.254   0.415   2.811  0.7316 -0.0652 -0.1009
  477MOL0     C62859  -0.156   0.462   2.900  0.2730 -0.6381 -0.5337
  477MOL0     C62860  -0.061   0.384   2.949 -0.0052  0.4095  0.1366
  477MOL0     C62861   0.046   0.438   3.040  0.5053 -0.1509 -0.0541
  477MOL0     O62862   0.044   0.571   3.074  0.0957  0.5302  0.1292
  477MOL0     C62863   0.130   0.621   3.173 -0.8977 -0.7166 -0.1544
  477MOL0     C62864   0.160   0.757   3.149  0.0699  0.1173  0.6339
  477MOL0     C62865   0.253   0.824   3.223  0.3383 -0.8752 -0.4559
  477MOL0     C62866   0.313   0.766   3.335  0.3065 -0.0164  1.0043
  477MOL0     O62867   0.394   0.844   3.412 -0.0566  0.3676  0.5406
  477MOL0     C62868   0.369   0.858   3.549  0.0357  0.3610  0.3780
  477MOL0     C62869   0.494   0.841   3.634  0.0017  0.4866  0.1417
  477MOL0     C62870   0.516   0.699   3.679  0.2744 -0.3237 -0.0021
  477MOL0     C62871   0.633   0.688   3.776 -0.5106  0.7321 -0.6610
  477MOL0     C62872   0.668   0.547   3.792 -0.1265  0.4599 -0.1472
  477MOL0     C62873   0.790   0.508   3.883  0.6461 -1.1378 -1.1827
  477MOL0     C62874   0.757   0.574   4.020 -0.2922  0.0322 -0.4179
  477MOL0     C62875   0.860   0.519   4.131  0.1123 -0.6105 -0.1558
  477MOL0    Cl62876   1.029   0.557   4.085 -0.5697  0.4320 -0.2026
  477MOL0     C62877   0.291   0.628   3.350 -0.0782  0.2402  0.0140
  477MOL0     C62878   0.196   0.561   3.276 -0.3431  0.1803 -0.3345
  477MOL0     O62879   0.132   0.356   3.082  0.7231  0.3427  0.3386
  477MOL0     C62880  -0.049   0.249   2.898  1.1056  0.0753 -0.3837
  477MOL0     C62881  -0.130   0.203   2.807  0.0181  1.3566  0.1306
  477MOL0     N62882  -0.665   0.212   2.014  0.8993 -0.9037 -0.0700
  477MOL0     N62883  -0.675   0.305   1.922  0.1592  0.1457  0.2772
  477MOL0     C62884   0.204   0.062   2.299 -0.9687 -0.0639 -0.0534
  477MOL0     C62885   0.280   0.112   2.402 -0.0293 -0.7059  0.0715
  477MOL0     C62886   0.347   0.229   2.858  1.1716  0.3428 -0.4908
  477MOL0     C62887   0.369   0.177   2.984  0.3783  0.4795 -0.1092
  477MOL0     C62888   0.430   0.248   3.087  0.6709 -0.5292 -0.4397
  477MOL0     C62889   0.475   0.374   3.054  0.1511  0.5739 -0.4210
  477MOL0     O62890   0.546   0.456   3.138 -0.2566  0.8499 -0.7384
  477MOL0     C62891   0.606   0.392   3.261  0.4322 -0.0521  1.5120
  477MOL0     C62892   0.715   0.478   3.318 -0.1712  0.2011  0.1784
  477MOL0     C62893   0.703   0.627   3.335  1.4665  0.4721  0.8276
  477MOL0     C62894   0.791   0.685   3.436  0.2965  0.3978 -1.8193
  477MOL0     C62895   0.918   0.695   3.368 -0.2015 -0.0586  0.7342
  477MOL0     C62896   1.020   0.701   3.295  0.0492  0.2191  0.3563
  477MOL0     C62897   0.441   0.437   2.933 -0.3515 -0.3837 -0.0208
  477MOL0     C62898   0.382   0.363   2.835  1.2193 -0.4995  0.8802
  477MOL0     H62899   0.023   0.202   2.598  0.7457 -0.6035  0.7762
  477MOL0     H62900  -0.108   0.129   2.394  0.5070 -0.9148  0.2960
  477MOL0     H62901   0.106  -0.026   2.041  0.3593  0.3739 -3.0597
  477MOL0     H62902   0.086   0.144   2.028  1.6673 -0.9593 -2.3052
  477MOL0     H62903  -0.139  -0.055   1.974 -1.1454  0.7532 -3.2779
  477MOL0     H62904  -0.027   0.009   1.852  2.4004 -0.1656  1.0608
  477MOL0     H62905  -0.085   0.247   1.899  0.7228 -1.3959 -0.3827
  477MOL0     H62906  -0.192   0.187   2.034  4.4154  2.9289  2.4456
  477MOL0     H62907  -0.260   0.054   1.771 -5.4470  1.2204 -3.0046
  477MOL0     H62908  -0.359   0.136   1.889 -0.3752  1.2460  1.0362
  477MOL0     H62909  -0.333   0.211   1.640 -1.3403  0.1966 -0.1989
  477MOL0     H62910  -0.167   0.266   1.677  0.4913 -1.5210 -1.2715
  477MOL0     H62911  -0.242   0.467   1.778 -3.0481  1.8500 -1.7699
  477MOL0     H62912  -0.328   0.363   1.893 -0.6558 -4.2926 -0.7253
  477MOL0     H62913  -0.474   0.488   1.648 -4.7363  0.4547  1.0518
  477MOL0     H62914  -0.515   0.329   1.712  2.3825 -2.5320  0.5440
  477MOL0     H62915  -0.609   0.554   1.814 -0.3019 -3.2927 -0.4400
  477MOL0     H62916  -0.463   0.562   1.917 -0.1776 -1.0472  0.5581
  477MOL0     H62917  -0.453   0.439   2.124  0.3110 -1.5412 -0.8908
  477MOL0     H62918  -0.500   0.082   2.194  0.1857  0.2362  0.5637
  477MOL0     H62919  -0.650   0.165   2.268 -1.2813  1.2602 -2.3587
  477MOL0     H62920  -0.510   0.349   2.343 -1.9034 -1.0576 -0.6063
  477MOL0     H62921  -0.367   0.261   2.301  0.2207 -2.2909  0.0003
  477MOL0     H62922  -0.552   0.183   2.528  0.4649 -1.2382  2.7037
  477MOL0     H62923  -0.399   0.099   2.480  0.5881  0.4719 -0.0727
  477MOL0     H62924  -0.425   0.386   2.573  0.5681  0.8000  0.1458
  477MOL0     H62925  -0.279   0.324   2.495  0.0682 -4.8469 -2.0495
  477MOL0     H62926  -0.338   0.470   2.770 -0.4298 -1.2750  0.5681
  477MOL0     H62927  -0.166   0.562   2.940  2.4531 -0.9257  0.8760
  477MOL0     H62928   0.112   0.808   3.066 -3.1020 -1.0383  1.6305
  477MOL0     H62929   0.257   0.930   3.198 -2.1721  0.5475  3.9874
  477MOL0     H62930   0.286   0.793   3.580 -0.7634  0.8139 -0.7226
  477MOL0     H62931   0.315   0.951   3.571 -3.3784 -0.6305 -2.7479
  477MOL0     H62932   0.494   0.903   3.724  1.8286  2.0228 -0.8466
  477MOL0     H62933   0.579   0.875   3.575 -1.8919  0.0757 -3.1124
  477MOL0     H62934   0.529   0.644   3.585 -2.2413  0.8986 -1.1929
  477MOL0     H62935   0.422   0.675   3.729 -0.1763  0.5732 -0.3833
  477MOL0     H62936   0.720   0.737   3.731 -1.5434  2.7780 -0.5521
  477MOL0     H62937   0.622   0.734   3.875  0.7568 -2.6572  1.2106
  477MOL0     H62938   0.675   0.494   3.697 -1.1561 -0.3660  0.2050
  477MOL0     H62939   0.590   0.486   3.841 -0.4071 -0.8415 -2.0867
  477MOL0     H62940   0.887   0.548   3.851  0.3315  0.4530 -0.2487
  477MOL0     H62941   0.803   0.401   3.903  0.8916 -0.5173  2.8923
  477MOL0     H62942   0.781   0.681   4.015  0.7942 -0.0167  2.0082
  477MOL0     H62943   0.653   0.562   4.052  0.1345  1.8292  2.0265
  477MOL0     H62944   0.839   0.413   4.150 -1.0715  0.0132  2.4512
  477MOL0     H62945   0.838   0.575   4.222 -3.5268 -1.1543 -0.5604
  477MOL0     H62946   0.351   0.585   3.430 -0.0474 -0.4190 -0.3551
  477MOL0     H62947   0.181   0.454   3.284  0.9303  0.0374  0.5638
  477MOL0     H62948   0.035   0.186   2.926  2.4352  1.8086 -0.3242
  477MOL0     H62949  -0.123   0.100   2.774 -0.8938  1.2329  0.3009
  477MOL0     H62950   0.243   0.016   2.209 -1.7970  0.3080 -0.6172
  477MOL0     H62951   0.388   0.118   2.403  0.0998 -2.5455  0.5717
  477MOL0     H62952   0.345   0.072   3.000  1.6042  0.0293 -1.0349
  477MOL0     H62953   0.427   0.193   3.181 -1.3838 -1.3805 -0.9459
  477MOL0     H62954   0.650   0.297   3.231 -1.5650 -1.2652  2.2681
  477MOL0     H62955   0.526   0.380   3.334 -1.3248 -0.2199 -0.3321
  477MOL0     H62956   0.727   0.441   3.420  1.5504  1.6174  0.5284
  477MOL0     H62957   0.801   0.461   3.253 -0.4615  3.9033 -1.4037
  477MOL0     H62958   0.600   0.635   3.371  1.4191 -3.1969  1.9686
  477MOL0     H62959   0.730   0.671   3.238  2.1704 -0.2623  0.6765
  477MOL0     H62960   0.760   0.784   3.467  1.1723 -0.1187  0.9425
  477MOL0     H62961   0.793   0.624   3.527 -0.4592  3.1062  0.1308
  477MOL0     H62962   1.105   0.727   3.235 -2.7205  3.1785 -2.7565
  477MOL0     H62963   0.452   0.542   2.909 -0.9929 -0.6648 -1.7517
  477MOL0     H62964   0.358   0.408   2.739 -0.9128 -0.0878  1.5486
  478MOL0     O62965   3.525   4.656   3.065 -0.8318 -0.0576  0.0261
  478MOL0     C62966   3.411   4.633   3.029 -0.4353  0.2637 -0.1120
  478MOL0     O62967   3.302   4.706   3.066 -0.3383 -0.3391  0.6623
  478MOL0     C62968   3.345   4.819   3.142  0.3313  0.4997 -0.4595
  478MOL0     C62969   3.362   4.943   3.087  0.7188 -1.4587 -0.1526
  478MOL0     C62970   3.407   5.060   3.158  0.3970  0.2993  0.4306
  478MOL0     C62971   3.441   5.041   3.293 -0.2596  0.7478  0.4939
  478MOL0     O62972   3.488   5.158   3.348 -0.1697 -1.3117  0.2637
  478MOL0     C62973   3.482   5.177   3.492 -0.5374 -0.9910  0.7443
  478MOL0     C62974   3.596   5.270   3.536 -0.3275  0.1721  0.7292
  478MOL0     C62975   3.594   5.406   3.460 -0.0748  0.1058 -0.5662
  478MOL0     C62976   3.644   5.514   3.561 -0.0733 -0.0108  0.0683
  478MOL0     C62977   3.597   5.657   3.528 -0.0896 -0.3887 -0.4931
  478MOL0     C62978   3.648   5.724   3.401 -0.4563 -0.5370 -0.0101
  478MOL0     C62979   3.799   5.733   3.408 -0.6916  0.0292  0.3287
  478MOL0     C62980   3.853   5.854   3.336  0.7049  0.2925  0.9897
  478MOL0     N62981   3.948   5.927   3.406  0.1183  0.0789  0.1575
  478MOL0     C62982   3.995   6.054   3.370 -0.6982  0.1223  0.1346
  478MOL0     C62983   4.107   6.074   3.442 -0.0225  0.6608  0.1864
  478MOL0     C62984   4.196   6.204   3.432 -0.0750  0.7959  0.2535
  478MOL0     C62985   4.259   6.225   3.302 -0.3477 -1.3735  0.4158
  478MOL0     C62986   4.270   6.377   3.255  0.6932  0.4604 -0.8598
  478MOL0     C62987   4.390   6.403   3.165  0.8942 -0.2688 -0.0038
  478MOL0     O62988   4.353   6.366   3.036  0.5941  0.2754  0.0350
  478MOL0     C62989   4.392   6.428   2.926  1.4677 -0.0297 -0.4149
  478MOL0     C62990   4.309   6.442   2.817  0.2301 -0.1223 -0.1373
  478MOL0     C62991   4.354   6.506   2.700 -0.1927  0.3047  0.7563
  478MOL0     C62992   4.479   6.560   2.688 -0.5029  0.2466 -0.2035
  478MOL0     C62993   4.519   6.633   2.570 -0.3737 -0.7906  0.5910
  478MOL0     O62994   4.635   6.711   2.587  0.0745 -0.2387 -0.5032
  478MOL0     C62995   4.652   6.809   2.485  0.7835  0.5197  0.0788
  478MOL0     C62996   4.618   6.940   2.516  0.3207  0.5903  0.7136
  478MOL0     C62997   4.622   7.034   2.410  0.0495 -0.5066 -0.1426
  478MOL0     C62998   4.664   7.004   2.285  0.0430 -1.0408  0.3173
  478MOL0     O62999   4.658   7.099   2.181 -0.5661 -0.2446 -0.0155
  478MOL0     C63000   4.684   7.239   2.219  0.7206 -0.3863  0.0444
  478MOL0     C63001   4.715   7.317   2.093  0.9953 -0.8012  0.6999
  478MOL0     C63002   4.843   7.273   2.023  1.0827 -0.0674 -0.2081
  478MOL0     C63003   4.894   7.366   1.914 -0.0453 -0.8260 -0.2076
  478MOL0     C63004   4.926   7.503   1.985 -0.2298 -0.0022 -0.3389
  478MOL0     C63005   5.032   7.598   1.916  0.0973  0.7666 -0.8368
  478MOL0     C63006   4.990   7.630   1.784  0.4514 -0.6036  0.2766
  478MOL0     C63007   4.877   7.742   1.778 -0.4264  0.2439  0.4704
  478MOL0    Cl63008   4.877   7.807   1.602 -0.2011 -0.3027 -0.3939
  478MOL0     C63009   4.703   6.876   2.252  1.0104 -0.6538  0.4226
  478MOL0     C63010   4.689   6.781   2.348 -0.0077  0.0766 -0.2809
  478MOL0     O63011   4.430   6.643   2.486 -1.0968 -0.4674  0.6925
  478MOL0     C63012   4.565   6.538   2.801 -0.4505  0.4412  0.1132
  478MOL0     C63013   4.521   6.471   2.918  0.6129  0.4428  0.0043
  478MOL0     N63014   4.131   5.967   3.510  0.2734  0.2532  0.2591
  478MOL0     N63015   4.047   5.876   3.484  0.4823 -0.3437  0.8690
  478MOL0     C63016   3.433   4.914   3.357  0.8262  0.3527  0.3483
  478MOL0     C63017   3.376   4.803   3.285  1.3475 -0.2511 -0.5799
  478MOL0     C63018   3.384   4.515   2.938  0.3303 -0.0534  0.7564
  478MOL0     C63019   3.251   4.477   2.919 -0.7779  0.0772 -0.0742
  478MOL0     C63020   3.220   4.370   2.832 -1.1528 -0.0110 -0.1793
  478MOL0     C63021   3.318   4.302   2.768  0.2111  1.2681 -0.9979
  478MOL0     O63022   3.278   4.196   2.693 -0.0687 -0.1681  0.3952
  478MOL0     C63023   3.350   4.073   2.715  0.3754 -0.4083  0.7203
  478MOL0     C63024   3.314   4.013   2.852  2.2906 -0.5488  0.2002
  478MOL0     C63025   3.342   3.856   2.858 -0.2101  0.0652  0.4654
  478MOL0     C63026   3.493   3.823   2.863 -0.2347 -0.6290 -0.5575
  478MOL0     C63027   3.535   3.690   2.832 -0.1031 -0.7331  0.1726
  478MOL0     C63028   3.560   3.577   2.814 -1.3441 -0.6041 -0.3919
  478MOL0     C63029   3.447   4.339   2.781 -0.0407  0.6872 -0.3125
  478MOL0     C63030   3.479   4.438   2.867 -0.9322 -0.0376  0.7166
  478MOL0     H63031   3.335   4.964   2.984  0.1778  0.3163  0.3134
  478MOL0     H63032   3.416   5.161   3.120  2.2741  0.4840  1.2730
  478MOL0     H63033   3.494   5.084   3.548  2.8984 -0.5500  1.0055
  478MOL0     H63034   3.385   5.228   3.500  0.3899  1.6540 -2.3705
  478MOL0     H63035   3.692   5.223   3.515  0.1499  0.4103  2.2646
  478MOL0     H63036   3.589   5.286   3.644  0.8612 -0.2012  0.8658
  478MOL0     H63037   3.489   5.428   3.435 -1.0942 -3.3967  0.0325
  478MOL0     H63038   3.654   5.409   3.369 -0.9532 -0.0479 -1.1658
  478MOL0     H63039   3.609   5.505   3.664 -0.0336  0.0472  0.0870
  478MOL0     H63040   3.754   5.516   3.561 -0.0140 -1.6856  0.1359
  478MOL0     H63041   3.623   5.722   3.612  1.6526  0.3642 -1.5437
  478MOL0     H63042   3.489   5.649   3.517 -0.2582  1.5527 -0.5843
  478MOL0     H63043   3.605   5.824   3.389  0.8583  0.0980  0.4287
  478MOL0     H63044   3.619   5.674   3.308  3.3508 -1.1253 -1.0627
  478MOL0     H63045   3.818   5.752   3.514  0.5831 -0.3118  0.1746
  478MOL0     H63046   3.854   5.648   3.366  0.7880 -0.3287  2.7959
  478MOL0     H63047   3.770   5.920   3.311 -1.8409 -1.7865  3.2713
  478MOL0     H63048   3.904   5.830   3.242  1.6617  1.2723  1.2371
  478MOL0     H63049   3.960   6.132   3.304 -0.1794 -3.1109 -4.3975
  478MOL0     H63050   4.279   6.211   3.503  1.5928 -1.0476 -1.3879
  478MOL0     H63051   4.129   6.291   3.438 -0.4739  0.6989 -2.0603
  478MOL0     H63052   4.199   6.183   3.220 -0.2298  1.7016 -1.3824
  478MOL0     H63053   4.348   6.162   3.304 -1.5298 -3.1585 -0.5563
  478MOL0     H63054   4.179   6.394   3.198  1.6093  0.4202 -2.3930
  478MOL0     H63055   4.273   6.443   3.342  0.5179  1.2696 -1.4599
  478MOL0     H63056   4.480   6.347   3.191  0.1764 -3.1228 -3.0362
  478MOL0     H63057   4.403   6.512   3.172 -2.9104  0.2308  4.2550
  478MOL0     H63058   4.213   6.391   2.813  0.1282  0.1298 -1.9078
  478MOL0     H63059   4.274   6.514   2.626 -2.1195 -1.7931  2.4658
  478MOL0     H63060   4.594   6.965   2.619  4.6104  0.2405  1.9994
  478MOL0     H63061   4.579   7.131   2.434 -2.1554 -1.4555  0.0394
  478MOL0     H63062   4.774   7.247   2.281  1.2769 -1.0793 -0.6421
  478MOL0     H63063   4.603   7.289   2.273  1.4455 -0.8873  1.6504
  478MOL0     H63064   4.721   7.425   2.113  1.1651 -0.6794  0.0165
  478MOL0     H63065   4.630   7.307   2.025 -2.0550  0.7835  3.9775
  478MOL0     H63066   4.820   7.175   1.980 -2.2699  0.6990 -0.4681
  478MOL0     H63067   4.916   7.257   2.103 -1.0428  0.3619  1.9687
  478MOL0     H63068   4.985   7.313   1.884  0.5802  0.2780 -0.3484
  478MOL0     H63069   4.825   7.370   1.829 -1.8353 -0.7867  1.1980
  478MOL0     H63070   4.964   7.473   2.083 -0.1206  0.9617 -0.0747
  478MOL0     H63071   4.834   7.560   1.999 -1.4372 -2.3896  2.2035
  478MOL0     H63072   5.120   7.535   1.902 -0.7796 -0.3226 -1.6532
  478MOL0     H63073   5.038   7.687   1.979 -3.4325  0.2129  0.5306
  478MOL0     H63074   5.070   7.683   1.731 -0.1241  1.0116  0.9544
  478MOL0     H63075   4.959   7.544   1.724 -1.0400  0.9722 -1.3602
  478MOL0     H63076   4.892   7.828   1.844  3.3377  1.3709 -1.5627
  478MOL0     H63077   4.776   7.704   1.797 -0.7270  0.4301 -0.6491
  478MOL0     H63078   4.728   6.851   2.150 -1.1076 -2.3115  0.2221
  478MOL0     H63079   4.733   6.685   2.323 -1.8965 -0.0817 -3.6794
  478MOL0     H63080   4.671   6.562   2.802  0.0684 -1.6214  0.0865
  478MOL0     H63081   4.593   6.460   2.997  2.6874 -1.8386 -2.0417
  478MOL0     H63082   3.482   4.901   3.453  2.9320 -0.6175 -0.7852
  478MOL0     H63083   3.373   4.705   3.331 -0.8654  0.5064  1.0675
  478MOL0     H63084   3.167   4.529   2.963 -0.5905  0.8083 -0.5551
  478MOL0     H63085   3.117   4.339   2.839 -1.5431  1.4582  1.3653
  478MOL0     H63086   3.458   4.084   2.699  0.5626 -1.6151  1.0619
  478MOL0     H63087   3.310   4.002   2.642  1.7666 -2.0556  1.4798
  478MOL0     H63088   3.357   4.066   2.938  0.4917 -1.7943  1.9444
  478MOL0     H63089   3.206   4.012   2.862  2.1994 -3.2851 -0.2509
  478MOL0     H63090   3.295   3.812   2.769  0.4973  1.0581 -0.4158
  478MOL0     H63091   3.285   3.810   2.940 -1.6178  1.9098  0.5835
  478MOL0     H63092   3.546   3.885   2.790 -0.3140 -0.6697 -0.6501
  478MOL0     H63093   3.529   3.842   2.964 -2.7307 -1.0949  0.4865
  478MOL0     H63094   3.605   3.481   2.796  1.1061  0.1165  1.3593
  478MOL0     H63095   3.528   4.288   2.731 -0.5751 -0.5370  0.0303
  478MOL0     H63096   3.583   4.468   2.871 -0.0946 -2.5215 -0.5695
  479MOL0     O63097   3.945   4.852   4.587  0.8464 -0.3148  0.3641
  479MOL0     C63098   4.001   4.826   4.692 -0.3297  0.4623 -0.0750
  479MOL0     O63099   3.938   4.798   4.815  0.5828  0.2477 -0.6288
  479MOL0     C63100   3.801   4.760   4.813  1.8679  0.8445 -0.0174
  479MOL0     C63101   3.718   4.804   4.916  0.1241  0.3977 -0.4705
  479MOL0     C63102   3.595   4.740   4.935 -0.3927 -0.9453 -0.3520
  479MOL0     C63103   3.548   4.656   4.843 -0.0939 -0.7543  0.7472
  479MOL0     O63104   3.422   4.606   4.865  0.5376 -0.2204  0.1495
  479MOL0     C63105   3.409   4.550   4.999  0.3052 -0.2400  0.0491
  479MOL0     C63106   3.279   4.466   5.004  0.6938  0.6763  0.0989
  479MOL0     C63107   3.292   4.306   4.978 -0.1899 -0.6058  0.0090
  479MOL0     C63108   3.302   4.231   5.114  0.4142  0.0534  0.3072
  479MOL0     C63109   3.370   4.092   5.098  0.1821 -1.0587 -0.5232
  479MOL0     C63110   3.520   4.119   5.123 -0.7233 -1.1450 -0.1409
  479MOL0     C63111   3.608   3.997   5.095 -0.3657 -0.3156  0.1447
  479MOL0     C63112   3.590   3.897   5.209  0.5145 -0.0068 -0.6063
  479MOL0     N63113   3.496   3.790   5.193  0.6684  0.0674  0.3409
  479MOL0     C63114   3.454   3.725   5.293 -0.7302 -0.4516  0.1175
  479MOL0     C63115   3.405   3.611   5.236  0.2011 -0.0197  0.0173
  479MOL0     C63116   3.362   3.488   5.308 -0.6649 -0.0819 -0.3321
  479MOL0     C63117   3.480   3.379   5.308  0.3713 -0.1413  0.0193
  479MOL0     C63118   3.497   3.294   5.432 -0.1876 -0.3126 -0.2582
  479MOL0     C63119   3.613   3.193   5.391 -0.1604  0.3461 -0.8621
  479MOL0     O63120   3.738   3.261   5.376  0.4369  0.4517 -0.1843
  479MOL0     C63121   3.851   3.179   5.373  0.1776 -0.9733  0.2506
  479MOL0     C63122   3.974   3.244   5.378 -0.1105  0.6578 -0.2076
  479MOL0     C63123   4.090   3.173   5.394 -0.3460  1.2786 -0.0360
  479MOL0     C63124   4.096   3.034   5.381 -0.0499  1.4099  0.4561
  479MOL0     C63125   4.217   2.967   5.410  0.4443 -0.5808 -0.1235
  479MOL0     O63126   4.214   2.834   5.401  0.0855  0.2718 -0.2788
  479MOL0     C63127   4.336   2.780   5.399 -0.6522  0.8194  0.8532
  479MOL0     C63128   4.387   2.735   5.274  0.6542 -1.0206 -0.2683
  479MOL0     C63129   4.513   2.671   5.270  0.8375  0.0779 -0.3418
  479MOL0     C63130   4.568   2.623   5.387  0.1527  0.4095  0.1125
  479MOL0     O63131   4.689   2.555   5.385  0.0829  0.0869  0.1330
  479MOL0     C63132   4.741   2.481   5.266  0.4252 -0.3013 -0.0953
  479MOL0     C63133   4.688   2.331   5.253 -0.8914 -0.5316 -0.3746
  479MOL0     C63134   4.712   2.284   5.109 -0.1947 -0.0157 -0.0029
  479MOL0     C63135   4.690   2.133   5.077  0.1871 -0.0581  0.5069
  479MOL0     C63136   4.794   2.041   5.131 -0.3076 -0.2022 -0.4290
  479MOL0     C63137   4.788   1.898   5.072 -0.5549  0.1980 -0.6768
  479MOL0     C63138   4.905   1.806   5.128  0.2876 -0.4350  1.0689
  479MOL0     C63139   4.900   1.664   5.085 -0.9609  0.7207 -0.5969
  479MOL0    Cl63140   4.795   1.584   5.211  0.0173 -0.5114 -0.5572
  479MOL0     C63141   4.511   2.656   5.505 -0.0415  0.6119 -0.1354
  479MOL0     C63142   4.402   2.738   5.510 -0.3562 -0.6306 -0.4341
  479MOL0     O63143   4.311   3.038   5.429  0.0501  0.0881  1.0841
  479MOL0     C63144   3.975   2.968   5.352  0.3169  0.3162 -0.0251
  479MOL0     C63145   3.852   3.042   5.342 -0.4504 -1.2249  0.8613
  479MOL0     N63146   3.415   3.616   5.097  0.5982 -0.3572 -0.1111
  479MOL0     N63147   3.454   3.737   5.077  0.0874 -0.2743  0.2062
  479MOL0     C63148   3.635   4.612   4.733 -0.4344  0.1846  0.7551
  479MOL0     C63149   3.757   4.663   4.718 -0.2166 -0.2546 -0.5629
  479MOL0     C63150   4.137   4.857   4.719 -0.5826 -0.9134 -1.1263
  479MOL0     C63151   4.225   4.783   4.792  0.4826 -0.4158 -0.4949
  479MOL0     C63152   4.356   4.828   4.817  0.3191 -0.2519 -0.6791
  479MOL0     C63153   4.400   4.946   4.755 -0.1135  0.1506 -0.5048
  479MOL0     O63154   4.528   5.004   4.764  0.2080 -0.1558 -0.5437
  479MOL0     C63155   4.606   4.966   4.883  0.1472 -0.7025  0.6440
  479MOL0     C63156   4.671   5.095   4.911 -0.8652 -0.1018  0.3184
  479MOL0     C63157   4.581   5.219   4.951  0.6577 -0.1333 -0.1908
  479MOL0     C63158   4.468   5.188   5.044  0.0513  1.6648  0.0923
  479MOL0     C63159   4.409   5.301   5.111 -0.7292 -0.7119 -0.5533
  479MOL0     C63160   4.353   5.397   5.161  0.7788  0.0283 -1.1803
  479MOL0     C63161   4.319   5.019   4.670  0.7580  1.5298 -0.0216
  479MOL0     C63162   4.182   4.974   4.653 -0.2521 -0.8129 -0.0561
  479MOL0     H63163   3.766   4.869   4.988  4.5990 -2.5849 -0.3633
  479MOL0     H63164   3.534   4.775   5.017  0.9460  0.0676  0.2542
  479MOL0     H63165   3.400   4.629   5.074 -0.9989  0.4783 -0.8341
  479MOL0     H63166   3.492   4.479   5.011  0.8078  0.3468  0.1218
  479MOL0     H63167   3.189   4.502   4.953 -0.6588 -0.0734  1.8322
  479MOL0     H63168   3.254   4.477   5.110  2.5945  0.8282  0.5663
  479MOL0     H63169   3.382   4.300   4.916  0.2689  2.0042  0.3067
  479MOL0     H63170   3.206   4.272   4.921 -0.2320  1.2498 -1.1286
  479MOL0     H63171   3.356   4.295   5.184  1.3435 -0.1870 -0.1730
  479MOL0     H63172   3.201   4.232   5.154 -0.0150  0.2754 -0.7452
  479MOL0     H63173   3.363   4.049   4.998  2.8613  0.3028 -1.4035
  479MOL0     H63174   3.337   4.032   5.183  1.8165  0.0121  0.9518
  479MOL0     H63175   3.544   4.167   5.218  0.7135  0.1471 -1.0981
  479MOL0     H63176   3.552   4.191   5.046  1.8693 -1.0219  0.9469
  479MOL0     H63177   3.588   3.942   5.002 -0.0981  1.0496 -0.7458
  479MOL0     H63178   3.711   4.031   5.087 -0.4587 -0.2144 -0.7124
  479MOL0     H63179   3.570   3.947   5.305 -1.0088  0.4774 -1.1420
  479MOL0     H63180   3.687   3.850   5.224  0.3435  0.2071  1.5526
  479MOL0     H63181   3.463   3.742   5.400 -0.2958 -1.1876  0.2051
  479MOL0     H63182   3.271   3.448   5.263 -3.8383  1.3900  4.0449
  479MOL0     H63183   3.338   3.523   5.409  0.2828 -3.6155  1.2619
  479MOL0     H63184   3.574   3.433   5.298 -0.7468  2.1267  0.9048
  479MOL0     H63185   3.476   3.322   5.215 -0.4278 -2.5245  1.4378
  479MOL0     H63186   3.528   3.364   5.510  4.1002 -2.1593 -0.0563
  479MOL0     H63187   3.409   3.236   5.463 -0.5340  0.4090  0.1227
  479MOL0     H63188   3.582   3.150   5.296  1.0246  0.8531 -1.4949
  479MOL0     H63189   3.619   3.117   5.470  3.7642  1.2290 -0.1230
  479MOL0     H63190   3.994   3.350   5.395  2.3501  0.2768 -0.3716
  479MOL0     H63191   4.184   3.227   5.402 -0.2349  1.5264 -2.2457
  479MOL0     H63192   4.337   2.762   5.182  0.5376 -0.6844 -0.1089
  479MOL0     H63193   4.545   2.657   5.168 -1.4709 -1.3587 -0.9352
  479MOL0     H63194   4.850   2.481   5.268  0.5127  2.5611 -0.8798
  479MOL0     H63195   4.714   2.534   5.174  1.0108 -1.1877 -0.7863
  479MOL0     H63196   4.580   2.323   5.271 -0.6601  0.7880  2.1003
  479MOL0     H63197   4.721   2.249   5.316  0.2263 -2.8823 -3.7515
  479MOL0     H63198   4.815   2.310   5.084 -1.0769 -0.1412 -4.6485
  479MOL0     H63199   4.658   2.345   5.036  0.0350  1.8640  1.3265
  479MOL0     H63200   4.595   2.089   5.110  1.2943 -1.8960  1.4313
  479MOL0     H63201   4.696   2.112   4.970 -0.4861 -2.5622  0.8856
  479MOL0     H63202   4.792   2.036   5.240  3.2584 -2.8990 -0.3078
  479MOL0     H63203   4.894   2.084   5.119 -0.8225  0.8762 -1.0509
  479MOL0     H63204   4.793   1.894   4.962 -0.9884 -2.2510 -0.6597
  479MOL0     H63205   4.690   1.863   5.104 -1.8099  3.1260 -0.9636
  479MOL0     H63206   4.999   1.855   5.100 -0.3344 -0.4959 -1.3331
  479MOL0     H63207   4.892   1.812   5.237  1.1596  1.1937  1.1160
  479MOL0     H63208   5.001   1.621   5.089  0.7496  3.9386 -3.8124
  479MOL0     H63209   4.857   1.647   4.986  0.5862 -4.5774 -0.6557
  479MOL0     H63210   4.555   2.618   5.596 -2.1435 -2.4414 -0.2230
  479MOL0     H63211   4.361   2.776   5.603  1.7091  1.5530 -0.3151
  479MOL0     H63212   3.963   2.861   5.340 -2.1106  0.7754 -2.8072
  479MOL0     H63213   3.759   2.994   5.312  0.8427 -1.7370 -2.7350
  479MOL0     H63214   3.602   4.547   4.653 -1.0591 -1.3867  2.2149
  479MOL0     H63215   3.818   4.640   4.631  1.7488  5.7516 -1.1805
  479MOL0     H63216   4.186   4.696   4.843 -2.1763  0.6357 -0.5711
  479MOL0     H63217   4.408   4.773   4.894 -1.2364  0.3953  0.8931
  479MOL0     H63218   4.675   4.890   4.846  1.0539  0.4854 -0.1952
  479MOL0     H63219   4.549   4.920   4.964  1.3490 -2.8917  0.3163
  479MOL0     H63220   4.746   5.081   4.989 -1.6489  1.0702  1.3202
  479MOL0     H63221   4.720   5.138   4.823 -1.2495  0.6312  0.4531
  479MOL0     H63222   4.535   5.267   4.865  1.3279  1.0595  0.0971
  479MOL0     H63223   4.637   5.297   5.004 -0.7775  1.0241 -0.3296
  479MOL0     H63224   4.392   5.135   4.986  0.4083  1.6735 -0.3820
  479MOL0     H63225   4.505   5.119   5.121  0.4660  1.2195 -0.4931
  479MOL0     H63226   4.308   5.490   5.189  2.4665  0.6112 -0.2276
  479MOL0     H63227   4.349   5.110   4.620  1.9832  0.9858 -0.3023
  479MOL0     H63228   4.114   5.040   4.600 -0.2585  2.0981  3.1741
  480MOL0     O63229   4.848   7.659  11.185 -1.9659 -0.3636  0.0627
  480MOL0     C63230   4.753   7.731  11.210  0.3551 -0.1493  0.9272
  480MOL0     O63231   4.626   7.718  11.166  0.0352 -0.3995 -0.1863
  480MOL0     C63232   4.589   7.608  11.095  0.1602  0.2342 -0.8036
  480MOL0     C63233   4.607   7.480  11.146  0.4568 -0.4974  1.3234
  480MOL0     C63234   4.584   7.359  11.065  0.4112 -0.2762  0.1066
  480MOL0     C63235   4.538   7.377  10.938 -0.6538  0.1415 -0.7962
  480MOL0     O63236   4.509   7.259  10.879  0.0959  0.3481  0.3818
  480MOL0     C63237   4.545   7.240  10.745  0.3985 -0.1073 -0.7617
  480MOL0     C63238   4.523   7.086  10.713 -0.6764  0.5257 -0.2021
  480MOL0     C63239   4.538   7.054  10.559 -0.6583 -0.3176  0.0304
  480MOL0     C63240   4.499   6.921  10.500  0.4148 -0.5576 -0.2778
  480MOL0     C63241   4.586   6.811  10.550 -0.0385 -0.0212  0.5910
  480MOL0     C63242   4.523   6.676  10.520 -0.5565  0.6976 -0.0191
  480MOL0     C63243   4.602   6.566  10.597 -0.4880  0.0953 -0.9827
  480MOL0     C63244   4.607   6.578  10.758 -0.6272 -0.9741  0.5099
  480MOL0     N63245   4.476   6.606  10.824 -0.2773  0.1262  0.4644
  480MOL0     C63246   4.357   6.544  10.785 -0.2412 -0.3502  0.7014
  480MOL0     C63247   4.270   6.569  10.893 -0.2653 -0.1132 -0.7101
  480MOL0     C63248   4.126   6.526  10.923 -0.1066 -0.3486 -0.3468
  480MOL0     C63249   4.121   6.389  10.974 -1.2469 -0.2225 -0.1889
  480MOL0     C63250   3.984   6.317  10.980  0.2932 -0.7064 -1.5777
  480MOL0     C63251   3.882   6.366  10.871 -0.0593  0.5002  0.3938
  480MOL0     O63252   3.940   6.320  10.747  0.2761 -0.1246 -0.4647
  480MOL0     C63253   3.869   6.208  10.707 -0.4565  0.5876  0.2705
  480MOL0     C63254   3.735   6.209  10.672  0.3054  0.2526  0.1318
  480MOL0     C63255   3.673   6.084  10.639  0.7597  0.7374 -0.4640
  480MOL0     C63256   3.745   5.958  10.642  0.1272 -1.0913 -0.3512
  480MOL0     C63257   3.678   5.830  10.620 -0.4468 -1.2754  0.3766
  480MOL0     O63258   3.549   5.827  10.576  0.2820 -0.3108 -0.0569
  480MOL0     C63259   3.463   5.720  10.621 -0.8504  0.4834 -0.8575
  480MOL0     C63260   3.462   5.680  10.754  0.6878 -0.4388 -0.6650
  480MOL0     C63261   3.375   5.585  10.804  0.1730 -0.4402  0.4336
  480MOL0     C63262   3.285   5.519  10.712  0.2506 -0.2588  0.0946
  480MOL0     O63263   3.200   5.425  10.763 -0.5714  0.2501 -1.2276
  480MOL0     C63264   3.135   5.324  10.687  0.2826  1.3289  0.6987
  480MOL0     C63265   3.151   5.201  10.761 -0.2971 -0.6171  0.1902
  480MOL0     C63266   3.105   5.083  10.680  0.6434 -0.5110 -0.4847
  480MOL0     C63267   3.127   4.963  10.762  0.3335  0.1569  0.0150
  480MOL0     C63268   3.107   4.838  10.689 -0.7404  0.9684  0.2357
  480MOL0     C63269   2.978   4.817  10.612  0.2481 -0.2861  0.4847
  480MOL0     C63270   2.853   4.783  10.689 -0.0839 -0.3256  1.2970
  480MOL0     C63271   2.780   4.900  10.733  0.9577 -0.6135  0.1407
  480MOL0    Cl63272   2.650   4.853  10.831  0.4787  0.4003 -0.0111
  480MOL0     C63273   3.285   5.559  10.578  0.5155  0.8051  0.1335
  480MOL0     C63274   3.368   5.667  10.532  1.1630  0.7763 -0.3653
  480MOL0     O63275   3.748   5.732  10.643  0.2437 -0.2855  0.9469
  480MOL0     C63276   3.889   5.966  10.672  0.0967 -0.5060  0.6524
  480MOL0     C63277   3.947   6.096  10.705  0.1192 -0.1006  0.1914
  480MOL0     N63278   4.334   6.654  10.982 -0.6319  0.4905 -0.2890
  480MOL0     N63279   4.456   6.684  10.937  0.1132 -0.4577 -0.1867
  480MOL0     C63280   4.523   7.505  10.886 -0.8489 -0.8610  0.1397
  480MOL0     C63281   4.551   7.622  10.963  0.7370  0.2997  0.4469
  480MOL0     C63282   4.779   7.822  11.330 -0.8460  0.4654  0.1275
  480MOL0     C63283   4.706   7.936  11.346  0.0443  0.3572  0.3795
  480MOL0     C63284   4.716   8.008  11.460  0.0211 -1.4025  0.0806
  480MOL0     C63285   4.816   7.982  11.565  0.5585  0.3949  0.4211
  480MOL0     O63286   4.824   8.069  11.671 -0.1882  0.1492 -1.1145
  480MOL0     C63287   4.966   8.098  11.692 -0.7144 -0.6607  1.7980
  480MOL0     C63288   4.961   8.224  11.780  0.3303  0.5119  0.7751
  480MOL0     C63289   4.898   8.352  11.725 -0.5118 -0.2218  0.6105
  480MOL0     C63290   4.951   8.480  11.790 -0.1476 -0.1195 -0.3985
  480MOL0     C63291   4.937   8.599  11.709  0.8924 -0.1978 -0.4628
  480MOL0     C63292   4.917   8.694  11.636  0.3493  0.4254  0.0131
  480MOL0     C63293   4.899   7.868  11.546  1.0423 -0.1804  0.1898
  480MOL0     C63294   4.881   7.787  11.430  1.0424  0.3029 -0.8471
  480MOL0     H63295   4.644   7.466  11.247 -0.0381  0.4939  1.6569
  480MOL0     H63296   4.602   7.259  11.104  0.3986  0.2221  1.4536
  480MOL0     H63297   4.652   7.252  10.727  0.9083 -3.7013 -1.0059
  480MOL0     H63298   4.486   7.309  10.684 -3.0475  1.3979  3.6944
  480MOL0     H63299   4.428   7.048  10.750 -1.9090  1.7337 -1.9471
  480MOL0     H63300   4.606   7.031  10.759 -0.3197 -0.3986 -1.8614
  480MOL0     H63301   4.646   7.068  10.549 -0.3050 -0.9477  2.4000
  480MOL0     H63302   4.481   7.134  10.511 -0.2329 -0.7670 -1.2673
  480MOL0     H63303   4.395   6.905  10.531  0.6527 -1.1035  0.2504
  480MOL0     H63304   4.499   6.924  10.391  4.9772 -0.3647 -0.4682
  480MOL0     H63305   4.589   6.822  10.659 -0.5116 -3.3184  1.0643
  480MOL0     H63306   4.689   6.822  10.514  0.3800  0.0088  1.7501
  480MOL0     H63307   4.532   6.656  10.413  0.5157 -1.1420  0.3641
  480MOL0     H63308   4.417   6.680  10.545 -0.8875 -0.4021 -1.1656
  480MOL0     H63309   4.560   6.468  10.573  0.5635  0.0588 -2.8667
  480MOL0     H63310   4.696   6.565  10.543 -0.9255  0.5238 -1.7704
  480MOL0     H63311   4.679   6.657  10.783  1.3789 -2.7243  0.5884
  480MOL0     H63312   4.646   6.486  10.802  2.9832 -1.0682 -2.3668
  480MOL0     H63313   4.338   6.508  10.685  2.2712  2.3133 -0.8731
  480MOL0     H63314   4.060   6.535  10.837 -2.2709 -1.3172  1.1208
  480MOL0     H63315   4.087   6.581  11.009  0.1117 -0.8061  0.0540
  480MOL0     H63316   4.157   6.390  11.077  1.9697 -0.5869 -1.1754
  480MOL0     H63317   4.195   6.336  10.913 -0.5925  0.4936 -0.0451
  480MOL0     H63318   3.991   6.208  10.985  6.2300 -0.6441 -1.4970
  480MOL0     H63319   3.931   6.346  11.071 -1.7698 -0.4758 -2.7665
  480MOL0     H63320   3.876   6.475  10.863  0.4820  0.3719 -3.5348
  480MOL0     H63321   3.784   6.324  10.894  0.0120  0.6921  1.0567
  480MOL0     H63322   3.697   6.310  10.666  1.2641  0.5223 -3.2336
  480MOL0     H63323   3.569   6.069  10.611  0.1476 -0.4348  2.1166
  480MOL0     H63324   3.520   5.740  10.824 -0.7841 -2.3474  2.4142
  480MOL0     H63325   3.363   5.564  10.910 -4.0316 -0.5090  0.1256
  480MOL0     H63326   3.178   5.308  10.588  2.0189 -2.2474  1.8649
  480MOL0     H63327   3.028   5.347  10.681  0.3563  1.3050 -1.4490
  480MOL0     H63328   3.089   5.211  10.851 -1.0751 -1.8402 -0.1857
  480MOL0     H63329   3.255   5.187  10.790  0.0948 -0.2348 -0.9781
  480MOL0     H63330   3.178   5.085  10.599 -0.8799  0.7760 -1.9000
  480MOL0     H63331   3.003   5.105  10.647  0.8082  3.5529  1.1660
  480MOL0     H63332   3.223   4.963  10.815 -0.3720 -0.4997  1.3604
  480MOL0     H63333   3.048   4.970  10.837  0.6229  3.0040  0.1588
  480MOL0     H63334   3.122   4.765  10.769  3.2774  4.4383  3.1128
  480MOL0     H63335   3.194   4.819  10.624  0.0710 -2.6818  2.1307
  480MOL0     H63336   2.990   4.751  10.526 -0.3486  0.5915 -0.2951
  480MOL0     H63337   2.962   4.912  10.559  0.3305 -1.1270 -1.1085
  480MOL0     H63338   2.793   4.720  10.622 -2.4219  2.0061  1.0374
  480MOL0     H63339   2.873   4.733  10.784 -1.8065  2.2243  3.1233
  480MOL0     H63340   2.733   4.960  10.654  0.0839 -0.8777  0.4417
  480MOL0     H63341   2.830   4.964  10.806 -2.6216  3.3848 -0.5045
  480MOL0     H63342   3.216   5.526  10.501 -1.9303 -0.0812  2.5694
  480MOL0     H63343   3.361   5.706  10.430 -0.3441 -2.0290 -1.4429
  480MOL0     H63344   3.950   5.876  10.671 -2.4126 -2.3310  1.6525
  480MOL0     H63345   4.055   6.097  10.715  0.3810 -3.2368 -1.2050
  480MOL0     H63346   4.513   7.511  10.779  4.5729  1.7724 -0.5773
  480MOL0     H63347   4.539   7.720  10.917 -1.1972  0.2362  0.7201
  480MOL0     H63348   4.636   7.972  11.271 -1.9321 -4.9190 -0.7532
  480MOL0     H63349   4.660   8.099  11.478  4.3462  2.0236 -1.8525
  480MOL0     H63350   5.027   8.124  11.605 -1.9719 -1.9404  0.4569
  480MOL0     H63351   5.014   8.017  11.746  3.9704  2.1347  2.3474
  480MOL0     H63352   4.930   8.195  11.881 -2.5811  1.6407  0.3121
  480MOL0     H63353   5.064   8.261  11.784  1.0790 -1.3732  0.0944
  480MOL0     H63354   4.789   8.347  11.724 -0.5387  0.4135 -0.3265
  480MOL0     H63355   4.910   8.370  11.618 -3.3492 -0.7375  0.1294
  480MOL0     H63356   4.889   8.495  11.879 -1.2974  0.2946 -1.2469
  480MOL0     H63357   5.058   8.464  11.809 -0.1755 -0.2654 -0.3636
  480MOL0     H63358   4.904   8.774  11.566 -0.1831  0.2007 -0.1510
  480MOL0     H63359   4.969   7.850  11.627  0.8796 -0.3765  0.2883
  480MOL0     H63360   4.930   7.690  11.427 -1.6197 -1.2398  0.6437
  481MOL0     O63361   8.276   7.081  10.727 -0.5495  0.3931 -0.2241
  481MOL0     C63362   8.194   7.108  10.811  0.4702 -0.5730 -1.1559
  481MOL0     O63363   8.218   7.135  10.946  0.1339  0.7958  0.2144
  481MOL0     C63364   8.349   7.154  10.994  0.5362 -0.2518  0.0153
  481MOL0     C63365   8.467   7.165  10.920  0.1723  0.3857 -0.0049
  481MOL0     C63366   8.595   7.168  10.980 -0.4105  0.0740 -0.8269
  481MOL0     C63367   8.605   7.169  11.120  0.3128 -0.0071 -0.0357
  481MOL0     O63368   8.733   7.180  11.167 -0.0256  0.1747  0.0762
  481MOL0     C63369   8.760   7.132  11.300 -0.0196 -0.3648 -0.2057
  481MOL0     C63370   8.768   6.982  11.290 -0.0782  0.2162 -0.5944
  481MOL0     C63371   8.833   6.934  11.422  0.1969  0.5071 -0.2511
  481MOL0     C63372   8.845   6.775  11.421 -0.3344 -0.7259  0.6566
  481MOL0     C63373   8.909   6.731  11.565 -0.3036 -0.2250  2.1471
  481MOL0     C63374   9.065   6.731  11.550 -0.0198 -1.1365  0.3816
  481MOL0     C63375   9.133   6.685  11.680 -0.1953  0.6195  0.2220
  481MOL0     C63376   9.113   6.771  11.800 -0.0887  0.1145  0.7851
  481MOL0     N63377   9.174   6.710  11.918 -0.1927  0.0484 -0.1643
  481MOL0     C63378   9.295   6.638  11.917 -0.8693  0.2216  0.0390
  481MOL0     C63379   9.316   6.609  12.046  0.1295  0.1557 -0.4194
  481MOL0     C63380   9.436   6.535  12.109 -0.8049  0.2810 -0.1725
  481MOL0     C63381   9.428   6.383  12.075  0.5486 -0.7918 -0.2538
  481MOL0     C63382   9.545   6.310  12.131  0.7847  0.1445  0.3584
  481MOL0     C63383   9.514   6.255  12.274  0.0486 -0.2032  0.4339
  481MOL0     O63384   9.627   6.181  12.332  0.0522  0.1424 -0.9067
  481MOL0     C63385   9.681   6.065  12.287 -0.9039  0.3200  1.1035
  481MOL0     C63386   9.799   6.029  12.347 -0.8688  0.6192 -0.8566
  481MOL0     C63387   9.874   5.911  12.325 -0.0439 -0.2259  1.4250
  481MOL0     C63388   9.823   5.828  12.220 -1.2574  0.4629 -0.2922
  481MOL0     C63389   9.877   5.692  12.198  0.5287  0.2664 -0.2780
  481MOL0     O63390   9.944   5.632  12.306 -0.0829  0.5164  0.4456
  481MOL0     C63391   9.995   5.500  12.292  0.1490 -0.1806 -0.6043
  481MOL0     C63392  10.101   5.462  12.208 -0.0929 -0.1003  0.7799
  481MOL0     C63393  10.154   5.336  12.206  0.7388 -0.2897 -0.5911
  481MOL0     C63394  10.102   5.238  12.295  0.6279  1.2245 -0.6390
  481MOL0     O63395  10.150   5.109  12.317 -0.0978 -0.3930  0.3898
  481MOL0     C63396  10.241   5.060  12.223 -0.1896 -0.4058  0.7945
  481MOL0     C63397  10.288   4.935  12.285  0.3031 -0.7221 -0.1172
  481MOL0     C63398  10.388   4.847  12.201  0.1965  0.0133 -0.6163
  481MOL0     C63399  10.314   4.775  12.091  0.8203  0.4701  0.7564
  481MOL0     C63400  10.398   4.736  11.984 -0.5759  0.5113  0.5254
  481MOL0     C63401  10.310   4.661  11.875  0.5649  0.3153  0.3376
  481MOL0     C63402  10.385   4.599  11.752 -1.0840  0.4260 -0.0285
  481MOL0     C63403  10.343   4.451  11.713  0.4616  0.0336 -0.0331
  481MOL0    Cl63404  10.168   4.438  11.658 -0.1447 -0.0833 -0.1374
  481MOL0     C63405   9.992   5.268  12.370  0.8305 -0.0446 -0.2640
  481MOL0     C63406   9.939   5.397  12.377 -0.3048 -0.1282  0.7248
  481MOL0     O63407   9.854   5.636  12.089  0.2634  0.2582 -0.0005
  481MOL0     C63408   9.707   5.868  12.146 -0.7112 -0.4362  0.6043
  481MOL0     C63409   9.637   5.981  12.179 -0.2246 -0.4248 -0.1709
  481MOL0     N63410   9.211   6.656  12.121  0.3045 -0.0258 -0.2173
  481MOL0     N63411   9.129   6.719  12.048 -1.0195  0.6802  0.1854
  481MOL0     C63412   8.485   7.176  11.198  0.1687 -0.2824  0.8386
  481MOL0     C63413   8.357   7.172  11.133  0.3248 -0.2721 -0.6358
  481MOL0     C63414   8.055   7.094  10.763 -0.1788  0.4146 -0.1673
  481MOL0     C63415   8.037   7.085  10.629  0.3239 -0.3103  0.4338
  481MOL0     C63416   7.905   7.077  10.576  0.0940  1.2392 -0.0523
  481MOL0     C63417   7.797   7.097  10.661  0.0713 -0.1072 -0.6594
  481MOL0     O63418   7.666   7.096  10.613 -0.4618 -0.5588  0.4586
  481MOL0     C63419   7.622   7.099  10.479  0.7816 -0.1816 -0.1733
  481MOL0     C63420   7.620   6.959  10.407 -0.3459 -0.9984 -0.7116
  481MOL0     C63421   7.513   6.955  10.291 -0.2559  0.1901 -0.1664
  481MOL0     C63422   7.529   7.071  10.185 -0.2599 -0.0588  0.0672
  481MOL0     C63423   7.412   7.109  10.111  0.0715 -1.2262  1.1895
  481MOL0     C63424   7.317   7.161  10.050  0.2466 -0.1789 -0.4832
  481MOL0     C63425   7.817   7.105  10.800  0.0255 -0.2696 -0.1891
  481MOL0     C63426   7.947   7.101  10.852  0.6540  0.9688  0.2668
  481MOL0     H63427   8.472   7.152  10.813  2.6699 -0.2330  0.1342
  481MOL0     H63428   8.688   7.163  10.923  0.1010 -1.8641  0.1093
  481MOL0     H63429   8.688   7.162  11.377  1.3133  0.2687  0.8383
  481MOL0     H63430   8.849   7.184  11.337 -1.6071  1.2563  1.5638
  481MOL0     H63431   8.825   6.968  11.197 -3.2256  1.3884 -2.8826
  481MOL0     H63432   8.675   6.932  11.262  0.4151 -0.7775 -0.5154
  481MOL0     H63433   8.768   6.963  11.506  1.6594  0.4720  0.9292
  481MOL0     H63434   8.931   6.982  11.426 -0.4133  1.7186  0.6602
  481MOL0     H63435   8.744   6.733  11.415 -1.2230  1.2857  0.8633
  481MOL0     H63436   8.898   6.749  11.329 -0.0622  1.5158  0.1161
  481MOL0     H63437   8.869   6.632  11.586 -2.8229  0.4564  0.9554
  481MOL0     H63438   8.856   6.798  11.633 -0.2400  2.0420  0.0932
  481MOL0     H63439   9.099   6.833  11.528  1.3581 -1.8169 -0.8328
  481MOL0     H63440   9.086   6.663  11.468 -3.0152 -2.4413  0.5860
  481MOL0     H63441   9.096   6.586  11.708 -0.5392  1.1471  1.7685
  481MOL0     H63442   9.235   6.677  11.642 -0.0498 -1.5911  0.9160
  481MOL0     H63443   9.009   6.786  11.829 -0.7372 -1.3641 -0.5964
  481MOL0     H63444   9.159   6.865  11.768 -1.7369  0.6547 -0.1282
  481MOL0     H63445   9.351   6.616  11.827  0.5583  2.5213  0.2811
  481MOL0     H63446   9.447   6.542  12.218 -1.4838 -1.6749  0.0600
  481MOL0     H63447   9.534   6.570  12.074  0.2222 -1.1143  1.1905
  481MOL0     H63448   9.429   6.365  11.967  4.7688 -2.0794 -0.1922
  481MOL0     H63449   9.331   6.353  12.116 -2.5970  6.0122 -1.3489
  481MOL0     H63450   9.566   6.225  12.066 -2.1611 -1.0198  0.7497
  481MOL0     H63451   9.640   6.363  12.132 -0.4835  2.6480 -0.8486
  481MOL0     H63452   9.434   6.180  12.280  2.8435 -3.4132  0.5432
  481MOL0     H63453   9.482   6.343  12.330 -3.0625  0.5945 -2.2751
  481MOL0     H63454   9.826   6.084  12.437 -1.0902  0.1872 -0.5235
  481MOL0     H63455   9.965   5.877  12.376  0.0577 -2.1400  0.0675
  481MOL0     H63456  10.149   5.543  12.154  1.1121  0.5423  2.7202
  481MOL0     H63457  10.246   5.309  12.156  0.4250 -1.0110 -0.7908
  481MOL0     H63458  10.325   5.128  12.215 -0.2097 -0.3920  0.6990
  481MOL0     H63459  10.190   5.039  12.128 -1.2036 -2.2604  1.6740
  481MOL0     H63460  10.216   4.858  12.315 -0.0124 -0.3206  0.1745
  481MOL0     H63461  10.345   4.973  12.370 -0.7052  1.1977 -0.2391
  481MOL0     H63462  10.432   4.775  12.271  1.5886 -2.5160 -3.8049
  481MOL0     H63463  10.467   4.910  12.159  1.0458 -0.0192  0.8506
  481MOL0     H63464  10.255   4.693  12.135 -0.5334  1.0101  0.0186
  481MOL0     H63465  10.236   4.844  12.057 -3.5197 -4.3435 -0.3419
  481MOL0     H63466  10.484   4.675  12.012  0.9108  0.9777 -2.6316
  481MOL0     H63467  10.435   4.818  11.923 -0.5706 -0.8390 -1.3958
  481MOL0     H63468  10.239   4.734  11.836 -0.6086 -1.3138 -0.7536
  481MOL0     H63469  10.244   4.586  11.921 -1.9491  0.5114 -2.6082
  481MOL0     H63470  10.371   4.665  11.665 -1.6395 -1.7607 -1.6706
  481MOL0     H63471  10.493   4.601  11.768 -0.9446  1.4828 -0.9473
  481MOL0     H63472  10.358   4.386  11.800 -0.3529  1.7058  1.4277
  481MOL0     H63473  10.412   4.413  11.637 -1.4233  1.3323 -2.5468
  481MOL0     H63474   9.936   5.198  12.431 -0.6514  1.7714  0.5314
  481MOL0     H63475   9.850   5.432  12.428 -1.6748  1.9422 -2.7577
  481MOL0     H63476   9.672   5.801  12.068 -1.7602 -0.2902  0.9291
  481MOL0     H63477   9.547   6.003  12.122  1.1692 -0.5084 -2.5181
  481MOL0     H63478   8.491   7.190  11.305 -0.1132 -0.2447  0.8496
  481MOL0     H63479   8.270   7.179  11.197  1.7909  0.6556  1.3528
  481MOL0     H63480   8.120   7.068  10.560  1.9872  0.6759  2.1060
  481MOL0     H63481   7.878   7.036  10.480  0.0102  2.2400 -0.4615
  481MOL0     H63482   7.692   7.168  10.431  1.4670 -0.8321 -0.1331
  481MOL0     H63483   7.524   7.147  10.476  1.5841  1.4641 -1.0050
  481MOL0     H63484   7.708   6.929  10.349 -3.0385 -2.2586 -4.4841
  481MOL0     H63485   7.579   6.892  10.483 -2.8823  1.3788  0.1700
  481MOL0     H63486   7.417   6.987  10.333  1.3977  2.4894  2.1347
  481MOL0     H63487   7.516   6.860  10.237  3.9099  0.6409 -1.0345
  481MOL0     H63488   7.576   7.163  10.220 -1.6429  0.1291  1.5436
  481MOL0     H63489   7.597   7.035  10.107  1.0855  3.6464 -0.6425
  481MOL0     H63490   7.245   7.205   9.984 -0.3262 -0.0054  0.2345
  481MOL0     H63491   7.730   7.107  10.865 -1.2948 -1.6313 -1.8029
  481MOL0     H63492   7.956   7.104  10.960  0.7722 -0.1148  0.3002
  482MOL0     O63493   6.822   1.458   6.394 -0.3249  0.3254 -0.7123
  482MOL0     C63494   6.935   1.495   6.374 -1.2716  0.4297 -0.2221
  482MOL0     O63495   6.989   1.611   6.422  0.1284 -0.6116  0.1411
  482MOL0     C63496   6.922   1.717   6.465 -0.0558  1.0290  0.2771
  482MOL0     C63497   6.807   1.767   6.401 -0.8178 -0.3774  0.2029
  482MOL0     C63498   6.737   1.880   6.455 -0.2291 -0.2945  0.2190
  482MOL0     C63499   6.783   1.949   6.572  0.1678  0.6887 -0.4831
  482MOL0     O63500   6.725   2.050   6.640 -0.4603 -0.2572  0.3695
  482MOL0     C63501   6.599   2.107   6.596  0.7032 -0.9799 -0.1431
  482MOL0     C63502   6.483   2.042   6.675 -0.8259 -0.1783  0.1805
  482MOL0     C63503   6.493   1.893   6.697  0.0503 -0.0448 -1.2150
  482MOL0     C63504   6.406   1.854   6.824 -0.1368 -0.8833  0.3170
  482MOL0     C63505   6.272   1.793   6.780 -0.4997  0.2765  0.3820
  482MOL0     C63506   6.195   1.736   6.900  0.5988 -0.2224  0.5016
  482MOL0     C63507   6.180   1.834   7.022 -0.1375  0.8681  0.7871
  482MOL0     C63508   6.067   1.798   7.121  0.6496  0.3300 -0.6088
  482MOL0     N63509   5.939   1.815   7.049  0.2027  0.6887  0.4958
  482MOL0     C63510   5.870   1.934   7.041  0.6042 -0.8060  0.5947
  482MOL0     C63511   5.742   1.904   7.010  0.3562  0.2159  0.7365
  482MOL0     C63512   5.641   2.004   6.977  0.0936 -1.2623 -0.8635
  482MOL0     C63513   5.691   2.108   6.873 -0.6906 -0.3481  0.1453
  482MOL0     C63514   5.582   2.194   6.822  0.3571 -0.4161  0.0247
  482MOL0     C63515   5.646   2.312   6.743  0.1329 -0.8858  0.8150
  482MOL0     O63516   5.571   2.361   6.627 -0.6822  0.1695  0.4532
  482MOL0     C63517   5.455   2.430   6.628  0.1769  0.2061 -0.1616
  482MOL0     C63518   5.379   2.440   6.511 -1.0367 -0.3824 -0.8916
  482MOL0     C63519   5.251   2.514   6.515  0.2386  0.1200  0.3118
  482MOL0     C63520   5.204   2.570   6.633  0.1907  0.2138 -0.6365
  482MOL0     C63521   5.082   2.646   6.639 -0.2838  0.3294  0.2161
  482MOL0     O63522   5.026   2.651   6.758  0.2805  0.0032  0.3592
  482MOL0     C63523   4.902   2.705   6.782 -0.1522  0.1787 -1.3387
  482MOL0     C63524   4.816   2.634   6.877 -0.7030 -0.3862  0.3261
  482MOL0     C63525   4.699   2.701   6.928 -0.5406  0.1428  0.5971
  482MOL0     C63526   4.663   2.830   6.885  0.2796  0.5832  0.0920
  482MOL0     O63527   4.553   2.896   6.923 -0.7500  0.1096  0.2370
  482MOL0     C63528   4.452   2.813   6.974  0.1242  0.1582 -0.2189
  482MOL0     C63529   4.333   2.892   7.030 -0.0544  0.6996 -0.7202
  482MOL0     C63530   4.370   2.972   7.157  0.1069 -0.6966 -0.0348
  482MOL0     C63531   4.398   2.894   7.279  0.7833  0.2427 -0.6345
  482MOL0     C63532   4.398   2.991   7.407 -0.3475 -0.0070  0.3704
  482MOL0     C63533   4.259   3.045   7.440  0.4529 -0.5203 -0.3947
  482MOL0     C63534   4.275   3.139   7.564  0.0912 -0.9085  0.7957
  482MOL0     C63535   4.304   3.080   7.694 -0.8056  0.1953 -0.2137
  482MOL0    Cl63536   4.301   3.211   7.822  0.3279 -0.1783 -0.1123
  482MOL0     C63537   4.739   2.888   6.781  0.7554 -0.2834  0.5974
  482MOL0     C63538   4.858   2.827   6.731 -1.0010  0.2642  0.0366
  482MOL0     O63539   5.016   2.675   6.530  0.6459 -1.0091  0.1624
  482MOL0     C63540   5.287   2.548   6.748 -0.4583 -1.1166  0.0428
  482MOL0     C63541   5.399   2.475   6.745 -0.2896  0.3899  0.7891
  482MOL0     N63542   5.731   1.769   7.004  0.7879 -0.6206  0.2008
  482MOL0     N63543   5.851   1.716   7.035  0.7571  0.2113  0.3570
  482MOL0     C63544   6.901   1.901   6.621  0.0135 -0.1616  0.1893
  482MOL0     C63545   6.972   1.791   6.570 -0.3300  0.4531  0.0569
  482MOL0     C63546   7.025   1.417   6.280  0.0213  0.0591  0.0666
  482MOL0     C63547   7.166   1.419   6.278 -0.7578 -0.0127  0.2920
  482MOL0     C63548   7.237   1.342   6.183  0.6656 -0.3979 -1.0542
  482MOL0     C63549   7.170   1.278   6.077 -1.0875  0.5013  0.6132
  482MOL0     O63550   7.235   1.220   5.968 -0.4237  0.4842 -0.6145
  482MOL0     C63551   7.374   1.259   5.941  0.2004 -0.6268  0.0360
  482MOL0     C63552   7.384   1.297   5.794  0.1885 -1.3445  0.4507
  482MOL0     C63553   7.276   1.404   5.763 -0.7230  0.6169  0.3466
  482MOL0     C63554   7.270   1.430   5.611 -1.1946 -0.7107 -0.2164
  482MOL0     C63555   7.368   1.530   5.570 -0.2836  0.3895  0.5421
  482MOL0     C63556   7.464   1.599   5.532  0.8393  0.4365  0.1460
  482MOL0     C63557   7.028   1.286   6.061  0.7083  0.2163 -0.5983
  482MOL0     C63558   6.957   1.353   6.168 -0.5579  0.2599  0.2468
  482MOL0     H63559   6.773   1.708   6.317 -2.5239 -1.0843  1.3266
  482MOL0     H63560   6.646   1.915   6.408 -0.7380  0.8559  1.9377
  482MOL0     H63561   6.595   2.103   6.487  0.6394 -1.8856 -0.1136
  482MOL0     H63562   6.610   2.214   6.615  0.9769 -0.8686 -0.8787
  482MOL0     H63563   6.399   2.054   6.606  0.1719 -1.2888 -1.2938
  482MOL0     H63564   6.475   2.096   6.770  1.6317  3.2822 -1.3373
  482MOL0     H63565   6.599   1.867   6.711 -0.3775 -1.4086 -0.3322
  482MOL0     H63566   6.458   1.848   6.604 -0.7490 -1.0920 -0.4289
  482MOL0     H63567   6.470   1.794   6.889  4.2033 -0.1152 -2.8160
  482MOL0     H63568   6.380   1.941   6.885  1.6159  0.3174 -0.5750
  482MOL0     H63569   6.292   1.714   6.707  1.3494  1.3060 -0.2942
  482MOL0     H63570   6.216   1.872   6.730 -0.1486  0.8887  0.9328
  482MOL0     H63571   6.226   1.640   6.941 -2.6739 -0.6995  2.1857
  482MOL0     H63572   6.097   1.702   6.864  0.1309  0.9664  0.5894
  482MOL0     H63573   6.283   1.842   7.058  0.3160 -0.6811 -0.0857
  482MOL0     H63574   6.164   1.935   6.984 -0.2434  1.4539  2.3259
  482MOL0     H63575   6.079   1.844   7.220  0.6297 -2.8094  0.9716
  482MOL0     H63576   6.064   1.690   7.135  0.3107  0.2717 -1.0989
  482MOL0     H63577   5.910   2.034   7.052 -1.9672  0.5784 -1.5454
  482MOL0     H63578   5.623   2.062   7.067 -0.8433  0.2098 -1.9549
  482MOL0     H63579   5.548   1.958   6.943 -0.8968 -0.4542  0.6760
  482MOL0     H63580   5.756   2.056   6.801 -0.4653 -2.8543  2.0241
  482MOL0     H63581   5.752   2.176   6.932 -2.0336 -0.9055  2.2922
  482MOL0     H63582   5.522   2.131   6.755  1.4413 -2.0939  0.5757
  482MOL0     H63583   5.514   2.238   6.895  0.4465 -1.1625  0.5654
  482MOL0     H63584   5.734   2.280   6.686 -0.6216 -2.6752  0.5907
  482MOL0     H63585   5.684   2.398   6.800  0.0982  1.5112 -2.4742
  482MOL0     H63586   5.423   2.401   6.419 -1.3349 -0.9109 -0.8107
  482MOL0     H63587   5.187   2.520   6.428 -1.9261 -2.2832  1.5999
  482MOL0     H63588   4.832   2.532   6.913  3.5623 -1.3997 -3.4881
  482MOL0     H63589   4.650   2.645   7.007 -0.8888 -2.1385 -1.1321
  482MOL0     H63590   4.489   2.751   7.056  2.2190  2.9113  1.0912
  482MOL0     H63591   4.419   2.739   6.900 -2.1816 -0.0141  0.9128
  482MOL0     H63592   4.260   2.813   7.048  1.7366 -0.5486  1.4544
  482MOL0     H63593   4.310   2.962   6.948 -0.3505 -2.9783 -4.0756
  482MOL0     H63594   4.289   3.043   7.178  0.1913 -1.0483  1.5972
  482MOL0     H63595   4.460   3.030   7.134  1.8530 -2.4981  1.7488
  482MOL0     H63596   4.321   2.817   7.289  1.2716 -0.1650  0.1280
  482MOL0     H63597   4.492   2.839   7.282 -0.2590 -1.6719  2.8701
  482MOL0     H63598   4.463   3.077   7.392 -0.1707  0.2264  2.3163
  482MOL0     H63599   4.433   2.936   7.494  0.6623  0.6183  0.3708
  482MOL0     H63600   4.203   2.955   7.467  0.5868 -1.7899 -3.7789
  482MOL0     H63601   4.216   3.103   7.358  0.8173 -2.8397 -2.3463
  482MOL0     H63602   4.363   3.201   7.543 -0.2267 -1.5346 -3.1481
  482MOL0     H63603   4.188   3.203   7.585  0.6910  0.5511 -0.9712
  482MOL0     H63604   4.398   3.023   7.694  0.2454  1.8144  1.6002
  482MOL0     H63605   4.232   2.999   7.710  1.2480 -2.0386 -1.5427
  482MOL0     H63606   4.699   2.980   6.740 -1.4813 -0.9003  1.2545
  482MOL0     H63607   4.921   2.891   6.670  1.3957 -1.5436  0.4561
  482MOL0     H63608   5.248   2.598   6.836 -1.3967  0.4279 -1.2055
  482MOL0     H63609   5.451   2.460   6.839  3.2229 -1.3868 -1.2231
  482MOL0     H63610   6.946   1.955   6.704  4.4166 -1.6500 -0.9471
  482MOL0     H63611   7.069   1.775   6.617 -0.3995 -0.9042 -0.2167
  482MOL0     H63612   7.220   1.465   6.360 -3.5983  0.7442  1.8631
  482MOL0     H63613   7.346   1.342   6.183  0.8869  0.3452  3.6693
  482MOL0     H63614   7.451   1.194   5.982 -1.6992 -3.5423 -0.6948
  482MOL0     H63615   7.395   1.352   5.995 -1.9708 -2.4297  4.4824
  482MOL0     H63616   7.480   1.342   5.770 -0.7072 -0.8310 -2.5399
  482MOL0     H63617   7.372   1.204   5.738  1.9989 -0.0162 -2.3083
  482MOL0     H63618   7.303   1.497   5.815 -1.5651 -0.3296  2.6001
  482MOL0     H63619   7.178   1.365   5.790  0.6099 -3.2863  0.2550
  482MOL0     H63620   7.292   1.341   5.551  0.4540 -0.8685  0.5775
  482MOL0     H63621   7.171   1.462   5.576  0.4104  2.1413 -2.6298
  482MOL0     H63622   7.529   1.678   5.500 -1.7494  1.3941 -3.4076
  482MOL0     H63623   6.978   1.236   5.980 -0.6065 -1.7660  1.3307
  482MOL0     H63624   6.848   1.350   6.174 -0.5098  0.9035  1.9394
  483MOL0     O63625   8.439   6.074   7.468  0.3337  0.3417 -0.0076
  483MOL0     C63626   8.379   6.154   7.531 -0.0513  0.0293 -0.0519
  483MOL0     O63627   8.372   6.287   7.510  0.3126  0.2536  0.2500
  483MOL0     C63628   8.484   6.357   7.460  0.7736 -0.5669 -0.2142
  483MOL0     C63629   8.620   6.339   7.491 -0.3063  0.2966 -1.3683
  483MOL0     C63630   8.714   6.431   7.446  0.1757 -0.1986 -0.7777
  483MOL0     C63631   8.683   6.537   7.360 -0.5058  0.4837  0.3333
  483MOL0     O63632   8.767   6.631   7.321  0.3486  0.1196 -0.4087
  483MOL0     C63633   8.886   6.665   7.393  0.3062  0.0596  0.5296
  483MOL0     C63634   8.881   6.812   7.428 -0.3225 -0.3675 -0.1061
  483MOL0     C63635   8.912   6.897   7.315 -0.3580 -0.1831 -0.3757
  483MOL0     C63636   8.911   7.057   7.341 -0.3964  0.0946  0.1099
  483MOL0     C63637   8.883   7.149   7.219  0.2978 -0.1189 -1.3016
  483MOL0     C63638   8.994   7.111   7.120  0.0105 -0.0543 -0.5471
  483MOL0     C63639   8.990   7.214   7.007 -0.4725  1.3302 -0.6666
  483MOL0     C63640   9.125   7.296   7.020  0.4993  0.3677  0.7534
  483MOL0     N63641   9.117   7.395   7.131  0.5814 -0.3959 -0.0031
  483MOL0     C63642   9.157   7.362   7.258  0.2802 -0.1498  0.3507
  483MOL0     C63643   9.154   7.483   7.325  0.5159  0.4626 -0.3173
  483MOL0     C63644   9.196   7.493   7.470 -0.8066  0.2993  0.0344
  483MOL0     C63645   9.337   7.557   7.471 -0.3429 -1.1358 -0.7653
  483MOL0     C63646   9.390   7.576   7.617  0.1988  0.2971 -0.3880
  483MOL0     C63647   9.446   7.455   7.691  0.5847 -0.4711 -0.4736
  483MOL0     O63648   9.475   7.499   7.815 -0.2818  0.2942  0.4161
  483MOL0     C63649   9.602   7.547   7.843 -0.0728  0.0294 -0.9143
  483MOL0     C63650   9.633   7.563   7.979 -0.0231 -0.3654  0.9424
  483MOL0     C63651   9.757   7.612   8.019 -0.1455  0.2458 -0.1272
  483MOL0     C63652   9.857   7.654   7.935 -0.0232 -0.9926  0.1464
  483MOL0     C63653   9.981   7.732   7.984  0.2036 -0.1940 -0.3924
  483MOL0     O63654  10.012   7.757   8.121 -0.0858  0.3505  0.4590
  483MOL0     C63655  10.106   7.847   8.148 -1.1821  0.1637 -0.9593
  483MOL0     C63656  10.145   7.960   8.082  1.0611 -0.9319  0.4649
  483MOL0     C63657  10.249   8.041   8.141  0.0024  0.4009  0.0352
  483MOL0     C63658  10.303   8.016   8.269 -0.1342  0.4689  0.2782
  483MOL0     O63659  10.405   8.081   8.335  0.1407  0.2394  0.1927
  483MOL0     C63660  10.456   8.211   8.295 -0.5808 -0.3569 -0.4782
  483MOL0     C63661  10.571   8.238   8.387 -0.5277 -0.6821 -1.4147
  483MOL0     C63662  10.718   8.226   8.329  0.4618 -0.2267  0.6888
  483MOL0     C63663  10.755   8.087   8.294  0.3567  0.0268 -0.6435
  483MOL0     C63664  10.759   7.994   8.416 -0.9313  1.0555  0.6455
  483MOL0     C63665  10.848   7.878   8.379  1.4639  0.3615  0.9896
  483MOL0     C63666  10.997   7.924   8.394  1.3041 -0.0123  0.0228
  483MOL0     C63667  11.089   7.828   8.333 -0.6300 -1.1420 -1.5220
  483MOL0    Cl63668  11.251   7.870   8.418  0.2626 -0.1007 -0.2292
  483MOL0     C63669  10.270   7.896   8.330  0.2357  0.3738  0.3471
  483MOL0     C63670  10.173   7.813   8.271  0.1263 -0.2091  0.1339
  483MOL0     O63671  10.057   7.766   7.893 -1.1864  0.4541  0.6118
  483MOL0     C63672   9.822   7.648   7.800 -0.2146  0.6521  0.3989
  483MOL0     C63673   9.696   7.595   7.752 -0.3648 -0.0842  0.3210
  483MOL0     N63674   9.113   7.585   7.242 -0.2293 -0.0027  0.7680
  483MOL0     N63675   9.105   7.533   7.125  0.0111  0.0561  0.1712
  483MOL0     C63676   8.547   6.552   7.324 -0.1056  0.5534 -0.9880
  483MOL0     C63677   8.456   6.463   7.369  0.7598  0.1475 -0.6403
  483MOL0     C63678   8.287   6.114   7.642  0.5230 -0.3074 -0.4542
  483MOL0     C63679   8.188   6.207   7.692 -0.0036  1.1416 -0.3649
  483MOL0     C63680   8.115   6.159   7.806 -0.1440 -0.9833  1.0724
  483MOL0     C63681   8.127   6.031   7.866 -0.9506 -0.0191  0.3830
  483MOL0     O63682   8.040   5.979   7.952 -0.4856  0.8461  0.1544
  483MOL0     C63683   7.974   6.065   8.042 -0.1915  0.5495 -0.0672
  483MOL0     C63684   7.998   6.010   8.185 -0.3915  0.8494  0.3903
  483MOL0     C63685   7.966   5.857   8.202  0.2848  0.1808 -0.2806
  483MOL0     C63686   8.086   5.777   8.243 -0.0539  0.3641 -0.8536
  483MOL0     C63687   8.141   5.811   8.381  0.3657  0.1094 -0.2254
  483MOL0     C63688   8.158   5.840   8.499  0.2538  0.1554 -0.6842
  483MOL0     C63689   8.217   5.933   7.803 -0.0570 -0.0282  0.1014
  483MOL0     C63690   8.294   5.979   7.698  0.3480 -0.7204 -0.4433
  483MOL0     H63691   8.645   6.256   7.556 -2.5420  0.1472 -0.6234
  483MOL0     H63692   8.814   6.415   7.484 -0.7997  2.4370  3.5891
  483MOL0     H63693   8.966   6.625   7.331 -1.8706  0.4601 -2.7555
  483MOL0     H63694   8.902   6.607   7.485  1.3413 -0.1085  0.2500
  483MOL0     H63695   8.955   6.829   7.507  1.8549  0.2720 -2.1774
  483MOL0     H63696   8.779   6.836   7.459 -0.5795  0.3989 -1.4674
  483MOL0     H63697   8.823   6.894   7.252 -0.4413 -0.6447 -0.2371
  483MOL0     H63698   9.001   6.865   7.260 -2.0303 -1.4119 -2.5333
  483MOL0     H63699   8.837   7.079   7.418  2.4540  0.4780  2.9275
  483MOL0     H63700   9.006   7.081   7.390 -1.3141 -2.9696  3.8774
  483MOL0     H63701   8.888   7.253   7.254  2.0914 -1.4802  3.2016
  483MOL0     H63702   8.782   7.136   7.178 -0.3266 -1.7259  0.5546
  483MOL0     H63703   8.975   7.007   7.093  0.1511 -0.4702  0.8673
  483MOL0     H63704   9.092   7.106   7.169  0.9395 -1.8760 -2.4153
  483MOL0     H63705   8.986   7.157   6.913 -1.4774  0.7975 -0.3064
  483MOL0     H63706   8.902   7.279   7.010  0.6459  2.8715  1.3754
  483MOL0     H63707   9.142   7.344   6.923 -0.9531 -1.6816 -0.5984
  483MOL0     H63708   9.200   7.216   7.029  0.0626 -0.1795 -0.3457
  483MOL0     H63709   9.189   7.262   7.284 -3.6954 -1.8736 -0.6520
  483MOL0     H63710   9.193   7.394   7.517  2.5736 -0.2935 -0.7934
  483MOL0     H63711   9.125   7.558   7.522 -3.6845 -1.9461 -0.7774
  483MOL0     H63712   9.335   7.658   7.430 -0.8984  2.3975  6.5507
  483MOL0     H63713   9.417   7.503   7.419  1.4509  0.0447  0.6646
  483MOL0     H63714   9.475   7.644   7.606 -0.2103  0.4935 -3.0054
  483MOL0     H63715   9.302   7.621   7.664  0.8757  2.1029 -0.7697
  483MOL0     H63716   9.527   7.413   7.632  0.8579  0.3719 -0.7186
  483MOL0     H63717   9.374   7.375   7.708 -1.0985  1.1327  0.2971
  483MOL0     H63718   9.569   7.550   8.065  1.0941 -2.1339  1.5711
  483MOL0     H63719   9.779   7.614   8.125 -1.0193 -2.0918  0.1766
  483MOL0     H63720  10.085   8.000   8.001  0.2537 -0.2031  1.3905
  483MOL0     H63721  10.291   8.126   8.090  1.3744  0.1692  0.7272
  483MOL0     H63722  10.378   8.286   8.302  0.5588  0.8533 -0.4011
  483MOL0     H63723  10.486   8.214   8.190 -0.9931  1.5860 -0.5681
  483MOL0     H63724  10.561   8.174   8.475  0.4055  1.1557  0.0904
  483MOL0     H63725  10.557   8.335   8.435  0.7846 -1.3146  0.3832
  483MOL0     H63726  10.799   8.257   8.395  1.5510  1.4023 -1.2961
  483MOL0     H63727  10.724   8.286   8.238 -0.2884  1.1968  1.5407
  483MOL0     H63728  10.693   8.042   8.216  1.2534  2.2232 -2.7629
  483MOL0     H63729  10.853   8.099   8.247 -0.1317 -2.3439 -2.4909
  483MOL0     H63730  10.662   7.954   8.444 -0.8286  0.2154 -0.1378
  483MOL0     H63731  10.804   8.054   8.495 -1.7354  1.9342  0.4535
  483MOL0     H63732  10.819   7.845   8.278  0.7792 -0.0584  1.3129
  483MOL0     H63733  10.815   7.793   8.440  1.4648  1.1599  2.1191
  483MOL0     H63734  11.020   8.022   8.351 -0.1833  2.0629  3.4985
  483MOL0     H63735  11.020   7.939   8.500  3.4706 -3.3589  0.1855
  483MOL0     H63736  11.103   7.820   8.225  1.3510 -4.0728 -1.1657
  483MOL0     H63737  11.059   7.726   8.358 -0.9269 -0.1237  3.1814
  483MOL0     H63738  10.315   7.868   8.425  0.3779  0.8554  0.4228
  483MOL0     H63739  10.143   7.721   8.321  1.0990 -0.4349  0.3375
  483MOL0     H63740   9.889   7.683   7.723  1.1928 -1.7577  0.4242
  483MOL0     H63741   9.678   7.596   7.645 -1.3207 -2.2395  0.4010
  483MOL0     H63742   8.524   6.630   7.253  2.0171  0.2647 -2.0923
  483MOL0     H63743   8.353   6.487   7.345  0.6129 -1.0315 -1.2784
  483MOL0     H63744   8.170   6.306   7.652  1.6957  1.6583  0.0536
  483MOL0     H63745   8.050   6.233   7.852  1.1394 -0.0670  1.4483
  483MOL0     H63746   7.866   6.069   8.023  0.1382  1.8480 -1.9126
  483MOL0     H63747   8.004   6.168   8.025 -0.2781  0.4409 -0.9369
  483MOL0     H63748   8.101   6.023   8.219  0.5324  1.9401 -2.5361
  483MOL0     H63749   7.934   6.063   8.256 -1.1739 -1.2477  1.3163
  483MOL0     H63750   7.930   5.813   8.109  0.5120  1.0219 -0.7709
  483MOL0     H63751   7.885   5.838   8.274 -0.0425 -1.7387 -1.0949
  483MOL0     H63752   8.054   5.672   8.243  1.8968 -0.3733  2.6880
  483MOL0     H63753   8.156   5.779   8.159 -0.9155 -1.9093 -1.7172
  483MOL0     H63754   8.158   5.865   8.603 -2.7679 -0.0095 -0.5691
  483MOL0     H63755   8.220   5.828   7.832 -0.4439 -0.4519 -1.3264
  483MOL0     H63756   8.373   5.911   7.669  0.7998 -0.7106  0.7256
  484MOL0     O63757   7.688   0.800   3.439  0.5668 -0.2051 -0.0643
  484MOL0     C63758   7.682   0.909   3.376 -0.3535 -1.0081 -0.2189
  484MOL0     O63759   7.768   1.017   3.395  0.7731 -0.4273  0.1658
  484MOL0     C63760   7.888   1.006   3.460 -0.1458  0.9239  0.4332
  484MOL0     C63761   7.979   0.915   3.415  0.9515 -0.1901  0.0237
  484MOL0     C63762   8.111   0.920   3.446  0.9910  1.0335 -0.5045
  484MOL0     C63763   8.159   1.018   3.537 -0.7826  0.7841  0.3232
  484MOL0     O63764   8.292   1.022   3.575  0.5465 -0.4802  0.4732
  484MOL0     C63765   8.334   1.134   3.659  0.0332  0.7872  0.3998
  484MOL0     C63766   8.478   1.113   3.707 -0.6075 -1.4006 -0.1635
  484MOL0     C63767   8.487   1.013   3.828  0.5129 -0.7133 -0.1570
  484MOL0     C63768   8.629   1.035   3.896 -0.1762  0.0689  0.5279
  484MOL0     C63769   8.668   0.920   3.998 -0.3870 -0.6967  0.1027
  484MOL0     C63770   8.768   0.982   4.109  1.0185  0.6745  0.1807
  484MOL0     C63771   8.817   0.888   4.222  0.2693  0.0646 -0.4380
  484MOL0     C63772   8.724   0.880   4.340 -0.4512 -0.3029 -0.2137
  484MOL0     N63773   8.760   0.776   4.437 -0.6008  0.4248  0.8171
  484MOL0     C63774   8.697   0.760   4.557  0.7458  0.2847  0.2311
  484MOL0     C63775   8.798   0.709   4.640 -0.6056 -0.4650 -0.7214
  484MOL0     C63776   8.791   0.697   4.787  0.5126  0.6509  0.0979
  484MOL0     C63777   8.830   0.831   4.859 -0.1018 -0.0017 -0.2473
  484MOL0     C63778   8.751   0.951   4.809  0.1527  0.2238  0.2940
  484MOL0     C63779   8.601   0.957   4.854 -0.0957 -1.5828  0.8192
  484MOL0     O63780   8.522   0.851   4.802  0.0479 -0.0972  0.0039
  484MOL0     C63781   8.414   0.809   4.874  0.5329  0.6373  0.7245
  484MOL0     C63782   8.329   0.705   4.824  0.4430  0.2058 -0.5235
  484MOL0     C63783   8.205   0.662   4.888 -0.5231 -0.3650  0.7529
  484MOL0     C63784   8.166   0.733   5.003  0.0100  0.6651  0.4431
  484MOL0     C63785   8.035   0.695   5.067  0.2096 -0.2236  0.9734
  484MOL0     O63786   8.017   0.772   5.176 -0.2159 -0.5359  0.6485
  484MOL0     C63787   7.923   0.739   5.270  0.5170  1.1509 -0.0248
  484MOL0     C63788   7.813   0.827   5.301  0.3779  0.3317  0.7952
  484MOL0     C63789   7.740   0.786   5.418  0.3928  0.0420 -0.3970
  484MOL0     C63790   7.765   0.665   5.486 -0.0049  0.1188  0.6047
  484MOL0     O63791   7.689   0.645   5.600 -0.5695 -0.6234  0.4376
  484MOL0     C63792   7.669   0.512   5.642  0.2616 -0.0791 -0.2673
  484MOL0     C63793   7.579   0.438   5.544  0.7989 -0.0140  0.3540
  484MOL0     C63794   7.556   0.295   5.588  0.3046 -0.1254 -0.1893
  484MOL0     C63795   7.677   0.221   5.586 -0.9090  1.0996  0.7931
  484MOL0     C63796   7.663   0.067   5.593 -0.1248 -0.7280 -0.3435
  484MOL0     C63797   7.592   0.015   5.724 -0.0941 -0.4006  0.4471
  484MOL0     C63798   7.600  -0.136   5.737  0.6614 -1.0670 -1.0201
  484MOL0     C63799   7.607  -0.179   5.886  0.3795 -0.8083 -0.7699
  484MOL0    Cl63800   7.446  -0.178   5.962 -0.1742 -0.2909 -0.2336
  484MOL0     C63801   7.866   0.583   5.442  0.4787  0.3651 -1.0763
  484MOL0     C63802   7.953   0.629   5.352  0.7896  0.3526 -0.3015
  484MOL0     O63803   7.970   0.605   5.030 -0.3732 -0.1052  0.2648
  484MOL0     C63804   8.249   0.830   5.054  0.9563  1.5108 -0.0133
  484MOL0     C63805   8.363   0.874   4.989  1.0317  0.7891 -0.5632
  484MOL0     N63806   8.910   0.685   4.562 -0.1588  0.7901 -0.5244
  484MOL0     N63807   8.883   0.724   4.439  0.5949  0.0704 -0.2363
  484MOL0     C63808   8.069   1.121   3.573  0.2664  1.1527  0.7295
  484MOL0     C63809   7.934   1.109   3.540 -0.3671 -1.0513 -0.9200
  484MOL0     C63810   7.578   0.927   3.273 -0.3267  0.3218 -0.1305
  484MOL0     C63811   7.496   0.818   3.244  0.2167  0.3979 -0.5166
  484MOL0     C63812   7.386   0.831   3.161  0.0592  0.4995  0.6755
  484MOL0     C63813   7.372   0.953   3.090 -0.1861 -0.3904  0.3144
  484MOL0     O63814   7.280   0.956   2.985 -0.0009  1.3180  0.0176
  484MOL0     C63815   7.265   0.832   2.908 -0.1033  0.4786 -0.4677
  484MOL0     C63816   7.383   0.767   2.840 -0.0398  0.0693  1.0764
  484MOL0     C63817   7.345   0.652   2.746 -1.0556  0.2055  0.2398
  484MOL0     C63818   7.447   0.540   2.748 -0.6640 -0.0556 -0.4399
  484MOL0     C63819   7.456   0.459   2.871  0.2766  0.0417  0.1426
  484MOL0     C63820   7.466   0.409   2.976  1.1128 -0.0149  0.1338
  484MOL0     C63821   7.462   1.057   3.104 -0.1558 -0.4777  0.7735
  484MOL0     C63822   7.564   1.044   3.192 -0.5083  0.8813 -0.1252
  484MOL0     H63823   7.952   0.825   3.361  1.6789 -1.8060  2.2160
  484MOL0     H63824   8.161   0.835   3.401 -1.0892 -0.9348  0.6570
  484MOL0     H63825   8.284   1.154   3.754  1.1818  1.6908  0.8412
  484MOL0     H63826   8.319   1.232   3.613 -2.0437 -0.7682 -2.5646
  484MOL0     H63827   8.509   1.214   3.735 -0.7613 -1.8704  1.8271
  484MOL0     H63828   8.548   1.085   3.627 -1.2335  0.0076 -1.2621
  484MOL0     H63829   8.460   0.917   3.782 -3.1242 -0.4991  1.1852
  484MOL0     H63830   8.408   1.031   3.902  2.0615  3.3786  0.7807
  484MOL0     H63831   8.701   1.041   3.815 -0.3049 -1.0129  0.3259
  484MOL0     H63832   8.628   1.137   3.936  0.0103  0.3203 -0.1094
  484MOL0     H63833   8.731   0.843   3.953  1.0891  0.6095 -0.1752
  484MOL0     H63834   8.580   0.869   4.038 -0.1085 -0.9513  0.3992
  484MOL0     H63835   8.735   1.081   4.143 -2.3673 -0.4555  0.5583
  484MOL0     H63836   8.865   1.009   4.067  0.7544  2.3362  0.5430
  484MOL0     H63837   8.832   0.793   4.171 -4.1283  0.0367 -2.0892
  484MOL0     H63838   8.917   0.917   4.256  0.9906 -1.3426 -1.2805
  484MOL0     H63839   8.626   0.863   4.293 -0.5129 -3.0020  0.7109
  484MOL0     H63840   8.722   0.975   4.394  1.1201 -0.5482  0.3079
  484MOL0     H63841   8.601   0.803   4.583 -0.0682  0.5846 -2.9085
  484MOL0     H63842   8.860   0.617   4.817  4.3789  3.1954 -1.3260
  484MOL0     H63843   8.687   0.678   4.816  0.0448  1.6710 -0.8571
  484MOL0     H63844   8.936   0.837   4.833  0.8645 -0.7187  3.0046
  484MOL0     H63845   8.830   0.822   4.969  1.4026  2.3685  0.0231
  484MOL0     H63846   8.804   1.035   4.855  3.8986 -2.1804  0.8238
  484MOL0     H63847   8.765   0.968   4.702  4.0855 -0.1190  0.6111
  484MOL0     H63848   8.562   1.054   4.820 -3.5060 -3.1275 -0.1290
  484MOL0     H63849   8.585   0.957   4.962 -0.0273 -0.3632  0.8495
  484MOL0     H63850   8.349   0.650   4.733  1.4409 -0.0041 -0.1900
  484MOL0     H63851   8.134   0.593   4.844 -2.0343 -0.1105  2.6647
  484MOL0     H63852   7.803   0.915   5.238  0.9374 -1.7994 -2.5086
  484MOL0     H63853   7.670   0.859   5.458  0.2656 -1.2795  1.9428
  484MOL0     H63854   7.616   0.519   5.738  0.4172 -0.5867 -0.1445
  484MOL0     H63855   7.761   0.458   5.666  0.3588  0.1514 -0.1079
  484MOL0     H63856   7.625   0.439   5.445 -0.8221 -2.9868 -0.5608
  484MOL0     H63857   7.478   0.477   5.534  2.0092  3.3353 -0.0296
  484MOL0     H63858   7.479   0.249   5.525 -0.2677  0.4376  0.0878
  484MOL0     H63859   7.516   0.307   5.689  1.6266  0.0479  0.3329
  484MOL0     H63860   7.739   0.250   5.501 -1.3766  1.2372  0.4918
  484MOL0     H63861   7.745   0.254   5.665  1.7531 -0.3902 -0.7528
  484MOL0     H63862   7.769   0.042   5.584  0.9231  2.1636  2.3823
  484MOL0     H63863   7.618   0.030   5.500 -1.1830 -1.9197  0.5919
  484MOL0     H63864   7.486   0.043   5.722  0.2335  1.1219 -2.7380
  484MOL0     H63865   7.633   0.058   5.816 -2.6673 -3.7314  3.4580
  484MOL0     H63866   7.511  -0.174   5.686  0.8164 -2.1886 -0.4902
  484MOL0     H63867   7.690  -0.167   5.683 -0.0406 -0.0239 -2.8558
  484MOL0     H63868   7.679  -0.110   5.931 -1.3730 -0.3655  1.5137
  484MOL0     H63869   7.649  -0.279   5.902 -1.2986 -1.0209  3.8070
  484MOL0     H63870   7.897   0.497   5.501 -1.0468  0.2184 -0.4666
  484MOL0     H63871   8.046   0.582   5.323 -0.3684 -1.2205 -1.5979
  484MOL0     H63872   8.214   0.871   5.148 -1.4420 -1.3288  0.4938
  484MOL0     H63873   8.409   0.959   5.038  2.0702  0.6629 -1.2871
  484MOL0     H63874   8.107   1.204   3.632  0.3012  1.8936 -0.2946
  484MOL0     H63875   7.867   1.180   3.586  0.3225 -1.2796  0.4946
  484MOL0     H63876   7.512   0.724   3.295  3.8957 -0.8082 -3.4044
  484MOL0     H63877   7.324   0.742   3.157 -0.2913  0.7674 -0.2972
  484MOL0     H63878   7.178   0.836   2.842  0.3514 -1.6133 -1.2547
  484MOL0     H63879   7.223   0.748   2.963 -2.5716  0.5836 -2.0428
  484MOL0     H63880   7.444   0.839   2.784  0.0452 -1.3354 -0.7163
  484MOL0     H63881   7.452   0.731   2.917  0.9271 -1.9379 -0.6223
  484MOL0     H63882   7.327   0.681   2.642  2.9284 -3.5587 -1.8405
  484MOL0     H63883   7.256   0.602   2.784 -1.4100  0.5194 -0.1571
  484MOL0     H63884   7.410   0.477   2.667 -1.6790  0.8191 -0.6738
  484MOL0     H63885   7.550   0.574   2.729  1.1738 -2.5561  3.5907
  484MOL0     H63886   7.470   0.366   3.074 -0.2318 -3.2819 -1.0828
  484MOL0     H63887   7.448   1.151   3.052 -0.2689 -0.1761  1.3394
  484MOL0     H63888   7.637   1.124   3.199  0.1054  0.2136  2.0110
  485MOL0     O63889   9.397   0.491   5.457 -0.9121 -0.7053  0.2374
  485MOL0     C63890   9.429   0.405   5.540  0.8024  0.8967  1.2475
  485MOL0     O63891   9.543   0.343   5.556  0.0368 -0.5719  0.0505
  485MOL0     C63892   9.627   0.333   5.446  0.5423 -0.4789  0.3745
  485MOL0     C63893   9.763   0.329   5.478 -0.6042 -0.2909 -0.6157
  485MOL0     C63894   9.855   0.305   5.379  0.6501 -0.3369  0.8716
  485MOL0     C63895   9.815   0.254   5.255  1.1787 -0.1748  0.1609
  485MOL0     O63896   9.896   0.213   5.156  0.0058  0.5130  0.2083
  485MOL0     C63897   9.901   0.062   5.165 -0.9751 -0.6598 -0.2430
  485MOL0     C63898  10.046   0.011   5.169 -0.4262 -0.0100  0.5068
  485MOL0     C63899  10.121   0.028   5.035 -0.4833  0.0522  0.0135
  485MOL0     C63900  10.091  -0.095   4.940 -0.7357  0.5760 -0.7075
  485MOL0     C63901  10.138  -0.077   4.800  0.3141 -0.2967  0.7033
  485MOL0     C63902  10.149  -0.199   4.707  0.7182 -0.4358  0.7545
  485MOL0     C63903  10.250  -0.151   4.588  0.8251 -0.2553 -1.0459
  485MOL0     C63904  10.258  -0.272   4.490  0.2626 -0.6915 -0.7284
  485MOL0     N63905  10.287  -0.211   4.358  0.0108 -0.4650 -0.4460
  485MOL0     C63906  10.189  -0.181   4.263 -0.4151 -1.0239 -0.0060
  485MOL0     C63907  10.250  -0.094   4.184 -0.4202 -0.1030 -0.9004
  485MOL0     C63908  10.191  -0.026   4.068 -0.2642 -0.5209  0.0010
  485MOL0     C63909  10.207  -0.114   3.940  0.7331  0.8771  1.0247
  485MOL0     C63910  10.137  -0.056   3.816 -0.0476  0.2706 -0.0470
  485MOL0     C63911  10.162  -0.129   3.692 -0.0244  0.0131 -0.4909
  485MOL0     O63912  10.071  -0.233   3.670 -0.8232  0.0020 -0.3947
  485MOL0     C63913  10.083  -0.302   3.547 -0.6161 -0.1202 -0.4082
  485MOL0     C63914   9.984  -0.394   3.525 -0.0872 -0.1862  1.0103
  485MOL0     C63915   9.985  -0.472   3.402  0.6050 -0.8498  0.1683
  485MOL0     C63916  10.072  -0.433   3.295  0.5080  0.7018 -0.8878
  485MOL0     C63917  10.077  -0.509   3.163 -0.4018 -0.1978 -0.6416
  485MOL0     O63918   9.966  -0.597   3.145 -0.4204  0.2484  0.1545
  485MOL0     C63919   9.947  -0.667   3.030 -0.6051  0.3935  0.2776
  485MOL0     C63920   9.918  -0.609   2.911  0.1095  0.2307 -0.3045
  485MOL0     C63921   9.890  -0.686   2.795  0.0103  0.5052 -1.3824
  485MOL0     C63922   9.885  -0.823   2.793 -0.2989  0.4218 -0.0624
  485MOL0     O63923   9.846  -0.876   2.671  0.3180  0.1810  0.4823
  485MOL0     C63924   9.831  -1.019   2.671  0.8624  0.9552 -0.8946
  485MOL0     C63925   9.807  -1.082   2.544 -0.2821  0.5882 -0.9107
  485MOL0     C63926   9.696  -1.023   2.454  0.4654 -0.0709 -0.6316
  485MOL0     C63927   9.557  -1.079   2.494 -0.7996 -0.5348 -0.0935
  485MOL0     C63928   9.540  -1.232   2.455 -0.4355  0.3647 -0.6920
  485MOL0     C63929   9.541  -1.334   2.574 -0.8887 -0.0944 -0.3726
  485MOL0     C63930   9.439  -1.282   2.683  0.0289 -1.2508 -0.2496
  485MOL0     C63931   9.298  -1.253   2.636  0.1611  0.5135 -1.1945
  485MOL0    Cl63932   9.208  -1.408   2.644 -0.3574  0.0458 -0.3408
  485MOL0     C63933   9.928  -0.879   2.920  0.1891 -0.8866 -0.7600
  485MOL0     C63934   9.963  -0.804   3.038  0.1808 -0.3034 -0.2684
  485MOL0     O63935  10.178  -0.499   3.083  0.4053  0.2554  0.3280
  485MOL0     C63936  10.158  -0.326   3.318 -0.3183  0.2091 -0.9178
  485MOL0     C63937  10.162  -0.257   3.439  0.6954 -0.7558 -0.0544
  485MOL0     N63938  10.379  -0.070   4.230 -0.7139 -0.0645 -0.0136
  485MOL0     N63939  10.406  -0.147   4.329  0.5578  0.6563 -0.5648
  485MOL0     C63940   9.681   0.252   5.227  0.6199  1.4089  0.1931
  485MOL0     C63941   9.583   0.296   5.316  0.2267  0.0743 -0.7669
  485MOL0     C63942   9.316   0.355   5.621  0.6961 -1.0161 -0.2434
  485MOL0     C63943   9.342   0.256   5.724 -0.3838 -0.8911 -0.3218
  485MOL0     C63944   9.241   0.245   5.821  0.9893  1.0162  0.0623
  485MOL0     C63945   9.132   0.330   5.826 -0.0871  0.0293  0.9571
  485MOL0     O63946   9.034   0.322   5.921  0.1386 -0.3098 -0.0957
  485MOL0     C63947   9.069   0.306   6.061  0.0057  0.0566  0.2560
  485MOL0     C63948   8.953   0.376   6.146  0.5435  0.5956 -0.1907
  485MOL0     C63949   8.838   0.267   6.178 -0.6472 -0.1817  0.4778
  485MOL0     C63950   8.884   0.181   6.313  0.0999 -0.6723  0.6743
  485MOL0     C63951   8.785   0.066   6.331  0.3395  0.4107 -0.0203
  485MOL0     C63952   8.710  -0.024   6.347 -0.4483  0.4957  1.1281
  485MOL0     C63953   9.107   0.407   5.720  0.7050  1.1134 -0.0560
  485MOL0     C63954   9.189   0.424   5.611 -0.6314 -0.3357  0.6580
  485MOL0     H63955   9.793   0.355   5.579 -1.8391  0.1347 -0.3496
  485MOL0     H63956   9.961   0.290   5.397  0.5947 -1.2491  0.4843
  485MOL0     H63957   9.853   0.025   5.074  0.2971 -0.3788 -1.0537
  485MOL0     H63958   9.845   0.037   5.256  0.9808 -1.9932  0.6622
  485MOL0     H63959  10.047  -0.097   5.186  0.0759 -0.3813 -1.5468
  485MOL0     H63960  10.108   0.065   5.242 -0.6555  1.5114 -0.3700
  485MOL0     H63961  10.228   0.017   5.054 -0.9671 -4.5149  1.2141
  485MOL0     H63962  10.091   0.125   4.994 -2.2429  0.1287  1.3458
  485MOL0     H63963  10.125  -0.191   4.982  3.0188  2.3671  0.8135
  485MOL0     H63964   9.983  -0.111   4.934 -0.9239  1.2377  0.5298
  485MOL0     H63965  10.239  -0.037   4.807 -0.3009  1.1280  1.7995
  485MOL0     H63966  10.076   0.002   4.758 -1.2206 -1.8162 -0.0377
  485MOL0     H63967  10.057  -0.233   4.660 -0.1422  2.2786  0.2939
  485MOL0     H63968  10.202  -0.279   4.759  1.4345 -0.1728  0.4585
  485MOL0     H63969  10.203  -0.073   4.527  1.2637 -0.1179 -1.2073
  485MOL0     H63970  10.343  -0.120   4.635  0.0373 -0.5287  0.7836
  485MOL0     H63971  10.164  -0.326   4.481 -0.9374  1.2137 -0.1871
  485MOL0     H63972  10.333  -0.343   4.528  0.0384 -0.0566  1.0039
  485MOL0     H63973  10.085  -0.213   4.257 -1.1415  0.9779  1.2024
  485MOL0     H63974  10.243   0.067   4.043 -0.7267 -0.9496 -2.9750
  485MOL0     H63975  10.086   0.005   4.076  0.6630  3.3574 -0.9582
  485MOL0     H63976  10.173  -0.216   3.959  2.2357  0.0452 -0.5575
  485MOL0     H63977  10.313  -0.123   3.916  0.4162  0.9884 -0.5184
  485MOL0     H63978  10.030  -0.038   3.832  0.2655  1.7175  0.6034
  485MOL0     H63979  10.171   0.047   3.807  1.3493  0.0123  1.7236
  485MOL0     H63980  10.264  -0.169   3.686 -0.3463 -0.6049 -2.5324
  485MOL0     H63981  10.155  -0.051   3.615 -0.0508 -0.6198 -1.1383
  485MOL0     H63982   9.912  -0.409   3.605  1.4883  3.7182  3.4480
  485MOL0     H63983   9.922  -0.560   3.396 -2.3022  1.1916 -2.9325
  485MOL0     H63984   9.913  -0.502   2.893  2.1353  0.0789 -2.1900
  485MOL0     H63985   9.868  -0.640   2.699 -1.4193 -0.8496 -1.7391
  485MOL0     H63986   9.744  -1.030   2.736 -2.2225  4.4745 -3.9450
  485MOL0     H63987   9.923  -1.065   2.709  0.3113  2.5933  2.9169
  485MOL0     H63988   9.792  -1.190   2.556  0.9606  0.4732 -0.1753
  485MOL0     H63989   9.902  -1.070   2.491  2.2867 -2.2475  2.5440
  485MOL0     H63990   9.707  -1.053   2.349  0.6343  0.6514 -0.8289
  485MOL0     H63991   9.698  -0.914   2.465  2.3455  0.1473 -2.4401
  485MOL0     H63992   9.537  -1.057   2.599 -2.5589 -0.5532 -0.3909
  485MOL0     H63993   9.482  -1.025   2.435  0.2299 -0.6396 -1.5534
  485MOL0     H63994   9.626  -1.270   2.399  2.8665  0.1415  3.9104
  485MOL0     H63995   9.453  -1.243   2.390  0.8719 -1.4731 -2.2562
  485MOL0     H63996   9.637  -1.353   2.624 -0.1552  0.6250 -1.4738
  485MOL0     H63997   9.517  -1.432   2.531  0.8763  0.0422 -1.7723
  485MOL0     H63998   9.438  -1.351   2.767  1.3162  0.3372  1.1493
  485MOL0     H63999   9.479  -1.196   2.738  0.6442 -2.1914  0.7916
  485MOL0     H64000   9.290  -1.200   2.541  1.1808  1.1513 -0.9343
  485MOL0     H64001   9.252  -1.177   2.699 -0.4945 -0.9642  0.1738
  485MOL0     H64002   9.946  -0.986   2.932  1.0954 -0.7531 -0.8783
  485MOL0     H64003  10.008  -0.858   3.120 -2.6028 -2.8111 -0.2294
  485MOL0     H64004  10.227  -0.305   3.236 -0.1450 -2.2837 -1.4937
  485MOL0     H64005  10.228  -0.171   3.437  0.0347 -0.1605  1.3987
  485MOL0     H64006   9.644   0.218   5.131  1.8804  1.8875 -0.4846
  485MOL0     H64007   9.479   0.292   5.285  0.1631 -0.6668 -0.4835
  485MOL0     H64008   9.431   0.195   5.734 -1.0836 -1.5957  2.8764
  485MOL0     H64009   9.261   0.171   5.898 -1.0152 -0.7078 -0.9681
  485MOL0     H64010   9.167   0.351   6.082  1.0293 -2.0566  0.2427
  485MOL0     H64011   9.076   0.203   6.098  0.7012  0.6633  1.9498
  485MOL0     H64012   8.997   0.410   6.240  1.1735  0.0024 -0.2521
  485MOL0     H64013   8.912   0.458   6.087  0.0411  0.5350  0.0743
  485MOL0     H64014   8.842   0.200   6.092  4.0293  1.0286 -0.5067
  485MOL0     H64015   8.741   0.318   6.187 -0.0904  1.0431 -0.1824
  485MOL0     H64016   8.984   0.137   6.313  0.0810 -0.7394 -0.0992
  485MOL0     H64017   8.881   0.254   6.395  0.9324  4.9088 -3.6049
  485MOL0     H64018   8.643  -0.101   6.379  2.2031 -2.5328 -0.0446
  485MOL0     H64019   9.009   0.451   5.712  2.0229  4.4039  0.4859
  485MOL0     H64020   9.160   0.497   5.536 -1.4625 -0.6486  0.6571
  486MOL0     O64021   4.086   4.569   0.838  0.5155  0.0715 -0.9135
  486MOL0     C64022   4.160   4.625   0.757 -0.2028  0.0051  0.3075
  486MOL0     O64023   4.138   4.631   0.626  0.1825  0.5572 -0.3982
  486MOL0     C64024   4.040   4.560   0.563 -0.8360  0.5539 -0.0285
  486MOL0     C64025   3.918   4.504   0.626  0.4927 -0.2423  0.1552
  486MOL0     C64026   3.816   4.452   0.551  0.2746 -0.3685 -0.0036
  486MOL0     C64027   3.837   4.441   0.412  0.5943 -0.2499 -0.3777
  486MOL0     O64028   3.727   4.407   0.339 -0.3859 -0.8307 -0.2548
  486MOL0     C64029   3.761   4.313   0.227 -0.4574 -0.1154  0.3283
  486MOL0     C64030   3.634   4.247   0.188 -0.3936  0.3513  0.5189
  486MOL0     C64031   3.549   4.329   0.082 -0.0665 -0.0107 -0.0860
  486MOL0     C64032   3.422   4.256   0.048 -0.0651  0.5551 -0.5449
  486MOL0     C64033   3.326   4.344  -0.026 -0.3718  0.3262 -0.9121
  486MOL0     C64034   3.201   4.262  -0.040  0.9699 -0.8118 -0.4698
  486MOL0     C64035   3.094   4.338  -0.129  0.5358  0.7417 -0.5045
  486MOL0     C64036   2.977   4.242  -0.184 -0.0577  0.2371  0.4854
  486MOL0     N64037   2.892   4.181  -0.089 -0.1254  0.5375  0.3157
  486MOL0     C64038   2.922   4.076  -0.003  0.4211  0.6087  0.6772
  486MOL0     C64039   2.802   4.053   0.066  0.1603 -0.4913  0.1370
  486MOL0     C64040   2.784   3.951   0.181 -0.3144 -0.1675 -0.8680
  486MOL0     C64041   2.797   3.802   0.145 -0.5603  0.5394 -0.8250
  486MOL0     C64042   2.717   3.767   0.020  0.3353  0.4928  0.2387
  486MOL0     C64043   2.573   3.807   0.031  0.1496  0.8973 -0.4122
  486MOL0     O64044   2.531   3.760   0.165  0.1847  0.0540 -0.0922
  486MOL0     C64045   2.416   3.798   0.222 -1.5955 -0.3276  0.0142
  486MOL0     C64046   2.321   3.878   0.157  1.1500  0.4180  0.3900
  486MOL0     C64047   2.212   3.949   0.214 -1.0542  0.8301  0.1716
  486MOL0     C64048   2.196   3.928   0.354 -0.5115  0.7053  0.8979
  486MOL0     C64049   2.081   4.002   0.421 -0.5636 -0.7248  0.0724
  486MOL0     O64050   2.073   3.975   0.552 -0.2129  0.5267  0.7263
  486MOL0     C64051   1.982   4.039   0.633  0.3810  0.4203 -0.1548
  486MOL0     C64052   1.969   4.175   0.629 -0.4980  0.6228 -0.3649
  486MOL0     C64053   1.870   4.248   0.694  0.3823 -0.1444 -0.8014
  486MOL0     C64054   1.795   4.174   0.796  0.6920  0.9517  1.3793
  486MOL0     O64055   1.696   4.215   0.873  0.0887  0.6192 -0.4646
  486MOL0     C64056   1.628   4.337   0.833 -0.7886  0.2145 -0.1711
  486MOL0     C64057   1.503   4.348   0.913 -0.1615 -0.7598  0.9743
  486MOL0     C64058   1.410   4.221   0.939  0.4813  0.0270  0.1762
  486MOL0     C64059   1.369   4.132   0.819  0.9953  0.2635 -0.2503
  486MOL0     C64060   1.248   4.034   0.865 -0.6279  0.3929 -0.1703
  486MOL0     C64061   1.279   3.919   0.963  0.1064  0.6421  0.1919
  486MOL0     C64062   1.416   3.849   0.939  1.7514  0.0466 -0.0717
  486MOL0     C64063   1.409   3.776   0.801 -0.2105  0.9095 -0.4194
  486MOL0    Cl64064   1.443   3.593   0.801 -0.0260 -0.3607 -0.5205
  486MOL0     C64065   1.828   4.047   0.817 -0.7396  0.9689 -0.1439
  486MOL0     C64066   1.911   3.979   0.737 -0.4927  0.0804  0.2687
  486MOL0     O64067   2.010   4.077   0.362 -0.4455 -0.8456  0.5113
  486MOL0     C64068   2.282   3.844   0.433 -0.4389 -0.7041  0.9519
  486MOL0     C64069   2.394   3.781   0.362  0.6341 -0.2267  0.2673
  486MOL0     N64070   2.704   4.141   0.014  0.0866  0.5090 -0.1245
  486MOL0     N64071   2.760   4.216  -0.079 -0.0086 -0.5443  0.1293
  486MOL0     C64072   3.950   4.496   0.349  0.3402  1.2718  0.7262
  486MOL0     C64073   4.048   4.551   0.430  0.4922  0.6202  0.5813
  486MOL0     C64074   4.283   4.685   0.807 -1.2304  0.0359 -0.7481
  486MOL0     C64075   4.347   4.788   0.733  0.0276 -0.0686  0.8715
  486MOL0     C64076   4.467   4.854   0.782 -0.5587  0.7539  0.6938
  486MOL0     C64077   4.506   4.833   0.914  0.5701 -0.5550 -0.6551
  486MOL0     O64078   4.624   4.885   0.959  0.1228  0.4409 -0.0274
  486MOL0     C64079   4.630   4.931   1.099 -0.9161 -1.4960 -0.7383
  486MOL0     C64080   4.718   5.058   1.119  0.4281  0.1926 -0.6542
  486MOL0     C64081   4.642   5.180   1.065 -0.0579 -0.1376 -0.4719
  486MOL0     C64082   4.616   5.282   1.175  0.3718  1.3811  0.4003
  486MOL0     C64083   4.495   5.260   1.250 -0.0541  0.7810  0.1999
  486MOL0     C64084   4.402   5.228   1.323  0.2307  0.5718 -0.4556
  486MOL0     C64085   4.450   4.726   0.985  0.3842 -0.6202 -0.1876
  486MOL0     C64086   4.334   4.657   0.942  0.3581 -0.3616 -0.3988
  486MOL0     H64087   3.886   4.517   0.729 -1.0959  0.5449 -0.4073
  486MOL0     H64088   3.722   4.427   0.600 -0.1904  2.1762  0.5012
  486MOL0     H64089   3.820   4.242   0.286 -0.4729  0.3125  0.8737
  486MOL0     H64090   3.810   4.362   0.143  2.2634  2.7902  3.3310
  486MOL0     H64091   3.568   4.210   0.268 -0.0120  0.3145  0.8217
  486MOL0     H64092   3.676   4.156   0.144 -3.9073 -1.8379  1.2081
  486MOL0     H64093   3.614   4.356  -0.001  2.7385  0.1090  1.9743
  486MOL0     H64094   3.522   4.422   0.133 -0.9569  0.9469 -2.1863
  486MOL0     H64095   3.448   4.168  -0.012 -2.2134  1.1938 -2.5963
  486MOL0     H64096   3.373   4.221   0.139 -0.2275  2.7836  0.2835
  486MOL0     H64097   3.363   4.379  -0.123 -1.5415 -0.8323 -1.8110
  486MOL0     H64098   3.305   4.427   0.042 -0.7523 -0.4602 -0.0519
  486MOL0     H64099   3.165   4.240   0.061 -0.5873 -3.5922 -1.5331
  486MOL0     H64100   3.224   4.167  -0.089 -1.5047 -3.2720  2.6231
  486MOL0     H64101   3.043   4.407  -0.061  0.0736 -0.3103  0.2553
  486MOL0     H64102   3.141   4.383  -0.216 -0.1956  2.1721 -0.1983
  486MOL0     H64103   3.021   4.154  -0.231 -2.7784 -1.4501  0.8875
  486MOL0     H64104   2.921   4.298  -0.260 -0.0774 -0.0495  0.2864
  486MOL0     H64105   3.021   4.034   0.013  0.5278 -0.6828 -2.5122
  486MOL0     H64106   2.685   3.970   0.222  1.0005  1.6301  1.7809
  486MOL0     H64107   2.854   3.967   0.263  1.1051 -1.0580 -1.8556
  486MOL0     H64108   2.759   3.754   0.236 -1.3134  3.7461  0.7262
  486MOL0     H64109   2.904   3.794   0.126 -1.1284 -2.1433 -3.5851
  486MOL0     H64110   2.766   3.808  -0.068  0.2727  1.1042  0.4880
  486MOL0     H64111   2.722   3.659   0.002  0.3543  0.3386  1.1282
  486MOL0     H64112   2.510   3.775  -0.052 -1.8210 -0.4766  1.5029
  486MOL0     H64113   2.570   3.917   0.023  0.3461  0.8209 -1.7050
  486MOL0     H64114   2.328   3.906   0.052  0.8982  1.9116  0.7350
  486MOL0     H64115   2.144   4.017   0.164 -2.4298 -1.8099 -1.8351
  486MOL0     H64116   2.040   4.223   0.563 -0.7854 -0.1803 -1.2741
  486MOL0     H64117   1.851   4.354   0.701  2.6394  0.1863  2.7980
  486MOL0     H64118   1.601   4.330   0.728  1.0425 -1.2926 -0.5997
  486MOL0     H64119   1.683   4.431   0.842  0.5275 -0.6423  1.6721
  486MOL0     H64120   1.438   4.422   0.866 -1.6238 -2.0022  0.9420
  486MOL0     H64121   1.529   4.386   1.012  1.8077 -0.9717  0.5831
  486MOL0     H64122   1.316   4.260   0.981  0.1576  1.9475 -2.0953
  486MOL0     H64123   1.444   4.154   1.018 -1.2514  0.9076  1.7711
  486MOL0     H64124   1.327   4.200   0.744  0.9070  3.3321  2.3342
  486MOL0     H64125   1.456   4.077   0.782 -0.2980 -0.9127 -1.6523
  486MOL0     H64126   1.194   3.984   0.784 -1.6989  1.2820 -0.0192
  486MOL0     H64127   1.175   4.094   0.919 -1.5559 -1.7973  1.1414
  486MOL0     H64128   1.208   3.839   0.987  0.8267  0.1102  0.5942
  486MOL0     H64129   1.295   3.965   1.061  1.5748 -0.0900  0.3314
  486MOL0     H64130   1.503   3.913   0.927  0.6530  1.5831 -0.0339
  486MOL0     H64131   1.435   3.786   1.027  1.1745  0.7900  0.5993
  486MOL0     H64132   1.471   3.823   0.725  1.4999 -0.0265  0.3212
  486MOL0     H64133   1.309   3.782   0.759 -0.5771  1.3689  0.5043
  486MOL0     H64134   1.769   3.979   0.878  2.8970 -2.4888 -0.0945
  486MOL0     H64135   1.916   3.871   0.749 -0.2401  0.0163 -0.3756
  486MOL0     H64136   2.263   3.806   0.533  0.2862 -3.6139  0.0848
  486MOL0     H64137   2.471   3.717   0.403  0.3031 -0.7558  0.0826
  486MOL0     H64138   3.963   4.492   0.241 -3.4322 -2.4622  0.1360
  486MOL0     H64139   4.128   4.608   0.383  1.3465 -0.4290  0.7119
  486MOL0     H64140   4.319   4.824   0.635  1.8403  2.8269  1.2806
  486MOL0     H64141   4.520   4.929   0.724 -0.3486 -0.3096 -0.5264
  486MOL0     H64142   4.675   4.861   1.170  0.0717  0.5843  0.8002
  486MOL0     H64143   4.530   4.943   1.142 -1.1021 -1.4571 -1.1738
  486MOL0     H64144   4.750   5.059   1.224  2.5999 -0.7870 -1.2406
  486MOL0     H64145   4.811   5.052   1.061 -0.2214  2.0917 -1.9628
  486MOL0     H64146   4.549   5.148   1.017  0.2666 -1.9131 -0.0137
  486MOL0     H64147   4.711   5.226   0.994 -0.9257 -1.9640 -2.6378
  486MOL0     H64148   4.703   5.293   1.241 -2.0173  0.7530  3.8826
  486MOL0     H64149   4.604   5.380   1.127 -3.2026  0.4690 -0.8497
  486MOL0     H64150   4.327   5.187   1.388 -0.5315  1.9956 -0.3896
  486MOL0     H64151   4.514   4.696   1.067  3.8085  2.2040 -1.5717
  486MOL0     H64152   4.290   4.581   1.006  2.0153 -0.2822  0.9007
  487MOL0     O64153   5.403   9.588   7.787  0.6897 -0.4924 -0.4470
  487MOL0     C64154   5.406   9.470   7.759  0.7698  0.4222  0.0411
  487MOL0     O64155   5.312   9.411   7.672 -0.1762 -0.6055 -1.0398
  487MOL0     C64156   5.240   9.499   7.598 -0.1772 -0.0688 -0.3822
  487MOL0     C64157   5.110   9.466   7.570 -0.3963  0.5601 -0.5344
  487MOL0     C64158   5.036   9.524   7.462  0.2816 -0.1625  0.0275
  487MOL0     C64159   5.097   9.621   7.380 -0.9939 -0.4032  0.5897
  487MOL0     O64160   5.056   9.697   7.282  0.7156 -0.1250  0.5989
  487MOL0     C64161   4.941   9.637   7.216  0.9806  0.2056 -0.2315
  487MOL0     C64162   4.893   9.715   7.084 -1.3240 -0.3556  0.6525
  487MOL0     C64163   4.744   9.685   7.045 -0.4822 -0.9091 -0.4850
  487MOL0     C64164   4.707   9.545   7.030  0.2685  0.6047  0.4140
  487MOL0     C64165   4.568   9.517   6.983 -0.5851 -0.6436  0.3869
  487MOL0     C64166   4.459   9.578   7.053  0.0010 -1.1246 -0.8785
  487MOL0     C64167   4.321   9.536   7.027  0.2914  0.1252 -0.7089
  487MOL0     C64168   4.197   9.611   7.082 -1.3804 -0.6863  0.8902
  487MOL0     N64169   4.214   9.754   7.081 -0.6594 -0.1987 -0.3055
  487MOL0     C64170   4.214   9.850   6.983 -1.0943 -0.4538 -0.4497
  487MOL0     C64171   4.210   9.967   7.050 -0.3132 -1.1642  0.1274
  487MOL0     C64172   4.197  10.115   6.993 -0.7703 -0.6071 -0.9680
  487MOL0     C64173   4.312  10.136   6.896  0.3811  0.0677 -0.0362
  487MOL0     C64174   4.445  10.151   6.957 -0.2805  0.2559 -0.1269
  487MOL0     C64175   4.519  10.016   6.997  0.2101 -0.2258 -0.3816
  487MOL0     O64176   4.662  10.030   7.006 -0.1406 -0.5419  0.1116
  487MOL0     C64177   4.721  10.081   7.113 -0.9882  0.2398 -0.7748
  487MOL0     C64178   4.862  10.111   7.101 -0.0433 -0.2393  0.2578
  487MOL0     C64179   4.941  10.172   7.205  0.2897 -0.2657  0.6780
  487MOL0     C64180   4.873  10.204   7.330  0.5267  1.0165  1.7749
  487MOL0     C64181   4.944  10.271   7.437 -0.6220 -0.4049 -0.0973
  487MOL0     O64182   5.067  10.322   7.416 -0.4694 -0.5280 -0.0054
  487MOL0     C64183   5.133  10.386   7.515 -0.0731  0.0702 -0.1269
  487MOL0     C64184   5.183  10.318   7.624  0.3556 -0.2135 -0.8547
  487MOL0     C64185   5.279  10.380   7.708 -0.4841  0.4721  0.0372
  487MOL0     C64186   5.319  10.515   7.689  0.0784 -0.2871  0.6060
  487MOL0     O64187   5.399  10.584   7.790  0.1189  0.2639  0.1634
  487MOL0     C64188   5.518  10.647   7.735 -0.4750  0.6195  0.7997
  487MOL0     C64189   5.656  10.612   7.793  0.4441 -0.3046  1.8333
  487MOL0     C64190   5.685  10.633   7.937  0.0081  0.1261  0.7201
  487MOL0     C64191   5.801  10.539   7.979  0.2391 -0.3617 -0.9573
  487MOL0     C64192   5.869  10.601   8.107  1.0548  0.2809 -0.0606
  487MOL0     C64193   5.779  10.583   8.230 -0.5358  0.3039 -0.4144
  487MOL0     C64194   5.858  10.592   8.356 -0.8822 -0.4884  1.0059
  487MOL0     C64195   5.765  10.572   8.472  0.3824  0.2442 -0.2565
  487MOL0    Cl64196   5.865  10.564   8.619 -0.3826 -0.3831  0.2704
  487MOL0     C64197   5.270  10.588   7.583 -0.3351  0.6594  0.5580
  487MOL0     C64198   5.184  10.513   7.492  0.3207  0.1352 -0.4256
  487MOL0     O64199   4.888  10.270   7.548 -0.3779 -0.0201  0.1725
  487MOL0     C64200   4.731  10.177   7.337 -0.6901 -0.5599  0.4629
  487MOL0     C64201   4.663  10.124   7.233  0.1126  0.1158 -0.2104
  487MOL0     N64202   4.217   9.943   7.182  0.4120  0.4042 -0.9406
  487MOL0     N64203   4.215   9.815   7.204  0.7412 -0.3363 -0.1189
  487MOL0     C64204   5.231   9.651   7.412 -0.1055  0.7311  0.1476
  487MOL0     C64205   5.309   9.591   7.520  0.8204 -0.3754  0.3425
  487MOL0     C64206   5.488   9.382   7.834 -0.7280  0.4293 -0.0325
  487MOL0     C64207   5.594   9.439   7.905 -0.4900  0.0843 -0.7151
  487MOL0     C64208   5.681   9.359   7.983 -0.5194  0.8763 -0.0299
  487MOL0     C64209   5.662   9.220   7.978  0.6191 -0.4215  0.1504
  487MOL0     O64210   5.756   9.145   8.054 -0.2048 -0.8444  0.6369
  487MOL0     C64211   5.796   9.020   7.995 -0.7189 -0.8652 -0.7097
  487MOL0     C64212   5.943   8.969   8.034 -0.3488  0.5976  0.5828
  487MOL0     C64213   6.061   9.078   8.027 -0.1745  0.5586  0.4677
  487MOL0     C64214   6.077   9.120   7.882 -0.3526 -0.2621  0.3446
  487MOL0     C64215   6.178   9.229   7.858  0.0481 -0.6630  0.7151
  487MOL0     C64216   6.257   9.314   7.820  0.4979 -1.1865 -1.2617
  487MOL0     C64217   5.553   9.168   7.912 -0.3082 -0.4385  1.1347
  487MOL0     C64218   5.463   9.247   7.840  0.5245 -0.8895 -0.0965
  487MOL0     H64219   5.053   9.394   7.629 -1.0266  2.0525  0.7725
  487MOL0     H64220   4.931   9.503   7.445 -0.4851  0.9236  2.8496
  487MOL0     H64221   4.859   9.646   7.288 -1.3431 -3.2398 -2.1674
  487MOL0     H64222   4.946   9.533   7.184  0.6268 -0.8260  2.7730
  487MOL0     H64223   4.952   9.682   6.998 -1.2456 -0.0786  0.5976
  487MOL0     H64224   4.914   9.823   7.086  1.5412 -0.7136 -2.3509
  487MOL0     H64225   4.728   9.737   6.951  0.0034 -2.4748 -1.4680
  487MOL0     H64226   4.671   9.730   7.113  2.3985  0.5015  1.9215
  487MOL0     H64227   4.773   9.504   6.953  1.8957  2.0178  0.9997
  487MOL0     H64228   4.728   9.494   7.124 -1.1892 -0.4086  0.2241
  487MOL0     H64229   4.552   9.410   6.993 -1.5705 -0.9160 -2.8025
  487MOL0     H64230   4.570   9.547   6.878  0.5075  0.4983  0.7150
  487MOL0     H64231   4.453   9.685   7.031 -0.9121 -0.8628  0.5116
  487MOL0     H64232   4.475   9.557   7.159 -0.7330 -1.2552 -0.7892
  487MOL0     H64233   4.306   9.540   6.918 -1.2283 -1.4949 -0.6003
  487MOL0     H64234   4.287   9.436   7.054 -1.1455  0.2911 -1.7923
  487MOL0     H64235   4.178   9.571   7.182 -0.6801  0.0965  1.3471
  487MOL0     H64236   4.114   9.587   7.014  1.3669 -1.3353 -2.5632
  487MOL0     H64237   4.212   9.836   6.876  1.1323 -1.1434 -0.4423
  487MOL0     H64238   4.195  10.191   7.072  1.0648  0.9881 -2.3434
  487MOL0     H64239   4.105  10.119   6.934 -0.4612 -0.8644 -1.4779
  487MOL0     H64240   4.289  10.216   6.824  1.5972  1.2073  0.7868
  487MOL0     H64241   4.310  10.046   6.834 -0.1586  1.1524 -1.6739
  487MOL0     H64242   4.508  10.196   6.880 -2.1195  1.6024 -0.9324
  487MOL0     H64243   4.432  10.213   7.046 -1.9792 -1.8939  1.2595
  487MOL0     H64244   4.492   9.930   6.935 -0.7143 -1.3784  1.5270
  487MOL0     H64245   4.488   9.996   7.100 -0.9753 -0.3622 -0.7445
  487MOL0     H64246   4.912  10.088   7.008  1.7784 -1.2354  1.4192
  487MOL0     H64247   5.044  10.197   7.184  1.6724 -5.0759  0.6588
  487MOL0     H64248   5.165  10.212   7.632 -0.8481  0.0711  0.7773
  487MOL0     H64249   5.322  10.328   7.793  1.9354  2.8005  0.3768
  487MOL0     H64250   5.512  10.756   7.734  5.1234  1.2903 -2.2319
  487MOL0     H64251   5.523  10.618   7.630 -1.1753 -0.6296  1.0887
  487MOL0     H64252   5.729  10.663   7.730 -1.1441  0.1112  0.2551
  487MOL0     H64253   5.683  10.511   7.762  3.0118  1.2780 -1.8749
  487MOL0     H64254   5.599  10.628   8.004 -0.4593  1.8493  0.2909
  487MOL0     H64255   5.714  10.737   7.951 -3.3181  1.7413 -2.6771
  487MOL0     H64256   5.761  10.444   8.014 -1.6144  1.1659  1.3967
  487MOL0     H64257   5.865  10.514   7.894 -1.9571  1.5658 -3.3360
  487MOL0     H64258   5.895  10.706   8.097  0.5714  0.8037  3.0677
  487MOL0     H64259   5.962  10.549   8.130  1.3712  0.6637 -0.4820
  487MOL0     H64260   5.723  10.489   8.229 -1.7387  0.9640 -2.8356
  487MOL0     H64261   5.698  10.655   8.242 -1.8003 -1.3632  2.0508
  487MOL0     H64262   5.936  10.516   8.349 -0.3441  0.1101  0.4177
  487MOL0     H64263   5.909  10.689   8.361  0.5161 -1.2779  3.0552
  487MOL0     H64264   5.712  10.478   8.456  3.3390 -1.6578  0.3716
  487MOL0     H64265   5.690  10.651   8.475  1.9917  2.0699  5.8014
  487MOL0     H64266   5.302  10.687   7.552  0.7160  0.4850  1.0499
  487MOL0     H64267   5.146  10.567   7.406 -2.4591  3.3150  2.4834
  487MOL0     H64268   4.671  10.208   7.422  0.5390 -0.2470  1.2367
  487MOL0     H64269   4.556  10.125   7.248 -0.1511 -1.4122 -1.6068
  487MOL0     H64270   5.284   9.725   7.354  1.8849  0.1099  1.0656
  487MOL0     H64271   5.413   9.610   7.546 -0.2332  2.3219  3.4587
  487MOL0     H64272   5.602   9.548   7.904 -2.3793  0.2516 -0.7200
  487MOL0     H64273   5.762   9.382   8.051  0.4391  1.2031 -1.2294
  487MOL0     H64274   5.806   9.030   7.886  0.9890 -0.4882 -0.5573
  487MOL0     H64275   5.724   8.943   8.022  1.2142 -1.6992  2.7017
  487MOL0     H64276   5.935   8.939   8.138  1.0632  0.2544  0.6093
  487MOL0     H64277   5.965   8.884   7.969  0.7197 -1.9437  4.0028
  487MOL0     H64278   6.148   9.031   8.075  0.0768 -0.2863 -0.7421
  487MOL0     H64279   6.034   9.165   8.087  3.3015  3.0012 -1.1659
  487MOL0     H64280   6.115   9.036   7.823 -2.0742  0.3582 -1.8197
  487MOL0     H64281   5.982   9.148   7.836 -0.2982  0.5567  0.7116
  487MOL0     H64282   6.320   9.393   7.784  0.0610  0.2473  0.9128
  487MOL0     H64283   5.520   9.066   7.922  2.5569 -1.3537  2.3720
  487MOL0     H64284   5.370   9.210   7.799  0.1732  0.5083 -0.5939
  488MOL0     O64285   2.859   5.023   2.721  0.0461 -0.3318 -0.1447
  488MOL0     C64286   2.865   5.119   2.644  0.1339  0.1735 -0.4848
  488MOL0     O64287   2.900   5.105   2.518 -0.6995 -0.4407 -0.4780
  488MOL0     C64288   2.943   4.981   2.473  0.2260 -0.3336 -0.3615
  488MOL0     C64289   3.085   4.957   2.457  0.2256 -0.3720 -0.7327
  488MOL0     C64290   3.135   4.838   2.421 -0.8114 -0.1676  0.2480
  488MOL0     C64291   3.047   4.737   2.398  1.0954 -0.1596 -0.1182
  488MOL0     O64292   3.101   4.626   2.346 -0.3715 -1.0130 -0.2923
  488MOL0     C64293   3.107   4.512   2.426 -0.1712  0.0770  0.4005
  488MOL0     C64294   3.245   4.501   2.487 -0.1413  0.1031  0.0651
  488MOL0     C64295   3.348   4.461   2.382  0.2049  0.7915 -0.3115
  488MOL0     C64296   3.474   4.402   2.454  0.5799 -0.0605  0.3446
  488MOL0     C64297   3.583   4.352   2.352  0.0525  1.3225 -0.0926
  488MOL0     C64298   3.721   4.341   2.416 -0.4591  0.3375  0.6760
  488MOL0     C64299   3.834   4.282   2.326  0.1114 -0.0059 -0.0527
  488MOL0     C64300   3.811   4.133   2.287 -0.3762  0.7504  0.0314
  488MOL0     N64301   3.824   4.039   2.401 -0.1783  0.2060 -1.0251
  488MOL0     C64302   3.788   3.906   2.391 -0.9735  0.1140 -0.5652
  488MOL0     C64303   3.816   3.842   2.508  0.3843 -0.7924 -1.4089
  488MOL0     C64304   3.780   3.705   2.565 -0.1229 -0.2066  0.0038
  488MOL0     C64305   3.903   3.623   2.551 -0.3944  0.0126 -0.4097
  488MOL0     C64306   3.864   3.469   2.579  0.3814  0.0419 -0.2230
  488MOL0     C64307   3.971   3.391   2.652 -0.1321 -0.3876 -0.5317
  488MOL0     O64308   4.107   3.413   2.589  0.7683  0.1339 -0.2560
  488MOL0     C64309   4.121   3.353   2.464  0.5910  0.8361 -0.1180
  488MOL0     C64310   4.086   3.228   2.431 -0.4223  0.1213  0.7779
  488MOL0     C64311   4.094   3.177   2.302 -0.2813 -0.1902 -0.3060
  488MOL0     C64312   4.142   3.256   2.191  0.2836  0.8128  0.0701
  488MOL0     C64313   4.125   3.202   2.052 -0.3819 -0.0107 -0.4037
  488MOL0     O64314   4.008   3.141   2.023  0.2839 -0.2345 -0.3222
  488MOL0     C64315   3.982   3.085   1.900 -0.2103 -0.2875  0.3343
  488MOL0     C64316   4.048   2.975   1.855 -0.2359 -0.7442  0.4717
  488MOL0     C64317   4.013   2.898   1.744  0.7010  0.2029 -0.3441
  488MOL0     C64318   3.898   2.930   1.680  0.0352  0.2457  0.4452
  488MOL0     O64319   3.845   2.847   1.576  0.8991 -0.3365 -0.6682
  488MOL0     C64320   3.932   2.753   1.515 -0.4526 -1.2040  0.3969
  488MOL0     C64321   3.842   2.700   1.409 -0.7715  0.0989  1.2427
  488MOL0     C64322   3.899   2.568   1.343  0.2394 -0.4881  0.1882
  488MOL0     C64323   3.791   2.523   1.238  0.3170  0.1018  0.0231
  488MOL0     C64324   3.850   2.404   1.157 -0.1219 -0.3220 -0.1001
  488MOL0     C64325   3.783   2.378   1.024  0.2189  0.2493 -0.3152
  488MOL0     C64326   3.835   2.263   0.938 -0.6333  0.2263 -1.1649
  488MOL0     C64327   3.725   2.178   0.885  0.0665  0.8175  0.2327
  488MOL0    Cl64328   3.784   2.030   0.801  0.0977 -0.1504  0.4430
  488MOL0     C64329   3.827   3.046   1.722 -0.1414 -0.1151  0.3398
  488MOL0     C64330   3.875   3.134   1.821  0.3034 -0.7307 -0.4322
  488MOL0     O64331   4.213   3.230   1.963  0.1202 -0.4678  0.1150
  488MOL0     C64332   4.190   3.379   2.234  0.3752 -0.1499  0.2199
  488MOL0     C64333   4.175   3.424   2.369 -0.7505 -0.2810  0.5230
  488MOL0     N64334   3.881   3.936   2.587 -0.2164 -1.0423  0.3182
  488MOL0     N64335   3.880   4.059   2.525 -0.2395  0.1093 -0.9301
  488MOL0     C64336   2.913   4.748   2.409  0.0968 -0.1164  0.1888
  488MOL0     C64337   2.857   4.872   2.452 -0.3024  0.5900  0.0008
  488MOL0     C64338   2.792   5.240   2.694  0.0280  0.9022 -0.5191
  488MOL0     C64339   2.746   5.342   2.607 -0.5268 -0.6192 -0.0254
  488MOL0     C64340   2.701   5.459   2.666  1.2830  0.8853  0.1488
  488MOL0     C64341   2.680   5.463   2.808  0.3120  0.0105 -1.7994
  488MOL0     O64342   2.630   5.581   2.835  0.4953  0.1990  0.3072
  488MOL0     C64343   2.597   5.620   2.971 -1.0274  0.1908  0.6281
  488MOL0     C64344   2.523   5.741   2.969 -0.1433  0.0958 -0.0664
  488MOL0     C64345   2.608   5.864   2.929  0.5350  0.3513 -0.1882
  488MOL0     C64346   2.532   6.001   2.936  0.3136  0.8415  0.7599
  488MOL0     C64347   2.488   6.031   3.084  0.2367 -0.1994  0.0504
  488MOL0     C64348   2.436   6.063   3.190 -0.3542 -0.0309  0.1448
  488MOL0     C64349   2.708   5.358   2.893  0.9459  0.4764  0.2368
  488MOL0     C64350   2.759   5.238   2.834  1.0537  0.0810  0.6635
  488MOL0     H64351   3.150   5.041   2.482 -1.9787  0.6468  2.0821
  488MOL0     H64352   3.242   4.831   2.402 -0.2601 -2.9008  3.4581
  488MOL0     H64353   3.080   4.432   2.356  1.0305  1.8467 -2.2749
  488MOL0     H64354   3.032   4.502   2.505  0.4199 -4.9395  0.6845
  488MOL0     H64355   3.240   4.430   2.570 -0.4360 -0.4640 -0.4314
  488MOL0     H64356   3.276   4.594   2.535 -0.1611  0.2533 -0.2087
  488MOL0     H64357   3.377   4.550   2.327  0.0315  1.9324  1.3722
  488MOL0     H64358   3.303   4.393   2.308 -0.2431 -1.0568  1.5686
  488MOL0     H64359   3.518   4.485   2.509 -1.5792  1.2968  0.1490
  488MOL0     H64360   3.438   4.314   2.508  0.4239 -2.4558 -3.2793
  488MOL0     H64361   3.592   4.422   2.268 -1.7676  1.0128 -0.5983
  488MOL0     H64362   3.559   4.259   2.300  1.3284  1.2709 -0.6281
  488MOL0     H64363   3.700   4.272   2.498  0.9984 -0.3760  0.4671
  488MOL0     H64364   3.739   4.443   2.453 -2.3461 -0.4043  4.0994
  488MOL0     H64365   3.863   4.339   2.237  1.8600 -0.6679  0.0368
  488MOL0     H64366   3.911   4.278   2.404 -0.5206 -1.4022  0.5343
  488MOL0     H64367   3.882   4.103   2.209  3.4057  3.4192  2.1318
  488MOL0     H64368   3.711   4.125   2.243 -1.1839  2.1709  1.5021
  488MOL0     H64369   3.753   3.858   2.300 -1.2204  0.3443 -0.5926
  488MOL0     H64370   3.690   3.672   2.512  0.1269  1.5340 -1.6116
  488MOL0     H64371   3.760   3.710   2.672  0.5131  1.0428  0.0768
  488MOL0     H64372   3.983   3.650   2.621  1.5601  1.2399 -2.9748
  488MOL0     H64373   3.950   3.638   2.453 -0.8266  2.8143 -0.2578
  488MOL0     H64374   3.774   3.446   2.636  1.3730  0.8560  1.7470
  488MOL0     H64375   3.851   3.415   2.485  3.7363 -2.6497  0.6808
  488MOL0     H64376   3.952   3.284   2.652  1.8037 -0.7610 -0.9290
  488MOL0     H64377   3.970   3.418   2.758 -1.8564 -1.2388 -0.2943
  488MOL0     H64378   4.035   3.164   2.501  1.2093 -1.1014  0.9094
  488MOL0     H64379   4.074   3.072   2.283  0.3135 -0.3151 -0.2897
  488MOL0     H64380   4.134   2.944   1.914  2.5245  0.7671 -2.4160
  488MOL0     H64381   4.073   2.816   1.707 -0.7021 -1.0660  0.0748
  488MOL0     H64382   3.954   2.671   1.583  0.6017  0.2263  1.8804
  488MOL0     H64383   4.028   2.788   1.475  0.0029 -0.8013  1.7953
  488MOL0     H64384   3.838   2.782   1.337 -0.1719 -2.0766 -1.4376
  488MOL0     H64385   3.744   2.671   1.448 -2.6398  1.9483 -1.7165
  488MOL0     H64386   3.907   2.496   1.425  1.8557  0.3899  0.8510
  488MOL0     H64387   3.996   2.588   1.297 -1.0906  3.8394 -1.1558
  488MOL0     H64388   3.691   2.502   1.276  0.0739  0.2411 -0.5394
  488MOL0     H64389   3.773   2.598   1.161  0.3747 -1.0751 -1.1697
  488MOL0     H64390   3.846   2.317   1.223 -2.6534  0.3959  0.8528
  488MOL0     H64391   3.957   2.408   1.139  0.1546 -1.3730  1.1935
  488MOL0     H64392   3.778   2.468   0.962  1.3411  0.6500  0.1532
  488MOL0     H64393   3.680   2.356   1.052  0.0643  1.1693 -0.1375
  488MOL0     H64394   3.898   2.297   0.856  0.7245  1.5620  0.3690
  488MOL0     H64395   3.898   2.200   1.002 -1.0504 -1.7263 -2.5691
  488MOL0     H64396   3.665   2.229   0.809 -0.7662  1.0439  1.0107
  488MOL0     H64397   3.661   2.147   0.969  1.2658 -2.6529  0.0036
  488MOL0     H64398   3.740   3.083   1.669 -1.4690 -1.4551  1.5123
  488MOL0     H64399   3.832   3.233   1.833 -0.1441 -1.0553  0.8087
  488MOL0     H64400   4.247   3.445   2.169  1.0360  0.1565  1.0874
  488MOL0     H64401   4.213   3.515   2.414 -0.0341 -0.0326 -0.5499
  488MOL0     H64402   2.860   4.656   2.385  1.6878 -0.6996 -1.3074
  488MOL0     H64403   2.750   4.888   2.456 -0.5616 -1.1132  0.8297
  488MOL0     H64404   2.773   5.337   2.502 -1.2178  1.6756 -0.3743
  488MOL0     H64405   2.674   5.546   2.607  1.6722  1.0950  0.2754
  488MOL0     H64406   2.693   5.631   3.022 -1.7675  0.7270  1.9259
  488MOL0     H64407   2.542   5.537   3.018 -0.9079 -1.8210 -2.4463
  488MOL0     H64408   2.432   5.738   2.909  0.1862 -1.4966 -0.5323
  488MOL0     H64409   2.484   5.761   3.069 -2.3278 -0.8639 -0.6628
  488MOL0     H64410   2.650   5.863   2.828 -2.5243 -1.7233 -1.5807
  488MOL0     H64411   2.682   5.875   3.009 -1.1763  0.9205  1.3907
  488MOL0     H64412   2.595   6.081   2.895  2.3490 -0.4053  1.3078
  488MOL0     H64413   2.436   5.995   2.883 -0.9273  1.6446  2.7908
  488MOL0     H64414   2.395   6.084   3.287 -1.9627  1.5466 -0.8064
  488MOL0     H64415   2.688   5.371   2.998 -0.3872 -1.5570  0.2769
  488MOL0     H64416   2.776   5.146   2.889  0.7457 -1.5329 -1.7432
  489MOL0     O64417   1.723   3.301   2.078 -0.0528 -0.6556  0.4438
  489MOL0     C64418   1.833   3.285   2.034 -0.5737 -0.0947 -0.6698
  489MOL0     O64419   1.922   3.388   2.004 -0.1362 -0.3625 -0.6751
  489MOL0     C64420   1.884   3.516   2.037 -0.1625 -0.7684  0.1586
  489MOL0     C64421   1.830   3.551   2.160 -0.2594 -0.3507  0.4498
  489MOL0     C64422   1.801   3.685   2.189 -0.5518  0.2345 -0.0535
  489MOL0     C64423   1.835   3.786   2.100 -0.6362  0.8028  0.0615
  489MOL0     O64424   1.831   3.915   2.129  0.4692  0.3523  1.2957
  489MOL0     C64425   1.711   3.964   2.203  0.7021  0.4751  0.0605
  489MOL0     C64426   1.742   4.116   2.245  0.7901 -0.1877 -0.6640
  489MOL0     C64427   1.797   4.202   2.130  0.6857  0.5018  0.2047
  489MOL0     C64428   1.701   4.215   2.011 -0.5877  0.5759 -0.5509
  489MOL0     C64429   1.765   4.317   1.910  0.6553 -0.6784 -0.4893
  489MOL0     C64430   1.691   4.280   1.776 -0.4697  0.2376 -0.7264
  489MOL0     C64431   1.696   4.413   1.692 -0.0155 -0.5142  0.1832
  489MOL0     C64432   1.840   4.433   1.637 -0.2824 -0.4873 -0.0168
  489MOL0     N64433   1.858   4.543   1.537  0.4383 -0.4100  0.2917
  489MOL0     C64434   1.958   4.641   1.538  0.7088 -0.3964  0.4569
  489MOL0     C64435   1.935   4.712   1.425 -0.8639  0.0643 -0.9382
  489MOL0     C64436   2.017   4.834   1.394 -1.7093  0.1037  0.0015
  489MOL0     C64437   2.131   4.809   1.293 -0.9857 -0.1956 -0.1555
  489MOL0     C64438   2.198   4.930   1.239  0.5092 -0.4778 -0.7338
  489MOL0     C64439   2.245   5.036   1.336 -1.1610 -0.1411  0.6091
  489MOL0     O64440   2.335   5.130   1.278 -0.0231  0.6521 -0.9203
  489MOL0     C64441   2.398   5.192   1.379 -0.4482  0.9411  0.1003
  489MOL0     C64442   2.538   5.187   1.362 -0.3870 -0.3669 -0.1895
  489MOL0     C64443   2.625   5.249   1.455 -0.3740  0.3807  0.8713
  489MOL0     C64444   2.580   5.342   1.549 -0.1483  0.0161  0.0887
  489MOL0     C64445   2.674   5.426   1.633 -1.0749  1.2869  0.9370
  489MOL0     O64446   2.806   5.426   1.580  0.3915 -0.6041 -0.1121
  489MOL0     C64447   2.902   5.481   1.653 -0.6880 -0.0357  0.9492
  489MOL0     C64448   2.913   5.477   1.796 -1.0813  0.1696 -0.7532
  489MOL0     C64449   3.023   5.532   1.858 -0.6411  0.0786 -0.4358
  489MOL0     C64450   3.126   5.600   1.788 -0.9759 -0.5444  1.2435
  489MOL0     O64451   3.222   5.655   1.876  0.1843 -0.0955 -0.0251
  489MOL0     C64452   3.347   5.695   1.823 -0.4446  0.3337  0.8078
  489MOL0     C64453   3.419   5.780   1.936 -0.7660 -1.0229  0.2816
  489MOL0     C64454   3.541   5.850   1.876 -0.1438 -0.4349  0.0698
  489MOL0     C64455   3.602   5.945   1.989  0.1541  0.8762  0.4190
  489MOL0     C64456   3.733   5.885   2.051 -0.4745 -0.2263 -0.7015
  489MOL0     C64457   3.713   5.791   2.175 -1.5169 -0.0783  0.7285
  489MOL0     C64458   3.841   5.721   2.217  0.2603  0.0726 -1.0578
  489MOL0     C64459   3.819   5.622   2.334 -0.2449  0.2312 -0.7487
  489MOL0    Cl64460   3.699   5.494   2.296 -0.0818  0.4831 -1.0853
  489MOL0     C64461   3.122   5.597   1.649 -0.3347  0.2388  0.5611
  489MOL0     C64462   3.006   5.546   1.584 -0.4813  0.9085 -0.1564
  489MOL0     O64463   2.633   5.479   1.737  0.8329  0.3468 -0.9435
  489MOL0     C64464   2.442   5.355   1.565 -0.6850 -0.3828  0.3778
  489MOL0     C64465   2.353   5.279   1.482  1.0362  0.2137  0.2067
  489MOL0     N64466   1.838   4.646   1.346 -0.1413  0.1441 -0.0043
  489MOL0     N64467   1.789   4.553   1.417 -0.3562 -0.0067  0.1583
  489MOL0     C64468   1.900   3.755   1.973  0.2576 -0.0008 -0.3029
  489MOL0     C64469   1.923   3.619   1.941  0.3523  0.8008 -0.6948
  489MOL0     C64470   1.880   3.150   1.998 -0.5243  0.4907 -0.0735
  489MOL0     C64471   2.007   3.118   1.943 -0.6360  0.8978  0.6516
  489MOL0     C64472   2.037   2.993   1.894  0.1184  1.1417 -0.0653
  489MOL0     C64473   1.938   2.888   1.899 -0.7904  0.1870 -0.1970
  489MOL0     O64474   1.969   2.773   1.836 -0.5166 -0.5569  0.2741
  489MOL0     C64475   1.880   2.663   1.831 -0.1989  0.4270  0.1981
  489MOL0     C64476   1.862   2.567   1.953 -0.5603  0.2187 -0.2109
  489MOL0     C64477   2.006   2.524   1.988 -0.2690 -0.7543  0.7093
  489MOL0     C64478   2.009   2.432   2.108 -0.3988 -0.0141 -0.7885
  489MOL0     C64479   2.137   2.354   2.096  0.0535  0.6369 -0.5367
  489MOL0     C64480   2.235   2.286   2.077  0.2207  1.0132  0.7276
  489MOL0     C64481   1.821   2.921   1.968 -0.0646  0.6787  0.1395
  489MOL0     C64482   1.795   3.044   2.018  0.2810 -0.7417 -0.3190
  489MOL0     H64483   1.818   3.471   2.233 -2.5314  0.8398  1.4820
  489MOL0     H64484   1.734   3.707   2.272 -0.1171  2.3876 -0.2143
  489MOL0     H64485   1.693   3.900   2.290 -0.6804 -0.2421 -0.7145
  489MOL0     H64486   1.616   3.950   2.150  0.2243 -0.4191  1.0971
  489MOL0     H64487   1.822   4.118   2.319 -0.0841  2.5143  0.3333
  489MOL0     H64488   1.658   4.160   2.300  0.0025 -0.3112 -1.7315
  489MOL0     H64489   1.888   4.162   2.085  0.2847  0.1227 -0.2792
  489MOL0     H64490   1.825   4.303   2.161  1.0814  1.5858 -3.2604
  489MOL0     H64491   1.696   4.118   1.962 -4.1536  0.1411  0.3787
  489MOL0     H64492   1.597   4.247   2.027 -0.3457  2.6944 -2.6406
  489MOL0     H64493   1.873   4.310   1.895  0.6834  0.9347 -1.2148
  489MOL0     H64494   1.743   4.418   1.944  1.4047 -0.6485 -0.0668
  489MOL0     H64495   1.587   4.262   1.803  0.1557 -0.3113  1.5048
  489MOL0     H64496   1.732   4.191   1.727 -1.7697 -2.1450  2.1901
  489MOL0     H64497   1.633   4.415   1.603 -2.0621 -0.6657  1.5815
  489MOL0     H64498   1.662   4.502   1.745  1.5995  2.9204 -3.9446
  489MOL0     H64499   1.890   4.342   1.603  1.4139  0.8256 -1.1769
  489MOL0     H64500   1.909   4.459   1.718  0.4896 -1.7571 -0.2578
  489MOL0     H64501   2.044   4.666   1.600 -0.2600  2.8518  0.6941
  489MOL0     H64502   2.058   4.878   1.485 -1.4847 -1.0536  0.4737
  489MOL0     H64503   1.954   4.910   1.347 -3.4349 -1.5614 -0.5012
  489MOL0     H64504   2.085   4.765   1.204  0.4256  1.0375 -1.5921
  489MOL0     H64505   2.201   4.734   1.332 -1.0864 -2.6895 -4.1165
  489MOL0     H64506   2.282   4.897   1.177  2.9519  1.7018  1.1884
  489MOL0     H64507   2.124   4.984   1.179  0.9490 -0.2151 -1.0482
  489MOL0     H64508   2.304   4.984   1.413  1.1436  2.3486  0.6562
  489MOL0     H64509   2.158   5.083   1.382 -0.3565 -2.5924  5.2685
  489MOL0     H64510   2.586   5.126   1.286  1.5704 -1.5533  1.8641
  489MOL0     H64511   2.732   5.242   1.443 -0.1785  4.0562 -0.8987
  489MOL0     H64512   2.847   5.408   1.848  1.1741 -1.7819 -0.3290
  489MOL0     H64513   3.035   5.526   1.965 -0.5534 -0.0754 -0.4532
  489MOL0     H64514   3.332   5.753   1.732 -0.0444 -2.5477 -1.2121
  489MOL0     H64515   3.395   5.610   1.773 -1.0879  0.6009 -0.2881
  489MOL0     H64516   3.450   5.708   2.013 -0.4965 -2.8725 -1.4892
  489MOL0     H64517   3.355   5.862   1.973  1.2277  0.4861  0.5846
  489MOL0     H64518   3.503   5.901   1.787 -0.1142  0.6682  0.6703
  489MOL0     H64519   3.606   5.770   1.839  0.7317  0.4967 -0.4588
  489MOL0     H64520   3.622   6.045   1.950 -2.5831  3.2164  4.2714
  489MOL0     H64521   3.531   5.954   2.072  1.3790  1.2911  1.4441
  489MOL0     H64522   3.787   5.971   2.092 -1.1992 -1.0714  2.2516
  489MOL0     H64523   3.783   5.836   1.966  1.0244 -0.7637  0.4591
  489MOL0     H64524   3.634   5.723   2.143  1.2760 -2.2612 -2.2160
  489MOL0     H64525   3.684   5.852   2.261  4.3077  3.7082  0.5504
  489MOL0     H64526   3.893   5.679   2.131  1.4068 -0.1157 -0.2901
  489MOL0     H64527   3.910   5.795   2.257  0.3700 -0.5621 -0.0178
  489MOL0     H64528   3.793   5.667   2.430  2.2099 -2.1128  1.1921
  489MOL0     H64529   3.914   5.570   2.353 -2.3235 -3.8441 -0.6228
  489MOL0     H64530   3.204   5.643   1.596 -1.0590  1.4573  0.4681
  489MOL0     H64531   3.017   5.548   1.476  0.1867  1.3706 -0.0850
  489MOL0     H64532   2.403   5.435   1.626  1.8643  1.6449 -0.4727
  489MOL0     H64533   2.247   5.290   1.498  1.4180  0.5449  2.9221
  489MOL0     H64534   1.956   3.840   1.936  0.9710  0.7628  2.2981
  489MOL0     H64535   1.987   3.578   1.864  2.0000 -0.2012  1.1213
  489MOL0     H64536   2.080   3.195   1.923  3.1030 -1.5806  3.3925
  489MOL0     H64537   2.133   2.983   1.844 -0.9484  0.1598 -2.0762
  489MOL0     H64538   1.921   2.597   1.754  0.5244 -1.7545  2.3275
  489MOL0     H64539   1.778   2.694   1.806 -0.1555 -0.7876 -1.6454
  489MOL0     H64540   1.807   2.614   2.035 -0.7901  2.1285 -1.3835
  489MOL0     H64541   1.812   2.476   1.919  0.6016 -0.8475  0.8778
  489MOL0     H64542   2.079   2.605   2.003  0.1646 -0.4482 -2.4580
  489MOL0     H64543   2.048   2.471   1.902 -2.6483 -1.4780 -0.0863
  489MOL0     H64544   1.999   2.490   2.200 -1.3462  3.3992 -2.8523
  489MOL0     H64545   1.932   2.355   2.102 -0.0239 -0.6030  1.1607
  489MOL0     H64546   2.325   2.235   2.048 -0.6985  0.2378 -0.9294
  489MOL0     H64547   1.742   2.848   1.982 -2.0860  2.0136 -3.3751
  489MOL0     H64548   1.694   3.058   2.054  0.5949  3.2938 -0.5773
  490MOL0     O64549   4.127   2.401   7.163  0.0234 -0.0523 -0.6550
  490MOL0     C64550   4.101   2.459   7.057 -0.1150 -0.1310 -0.8888
  490MOL0     O64551   4.196   2.486   6.953 -0.4591  0.7334  0.0414
  490MOL0     C64552   4.330   2.448   6.982  0.7008  0.9677  0.3671
  490MOL0     C64553   4.385   2.385   6.871 -0.5867  0.1388 -0.0427
  490MOL0     C64554   4.524   2.351   6.874  0.8618 -0.2922 -0.4057
  490MOL0     C64555   4.603   2.373   6.987 -0.0125  0.1546  0.1486
  490MOL0     O64556   4.729   2.317   6.976  0.3115  0.1377 -0.5180
  490MOL0     C64557   4.774   2.257   7.094  0.5203  0.3302 -0.4487
  490MOL0     C64558   4.903   2.177   7.064 -0.2551  0.5359  0.1588
  490MOL0     C64559   4.990   2.168   7.187 -0.7098 -0.8138  0.0887
  490MOL0     C64560   5.081   2.291   7.209 -0.0277  0.3984  0.2279
  490MOL0     C64561   5.214   2.263   7.284 -0.2357 -0.2859 -0.5884
  490MOL0     C64562   5.185   2.218   7.434  0.3641 -0.1210  0.9642
  490MOL0     C64563   5.159   2.337   7.533  0.2062  0.2062  0.4040
  490MOL0     C64564   5.155   2.299   7.688 -0.8780 -0.3912  0.7105
  490MOL0     N64565   5.018   2.287   7.729  0.5427 -1.2523 -0.3198
  490MOL0     C64566   4.934   2.181   7.711  0.3134 -0.1425  0.7030
  490MOL0     C64567   4.809   2.223   7.730 -0.4951 -0.6122 -0.3631
  490MOL0     C64568   4.692   2.142   7.717  0.1859 -0.1786  0.1010
  490MOL0     C64569   4.571   2.210   7.656 -0.3312 -0.5106  0.8016
  490MOL0     C64570   4.498   2.308   7.746 -0.2666 -0.8279 -0.1875
  490MOL0     C64571   4.359   2.331   7.709  0.8754 -0.1948 -0.1836
  490MOL0     O64572   4.259   2.231   7.736  0.2562 -0.0719 -0.3575
  490MOL0     C64573   4.138   2.242   7.659  0.1705 -0.0675  0.6109
  490MOL0     C64574   4.108   2.134   7.574 -0.0023 -0.0967 -0.4242
  490MOL0     C64575   3.987   2.128   7.501 -0.4131 -0.9090  0.2998
  490MOL0     C64576   3.896   2.235   7.512 -0.5926 -0.1789 -0.7915
  490MOL0     C64577   3.757   2.222   7.455 -0.2873  0.1160  0.3905
  490MOL0     O64578   3.702   2.101   7.471  0.3746  0.6623  0.0210
  490MOL0     C64579   3.568   2.095   7.419 -0.0340  0.5797 -0.0214
  490MOL0     C64580   3.550   2.037   7.290 -0.6485 -0.2370  0.8324
  490MOL0     C64581   3.416   2.031   7.236 -0.3059 -1.2128 -0.0331
  490MOL0     C64582   3.307   2.079   7.303 -0.6222 -0.5994 -0.1777
  490MOL0     O64583   3.182   2.050   7.256 -0.1389  0.3480  0.1954
  490MOL0     C64584   3.071   2.048   7.343  0.7806 -0.1067 -1.1043
  490MOL0     C64585   3.054   1.922   7.418 -1.1773  0.9364 -0.5164
  490MOL0     C64586   3.013   1.819   7.323  0.7391 -0.2510 -0.1150
  490MOL0     C64587   3.010   1.690   7.400  0.3454  0.1580  0.2720
  490MOL0     C64588   2.896   1.681   7.498  0.0235  1.0744  0.2464
  490MOL0     C64589   2.896   1.545   7.579 -0.4399 -0.3585  0.4447
  490MOL0     C64590   3.018   1.509   7.671  0.4468  0.7508  0.4106
  490MOL0     C64591   3.019   1.360   7.697 -0.6756  0.1748 -0.4307
  490MOL0    Cl64592   2.864   1.301   7.784 -0.0118 -0.0776  0.3840
  490MOL0     C64593   3.329   2.125   7.437 -0.7394  0.6456  0.0209
  490MOL0     C64594   3.456   2.129   7.496  0.0856  1.4341  0.9055
  490MOL0     O64595   3.700   2.319   7.410 -0.2454  0.2448  0.3942
  490MOL0     C64596   3.933   2.338   7.598 -0.5162 -0.1984 -0.6435
  490MOL0     C64597   4.054   2.347   7.668 -0.0767  0.0335 -0.5340
  490MOL0     N64598   4.818   2.355   7.768 -0.6313  0.3108  0.6387
  490MOL0     N64599   4.941   2.398   7.776 -0.4765  0.3929  0.0352
  490MOL0     C64600   4.546   2.429   7.102  0.4431  0.2883 -0.4678
  490MOL0     C64601   4.408   2.472   7.096 -0.2295  0.6518 -0.3095
  490MOL0     C64602   3.957   2.498   7.044 -0.2527  0.5371 -0.6140
  490MOL0     C64603   3.853   2.472   7.141  0.1075 -0.7579  0.0153
  490MOL0     C64604   3.715   2.496   7.113 -0.2921 -0.8027 -0.6017
  490MOL0     C64605   3.675   2.564   6.998 -0.2605 -1.2515  0.6334
  490MOL0     O64606   3.541   2.597   6.974 -0.2729  0.2235  0.1543
  490MOL0     C64607   3.454   2.563   7.085 -0.9694  0.2205  0.4743
  490MOL0     C64608   3.316   2.582   7.035 -0.1190  0.1474 -0.2267
  490MOL0     C64609   3.214   2.515   7.135 -0.1701 -1.0513  0.6132
  490MOL0     C64610   3.168   2.622   7.235  0.3812  0.3972 -0.0790
  490MOL0     C64611   3.087   2.547   7.337 -0.3711 -0.0514  0.4514
  490MOL0     C64612   3.020   2.488   7.416 -0.0869  0.7966  0.8665
  490MOL0     C64613   3.784   2.598   6.912 -0.2287 -0.7305  0.3558
  490MOL0     C64614   3.919   2.559   6.929  0.0329  0.1963  0.2953
  490MOL0     H64615   4.313   2.384   6.789 -1.2077  3.8571  0.2867
  490MOL0     H64616   4.562   2.308   6.782  1.5972  1.9441 -1.2326
  490MOL0     H64617   4.708   2.180   7.135  2.6039 -2.7299 -2.3778
  490MOL0     H64618   4.794   2.335   7.168  0.1007 -0.4540  0.5008
  490MOL0     H64619   4.958   2.218   6.978 -0.8634 -1.7045 -1.4019
  490MOL0     H64620   4.869   2.076   7.038  1.0926  0.1312 -0.1296
  490MOL0     H64621   5.034   2.068   7.180 -2.0133 -1.5143  1.3149
  490MOL0     H64622   4.922   2.159   7.273 -0.5369  0.7240  0.4008
  490MOL0     H64623   5.105   2.327   7.109 -0.8649  0.0880 -0.0915
  490MOL0     H64624   5.044   2.376   7.268  0.2420  0.4773  0.2849
  490MOL0     H64625   5.275   2.354   7.278  0.4671 -0.6291  0.9518
  490MOL0     H64626   5.286   2.189   7.247  1.9658  1.5338 -0.1773
  490MOL0     H64627   5.271   2.160   7.468  3.2975  2.8610 -0.7693
  490MOL0     H64628   5.102   2.146   7.438 -0.4541  0.4925 -2.3174
  490MOL0     H64629   5.243   2.405   7.518 -0.4139  1.0421  0.6521
  490MOL0     H64630   5.064   2.384   7.505 -0.3055  0.8648  3.0120
  490MOL0     H64631   5.201   2.382   7.742 -0.6656  0.6472 -0.9705
  490MOL0     H64632   5.217   2.210   7.699  0.3244  0.3330 -0.0509
  490MOL0     H64633   4.958   2.082   7.674  0.5872  0.1613  0.0494
  490MOL0     H64634   4.667   2.105   7.817 -0.3013 -2.8335 -0.9245
  490MOL0     H64635   4.719   2.057   7.653 -0.6684 -1.2818  1.1489
  490MOL0     H64636   4.498   2.130   7.638 -2.2182  0.9934  1.3724
  490MOL0     H64637   4.598   2.263   7.564 -0.1106  0.0654  1.1928
  490MOL0     H64638   4.503   2.280   7.852 -1.7848  0.3180  0.2104
  490MOL0     H64639   4.546   2.404   7.728  0.4356 -1.0750  0.2754
  490MOL0     H64640   4.358   2.367   7.606  1.7361  1.4495  0.3460
  490MOL0     H64641   4.329   2.421   7.764 -0.5206 -0.8267  0.1353
  490MOL0     H64642   4.175   2.049   7.572  1.4497  0.6492  4.0663
  490MOL0     H64643   3.972   2.044   7.434  1.3506 -1.0391  0.0286
  490MOL0     H64644   3.633   2.002   7.229  1.1259  3.4578  0.8617
  490MOL0     H64645   3.397   1.987   7.139  1.5432 -1.9906 -0.0994
  490MOL0     H64646   2.978   2.070   7.289 -2.0989 -1.9490  2.6162
  490MOL0     H64647   3.074   2.128   7.418 -0.8164  1.1581 -2.3219
  490MOL0     H64648   2.979   1.920   7.497 -0.3302 -3.8541  0.4852
  490MOL0     H64649   3.150   1.897   7.464 -2.2433  2.4381  2.8234
  490MOL0     H64650   3.086   1.816   7.241  0.0625  3.0033 -1.0045
  490MOL0     H64651   2.916   1.832   7.275  0.6461  0.8843  0.3552
  490MOL0     H64652   3.018   1.609   7.327  1.1584  1.6721 -1.3846
  490MOL0     H64653   3.098   1.686   7.464  0.2260 -2.1500  0.3891
  490MOL0     H64654   2.803   1.692   7.442 -0.0406 -0.7679 -0.0841
  490MOL0     H64655   2.911   1.748   7.583 -2.5463  0.6040  1.1640
  490MOL0     H64656   2.880   1.464   7.507 -1.3803 -1.7051  2.0869
  490MOL0     H64657   2.809   1.529   7.644 -1.0164 -0.8179 -0.4094
  490MOL0     H64658   3.112   1.538   7.623  0.1548  1.8949  0.5141
  490MOL0     H64659   2.999   1.552   7.769  0.1260  1.1553  0.1702
  490MOL0     H64660   3.111   1.332   7.750 -0.1440  3.3961  0.5469
  490MOL0     H64661   3.033   1.310   7.600  3.3741 -2.1423  1.0753
  490MOL0     H64662   3.257   2.144   7.515  0.3636  1.1425  0.9411
  490MOL0     H64663   3.466   2.152   7.601  0.4925 -3.0033  2.0684
  490MOL0     H64664   3.877   2.431   7.602 -4.4033 -2.2670  4.5096
  490MOL0     H64665   4.064   2.427   7.741 -0.4034 -0.1690 -0.2640
  490MOL0     H64666   4.609   2.453   7.187 -2.0851 -2.4120  2.4502
  490MOL0     H64667   4.367   2.536   7.173  0.9606  0.8718  0.1584
  490MOL0     H64668   3.873   2.414   7.230 -1.6465  1.0019  1.6587
  490MOL0     H64669   3.656   2.446   7.188  0.7546 -2.7740 -1.0098
  490MOL0     H64670   3.487   2.633   7.163  1.8815  1.1845 -1.4050
  490MOL0     H64671   3.467   2.459   7.115  2.1667  0.7805  1.4278
  490MOL0     H64672   3.288   2.686   7.017 -0.4779  0.2368  0.7912
  490MOL0     H64673   3.313   2.540   6.935  1.2119  0.9186 -0.6218
  490MOL0     H64674   3.277   2.442   7.188  0.5323 -0.3886  0.7098
  490MOL0     H64675   3.132   2.469   7.080 -0.1195 -1.3895  0.8179
  490MOL0     H64676   3.249   2.663   7.296  0.8204 -0.5530  0.0014
  490MOL0     H64677   3.100   2.694   7.188  1.9577  2.0445  0.0431
  490MOL0     H64678   2.960   2.430   7.484 -1.0025 -1.5061 -1.7050
  490MOL0     H64679   3.761   2.661   6.827 -1.4470  1.3768  2.1353
  490MOL0     H64680   3.986   2.567   6.844 -1.1802 -1.9202 -0.9355
  491MOL0     O64681   4.593   3.953   9.820  0.1142  0.6320  0.1101
  491MOL0     C64682   4.562   3.994   9.933  0.3012 -0.0062 -0.2899
  491MOL0     O64683   4.492   4.110   9.959  0.3963 -0.6583  0.1092
  491MOL0     C64684   4.471   4.189   9.846  1.0069  0.5026  0.5335
  491MOL0     C64685   4.373   4.159   9.745  0.5342  0.2547 -0.8891
  491MOL0     C64686   4.343   4.239   9.642 -0.4132 -0.9527  0.3498
  491MOL0     C64687   4.416   4.367   9.637  1.0740 -0.4129  0.6622
  491MOL0     O64688   4.388   4.468   9.551 -0.5515 -0.8069  0.1339
  491MOL0     C64689   4.250   4.494   9.525  0.2041 -0.2930  0.2314
  491MOL0     C64690   4.236   4.601   9.424  0.7151 -0.0068 -1.7543
  491MOL0     C64691   4.290   4.566   9.286  0.2203 -0.0496 -0.8484
  491MOL0     C64692   4.269   4.682   9.193 -0.2052 -0.4165  0.6690
  491MOL0     C64693   4.136   4.749   9.193  0.3047  0.4016 -0.1041
  491MOL0     C64694   4.017   4.660   9.164 -0.0424  0.3180  0.2836
  491MOL0     C64695   3.895   4.755   9.136  0.5772 -0.0563  0.2408
  491MOL0     C64696   3.769   4.672   9.112 -0.5728  0.1504  0.4911
  491MOL0     N64697   3.653   4.756   9.112  0.6174  0.3517  0.2871
  491MOL0     C64698   3.611   4.836   9.002 -0.5466  0.8843 -0.6869
  491MOL0     C64699   3.503   4.903   9.050 -0.0283  0.3800  0.6102
  491MOL0     C64700   3.411   4.989   8.966  0.2930 -0.7404 -0.4211
  491MOL0     C64701   3.357   4.924   8.836  0.4642 -0.1752 -0.6818
  491MOL0     C64702   3.262   4.808   8.852  0.3873 -0.6252  1.2092
  491MOL0     C64703   3.158   4.824   8.956 -1.1042 -0.5784 -0.2557
  491MOL0     O64704   3.072   4.709   8.944 -0.2269 -0.1756 -0.9643
  491MOL0     C64705   2.968   4.680   9.029  0.3395 -0.8479 -0.0888
  491MOL0     C64706   2.948   4.744   9.153 -0.2477  0.7089 -0.5722
  491MOL0     C64707   2.826   4.727   9.230 -1.5985 -0.4036  0.3533
  491MOL0     C64708   2.728   4.647   9.170  0.3639 -1.0103 -0.3802
  491MOL0     C64709   2.606   4.637   9.242  0.3778  0.1865  0.1742
  491MOL0     O64710   2.550   4.517   9.255 -0.4432  0.8005 -0.1924
  491MOL0     C64711   2.442   4.524   9.340 -0.6273 -0.8827 -1.2205
  491MOL0     C64712   2.458   4.478   9.470  0.0356  0.2957  0.3497
  491MOL0     C64713   2.343   4.481   9.553 -0.3201  0.2608  0.2732
  491MOL0     C64714   2.216   4.526   9.511  0.0025  0.2022 -1.1792
  491MOL0     O64715   2.120   4.529   9.601  1.0931 -0.1772 -0.3981
  491MOL0     C64716   2.006   4.614   9.578  1.2957 -0.0478 -0.0839
  491MOL0     C64717   1.896   4.568   9.677 -0.0697 -1.4631 -0.1481
  491MOL0     C64718   1.921   4.626   9.818 -0.5701 -0.6115  0.1622
  491MOL0     C64719   1.808   4.618   9.917 -0.3366 -0.2234 -0.5781
  491MOL0     C64720   1.844   4.546  10.048 -0.8761 -0.5897  0.0568
  491MOL0     C64721   1.729   4.519  10.148  0.4186 -0.0277  0.4840
  491MOL0     C64722   1.650   4.650  10.173  0.7897  0.6065 -0.4946
  491MOL0     C64723   1.541   4.638  10.281  0.9059  0.3950 -0.0883
  491MOL0    Cl64724   1.405   4.537  10.212  0.4658 -0.6362  0.0185
  491MOL0     C64725   2.204   4.582   9.383  0.2419  1.2985 -0.7036
  491MOL0     C64726   2.319   4.586   9.297 -0.8804 -0.7340  0.1250
  491MOL0     O64727   2.574   4.736   9.306  0.5749 -0.3280 -0.2905
  491MOL0     C64728   2.738   4.592   9.041  0.9561  0.9333  0.2930
  491MOL0     C64729   2.856   4.606   8.973  0.0597 -0.6696  1.1010
  491MOL0     N64730   3.474   4.847   9.170  0.7035  0.2973 -0.2032
  491MOL0     N64731   3.562   4.760   9.206  0.0167 -0.2361 -0.2357
  491MOL0     C64732   4.519   4.390   9.725 -0.0004  0.4375  0.4257
  491MOL0     C64733   4.550   4.307   9.827  0.0799 -0.7654 -0.7811
  491MOL0     C64734   4.623   3.913  10.039 -0.2650  0.1782 -0.0964
  491MOL0     C64735   4.666   3.778  10.018 -0.0570  0.2557 -1.3612
  491MOL0     C64736   4.715   3.699  10.119 -0.1427 -0.3392  0.1003
  491MOL0     C64737   4.733   3.751  10.244  0.2564 -0.0368 -0.3677
  491MOL0     O64738   4.797   3.675  10.339 -0.1284 -0.8051  0.7289
  491MOL0     C64739   4.906   3.733  10.408  0.0795  0.0200 -0.1739
  491MOL0     C64740   5.034   3.731  10.321  0.7025  0.7707  0.5495
  491MOL0     C64741   5.065   3.588  10.265 -0.7665  0.5686 -0.0937
  491MOL0     C64742   5.110   3.469  10.357 -0.4046 -0.0797 -0.1231
  491MOL0     C64743   5.225   3.398  10.300  1.2066  0.6550 -0.6229
  491MOL0     C64744   5.307   3.337  10.225  0.2626 -0.1339 -0.8909
  491MOL0     C64745   4.689   3.885  10.272 -0.1668 -0.2552  0.0615
  491MOL0     C64746   4.634   3.963  10.172 -0.0264  0.0289  0.5480
  491MOL0     H64747   4.314   4.070   9.763  1.0018  0.3764  1.7124
  491MOL0     H64748   4.257   4.214   9.579 -1.2386  2.6189 -0.1554
  491MOL0     H64749   4.204   4.533   9.616  0.9652  2.0309 -0.3150
  491MOL0     H64750   4.200   4.407   9.482  2.7958 -0.2531 -3.3589
  491MOL0     H64751   4.288   4.691   9.457 -1.5065  0.9952 -0.7546
  491MOL0     H64752   4.132   4.635   9.431  0.5587 -0.8376  0.9408
  491MOL0     H64753   4.241   4.472   9.259 -1.5375  0.4911  0.2812
  491MOL0     H64754   4.397   4.543   9.290  1.5690  5.1804  1.1148
  491MOL0     H64755   4.340   4.762   9.213 -3.4405  2.5242  1.5004
  491MOL0     H64756   4.307   4.649   9.096  0.9809 -0.7484  1.2326
  491MOL0     H64757   4.139   4.819   9.109  3.5731 -1.5166 -1.7669
  491MOL0     H64758   4.117   4.802   9.287 -2.0939  0.2408 -0.4195
  491MOL0     H64759   4.004   4.587   9.245  2.2692 -0.7321 -0.2099
  491MOL0     H64760   4.018   4.599   9.073  2.0292  1.8673 -0.7944
  491MOL0     H64761   3.868   4.803   9.231 -0.7233 -0.6650  0.2076
  491MOL0     H64762   3.899   4.833   9.060 -1.2378  1.6540  1.7742
  491MOL0     H64763   3.767   4.607   9.200 -0.0110 -1.6942 -0.7867
  491MOL0     H64764   3.777   4.612   9.020 -2.8537  0.0677  0.2967
  491MOL0     H64765   3.660   4.845   8.906  1.4061  1.1188  0.2674
  491MOL0     H64766   3.473   5.071   8.928  1.4805 -0.2268  2.3484
  491MOL0     H64767   3.329   5.046   9.013  0.9791 -0.9904  1.1448
  491MOL0     H64768   3.443   4.903   8.772 -0.0465  0.5242 -1.6279
  491MOL0     H64769   3.311   5.003   8.776 -2.0426 -2.2348 -1.6677
  491MOL0     H64770   3.221   4.780   8.755 -0.7945 -0.9707  1.7837
  491MOL0     H64771   3.327   4.727   8.887 -0.2129 -1.7937 -0.2596
  491MOL0     H64772   3.112   4.923   8.943  0.6302  0.1489 -1.2879
  491MOL0     H64773   3.205   4.832   9.054  1.0551 -0.1134 -1.2575
  491MOL0     H64774   3.021   4.812   9.197  1.1657  0.3589 -2.2663
  491MOL0     H64775   2.814   4.764   9.331  4.0259 -1.5438  1.8137
  491MOL0     H64776   2.551   4.434   9.505 -0.0303 -0.4351 -0.3720
  491MOL0     H64777   2.358   4.451   9.657  1.0886  0.5212  0.1761
  491MOL0     H64778   1.955   4.600   9.482  1.8417  2.0380 -0.7266
  491MOL0     H64779   2.037   4.717   9.600  2.2396 -0.1709 -0.7513
  491MOL0     H64780   1.890   4.459   9.682  0.7447 -1.4945  0.2463
  491MOL0     H64781   1.803   4.619   9.648  1.6883  3.2713  1.4978
  491MOL0     H64782   1.948   4.731   9.801 -0.1213 -0.7579 -0.0355
  491MOL0     H64783   2.006   4.572   9.860  1.6442  0.3174 -2.8031
  491MOL0     H64784   1.788   4.722   9.943  2.8616 -0.4097  3.8565
  491MOL0     H64785   1.710   4.591   9.876 -1.0134  4.3514 -2.5608
  491MOL0     H64786   1.925   4.601  10.096  1.4568 -2.7547 -1.1645
  491MOL0     H64787   1.892   4.451  10.023  2.0478 -0.1553  3.2817
  491MOL0     H64788   1.772   4.483  10.241  0.5189  0.7739  0.7511
  491MOL0     H64789   1.664   4.446  10.097 -2.4076  2.2655  0.4953
  491MOL0     H64790   1.713   4.736  10.195  1.5829 -0.0718 -0.0766
  491MOL0     H64791   1.601   4.688  10.082  1.2611  1.0769 -0.5540
  491MOL0     H64792   1.503   4.733  10.320  1.5108 -0.3611  2.5501
  491MOL0     H64793   1.571   4.580  10.369  1.3142  0.3906 -0.2289
  491MOL0     H64794   2.120   4.645   9.358  1.1787  2.1568 -1.7910
  491MOL0     H64795   2.318   4.633   9.200  0.5413  0.5172  0.6781
  491MOL0     H64796   2.651   4.541   9.003  3.9487 -4.1454 -0.5601
  491MOL0     H64797   2.873   4.552   8.880  0.6298 -1.9251  1.9026
  491MOL0     H64798   4.579   4.479   9.714  2.1743 -1.0407 -0.2844
  491MOL0     H64799   4.632   4.334   9.894 -0.6076 -2.7838  0.9856
  491MOL0     H64800   4.654   3.742   9.916 -1.4136 -0.2046 -1.0561
  491MOL0     H64801   4.741   3.595  10.102 -2.1062 -0.5989 -1.8436
  491MOL0     H64802   4.934   3.679  10.499  3.3212  2.5754  0.5341
  491MOL0     H64803   4.894   3.838  10.436 -1.5241 -1.0881  4.1202
  491MOL0     H64804   5.008   3.789  10.232  0.2444 -2.1807 -1.4284
  491MOL0     H64805   5.119   3.779  10.371  2.2356  1.1149 -2.1708
  491MOL0     H64806   5.156   3.613  10.209 -0.4209  2.4385  1.2041
  491MOL0     H64807   4.999   3.538  10.194 -0.3330 -2.1370  1.2701
  491MOL0     H64808   5.124   3.503  10.460  1.1303  3.2538 -1.2561
  491MOL0     H64809   5.028   3.397  10.363 -0.1045 -0.4159 -0.0291
  491MOL0     H64810   5.381   3.292  10.162  0.2968  2.1456 -2.5919
  491MOL0     H64811   4.695   3.930  10.371  1.0799  2.5601 -1.2032
  491MOL0     H64812   4.599   4.061  10.203 -2.9533 -1.2233  1.5043
  492MOL0     O64813   4.205   6.725   7.678 -0.8295 -0.7351 -0.0825
  492MOL0     C64814   4.274   6.691   7.579  1.1308  0.4880 -0.8881
  492MOL0     O64815   4.234   6.676   7.460 -0.8599 -0.1814 -0.5129
  492MOL0     C64816   4.116   6.736   7.419  0.5652  0.1097 -0.0454
  492MOL0     C64817   4.092   6.875   7.440 -0.3806  0.5779  0.5664
  492MOL0     C64818   3.973   6.937   7.416 -0.4483  0.0779  1.4828
  492MOL0     C64819   3.859   6.858   7.396 -0.5121  0.3886 -0.5157
  492MOL0     O64820   3.747   6.933   7.363  0.2632  0.4482 -0.5419
  492MOL0     C64821   3.680   6.890   7.240 -0.1291  1.4911 -0.3080
  492MOL0     C64822   3.552   6.978   7.227 -0.9476  0.8693 -0.3577
  492MOL0     C64823   3.464   6.935   7.114 -0.1176  0.2677 -0.7902
  492MOL0     C64824   3.316   6.982   7.128  1.5726  0.1002  0.5286
  492MOL0     C64825   3.310   7.129   7.135  0.7542  0.2192 -1.1913
  492MOL0     C64826   3.183   7.186   7.093  0.4689 -0.6264  1.1157
  492MOL0     C64827   3.161   7.337   7.121 -0.1883 -0.5570 -0.4095
  492MOL0     C64828   3.010   7.377   7.133 -0.8599 -0.5755  1.0505
  492MOL0     N64829   2.972   7.492   7.216  0.4216 -0.0881  0.5556
  492MOL0     C64830   3.007   7.506   7.342  0.9434 -0.4507 -0.3595
  492MOL0     C64831   2.939   7.619   7.375  0.6730  1.0411  0.1895
  492MOL0     C64832   2.930   7.683   7.511 -0.8141 -0.1554  0.4238
  492MOL0     C64833   3.067   7.755   7.541 -0.4924 -0.2100  0.1007
  492MOL0     C64834   3.166   7.658   7.613  0.4372 -0.0631  0.3008
  492MOL0     C64835   3.294   7.743   7.637 -0.1805  0.3927 -0.0144
  492MOL0     O64836   3.405   7.659   7.653  0.2847  0.4526  1.0802
  492MOL0     C64837   3.522   7.727   7.651 -0.5608 -0.3642 -0.2727
  492MOL0     C64838   3.629   7.667   7.584 -0.0592 -0.4725  0.0996
  492MOL0     C64839   3.755   7.713   7.595 -0.1449 -0.1973  0.9805
  492MOL0     C64840   3.788   7.818   7.695  0.4039 -0.2137  0.8415
  492MOL0     C64841   3.932   7.855   7.724  0.2683 -0.3136  0.3268
  492MOL0     O64842   3.948   7.981   7.777  0.4110  0.1050  0.2197
  492MOL0     C64843   4.080   8.025   7.793 -0.2442 -0.2616  0.3550
  492MOL0     C64844   4.158   7.960   7.883  0.3402 -0.6145 -0.0741
  492MOL0     C64845   4.295   7.997   7.893 -0.9272  0.0975  0.1386
  492MOL0     C64846   4.357   8.096   7.799  0.3548 -0.6177 -0.1493
  492MOL0     O64847   4.489   8.144   7.798  0.8057  0.5838 -0.1931
  492MOL0     C64848   4.590   8.066   7.863 -0.2019 -0.7555 -0.4744
  492MOL0     C64849   4.629   8.114   7.997 -1.1742 -0.1561  0.3097
  492MOL0     C64850   4.715   8.245   8.000  1.0523 -1.9505  0.4206
  492MOL0     C64851   4.752   8.282   8.148  0.3386 -0.2442 -0.1967
  492MOL0     C64852   4.817   8.425   8.180  0.3825  0.3063 -0.6325
  492MOL0     C64853   4.719   8.537   8.118 -0.3544  0.3839 -0.3049
  492MOL0     C64854   4.775   8.671   8.157 -0.7163 -0.2041  0.5266
  492MOL0     C64855   4.681   8.791   8.116  1.1383 -0.3600 -1.0750
  492MOL0    Cl64856   4.547   8.784   8.231 -0.7112 -0.0621 -0.7233
  492MOL0     C64857   4.266   8.177   7.727  0.2019 -0.3934 -0.4116
  492MOL0     C64858   4.126   8.140   7.723  0.6272 -1.0327 -1.0219
  492MOL0     O64859   4.025   7.783   7.701  0.2422 -0.7301  0.9722
  492MOL0     C64860   3.679   7.890   7.751 -0.2886  0.0638  0.2589
  492MOL0     C64861   3.554   7.834   7.735  1.2008 -0.3527 -0.0550
  492MOL0     N64862   2.879   7.679   7.267  1.4379 -0.6629  0.2838
  492MOL0     N64863   2.899   7.602   7.173 -1.2612  1.0360 -1.3439
  492MOL0     C64864   3.867   6.716   7.377 -0.2979 -1.2061  0.6357
  492MOL0     C64865   3.996   6.660   7.388 -0.4688  0.6449  0.7156
  492MOL0     C64866   4.422   6.678   7.601  0.4306 -0.0140  0.7900
  492MOL0     C64867   4.498   6.629   7.498  0.1619 -0.1338  0.7475
  492MOL0     C64868   4.630   6.597   7.516  0.0872 -0.3471 -0.5137
  492MOL0     C64869   4.691   6.617   7.646 -0.3371  0.5599  0.6181
  492MOL0     O64870   4.821   6.570   7.648 -0.6514 -0.3750 -0.0121
  492MOL0     C64871   4.909   6.602   7.760 -0.3687 -1.2564 -0.5712
  492MOL0     C64872   4.995   6.732   7.737  0.7501 -0.1012  0.0757
  492MOL0     C64873   5.011   6.770   7.587 -0.7018  0.0500  0.6487
  492MOL0     C64874   5.101   6.669   7.518  0.1968 -0.7984  0.6127
  492MOL0     C64875   5.101   6.687   7.376  0.2569  1.2480 -0.7600
  492MOL0     C64876   5.110   6.684   7.258 -0.0554  0.1038  0.9501
  492MOL0     C64877   4.617   6.662   7.759 -0.0573  0.4755  0.3097
  492MOL0     C64878   4.483   6.685   7.736  0.1693  0.5911  0.4477
  492MOL0     H64879   4.179   6.929   7.474 -0.0256  2.1199 -2.4360
  492MOL0     H64880   3.975   7.043   7.393  0.3582 -0.3345 -0.5723
  492MOL0     H64881   3.653   6.785   7.226 -0.7743  1.4684  0.9017
  492MOL0     H64882   3.749   6.917   7.160 -0.1211  2.5669  0.0464
  492MOL0     H64883   3.586   7.082   7.225  2.7831 -0.1075  1.4850
  492MOL0     H64884   3.496   6.968   7.320 -1.4614  2.2853 -0.4957
  492MOL0     H64885   3.460   6.826   7.112 -1.8330  0.2010 -5.1896
  492MOL0     H64886   3.512   6.953   7.017 -1.0163 -1.7077 -1.6677
  492MOL0     H64887   3.269   6.941   7.038 -2.2300  0.2559  2.2706
  492MOL0     H64888   3.268   6.921   7.205  1.6245 -0.5884  0.0271
  492MOL0     H64889   3.395   7.183   7.090  1.1439  2.2799  1.7455
  492MOL0     H64890   3.310   7.154   7.241 -0.9222 -0.1637 -1.0748
  492MOL0     H64891   3.094   7.134   7.130 -0.7368  2.4994  2.9862
  492MOL0     H64892   3.191   7.164   6.986 -1.8758 -2.3970  1.2011
  492MOL0     H64893   3.204   7.370   7.216  0.5135  0.6413 -1.1264
  492MOL0     H64894   3.206   7.390   7.037  1.5647 -0.9426  0.2394
  492MOL0     H64895   2.940   7.293   7.144 -1.6353 -0.8986 -3.9508
  492MOL0     H64896   2.988   7.416   7.033  1.8711  3.0838  1.6525
  492MOL0     H64897   3.061   7.439   7.408 -3.2273 -2.2799  1.5438
  492MOL0     H64898   2.903   7.616   7.593  2.9965  0.9361  2.8194
  492MOL0     H64899   2.849   7.756   7.504 -1.7112 -1.1593  0.0541
  492MOL0     H64900   3.052   7.844   7.601  2.0728 -0.2750  0.9860
  492MOL0     H64901   3.114   7.791   7.449  0.1118  0.9775  0.8515
  492MOL0     H64902   3.128   7.612   7.705 -0.1236  1.2864  0.7785
  492MOL0     H64903   3.193   7.574   7.549 -2.3364  0.8479 -2.3419
  492MOL0     H64904   3.286   7.806   7.726  1.5808  1.5439 -0.6145
  492MOL0     H64905   3.312   7.804   7.547  2.2880 -0.9955 -0.5399
  492MOL0     H64906   3.603   7.581   7.522  1.5043  0.2334 -1.6339
  492MOL0     H64907   3.826   7.669   7.526 -1.0206  0.9376 -0.7126
  492MOL0     H64908   4.126   7.875   7.943  2.5747  0.4398  2.8460
  492MOL0     H64909   4.359   7.943   7.962 -0.9596  0.9595  0.8491
  492MOL0     H64910   4.675   8.082   7.797 -2.6535 -0.3370 -3.7795
  492MOL0     H64911   4.562   7.960   7.862  0.3750 -0.9115 -1.7476
  492MOL0     H64912   4.697   8.041   8.042  0.6145  2.4789  2.2260
  492MOL0     H64913   4.538   8.131   8.055 -1.2652  0.1748  0.0721
  492MOL0     H64914   4.657   8.325   7.954  3.6328  1.7504  2.9817
  492MOL0     H64915   4.809   8.248   7.943  2.4706 -1.8307  2.6623
  492MOL0     H64916   4.665   8.275   8.213 -1.0342  0.1703 -1.9252
  492MOL0     H64917   4.824   8.211   8.190  0.3020  0.8131  1.7584
  492MOL0     H64918   4.914   8.441   8.132  0.5907 -0.0507 -0.3413
  492MOL0     H64919   4.831   8.439   8.288  0.3274  3.6116 -0.9434
  492MOL0     H64920   4.616   8.526   8.154 -0.7727  0.3546 -1.4799
  492MOL0     H64921   4.719   8.521   8.010 -1.1587  3.4375 -0.8632
  492MOL0     H64922   4.801   8.684   8.263  3.3020  2.4715 -0.5376
  492MOL0     H64923   4.872   8.676   8.107 -1.6725  0.8965 -1.3561
  492MOL0     H64924   4.647   8.793   8.012 -4.1769  1.2946  0.3511
  492MOL0     H64925   4.742   8.878   8.140  1.0347 -0.9004  1.4179
  492MOL0     H64926   4.291   8.274   7.685  1.2957 -0.9562 -1.1121
  492MOL0     H64927   4.048   8.202   7.681 -1.2795 -4.4221 -2.9175
  492MOL0     H64928   3.678   7.970   7.824 -1.8502  0.4114 -0.1093
  492MOL0     H64929   3.470   7.870   7.793  0.0399 -2.9846  0.0383
  492MOL0     H64930   3.783   6.659   7.339 -1.0225  0.2730 -0.0145
  492MOL0     H64931   4.009   6.553   7.374 -0.1683  1.0120 -2.5918
  492MOL0     H64932   4.446   6.607   7.405 -2.2760  2.2225  1.4183
  492MOL0     H64933   4.691   6.563   7.432 -0.1531 -0.2660 -0.7202
  492MOL0     H64934   4.991   6.531   7.773 -0.0672 -0.7455  0.4544
  492MOL0     H64935   4.847   6.602   7.850 -2.6665  1.9394 -1.9386
  492MOL0     H64936   4.940   6.814   7.784  2.6020  0.3140  1.6304
  492MOL0     H64937   5.097   6.729   7.776  0.8593  0.5751 -0.1329
  492MOL0     H64938   5.057   6.869   7.593 -2.0098  0.6039  1.9946
  492MOL0     H64939   4.918   6.786   7.532 -0.9064 -1.6377  0.4492
  492MOL0     H64940   5.200   6.669   7.563 -0.2913 -1.5600  1.7285
  492MOL0     H64941   5.065   6.567   7.532 -0.6447 -1.1621 -3.2088
  492MOL0     H64942   5.090   6.681   7.153 -3.2917  1.2003  1.3881
  492MOL0     H64943   4.654   6.665   7.861 -1.1647  0.0250  0.7338
  492MOL0     H64944   4.430   6.728   7.820 -0.9933  2.5120 -1.1765
  493MOL0     O64945   0.276   2.536   0.278  0.5566  0.0201  0.6623
  493MOL0     C64946   0.388   2.561   0.231  0.0416  1.0054  0.3502
  493MOL0     O64947   0.490   2.470   0.217  0.0716  0.3545  0.2474
  493MOL0     C64948   0.504   2.371   0.304  0.1348  1.0239  0.5390
  493MOL0     C64949   0.616   2.296   0.270 -0.0259 -0.3606  0.1495
  493MOL0     C64950   0.680   2.210   0.355  0.2669  0.1427  0.2257
  493MOL0     C64951   0.620   2.181   0.475 -1.0083 -1.2597 -0.7640
  493MOL0     O64952   0.657   2.068   0.551  0.4174 -0.1821  0.4220
  493MOL0     C64953   0.673   1.944   0.495 -0.2950  0.4978 -0.7975
  493MOL0     C64954   0.721   1.835   0.595  0.6909 -0.0931 -0.2887
  493MOL0     C64955   0.617   1.823   0.706 -1.0434  0.3614 -0.0211
  493MOL0     C64956   0.647   1.723   0.824 -0.1697 -0.0854 -0.2399
  493MOL0     C64957   0.544   1.738   0.936 -0.3920 -0.8227  0.3992
  493MOL0     C64958   0.402   1.691   0.879  0.1305  0.2301 -0.8567
  493MOL0     C64959   0.307   1.655   0.995 -0.0920 -0.1689 -0.0208
  493MOL0     C64960   0.274   1.779   1.073  0.5215  0.3918 -0.6683
  493MOL0     N64961   0.187   1.752   1.189 -0.2127 -0.6679  0.7323
  493MOL0     C64962   0.141   1.859   1.267  0.4995 -0.5168  0.3026
  493MOL0     C64963   0.041   1.806   1.340 -0.3924 -0.9024  0.0811
  493MOL0     C64964  -0.050   1.877   1.439 -0.7071  0.5178  0.5085
  493MOL0     C64965  -0.121   2.005   1.384 -0.1954  0.5902  0.4034
  493MOL0     C64966  -0.182   1.972   1.244  0.6322  0.0947 -0.6176
  493MOL0     C64967  -0.290   2.077   1.234 -0.2223  1.0546  0.8221
  493MOL0     O64968  -0.394   2.058   1.336 -0.3361  0.4784 -0.0304
  493MOL0     C64969  -0.489   1.958   1.318  0.3813  0.5378 -0.1245
  493MOL0     C64970  -0.501   1.874   1.206 -0.6831 -0.0581 -0.3929
  493MOL0     C64971  -0.610   1.786   1.207 -0.3694 -0.8438 -0.6464
  493MOL0     C64972  -0.700   1.777   1.316 -0.1452  0.8897 -0.1848
  493MOL0     C64973  -0.815   1.688   1.300 -0.8627 -0.2255 -0.7797
  493MOL0     O64974  -0.886   1.671   1.407 -0.0511 -0.9227  0.2196
  493MOL0     C64975  -0.998   1.599   1.402  1.1407  0.5160  0.0090
  493MOL0     C64976  -1.112   1.661   1.461 -1.0278  0.2016 -0.5286
  493MOL0     C64977  -1.237   1.606   1.462  0.6570  0.0537 -0.9527
  493MOL0     C64978  -1.255   1.486   1.389  0.3315  0.5412  0.2407
  493MOL0     O64979  -1.374   1.433   1.365  0.7668  0.8072 -0.3566
  493MOL0     C64980  -1.426   1.369   1.478 -0.8814  0.5808 -0.3058
  493MOL0     C64981  -1.327   1.266   1.553  0.2691  0.4521  0.2454
  493MOL0     C64982  -1.370   1.194   1.680  0.6196 -0.5464 -0.0247
  493MOL0     C64983  -1.405   1.299   1.791 -0.3494 -0.1672 -0.2399
  493MOL0     C64984  -1.426   1.233   1.925 -0.3078 -0.7972  0.3662
  493MOL0     C64985  -1.535   1.132   1.915  0.3399  0.0867 -0.2292
  493MOL0     C64986  -1.608   1.112   2.043  0.6388 -0.7335  0.1348
  493MOL0     C64987  -1.719   1.004   2.037 -0.3219 -0.6914  0.2771
  493MOL0    Cl64988  -1.667   0.839   1.975  0.4902  0.6139  0.1003
  493MOL0     C64989  -1.146   1.419   1.327  0.6713 -1.4421  0.4725
  493MOL0     C64990  -1.020   1.471   1.348 -0.8237  0.1798 -0.3219
  493MOL0     O64991  -0.830   1.631   1.194  0.0850  0.7733  0.2244
  493MOL0     C64992  -0.692   1.857   1.430 -0.9659 -1.1136  0.0598
  493MOL0     C64993  -0.585   1.952   1.424 -0.4296  0.3362  0.6979
  493MOL0     N64994   0.033   1.670   1.315 -0.5102  0.5437  0.8059
  493MOL0     N64995   0.124   1.641   1.230  0.8224  0.4249  0.6274
  493MOL0     C64996   0.504   2.248   0.512 -0.5742  0.2289 -1.0111
  493MOL0     C64997   0.448   2.354   0.434  0.4816  0.7471  0.0885
  493MOL0     C64998   0.400   2.697   0.175  0.2166  1.3972 -0.5536
  493MOL0     C64999   0.321   2.808   0.226  0.7080 -0.8312  0.2736
  493MOL0     C65000   0.348   2.935   0.175  0.3408  0.0055 -0.1397
  493MOL0     C65001   0.448   2.955   0.079 -0.6266 -0.1072 -0.2973
  493MOL0     O65002   0.455   3.080   0.031  0.3553  0.1393  1.0360
  493MOL0     C65003   0.560   3.131  -0.049 -0.6690 -0.1964 -0.8603
  493MOL0     C65004   0.547   3.096  -0.196 -0.6399  0.4141  0.5466
  493MOL0     C65005   0.681   3.084  -0.272 -0.4224 -0.9083 -0.1200
  493MOL0     C65006   0.665   3.110  -0.420 -0.0103 -0.5261  0.4224
  493MOL0     C65007   0.588   3.227  -0.471  0.7481  0.4249 -1.0612
  493MOL0     C65008   0.537   3.333  -0.498 -0.0348 -0.2381 -0.5078
  493MOL0     C65009   0.529   2.847   0.041 -0.4681  0.1800 -0.0007
  493MOL0     C65010   0.504   2.723   0.090 -0.2402  0.3385 -0.3268
  493MOL0     H65011   0.649   2.320   0.169  1.8348 -0.1167  0.7920
  493MOL0     H65012   0.761   2.160   0.303 -0.1887  2.0193 -2.4573
  493MOL0     H65013   0.742   1.947   0.410 -0.4719 -5.2198 -1.5676
  493MOL0     H65014   0.580   1.909   0.448  0.0328 -0.8129 -0.5253
  493MOL0     H65015   0.812   1.858   0.650  0.8436 -4.3434  1.6690
  493MOL0     H65016   0.720   1.737   0.545 -1.0491  1.3109 -3.3325
  493MOL0     H65017   0.534   1.782   0.649  0.8964 -1.5178 -1.6724
  493MOL0     H65018   0.603   1.924   0.746 -0.5241  1.0172 -1.4060
  493MOL0     H65019   0.646   1.617   0.797 -0.2478 -0.7753  2.2125
  493MOL0     H65020   0.745   1.737   0.871  0.5812  0.5771 -1.9170
  493MOL0     H65021   0.534   1.843   0.967  1.9289 -1.0583  2.1453
  493MOL0     H65022   0.573   1.690   1.030 -0.0035  1.3425  1.4465
  493MOL0     H65023   0.406   1.601   0.817  1.4235  1.1882 -2.2436
  493MOL0     H65024   0.355   1.767   0.816 -2.9465 -0.7809  0.0348
  493MOL0     H65025   0.222   1.601   0.952  1.3398 -1.2066 -1.7005
  493MOL0     H65026   0.355   1.591   1.070 -1.4204  1.2554  2.1609
  493MOL0     H65027   0.215   1.834   0.999 -3.2990 -0.5045  1.4192
  493MOL0     H65028   0.366   1.833   1.097  0.6310  0.7414 -1.8175
  493MOL0     H65029   0.157   1.965   1.250 -0.7554 -0.2835  0.4721
  493MOL0     H65030   0.021   1.911   1.515  1.7154  2.6213 -2.4330
  493MOL0     H65031  -0.118   1.808   1.489  0.5356 -2.4966 -1.6012
  493MOL0     H65032  -0.057   2.090   1.360 -0.8270  0.7084 -0.9242
  493MOL0     H65033  -0.200   2.029   1.457 -0.0947  0.2685  0.6208
  493MOL0     H65034  -0.114   1.988   1.160  0.0259  1.9807 -0.8101
  493MOL0     H65035  -0.232   1.875   1.244  0.9638 -0.0766 -1.0356
  493MOL0     H65036  -0.332   2.073   1.133  3.1952 -2.9447 -0.7156
  493MOL0     H65037  -0.255   2.181   1.234 -0.4376  1.1281  0.8028
  493MOL0     H65038  -0.436   1.875   1.119  0.0966 -1.0588  0.1592
  493MOL0     H65039  -0.610   1.712   1.128 -1.9747 -0.8410 -0.6925
  493MOL0     H65040  -1.096   1.759   1.503  2.1072 -0.8003  0.9016
  493MOL0     H65041  -1.320   1.652   1.515  1.9462  0.2938  0.9621
  493MOL0     H65042  -1.508   1.301   1.453 -2.6220  1.6700  2.0642
  493MOL0     H65043  -1.460   1.451   1.543 -2.3252 -0.5686  0.4429
  493MOL0     H65044  -1.235   1.313   1.588  0.9659 -1.5054  1.2155
  493MOL0     H65045  -1.304   1.189   1.478 -2.6130 -2.5558  2.1569
  493MOL0     H65046  -1.293   1.127   1.719  2.8595  1.7419 -0.2688
  493MOL0     H65047  -1.460   1.136   1.660  0.1003  0.5981 -1.1087
  493MOL0     H65048  -1.318   1.365   1.789  0.8719 -1.7351 -0.1695
  493MOL0     H65049  -1.490   1.365   1.768  0.0763 -0.1517 -1.8535
  493MOL0     H65050  -1.469   1.316   1.983 -5.4988 -0.5868 -3.0232
  493MOL0     H65051  -1.334   1.191   1.966  0.0029  2.1398  3.1171
  493MOL0     H65052  -1.505   1.032   1.883 -0.8925 -0.3243 -0.1758
  493MOL0     H65053  -1.619   1.154   1.848 -0.6063 -2.5566 -0.0152
  493MOL0     H65054  -1.546   1.084   2.129  0.1196  0.5594  0.9631
  493MOL0     H65055  -1.651   1.213   2.050 -0.8162 -1.0278 -3.0149
  493MOL0     H65056  -1.806   1.035   1.979 -1.4799 -0.7928  1.9049
  493MOL0     H65057  -1.753   0.981   2.138 -0.6991 -0.0315  0.2981
  493MOL0     H65058  -1.156   1.315   1.297  2.1787 -1.4266 -0.1804
  493MOL0     H65059  -0.939   1.410   1.312 -0.2986  2.7129 -3.9509
  493MOL0     H65060  -0.759   1.863   1.515  1.7880  0.7405  2.2925
  493MOL0     H65061  -0.584   2.034   1.495 -1.5745  1.1822 -0.2377
  493MOL0     H65062   0.463   2.217   0.607 -0.3741  0.9524 -0.6823
  493MOL0     H65063   0.365   2.406   0.480  1.3382  0.8543  1.5637
  493MOL0     H65064   0.255   2.774   0.305 -0.0821 -0.6798 -0.3015
  493MOL0     H65065   0.305   3.028   0.210  2.0654 -0.5849  4.2405
  493MOL0     H65066   0.658   3.093  -0.019 -0.3539  1.3768  0.2878
  493MOL0     H65067   0.577   3.239  -0.038  2.2185 -0.3718 -2.7660
  493MOL0     H65068   0.504   2.997  -0.209 -0.1721  0.1409  1.0421
  493MOL0     H65069   0.485   3.167  -0.251  0.2663  0.5469 -0.3306
  493MOL0     H65070   0.724   2.983  -0.268  2.0467 -0.0371 -1.9154
  493MOL0     H65071   0.749   3.161  -0.235 -3.0404  0.5582  1.9697
  493MOL0     H65072   0.765   3.101  -0.462 -0.7161 -1.5176 -1.1195
  493MOL0     H65073   0.617   3.026  -0.471 -2.7411  0.1148  1.7303
  493MOL0     H65074   0.490   3.417  -0.544 -0.2924 -0.7792 -1.2466
  493MOL0     H65075   0.606   2.859  -0.035  0.4927 -1.4382  0.6663
  493MOL0     H65076   0.581   2.650   0.067  1.7168  1.3095  2.6715
  494MOL0     O65077   9.907   9.796   9.466 -0.4168  0.3203  0.3835
  494MOL0     C65078   9.892   9.679   9.485 -0.0613  0.0964 -0.4373
  494MOL0     O65079   9.839   9.598   9.388  0.0871  0.4153  0.4884
  494MOL0     C65080   9.786   9.641   9.268  0.1264  1.0259 -0.6484
  494MOL0     C65081   9.692   9.560   9.200  0.4474  0.1367  0.5149
  494MOL0     C65082   9.645   9.590   9.075 -0.0475  0.5446  0.7331
  494MOL0     C65083   9.665   9.718   9.030 -0.7696  0.2740 -0.2441
  494MOL0     O65084   9.592   9.752   8.925  0.3818  0.5897  0.3877
  494MOL0     C65085   9.549   9.891   8.928 -0.6093 -0.5354 -0.6867
  494MOL0     C65086   9.409   9.904   8.862 -0.4174 -0.2564  0.6356
  494MOL0     C65087   9.429   9.896   8.708  0.4970  0.1810  0.3098
  494MOL0     C65088   9.303   9.937   8.638  0.3858 -0.0366 -0.1801
  494MOL0     C65089   9.167   9.912   8.704 -0.2070  1.0826  0.1260
  494MOL0     C65090   9.045   9.963   8.618  0.1341 -0.4278 -0.8267
  494MOL0     C65091   8.913   9.933   8.697 -0.2800  0.1233  0.1834
  494MOL0     C65092   8.788   9.971   8.628 -0.0719 -0.3469 -0.4653
  494MOL0     N65093   8.794  10.113   8.593  0.2348 -0.4794 -0.3967
  494MOL0     C65094   8.832  10.223   8.660 -0.2967 -0.8261  0.8980
  494MOL0     C65095   8.790  10.325   8.584  0.2261  0.1518  0.5094
  494MOL0     C65096   8.774  10.464   8.641  0.6694  0.2968 -0.1328
  494MOL0     C65097   8.640  10.532   8.627  0.5751 -0.4667  0.1690
  494MOL0     C65098   8.623  10.582   8.483 -0.6056  0.1667  0.9241
  494MOL0     C65099   8.517  10.691   8.477 -0.4552  0.2654 -0.3113
  494MOL0     O65100   8.570  10.813   8.538  0.4866  0.1638 -0.3500
  494MOL0     C65101   8.489  10.906   8.597 -0.0988  0.5066 -1.3349
  494MOL0     C65102   8.364  10.947   8.553 -0.6281  0.7143 -0.4232
  494MOL0     C65103   8.301  11.053   8.615  0.4346  0.8545 -0.2187
  494MOL0     C65104   8.361  11.109   8.733 -1.2282 -0.4027  0.1141
  494MOL0     C65105   8.294  11.221   8.801  0.0273  0.0467  0.6554
  494MOL0     O65106   8.166  11.243   8.747 -0.8489  0.4234 -0.0372
  494MOL0     C65107   8.085  11.334   8.811 -0.1344 -0.0525 -0.1947
  494MOL0     C65108   8.134  11.469   8.830 -0.3789  0.3863 -0.4123
  494MOL0     C65109   8.061  11.571   8.887  0.1022 -0.3175  0.0821
  494MOL0     C65110   7.927  11.550   8.923  0.0202  0.5833 -0.0284
  494MOL0     O65111   7.866  11.649   8.988  0.1482 -0.6884  0.5912
  494MOL0     C65112   7.735  11.634   9.039 -0.2020 -0.4905  0.6683
  494MOL0     C65113   7.702  11.748   9.120 -0.3918 -0.2403 -0.0968
  494MOL0     C65114   7.741  11.728   9.270 -0.3305 -0.2572  0.7647
  494MOL0     C65115   7.883  11.770   9.287 -0.9467  0.1594  0.5625
  494MOL0     C65116   7.929  11.747   9.436  0.2223  0.3512  0.4856
  494MOL0     C65117   8.059  11.822   9.462 -0.7816  0.4121  0.1306
  494MOL0     C65118   8.109  11.781   9.593  0.2718  1.3786 -0.4626
  494MOL0     C65119   8.235  11.860   9.600 -1.1451 -0.0996  0.3321
  494MOL0    Cl65120   8.316  11.789   9.741 -0.1653 -0.3282  0.1374
  494MOL0     C65121   7.872  11.422   8.885  1.2690 -0.6475  0.1113
  494MOL0     C65122   7.949  11.321   8.831 -0.7587  0.3300  0.3671
  494MOL0     O65123   8.337  11.273   8.899 -1.0843  0.2175 -0.1766
  494MOL0     C65124   8.489  11.060   8.766  0.2375 -0.3536 -0.2323
  494MOL0     C65125   8.553  10.965   8.697 -0.4258 -1.1277 -0.4401
  494MOL0     N65126   8.728  10.272   8.478  0.5271  0.4850 -0.0030
  494MOL0     N65127   8.725  10.148   8.481  0.1372  0.7697 -0.5026
  494MOL0     C65128   9.756   9.809   9.092  0.0249  0.8642 -0.1717
  494MOL0     C65129   9.815   9.757   9.208 -0.8459  0.3088 -0.3067
  494MOL0     C65130   9.954   9.630   9.618  0.0236  0.0811 -0.4914
  494MOL0     C65131   9.957   9.495   9.648 -0.0075  0.9790  0.2773
  494MOL0     C65132  10.041   9.444   9.747 -0.2732 -0.2145 -0.9267
  494MOL0     C65133  10.111   9.535   9.826  0.1324  0.9569 -0.2818
  494MOL0     O65134  10.187   9.509   9.934  0.2925 -0.1681 -0.2210
  494MOL0     C65135  10.170   9.403  10.036 -1.0803 -0.1078  0.2291
  494MOL0     C65136  10.234   9.263  10.013  0.2808  0.3190 -0.8633
  494MOL0     C65137  10.219   9.165  10.121  0.5662  0.9867 -0.3305
  494MOL0     C65138  10.300   9.035  10.083  0.3026 -0.4615 -0.0691
  494MOL0     C65139  10.336   8.943  10.188 -0.4207 -0.2536 -0.3754
  494MOL0     C65140  10.348   8.876  10.291 -0.1253  0.6240  0.4796
  494MOL0     C65141  10.097   9.671   9.800 -0.8592 -0.0963  0.3302
  494MOL0     C65142  10.018   9.721   9.698 -0.0880  0.1238  0.3075
  494MOL0     H65143   9.659   9.469   9.249 -2.4545  0.1100 -1.2856
  494MOL0     H65144   9.578   9.516   9.032 -1.4808  2.0434  0.2897
  494MOL0     H65145   9.626   9.955   8.884 -1.7114  0.2628 -1.4871
  494MOL0     H65146   9.536   9.931   9.029 -0.7743 -0.3330 -0.7893
  494MOL0     H65147   9.372  10.002   8.893  1.9663  0.1472  2.4366
  494MOL0     H65148   9.343   9.830   8.908 -3.4899  1.2982 -0.9571
  494MOL0     H65149   9.456   9.793   8.680 -1.9402 -0.2443 -0.7986
  494MOL0     H65150   9.511   9.964   8.685  1.3582  0.1002  2.8233
  494MOL0     H65151   9.310  10.042   8.605 -0.1629 -0.4691 -1.7653
  494MOL0     H65152   9.295   9.886   8.542 -0.0371  1.3636 -0.9289
  494MOL0     H65153   9.165   9.964   8.800  1.1792 -0.7198  1.2113
  494MOL0     H65154   9.154   9.807   8.730 -0.8771  1.1073 -0.0948
  494MOL0     H65155   9.038   9.910   8.523  1.8197  0.1552 -1.3059
  494MOL0     H65156   9.051  10.071   8.604 -0.4834 -0.0484  1.3665
  494MOL0     H65157   8.916   9.828   8.727  1.5620 -0.6351 -2.3609
  494MOL0     H65158   8.915  10.001   8.783 -2.2644  1.3541 -0.6745
  494MOL0     H65159   8.709   9.951   8.702  2.1263 -2.1016  1.5870
  494MOL0     H65160   8.762   9.905   8.545 -0.4609 -1.4341  0.4930
  494MOL0     H65161   8.887  10.246   8.751  2.6528  1.7756 -1.2813
  494MOL0     H65162   8.846  10.524   8.586  0.7398  1.0285  0.7370
  494MOL0     H65163   8.799  10.461   8.747  0.0189  1.2064  0.0607
  494MOL0     H65164   8.629  10.620   8.691 -2.1692  0.8476 -1.8941
  494MOL0     H65165   8.570  10.454   8.656  1.1410 -0.0352  2.9488
  494MOL0     H65166   8.721  10.617   8.447  0.7691 -4.2424 -0.3610
  494MOL0     H65167   8.579  10.497   8.430  1.0497  1.0105 -2.0705
  494MOL0     H65168   8.421  10.653   8.512  0.1575 -0.8586  0.1918
  494MOL0     H65169   8.500  10.701   8.369  3.0013  0.3154 -0.9640
  494MOL0     H65170   8.304  10.888   8.484 -1.4662  3.1552 -1.9047
  494MOL0     H65171   8.210  11.088   8.567  0.6823  0.2561 -1.1603
  494MOL0     H65172   8.233  11.493   8.793 -0.1959  0.8163  0.3374
  494MOL0     H65173   8.113  11.655   8.932  0.7615 -0.2830 -0.7121
  494MOL0     H65174   7.737  11.544   9.101  0.4792 -2.0851 -1.5411
  494MOL0     H65175   7.660  11.626   8.960 -0.6507 -1.6030  1.1811
  494MOL0     H65176   7.595  11.771   9.126  0.4112  4.0513  0.7576
  494MOL0     H65177   7.757  11.830   9.074  1.3922 -1.7169 -0.7102
  494MOL0     H65178   7.710  11.628   9.303 -1.1880  0.0955  1.0692
  494MOL0     H65179   7.688  11.807   9.324  3.2287  3.9195 -1.2525
  494MOL0     H65180   7.954  11.728   9.215 -2.6024 -1.0265 -0.4633
  494MOL0     H65181   7.883  11.878   9.276 -2.7488  0.2284  0.9289
  494MOL0     H65182   7.951  11.643   9.461  5.5771  1.0141 -0.3126
  494MOL0     H65183   7.862  11.805   9.502 -1.7153 -2.5387  1.2627
  494MOL0     H65184   8.042  11.930   9.458  1.7971  0.8475 -1.2552
  494MOL0     H65185   8.128  11.800   9.380  1.9174 -1.6636  2.7309
  494MOL0     H65186   8.038  11.819   9.668  2.1386  2.0650  1.0479
  494MOL0     H65187   8.125  11.674   9.604 -1.2335  1.3065  1.6238
  494MOL0     H65188   8.225  11.967   9.618 -2.2960 -0.6072  3.2146
  494MOL0     H65189   8.306  11.846   9.518  0.3821 -1.3363  1.8088
  494MOL0     H65190   7.765  11.409   8.903  1.3125 -0.1484  0.7445
  494MOL0     H65191   7.892  11.231   8.811  1.6252 -1.8660  2.6636
  494MOL0     H65192   8.535  11.125   8.839 -1.7235  0.1209  0.6604
  494MOL0     H65193   8.657  10.938   8.712 -0.4249 -0.6304  0.5654
  494MOL0     H65194   9.784   9.910   9.064 -0.0418  0.7114 -0.8013
  494MOL0     H65195   9.893   9.825   9.241  0.3582 -1.2371  0.1551
  494MOL0     H65196   9.903   9.431   9.580  3.5316 -1.9140 -0.1470
  494MOL0     H65197  10.048   9.341   9.781  0.1320  0.5880  1.6157
  494MOL0     H65198  10.064   9.387  10.059 -1.9241  1.0799 -2.4095
  494MOL0     H65199  10.224   9.440  10.124  1.0201 -0.3044 -0.9278
  494MOL0     H65200  10.192   9.212   9.926 -1.6914  0.0691  0.1891
  494MOL0     H65201  10.338   9.283   9.984  0.4679 -1.4437 -1.5273
  494MOL0     H65202  10.118   9.126  10.136  1.6276 -1.6651  0.6449
  494MOL0     H65203  10.245   9.207  10.218  2.2094 -0.1836 -0.2190
  494MOL0     H65204  10.225   8.976  10.030 -1.3184  1.2315  0.2244
  494MOL0     H65205  10.383   9.054  10.016  0.6635 -6.0735 -1.7457
  494MOL0     H65206  10.348   8.832  10.389 -0.6419 -0.4885 -0.0109
  494MOL0     H65207  10.151   9.734   9.870 -2.4797 -1.5031  3.0048
  494MOL0     H65208  10.023   9.827   9.677 -1.5659  0.1551  0.0431
  495MOL0     O65209   2.987   5.878   6.082  0.3804 -0.6857  0.3503
  495MOL0     C65210   3.045   5.774   6.109  0.1389 -0.3225  0.7946
  495MOL0     O65211   2.997   5.637   6.080  0.7707 -1.0120  0.5156
  495MOL0     C65212   2.884   5.627   5.998 -0.4808 -0.7123  1.0828
  495MOL0     C65213   2.763   5.696   6.014 -1.0475  0.3893 -0.1277
  495MOL0     C65214   2.657   5.674   5.926 -0.0759 -1.0904 -0.3984
  495MOL0     C65215   2.670   5.580   5.817 -0.0618 -0.4644 -1.0268
  495MOL0     O65216   2.567   5.543   5.736  0.0750  0.4262 -0.6409
  495MOL0     C65217   2.478   5.647   5.695  0.6557  1.0099  0.5485
  495MOL0     C65218   2.370   5.591   5.594 -1.0275  0.2219  0.7949
  495MOL0     C65219   2.418   5.449   5.527  0.2472 -0.4005 -0.5173
  495MOL0     C65220   2.371   5.333   5.619 -0.6599 -0.7737  0.6154
  495MOL0     C65221   2.444   5.207   5.580 -0.5566  0.8041  0.3419
  495MOL0     C65222   2.411   5.084   5.672 -0.9464  0.0426 -0.5819
  495MOL0     C65223   2.484   4.963   5.608 -1.0193  0.1931 -0.4207
  495MOL0     C65224   2.463   4.843   5.707 -0.6773 -0.2118 -0.0441
  495MOL0     N65225   2.505   4.712   5.656  0.3500 -0.4778  0.7314
  495MOL0     C65226   2.492   4.662   5.528 -0.0577  0.0718 -0.0399
  495MOL0     C65227   2.541   4.537   5.531  0.0769  0.5604  0.0035
  495MOL0     C65228   2.550   4.435   5.420 -0.1423 -0.1446  0.2193
  495MOL0     C65229   2.684   4.359   5.419 -0.7363 -0.7486 -0.1425
  495MOL0     C65230   2.711   4.278   5.298  0.0513  1.1177 -0.4214
  495MOL0     C65231   2.828   4.183   5.330  0.0037  0.4799  0.6049
  495MOL0     O65232   2.819   4.092   5.438  0.3239 -0.1084 -0.6172
  495MOL0     C65233   2.909   3.998   5.456  0.6930 -0.5844 -0.9553
  495MOL0     C65234   3.049   4.002   5.431  0.3839 -0.5129  0.7136
  495MOL0     C65235   3.132   3.902   5.471  0.0938  0.2922 -0.3168
  495MOL0     C65236   3.093   3.795   5.559  0.3412 -0.3274  0.1071
  495MOL0     C65237   3.195   3.693   5.607  0.2755  0.9239  0.0992
  495MOL0     O65238   3.133   3.574   5.637  0.5108  0.1263  0.2375
  495MOL0     C65239   3.204   3.463   5.685  0.1650 -0.1036  0.2306
  495MOL0     C65240   3.292   3.472   5.784 -0.4481 -0.2945 -0.1399
  495MOL0     C65241   3.356   3.358   5.832  0.3741 -0.4905 -0.9425
  495MOL0     C65242   3.329   3.237   5.777  0.1302  0.6593  0.1465
  495MOL0     O65243   3.379   3.117   5.819 -0.4862 -0.5518 -0.6478
  495MOL0     C65244   3.524   3.108   5.846 -0.6026 -0.4637  0.8520
  495MOL0     C65245   3.601   3.051   5.730 -0.1095  0.9676 -0.1205
  495MOL0     C65246   3.736   2.993   5.767  0.3858  0.4542  0.4208
  495MOL0     C65247   3.817   2.934   5.647  0.0183  0.8189  0.3062
  495MOL0     C65248   3.912   2.809   5.669  0.7688 -0.0560 -0.1383
  495MOL0     C65249   4.048   2.850   5.721  1.3500 -0.6795 -1.6809
  495MOL0     C65250   4.062   2.864   5.875  0.1860  0.4190 -0.2144
  495MOL0     C65251   4.192   2.932   5.911  0.3420  0.0751  0.5401
  495MOL0    Cl65252   4.156   3.113   5.883 -0.5448 -0.3567 -0.5924
  495MOL0     C65253   3.230   3.229   5.668  0.5853 -0.2179 -0.0629
  495MOL0     C65254   3.174   3.341   5.620  0.9809  0.3669  0.3824
  495MOL0     O65255   3.314   3.713   5.597 -0.3240 -0.6158  0.5231
  495MOL0     C65256   2.955   3.792   5.584  0.4481  0.7113 -0.7500
  495MOL0     C65257   2.864   3.888   5.533 -0.6929  0.0843  0.1180
  495MOL0     N65258   2.564   4.509   5.667 -0.2240 -0.3730 -0.3298
  495MOL0     N65259   2.546   4.612   5.738  0.6898 -0.2595 -0.2458
  495MOL0     C65260   2.785   5.507   5.810  0.2658  0.1955  0.2602
  495MOL0     C65261   2.892   5.534   5.896  0.5926  0.8223  0.5030
  495MOL0     C65262   3.171   5.783   6.184  0.0063  0.2398 -0.3793
  495MOL0     C65263   3.219   5.908   6.237 -0.6258 -0.8201 -0.4733
  495MOL0     C65264   3.330   5.918   6.318  0.1572  0.6467 -0.2265
  495MOL0     C65265   3.412   5.810   6.343 -0.2378  0.8626 -0.3174
  495MOL0     O65266   3.521   5.814   6.425 -0.1700  0.2715 -0.4645
  495MOL0     C65267   3.491   5.832   6.565  0.6700 -0.6810 -0.3803
  495MOL0     C65268   3.432   5.704   6.641 -0.5508 -0.3169  0.2371
  495MOL0     C65269   3.503   5.572   6.615  0.9097  1.9735  0.1639
  495MOL0     C65270   3.628   5.541   6.691  0.5249  0.3167 -0.3954
  495MOL0     C65271   3.611   5.531   6.833 -1.1471 -0.4009 -0.1017
  495MOL0     C65272   3.599   5.513   6.955  0.8575  0.0182 -0.0688
  495MOL0     C65273   3.362   5.687   6.287 -0.7524  0.4312 -0.3088
  495MOL0     C65274   3.251   5.673   6.218 -0.8317 -0.4220 -0.0928
  495MOL0     H65275   2.755   5.761   6.100  2.1987 -0.2446  0.8171
  495MOL0     H65276   2.558   5.717   5.935 -0.0843 -1.2619  0.4751
  495MOL0     H65277   2.533   5.726   5.641  2.2369 -0.6997 -0.4649
  495MOL0     H65278   2.426   5.688   5.782 -1.3181 -0.9447  0.3584
  495MOL0     H65279   2.368   5.661   5.510  0.6983 -0.1689  0.3961
  495MOL0     H65280   2.273   5.591   5.645 -0.1572 -1.4585  2.5985
  495MOL0     H65281   2.527   5.450   5.518  0.2654 -0.6423 -0.3069
  495MOL0     H65282   2.377   5.441   5.425 -0.7324 -0.8897 -0.0954
  495MOL0     H65283   2.391   5.361   5.723  2.7131 -2.8006  0.6592
  495MOL0     H65284   2.263   5.315   5.620 -0.9050 -0.2441 -3.0973
  495MOL0     H65285   2.550   5.229   5.596 -0.9257  1.2693  2.4352
  495MOL0     H65286   2.427   5.184   5.475 -1.4902 -2.9254  1.1486
  495MOL0     H65287   2.302   5.078   5.684 -1.1305  1.9634 -0.9451
  495MOL0     H65288   2.448   5.101   5.773  2.6438 -1.1370 -1.5565
  495MOL0     H65289   2.456   4.946   5.503  2.1344 -1.3951 -1.1559
  495MOL0     H65290   2.591   4.986   5.606 -1.4400  3.1984  2.8891
  495MOL0     H65291   2.356   4.847   5.729 -0.3312  0.0717  1.7523
  495MOL0     H65292   2.516   4.874   5.797  2.4038  0.2022 -1.8685
  495MOL0     H65293   2.455   4.713   5.440 -0.4797 -0.6000 -0.2620
  495MOL0     H65294   2.544   4.487   5.323 -3.2634 -1.1556 -0.2162
  495MOL0     H65295   2.463   4.372   5.436 -0.5080  0.6222  1.3840
  495MOL0     H65296   2.711   4.295   5.505  2.0394  1.0439  0.4442
  495MOL0     H65297   2.760   4.438   5.427 -3.0510  1.3804  3.7778
  495MOL0     H65298   2.620   4.222   5.277 -0.2472  2.3704 -2.7315
  495MOL0     H65299   2.728   4.338   5.208 -1.0149  1.0687 -0.6572
  495MOL0     H65300   2.921   4.240   5.327  1.1610 -1.3331 -1.4524
  495MOL0     H65301   2.833   4.113   5.246  3.8655 -1.5530  2.2665
  495MOL0     H65302   3.079   4.066   5.349 -2.6516 -0.7857 -0.7505
  495MOL0     H65303   3.235   3.888   5.437 -0.1803 -1.8376 -0.4142
  495MOL0     H65304   3.318   3.567   5.830 -1.6600 -1.4012  3.0571
  495MOL0     H65305   3.417   3.368   5.921  0.9679  2.0349 -1.5439
  495MOL0     H65306   3.538   3.045   5.934 -1.0980  1.3595  2.3076
  495MOL0     H65307   3.566   3.208   5.858 -0.7918  0.0843 -2.2626
  495MOL0     H65308   3.613   3.133   5.659 -1.6792  1.9682  0.7265
  495MOL0     H65309   3.544   2.968   5.687 -1.4775  1.3017  0.9680
  495MOL0     H65310   3.727   2.919   5.847 -4.2043 -1.2614 -1.3321
  495MOL0     H65311   3.801   3.072   5.805  0.7378  1.1317 -1.4932
  495MOL0     H65312   3.743   2.904   5.572 -0.3720 -0.8166  1.3109
  495MOL0     H65313   3.875   3.013   5.598 -3.1713  1.7947 -2.3016
  495MOL0     H65314   3.930   2.768   5.569  1.9669 -0.1388  0.1047
  495MOL0     H65315   3.867   2.728   5.726  1.3427  0.1211  0.5702
  495MOL0     H65316   4.075   2.944   5.672  0.8951 -1.2871 -3.1513
  495MOL0     H65317   4.113   2.771   5.682  1.3861 -0.5174 -1.9491
  495MOL0     H65318   3.973   2.914   5.914  0.8748  1.2792  0.2876
  495MOL0     H65319   4.052   2.759   5.904 -0.5742  0.7871  0.9425
  495MOL0     H65320   4.261   2.899   5.832 -0.4178 -1.0451  0.3119
  495MOL0     H65321   4.214   2.903   6.014  0.8520 -1.1042  0.1222
  495MOL0     H65322   3.212   3.136   5.617  3.9434  0.0916 -2.0765
  495MOL0     H65323   3.103   3.341   5.538 -1.1464  1.8087  2.1180
  495MOL0     H65324   2.909   3.710   5.639 -2.1148  2.2412 -0.4484
  495MOL0     H65325   2.762   3.864   5.560 -0.5679  0.2658  0.7664
  495MOL0     H65326   2.795   5.433   5.731  2.7125 -0.2983  0.9363
  495MOL0     H65327   2.968   5.460   5.875 -0.7451 -0.2184 -0.9553
  495MOL0     H65328   3.164   5.997   6.210  0.2747 -0.4404 -1.1374
  495MOL0     H65329   3.355   6.011   6.368 -2.8069  1.1854  0.4332
  495MOL0     H65330   3.419   5.912   6.587  1.7772 -0.3571  2.5481
  495MOL0     H65331   3.575   5.870   6.624 -0.0396  0.4290 -0.0586
  495MOL0     H65332   3.432   5.730   6.747  0.2640 -1.2474  0.4846
  495MOL0     H65333   3.332   5.692   6.598 -0.9372  2.1157  0.3089
  495MOL0     H65334   3.534   5.572   6.510 -0.2853  1.5236 -0.2047
  495MOL0     H65335   3.443   5.482   6.630  4.1552 -0.2345  0.8726
  495MOL0     H65336   3.689   5.461   6.647  1.5520  1.2431 -0.7151
  495MOL0     H65337   3.696   5.626   6.681  1.3460 -0.0841  1.3071
  495MOL0     H65338   3.582   5.494   7.059  0.2433  0.0708 -0.1524
  495MOL0     H65339   3.422   5.600   6.309  0.1298  0.1406 -3.4201
  495MOL0     H65340   3.218   5.572   6.195 -0.8914 -1.0951  2.5985
  496MOL0     O65341   3.244   7.698   9.299  1.1421 -0.1326 -0.2691
  496MOL0     C65342   3.265   7.815   9.273 -0.8143 -0.5739 -0.2957
  496MOL0     O65343   3.191   7.897   9.199  0.4062 -0.4458 -0.0029
  496MOL0     C65344   3.061   7.837   9.164 -0.1744  0.3366 -0.3382
  496MOL0     C65345   3.034   7.803   9.034  0.2880 -0.1013 -1.0124
  496MOL0     C65346   2.916   7.735   9.013  0.1596 -0.2874  0.0257
  496MOL0     C65347   2.820   7.704   9.116  0.2186  0.6376  0.0941
  496MOL0     O65348   2.705   7.640   9.074 -0.9250  0.3833  0.0791
  496MOL0     C65349   2.582   7.671   9.147  0.5362  0.5241 -0.2768
  496MOL0     C65350   2.477   7.593   9.065 -0.4708  0.3376  0.2728
  496MOL0     C65351   2.341   7.618   9.128  0.1689 -0.2288  0.8844
  496MOL0     C65352   2.244   7.540   9.037 -1.5995 -0.6975 -0.4022
  496MOL0     C65353   2.108   7.509   9.100  0.3776 -0.0214  0.6458
  496MOL0     C65354   2.009   7.631   9.058 -0.6695  0.4180  0.1437
  496MOL0     C65355   1.866   7.602   9.092  0.6321 -0.0752 -0.0243
  496MOL0     C65356   1.850   7.549   9.234 -0.3115  0.3268 -0.2655
  496MOL0     N65357   1.881   7.659   9.334  0.3554  0.2951 -0.0206
  496MOL0     C65358   1.891   7.788   9.309  0.1027 -0.6851 -0.5856
  496MOL0     C65359   1.939   7.847   9.425 -0.1331  0.5549 -0.2793
  496MOL0     C65360   1.943   7.995   9.455 -0.6673  0.7282  0.2383
  496MOL0     C65361   2.075   8.039   9.387  0.5974  0.1347  0.5012
  496MOL0     C65362   2.205   7.987   9.458 -0.4951  1.3975  0.6095
  496MOL0     C65363   2.288   7.886   9.370 -0.2168 -0.4477 -0.9832
  496MOL0     O65364   2.368   7.798   9.450 -0.1359  1.5236 -0.4030
  496MOL0     C65365   2.488   7.834   9.504 -0.3101  1.1556 -0.6191
  496MOL0     C65366   2.531   7.746   9.603  0.2542 -0.8984 -0.0307
  496MOL0     C65367   2.654   7.775   9.666  0.5073  0.3830  0.1838
  496MOL0     C65368   2.724   7.892   9.636 -0.8334 -0.1975  0.1018
  496MOL0     C65369   2.868   7.927   9.693 -0.5622  0.6736 -0.2327
  496MOL0     O65370   2.927   8.049   9.668 -0.7306  0.0358  0.7406
  496MOL0     C65371   3.054   8.052   9.715 -0.4946  0.8825 -0.0184
  496MOL0     C65372   3.162   7.981   9.646  0.6087  0.0374 -0.4257
  496MOL0     C65373   3.291   7.984   9.698  0.5313 -1.1317  0.7752
  496MOL0     C65374   3.320   8.061   9.810  0.1558  0.2477 -0.3289
  496MOL0     O65375   3.447   8.062   9.858  0.0447  0.3059 -0.2338
  496MOL0     C65376   3.489   8.162   9.949 -0.2041  0.9552 -0.2091
  496MOL0     C65377   3.630   8.203   9.905  0.3465 -0.8097 -0.6929
  496MOL0     C65378   3.705   8.315   9.993  0.5670 -0.0950  0.3626
  496MOL0     C65379   3.711   8.262  10.137 -0.1008  0.7955 -0.2216
  496MOL0     C65380   3.816   8.316  10.237  0.6446 -0.0014 -0.0677
  496MOL0     C65381   3.956   8.255  10.202  0.3326 -0.2358 -0.3551
  496MOL0     C65382   4.058   8.306  10.308  0.7916 -0.1795  0.6449
  496MOL0     C65383   4.198   8.264  10.274  0.6091 -0.0815 -0.4353
  496MOL0    Cl65384   4.236   8.086  10.302  0.3774  0.0926  0.3011
  496MOL0     C65385   3.217   8.121   9.871  0.3509 -0.9286 -0.1226
  496MOL0     C65386   3.088   8.128   9.825 -0.2072 -0.0033 -1.2001
  496MOL0     O65387   2.914   7.846   9.778 -0.7541  0.0406  1.0187
  496MOL0     C65388   2.682   7.973   9.533 -0.3026  0.2995  0.5159
  496MOL0     C65389   2.564   7.949   9.475 -1.1584  0.7610  0.0116
  496MOL0     N65390   1.950   7.751   9.516  1.0331  0.1770  0.8078
  496MOL0     N65391   1.925   7.637   9.461 -0.5366 -0.5119  0.1937
  496MOL0     C65392   2.849   7.731   9.243 -0.3025 -0.1805  0.0849
  496MOL0     C65393   2.968   7.789   9.277 -0.5380  0.7352 -0.0553
  496MOL0     C65394   3.392   7.879   9.321 -0.6873 -0.0522 -0.0320
  496MOL0     C65395   3.422   8.011   9.283  0.3295 -0.3951 -0.6086
  496MOL0     C65396   3.532   8.086   9.333  0.0898  0.2510  0.4677
  496MOL0     C65397   3.613   8.036   9.440  0.6993 -0.5302  0.3688
  496MOL0     O65398   3.717   8.113   9.486 -0.0666 -0.5713 -0.3331
  496MOL0     C65399   3.808   8.047   9.583 -0.8935  0.5711  0.0932
  496MOL0     C65400   3.892   7.954   9.495  0.1663  1.2187  0.5784
  496MOL0     C65401   3.974   7.858   9.575  0.1873  0.9809 -0.3455
  496MOL0     C65402   4.042   7.745   9.498 -0.7175  0.5875 -0.8672
  496MOL0     C65403   4.166   7.781   9.436 -0.1444 -0.8411  0.1334
  496MOL0     C65404   4.273   7.816   9.388  0.2318 -0.2474 -0.3695
  496MOL0     C65405   3.584   7.893   9.473  0.6613  0.0041 -0.0638
  496MOL0     C65406   3.482   7.821   9.411 -0.0497  0.0356 -0.3422
  496MOL0     H65407   3.106   7.840   8.962  2.2141 -3.1601 -0.8466
  496MOL0     H65408   2.898   7.707   8.909  0.5899  1.7765 -0.6515
  496MOL0     H65409   2.551   7.776   9.142  0.9935  0.5995 -2.8756
  496MOL0     H65410   2.584   7.623   9.245  4.8128  1.2438  0.1644
  496MOL0     H65411   2.510   7.488   9.063  0.3275  0.5819  0.1560
  496MOL0     H65412   2.472   7.638   8.966 -0.6332  0.3600  0.2928
  496MOL0     H65413   2.306   7.722   9.129 -0.3594 -0.3978  2.4930
  496MOL0     H65414   2.335   7.588   9.233 -1.3053  0.5783  1.0597
  496MOL0     H65415   2.235   7.603   8.948 -0.3081  0.5685  0.3186
  496MOL0     H65416   2.285   7.443   9.008 -2.7255 -0.7766 -1.8449
  496MOL0     H65417   2.124   7.493   9.207 -2.5928  0.4734  1.2693
  496MOL0     H65418   2.062   7.416   9.065  1.3645  0.0352 -0.8831
  496MOL0     H65419   2.006   7.644   8.950 -0.5460  1.1164  0.2172
  496MOL0     H65420   2.028   7.724   9.112 -1.8019  0.1906  0.9908
  496MOL0     H65421   1.813   7.697   9.086  0.2760  0.1190  3.6591
  496MOL0     H65422   1.813   7.534   9.024 -2.1889  0.4789  1.4611
  496MOL0     H65423   1.912   7.462   9.258  2.2924  1.8331 -1.0943
  496MOL0     H65424   1.744   7.525   9.241 -1.0831  1.7186 -4.3135
  496MOL0     H65425   1.857   7.857   9.233  0.5284  2.2926  1.7047
  496MOL0     H65426   1.937   8.010   9.564 -1.8393 -0.3819  0.3542
  496MOL0     H65427   1.855   8.032   9.402 -0.3278 -1.4472 -2.0097
  496MOL0     H65428   2.080   8.148   9.400 -1.1668  0.5628 -1.8423
  496MOL0     H65429   2.071   8.034   9.278  2.7202  0.3395  0.3832
  496MOL0     H65430   2.265   8.067   9.502 -3.2686  2.2761  3.1331
  496MOL0     H65431   2.188   7.918   9.542  2.4904 -1.0039 -0.5370
  496MOL0     H65432   2.337   7.940   9.288  1.3952  0.5872  0.5985
  496MOL0     H65433   2.218   7.818   9.320  0.6314  1.0141 -4.4903
  496MOL0     H65434   2.482   7.658   9.643 -0.4482  0.3530  1.9776
  496MOL0     H65435   2.697   7.712   9.743  1.9100 -3.7976 -3.5949
  496MOL0     H65436   3.149   7.911   9.564  1.5818 -0.1939 -0.3949
  496MOL0     H65437   3.380   7.946   9.650  0.2017  0.5955 -1.3202
  496MOL0     H65438   3.487   8.110  10.045 -2.8401 -2.6827 -2.0048
  496MOL0     H65439   3.431   8.255   9.956 -0.4749  0.8759 -1.1830
  496MOL0     H65440   3.609   8.246   9.806 -0.6115  0.5095  0.0453
  496MOL0     H65441   3.698   8.118   9.904  1.0388 -0.3269  1.1936
  496MOL0     H65442   3.647   8.406   9.979 -2.0108 -1.7871 -0.7125
  496MOL0     H65443   3.809   8.318   9.957  0.8922  0.8228  1.3264
  496MOL0     H65444   3.613   8.268  10.186  0.3593  0.3773  0.7641
  496MOL0     H65445   3.722   8.154  10.133 -0.3676  0.7713 -0.3487
  496MOL0     H65446   3.787   8.292  10.340 -0.1029 -2.0971 -0.7096
  496MOL0     H65447   3.809   8.425  10.246  1.4738 -0.0421  1.4783
  496MOL0     H65448   3.996   8.285  10.105  3.0552 -1.6958  0.2341
  496MOL0     H65449   3.959   8.146  10.208  3.4666 -0.2316 -0.2924
  496MOL0     H65450   4.039   8.413  10.308 -1.0584 -0.4542  2.0074
  496MOL0     H65451   4.029   8.269  10.406  0.0586  0.5988  0.7277
  496MOL0     H65452   4.258   8.322  10.345  0.3011 -1.4235  0.9932
  496MOL0     H65453   4.223   8.287  10.171  0.9148 -1.2324 -0.6264
  496MOL0     H65454   3.229   8.160   9.971 -2.4140 -0.6012  0.1771
  496MOL0     H65455   3.009   8.190   9.865  2.5026  2.2958  1.0602
  496MOL0     H65456   2.747   8.046   9.484 -0.5949 -0.0734 -0.4453
  496MOL0     H65457   2.537   8.016   9.393  0.2902  0.2322 -0.9450
  496MOL0     H65458   2.772   7.723   9.319 -0.2622  1.4391  0.3435
  496MOL0     H65459   2.997   7.809   9.380  2.2171 -1.0257 -0.4012
  496MOL0     H65460   3.353   8.058   9.213 -1.1719 -1.6978 -0.0535
  496MOL0     H65461   3.562   8.186   9.304  1.3977 -0.2812 -0.1040
  496MOL0     H65462   3.746   7.988   9.650  0.4514 -1.9771 -0.7602
  496MOL0     H65463   3.858   8.129   9.636 -1.4251  0.5617  0.6123
  496MOL0     H65464   3.827   7.895   9.430  1.9859 -1.4829  1.0357
  496MOL0     H65465   3.964   8.012   9.436 -0.0429 -0.7787 -1.8366
  496MOL0     H65466   3.908   7.810   9.648  0.7356 -2.3916 -1.8727
  496MOL0     H65467   4.046   7.916   9.634  0.0169  1.0751 -0.2291
  496MOL0     H65468   4.068   7.668   9.570 -1.8946  1.7216  0.8269
  496MOL0     H65469   3.977   7.692   9.428 -0.3326 -4.0383  1.8701
  496MOL0     H65470   4.359   7.860   9.342 -0.3235  0.4724 -0.7302
  496MOL0     H65471   3.641   7.834   9.544 -0.3123 -0.5240  0.2926
  496MOL0     H65472   3.471   7.716   9.439 -1.0972  0.5670  1.3309
  497MOL0     O65473   4.955   0.817   7.792 -0.0219 -0.5070 -0.2009
  497MOL0     C65474   4.863   0.752   7.732  0.0982 -0.5816 -0.3370
  497MOL0     O65475   4.745   0.717   7.787 -0.7908 -0.2991 -0.0041
  497MOL0     C65476   4.716   0.728   7.923 -0.0601 -0.2775 -0.9480
  497MOL0     C65477   4.648   0.622   7.977 -0.3471 -0.3682  0.6197
  497MOL0     C65478   4.583   0.630   8.102 -0.7668  0.0746  1.0245
  497MOL0     C65479   4.598   0.745   8.178  0.3907 -0.2303 -0.2321
  497MOL0     O65480   4.531   0.774   8.300  0.0885 -0.4733 -0.2435
  497MOL0     C65481   4.440   0.684   8.357  0.7935  0.0399  0.4453
  497MOL0     C65482   4.384   0.744   8.492 -0.0864  0.4829  0.2956
  497MOL0     C65483   4.299   0.875   8.473 -0.5861  0.4648 -0.8226
  497MOL0     C65484   4.211   0.890   8.603  0.2566 -0.3266  0.0232
  497MOL0     C65485   4.149   1.023   8.626  0.5938 -0.1858  0.4118
  497MOL0     C65486   4.116   1.040   8.783  0.2231  0.4228  0.0075
  497MOL0     C65487   4.092   1.184   8.817  0.7930 -0.0826 -0.2988
  497MOL0     C65488   3.959   1.241   8.753  1.5089 -0.7943  0.8298
  497MOL0     N65489   3.839   1.187   8.810 -0.9307  0.6413 -0.2021
  497MOL0     C65490   3.785   1.072   8.760 -0.6362 -0.1429  0.0286
  497MOL0     C65491   3.678   1.050   8.834  0.3276  0.1029  0.1236
  497MOL0     C65492   3.602   0.920   8.842  1.0972 -0.3486 -0.7613
  497MOL0     C65493   3.618   0.841   8.974 -0.5196 -0.8950  0.3124
  497MOL0     C65494   3.764   0.792   8.996  0.5595  0.5124 -0.3993
  497MOL0     C65495   3.826   0.719   8.871  0.7055 -0.0473 -0.6696
  497MOL0     O65496   3.843   0.588   8.910 -0.2921  0.3307 -0.3116
  497MOL0     C65497   3.929   0.498   8.840  0.7438 -1.4944 -0.8915
  497MOL0     C65498   4.041   0.535   8.764  0.2377 -0.6483 -0.6491
  497MOL0     C65499   4.123   0.437   8.696  0.0517 -0.4113 -0.1748
  497MOL0     C65500   4.089   0.305   8.712  0.2258  0.1073 -0.4387
  497MOL0     C65501   4.148   0.197   8.625 -0.0115 -0.3409  0.0893
  497MOL0     O65502   4.220   0.251   8.519 -0.4986  0.7577 -0.8375
  497MOL0     C65503   4.303   0.173   8.444  0.0768  0.1070 -0.3268
  497MOL0     C65504   4.277   0.043   8.394 -0.7709  0.0878 -0.0555
  497MOL0     C65505   4.351  -0.012   8.298  0.6071 -0.5082 -0.1730
  497MOL0     C65506   4.472   0.042   8.262  0.6929 -0.0769  0.3134
  497MOL0     O65507   4.548  -0.026   8.171 -0.9130  0.4985  1.0121
  497MOL0     C65508   4.593  -0.157   8.226 -0.0537 -0.1970 -0.3875
  497MOL0     C65509   4.627  -0.258   8.115 -0.5494 -0.5441  0.0984
  497MOL0     C65510   4.541  -0.248   7.991  0.1301 -0.1108  0.0438
  497MOL0     C65511   4.564  -0.131   7.898  1.0522  0.0042  0.3736
  497MOL0     C65512   4.500  -0.151   7.758 -1.1721  0.0882 -0.4458
  497MOL0     C65513   4.481  -0.033   7.672  0.9762  0.6350 -0.0758
  497MOL0     C65514   4.425  -0.065   7.534 -0.3532 -1.4457 -0.6039
  497MOL0     C65515   4.390   0.058   7.440  0.3260  0.2723  0.5743
  497MOL0    Cl65516   4.345   0.009   7.280 -0.5430 -0.1395  0.0372
  497MOL0     C65517   4.512   0.171   8.303 -0.4357 -0.4926  0.1031
  497MOL0     C65518   4.421   0.235   8.394 -0.2216 -0.1591  0.7294
  497MOL0     O65519   4.135   0.079   8.655  0.3744 -0.1483  0.6683
  497MOL0     C65520   4.001   0.273   8.818  0.5990  0.2864  0.3887
  497MOL0     C65521   3.915   0.363   8.879  0.2210 -0.3920 -0.1599
  497MOL0     N65522   3.671   1.142   8.934 -0.6097 -0.4335  0.0794
  497MOL0     N65523   3.760   1.235   8.906  0.1507  0.7763 -0.1407
  497MOL0     C65524   4.698   0.841   8.135  0.3916  0.2454 -0.0873
  497MOL0     C65525   4.750   0.835   8.007  0.1477 -0.2334 -0.1435
  497MOL0     C65526   4.890   0.703   7.594 -0.4093 -0.1054  0.5902
  497MOL0     C65527   4.980   0.777   7.506  0.5621 -0.0761  0.0761
  497MOL0     C65528   5.002   0.730   7.373  0.2037 -0.3427  0.1425
  497MOL0     C65529   4.925   0.623   7.320 -0.4634 -0.0106  0.2167
  497MOL0     O65530   4.922   0.590   7.188 -0.1355  0.6165  0.1874
  497MOL0     C65531   4.976   0.674   7.089  0.1502  0.6977  0.3729
  497MOL0     C65532   4.947   0.622   6.947  0.2533  0.4154  0.1728
  497MOL0     C65533   4.799   0.630   6.926  0.2363 -0.1048  0.8796
  497MOL0     C65534   4.758   0.612   6.777 -0.4228  1.5353  0.2112
  497MOL0     C65535   4.621   0.650   6.754  0.1466 -0.5655 -0.4457
  497MOL0     C65536   4.516   0.695   6.728  0.7331  0.5416  0.1774
  497MOL0     C65537   4.836   0.559   7.405 -0.1196 -1.3880 -0.0562
  497MOL0     C65538   4.817   0.592   7.539 -1.4174  0.2994  0.0623
  497MOL0     H65539   4.629   0.530   7.923 -2.2044  0.3899 -0.1170
  497MOL0     H65540   4.527   0.543   8.136 -1.3154 -1.7566 -3.7703
  497MOL0     H65541   4.485   0.586   8.373 -2.7103 -1.6735  0.6744
  497MOL0     H65542   4.364   0.663   8.281  1.2935  0.4244 -0.1827
  497MOL0     H65543   4.470   0.774   8.553 -0.6500  0.3885  1.1379
  497MOL0     H65544   4.331   0.658   8.533  0.3981  0.1577  0.2426
  497MOL0     H65545   4.223   0.878   8.394 -0.4017 -1.3858 -1.1081
  497MOL0     H65546   4.363   0.963   8.459 -1.6301  1.2290 -0.8519
  497MOL0     H65547   4.133   0.814   8.594  1.2794 -1.1440 -3.4014
  497MOL0     H65548   4.272   0.862   8.690  1.4721  0.5620 -0.5040
  497MOL0     H65549   4.060   1.034   8.563  1.3339  1.0616 -0.4505
  497MOL0     H65550   4.221   1.099   8.595  2.0685 -2.5796 -2.5807
  497MOL0     H65551   4.194   1.005   8.851 -1.6876 -0.5752  1.7798
  497MOL0     H65552   4.034   0.974   8.813  2.2048 -1.5450  1.4657
  497MOL0     H65553   4.071   1.174   8.923  0.0632  0.3340 -0.3976
  497MOL0     H65554   4.174   1.256   8.803 -1.5338  3.1174  1.2654
  497MOL0     H65555   3.969   1.196   8.654  4.3094 -1.7570  1.4450
  497MOL0     H65556   3.960   1.350   8.748  0.7059 -0.7413  1.6714
  497MOL0     H65557   3.844   1.022   8.683  2.4448 -1.1458  2.8179
  497MOL0     H65558   3.593   0.852   8.756  2.6404  0.0241 -1.2603
  497MOL0     H65559   3.505   0.969   8.847  1.8529  1.0366  1.5328
  497MOL0     H65560   3.547   0.758   8.972  0.0265 -1.3581 -0.5715
  497MOL0     H65561   3.584   0.910   9.052 -3.1997  1.7737 -2.9043
  497MOL0     H65562   3.827   0.877   9.021  1.0823 -0.1252  0.5342
  497MOL0     H65563   3.771   0.731   9.087 -0.2720  0.3053 -0.4645
  497MOL0     H65564   3.923   0.765   8.850 -0.1738  1.5254 -1.4828
  497MOL0     H65565   3.765   0.721   8.780 -0.0113  1.4049 -0.1853
  497MOL0     H65566   4.058   0.642   8.766 -0.4926 -0.4673  3.0395
  497MOL0     H65567   4.201   0.479   8.634 -1.1228  0.6106 -1.0064
  497MOL0     H65568   4.184   0.000   8.431  0.7861 -1.8147  1.9321
  497MOL0     H65569   4.306  -0.103   8.258 -3.5185  1.5235 -0.6350
  497MOL0     H65570   4.511  -0.196   8.286 -3.4574  0.5485 -4.1662
  497MOL0     H65571   4.685  -0.145   8.285  0.1487  0.8271 -0.9078
  497MOL0     H65572   4.606  -0.357   8.156  0.5991 -0.6008  0.5729
  497MOL0     H65573   4.733  -0.254   8.089 -0.7245  0.7093 -0.5165
  497MOL0     H65574   4.432  -0.245   8.007 -0.2953 -1.6881 -2.1591
  497MOL0     H65575   4.553  -0.337   7.929 -1.9427 -0.2344 -0.2536
  497MOL0     H65576   4.509  -0.041   7.926 -2.1813 -1.5983 -0.2624
  497MOL0     H65577   4.669  -0.101   7.897  1.3988 -1.1080  0.9147
  497MOL0     H65578   4.399  -0.184   7.782 -2.4522  2.0333 -2.7538
  497MOL0     H65579   4.560  -0.222   7.701 -1.5959 -0.4693 -0.2060
  497MOL0     H65580   4.581   0.011   7.662  1.6267 -0.6410  0.5230
  497MOL0     H65581   4.408   0.040   7.707  2.4867  2.2486 -0.1463
  497MOL0     H65582   4.494  -0.130   7.480  1.6973  1.7062 -2.1013
  497MOL0     H65583   4.334  -0.124   7.551  0.1006 -2.3659 -1.2686
  497MOL0     H65584   4.471   0.129   7.424  0.7002 -0.0984  0.8043
  497MOL0     H65585   4.308   0.117   7.481 -0.7207  1.3953 -2.7848
  497MOL0     H65586   4.597   0.225   8.264 -0.7377  1.6922  2.1721
  497MOL0     H65587   4.432   0.338   8.429  1.5745  0.9530 -2.6091
  497MOL0     H65588   3.981   0.174   8.858  2.1984  0.7462  2.5328
  497MOL0     H65589   3.847   0.338   8.961  0.3870 -1.0289 -0.2077
  497MOL0     H65590   4.723   0.916   8.209  1.1489 -0.3562  0.2796
  497MOL0     H65591   4.812   0.911   7.961 -0.0105 -0.5536 -0.8988
  497MOL0     H65592   5.038   0.858   7.549  1.1973 -0.8571  0.7205
  497MOL0     H65593   5.068   0.786   7.308 -3.1188  0.5242 -2.7439
  497MOL0     H65594   5.083   0.673   7.107  0.0081 -0.7596  1.3414
  497MOL0     H65595   4.930   0.773   7.097  2.4702  2.0125 -1.3222
  497MOL0     H65596   4.987   0.695   6.876  2.0828  0.7858  1.5047
  497MOL0     H65597   5.006   0.534   6.923  2.6202  2.6104 -2.8287
  497MOL0     H65598   4.769   0.731   6.954 -0.8469 -0.0789 -0.2814
  497MOL0     H65599   4.756   0.553   6.991  1.8425 -3.3060 -1.5776
  497MOL0     H65600   4.829   0.669   6.717  4.8000 -5.0665 -1.0840
  497MOL0     H65601   4.790   0.512   6.746  3.4779  2.4924  0.6505
  497MOL0     H65602   4.425   0.744   6.699  1.6065  0.6200 -2.7651
  497MOL0     H65603   4.770   0.490   7.352 -2.1744  0.7366 -0.4225
  497MOL0     H65604   4.740   0.549   7.602 -1.3779  3.4842  2.5740
  498MOL0     O65605   2.787   5.172   4.186 -0.2117 -0.4988  0.8719
  498MOL0     C65606   2.679   5.207   4.223 -0.3304  0.1156 -0.8743
  498MOL0     O65607   2.566   5.138   4.210  0.5435 -0.4384  0.4560
  498MOL0     C65608   2.560   5.000   4.181 -0.5250  0.5658 -1.0125
  498MOL0     C65609   2.671   4.913   4.205  0.1648 -0.1264 -0.4748
  498MOL0     C65610   2.650   4.781   4.177  0.0303  0.9566  0.8643
  498MOL0     C65611   2.530   4.731   4.134 -1.0010  0.1747 -0.1150
  498MOL0     O65612   2.531   4.597   4.093  0.3977 -0.3170  0.2497
  498MOL0     C65613   2.432   4.562   3.993  0.4323  0.6456  0.3093
  498MOL0     C65614   2.461   4.422   3.939 -0.4880 -0.0320  0.2814
  498MOL0     C65615   2.357   4.360   3.839  0.2234  0.0042 -0.7751
  498MOL0     C65616   2.335   4.441   3.714  0.2751 -0.5753  0.2282
  498MOL0     C65617   2.225   4.373   3.629  0.6102 -0.0130  0.0865
  498MOL0     C65618   2.086   4.346   3.686 -0.5830  0.1023  0.4180
  498MOL0     C65619   1.997   4.470   3.708  0.1648  0.1125 -0.3736
  498MOL0     C65620   1.978   4.567   3.593 -0.0202 -1.2445 -0.3127
  498MOL0     N65621   1.921   4.518   3.466  0.3695 -0.1555 -0.3536
  498MOL0     C65622   1.784   4.523   3.445  0.2980 -0.7926 -1.8234
  498MOL0     C65623   1.770   4.538   3.308 -0.0192  0.9280 -0.6958
  498MOL0     C65624   1.642   4.523   3.241  0.2433 -1.5588  0.2686
  498MOL0     C65625   1.552   4.644   3.244  0.0848 -0.3579 -0.9510
  498MOL0     C65626   1.432   4.626   3.141  0.5862  0.1033 -0.3118
  498MOL0     C65627   1.318   4.526   3.196 -0.1870  0.6823  0.3586
  498MOL0     O65628   1.223   4.586   3.289 -0.2963 -0.6156 -0.1842
  498MOL0     C65629   1.127   4.675   3.245  0.3266 -0.1707 -0.0380
  498MOL0     C65630   1.061   4.756   3.349  0.0591  0.8224  1.2031
  498MOL0     C65631   0.969   4.855   3.322 -0.2254 -0.0388  0.1912
  498MOL0     C65632   0.935   4.870   3.186  0.3450 -0.6094 -0.4514
  498MOL0     C65633   0.849   4.982   3.136  0.2788 -0.1190  0.5164
  498MOL0     O65634   0.761   4.954   3.039  0.4702  0.3413  0.1826
  498MOL0     C65635   0.670   5.052   3.018 -0.8278  0.3388  0.1747
  498MOL0     C65636   0.678   5.149   2.925  0.9939 -0.0393 -0.0287
  498MOL0     C65637   0.577   5.233   2.907  0.7043 -0.4818  0.5317
  498MOL0     C65638   0.455   5.221   2.983 -0.7562 -0.1168  1.0561
  498MOL0     O65639   0.349   5.307   2.972 -0.3958 -0.3727  0.4437
  498MOL0     C65640   0.339   5.393   2.846  0.1255  0.4035  0.1278
  498MOL0     C65641   0.211   5.471   2.861  0.2092 -0.0436  0.4418
  498MOL0     C65642   0.180   5.556   2.734  0.3307 -0.0146 -0.0312
  498MOL0     C65643   0.075   5.654   2.773 -0.2793  1.0295  0.6344
  498MOL0     C65644   0.027   5.732   2.652  0.3578 -0.5629  0.4890
  498MOL0     C65645  -0.025   5.641   2.548 -0.3692 -0.4736 -0.3043
  498MOL0     C65646  -0.098   5.707   2.419 -1.3042  0.9587 -0.9309
  498MOL0     C65647  -0.137   5.589   2.319 -0.4639 -0.6335  0.1851
  498MOL0    Cl65648   0.016   5.530   2.252  0.0668 -0.1162 -0.3873
  498MOL0     C65649   0.462   5.138   3.092 -0.2694 -0.5871  0.9282
  498MOL0     C65650   0.569   5.048   3.099  0.4566  1.4236 -0.2623
  498MOL0     O65651   0.860   5.084   3.188 -0.2332 -0.3244  0.0318
  498MOL0     C65652   0.985   4.785   3.083  0.0798 -0.4684  0.0831
  498MOL0     C65653   1.077   4.682   3.119  0.8521 -0.0182  0.2038
  498MOL0     N65654   1.896   4.541   3.253 -0.9724 -0.3825  0.6280
  498MOL0     N65655   1.982   4.521   3.349  0.5144 -0.3751  0.7929
  498MOL0     C65656   2.421   4.819   4.127  0.8128  1.6551  0.0809
  498MOL0     C65657   2.436   4.952   4.140  0.5161 -0.8783 -0.3694
  498MOL0     C65658   2.677   5.341   4.287 -1.3229 -0.2563  0.6162
  498MOL0     C65659   2.792   5.432   4.277  0.4001  1.1309  0.0074
  498MOL0     C65660   2.793   5.561   4.333 -0.0898  0.9068  0.1471
  498MOL0     C65661   2.683   5.606   4.408  0.5109 -0.6372  0.0978
  498MOL0     O65662   2.680   5.714   4.491  0.1845 -0.9169 -0.4653
  498MOL0     C65663   2.709   5.841   4.427  0.2304  0.0224  0.3058
  498MOL0     C65664   2.588   5.932   4.400  0.1604 -1.1682  0.2906
  498MOL0     C65665   2.651   6.070   4.370 -0.0645 -0.4980 -0.1828
  498MOL0     C65666   2.529   6.178   4.353  0.0445 -1.0237  0.8054
  498MOL0     C65667   2.589   6.311   4.315 -0.5614  0.6772  0.8862
  498MOL0     C65668   2.619   6.419   4.270  0.0766 -0.4331  0.4294
  498MOL0     C65669   2.562   5.531   4.397 -0.1336  0.5039 -0.2112
  498MOL0     C65670   2.558   5.398   4.337 -0.6485  0.2595  0.7899
  498MOL0     H65671   2.766   4.949   4.244 -0.2969 -0.8843  1.5011
  498MOL0     H65672   2.733   4.712   4.180  0.7015  1.3080 -3.2467
  498MOL0     H65673   2.418   4.624   3.904 -2.2910 -1.3340 -0.7948
  498MOL0     H65674   2.333   4.569   4.040 -0.1926 -0.5294 -0.7673
  498MOL0     H65675   2.497   4.352   4.015  1.7297 -2.2886 -2.5851
  498MOL0     H65676   2.547   4.441   3.874 -0.5517  0.7355  0.4126
  498MOL0     H65677   2.269   4.332   3.898  1.5434  0.2283  1.4376
  498MOL0     H65678   2.392   4.261   3.807  1.4571  0.0936  0.1954
  498MOL0     H65679   2.310   4.544   3.740 -2.6020 -1.3482  0.9399
  498MOL0     H65680   2.423   4.434   3.650 -0.2148 -1.1510 -0.4092
  498MOL0     H65681   2.267   4.273   3.611  1.3255  0.4383 -0.8673
  498MOL0     H65682   2.234   4.423   3.532  2.6890 -1.0678 -0.3316
  498MOL0     H65683   2.093   4.286   3.778 -3.6180 -0.3416  0.4658
  498MOL0     H65684   2.022   4.288   3.619  0.4968 -1.0363  0.3387
  498MOL0     H65685   1.897   4.440   3.739  0.4177  1.0244  1.4068
  498MOL0     H65686   2.043   4.529   3.787  2.2674  0.1399 -1.5615
  498MOL0     H65687   2.069   4.623   3.569 -2.1494  2.6281 -0.1929
  498MOL0     H65688   1.904   4.638   3.631  1.3943  0.8287 -1.2719
  498MOL0     H65689   1.705   4.542   3.516 -1.3523  0.9740 -3.9836
  498MOL0     H65690   1.581   4.445   3.286 -0.9724 -0.3148  0.8256
  498MOL0     H65691   1.663   4.492   3.138  2.1914  0.8381 -0.1559
  498MOL0     H65692   1.603   4.734   3.208  0.8306  0.3435  1.6219
  498MOL0     H65693   1.519   4.661   3.347 -2.5294  1.4415 -1.9849
  498MOL0     H65694   1.392   4.728   3.135  0.1174  0.1557  2.3256
  498MOL0     H65695   1.464   4.610   3.038 -0.1584  1.4262 -0.7707
  498MOL0     H65696   1.357   4.431   3.233  2.3010  0.7140 -1.8974
  498MOL0     H65697   1.269   4.484   3.107  0.0668 -0.3213  0.6747
  498MOL0     H65698   1.072   4.751   3.457 -2.1306 -0.1047  1.4421
  498MOL0     H65699   0.940   4.928   3.397  3.5175  2.5680 -0.5940
  498MOL0     H65700   0.764   5.151   2.859  1.9683  2.0300  1.2053
  498MOL0     H65701   0.584   5.299   2.821 -1.9254 -2.4866 -1.3978
  498MOL0     H65702   0.331   5.324   2.761 -0.5855 -0.0924  0.5879
  498MOL0     H65703   0.425   5.458   2.829 -1.0061  1.4355 -2.1521
  498MOL0     H65704   0.215   5.530   2.953  0.7803 -0.0571  0.4294
  498MOL0     H65705   0.130   5.401   2.883  1.0122 -0.4471  2.2652
  498MOL0     H65706   0.143   5.487   2.658  0.1017 -0.4716  0.4896
  498MOL0     H65707   0.271   5.600   2.692  0.8462 -0.3313  0.7263
  498MOL0     H65708  -0.011   5.598   2.812 -0.5467 -1.2968 -2.8507
  498MOL0     H65709   0.112   5.720   2.852  2.3667  0.3624  0.0473
  498MOL0     H65710   0.118   5.781   2.616  0.0745 -2.1973 -2.8501
  498MOL0     H65711  -0.056   5.798   2.677 -2.3753 -2.8126 -1.9536
  498MOL0     H65712  -0.095   5.570   2.594 -0.9215  0.5136  0.4490
  498MOL0     H65713   0.062   5.589   2.507 -0.2808  0.6500 -1.5896
  498MOL0     H65714  -0.191   5.748   2.459 -1.9667 -1.8833  0.7756
  498MOL0     H65715  -0.031   5.774   2.364 -1.0554 -0.2864 -2.2104
  498MOL0     H65716  -0.195   5.619   2.232 -0.9460 -1.3659  0.2391
  498MOL0     H65717  -0.196   5.510   2.367 -1.5390  0.5548  0.8925
  498MOL0     H65718   0.377   5.145   3.159 -0.9856 -2.1617  0.2360
  498MOL0     H65719   0.563   4.967   3.171 -1.7332  2.7101  1.1209
  498MOL0     H65720   0.964   4.783   2.977 -1.1223 -0.3685  0.3146
  498MOL0     H65721   1.120   4.617   3.044 -0.4664  1.0292 -1.5429
  498MOL0     H65722   2.330   4.775   4.087  0.1627 -0.8151  3.8450
  498MOL0     H65723   2.355   5.020   4.118  1.0787 -0.3260 -0.7672
  498MOL0     H65724   2.877   5.415   4.211  0.9601  0.0377  0.9745
  498MOL0     H65725   2.877   5.629   4.337 -1.2835  2.3796  1.6391
  498MOL0     H65726   2.773   5.827   4.339 -1.4564 -2.9227 -0.5966
  498MOL0     H65727   2.778   5.881   4.502  2.4638 -2.0367 -0.4988
  498MOL0     H65728   2.536   5.893   4.312  0.1707  0.0584 -0.2782
  498MOL0     H65729   2.511   5.935   4.477  0.6590 -3.3169  0.9338
  498MOL0     H65730   2.714   6.072   4.281  1.7383 -0.9916  1.0132
  498MOL0     H65731   2.717   6.099   4.453  1.3572 -3.3917 -0.1531
  498MOL0     H65732   2.464   6.136   4.276  0.7376 -0.7565  0.0538
  498MOL0     H65733   2.471   6.186   4.446 -0.2771 -0.6954  0.5775
  498MOL0     H65734   2.658   6.515   4.240 -0.5941  0.4842  2.3372
  498MOL0     H65735   2.471   5.572   4.439 -0.9651 -2.4260  1.1569
  498MOL0     H65736   2.472   5.332   4.345  0.2481 -0.7342  3.7268
  499MOL0     O65737   1.456   8.972  10.345 -0.1452 -0.7860  0.7550
  499MOL0     C65738   1.393   8.887  10.395  0.1299  0.4236 -0.3153
  499MOL0     O65739   1.426   8.753  10.386  0.0371 -0.4478 -0.4185
  499MOL0     C65740   1.524   8.703  10.313 -0.3933  1.0641  0.1321
  499MOL0     C65741   1.502   8.666  10.181  0.1270 -0.0300 -0.0836
  499MOL0     C65742   1.605   8.631  10.093  0.4070  0.4149 -0.1054
  499MOL0     C65743   1.735   8.617  10.145  0.7373 -0.6457  0.1184
  499MOL0     O65744   1.837   8.573  10.064  0.1300 -0.3293  0.3448
  499MOL0     C65745   1.974   8.634  10.064  0.5329 -0.2303 -0.7821
  499MOL0     C65746   2.051   8.591   9.939  0.0095  0.1269  0.1199
  499MOL0     C65747   2.023   8.672   9.816 -0.0859  0.2316  0.1018
  499MOL0     C65748   2.083   8.815   9.815  0.3554 -0.1357 -0.2939
  499MOL0     C65749   2.087   8.878   9.672 -1.7332  0.1257 -0.2520
  499MOL0     C65750   1.953   8.892   9.608 -0.9841  0.8452 -0.4762
  499MOL0     C65751   1.879   9.017   9.656 -0.6895 -0.1631  0.5925
  499MOL0     C65752   1.820   9.080   9.536 -0.0144 -0.2620 -0.7486
  499MOL0     N65753   1.711   9.007   9.480 -0.3068 -0.0824 -0.8663
  499MOL0     C65754   1.581   9.004   9.518  0.1291 -0.9585 -0.5899
  499MOL0     C65755   1.524   8.933   9.420 -0.8190  0.4723  0.2314
  499MOL0     C65756   1.378   8.898   9.408  0.2547 -0.7710  0.3460
  499MOL0     C65757   1.298   8.858   9.534  0.3799 -0.1491 -0.0571
  499MOL0     C65758   1.341   8.726   9.590  0.1164 -0.9405 -0.2147
  499MOL0     C65759   1.264   8.667   9.706  0.0134  0.1297 -0.1703
  499MOL0     O65760   1.256   8.763   9.813  0.1395 -1.1886 -0.4083
  499MOL0     C65761   1.161   8.756   9.910  1.1089  1.2744  0.6230
  499MOL0     C65762   1.042   8.668   9.899 -0.8529 -0.8007 -0.2475
  499MOL0     C65763   0.945   8.664   9.998  0.7450 -0.4660 -0.2198
  499MOL0     C65764   0.963   8.737  10.116 -0.1114 -0.0164  0.3831
  499MOL0     C65765   0.864   8.720  10.220  0.7326  1.0796  0.1102
  499MOL0     O65766   0.840   8.593  10.249 -0.2617 -0.2192  0.7347
  499MOL0     C65767   0.729   8.579  10.333 -0.4360 -0.0702  0.3715
  499MOL0     C65768   0.742   8.517  10.451  0.2765  0.1075  0.2080
  499MOL0     C65769   0.637   8.503  10.538 -0.1987 -0.6290 -0.5296
  499MOL0     C65770   0.512   8.549  10.515 -0.8240 -0.9919 -0.6194
  499MOL0     O65771   0.412   8.525  10.597  0.2683 -0.6357  1.1111
  499MOL0     C65772   0.283   8.486  10.544 -0.1651  0.6025  0.4370
  499MOL0     C65773   0.183   8.603  10.557  1.2603  0.5032 -0.0327
  499MOL0     C65774   0.039   8.550  10.522 -0.2420 -0.0091  0.0729
  499MOL0     C65775  -0.076   8.654  10.558 -0.2962 -0.0744  0.2343
  499MOL0     C65776  -0.206   8.572  10.541  0.4509 -0.6126 -0.1877
  499MOL0     C65777  -0.329   8.659  10.550 -0.5468  0.0830 -0.2443
  499MOL0     C65778  -0.311   8.782  10.649 -0.2002  0.0509  0.2661
  499MOL0     C65779  -0.442   8.857  10.686 -0.5951 -0.3964 -1.0785
  499MOL0    Cl65780  -0.520   8.775  10.824  0.5607  0.5650  0.2548
  499MOL0     C65781   0.495   8.599  10.390  0.2473 -0.4594  0.0396
  499MOL0     C65782   0.599   8.621  10.294  0.5267  0.2736  0.6149
  499MOL0     O65783   0.823   8.817  10.288  0.8555  0.1716  0.4730
  499MOL0     C65784   1.073   8.816  10.130 -0.7164 -0.4534  0.6924
  499MOL0     C65785   1.163   8.829  10.029 -0.8229 -0.7644 -0.2271
  499MOL0     N65786   1.621   8.898   9.328 -0.5285 -0.2529  0.6217
  499MOL0     N65787   1.727   8.948   9.364  0.1460 -0.0164  0.3713
  499MOL0     C65788   1.758   8.640  10.281 -0.2928 -0.3512 -0.4478
  499MOL0     C65789   1.657   8.685  10.366 -0.6564  0.2378  0.4554
  499MOL0     C65790   1.262   8.918  10.441 -0.2860 -0.5942 -0.7774
  499MOL0     C65791   1.173   8.807  10.468 -0.1502  0.2900 -0.3486
  499MOL0     C65792   1.047   8.829  10.522 -0.5176  0.0240 -0.3156
  499MOL0     C65793   1.001   8.966  10.541  0.1196 -0.5854 -0.2547
  499MOL0     O65794   0.875   9.010  10.588  0.2187  0.4772  0.1056
  499MOL0     C65795   0.770   8.917  10.589 -0.0672  0.9652 -0.7895
  499MOL0     C65796   0.661   8.973  10.685  0.8832 -1.1830 -0.1113
  499MOL0     C65797   0.707   8.958  10.824 -0.4232  0.5201 -0.0852
  499MOL0     C65798   0.604   9.013  10.917  0.3748  0.2640 -0.3888
  499MOL0     C65799   0.631   8.981  11.059 -1.1575 -0.0353  1.0447
  499MOL0     C65800   0.666   8.954  11.172 -0.5613 -0.7617  0.7210
  499MOL0     C65801   1.085   9.067  10.494  0.6232 -0.1936 -0.4965
  499MOL0     C65802   1.216   9.048  10.455  0.3094  0.7676 -0.5939
  499MOL0     H65803   1.405   8.670  10.133 -0.5496 -1.1699  1.1113
  499MOL0     H65804   1.581   8.621   9.988 -1.0043  2.3696 -0.0319
  499MOL0     H65805   2.028   8.587  10.146 -0.4550  0.5387  0.3397
  499MOL0     H65806   1.972   8.744  10.069  0.5086  0.0742 -4.5390
  499MOL0     H65807   2.016   8.489   9.923 -0.0945 -0.0669  1.4674
  499MOL0     H65808   2.157   8.588   9.966  0.0474 -2.1019 -0.0812
  499MOL0     H65809   1.915   8.667   9.798 -0.2304 -2.7812  1.2501
  499MOL0     H65810   2.069   8.608   9.740  0.4155 -1.7075  1.9545
  499MOL0     H65811   2.025   8.886   9.875  3.6761  2.4063  0.2330
  499MOL0     H65812   2.186   8.816   9.852  1.5572 -0.7801 -3.3072
  499MOL0     H65813   2.139   8.809   9.605  0.8376  2.9739 -1.3970
  499MOL0     H65814   2.143   8.972   9.680 -2.3408  0.3511  2.5570
  499MOL0     H65815   1.882   8.809   9.613 -1.5021  1.3055  0.0239
  499MOL0     H65816   1.967   8.889   9.500  3.3324  0.3284 -0.0940
  499MOL0     H65817   1.825   8.974   9.740  4.4283  0.3973  4.7028
  499MOL0     H65818   1.953   9.085   9.701  0.4547 -1.1549  0.2497
  499MOL0     H65819   1.888   9.101   9.453  2.5820  1.1749  1.5644
  499MOL0     H65820   1.787   9.178   9.570  0.8468 -0.5582  1.0722
  499MOL0     H65821   1.535   9.035   9.611  0.1082 -0.8679 -0.6298
  499MOL0     H65822   1.361   8.821   9.332  0.0981 -2.1677  1.7678
  499MOL0     H65823   1.331   8.995   9.388  2.3773 -0.0810 -1.8574
  499MOL0     H65824   1.189   8.853   9.526  0.1520  0.6884  1.8577
  499MOL0     H65825   1.310   8.940   9.607 -0.5320  0.8508 -0.9977
  499MOL0     H65826   1.337   8.663   9.501  2.6680 -0.4139 -0.7707
  499MOL0     H65827   1.446   8.737   9.618  0.4401 -0.9595 -1.4030
  499MOL0     H65828   1.306   8.572   9.741  1.5996  0.2611 -1.5612
  499MOL0     H65829   1.170   8.647   9.653 -0.0751 -2.8190  0.9450
  499MOL0     H65830   1.034   8.612   9.806  1.2567 -0.4467 -0.7142
  499MOL0     H65831   0.861   8.597   9.981  2.2756 -1.9382 -2.4802
  499MOL0     H65832   0.840   8.484  10.482  0.7446  2.0657  0.9618
  499MOL0     H65833   0.666   8.460  10.633  0.3072  3.0876  1.1764
  499MOL0     H65834   0.252   8.395  10.596 -2.0966  1.2904  0.5469
  499MOL0     H65835   0.292   8.456  10.439 -0.9916  0.5014  0.3897
  499MOL0     H65836   0.212   8.682  10.487 -0.2831  1.0871 -0.0438
  499MOL0     H65837   0.178   8.634  10.662 -1.6003 -0.1573  0.1204
  499MOL0     H65838   0.020   8.468  10.592 -2.0103  0.4692  0.1871
  499MOL0     H65839   0.031   8.506  10.422 -2.9646 -2.1373  1.0878
  499MOL0     H65840  -0.072   8.697  10.658 -1.4301 -0.2413  0.3674
  499MOL0     H65841  -0.068   8.739  10.490  0.3360  2.1904  2.9531
  499MOL0     H65842  -0.197   8.483  10.603  0.6369 -2.3688 -2.6234
  499MOL0     H65843  -0.196   8.538  10.437  2.2491 -1.6864  0.2791
  499MOL0     H65844  -0.410   8.591  10.577 -1.4702  1.9293  1.8864
  499MOL0     H65845  -0.371   8.686  10.452 -0.8511 -2.8485 -1.0124
  499MOL0     H65846  -0.258   8.748  10.739 -0.0826  0.8516  0.5092
  499MOL0     H65847  -0.239   8.850  10.603  1.2107 -0.9566  0.8726
  499MOL0     H65848  -0.514   8.884  10.609  1.7504  1.4455 -2.7540
  499MOL0     H65849  -0.406   8.950  10.730  2.6382 -3.3505  3.4051
  499MOL0     H65850   0.399   8.642  10.363  0.9209  0.4885 -0.9225
  499MOL0     H65851   0.574   8.658  10.195 -3.4109 -3.4589 -0.0654
  499MOL0     H65852   1.076   8.878  10.219  3.9564 -1.7215  1.6468
  499MOL0     H65853   1.252   8.890  10.038 -1.6685  0.2036  2.7655
  499MOL0     H65854   1.856   8.624  10.324 -2.1026 -1.8518  3.6585
  499MOL0     H65855   1.679   8.687  10.472 -0.3551 -2.8479  0.5322
  499MOL0     H65856   1.199   8.704  10.452  2.0717  0.8790 -0.7703
  499MOL0     H65857   0.985   8.744  10.551  0.4350 -0.7081 -0.3939
  499MOL0     H65858   0.808   8.815  10.605  1.1994  1.5459  0.0654
  499MOL0     H65859   0.716   8.915  10.494  1.1120  4.5208 -1.6538
  499MOL0     H65860   0.639   9.078  10.661  0.7112 -1.2646 -0.3052
  499MOL0     H65861   0.575   8.908  10.667  0.2960 -0.5448  0.3138
  499MOL0     H65862   0.797   9.019  10.834 -1.2251  1.6307  0.6188
  499MOL0     H65863   0.716   8.850  10.841 -1.8579  0.1154 -1.5941
  499MOL0     H65864   0.603   9.122  10.904  3.9529  0.4873  0.1657
  499MOL0     H65865   0.506   8.981  10.882  0.8030 -0.6699 -0.7759
  499MOL0     H65866   0.684   8.940  11.276 -0.6577  1.1850  1.0474
  499MOL0     H65867   1.051   9.167  10.519 -1.6623 -1.4962  2.0839
  499MOL0     H65868   1.271   9.142  10.453  0.4096  0.8434  1.9920
  500MOL0     O65869   7.281   9.504   2.876  0.3143  0.9785  0.1059
  500MOL0     C65870   7.401   9.498   2.885 -0.2302 -0.6176  0.5126
  500MOL0     O65871   7.482   9.604   2.926 -0.2099 -0.2564 -0.8614
  500MOL0     C65872   7.419   9.706   2.992 -0.0683 -0.3619  0.0090
  500MOL0     C65873   7.503   9.753   3.084 -0.1892 -0.5216  0.1923
  500MOL0     C65874   7.478   9.873   3.161 -0.2284  0.4184  0.9555
  500MOL0     C65875   7.352   9.933   3.140 -0.4923 -0.5723  0.3353
  500MOL0     O65876   7.291  10.044   3.204 -0.3699  0.2606 -0.5980
  500MOL0     C65877   7.322  10.053   3.345  0.4549  0.7612  0.0133
  500MOL0     C65878   7.221  10.119   3.428 -0.0484  0.4173 -0.1822
  500MOL0     C65879   7.270  10.139   3.573  0.3671 -0.4723  0.2847
  500MOL0     C65880   7.183  10.230   3.665 -0.5465 -0.0385 -0.0605
  500MOL0     C65881   7.077  10.137   3.737  0.0633 -0.5376 -0.0709
  500MOL0     C65882   6.995  10.220   3.845 -1.4136  0.3026 -0.2397
  500MOL0     C65883   6.889  10.310   3.785  1.1510  0.0167 -0.8737
  500MOL0     C65884   6.805  10.395   3.889  0.0139 -0.2082 -0.2161
  500MOL0     N65885   6.670  10.446   3.864  1.1761  0.8356 -1.1725
  500MOL0     C65886   6.631  10.504   3.743 -0.5076  0.1708  1.0627
  500MOL0     C65887   6.506  10.546   3.759  0.6566  0.5964  1.0534
  500MOL0     C65888   6.405  10.601   3.670  0.6426  0.2600  0.0200
  500MOL0     C65889   6.314  10.506   3.594  0.0641 -0.3774 -0.0638
  500MOL0     C65890   6.219  10.590   3.497 -0.7428  0.2784 -0.5255
  500MOL0     C65891   6.269  10.717   3.425 -0.0691 -0.0510  0.2415
  500MOL0     O65892   6.379  10.683   3.343  0.1458  0.7907  0.3598
  500MOL0     C65893   6.436  10.774   3.267 -0.0957 -0.0887 -0.9835
  500MOL0     C65894   6.529  10.718   3.177 -0.1759 -0.2473 -0.0171
  500MOL0     C65895   6.601  10.813   3.097  0.3507 -0.1736  0.8680
  500MOL0     C65896   6.584  10.952   3.111  0.8697  0.2651 -0.1370
  500MOL0     C65897   6.662  11.045   3.021  0.6679 -0.1118 -0.0667
  500MOL0     O65898   6.769  11.000   2.952 -0.8903 -0.4565  0.0210
  500MOL0     C65899   6.872  11.096   2.910  0.5356  0.3249 -0.5746
  500MOL0     C65900   6.938  11.058   2.792  1.1382 -0.5605  0.2066
  500MOL0     C65901   7.054  11.119   2.749 -0.5631  0.9727 -0.6043
  500MOL0     C65902   7.109  11.226   2.821 -0.4382 -0.5548  1.4537
  500MOL0     O65903   7.227  11.287   2.767 -0.2334 -0.3144 -0.0359
  500MOL0     C65904   7.212  11.426   2.766  1.0625 -0.9264 -0.1570
  500MOL0     C65905   7.323  11.486   2.680 -0.7777  0.8290 -0.1671
  500MOL0     C65906   7.465  11.492   2.741 -0.1408 -0.5556  0.0078
  500MOL0     C65907   7.548  11.595   2.665  0.0887  0.0715 -0.0495
  500MOL0     C65908   7.686  11.612   2.734  0.6373  1.0476 -0.0569
  500MOL0     C65909   7.767  11.722   2.677  0.2891 -0.3795  0.4881
  500MOL0     C65910   7.903  11.735   2.743  0.0296  0.0510 -0.1031
  500MOL0     C65911   7.982  11.847   2.689 -0.7020 -0.2667 -0.1908
  500MOL0    Cl65912   8.021  11.814   2.516  0.3284  0.2315  0.1559
  500MOL0     C65913   7.049  11.256   2.944  0.2316 -0.1928  0.1391
  500MOL0     C65914   6.931  11.195   2.985 -0.1564 -0.8688 -0.7881
  500MOL0     O65915   6.631  11.164   3.023 -0.0203  0.0429 -0.4863
  500MOL0     C65916   6.475  11.001   3.188 -0.6402 -0.4177  0.4451
  500MOL0     C65917   6.405  10.913   3.270  0.2505  0.5743 -0.8106
  500MOL0     N65918   6.475  10.519   3.892 -1.2034  0.5358 -1.1397
  500MOL0     N65919   6.564  10.448   3.951  0.7690 -0.2792  0.3946
  500MOL0     C65920   7.265   9.886   3.042 -0.5463  1.1528 -0.6781
  500MOL0     C65921   7.308   9.780   2.966  0.3687 -0.0109 -0.6842
  500MOL0     C65922   7.473   9.380   2.840 -0.0322 -0.9928  0.2761
  500MOL0     C65923   7.616   9.379   2.831 -0.1698  0.5243  0.2696
  500MOL0     C65924   7.690   9.255   2.795  0.6632  0.2251  0.0021
  500MOL0     C65925   7.612   9.134   2.785  0.4344 -0.7811 -0.4867
  500MOL0     O65926   7.659   9.006   2.769  0.6817  0.3691  0.2787
  500MOL0     C65927   7.781   8.973   2.836 -0.1128  0.2293 -0.5740
  500MOL0     C65928   7.805   8.817   2.836  0.5320  0.4111  0.2573
  500MOL0     C65929   7.710   8.740   2.925  0.0156 -0.9232 -0.0817
  500MOL0     C65930   7.744   8.742   3.078 -0.3318 -0.5965  0.5126
  500MOL0     C65931   7.885   8.749   3.116 -0.4012 -0.0689 -0.8365
  500MOL0     C65932   8.002   8.762   3.162 -0.3596  0.1772  0.8991
  500MOL0     C65933   7.476   9.146   2.802 -0.5437  0.2213 -1.1110
  500MOL0     C65934   7.407   9.264   2.827  0.5490 -0.3322  0.2495
  500MOL0     H65935   7.593   9.698   3.109 -1.0861 -0.6311  3.7824
  500MOL0     H65936   7.550   9.910   3.233  0.8349  0.4891 -0.1095
  500MOL0     H65937   7.400  10.129   3.341  1.4073 -0.2233 -0.5499
  500MOL0     H65938   7.356   9.960   3.391 -1.5235 -0.8617 -1.5964
  500MOL0     H65939   7.134  10.052   3.428 -1.2831  1.9758 -0.5452
  500MOL0     H65940   7.181  10.211   3.385 -3.2726 -1.0809 -0.7376
  500MOL0     H65941   7.354  10.207   3.553 -0.5399  0.6411  0.1810
  500MOL0     H65942   7.299  10.052   3.633 -1.7765  0.0847  2.2502
  500MOL0     H65943   7.256  10.274   3.733 -1.7531  3.8685 -1.0752
  500MOL0     H65944   7.133  10.309   3.609 -1.4826  0.7059  1.7425
  500MOL0     H65945   7.133  10.066   3.800  0.7163  0.1240  0.1111
  500MOL0     H65946   7.018  10.074   3.670 -0.7832 -0.7020  0.8027
  500MOL0     H65947   7.055  10.288   3.906  1.3769 -2.1110 -0.0611
  500MOL0     H65948   6.946  10.151   3.914  1.9378 -2.8530 -0.7111
  500MOL0     H65949   6.932  10.385   3.718  1.5091  0.3244 -0.3023
  500MOL0     H65950   6.824  10.249   3.722  2.6337  0.4993 -2.9916
  500MOL0     H65951   6.862  10.485   3.914 -0.1399 -0.3628  0.7278
  500MOL0     H65952   6.797  10.331   3.977  0.3208 -1.0971 -0.8214
  500MOL0     H65953   6.685  10.512   3.649 -0.8778 -0.9223  0.7346
  500MOL0     H65954   6.453  10.671   3.602  0.9174 -0.2370 -0.3055
  500MOL0     H65955   6.340  10.663   3.732  2.0147  1.6572  0.1360
  500MOL0     H65956   6.239  10.449   3.650 -1.0954  0.1231 -1.0809
  500MOL0     H65957   6.371  10.443   3.525 -1.0124  1.0913 -2.3973
  500MOL0     H65958   6.183  10.522   3.419  0.7510 -0.0122 -0.9991
  500MOL0     H65959   6.133  10.616   3.558 -0.4251 -0.1452  0.1129
  500MOL0     H65960   6.304  10.794   3.494  0.2158 -1.9561  2.3352
  500MOL0     H65961   6.189  10.749   3.357 -0.3238 -1.7530 -0.3325
  500MOL0     H65962   6.574  10.620   3.192  1.4412  0.6991  1.7999
  500MOL0     H65963   6.678  10.769   3.034 -1.5835 -2.3360 -0.1093
  500MOL0     H65964   6.901  10.968   2.743 -2.0404  1.1534 -0.8080
  500MOL0     H65965   7.107  11.075   2.664  0.4905  0.0103  0.5138
  500MOL0     H65966   7.209  11.464   2.868 -0.0032 -0.5737 -0.3079
  500MOL0     H65967   7.117  11.457   2.720  0.1278 -2.7229  0.4479
  500MOL0     H65968   7.289  11.588   2.659  2.3933  2.0501 -0.0656
  500MOL0     H65969   7.325  11.445   2.578  0.6179  0.3822  0.0124
  500MOL0     H65970   7.500  11.388   2.743  0.2059 -0.4936  3.3079
  500MOL0     H65971   7.465  11.528   2.845  0.4862  0.1614 -0.2298
  500MOL0     H65972   7.557  11.577   2.558  1.8673  0.5714 -0.0258
  500MOL0     H65973   7.503  11.692   2.688  2.2317  0.7795  1.4678
  500MOL0     H65974   7.745  11.521   2.722 -0.4729  0.4658 -1.3410
  500MOL0     H65975   7.673  11.637   2.840 -1.9100  2.2437 -0.5807
  500MOL0     H65976   7.711  11.816   2.680 -1.6822 -1.5287  2.0811
  500MOL0     H65977   7.782  11.697   2.572  0.8397 -2.5619  1.0462
  500MOL0     H65978   7.892  11.760   2.849  0.1734 -0.4384  0.0337
  500MOL0     H65979   7.956  11.639   2.745  0.2587  0.1013 -2.2012
  500MOL0     H65980   8.065  11.865   2.758 -0.2484 -2.9968  0.1091
  500MOL0     H65981   7.924  11.939   2.695 -1.9553 -0.8337 -2.3614
  500MOL0     H65982   7.078  11.321   3.026 -0.9972  0.6456 -0.0576
  500MOL0     H65983   6.886  11.220   3.080 -1.2376  0.1307 -1.5381
  500MOL0     H65984   6.464  11.109   3.189  1.3424 -0.0787 -2.6166
  500MOL0     H65985   6.330  10.953   3.338  1.1228  0.5302  0.2182
  500MOL0     H65986   7.176   9.945   3.023 -1.0800  1.1787  1.6659
  500MOL0     H65987   7.245   9.754   2.881  0.2612 -0.4929 -0.4656
  500MOL0     H65988   7.685   9.457   2.859  0.5381 -0.2691  0.8077
  500MOL0     H65989   7.795   9.256   2.768  0.3439  2.4429 -1.4972
  500MOL0     H65990   7.774   9.003   2.941  0.8774 -0.0631 -0.4147
  500MOL0     H65991   7.867   9.027   2.795  0.9271  1.0559  2.3860
  500MOL0     H65992   7.799   8.782   2.732 -1.4840  0.5234  0.3081
  500MOL0     H65993   7.910   8.804   2.863  0.3677 -1.4113  0.1664
  500MOL0     H65994   7.713   8.636   2.892  1.4207 -1.0592  0.3941
  500MOL0     H65995   7.607   8.772   2.907  0.9080  2.6380  0.2603
  500MOL0     H65996   7.690   8.821   3.130 -3.2186 -3.0074  1.4638
  500MOL0     H65997   7.708   8.647   3.118 -2.9937 -0.0607 -0.3904
  500MOL0     H65998   8.099   8.796   3.194 -0.5437 -0.0864  1.7551
  500MOL0     H65999   7.418   9.054   2.804 -3.0313  1.7056 -1.2919
  500MOL0     H66000   7.303   9.270   2.856  0.4098  1.5211 -0.5601
  501MOL0     O66001   6.272   0.790   7.223  0.2103 -0.3295 -0.0908
  501MOL0     C66002   6.223   0.808   7.114 -0.0707  0.2592  0.8661
  501MOL0     O66003   6.236   0.724   7.004 -0.6527  0.0380 -0.3124
  501MOL0     C66004   6.312   0.611   7.029  0.1595  0.3724  0.9153
  501MOL0     C66005   6.436   0.592   6.960 -0.7540 -0.2572  0.1776
  501MOL0     C66006   6.499   0.468   6.983 -0.7665  0.0895  0.1118
  501MOL0     C66007   6.450   0.365   7.064 -0.4645 -0.4256  1.1039
  501MOL0     O66008   6.521   0.251   7.094  0.2442  0.0644  0.1704
  501MOL0     C66009   6.593   0.190   6.981  0.0144 -0.0456  0.4315
  501MOL0     C66010   6.641   0.045   7.007  0.5520 -0.0333  0.2679
  501MOL0     C66011   6.718  -0.012   6.869 -0.6444 -0.2128  0.6069
  501MOL0     C66012   6.802  -0.130   6.909  0.3306 -0.4149 -0.7729
  501MOL0     C66013   6.940  -0.153   6.831  0.5387 -0.2765 -0.4174
  501MOL0     C66014   7.056  -0.071   6.892 -0.6823 -0.2688  0.6349
  501MOL0     C66015   7.196  -0.091   6.822 -0.9180 -1.1435  0.2469
  501MOL0     C66016   7.262  -0.225   6.872 -0.2424 -0.9514  0.6053
  501MOL0     N66017   7.381  -0.260   6.792 -0.5424  0.3462  0.7707
  501MOL0     C66018   7.406  -0.226   6.661 -0.4103 -1.0142 -0.3348
  501MOL0     C66019   7.507  -0.308   6.631 -0.6998  0.0145  0.3155
  501MOL0     C66020   7.574  -0.316   6.498 -0.0835  0.2771  0.7690
  501MOL0     C66021   7.510  -0.420   6.406 -0.4397 -0.3984  0.2849
  501MOL0     C66022   7.392  -0.370   6.327 -0.3935  0.2450  0.0403
  501MOL0     C66023   7.385  -0.221   6.296 -0.1477 -0.3824 -0.4698
  501MOL0     O66024   7.280  -0.191   6.206 -0.6414 -0.7946 -0.6753
  501MOL0     C66025   7.153  -0.166   6.252 -0.5692 -0.8915  0.2094
  501MOL0     C66026   7.058  -0.133   6.155 -0.5634  1.0901 -0.3199
  501MOL0     C66027   6.928  -0.096   6.193  0.4019  0.9605 -0.5484
  501MOL0     C66028   6.884  -0.105   6.324  0.0049 -0.4031  0.6716
  501MOL0     C66029   6.741  -0.078   6.351 -0.7149 -0.0523 -0.4118
  501MOL0     O66030   6.661  -0.023   6.250 -0.4584  0.6228 -0.6867
  501MOL0     C66031   6.524  -0.015   6.279  0.4747 -0.8300  0.4512
  501MOL0     C66032   6.438  -0.119   6.322 -0.0893 -0.0652  0.5408
  501MOL0     C66033   6.307  -0.084   6.363  0.0595  0.2940 -0.8326
  501MOL0     C66034   6.261   0.045   6.362 -0.2791 -0.4774 -1.4132
  501MOL0     O66035   6.129   0.065   6.406 -0.2735 -0.2864 -0.1799
  501MOL0     C66036   6.063   0.194   6.397  0.2753 -0.3607  0.7806
  501MOL0     C66037   5.947   0.208   6.496  0.6299  0.4188  0.1737
  501MOL0     C66038   5.892   0.351   6.502 -0.3565  0.0938  0.4989
  501MOL0     C66039   5.768   0.364   6.596  0.1042 -0.0670 -0.0548
  501MOL0     C66040   5.695   0.490   6.575  1.3732  0.3865 -0.0665
  501MOL0     C66041   5.574   0.508   6.675 -0.0566 -0.5212 -0.0050
  501MOL0     C66042   5.437   0.487   6.616 -0.2779 -0.0342 -0.6717
  501MOL0     C66043   5.323   0.509   6.707  0.3809 -0.2494 -0.1963
  501MOL0    Cl66044   5.328   0.422   6.865 -0.2220 -0.4746  0.2425
  501MOL0     C66045   6.348   0.158   6.322  0.7661  1.5680 -0.4035
  501MOL0     C66046   6.476   0.123   6.283 -0.1686  0.1603 -0.0643
  501MOL0     O66047   6.701  -0.077   6.472  0.3344  0.1866  0.2192
  501MOL0     C66048   6.972  -0.156   6.415 -0.6069  0.6663 -0.6140
  501MOL0     C66049   7.105  -0.184   6.377 -0.0344 -0.7695  0.1949
  501MOL0     N66050   7.547  -0.376   6.741  0.4235 -0.5631 -0.1061
  501MOL0     N66051   7.466  -0.344   6.837  0.0933  0.3753  0.6456
  501MOL0     C66052   6.331   0.394   7.132  0.6501  0.1968  0.0152
  501MOL0     C66053   6.266   0.515   7.114  0.5887  1.3312  0.0304
  501MOL0     C66054   6.136   0.918   7.095 -0.2212 -0.1945  0.0562
  501MOL0     C66055   6.100   0.985   7.216 -0.4209 -0.3510 -0.5644
  501MOL0     C66056   5.985   1.068   7.211  0.9445  0.5987  0.0753
  501MOL0     C66057   5.917   1.093   7.089 -0.5065  0.6644  0.0430
  501MOL0     O66058   5.806   1.174   7.094 -0.0303  0.4236 -0.2173
  501MOL0     C66059   5.754   1.233   7.215 -0.0040 -0.3772 -0.0385
  501MOL0     C66060   5.818   1.366   7.259  1.0966 -0.3602 -1.3726
  501MOL0     C66061   5.745   1.430   7.398  0.3855 -0.3515  0.0696
  501MOL0     C66062   5.794   1.575   7.403  0.2854 -0.5541 -0.3713
  501MOL0     C66063   5.927   1.576   7.468 -0.0915  0.3997 -1.0972
  501MOL0     C66064   6.026   1.569   7.538 -0.3268  1.3320 -0.7975
  501MOL0     C66065   5.954   1.026   6.976  0.6867 -0.1317 -0.1911
  501MOL0     C66066   6.064   0.945   6.976 -0.6171  0.2599  1.5645
  501MOL0     H66067   6.483   0.669   6.900 -2.2035  1.1795  0.8155
  501MOL0     H66068   6.598   0.465   6.941 -0.0805 -1.5747  1.6797
  501MOL0     H66069   6.684   0.249   6.965 -0.9381  1.1347 -0.8876
  501MOL0     H66070   6.533   0.185   6.890 -0.2435 -4.5725  0.6513
  501MOL0     H66071   6.552  -0.017   7.018  1.2340 -1.1213 -0.0840
  501MOL0     H66072   6.703   0.037   7.098  2.2621  0.5823 -0.7896
  501MOL0     H66073   6.779   0.069   6.827 -1.3671 -0.5910 -1.3036
  501MOL0     H66074   6.645  -0.033   6.790 -0.0731 -2.7977  0.6936
  501MOL0     H66075   6.826  -0.112   7.014 -2.7660  1.1580 -0.2463
  501MOL0     H66076   6.738  -0.218   6.896  0.7608 -0.7571 -0.6062
  501MOL0     H66077   6.923  -0.124   6.727  0.1154  0.7257 -0.0781
  501MOL0     H66078   6.961  -0.260   6.836  0.6843 -0.2589 -0.6146
  501MOL0     H66079   7.064  -0.098   6.998 -1.4150  0.9175  1.0141
  501MOL0     H66080   7.029   0.035   6.884 -1.2699 -0.4830 -0.3394
  501MOL0     H66081   7.190  -0.096   6.713  1.1671 -4.5328  0.1481
  501MOL0     H66082   7.271  -0.012   6.837 -1.5826 -0.9334  3.1633
  501MOL0     H66083   7.185  -0.300   6.854 -2.0422  0.2678  2.7493
  501MOL0     H66084   7.293  -0.211   6.976 -1.7182 -2.5644  1.3107
  501MOL0     H66085   7.358  -0.159   6.591 -0.1331 -3.4138 -3.0070
  501MOL0     H66086   7.677  -0.346   6.521  1.0216  3.3024  0.2812
  501MOL0     H66087   7.600  -0.220   6.452 -1.1927  0.3929  0.3624
  501MOL0     H66088   7.477  -0.506   6.465 -2.1976 -1.7858 -2.5010
  501MOL0     H66089   7.582  -0.470   6.339 -0.6777  0.5591 -0.7065
  501MOL0     H66090   7.410  -0.419   6.231  0.8060  1.7661 -0.5562
  501MOL0     H66091   7.300  -0.409   6.372  0.0610  1.0638  1.7602
  501MOL0     H66092   7.472  -0.195   6.235 -1.0485 -2.3182 -2.7922
  501MOL0     H66093   7.383  -0.158   6.385 -2.6904 -0.0980 -0.6661
  501MOL0     H66094   7.091  -0.141   6.052  3.2616 -1.5108  0.8726
  501MOL0     H66095   6.853  -0.084   6.116  1.0364  1.8636 -1.0360
  501MOL0     H66096   6.458  -0.226   6.326 -1.6250 -0.4690 -1.3591
  501MOL0     H66097   6.246  -0.166   6.400 -1.4906  1.2929 -1.0988
  501MOL0     H66098   6.016   0.206   6.299 -0.8237  3.0166  1.5785
  501MOL0     H66099   6.127   0.278   6.425 -0.4636 -0.0055  1.4258
  501MOL0     H66100   5.989   0.168   6.589 -0.9621  0.3579  0.9097
  501MOL0     H66101   5.858   0.151   6.468  0.5577  1.1992 -1.2962
  501MOL0     H66102   5.864   0.381   6.401 -0.5750 -0.8307  0.2728
  501MOL0     H66103   5.969   0.425   6.525  1.0763 -1.1835 -0.0536
  501MOL0     H66104   5.686   0.291   6.584 -0.5245  0.6184  0.0234
  501MOL0     H66105   5.818   0.352   6.692  2.0745 -2.9161 -1.2844
  501MOL0     H66106   5.669   0.508   6.471 -1.3042 -0.2157  0.4470
  501MOL0     H66107   5.770   0.568   6.595  1.1765  0.6676 -0.4088
  501MOL0     H66108   5.577   0.614   6.701  0.7310 -0.0220 -1.9157
  501MOL0     H66109   5.584   0.451   6.767  1.4035 -2.0735 -1.0719
  501MOL0     H66110   5.423   0.544   6.524 -0.4432  0.6270 -0.2416
  501MOL0     H66111   5.432   0.383   6.582 -1.7701 -0.2121  0.0312
  501MOL0     H66112   5.228   0.492   6.655  0.4936  3.5333 -1.9723
  501MOL0     H66113   5.306   0.616   6.722 -1.9373 -0.5041 -0.5266
  501MOL0     H66114   6.312   0.260   6.321  0.2370  1.4234  1.2866
  501MOL0     H66115   6.548   0.190   6.239  1.1952 -1.0236  0.2595
  501MOL0     H66116   6.941  -0.162   6.519  0.1762 -2.1566 -0.4583
  501MOL0     H66117   7.162  -0.240   6.450 -0.9895 -2.2477 -0.1624
  501MOL0     H66118   6.276   0.332   7.202 -1.5343  1.0081 -0.8957
  501MOL0     H66119   6.173   0.532   7.167 -0.7321 -0.5211 -1.5358
  501MOL0     H66120   6.147   0.964   7.312  2.0788 -0.1224 -1.6663
  501MOL0     H66121   5.944   1.114   7.300 -1.2564  1.1156 -1.1296
  501MOL0     H66122   5.764   1.156   7.293  3.6905  0.9643  1.0316
  501MOL0     H66123   5.646   1.245   7.204 -0.1168  0.3200  1.5437
  501MOL0     H66124   5.925   1.347   7.270  1.5306  1.0289 -2.7843
  501MOL0     H66125   5.798   1.436   7.178  1.6721  0.4573 -0.8221
  501MOL0     H66126   5.794   1.371   7.476  3.6985  0.9297 -0.8465
  501MOL0     H66127   5.637   1.419   7.393  0.3882 -0.4104  0.1386
  501MOL0     H66128   5.787   1.625   7.306 -3.4450  0.4035  0.2507
  501MOL0     H66129   5.725   1.625   7.471 -0.4701 -1.6250 -0.3287
  501MOL0     H66130   6.107   1.545   7.604 -3.6384 -0.2376  3.2085
  501MOL0     H66131   5.885   1.041   6.893  0.4296 -2.2684 -0.4208
  501MOL0     H66132   6.076   0.881   6.889 -0.1193  0.5227  1.4299
  502MOL0     O66133   6.891   2.699   7.990 -0.4946 -0.1096  0.4511
  502MOL0     C66134   6.812   2.701   8.081  0.0661 -0.3857  0.0071
  502MOL0     O66135   6.820   2.780   8.194 -0.6190  0.4075  0.0593
  502MOL0     C66136   6.913   2.888   8.198 -0.7736 -0.2425  0.7748
  502MOL0     C66137   6.945   2.973   8.090  0.3595 -0.1226  0.8262
  502MOL0     C66138   7.060   3.071   8.104  0.3214  0.1586  1.7291
  502MOL0     C66139   7.115   3.097   8.225 -0.0915 -0.3488 -0.6730
  502MOL0     O66140   7.203   3.201   8.253  0.3133  0.2575  0.2574
  502MOL0     C66141   7.207   3.320   8.170 -0.2998 -0.8307  0.4577
  502MOL0     C66142   7.276   3.443   8.246  0.1444 -0.2693 -0.0461
  502MOL0     C66143   7.280   3.563   8.158  0.6364 -0.2326  0.3975
  502MOL0     C66144   7.157   3.628   8.097  0.8251  0.8218 -0.8593
  502MOL0     C66145   7.176   3.770   8.032 -0.0395  0.6417  0.2381
  502MOL0     C66146   7.298   3.756   7.939  0.4779 -0.2451  0.6624
  502MOL0     C66147   7.298   3.852   7.820  1.0447 -0.5172  0.6735
  502MOL0     C66148   7.343   3.997   7.862  0.6145 -0.4260 -0.3061
  502MOL0     N66149   7.334   4.084   7.752 -0.7589  0.1212 -0.1073
  502MOL0     C66150   7.429   4.082   7.655 -0.0164 -0.6947  0.3814
  502MOL0     C66151   7.404   4.190   7.584 -0.1360  0.3381  0.2831
  502MOL0     C66152   7.500   4.243   7.487  0.9602 -0.5654 -0.0217
  502MOL0     C66153   7.617   4.316   7.561  1.5056  0.3724  0.3155
  502MOL0     C66154   7.667   4.420   7.457 -0.4339  1.0463 -0.0385
  502MOL0     C66155   7.583   4.541   7.436 -0.0798 -0.0354  1.0245
  502MOL0     O66156   7.575   4.635   7.547 -0.2852 -0.3015 -0.5987
  502MOL0     C66157   7.674   4.723   7.561  0.0663  0.0639 -1.3160
  502MOL0     C66158   7.779   4.735   7.475 -0.4178 -0.0920 -0.3975
  502MOL0     C66159   7.871   4.836   7.512 -0.1398 -0.2771  1.5382
  502MOL0     C66160   7.874   4.927   7.617 -0.7960 -0.4326  1.5095
  502MOL0     C66161   7.980   5.031   7.626 -0.4308 -0.0226 -0.4424
  502MOL0     O66162   7.996   5.093   7.744  0.8682  0.7654 -1.0177
  502MOL0     C66163   8.098   5.180   7.759 -0.7534  0.0581  1.4991
  502MOL0     C66164   8.183   5.177   7.865 -0.4079 -0.3890 -0.8375
  502MOL0     C66165   8.282   5.274   7.891 -0.0731 -0.3724 -0.4322
  502MOL0     C66166   8.297   5.380   7.802 -0.6676 -0.4253 -0.4373
  502MOL0     O66167   8.389   5.482   7.822  0.1466 -0.5047  0.0704
  502MOL0     C66168   8.466   5.485   7.945 -0.5378 -0.6123 -0.1833
  502MOL0     C66169   8.554   5.608   7.961  0.7420  0.1794  0.1721
  502MOL0     C66170   8.641   5.587   8.087 -1.0876  1.0499 -0.0541
  502MOL0     C66171   8.565   5.574   8.217 -1.0350  0.1364 -0.2952
  502MOL0     C66172   8.676   5.566   8.316  0.4271  0.5947  0.5447
  502MOL0     C66173   8.629   5.575   8.460  0.0143  0.1239  1.5109
  502MOL0     C66174   8.711   5.477   8.552  0.6022 -0.5843 -0.0514
  502MOL0     C66175   8.845   5.508   8.575  0.7739  0.6635  0.2922
  502MOL0    Cl66176   8.855   5.660   8.666  0.3608 -0.5742  0.7049
  502MOL0     C66177   8.215   5.384   7.691 -0.0873 -1.3075  0.5303
  502MOL0     C66178   8.114   5.291   7.674  0.4830 -1.0346 -0.2378
  502MOL0     O66179   8.041   5.052   7.518  0.1981  0.1856  0.0817
  502MOL0     C66180   7.767   4.913   7.706  0.4736  0.4791  0.0772
  502MOL0     C66181   7.679   4.801   7.680  1.3978  0.4000 -0.8254
  502MOL0     N66182   7.285   4.250   7.626 -0.0740 -0.2811 -0.0629
  502MOL0     N66183   7.245   4.179   7.723  0.9068  0.6798 -0.7445
  502MOL0     C66184   7.080   3.004   8.324 -0.6458  0.8946 -0.2369
  502MOL0     C66185   6.986   2.902   8.314 -0.5075  0.7817  0.1348
  502MOL0     C66186   6.699   2.605   8.076  1.0776 -0.4335  0.3201
  502MOL0     C66187   6.701   2.487   8.003  0.5168  0.2943  0.5127
  502MOL0     C66188   6.585   2.403   8.002 -0.3001  0.6388 -0.4718
  502MOL0     C66189   6.475   2.425   8.083  0.2918 -0.4533  0.7002
  502MOL0     O66190   6.367   2.342   8.067 -0.7325  0.0629 -0.7791
  502MOL0     C66191   6.298   2.295   8.180 -0.4454 -0.1907 -0.5378
  502MOL0     C66192   6.374   2.200   8.264 -1.0254 -0.9279 -0.0933
  502MOL0     C66193   6.371   2.064   8.198 -1.4402  0.0755 -0.2421
  502MOL0     C66194   6.246   1.975   8.187  0.8308  0.2310  0.2246
  502MOL0     C66195   6.201   1.923   8.322 -0.3512  1.0372 -0.0093
  502MOL0     C66196   6.176   1.878   8.431  0.1473 -0.0944  0.3720
  502MOL0     C66197   6.482   2.534   8.172  0.3641 -0.5049 -0.1171
  502MOL0     C66198   6.585   2.621   8.161  0.1909 -0.0242  0.6587
  502MOL0     H66199   6.905   2.954   7.991 -1.1739 -0.4348  1.4799
  502MOL0     H66200   7.082   3.129   8.015 -1.3589 -2.6583 -0.7127
  502MOL0     H66201   7.107   3.331   8.130 -0.2417 -1.9488 -0.0351
  502MOL0     H66202   7.262   3.307   8.077 -0.2438 -0.9186  0.5022
  502MOL0     H66203   7.379   3.421   8.274  0.6342  0.7015 -0.9902
  502MOL0     H66204   7.222   3.470   8.338 -2.3491 -0.0892 -1.4700
  502MOL0     H66205   7.346   3.529   8.077  2.1732  1.2577  0.9469
  502MOL0     H66206   7.329   3.651   8.200 -2.0806  0.6501  1.9620
  502MOL0     H66207   7.111   3.570   8.017 -0.9238  3.2070 -1.6903
  502MOL0     H66208   7.072   3.624   8.166 -1.4949 -1.2051 -3.5697
  502MOL0     H66209   7.186   3.851   8.105 -0.7773  2.2273 -1.3435
  502MOL0     H66210   7.097   3.799   7.963 -1.0655 -3.9183 -0.8152
  502MOL0     H66211   7.309   3.658   7.893  1.2336  0.3151 -0.3955
  502MOL0     H66212   7.376   3.775   8.013  2.1954 -1.3434 -0.7834
  502MOL0     H66213   7.371   3.821   7.745 -0.5265 -1.2840 -0.6098
  502MOL0     H66214   7.198   3.852   7.774  1.1659  3.2412  0.1045
  502MOL0     H66215   7.446   3.988   7.896  0.3443 -0.3716  0.5607
  502MOL0     H66216   7.286   4.036   7.947  0.0609  0.8093 -1.1991
  502MOL0     H66217   7.510   4.016   7.625 -0.2211 -0.4890 -0.6395
  502MOL0     H66218   7.439   4.306   7.421 -0.5575 -3.9198 -2.1110
  502MOL0     H66219   7.549   4.167   7.425  1.0129  0.0208 -0.7155
  502MOL0     H66220   7.696   4.241   7.570 -0.1415 -1.4066  0.2926
  502MOL0     H66221   7.601   4.349   7.664 -0.6305 -1.4113  0.6149
  502MOL0     H66222   7.769   4.440   7.491 -0.3254  0.2178  0.1545
  502MOL0     H66223   7.693   4.375   7.361 -2.4069  2.4557 -1.3046
  502MOL0     H66224   7.480   4.517   7.411  0.0553 -0.6163  1.0097
  502MOL0     H66225   7.618   4.585   7.342 -0.9546 -0.0040  0.7086
  502MOL0     H66226   7.800   4.675   7.388 -2.4991  0.2448 -1.1915
  502MOL0     H66227   7.941   4.850   7.430  0.1733  0.9007  1.9726
  502MOL0     H66228   8.175   5.088   7.927 -0.0013 -0.7440 -1.2846
  502MOL0     H66229   8.340   5.258   7.981  2.4002  4.5751 -0.8167
  502MOL0     H66230   8.528   5.395   7.951 -0.5953 -0.5804  1.1058
  502MOL0     H66231   8.394   5.498   8.026 -2.6517 -3.7333 -1.3513
  502MOL0     H66232   8.492   5.697   7.971  2.0891  1.5438 -2.4958
  502MOL0     H66233   8.611   5.629   7.870 -0.6526  2.4157 -0.2584
  502MOL0     H66234   8.705   5.675   8.091  0.2135  0.0913  0.9021
  502MOL0     H66235   8.699   5.498   8.060 -0.3640  1.5814 -0.2617
  502MOL0     H66236   8.497   5.657   8.242 -2.8783 -1.9551  2.2621
  502MOL0     H66237   8.506   5.482   8.217  2.5196 -2.3482  0.9297
  502MOL0     H66238   8.753   5.644   8.305  1.2562 -0.4619 -2.1818
  502MOL0     H66239   8.735   5.475   8.306  2.6505  2.0270 -0.2245
  502MOL0     H66240   8.524   5.543   8.454 -0.4731  1.9164 -0.2768
  502MOL0     H66241   8.636   5.681   8.488 -2.8390  0.8934 -0.2053
  502MOL0     H66242   8.672   5.477   8.654 -1.6856 -3.6681 -0.7788
  502MOL0     H66243   8.694   5.377   8.512  0.1808 -1.3716  1.9960
  502MOL0     H66244   8.910   5.511   8.487  0.2629 -0.7561 -0.1626
  502MOL0     H66245   8.888   5.429   8.638  2.1845  1.6601  0.6292
  502MOL0     H66246   8.230   5.462   7.617 -0.4043 -1.1870  0.5922
  502MOL0     H66247   8.059   5.294   7.580  0.4448 -0.6663 -0.2055
  502MOL0     H66248   7.748   4.968   7.797  0.1115 -1.6501  1.3513
  502MOL0     H66249   7.600   4.788   7.754  0.5127  1.0859 -1.6204
  502MOL0     H66250   7.122   3.003   8.424 -1.6284 -4.3691  0.4351
  502MOL0     H66251   6.997   2.834   8.398  0.2785  2.7091  1.6839
  502MOL0     H66252   6.772   2.475   7.922  0.4904 -1.2018  0.6963
  502MOL0     H66253   6.581   2.319   7.934 -2.7422 -0.7551  1.2198
  502MOL0     H66254   6.208   2.246   8.143  0.3336 -1.1054 -1.2560
  502MOL0     H66255   6.274   2.377   8.249 -0.8799  0.0484 -0.9691
  502MOL0     H66256   6.475   2.239   8.280 -2.4355  2.6112  1.1400
  502MOL0     H66257   6.320   2.181   8.358 -1.8547  0.4776 -0.2539
  502MOL0     H66258   6.445   2.002   8.248 -1.6913  1.5525  2.1154
  502MOL0     H66259   6.402   2.075   8.093  0.3168 -0.3373  0.2023
  502MOL0     H66260   6.153   2.013   8.142 -0.4856 -0.9817  1.7868
  502MOL0     H66261   6.268   1.890   8.122 -0.2106  0.9390 -1.0912
  502MOL0     H66262   6.151   1.844   8.530  1.4014 -1.2123  0.3276
  502MOL0     H66263   6.392   2.561   8.228 -0.4149 -1.6869 -0.7519
  502MOL0     H66264   6.590   2.705   8.230  2.5118 -0.5055  1.1665
  503MOL0     O66265   5.740   9.095   1.877  0.0627  0.1120 -0.6427
  503MOL0     C66266   5.648   9.015   1.847 -1.1801  0.6406 -0.2836
  503MOL0     O66267   5.532   8.992   1.913 -0.3338 -0.3714  0.3079
  503MOL0     C66268   5.496   9.066   2.020 -0.0634  1.0692  0.0449
  503MOL0     C66269   5.494   9.203   2.024 -0.0460 -0.3633  0.3555
  503MOL0     C66270   5.461   9.270   2.144 -0.3559 -0.6138  0.5653
  503MOL0     C66271   5.436   9.194   2.258  0.1658 -0.0260 -0.1679
  503MOL0     O66272   5.404   9.237   2.380  0.0491  0.1408 -0.3636
  503MOL0     C66273   5.375   9.380   2.401  0.2068 -0.6518  0.3701
  503MOL0     C66274   5.300   9.406   2.534 -0.3501 -0.9386 -0.0994
  503MOL0     C66275   5.389   9.358   2.650 -0.3322  0.5312  0.2320
  503MOL0     C66276   5.295   9.328   2.772  0.7759  0.1952  0.1461
  503MOL0     C66277   5.387   9.296   2.889 -0.2289 -0.8822 -0.6692
  503MOL0     C66278   5.315   9.316   3.018 -0.2546 -0.1469 -0.5059
  503MOL0     C66279   5.344   9.211   3.121 -0.7509  0.8720 -0.2410
  503MOL0     C66280   5.319   9.217   3.271 -0.2622  0.2825 -0.2639
  503MOL0     N66281   5.179   9.232   3.298 -0.3425  0.2503  0.8131
  503MOL0     C66282   5.116   9.348   3.343  0.1039 -0.0420  0.0167
  503MOL0     C66283   4.986   9.306   3.362  0.1953  0.3237  0.4624
  503MOL0     C66284   4.874   9.404   3.378  0.5388  0.9066  0.5785
  503MOL0     C66285   4.874   9.485   3.502  1.0049 -0.9626  0.4338
  503MOL0     C66286   4.835   9.418   3.627 -0.5605  0.2480 -0.5386
  503MOL0     C66287   4.898   9.499   3.744  0.6007 -0.2889 -0.0846
  503MOL0     O66288   5.018   9.426   3.773 -0.4475 -0.5108  0.2433
  503MOL0     C66289   5.128   9.461   3.720  0.0416 -0.2316 -0.4866
  503MOL0     C66290   5.168   9.591   3.722 -0.3708 -0.3412 -0.1728
  503MOL0     C66291   5.287   9.626   3.659 -0.0212 -0.0612 -0.5002
  503MOL0     C66292   5.360   9.520   3.599 -0.7531  0.4626 -0.6789
  503MOL0     C66293   5.506   9.548   3.539  0.3176  0.0798 -0.6786
  503MOL0     O66294   5.574   9.667   3.587  0.4557  0.1001 -0.6933
  503MOL0     C66295   5.672   9.710   3.519 -0.9977  0.5265 -0.2876
  503MOL0     C66296   5.671   9.819   3.435 -0.3949 -0.0097  0.9347
  503MOL0     C66297   5.785   9.858   3.362  0.2192  0.3863  0.0618
  503MOL0     C66298   5.905   9.794   3.385 -0.3360 -0.4373 -0.0847
  503MOL0     O66299   6.010   9.822   3.306  0.2592 -0.4112 -1.1061
  503MOL0     C66300   5.985   9.796   3.175  0.8932 -0.3921 -0.2000
  503MOL0     C66301   6.122   9.806   3.091 -0.3765  0.0664 -0.8946
  503MOL0     C66302   6.242   9.722   3.138 -0.0492  0.0963 -0.5278
  503MOL0     C66303   6.346   9.710   3.035  0.1082 -0.4994 -0.0160
  503MOL0     C66304   6.485   9.663   3.097  0.7414  0.3068 -0.6179
  503MOL0     C66305   6.611   9.664   3.012 -0.1926  0.3846 -0.5716
  503MOL0     C66306   6.623   9.791   2.928  0.5093  0.3793  0.4921
  503MOL0     C66307   6.758   9.802   2.873  0.0667 -0.7720 -0.0363
  503MOL0    Cl66308   6.790   9.954   2.759  0.1167  0.1173  0.0148
  503MOL0     C66309   5.915   9.689   3.478  0.1779  0.3988  0.0606
  503MOL0     C66310   5.801   9.650   3.542  0.6128 -1.3410 -0.2684
  503MOL0     O66311   5.543   9.472   3.454 -0.1134 -0.3368 -0.2293
  503MOL0     C66312   5.325   9.388   3.612 -0.0201 -0.7920  0.4007
  503MOL0     C66313   5.206   9.356   3.678  0.1943 -0.3015 -0.4589
  503MOL0     N66314   4.977   9.175   3.319  0.2962 -0.3983 -0.7381
  503MOL0     N66315   5.091   9.128   3.290 -0.2447  0.4595  0.5524
  503MOL0     C66316   5.450   9.050   2.254 -0.0992 -0.3368  0.0691
  503MOL0     C66317   5.474   8.992   2.132 -0.1133  0.3203  0.2544
  503MOL0     C66318   5.660   8.946   1.721  0.1698  0.2367 -0.1637
  503MOL0     C66319   5.763   8.970   1.628 -1.5382  1.0356 -0.3728
  503MOL0     C66320   5.774   8.912   1.500  0.5277 -0.6681  0.0852
  503MOL0     C66321   5.667   8.834   1.461 -0.2358 -0.0002  0.2436
  503MOL0     O66322   5.654   8.776   1.333  0.2286  0.8449 -0.2474
  503MOL0     C66323   5.706   8.850   1.220  0.7864 -0.2582  0.3791
  503MOL0     C66324   5.644   8.841   1.079 -0.4584 -0.0518  0.1735
  503MOL0     C66325   5.641   8.697   1.037 -0.7920 -0.0956  0.5201
  503MOL0     C66326   5.596   8.682   0.894 -0.4601  1.0800 -0.1733
  503MOL0     C66327   5.606   8.544   0.856 -1.1254  0.9483 -0.1455
  503MOL0     C66328   5.614   8.428   0.845  0.3244  0.7828 -0.2896
  503MOL0     C66329   5.562   8.801   1.543  0.7111  0.0534 -0.5190
  503MOL0     C66330   5.554   8.870   1.671  0.3818  0.2955  0.3534
  503MOL0     H66331   5.537   9.260   1.942 -4.3633  2.5427 -0.2226
  503MOL0     H66332   5.446   9.377   2.147  0.2318 -0.3651 -2.2365
  503MOL0     H66333   5.310   9.425   2.326  0.0595 -2.3821 -0.6013
  503MOL0     H66334   5.466   9.439   2.389  1.1627 -2.4198 -1.7651
  503MOL0     H66335   5.208   9.347   2.528 -2.1371  1.7082 -0.8098
  503MOL0     H66336   5.278   9.513   2.538  3.3866 -0.0575  0.3752
  503MOL0     H66337   5.464   9.436   2.668  2.1117 -1.1342 -2.0145
  503MOL0     H66338   5.440   9.262   2.638 -2.1060 -0.6855  1.8990
  503MOL0     H66339   5.243   9.419   2.805 -0.8809 -1.1421  1.4130
  503MOL0     H66340   5.210   9.262   2.754  0.8543 -0.8451  2.9963
  503MOL0     H66341   5.481   9.352   2.890 -0.3172 -0.7136  1.5437
  503MOL0     H66342   5.411   9.191   2.872 -0.7553 -0.9377 -1.1252
  503MOL0     H66343   5.207   9.335   3.013 -0.1066  0.9822  0.2689
  503MOL0     H66344   5.345   9.409   3.067 -3.5428  0.3007  0.9243
  503MOL0     H66345   5.295   9.124   3.076  1.6422 -0.4743 -0.4104
  503MOL0     H66346   5.448   9.178   3.105 -1.2626 -0.3933 -1.1128
  503MOL0     H66347   5.369   9.304   3.316  0.1938 -0.4620  0.6985
  503MOL0     H66348   5.374   9.137   3.321  0.8808 -0.5454 -2.6675
  503MOL0     H66349   5.163   9.445   3.356  1.4140 -0.3415 -1.9504
  503MOL0     H66350   4.777   9.353   3.370 -0.1120  2.3523 -2.0856
  503MOL0     H66351   4.874   9.465   3.287 -0.1665 -2.5843 -1.9709
  503MOL0     H66352   4.805   9.567   3.480 -0.0157 -1.6204  1.1126
  503MOL0     H66353   4.975   9.521   3.521 -0.8232  2.4769  6.4388
  503MOL0     H66354   4.728   9.409   3.647 -0.1405  1.2452  2.8554
  503MOL0     H66355   4.873   9.315   3.626  0.4550  0.5651 -3.0222
  503MOL0     H66356   4.829   9.501   3.828  2.9249  1.3782  1.9312
  503MOL0     H66357   4.907   9.599   3.700 -2.5646 -0.7584 -2.1390
  503MOL0     H66358   5.105   9.661   3.776 -2.4511 -1.2955 -1.2532
  503MOL0     H66359   5.340   9.720   3.649  2.8925 -1.5814 -0.3334
  503MOL0     H66360   5.572   9.863   3.420  0.9782  2.8623 -0.5062
  503MOL0     H66361   5.780   9.936   3.287  2.8198  0.3032 -0.2592
  503MOL0     H66362   5.913   9.862   3.126  0.5521 -1.0580 -0.6126
  503MOL0     H66363   5.946   9.694   3.164 -0.0778  0.2890 -5.7141
  503MOL0     H66364   6.150   9.911   3.087  0.7600 -0.2540 -1.5763
  503MOL0     H66365   6.094   9.773   2.991  0.6477  1.6751 -1.7437
  503MOL0     H66366   6.208   9.626   3.177 -2.2717  1.9889  2.7049
  503MOL0     H66367   6.280   9.772   3.227 -2.4598  1.2404 -0.0769
  503MOL0     H66368   6.303   9.648   2.956  2.3195 -0.7923 -1.0856
  503MOL0     H66369   6.366   9.809   2.995  0.3505 -0.6788 -0.3454
  503MOL0     H66370   6.474   9.561   3.137 -1.9751  0.3281 -1.0945
  503MOL0     H66371   6.513   9.729   3.180 -1.4821  2.4584 -1.4473
  503MOL0     H66372   6.609   9.569   2.957  5.9720 -1.0180  0.8734
  503MOL0     H66373   6.697   9.650   3.079 -2.2242 -2.6731  1.6480
  503MOL0     H66374   6.551   9.784   2.846 -0.6215 -1.9601  1.5850
  503MOL0     H66375   6.599   9.887   2.974 -1.5986 -0.2700  0.8542
  503MOL0     H66376   6.759   9.708   2.816  1.9079 -3.2641  3.6509
  503MOL0     H66377   6.829   9.799   2.956 -1.0635 -2.1759  0.9180
  503MOL0     H66378   6.002   9.626   3.497 -1.0752 -1.3073  0.3308
  503MOL0     H66379   5.811   9.567   3.612  3.6574 -1.1866 -0.3812
  503MOL0     H66380   5.395   9.308   3.588  0.4945 -0.9394  2.2631
  503MOL0     H66381   5.172   9.253   3.676 -0.3863 -0.1268  0.4091
  503MOL0     H66382   5.442   8.990   2.344  2.1343  1.0843  1.3113
  503MOL0     H66383   5.478   8.884   2.132  0.3375  0.3327 -0.3306
  503MOL0     H66384   5.853   9.022   1.659  0.5789 -1.0841 -2.5123
  503MOL0     H66385   5.855   8.924   1.430  0.2278 -0.2335 -0.1915
  503MOL0     H66386   5.803   8.805   1.197  0.2950  0.4021 -3.5801
  503MOL0     H66387   5.701   8.957   1.241 -0.1182  0.5669 -3.4003
  503MOL0     H66388   5.538   8.860   1.098 -1.3603 -2.0300 -2.3037
  503MOL0     H66389   5.686   8.914   1.010  1.8490 -2.2512 -0.9307
  503MOL0     H66390   5.569   8.643   1.099 -1.1555 -1.5104 -1.0486
  503MOL0     H66391   5.745   8.662   1.046 -0.6108 -0.4227 -1.9324
  503MOL0     H66392   5.489   8.703   0.883 -1.5276 -2.4447  1.8984
  503MOL0     H66393   5.653   8.738   0.819 -1.8594 -0.1578 -2.2434
  503MOL0     H66394   5.614   8.323   0.823 -1.3283  0.7249 -0.1159
  503MOL0     H66395   5.474   8.745   1.515 -0.6693  1.5133  0.6867
  503MOL0     H66396   5.469   8.853   1.736 -0.5715  1.6424 -0.4730
  504MOL0     O66397   0.774   6.487   2.917 -0.2106  0.8616 -0.7164
  504MOL0     C66398   0.735   6.562   2.831 -0.0696  1.6172  1.1511
  504MOL0     O66399   0.737   6.694   2.839 -1.4059  0.4003 -0.3874
  504MOL0     C66400   0.756   6.758   2.962  0.3225 -0.9944 -0.3047
  504MOL0     C66401   0.667   6.852   2.992  0.3892  0.1036 -0.5847
  504MOL0     C66402   0.670   6.927   3.097  0.7457  0.7012 -0.3451
  504MOL0     C66403   0.786   6.920   3.181  0.0057 -0.4028 -0.8562
  504MOL0     O66404   0.796   6.999   3.291 -0.0035  0.6781  0.0220
  504MOL0     C66405   0.745   6.935   3.417  0.6852  0.3182  0.2292
  504MOL0     C66406   0.587   6.938   3.418 -0.0046  0.9535 -0.4226
  504MOL0     C66407   0.524   6.862   3.536 -0.2505 -0.5635  0.8923
  504MOL0     C66408   0.376   6.861   3.564 -0.0461 -0.1790 -1.2193
  504MOL0     C66409   0.291   6.838   3.441 -1.2367 -0.1322  0.2846
  504MOL0     C66410   0.241   6.980   3.391  0.1859  0.0849 -0.2069
  504MOL0     C66411   0.138   6.981   3.279 -0.3235 -0.3024  0.1545
  504MOL0     C66412  -0.010   6.968   3.320  0.3055  0.2795 -0.4698
  504MOL0     N66413  -0.062   6.836   3.332 -0.3263  1.0833  0.2201
  504MOL0     C66414  -0.108   6.769   3.443 -0.6535 -0.5060  0.1304
  504MOL0     C66415  -0.140   6.646   3.403  0.5174 -0.6068  0.3613
  504MOL0     C66416  -0.188   6.553   3.500  0.1129  0.0501 -0.1500
  504MOL0     C66417  -0.070   6.459   3.537  0.3869  0.3433  0.8263
  504MOL0     C66418  -0.108   6.382   3.662  0.1526 -0.8537  0.7472
  504MOL0     C66419  -0.051   6.239   3.670 -0.0409  0.0663 -0.3025
  504MOL0     O66420  -0.081   6.191   3.805  0.5885  0.0825 -0.1928
  504MOL0     C66421  -0.207   6.148   3.830  0.3591  1.0316  0.4227
  504MOL0     C66422  -0.312   6.141   3.740 -0.4093  0.2735  1.0361
  504MOL0     C66423  -0.430   6.093   3.783  0.1281 -0.1863  0.1416
  504MOL0     C66424  -0.450   6.034   3.907 -0.4216  0.9110 -0.2483
  504MOL0     C66425  -0.585   5.974   3.948  0.3538  0.7183 -0.3288
  504MOL0     O66426  -0.694   5.990   3.864  0.2349  0.4818 -0.4249
  504MOL0     C66427  -0.814   5.940   3.920  0.8147 -0.7101  0.2705
  504MOL0     C66428  -0.913   6.037   3.942  0.1495 -0.8962  0.5510
  504MOL0     C66429  -1.023   6.015   4.020 -0.1877  0.7332  0.2319
  504MOL0     C66430  -1.054   5.884   4.061  0.5323 -0.1963 -0.2510
  504MOL0     O66431  -1.161   5.854   4.146 -0.2189 -0.4127 -0.6569
  504MOL0     C66432  -1.151   5.733   4.229  0.1146 -0.4696 -0.4369
  504MOL0     C66433  -1.210   5.737   4.370 -0.3055  0.0499 -0.5105
  504MOL0     C66434  -1.360   5.755   4.373 -0.4087 -0.4009  0.5385
  504MOL0     C66435  -1.395   5.813   4.507 -0.7026  0.0926 -0.4422
  504MOL0     C66436  -1.411   5.715   4.627  0.5385  0.0216  0.4843
  504MOL0     C66437  -1.463   5.791   4.748  0.3388  0.3736 -0.1478
  504MOL0     C66438  -1.492   5.699   4.874 -0.6819  0.2789  0.3462
  504MOL0     C66439  -1.594   5.590   4.866  0.7431 -0.0394 -0.3385
  504MOL0    Cl66440  -1.600   5.475   5.006 -0.0227  0.3651  0.1891
  504MOL0     C66441  -0.955   5.788   4.024 -0.4813 -0.1702  0.5432
  504MOL0     C66442  -0.834   5.808   3.947 -0.5187  0.3832 -0.3708
  504MOL0     O66443  -0.599   5.937   4.064  0.2852  0.7311  0.3295
  504MOL0     C66444  -0.342   6.025   4.003  0.0726 -0.3976  0.4174
  504MOL0     C66445  -0.224   6.096   3.963 -0.1170  0.6772  0.7460
  504MOL0     N66446  -0.106   6.637   3.268  1.2133 -0.8909 -0.3596
  504MOL0     N66447  -0.065   6.753   3.220  0.3780  1.2176 -0.1485
  504MOL0     C66448   0.887   6.827   3.155 -0.2447  0.1407  0.3118
  504MOL0     C66449   0.875   6.743   3.044  0.8973 -0.1033  0.0016
  504MOL0     C66450   0.684   6.501   2.710  0.2478 -0.1588  0.5405
  504MOL0     C66451   0.671   6.568   2.584 -0.3958  0.1738 -0.3119
  504MOL0     C66452   0.598   6.519   2.472 -1.2479 -0.3016  0.6598
  504MOL0     C66453   0.556   6.389   2.474  0.2042 -1.0143 -0.0734
  504MOL0     O66454   0.500   6.331   2.363 -0.0897  0.2224  0.2571
  504MOL0     C66455   0.499   6.393   2.236  0.5698  0.3265  0.3031
  504MOL0     C66456   0.356   6.457   2.196  0.0263  0.5244  0.9021
  504MOL0     C66457   0.323   6.432   2.044 -0.3062  0.5739  0.0547
  504MOL0     C66458   0.177   6.459   2.009 -0.6084  0.5296  0.8961
  504MOL0     C66459   0.097   6.339   2.033 -0.3189  0.1094  0.2563
  504MOL0     C66460   0.045   6.238   2.067  1.1712  0.3284 -0.4171
  504MOL0     C66461   0.568   6.321   2.593  0.7551 -0.4382  0.3740
  504MOL0     C66462   0.616   6.382   2.714 -1.2890  0.3230  1.0298
  504MOL0     H66463   0.574   6.846   2.935  0.9368  2.9527 -1.9330
  504MOL0     H66464   0.585   6.985   3.132 -0.7955 -0.2924 -2.1958
  504MOL0     H66465   0.769   7.004   3.498 -1.4093  3.3729 -1.5049
  504MOL0     H66466   0.782   6.837   3.447  1.3027  1.6389  4.3708
  504MOL0     H66467   0.553   6.884   3.329 -3.4551  2.3553 -0.0965
  504MOL0     H66468   0.541   7.037   3.411 -2.4668 -0.0925  0.0431
  504MOL0     H66469   0.583   6.885   3.625  0.6933 -1.6817  0.5788
  504MOL0     H66470   0.566   6.764   3.512  0.1047 -0.3169  0.4908
  504MOL0     H66471   0.348   6.783   3.636  4.9247 -2.0011 -0.8840
  504MOL0     H66472   0.353   6.957   3.609  2.4307 -0.7491  1.5918
  504MOL0     H66473   0.196   6.794   3.474 -0.1147 -0.0798  3.9745
  504MOL0     H66474   0.349   6.783   3.367  2.3996  2.7663  0.6811
  504MOL0     H66475   0.320   7.044   3.352 -0.4397  0.7132 -0.4851
  504MOL0     H66476   0.194   7.043   3.467  2.6715  0.1112  1.3929
  504MOL0     H66477   0.160   7.080   3.237 -0.2857 -1.3436 -2.4974
  504MOL0     H66478   0.167   6.912   3.199  0.7993  1.3222 -0.8902
  504MOL0     H66479  -0.079   7.026   3.257 -0.1462  0.8811  0.5600
  504MOL0     H66480  -0.015   7.012   3.420  0.0303 -0.9693  0.0850
  504MOL0     H66481  -0.096   6.804   3.545  2.1823  1.0804 -0.6648
  504MOL0     H66482  -0.267   6.500   3.446  1.6885 -2.6797  0.0235
  504MOL0     H66483  -0.222   6.615   3.583  0.1671 -1.1767  0.8252
  504MOL0     H66484   0.016   6.522   3.561 -1.5009  4.1279 -1.3984
  504MOL0     H66485  -0.040   6.391   3.457 -2.0586 -0.0012  0.1022
  504MOL0     H66486  -0.079   6.450   3.742 -0.9937  0.5983 -0.0339
  504MOL0     H66487  -0.218   6.378   3.665  0.0689  0.8631  0.5868
  504MOL0     H66488   0.057   6.246   3.657 -0.3108  0.0232 -3.1710
  504MOL0     H66489  -0.089   6.181   3.586  0.2356 -0.3229 -0.1611
  504MOL0     H66490  -0.301   6.170   3.636  0.0032 -1.1224  0.6700
  504MOL0     H66491  -0.514   6.082   3.715 -0.2377  1.6391  0.2386
  504MOL0     H66492  -0.896   6.138   3.906  0.8746 -0.1268  2.8997
  504MOL0     H66493  -1.085   6.098   4.053  0.2511  0.5811  1.4913
  504MOL0     H66494  -1.045   5.708   4.231  0.6668  1.7061 -0.3751
  504MOL0     H66495  -1.202   5.651   4.177  0.6297 -0.6687 -0.6401
  504MOL0     H66496  -1.152   5.809   4.429  0.7314  0.0523 -1.4764
  504MOL0     H66497  -1.191   5.637   4.409 -1.5089  0.3421  0.9014
  504MOL0     H66498  -1.413   5.659   4.368 -1.2489  0.0611  0.2685
  504MOL0     H66499  -1.383   5.827   4.294 -3.7866  1.5073  2.9880
  504MOL0     H66500  -1.315   5.884   4.530 -0.2675 -0.0359 -1.4803
  504MOL0     H66501  -1.482   5.873   4.480 -1.0206 -0.4603 -0.6738
  504MOL0     H66502  -1.316   5.663   4.642  0.5460 -0.8219 -2.1508
  504MOL0     H66503  -1.489   5.643   4.603 -0.6889  1.8305 -1.3123
  504MOL0     H66504  -1.558   5.842   4.730 -0.3174 -0.3298  1.1638
  504MOL0     H66505  -1.393   5.869   4.780 -2.5805  3.2876 -0.3906
  504MOL0     H66506  -1.396   5.653   4.902  0.4278  2.6163  0.5695
  504MOL0     H66507  -1.522   5.757   4.961  1.4134  0.6001  0.9067
  504MOL0     H66508  -1.577   5.532   4.774 -0.2120  2.2518 -2.0447
  504MOL0     H66509  -1.691   5.638   4.858  1.6324  1.9354  0.1980
  504MOL0     H66510  -0.975   5.684   4.049 -2.1609  0.0096  0.0786
  504MOL0     H66511  -0.767   5.727   3.923  0.1179  1.2565 -1.6708
  504MOL0     H66512  -0.353   5.982   4.102 -0.3054 -1.7794 -0.1934
  504MOL0     H66513  -0.149   6.113   4.040 -1.0914  1.6061  1.5346
  504MOL0     H66514   0.973   6.822   3.221  0.5822  1.1285 -0.6468
  504MOL0     H66515   0.951   6.666   3.046 -0.7076 -1.8796 -2.1668
  504MOL0     H66516   0.725   6.662   2.579  0.8522 -0.5579 -1.4290
  504MOL0     H66517   0.588   6.596   2.396  4.5385  2.9712  2.5529
  504MOL0     H66518   0.523   6.307   2.173  2.7271  1.5866 -0.7215
  504MOL0     H66519   0.582   6.463   2.221 -0.7049  1.8124 -0.0605
  504MOL0     H66520   0.277   6.393   2.239 -1.2170  0.8809 -0.7732
  504MOL0     H66521   0.359   6.562   2.226  0.4775  1.2163 -1.4155
  504MOL0     H66522   0.344   6.327   2.021  0.5587  0.5679  0.8254
  504MOL0     H66523   0.380   6.504   1.984  1.3236  0.1890  1.0845
  504MOL0     H66524   0.141   6.550   2.059  1.4003  2.5099 -1.0453
  504MOL0     H66525   0.179   6.482   1.902  4.4738  1.5117  0.9829
  504MOL0     H66526   0.001   6.146   2.099  2.2667  0.8713  3.0022
  504MOL0     H66527   0.528   6.221   2.586 -3.1534  1.0159 -0.6552
  504MOL0     H66528   0.604   6.326   2.806  1.7844 -0.4282  1.0915
  505MOL0     O66529  10.795   4.916   4.969 -0.0934  0.4839  0.4532
  505MOL0     C66530  10.747   4.878   4.857 -0.2008 -0.2732  0.4188
  505MOL0     O66531  10.749   4.745   4.813 -0.1955  0.3370 -0.9846
  505MOL0     C66532  10.783   4.644   4.900 -1.0715  0.1572  0.2391
  505MOL0     C66533  10.906   4.647   4.956 -0.5819  0.6129 -0.3650
  505MOL0     C66534  10.947   4.556   5.057  0.4502  0.5722  0.1764
  505MOL0     C66535  10.850   4.460   5.100 -1.3300  0.2155  0.1239
  505MOL0     O66536  10.885   4.374   5.211 -0.1040  0.2353 -0.1200
  505MOL0     C66537  10.838   4.237   5.189  0.5486 -0.5263 -0.0849
  505MOL0     C66538  10.901   4.170   5.070  0.0689  0.2811  0.1278
  505MOL0     C66539  11.055   4.165   5.074  0.9483  0.0648  0.1055
  505MOL0     C66540  11.121   4.096   4.954 -0.4848  0.3077 -0.1462
  505MOL0     C66541  11.273   4.083   4.959 -0.1492  0.3233 -0.2354
  505MOL0     C66542  11.334   4.006   4.837  0.3650  0.2267  0.7401
  505MOL0     C66543  11.491   4.027   4.829 -0.3262 -0.3444 -0.0733
  505MOL0     C66544  11.541   3.973   4.692  0.2383 -0.5630 -0.0058
  505MOL0     N66545  11.689   3.987   4.690 -0.0168 -0.2726  0.5653
  505MOL0     C66546  11.761   4.099   4.714  0.5060  1.0861  0.3154
  505MOL0     C66547  11.894   4.067   4.703 -0.4732  0.5565 -0.2855
  505MOL0     C66548  12.012   4.149   4.708 -0.2139 -1.1006 -0.1937
  505MOL0     C66549  12.101   4.117   4.833  0.1594  0.2835 -0.5279
  505MOL0     C66550  12.204   4.235   4.856  0.0146 -1.3548  0.1111
  505MOL0     C66551  12.328   4.210   4.935 -1.0162  0.7034 -0.4987
  505MOL0     O66552  12.299   4.151   5.063 -0.1286 -0.3406  0.0434
  505MOL0     C66553  12.396   4.123   5.160 -1.3354  0.4684 -0.5852
  505MOL0     C66554  12.358   4.078   5.286  0.2413 -0.3923  0.1812
  505MOL0     C66555  12.444   4.051   5.392  0.4840  0.3610  0.4249
  505MOL0     C66556  12.581   4.059   5.371  0.3033 -0.3381  0.0563
  505MOL0     C66557  12.678   4.039   5.478  0.0341 -0.3241  1.5147
  505MOL0     O66558  12.805   4.053   5.427 -0.1469 -0.2834 -0.2882
  505MOL0     C66559  12.923   4.070   5.502  0.5604 -0.3654 -0.0632
  505MOL0     C66560  13.027   4.087   5.427  1.0732 -0.3575 -0.1878
  505MOL0     C66561  13.153   4.106   5.488  0.1099 -0.9472 -0.1167
  505MOL0     C66562  13.169   4.119   5.628  0.0946 -0.1526  0.2098
  505MOL0     O66563  13.301   4.131   5.677  0.1998 -0.2058 -0.0703
  505MOL0     C66564  13.305   4.200   5.801 -0.5238  0.7583  0.3387
  505MOL0     C66565  13.458   4.217   5.839 -0.6035 -0.9365  0.0247
  505MOL0     C66566  13.453   4.237   5.990 -0.0551 -0.7388  0.2403
  505MOL0     C66567  13.603   4.246   6.030 -0.3181 -0.4915  0.5585
  505MOL0     C66568  13.610   4.228   6.186 -0.6520 -0.0922 -0.3799
  505MOL0     C66569  13.765   4.218   6.215 -0.1428  0.7166 -0.2954
  505MOL0     C66570  13.786   4.183   6.364 -1.0660  0.0427 -0.0075
  505MOL0     C66571  13.735   4.042   6.392 -0.3889  0.0610  0.4939
  505MOL0    Cl66572  13.766   4.004   6.563 -0.1344 -0.1903  0.0830
  505MOL0     C66573  13.057   4.107   5.703  1.0109  0.0086 -0.0375
  505MOL0     C66574  12.929   4.080   5.645  1.0246 -0.9284  0.2852
  505MOL0     O66575  12.643   4.016   5.594  0.0633 -0.8999 -0.4511
  505MOL0     C66576  12.624   4.088   5.240  0.4372  0.4024 -0.8171
  505MOL0     C66577  12.531   4.130   5.140 -0.6691  0.5102 -0.5052
  505MOL0     N66578  11.902   3.945   4.647  0.6298 -0.6703 -0.8508
  505MOL0     N66579  11.775   3.888   4.641 -0.0756 -0.5372 -0.2844
  505MOL0     C66580  10.724   4.474   5.052 -0.2302  0.0546 -0.1229
  505MOL0     C66581  10.683   4.561   4.954 -0.3707 -0.2818  0.4050
  505MOL0     C66582  10.707   4.984   4.761  0.4703 -0.1117  0.8263
  505MOL0     C66583  10.639   4.960   4.640 -0.9257 -0.1801  0.8404
  505MOL0     C66584  10.604   5.066   4.555 -0.3217 -0.1216 -0.7664
  505MOL0     C66585  10.616   5.201   4.597 -0.6617 -0.0195  0.2753
  505MOL0     O66586  10.579   5.307   4.516  0.3549 -0.0021 -1.3686
  505MOL0     C66587  10.565   5.270   4.381 -0.8255  0.1968  0.2532
  505MOL0     C66588  10.522   5.394   4.318  0.2866 -0.1187  0.2984
  505MOL0     C66589  10.643   5.474   4.297 -0.1079  0.3394 -0.0776
  505MOL0     C66590  10.687   5.481   4.146 -0.4307  1.1479  0.5532
  505MOL0     C66591  10.788   5.383   4.105  1.0644  0.3439  0.5997
  505MOL0     C66592  10.865   5.296   4.068 -0.8442  0.8206 -0.5534
  505MOL0     C66593  10.682   5.233   4.715 -0.7765 -0.0904  0.6012
  505MOL0     C66594  10.724   5.131   4.798  0.7287  0.1813  0.0707
  505MOL0     H66595  10.985   4.715   4.924  1.1662  0.4209  3.1267
  505MOL0     H66596  11.048   4.558   5.095  0.4432 -2.0777  0.4947
  505MOL0     H66597  10.729   4.233   5.176  0.6094 -0.5046 -0.6110
  505MOL0     H66598  10.860   4.177   5.277  3.1062  1.7020  0.9428
  505MOL0     H66599  10.858   4.219   4.982  3.3966 -1.2731 -2.6221
  505MOL0     H66600  10.875   4.065   5.054  1.2770  0.3925 -3.5814
  505MOL0     H66601  11.086   4.114   5.165 -1.0015  1.4683  1.6480
  505MOL0     H66602  11.095   4.267   5.083 -0.5337  0.5247  2.4496
  505MOL0     H66603  11.083   3.994   4.951 -1.4383  0.5182  2.2991
  505MOL0     H66604  11.092   4.142   4.859  1.8108 -2.4604 -2.3905
  505MOL0     H66605  11.298   4.020   5.044 -0.8540  0.8105  0.3475
  505MOL0     H66606  11.325   4.178   4.977  0.9935 -0.4805  0.8105
  505MOL0     H66607  11.278   4.047   4.752 -0.7449 -0.4046  1.1451
  505MOL0     H66608  11.306   3.901   4.838 -0.5072  0.4476  2.3231
  505MOL0     H66609  11.514   4.131   4.853  0.6559 -1.5412  5.4550
  505MOL0     H66610  11.541   3.953   4.892  1.5940  2.0724  1.4148
  505MOL0     H66611  11.503   4.034   4.611  1.1872 -2.6620 -2.1643
  505MOL0     H66612  11.511   3.870   4.670 -0.8891 -1.0744  3.3621
  505MOL0     H66613  11.719   4.198   4.724 -1.7769  0.4603 -1.8733
  505MOL0     H66614  11.985   4.254   4.725  0.0798 -0.9194 -0.8406
  505MOL0     H66615  12.070   4.159   4.616 -0.4998  1.1037 -0.1907
  505MOL0     H66616  12.140   4.017   4.811 -0.0559 -0.7056  2.9611
  505MOL0     H66617  12.033   4.100   4.917 -1.8318  2.1817 -1.6529
  505MOL0     H66618  12.215   4.275   4.755 -0.2428  0.0207  0.6169
  505MOL0     H66619  12.164   4.317   4.916  2.0539 -2.0284  2.5598
  505MOL0     H66620  12.377   4.305   4.959  0.2126  0.2756 -1.2046
  505MOL0     H66621  12.398   4.147   4.878  1.7548  2.2287  1.0349
  505MOL0     H66622  12.254   4.063   5.312 -0.3706  4.8223  1.9573
  505MOL0     H66623  12.404   4.025   5.489  0.1324 -0.4627  0.0703
  505MOL0     H66624  13.022   4.083   5.318 -3.4047 -1.4656 -0.1482
  505MOL0     H66625  13.246   4.124   5.434  0.2156  0.1776  0.4148
  505MOL0     H66626  13.254   4.144   5.880  0.9953 -2.8516 -1.0627
  505MOL0     H66627  13.264   4.302   5.802 -3.7756 -0.3511  3.4193
  505MOL0     H66628  13.504   4.298   5.782  0.5900 -1.7210 -0.1444
  505MOL0     H66629  13.506   4.123   5.811  0.7552 -0.1439 -0.3751
  505MOL0     H66630  13.416   4.145   6.034  0.2350 -0.7684  0.4210
  505MOL0     H66631  13.411   4.328   6.035  3.6293  2.4266 -2.0526
  505MOL0     H66632  13.660   4.171   5.975  0.8504  1.0075 -0.3549
  505MOL0     H66633  13.650   4.343   6.008  0.2453 -0.7714  0.5202
  505MOL0     H66634  13.562   4.132   6.207  0.5272 -0.6509 -0.1249
  505MOL0     H66635  13.566   4.317   6.233  1.5618  1.7342 -1.5520
  505MOL0     H66636  13.812   4.314   6.191  1.8695 -0.6534 -2.2784
  505MOL0     H66637  13.807   4.147   6.143  0.1469  0.9755 -0.3853
  505MOL0     H66638  13.892   4.187   6.390 -0.5585 -2.2032 -1.4450
  505MOL0     H66639  13.724   4.250   6.424 -1.1169  0.1601 -0.1919
  505MOL0     H66640  13.786   3.963   6.336 -2.3101 -0.7554 -0.2071
  505MOL0     H66641  13.627   4.026   6.384 -0.4815  0.7854  0.2877
  505MOL0     H66642  13.057   4.117   5.811  0.7159  0.3776 -0.0699
  505MOL0     H66643  12.845   4.070   5.713  1.5089 -1.2256  0.8547
  505MOL0     H66644  12.728   4.082   5.212 -0.0036 -0.3504 -2.4149
  505MOL0     H66645  12.590   4.169   5.057  1.7512 -4.0030 -1.1887
  505MOL0     H66646  10.645   4.418   5.100 -0.6216 -0.6352 -1.5296
  505MOL0     H66647  10.577   4.573   4.936 -0.5276 -0.4394  1.2172
  505MOL0     H66648  10.624   4.862   4.598  0.7853  1.8486 -5.5883
  505MOL0     H66649  10.565   5.029   4.461 -0.0891 -1.0644 -0.5008
  505MOL0     H66650  10.481   5.203   4.360 -2.3323  2.1325 -0.2652
  505MOL0     H66651  10.655   5.234   4.331  0.2658  2.4528  0.4592
  505MOL0     H66652  10.461   5.389   4.226 -0.4825 -0.8327  0.8273
  505MOL0     H66653  10.450   5.443   4.384 -1.4716 -1.8141 -0.2637
  505MOL0     H66654  10.725   5.446   4.363 -2.4738  2.7438  4.3449
  505MOL0     H66655  10.617   5.576   4.329  0.9000  0.5534  0.0864
  505MOL0     H66656  10.603   5.463   4.078 -0.9168 -2.0012  1.8070
  505MOL0     H66657  10.724   5.581   4.120  3.9564 -0.1924  0.9918
  505MOL0     H66658  10.932   5.223   4.027  1.9292  2.4723  0.7570
  505MOL0     H66659  10.699   5.334   4.749 -2.7535  1.4491 -2.4920
  505MOL0     H66660  10.766   5.139   4.897 -1.1554 -2.8122  1.2590
  506MOL0     O66661   0.318   0.335  10.425 -1.0610 -0.4540  0.9969
  506MOL0     C66662   0.393   0.262  10.487 -0.0571  0.1788  0.2190
  506MOL0     O66663   0.401   0.126  10.473 -0.6663 -0.0863  0.1083
  506MOL0     C66664   0.289   0.060  10.474 -0.2552  0.0173  1.0312
  506MOL0     C66665   0.172   0.079  10.396 -0.4835 -0.0009 -0.4229
  506MOL0     C66666   0.065  -0.005  10.399  0.1586  0.2122  0.2102
  506MOL0     C66667   0.070  -0.125  10.473 -0.7666  0.0580  0.3669
  506MOL0     O66668  -0.017  -0.231  10.465 -0.1844 -0.1431 -0.1049
  506MOL0     C66669  -0.105  -0.234  10.353  0.7775  0.0963 -0.0041
  506MOL0     C66670  -0.173  -0.376  10.320 -0.8267  0.9284 -0.0848
  506MOL0     C66671  -0.266  -0.417  10.444 -0.8877 -0.8610  0.0486
  506MOL0     C66672  -0.345  -0.551  10.411 -0.4734  0.1910 -0.3555
  506MOL0     C66673  -0.432  -0.598  10.535  0.1901 -0.6960 -0.8984
  506MOL0     C66674  -0.521  -0.712  10.490  0.6132 -0.1762 -1.3225
  506MOL0     C66675  -0.625  -0.736  10.603 -0.5510  0.0929 -0.2572
  506MOL0     C66676  -0.711  -0.863  10.587 -0.5590 -1.0974 -1.0459
  506MOL0     N66677  -0.835  -0.840  10.653  0.2384  0.2618  0.9169
  506MOL0     C66678  -0.829  -0.842  10.792 -1.2189  0.4079  0.2824
  506MOL0     C66679  -0.941  -0.893  10.838  0.7005  0.3361 -0.0281
  506MOL0     C66680  -0.966  -0.930  10.983 -0.8219  0.5853  0.1723
  506MOL0     C66681  -0.928  -1.081  10.990 -1.0704 -0.4058  0.2370
  506MOL0     C66682  -0.962  -1.146  11.122 -0.3420 -0.3700  0.6279
  506MOL0     C66683  -0.946  -1.296  11.128 -0.5358  0.4934 -0.1560
  506MOL0     O66684  -0.817  -1.338  11.167  0.1558 -0.1397 -0.3434
  506MOL0     C66685  -0.788  -1.474  11.158 -0.8347  0.1309  0.6331
  506MOL0     C66686  -0.868  -1.581  11.190  0.3400  0.5662 -0.6617
  506MOL0     C66687  -0.831  -1.717  11.185  0.4430 -0.7113 -0.0720
  506MOL0     C66688  -0.707  -1.748  11.140 -0.9315 -0.0954  0.2302
  506MOL0     C66689  -0.662  -1.895  11.121 -0.2646 -0.2638  0.5059
  506MOL0     O66690  -0.528  -1.922  11.125  0.4484  0.8066 -0.1384
  506MOL0     C66691  -0.492  -2.057  11.142 -0.0980 -0.6666  0.3829
  506MOL0     C66692  -0.434  -2.123  11.035 -0.1814  0.4566  0.0914
  506MOL0     C66693  -0.390  -2.255  11.045 -0.6955 -0.1186  0.7076
  506MOL0     C66694  -0.401  -2.328  11.159  0.1728  0.2447 -0.4943
  506MOL0     O66695  -0.354  -2.455  11.181 -0.1530  0.1738  0.4028
  506MOL0     C66696  -0.255  -2.500  11.087  0.0470 -0.2360  0.2667
  506MOL0     C66697  -0.191  -2.623  11.141 -0.4563 -0.0844 -0.1104
  506MOL0     C66698  -0.043  -2.634  11.129 -0.0948  0.2535  0.2035
  506MOL0     C66699   0.003  -2.659  10.987 -0.2926  0.3605 -1.1783
  506MOL0     C66700   0.133  -2.585  10.962 -0.4716 -0.4139  0.0779
  506MOL0     C66701   0.248  -2.648  11.036 -0.1627  0.3146  0.3760
  506MOL0     C66702   0.298  -2.780  10.979  0.3776  0.2250 -0.2985
  506MOL0     C66703   0.448  -2.818  10.990 -0.3559  1.0740 -0.8363
  506MOL0    Cl66704   0.472  -2.848  11.174  0.1680  0.2895 -0.1661
  506MOL0     C66705  -0.475  -2.267  11.261  0.5387  0.5612 -0.0873
  506MOL0     C66706  -0.518  -2.134  11.251 -0.6362 -0.4076  0.0216
  506MOL0     O66707  -0.752  -1.977  11.132  0.5170 -0.0198  0.7415
  506MOL0     C66708  -0.621  -1.643  11.109 -0.0805 -0.3332  0.6789
  506MOL0     C66709  -0.667  -1.510  11.113 -0.1059 -0.5193  0.4690
  506MOL0     N66710  -1.026  -0.919  10.731 -0.6190  0.7722  0.0967
  506MOL0     N66711  -0.960  -0.894  10.620 -0.5945  0.2959  0.2174
  506MOL0     C66712   0.185  -0.153  10.548 -1.0349  0.6029 -0.4867
  506MOL0     C66713   0.290  -0.061  10.556  0.3932  0.1347 -0.3106
  506MOL0     C66714   0.493   0.326  10.577  0.1323 -0.4938  0.3068
  506MOL0     C66715   0.617   0.261  10.602 -0.5021 -0.5217  0.4312
  506MOL0     C66716   0.718   0.319  10.672  0.5834  0.0815 -0.3621
  506MOL0     C66717   0.702   0.447  10.733  0.1708  1.3872 -0.2894
  506MOL0     O66718   0.816   0.512  10.796  0.7056 -0.1208  0.8027
  506MOL0     C66719   0.788   0.622  10.878 -0.8217  0.7288 -0.4237
  506MOL0     C66720   0.916   0.648  10.965 -0.0869  0.5398 -1.0960
  506MOL0     C66721   0.947   0.518  11.047  0.4412  0.7724  0.0849
  506MOL0     C66722   1.070   0.527  11.135  0.5082  0.6203 -0.4666
  506MOL0     C66723   1.070   0.651  11.204 -0.0764 -0.2872  0.3370
  506MOL0     C66724   1.101   0.745  11.278 -0.4795  0.4178 -0.4321
  506MOL0     C66725   0.575   0.504  10.718  0.4091 -1.2559  0.0734
  506MOL0     C66726   0.467   0.450  10.638  0.1032 -0.1095 -0.1238
  506MOL0     H66727   0.163   0.171  10.341  3.4038 -0.4154 -2.1206
  506MOL0     H66728  -0.020   0.032  10.344 -0.7034 -0.4070  1.1050
  506MOL0     H66729  -0.071  -0.189  10.258 -0.7670  0.2256 -0.5220
  506MOL0     H66730  -0.197  -0.178  10.372 -1.8063 -4.0059  0.6942
  506MOL0     H66731  -0.099  -0.452  10.295 -1.1937  0.3644  0.4905
  506MOL0     H66732  -0.225  -0.370  10.224  0.4442  1.1208 -0.7830
  506MOL0     H66733  -0.341  -0.339  10.456  0.3909  0.2001  1.4661
  506MOL0     H66734  -0.200  -0.420  10.531  2.3990  2.6557 -1.9854
  506MOL0     H66735  -0.401  -0.518  10.323 -1.5612  4.1627  1.5832
  506MOL0     H66736  -0.281  -0.638  10.394  1.4144  1.1338  1.5741
  506MOL0     H66737  -0.494  -0.519  10.579 -0.2228 -0.7599 -1.3538
  506MOL0     H66738  -0.362  -0.640  10.608 -1.7098 -0.7094  1.0426
  506MOL0     H66739  -0.460  -0.802  10.477  2.0943  0.5223  0.3358
  506MOL0     H66740  -0.582  -0.697  10.400 -0.4507 -1.4478 -0.8479
  506MOL0     H66741  -0.572  -0.752  10.697 -1.7550  4.4917  1.4328
  506MOL0     H66742  -0.676  -0.641  10.623  2.1899  1.7449 -0.5229
  506MOL0     H66743  -0.649  -0.942  10.630  2.7929  2.5353  1.4723
  506MOL0     H66744  -0.736  -0.896  10.486 -1.1565 -0.6168 -1.0615
  506MOL0     H66745  -0.754  -0.799  10.858 -0.4080 -1.0139  0.3430
  506MOL0     H66746  -1.074  -0.917  10.998 -0.3010  2.3136  3.3106
  506MOL0     H66747  -0.920  -0.870  11.062  2.7979 -1.2977 -0.3165
  506MOL0     H66748  -0.820  -1.083  10.974 -0.5629  4.0075  1.9020
  506MOL0     H66749  -0.975  -1.135  10.907 -1.7503  0.2101  0.2058
  506MOL0     H66750  -0.895  -1.114  11.202 -0.6644 -1.9118  1.5603
  506MOL0     H66751  -1.063  -1.119  11.155  0.7764  0.9508  3.3416
  506MOL0     H66752  -0.963  -1.342  11.030 -1.1964 -1.2129  0.7233
  506MOL0     H66753  -1.014  -1.335  11.204 -0.8842  0.4370 -0.4912
  506MOL0     H66754  -0.966  -1.549  11.224  1.7234  4.2240  0.3874
  506MOL0     H66755  -0.914  -1.782  11.213 -0.8814  0.8583 -0.1938
  506MOL0     H66756  -0.424  -2.058  10.949 -0.6017  1.5378  0.8449
  506MOL0     H66757  -0.331  -2.294  10.963 -2.3788 -1.3302 -0.0065
  506MOL0     H66758  -0.180  -2.425  11.060  0.9301 -1.6068 -1.2686
  506MOL0     H66759  -0.290  -2.534  10.989  1.5703 -0.9477 -0.0597
  506MOL0     H66760  -0.233  -2.711  11.091 -0.5555 -0.8851  1.3163
  506MOL0     H66761  -0.208  -2.619  11.249  2.4414 -0.0423  0.4181
  506MOL0     H66762  -0.022  -2.716  11.199  0.1651  1.3264  1.4166
  506MOL0     H66763  -0.001  -2.541  11.166  1.2248 -0.6990  1.1908
  506MOL0     H66764   0.022  -2.765  10.966 -0.6913  0.6230 -3.0226
  506MOL0     H66765  -0.081  -2.633  10.923 -0.6075  2.8197  0.1274
  506MOL0     H66766   0.122  -2.481  10.995 -0.7854 -1.5737  4.1584
  506MOL0     H66767   0.138  -2.585  10.852 -3.4089 -3.6004 -0.2028
  506MOL0     H66768   0.233  -2.651  11.144 -2.0826  2.6782  0.2475
  506MOL0     H66769   0.336  -2.584  11.027  0.6383 -0.6094  1.3276
  506MOL0     H66770   0.242  -2.858  11.032  1.3385  0.0644  0.5118
  506MOL0     H66771   0.271  -2.789  10.874  1.8774  0.4981 -0.7257
  506MOL0     H66772   0.511  -2.736  10.953  0.3869  2.0772  2.3322
  506MOL0     H66773   0.462  -2.911  10.935 -2.4731  0.6560 -0.7634
  506MOL0     H66774  -0.488  -2.323  11.354  1.0759  0.0486 -0.3175
  506MOL0     H66775  -0.554  -2.081  11.339 -1.6124  1.1121 -1.2631
  506MOL0     H66776  -0.526  -1.668  11.064 -0.2268  0.5554 -0.1549
  506MOL0     H66777  -0.604  -1.435  11.067 -1.7563 -1.7529 -4.4672
  506MOL0     H66778   0.191  -0.256  10.584 -0.3042 -0.7135 -3.9541
  506MOL0     H66779   0.377  -0.074  10.620 -2.2315  2.5602  4.2588
  506MOL0     H66780   0.635   0.157  10.577  0.6032  0.0576 -1.3134
  506MOL0     H66781   0.810   0.263  10.686 -1.0390 -2.1319  2.5336
  506MOL0     H66782   0.700   0.607  10.940  0.1388 -0.0185  0.7875
  506MOL0     H66783   0.777   0.707  10.810 -0.1307 -0.4233 -2.0366
  506MOL0     H66784   1.009   0.662  10.909 -1.2444 -0.6956 -3.4854
  506MOL0     H66785   0.879   0.733  11.023  2.1354  0.3179  0.7585
  506MOL0     H66786   0.949   0.430  10.982 -0.5430  0.1700  0.8246
  506MOL0     H66787   0.864   0.493  11.114 -0.9507 -1.4950 -2.2656
  506MOL0     H66788   1.067   0.434  11.192 -0.4575 -0.2202 -1.8250
  506MOL0     H66789   1.159   0.510  11.073  0.3326  0.5920 -0.7117
  506MOL0     H66790   1.129   0.818  11.352 -1.4759  0.2043  0.1693
  506MOL0     H66791   0.552   0.599  10.766  1.1683 -0.8575 -0.3384
  506MOL0     H66792   0.380   0.513  10.623 -1.2921 -1.7536  0.7091
  507MOL0     O66793   2.212   0.002   0.752  0.1755 -0.3916 -0.1145
  507MOL0     C66794   2.184  -0.110   0.715  0.6149  0.8100 -0.1280
  507MOL0     O66795   2.055  -0.160   0.696 -0.4552  0.9239 -0.7265
  507MOL0     C66796   1.941  -0.083   0.701  1.2319 -0.3366 -0.6143
  507MOL0     C66797   1.831  -0.138   0.775 -0.1689 -0.2628 -0.5282
  507MOL0     C66798   1.711  -0.071   0.791 -0.5202 -0.3101  0.4668
  507MOL0     C66799   1.698   0.047   0.715  1.1947 -0.4517  0.0664
  507MOL0     O66800   1.583   0.113   0.725 -0.3583  0.1199  0.1481
  507MOL0     C66801   1.478   0.039   0.660 -0.6655  1.2846 -1.0849
  507MOL0     C66802   1.479   0.054   0.510  0.8098 -0.2904 -0.8169
  507MOL0     C66803   1.338   0.057   0.457  0.7588  0.2359  0.1700
  507MOL0     C66804   1.267   0.188   0.457 -0.0049  0.7190  0.6772
  507MOL0     C66805   1.131   0.179   0.383 -0.0601 -0.1174 -0.2070
  507MOL0     C66806   1.063   0.322   0.395  0.0466  1.8757 -0.3526
  507MOL0     C66807   0.942   0.329   0.304  0.2315 -0.8842 -0.5336
  507MOL0     C66808   0.970   0.338   0.157 -0.3845 -0.7831 -0.0375
  507MOL0     N66809   0.852   0.383   0.085 -0.4906 -0.7869  0.3410
  507MOL0     C66810   0.734   0.320   0.061  0.3627  0.2025 -0.6209
  507MOL0     C66811   0.664   0.404  -0.004  0.1584 -0.4174 -0.0249
  507MOL0     C66812   0.519   0.386  -0.033  0.7900  0.7175  0.3614
  507MOL0     C66813   0.481   0.299  -0.153  0.1972 -0.6332 -0.5209
  507MOL0     C66814   0.506   0.366  -0.292  0.6221 -0.0714 -0.0601
  507MOL0     C66815   0.434   0.284  -0.406  0.3262  0.5285  0.5573
  507MOL0     O66816   0.502   0.155  -0.414 -0.0197  0.5911 -0.8140
  507MOL0     C66817   0.412   0.048  -0.423 -0.4376  0.0046 -0.8000
  507MOL0     C66818   0.319   0.015  -0.322  0.1451 -0.8761 -0.0862
  507MOL0     C66819   0.228  -0.092  -0.345 -0.2466  0.9923 -0.0167
  507MOL0     C66820   0.244  -0.179  -0.459  0.1383  0.0928 -0.1491
  507MOL0     C66821   0.151  -0.292  -0.485  0.2571  0.9275  0.2735
  507MOL0     O66822   0.184  -0.392  -0.576  0.1331 -0.3476 -0.4779
  507MOL0     C66823   0.094  -0.488  -0.609 -0.1403 -0.3287  0.1616
  507MOL0     C66824   0.028  -0.563  -0.512  0.2341  0.6530 -0.3601
  507MOL0     C66825  -0.064  -0.662  -0.543  0.2954 -0.0339 -0.9448
  507MOL0     C66826  -0.090  -0.691  -0.681 -0.3733  0.3664 -0.9486
  507MOL0     O66827  -0.173  -0.790  -0.715  1.0871  0.4647  0.4595
  507MOL0     C66828  -0.224  -0.881  -0.618 -0.2526 -0.0101 -0.6203
  507MOL0     C66829  -0.320  -0.966  -0.687  0.1100  0.3870 -0.5936
  507MOL0     C66830  -0.363  -1.073  -0.582 -0.2053 -1.2879 -0.4541
  507MOL0     C66831  -0.273  -1.192  -0.571 -0.2397  0.1464 -0.0550
  507MOL0     C66832  -0.300  -1.277  -0.447 -0.3407 -0.2062  0.2277
  507MOL0     C66833  -0.235  -1.409  -0.458 -0.2836 -0.0647  0.4108
  507MOL0     C66834  -0.226  -1.478  -0.321  0.5423  0.1798 -0.3630
  507MOL0     C66835  -0.174  -1.620  -0.329  0.3240 -0.1698  0.6119
  507MOL0    Cl66836  -0.296  -1.715  -0.419 -0.1957  0.4257  0.3060
  507MOL0     C66837  -0.018  -0.623  -0.781  1.2854 -0.4523 -0.2795
  507MOL0     C66838   0.065  -0.512  -0.746  0.7509 -0.6963  0.0492
  507MOL0     O66839   0.057  -0.298  -0.410  0.4922 -0.4895 -0.2788
  507MOL0     C66840   0.351  -0.142  -0.548 -0.0565  0.3483  0.8906
  507MOL0     C66841   0.429  -0.029  -0.536  0.4963 -1.1869 -0.2470
  507MOL0     N66842   0.730   0.519  -0.027 -0.4809  0.5070  0.0938
  507MOL0     N66843   0.845   0.504   0.025  0.2997  0.1757 -0.8015
  507MOL0     C66844   1.794   0.100   0.639  0.0349 -0.6141  0.0383
  507MOL0     C66845   1.913   0.036   0.634  0.4507 -0.0162  0.4504
  507MOL0     C66846   2.300  -0.207   0.711 -0.2792  0.2242 -0.0584
  507MOL0     C66847   2.276  -0.346   0.739  0.2922 -0.8332 -0.3008
  507MOL0     C66848   2.373  -0.439   0.736  0.5067 -1.2407 -0.5582
  507MOL0     C66849   2.508  -0.406   0.700 -0.4451 -0.5101 -0.8198
  507MOL0     O66850   2.610  -0.502   0.687 -0.3621  1.1541  0.7215
  507MOL0     C66851   2.574  -0.645   0.711 -0.5156 -0.1822 -0.0743
  507MOL0     C66852   2.705  -0.726   0.682 -0.1059 -0.0524  0.7044
  507MOL0     C66853   2.754  -0.710   0.534  0.5221 -0.5569 -0.0441
  507MOL0     C66854   2.880  -0.793   0.512 -0.0447 -0.2004  0.3816
  507MOL0     C66855   3.002  -0.720   0.549  0.9336  0.1227  1.1423
  507MOL0     C66856   3.110  -0.661   0.542  0.1792 -0.1196 -0.6010
  507MOL0     C66857   2.530  -0.271   0.679  0.3581  0.1897  0.4891
  507MOL0     C66858   2.430  -0.166   0.695 -0.0306 -0.1959 -0.3218
  507MOL0     H66859   1.847  -0.232   0.828  0.7382  0.8665  1.2710
  507MOL0     H66860   1.631  -0.118   0.848 -0.1804 -0.5868  0.7205
  507MOL0     H66861   1.384   0.065   0.710  0.1642 -2.8793  3.4651
  507MOL0     H66862   1.490  -0.069   0.675 -0.5017  0.8444 -3.8356
  507MOL0     H66863   1.527  -0.033   0.463  3.1966 -0.2915  1.4118
  507MOL0     H66864   1.529   0.142   0.468  0.8182  0.1717  0.1440
  507MOL0     H66865   1.272  -0.004   0.520 -1.2444  0.0635 -1.9648
  507MOL0     H66866   1.346   0.024   0.353 -0.7174  2.6448 -0.7954
  507MOL0     H66867   1.251   0.210   0.563  1.7794 -1.3890  1.4634
  507MOL0     H66868   1.335   0.264   0.418  2.1929 -2.9602 -3.5255
  507MOL0     H66869   1.067   0.101   0.424  0.3390 -0.3876 -0.0975
  507MOL0     H66870   1.161   0.160   0.280  4.2687  0.7791  0.6805
  507MOL0     H66871   1.141   0.396   0.373  3.2752 -0.2734  2.7815
  507MOL0     H66872   1.031   0.321   0.499 -1.5849 -3.7015 -0.5522
  507MOL0     H66873   0.887   0.235   0.320 -0.6793 -0.3824 -0.6385
  507MOL0     H66874   0.878   0.416   0.321 -0.9646 -1.8588  0.1320
  507MOL0     H66875   1.011   0.249   0.108  3.6710 -0.5285  2.4379
  507MOL0     H66876   1.046   0.416   0.155 -1.8423  0.7541  1.6323
  507MOL0     H66877   0.702   0.218   0.080 -1.3418  0.9839  0.9781
  507MOL0     H66878   0.472   0.481  -0.058  0.2015 -0.2871 -2.7118
  507MOL0     H66879   0.471   0.350   0.059  1.3130  0.6909  0.6267
  507MOL0     H66880   0.375   0.283  -0.128 -0.4810 -0.4780 -3.0055
  507MOL0     H66881   0.533   0.203  -0.156 -1.1377 -1.5962 -6.9932
  507MOL0     H66882   0.470   0.470  -0.291  1.2116  0.1705 -1.4279
  507MOL0     H66883   0.614   0.378  -0.304  1.0494 -2.3201  1.0644
  507MOL0     H66884   0.458   0.335  -0.500  0.2919  4.8094  2.6447
  507MOL0     H66885   0.327   0.269  -0.393 -0.3479  2.6280 -1.8213
  507MOL0     H66886   0.307   0.086  -0.241  1.2084  2.6308 -2.7068
  507MOL0     H66887   0.155  -0.117  -0.269  1.9981 -0.1136  1.8781
  507MOL0     H66888   0.056  -0.546  -0.408  2.8491  2.4860 -1.2373
  507MOL0     H66889  -0.109  -0.714  -0.459  2.1858  2.2263  1.6559
  507MOL0     H66890  -0.268  -0.836  -0.528 -2.8045 -1.9757 -0.7781
  507MOL0     H66891  -0.147  -0.950  -0.583 -1.1190 -2.9148 -3.9285
  507MOL0     H66892  -0.261  -1.014  -0.766  0.7651  1.4545 -0.7662
  507MOL0     H66893  -0.399  -0.905  -0.729 -2.2805 -1.9808  0.1582
  507MOL0     H66894  -0.465  -1.105  -0.603 -0.9690 -0.3050  1.5793
  507MOL0     H66895  -0.356  -1.032  -0.481  3.0531 -0.5540 -0.8408
  507MOL0     H66896  -0.280  -1.263  -0.654  2.0856 -1.8812  1.3621
  507MOL0     H66897  -0.175  -1.145  -0.567 -0.3781  0.4393 -0.0690
  507MOL0     H66898  -0.406  -1.284  -0.419 -0.2841  2.8271  1.5941
  507MOL0     H66899  -0.249  -1.233  -0.362 -0.1577 -0.3278  0.1816
  507MOL0     H66900  -0.130  -1.412  -0.490  0.1338 -0.8762  1.7778
  507MOL0     H66901  -0.297  -1.472  -0.522  2.8618 -1.8078 -1.1546
  507MOL0     H66902  -0.174  -1.420  -0.244 -1.4605 -2.4178  3.1940
  507MOL0     H66903  -0.326  -1.470  -0.277  0.6240 -1.2774  0.1279
  507MOL0     H66904  -0.155  -1.661  -0.230  2.0856 -0.0979  0.3356
  507MOL0     H66905  -0.083  -1.616  -0.389 -0.2531  2.1518 -0.2122
  507MOL0     H66906  -0.046  -0.648  -0.883 -3.0861  0.5929  0.4757
  507MOL0     H66907   0.110  -0.450  -0.823  3.5764  0.5537  2.4763
  507MOL0     H66908   0.355  -0.215  -0.628  1.4677  2.4438 -1.0698
  507MOL0     H66909   0.505  -0.008  -0.610  0.0710  3.0525  0.2712
  507MOL0     H66910   1.776   0.192   0.584  0.8603 -1.1818 -1.2543
  507MOL0     H66911   1.985   0.071   0.561  0.6154  0.4752  0.8411
  507MOL0     H66912   2.174  -0.373   0.763  0.3741 -0.7881  0.1090
  507MOL0     H66913   2.343  -0.540   0.759 -1.5746 -0.2563  1.4946
  507MOL0     H66914   2.495  -0.666   0.638  0.7217 -1.8225 -1.0221
  507MOL0     H66915   2.535  -0.657   0.812 -0.9278 -1.5356 -0.3765
  507MOL0     H66916   2.783  -0.684   0.747  1.1195  4.0543 -2.9014
  507MOL0     H66917   2.696  -0.834   0.698  3.4476 -0.5367  0.3970
  507MOL0     H66918   2.785  -0.607   0.515  0.6692 -1.0791 -3.1708
  507MOL0     H66919   2.671  -0.752   0.477  0.3261 -3.1266  1.9581
  507MOL0     H66920   2.874  -0.888   0.566  0.9257 -0.5380 -0.0739
  507MOL0     H66921   2.890  -0.817   0.406  0.8379  1.6591  0.0034
  507MOL0     H66922   3.199  -0.604   0.559  0.6630 -1.1559  0.4412
  507MOL0     H66923   2.633  -0.236   0.684 -0.1200  1.4906  1.9078
  507MOL0     H66924   2.448  -0.059   0.694  2.8256 -0.6006 -1.9200
  508MOL0     O66925  11.358   6.807   6.095  0.1585  0.4010  0.2561
  508MOL0     C66926  11.392   6.803   6.208 -0.5706 -0.2536 -0.3340
  508MOL0     O66927  11.343   6.888   6.302  0.8667  0.5387  0.4586
  508MOL0     C66928  11.241   6.981   6.262 -0.3503  0.1089 -0.0545
  508MOL0     C66929  11.290   7.106   6.228  0.0628  0.8644 -0.8765
  508MOL0     C66930  11.214   7.219   6.198  0.1873 -0.2593  0.1030
  508MOL0     C66931  11.075   7.208   6.211 -0.7444  0.8135 -0.6187
  508MOL0     O66932  10.973   7.289   6.188 -0.1570  0.2249  0.4203
  508MOL0     C66933  11.004   7.407   6.111  0.1507  0.4366  0.4783
  508MOL0     C66934  10.895   7.501   6.074 -0.0280  0.2245  0.3220
  508MOL0     C66935  10.818   7.540   6.204  0.3155  0.5171 -0.1105
  508MOL0     C66936  10.707   7.635   6.162  0.3412 -0.4610  0.5040
  508MOL0     C66937  10.641   7.714   6.280 -0.3407 -0.1378 -0.7422
  508MOL0     C66938  10.549   7.819   6.244 -0.7603  0.8956  0.1383
  508MOL0     C66939  10.476   7.877   6.367 -0.5336  0.6077 -0.6227
  508MOL0     C66940  10.341   7.926   6.321 -0.4010  0.4258  0.0142
  508MOL0     N66941  10.358   8.043   6.241  0.0801 -1.0180  0.3527
  508MOL0     C66942  10.300   8.169   6.247  0.0611 -0.9257  0.4879
  508MOL0     C66943  10.318   8.228   6.129  0.0452  0.7284 -0.6320
  508MOL0     C66944  10.291   8.374   6.106  0.9326  0.6803 -0.2167
  508MOL0     C66945  10.348   8.422   5.972  0.0513 -1.1644  0.4185
  508MOL0     C66946  10.347   8.576   5.982  0.8231 -0.1987 -0.4243
  508MOL0     C66947  10.408   8.641   5.859 -0.9026  0.1698 -0.3190
  508MOL0     O66948  10.355   8.778   5.862 -0.0896 -0.4055  0.1573
  508MOL0     C66949  10.389   8.857   5.757 -1.2225  0.0206  0.5933
  508MOL0     C66950  10.395   8.993   5.770  0.0968  0.3594  0.9601
  508MOL0     C66951  10.434   9.091   5.671 -0.9025  0.1456 -0.0718
  508MOL0     C66952  10.458   9.037   5.544  0.4462  0.4869  0.0898
  508MOL0     C66953  10.499   9.136   5.442  0.3286 -0.8400  0.7170
  508MOL0     O66954  10.540   9.086   5.333  0.1732 -0.1183  0.3419
  508MOL0     C66955  10.595   9.174   5.243  0.6065 -0.2925  0.6318
  508MOL0     C66956  10.732   9.183   5.240 -0.3118  0.6244 -0.5150
  508MOL0     C66957  10.799   9.271   5.152  0.2194  1.2642 -1.0565
  508MOL0     C66958  10.721   9.349   5.063 -0.3138  0.5518  0.0752
  508MOL0     O66959  10.801   9.453   4.998 -0.2420  0.4638 -0.2143
  508MOL0     C66960  10.732   9.531   4.898  0.2078 -0.1227  0.7459
  508MOL0     C66961  10.648   9.645   4.957 -0.3994  0.5205  0.1211
  508MOL0     C66962  10.553   9.698   4.854  1.3931  0.9082  0.5106
  508MOL0     C66963  10.463   9.798   4.930  0.2321 -1.5899  0.0945
  508MOL0     C66964  10.338   9.837   4.846 -1.1051 -0.0068  0.2869
  508MOL0     C66965  10.233   9.920   4.921  0.9473 -0.1804  0.7746
  508MOL0     C66966  10.112   9.944   4.815 -0.9947  0.3464 -0.4857
  508MOL0     C66967  10.018  10.056   4.860 -0.7480 -0.0014 -0.6103
  508MOL0    Cl66968   9.951  10.155   4.721  0.0865  0.0771  0.2468
  508MOL0     C66969  10.578   9.332   5.056  0.1996  0.1927  0.7926
  508MOL0     C66970  10.515   9.237   5.148 -0.5411  0.0847  1.4977
  508MOL0     O66971  10.502   9.262   5.469 -0.5500  0.5164  0.4096
  508MOL0     C66972  10.466   8.905   5.526  0.4890  1.0768  0.2418
  508MOL0     C66973  10.437   8.814   5.625  0.2738 -0.0058  0.1117
  508MOL0     N66974  10.386   8.137   6.046  1.0926 -0.1637 -0.2650
  508MOL0     N66975  10.408   8.037   6.118 -0.2933  0.0977 -0.4193
  508MOL0     C66976  11.024   7.080   6.258 -0.0779 -0.5270  0.5152
  508MOL0     C66977  11.105   6.967   6.288 -0.2098 -0.2312  0.7046
  508MOL0     C66978  11.491   6.701   6.249  0.7357  0.2935  0.2668
  508MOL0     C66979  11.556   6.620   6.155 -0.2772 -0.0413  0.5577
  508MOL0     C66980  11.639   6.508   6.198 -0.2505  0.7154 -0.4737
  508MOL0     C66981  11.665   6.494   6.339 -0.6562 -0.5672 -0.0459
  508MOL0     O66982  11.732   6.388   6.407 -0.2724  0.4109  0.4895
  508MOL0     C66983  11.800   6.301   6.317  0.2934  1.0010 -0.0125
  508MOL0     C66984  11.878   6.202   6.401  0.0702  0.0810  0.6431
  508MOL0     C66985  11.782   6.083   6.450  0.2138 -0.8769  0.1379
  508MOL0     C66986  11.776   5.981   6.337 -0.7392 -0.1564 -0.0322
  508MOL0     C66987  11.663   5.893   6.355 -0.0383  0.9803 -0.3683
  508MOL0     C66988  11.580   5.806   6.361  0.2888  0.0299 -0.4675
  508MOL0     C66989  11.619   6.596   6.423 -0.5276  0.4969  0.8764
  508MOL0     C66990  11.548   6.707   6.379  0.1433  0.0962 -0.6408
  508MOL0     H66991  11.397   7.122   6.230 -0.2215  2.9296  0.0885
  508MOL0     H66992  11.266   7.306   6.160  0.5636 -1.9218 -3.6481
  508MOL0     H66993  11.057   7.377   6.020  0.6800  1.4707  0.4312
  508MOL0     H66994  11.079   7.466   6.164  0.8348 -0.8456  0.9782
  508MOL0     H66995  10.828   7.457   5.999  0.6116 -1.7240  0.8395
  508MOL0     H66996  10.947   7.587   6.028  2.5570 -2.3206 -1.9103
  508MOL0     H66997  10.892   7.583   6.273 -0.5224  3.3921 -0.8917
  508MOL0     H66998  10.779   7.452   6.255  2.9001 -1.3952 -1.1584
  508MOL0     H66999  10.721   7.711   6.084 -1.5919  0.8329  1.3596
  508MOL0     H67000  10.626   7.577   6.117  0.0503  0.2184  0.1435
  508MOL0     H67001  10.721   7.756   6.342 -0.6767 -0.3757 -0.1447
  508MOL0     H67002  10.595   7.643   6.348 -0.5553  0.8453  0.1688
  508MOL0     H67003  10.477   7.771   6.177 -1.9847  2.6400  0.1111
  508MOL0     H67004  10.609   7.897   6.197 -0.7123  1.2959  0.8399
  508MOL0     H67005  10.458   7.795   6.438  2.8655  2.8773  3.3721
  508MOL0     H67006  10.524   7.962   6.417  0.0654  0.9437 -1.7439
  508MOL0     H67007  10.274   7.949   6.405  1.3221  1.4204  1.1581
  508MOL0     H67008  10.304   7.845   6.258  0.0186 -0.0799  0.4101
  508MOL0     H67009  10.243   8.211   6.329 -2.2028 -3.6604  0.4613
  508MOL0     H67010  10.331   8.439   6.185  0.8587  0.0502  0.3526
  508MOL0     H67011  10.181   8.376   6.100  0.9462  0.1563 -0.7291
  508MOL0     H67012  10.286   8.394   5.886  2.6918  0.2612 -2.1332
  508MOL0     H67013  10.451   8.386   5.960 -0.0001 -1.5761  1.1661
  508MOL0     H67014  10.241   8.603   5.993  1.1489  0.7505  0.5063
  508MOL0     H67015  10.406   8.613   6.066  0.6391 -1.3688  0.2579
  508MOL0     H67016  10.380   8.590   5.766  0.6450 -0.9452 -0.2018
  508MOL0     H67017  10.517   8.647   5.859 -0.8637 -0.4593 -0.2315
  508MOL0     H67018  10.360   9.038   5.863  1.7603  2.3631  0.6870
  508MOL0     H67019  10.446   9.197   5.691 -0.1963  0.8922 -3.7474
  508MOL0     H67020  10.791   9.124   5.309 -3.3223 -0.0440  1.6587
  508MOL0     H67021  10.905   9.290   5.162  0.3734  1.5034 -2.8829
  508MOL0     H67022  10.665   9.484   4.826  2.3108  3.4124 -4.0645
  508MOL0     H67023  10.799   9.575   4.824 -2.4914  1.8907 -0.6884
  508MOL0     H67024  10.708   9.726   5.000 -2.5024  3.0279 -1.3552
  508MOL0     H67025  10.585   9.597   5.032  0.2702  2.3762  1.9683
  508MOL0     H67026  10.501   9.606   4.826  3.8915 -0.4488  0.0774
  508MOL0     H67027  10.586   9.736   4.757 -2.9307  1.8517 -0.8043
  508MOL0     H67028  10.422   9.754   5.021 -3.6558 -2.3974 -1.8227
  508MOL0     H67029  10.525   9.884   4.956  0.9299 -2.2034  0.5034
  508MOL0     H67030  10.285   9.745   4.819 -0.3583  0.0842 -1.6291
  508MOL0     H67031  10.375   9.893   4.759 -1.1750  1.7331  1.3351
  508MOL0     H67032  10.291  10.009   4.946  2.5389 -0.1076 -2.6803
  508MOL0     H67033  10.190   9.874   5.011 -0.3921  0.0624  0.2711
  508MOL0     H67034  10.159   9.981   4.724 -1.0462  3.1954  0.5452
  508MOL0     H67035  10.058   9.852   4.791 -2.1929  1.1255 -0.8189
  508MOL0     H67036  10.083  10.124   4.916 -2.5464  1.6089 -0.3387
  508MOL0     H67037   9.938  10.018   4.924 -1.2363 -3.3188 -2.9622
  508MOL0     H67038  10.519   9.385   4.982 -2.6873  0.0701  2.8078
  508MOL0     H67039  10.408   9.223   5.142 -0.5904  1.0644 -0.5560
  508MOL0     H67040  10.490   8.852   5.434  2.5657 -1.0561  1.8633
  508MOL0     H67041  10.456   8.713   5.591  1.3181  0.9148 -2.2501
  508MOL0     H67042  10.918   7.065   6.273  0.3028 -0.6780  4.0735
  508MOL0     H67043  11.059   6.876   6.324 -1.3547 -0.9006 -2.1543
  508MOL0     H67044  11.533   6.644   6.052 -0.1385  0.3056  0.6046
  508MOL0     H67045  11.660   6.444   6.112 -0.9880  0.5249 -0.5252
  508MOL0     H67046  11.871   6.366   6.266  3.0953 -0.4490  1.7994
  508MOL0     H67047  11.740   6.250   6.241  0.3796 -0.3785  0.8211
  508MOL0     H67048  11.956   6.166   6.333 -0.1545 -0.2318  0.5464
  508MOL0     H67049  11.932   6.260   6.477  0.3514  3.5924 -1.9801
  508MOL0     H67050  11.683   6.116   6.484  0.8780  1.3463  0.0540
  508MOL0     H67051  11.828   6.027   6.532 -0.9039 -0.8209  0.8225
  508MOL0     H67052  11.760   6.033   6.242  1.9188  0.2654 -0.3454
  508MOL0     H67053  11.866   5.920   6.329  0.3515  1.1948  1.2244
  508MOL0     H67054  11.501   5.738   6.384  3.8128 -4.4145 -0.1234
  508MOL0     H67055  11.618   6.592   6.532 -3.6770  0.9243  0.9572
  508MOL0     H67056  11.518   6.774   6.459 -3.3420 -2.5635  0.5290
  509MOL0     O67057   4.880   1.187   4.771 -0.4333  0.4863 -0.0833
  509MOL0     C67058   4.779   1.127   4.794 -0.1702  0.0001 -0.5116
  509MOL0     O67059   4.769   0.998   4.782  0.7670 -0.5753  0.3091
  509MOL0     C67060   4.872   0.936   4.730 -0.0967 -0.6715 -0.0668
  509MOL0     C67061   4.843   0.869   4.611 -0.6859  0.0120  0.5778
  509MOL0     C67062   4.933   0.777   4.558  0.2200 -0.3407 -0.0270
  509MOL0     C67063   5.063   0.759   4.619  0.5279  0.1705  0.5356
  509MOL0     O67064   5.148   0.663   4.554  0.0630 -1.1887  0.0165
  509MOL0     C67065   5.280   0.665   4.600 -0.8859  0.2601 -0.6717
  509MOL0     C67066   5.378   0.554   4.543  0.1143 -0.3753  0.3813
  509MOL0     C67067   5.517   0.548   4.597 -0.2822  0.0317  0.0711
  509MOL0     C67068   5.605   0.455   4.508  0.0031 -0.2502 -0.6214
  509MOL0     C67069   5.746   0.416   4.551 -0.9602  0.2485  0.3302
  509MOL0     C67070   5.765   0.378   4.698  0.1524  0.1447 -0.0030
  509MOL0     C67071   5.890   0.319   4.738 -0.2754 -0.6586 -0.8701
  509MOL0     C67072   5.896   0.183   4.814  0.8310 -0.4309  0.8001
  509MOL0     N67073   6.039   0.145   4.824  0.6242  0.2306 -1.3950
  509MOL0     C67074   6.089   0.020   4.808  0.1316 -0.5395 -0.3885
  509MOL0     C67075   6.207   0.020   4.870 -0.8822  0.7510 -0.5957
  509MOL0     C67076   6.289  -0.108   4.869 -0.9523  0.6375 -0.1418
  509MOL0     C67077   6.435  -0.073   4.921 -0.3612  0.2889 -0.0921
  509MOL0     C67078   6.527  -0.063   4.800 -0.1993 -0.6258  0.8942
  509MOL0     C67079   6.494   0.046   4.695  0.8794 -0.6591  0.9729
  509MOL0     O67080   6.612   0.088   4.622 -0.5952  0.5800  0.1216
  509MOL0     C67081   6.631   0.218   4.591 -0.6193  0.3698  1.2728
  509MOL0     C67082   6.771   0.260   4.578  0.2428 -0.2295 -0.0395
  509MOL0     C67083   6.795   0.395   4.533 -0.5012  0.1575 -0.1920
  509MOL0     C67084   6.688   0.484   4.519 -0.6668 -0.1802  0.2923
  509MOL0     C67085   6.721   0.624   4.500 -0.9830 -0.7050  0.6019
  509MOL0     O67086   6.854   0.660   4.501  0.0780 -0.2370 -0.0357
  509MOL0     C67087   6.884   0.792   4.474  0.4485 -0.9922  0.0285
  509MOL0     C67088   6.899   0.843   4.339 -0.0095 -0.4288  0.2427
  509MOL0     C67089   6.918   0.983   4.321  0.1656 -0.1262 -1.1367
  509MOL0     C67090   6.929   1.067   4.439 -1.0153 -1.7551  0.1336
  509MOL0     O67091   6.944   1.202   4.421  0.1711  0.3345  0.4754
  509MOL0     C67092   6.897   1.264   4.304 -0.1447  0.5031 -0.3973
  509MOL0     C67093   6.744   1.278   4.291 -0.5436  0.1989  0.1965
  509MOL0     C67094   6.696   1.275   4.135 -0.2250 -0.4548  0.1699
  509MOL0     C67095   6.722   1.412   4.064  0.3368  0.6617 -0.5336
  509MOL0     C67096   6.640   1.422   3.930 -0.2290 -0.4806  0.1214
  509MOL0     C67097   6.669   1.538   3.829  0.2420  0.1446  0.2283
  509MOL0     C67098   6.632   1.676   3.890  0.3517 -0.0292  0.1247
  509MOL0     C67099   6.676   1.782   3.797 -0.2443  0.1744 -0.2102
  509MOL0    Cl67100   6.647   1.935   3.867 -0.3910  0.1215 -0.7019
  509MOL0     C67101   6.907   1.016   4.575 -0.2580 -0.4403  0.5573
  509MOL0     C67102   6.885   0.881   4.590 -1.1518 -0.5024  0.3504
  509MOL0     O67103   6.625   0.700   4.480  0.3688 -0.0767  0.0860
  509MOL0     C67104   6.559   0.441   4.536 -0.0091  0.4818 -0.0114
  509MOL0     C67105   6.532   0.309   4.569  0.5066  0.5682 -0.6456
  509MOL0     N67106   6.234   0.136   4.939  0.9852 -0.1115 -0.1854
  509MOL0     N67107   6.134   0.215   4.902 -1.1167  0.0944 -0.3846
  509MOL0     C67108   5.086   0.818   4.744 -0.3612 -0.0896 -0.4228
  509MOL0     C67109   4.989   0.905   4.797  0.6219  0.7594 -0.6709
  509MOL0     C67110   4.665   1.205   4.851 -0.5598 -0.4606 -0.7103
  509MOL0     C67111   4.667   1.348   4.838  0.0003  0.0938 -0.4689
  509MOL0     C67112   4.557   1.420   4.871 -0.4519 -0.9370  0.8275
  509MOL0     C67113   4.442   1.363   4.925  0.3805 -0.4752  0.1996
  509MOL0     O67114   4.322   1.423   4.951 -1.1792  0.4199 -0.4118
  509MOL0     C67115   4.298   1.558   4.940  0.0150  0.5860  0.2597
  509MOL0     C67116   4.204   1.606   5.052  0.0061 -0.2780 -0.0987
  509MOL0     C67117   4.254   1.573   5.194 -0.1789  0.6645 -0.1008
  509MOL0     C67118   4.399   1.593   5.236  0.0405 -0.4991  0.0819
  509MOL0     C67119   4.431   1.732   5.233  0.6032  1.4971 -0.3564
  509MOL0     C67120   4.472   1.841   5.242 -0.6491 -0.2692 -0.2680
  509MOL0     C67121   4.440   1.226   4.940  0.0492 -0.6303  0.0013
  509MOL0     C67122   4.552   1.142   4.907 -0.3595 -0.1342 -0.6787
  509MOL0     H67123   4.754   0.891   4.552  0.4376 -2.5779 -2.3611
  509MOL0     H67124   4.922   0.728   4.462 -0.4100 -1.2276  0.4809
  509MOL0     H67125   5.277   0.653   4.709 -2.2479  3.3809 -0.2484
  509MOL0     H67126   5.318   0.761   4.565  0.8852 -0.4967 -0.9410
  509MOL0     H67127   5.397   0.571   4.436  1.5856 -0.2346  0.6438
  509MOL0     H67128   5.333   0.457   4.564 -2.4861  1.3609  3.8714
  509MOL0     H67129   5.524   0.520   4.703  0.3716 -0.2461 -0.0382
  509MOL0     H67130   5.572   0.642   4.596 -0.4964  0.1627  0.4031
  509MOL0     H67131   5.546   0.364   4.494  0.0970 -0.6925  1.5986
  509MOL0     H67132   5.612   0.502   4.409 -0.4060 -0.7496 -0.8936
  509MOL0     H67133   5.818   0.495   4.527  0.5376 -1.6043 -1.5798
  509MOL0     H67134   5.787   0.341   4.483  0.0473 -0.1303  1.3223
  509MOL0     H67135   5.684   0.313   4.734  1.8818 -0.9447  2.1800
  509MOL0     H67136   5.753   0.468   4.758 -0.6465 -0.4159  0.7067
  509MOL0     H67137   5.951   0.307   4.648 -1.2906 -3.8531 -1.2737
  509MOL0     H67138   5.929   0.397   4.804  1.2040 -0.8919 -1.4244
  509MOL0     H67139   5.849   0.100   4.761  1.6621 -2.8532  3.5831
  509MOL0     H67140   5.843   0.195   4.909 -4.4561  5.2161 -2.1060
  509MOL0     H67141   6.041  -0.065   4.761  2.2726 -1.3974 -1.1757
  509MOL0     H67142   6.295  -0.157   4.771  1.2159  0.1485  0.1887
  509MOL0     H67143   6.242  -0.176   4.941  4.6267 -0.7066  2.8124
  509MOL0     H67144   6.467  -0.163   4.975 -0.2813 -0.3774 -1.2186
  509MOL0     H67145   6.450   0.013   4.987 -0.0692  1.1285 -1.2273
  509MOL0     H67146   6.628  -0.055   4.839  0.6086 -1.3827 -0.9157
  509MOL0     H67147   6.533  -0.155   4.741  0.4797  1.3332 -2.3425
  509MOL0     H67148   6.446   0.133   4.740  4.1460  1.5539  0.4990
  509MOL0     H67149   6.423   0.005   4.623  1.7487 -1.3331  0.4810
  509MOL0     H67150   6.850   0.194   4.611 -1.1239 -0.9616  1.9291
  509MOL0     H67151   6.901   0.413   4.520  0.4000 -4.0230 -0.1943
  509MOL0     H67152   6.887   0.776   4.255 -2.0220  0.8583 -0.5700
  509MOL0     H67153   6.936   1.029   4.225  0.2222  4.8956  0.9711
  509MOL0     H67154   6.930   1.218   4.211 -0.6179 -0.8661  0.0877
  509MOL0     H67155   6.934   1.367   4.306  2.2940 -0.1942 -3.0452
  509MOL0     H67156   6.714   1.373   4.334  1.0851  1.6377 -1.6268
  509MOL0     H67157   6.682   1.201   4.338 -2.4341  2.5652  1.7640
  509MOL0     H67158   6.588   1.263   4.125 -0.3657  0.3782  0.6676
  509MOL0     H67159   6.737   1.186   4.085 -1.7220  0.1812 -2.3798
  509MOL0     H67160   6.712   1.502   4.126  0.2494  2.4690 -3.0365
  509MOL0     H67161   6.825   1.421   4.028 -0.5381 -0.6069 -3.6470
  509MOL0     H67162   6.533   1.442   3.940  0.0825  1.9254 -0.6025
  509MOL0     H67163   6.647   1.325   3.880 -0.4336 -2.0681  2.9984
  509MOL0     H67164   6.615   1.523   3.735  1.9278  3.1217 -1.3706
  509MOL0     H67165   6.775   1.533   3.802 -0.0414  0.4791 -0.9954
  509MOL0     H67166   6.525   1.681   3.911 -0.0496 -1.3948 -1.3858
  509MOL0     H67167   6.691   1.691   3.981 -0.7049 -0.0802  0.8315
  509MOL0     H67168   6.622   1.765   3.704 -0.3669 -3.4928  0.3895
  509MOL0     H67169   6.782   1.780   3.771  0.3916  0.5602  2.0769
  509MOL0     H67170   6.889   1.091   4.651 -1.4215  2.0776 -1.9986
  509MOL0     H67171   6.854   0.828   4.679 -0.8863 -3.9056 -1.4043
  509MOL0     H67172   6.473   0.507   4.539 -2.3867 -2.3794  0.6169
  509MOL0     H67173   6.429   0.274   4.577  0.4612  0.5649 -1.1682
  509MOL0     H67174   5.177   0.800   4.800 -1.4834 -1.2269  1.1460
  509MOL0     H67175   5.001   0.963   4.888 -1.8204  1.7206 -0.8758
  509MOL0     H67176   4.755   1.400   4.802  1.9269 -2.1825  0.7118
  509MOL0     H67177   4.563   1.526   4.847  1.7606 -1.9704 -4.7640
  509MOL0     H67178   4.260   1.564   4.838  0.6407 -1.0544 -0.1023
  509MOL0     H67179   4.386   1.623   4.944  0.5431 -0.1510  1.4498
  509MOL0     H67180   4.198   1.715   5.047 -3.6887 -0.1416  2.7509
  509MOL0     H67181   4.100   1.572   5.048  0.6234 -2.1489 -2.3399
  509MOL0     H67182   4.233   1.466   5.205  0.7227  0.7315  3.6081
  509MOL0     H67183   4.194   1.630   5.266  2.5965  2.3224  1.0714
  509MOL0     H67184   4.426   1.542   5.329 -1.1564 -0.6977  0.3315
  509MOL0     H67185   4.462   1.542   5.162  0.0880  0.9276 -0.8964
  509MOL0     H67186   4.500   1.944   5.234 -3.3967  0.5665 -0.0078
  509MOL0     H67187   4.357   1.182   4.995  0.3797 -0.1053  0.9491
  509MOL0     H67188   4.547   1.033   4.904 -0.7945 -0.2159  1.4687
  510MOL0     O67189   6.067   2.399   8.421 -0.3634  0.3017  0.9004
  510MOL0     C67190   6.004   2.400   8.322 -0.0865 -0.2058  0.3985
  510MOL0     O67191   5.988   2.506   8.236 -1.1267 -0.0350  0.3102
  510MOL0     C67192   6.067   2.607   8.234 -0.2819  0.9390  0.0918
  510MOL0     C67193   6.063   2.697   8.345  0.6928  0.9090  0.9140
  510MOL0     C67194   6.123   2.825   8.326 -0.0852 -0.4465 -0.3044
  510MOL0     C67195   6.202   2.849   8.216  0.3065  0.2256  0.8868
  510MOL0     O67196   6.262   2.961   8.178  0.3983  0.6392  0.4922
  510MOL0     C67197   6.330   3.045   8.268 -0.1429  0.2687  0.0018
  510MOL0     C67198   6.481   3.003   8.284 -0.7744 -0.3504 -0.5575
  510MOL0     C67199   6.569   3.117   8.338 -0.2741  1.3811 -0.0306
  510MOL0     C67200   6.721   3.084   8.350  0.1443  0.2048  0.0436
  510MOL0     C67201   6.796   3.177   8.456 -0.2657  0.5443  0.4897
  510MOL0     C67202   6.820   3.318   8.395  0.4287  0.8563  0.1767
  510MOL0     C67203   6.904   3.404   8.500 -0.3417 -0.0900  0.1981
  510MOL0     C67204   6.940   3.542   8.439  0.5433 -0.0538 -0.0634
  510MOL0     N67205   6.828   3.624   8.389 -0.4784  0.5927  1.1415
  510MOL0     C67206   6.788   3.614   8.257  1.2781  0.4226 -0.6701
  510MOL0     C67207   6.667   3.669   8.257  0.5473 -1.4148  0.9850
  510MOL0     C67208   6.594   3.696   8.126  0.0679  0.3683 -0.1697
  510MOL0     C67209   6.623   3.829   8.048  0.2376  0.2237 -0.3751
  510MOL0     C67210   6.746   3.820   7.959 -0.0606  0.1525  0.4846
  510MOL0     C67211   6.800   3.954   7.917  0.9347 -0.3611  0.5132
  510MOL0     O67212   6.858   4.022   8.030 -0.0821  0.1870  0.2157
  510MOL0     C67213   6.880   4.151   7.997  0.3397  0.3454 -0.5634
  510MOL0     C67214   7.005   4.192   7.952  0.4978 -0.1906  0.1302
  510MOL0     C67215   7.044   4.324   7.937 -0.2519 -0.2832  0.1943
  510MOL0     C67216   6.955   4.430   7.980 -0.9882 -0.3348 -0.5855
  510MOL0     C67217   6.989   4.571   7.975  0.2425  1.6447  0.4694
  510MOL0     O67218   6.876   4.655   7.972  0.9858 -0.2764 -0.8456
  510MOL0     C67219   6.898   4.790   7.950  0.5560 -0.6077 -0.3415
  510MOL0     C67220   6.877   4.845   7.820  0.0335  0.4208 -0.3160
  510MOL0     C67221   6.907   4.980   7.792 -0.0752  0.2594 -0.2433
  510MOL0     C67222   6.955   5.061   7.896 -1.6527 -0.1125  0.3044
  510MOL0     O67223   7.002   5.197   7.880  0.3085 -0.0624  0.0541
  510MOL0     C67224   7.039   5.248   7.752 -0.3390  1.0647 -0.3861
  510MOL0     C67225   6.909   5.292   7.690 -0.1305  0.0671 -0.3102
  510MOL0     C67226   6.930   5.320   7.551  0.4750 -0.0299  0.8499
  510MOL0     C67227   6.826   5.406   7.484  1.3024 -0.2880  0.1896
  510MOL0     C67228   6.696   5.330   7.441 -0.0502 -0.5815 -0.1900
  510MOL0     C67229   6.585   5.417   7.377  1.1535 -0.1573  0.0301
  510MOL0     C67230   6.644   5.465   7.237  0.4873  0.0847 -0.7303
  510MOL0     C67231   6.536   5.534   7.162  0.0070 -0.8695 -0.5427
  510MOL0    Cl67232   6.393   5.438   7.112 -0.5812 -0.2452  0.2544
  510MOL0     C67233   6.980   5.003   8.024  0.2568 -0.1043 -0.0901
  510MOL0     C67234   6.955   4.868   8.047 -0.0234  0.1831 -0.0581
  510MOL0     O67235   7.110   4.594   7.968 -0.0018 -0.6760  0.2662
  510MOL0     C67236   6.828   4.386   8.027  0.2545 -0.3601 -0.1878
  510MOL0     C67237   6.786   4.255   8.019 -0.3212  0.4056 -0.1434
  510MOL0     N67238   6.630   3.715   8.383 -0.0719  0.3487 -0.3249
  510MOL0     N67239   6.736   3.694   8.461  0.4178  0.8256 -0.0987
  510MOL0     C67240   6.219   2.752   8.122 -1.0715 -0.2006 -0.0852
  510MOL0     C67241   6.144   2.631   8.120  0.5777  0.4028 -0.1634
  510MOL0     C67242   5.933   2.281   8.272  0.3028  0.0602  0.2057
  510MOL0     C67243   5.903   2.182   8.365 -0.3777 -0.0494 -0.0458
  510MOL0     C67244   5.854   2.063   8.310  1.0843 -0.2218  0.3667
  510MOL0     C67245   5.818   2.055   8.172  0.1495  0.0105  0.1593
  510MOL0     O67246   5.765   1.946   8.110  0.5579  0.0153 -0.9074
  510MOL0     C67247   5.791   1.823   8.176  0.4138  0.1823  0.9342
  510MOL0     C67248   5.725   1.708   8.104  0.2664  0.1669  0.5837
  510MOL0     C67249   5.753   1.581   8.171 -0.0085  0.5484 -0.2937
  510MOL0     C67250   5.685   1.467   8.086  0.8899 -0.2408 -0.3885
  510MOL0     C67251   5.706   1.461   7.931 -0.1188  0.3739 -0.5369
  510MOL0     C67252   5.729   1.465   7.812  0.6104 -0.9411  0.2585
  510MOL0     C67253   5.830   2.168   8.092  0.1154 -0.3544 -0.2999
  510MOL0     C67254   5.896   2.274   8.139  0.0994 -0.9405  0.3669
  510MOL0     H67255   5.992   2.676   8.425  0.4448 -0.9734  0.2563
  510MOL0     H67256   6.111   2.913   8.388 -0.2180 -0.4508 -0.3224
  510MOL0     H67257   6.275   3.042   8.363 -0.7446  0.6007 -0.3335
  510MOL0     H67258   6.337   3.140   8.215  2.1933  1.0476  1.5368
  510MOL0     H67259   6.527   2.972   8.190 -0.3224  0.9368 -0.7798
  510MOL0     H67260   6.492   2.922   8.357  0.6227 -1.3127 -1.7722
  510MOL0     H67261   6.546   3.155   8.438  3.5762 -2.0195  2.4209
  510MOL0     H67262   6.557   3.197   8.263 -0.1464 -0.1586 -1.7603
  510MOL0     H67263   6.729   2.978   8.374  2.5367  0.9861  3.3500
  510MOL0     H67264   6.756   3.089   8.246  0.2638 -3.8263 -0.2777
  510MOL0     H67265   6.896   3.137   8.480 -0.2134 -0.7291 -1.5413
  510MOL0     H67266   6.739   3.183   8.549 -0.6380 -3.0984  0.6482
  510MOL0     H67267   6.723   3.360   8.368  0.5095 -1.0171 -3.6722
  510MOL0     H67268   6.872   3.317   8.299 -0.2795 -0.3760 -0.2150
  510MOL0     H67269   6.824   3.423   8.572 -2.2976  3.0016 -2.4789
  510MOL0     H67270   6.989   3.352   8.546 -0.6947 -0.7114  0.1595
  510MOL0     H67271   6.996   3.521   8.347  0.2060 -0.5409 -0.1620
  510MOL0     H67272   7.009   3.596   8.505  2.3254  0.3637 -2.1440
  510MOL0     H67273   6.836   3.563   8.173  0.9331  0.9831 -1.2174
  510MOL0     H67274   6.486   3.696   8.142  0.1566  0.8890  0.4759
  510MOL0     H67275   6.604   3.618   8.051 -1.1146 -1.2700  1.2897
  510MOL0     H67276   6.628   3.916   8.114  1.2159  1.3468 -1.8576
  510MOL0     H67277   6.536   3.838   7.983  0.3413 -0.3391 -0.6029
  510MOL0     H67278   6.827   3.768   8.010 -1.2166  0.8702  3.2370
  510MOL0     H67279   6.717   3.762   7.870  2.6564 -2.0308  0.8774
  510MOL0     H67280   6.716   4.010   7.874  1.7190 -1.5463 -2.8323
  510MOL0     H67281   6.871   3.944   7.835  1.1199 -0.4746  0.6860
  510MOL0     H67282   7.078   4.116   7.927 -1.4844 -2.8838  2.0300
  510MOL0     H67283   7.148   4.332   7.907  0.2762 -2.7050  1.1288
  510MOL0     H67284   6.847   4.772   7.746  0.1220 -0.2259  0.2757
  510MOL0     H67285   6.903   5.027   7.695 -1.3579  2.4109  0.7648
  510MOL0     H67286   7.084   5.171   7.690  2.3059  2.6676 -0.5876
  510MOL0     H67287   7.115   5.326   7.765  0.9716 -0.2770  0.2980
  510MOL0     H67288   6.877   5.378   7.750 -0.6097 -0.0279 -0.4259
  510MOL0     H67289   6.825   5.223   7.700 -1.9914  2.0801 -1.1299
  510MOL0     H67290   6.940   5.224   7.499  2.4898  1.7925 -2.5239
  510MOL0     H67291   7.021   5.377   7.529  1.0089 -1.7249 -1.8575
  510MOL0     H67292   6.802   5.498   7.538 -0.4892 -0.7490  0.2384
  510MOL0     H67293   6.875   5.452   7.398 -0.2678  0.8767 -0.1221
  510MOL0     H67294   6.655   5.266   7.520  0.1040 -1.6899 -0.9881
  510MOL0     H67295   6.731   5.259   7.366  3.9404  0.4479  0.4951
  510MOL0     H67296   6.565   5.504   7.440 -1.9353 -3.0531  3.5188
  510MOL0     H67297   6.494   5.357   7.362  2.5189 -1.9315 -1.8348
  510MOL0     H67298   6.722   5.541   7.248 -2.0688  3.0727 -1.6728
  510MOL0     H67299   6.675   5.377   7.180 -2.9243 -0.2944 -2.1917
  510MOL0     H67300   6.566   5.583   7.069  0.2095  0.2908  0.1063
  510MOL0     H67301   6.502   5.617   7.225  0.5218 -1.5214  0.6265
  510MOL0     H67302   7.035   5.059   8.099 -1.1039 -1.2949  1.8678
  510MOL0     H67303   6.989   4.826   8.141  0.5301  1.3196  0.2714
  510MOL0     H67304   6.741   4.448   8.048  0.7980  0.1731  0.5393
  510MOL0     H67305   6.690   4.229   8.063  1.1265 -0.8494  2.4544
  510MOL0     H67306   6.283   2.776   8.038 -0.6765  0.3635  0.3664
  510MOL0     H67307   6.131   2.566   8.034 -2.5798  2.5133 -1.4738
  510MOL0     H67308   5.927   2.176   8.470  1.8029 -2.1901 -0.5875
  510MOL0     H67309   5.852   1.979   8.379  1.0618 -2.3686 -2.1347
  510MOL0     H67310   5.755   1.815   8.279 -0.8943 -1.4498  0.3912
  510MOL0     H67311   5.897   1.795   8.176  1.0192  2.2805  1.5256
  510MOL0     H67312   5.617   1.721   8.096  0.2328 -0.1535  0.4877
  510MOL0     H67313   5.769   1.703   8.003 -1.2351  1.8499 -0.1950
  510MOL0     H67314   5.723   1.574   8.276  3.5115 -3.7422  0.7502
  510MOL0     H67315   5.862   1.579   8.166 -0.0471 -1.2656 -3.1646
  510MOL0     H67316   5.719   1.377   8.138  2.5651  1.5575  1.8709
  510MOL0     H67317   5.579   1.472   8.114  1.0214  1.9521 -0.1029
  510MOL0     H67318   5.748   1.458   7.707 -2.4762  2.4261 -0.7094
  510MOL0     H67319   5.798   2.161   7.988  0.4482 -2.1827 -0.3123
  510MOL0     H67320   5.921   2.349   8.064  1.7525 -2.1092 -0.3055
  511MOL0     O67321   8.082   7.136   0.367 -0.6112  0.4781 -0.4017
  511MOL0     C67322   8.052   7.056   0.450  0.1772  1.1159  0.4224
  511MOL0     O67323   8.131   7.026   0.557 -0.7835  0.5976 -0.0926
  511MOL0     C67324   8.242   7.106   0.589  0.0883 -0.7395 -0.5337
  511MOL0     C67325   8.351   7.039   0.650 -0.2499  0.6840  1.0042
  511MOL0     C67326   8.473   7.111   0.679 -0.1940  0.1712  0.4958
  511MOL0     C67327   8.491   7.240   0.629  0.5767 -0.4078  0.6363
  511MOL0     O67328   8.618   7.298   0.644 -0.0076 -0.7537 -0.1502
  511MOL0     C67329   8.643   7.422   0.587  0.0914 -0.9367  0.1352
  511MOL0     C67330   8.788   7.479   0.602  0.7589  1.1527  0.1371
  511MOL0     C67331   8.842   7.558   0.480 -0.5142 -0.3033 -0.7635
  511MOL0     C67332   8.971   7.628   0.518  0.5759 -0.9898  0.4820
  511MOL0     C67333   9.031   7.705   0.400  0.4258 -1.2087 -0.3886
  511MOL0     C67334   9.170   7.767   0.439  0.5188 -0.1097 -0.3177
  511MOL0     C67335   9.237   7.833   0.324 -0.3708  0.2128 -0.7702
  511MOL0     C67336   9.364   7.890   0.393  0.4816  0.7953 -0.0687
  511MOL0     N67337   9.453   7.960   0.294  0.7570 -0.7149 -0.7482
  511MOL0     C67338   9.564   7.906   0.252 -0.7399  0.9395  1.1670
  511MOL0     C67339   9.592   7.988   0.142  0.5117 -0.6853 -0.8774
  511MOL0     C67340   9.725   7.977   0.079  0.4142  0.2635  0.6031
  511MOL0     C67341   9.745   7.832   0.038  0.0416 -0.9057  0.3912
  511MOL0     C67342   9.880   7.831  -0.043 -0.4335 -0.5285 -0.3694
  511MOL0     C67343   9.901   7.705  -0.128  0.1610 -0.6043 -0.7012
  511MOL0     O67344   9.789   7.692  -0.218  0.0438 -0.4611 -0.0498
  511MOL0     C67345   9.762   7.584  -0.299  0.8336  0.8647 -0.5673
  511MOL0     C67346   9.639   7.581  -0.368 -0.5033 -0.5787 -0.0326
  511MOL0     C67347   9.589   7.474  -0.443 -0.2976  0.6183 -0.2758
  511MOL0     C67348   9.671   7.361  -0.466 -0.1197  0.1157  1.2376
  511MOL0     C67349   9.625   7.245  -0.541 -0.7839  0.1561 -0.1605
  511MOL0     O67350   9.505   7.252  -0.599 -0.2987  0.6985  0.0558
  511MOL0     C67351   9.462   7.140  -0.659 -0.7613  0.4522 -0.1769
  511MOL0     C67352   9.542   7.073  -0.754  0.0937 -0.1576 -0.9259
  511MOL0     C67353   9.489   6.965  -0.822 -0.2243 -0.6554  0.0798
  511MOL0     C67354   9.356   6.925  -0.804  0.2906  0.3903 -0.0056
  511MOL0     O67355   9.319   6.816  -0.877 -0.3800  0.0442 -0.7734
  511MOL0     C67356   9.198   6.742  -0.850 -0.6635 -0.4211 -0.4372
  511MOL0     C67357   9.222   6.592  -0.870  0.4469  0.0323 -0.5086
  511MOL0     C67358   9.327   6.516  -0.784  0.0456 -0.4935 -0.0400
  511MOL0     C67359   9.315   6.371  -0.824 -0.5061  0.2231 -0.4926
  511MOL0     C67360   9.416   6.283  -0.755  0.4867  0.4222 -0.8091
  511MOL0     C67361   9.559   6.309  -0.787  0.7926  0.5950  0.0525
  511MOL0     C67362   9.647   6.212  -0.726  0.1267  0.0409 -1.3154
  511MOL0     C67363   9.790   6.246  -0.745 -0.2910 -0.5409 -0.5646
  511MOL0    Cl67364   9.889   6.116  -0.675  0.2091  0.1333 -0.0998
  511MOL0     C67365   9.283   6.995  -0.711 -0.3597  1.5403  0.9678
  511MOL0     C67366   9.328   7.102  -0.646 -0.2298 -0.2368 -0.1318
  511MOL0     O67367   9.687   7.144  -0.520  0.6897  0.1591  0.1189
  511MOL0     C67368   9.789   7.355  -0.382  0.1184  0.1117  0.8353
  511MOL0     C67369   9.833   7.467  -0.303 -0.4281 -0.4700 -0.8911
  511MOL0     N67370   9.503   8.093   0.136 -0.5609 -0.4194 -0.3468
  511MOL0     N67371   9.420   8.073   0.228  0.9612 -0.3434  0.0012
  511MOL0     C67372   8.380   7.304   0.561 -0.0609 -0.1756 -0.3790
  511MOL0     C67373   8.258   7.245   0.553 -0.5726 -0.4205  0.7193
  511MOL0     C67374   7.941   6.958   0.429  0.4420 -0.6545 -0.0909
  511MOL0     C67375   7.938   6.833   0.486  1.4104 -0.1165 -0.7628
  511MOL0     C67376   7.833   6.748   0.456 -0.4888  0.3093  0.0959
  511MOL0     C67377   7.740   6.767   0.354  0.1388 -0.2892  0.7315
  511MOL0     O67378   7.640   6.678   0.320 -0.1423  0.2651 -0.0884
  511MOL0     C67379   7.659   6.545   0.369 -0.3701  0.5575  0.5093
  511MOL0     C67380   7.553   6.457   0.314 -0.2663 -0.0187  0.1664
  511MOL0     C67381   7.555   6.321   0.373 -0.6590  0.2179  0.1362
  511MOL0     C67382   7.487   6.300   0.510 -0.0455 -0.1479 -0.4200
  511MOL0     C67383   7.343   6.287   0.495  0.4525 -0.2069 -0.0072
  511MOL0     C67384   7.230   6.266   0.459  0.9212 -0.2208 -0.3673
  511MOL0     C67385   7.741   6.894   0.303  0.2456 -0.0769  0.6050
  511MOL0     C67386   7.834   6.992   0.346  0.2595  0.8028  0.0349
  511MOL0     H67387   8.345   6.932   0.666  0.4674 -0.1005 -2.8863
  511MOL0     H67388   8.542   7.049   0.735 -0.6637 -1.9620 -1.1769
  511MOL0     H67389   8.565   7.488   0.627 -1.4820 -1.5800 -1.7098
  511MOL0     H67390   8.607   7.428   0.484 -1.8965  1.0552  0.8561
  511MOL0     H67391   8.860   7.403   0.633  1.1432  1.4215 -0.0907
  511MOL0     H67392   8.782   7.547   0.687  1.1096  0.4084  0.7787
  511MOL0     H67393   8.764   7.631   0.459 -0.7522 -0.5913 -0.8884
  511MOL0     H67394   8.863   7.492   0.395  2.3759  0.7725 -1.0095
  511MOL0     H67395   8.961   7.713   0.587  0.4715  1.3597 -2.2459
  511MOL0     H67396   9.048   7.558   0.554 -0.8483 -1.4566  2.8873
  511MOL0     H67397   8.971   7.793   0.375  2.5207  0.2208 -0.6623
  511MOL0     H67398   9.036   7.635   0.316  0.6382 -1.6941  0.0266
  511MOL0     H67399   9.239   7.697   0.486  1.1390  0.8657  0.2669
  511MOL0     H67400   9.155   7.846   0.513 -0.3590 -1.3210  0.8473
  511MOL0     H67401   9.262   7.773   0.236 -0.6726 -1.3883  0.1975
  511MOL0     H67402   9.175   7.918   0.292  2.0932  2.9371  1.0745
  511MOL0     H67403   9.418   7.800   0.425 -1.4816 -0.4757 -0.1944
  511MOL0     H67404   9.339   7.954   0.478 -0.2027 -0.7403  0.9374
  511MOL0     H67405   9.612   7.815   0.286 -2.1372 -0.9551 -1.5542
  511MOL0     H67406   9.796   8.014   0.154  1.0899 -2.3619  1.3407
  511MOL0     H67407   9.721   8.038  -0.012  0.0351  0.3798  0.6997
  511MOL0     H67408   9.658   7.800  -0.020 -1.3697 -0.9531  2.4186
  511MOL0     H67409   9.751   7.778   0.133 -0.2598  1.3701  1.7616
  511MOL0     H67410   9.882   7.919  -0.108  2.3984 -1.0915 -1.1537
  511MOL0     H67411   9.968   7.843   0.020 -0.7626 -1.3496  0.2568
  511MOL0     H67412   9.912   7.610  -0.075 -2.2321 -0.4202  0.2824
  511MOL0     H67413   9.996   7.723  -0.177 -0.1213 -0.1199 -1.0819
  511MOL0     H67414   9.572   7.666  -0.368  0.1204 -0.0561  1.3062
  511MOL0     H67415   9.490   7.486  -0.485  0.0831 -1.2656 -1.9017
  511MOL0     H67416   9.646   7.100  -0.770  0.3801 -0.5246  0.2425
  511MOL0     H67417   9.547   6.906  -0.892 -0.9460 -0.0092 -1.0942
  511MOL0     H67418   9.130   6.783  -0.926 -0.6447  1.2803  0.4211
  511MOL0     H67419   9.156   6.753  -0.750  1.4656  1.7252  0.2972
  511MOL0     H67420   9.250   6.587  -0.975  0.8938  0.3437 -0.4117
  511MOL0     H67421   9.128   6.541  -0.848  1.2520 -0.4484  2.2374
  511MOL0     H67422   9.303   6.535  -0.678 -0.3217 -1.6212  0.0874
  511MOL0     H67423   9.418   6.570  -0.810 -1.4162  4.0313  2.9630
  511MOL0     H67424   9.215   6.339  -0.795 -0.3935  1.5876  1.6241
  511MOL0     H67425   9.333   6.359  -0.931  2.2070 -3.2786  0.1699
  511MOL0     H67426   9.382   6.182  -0.781  0.9641  0.0115  0.1091
  511MOL0     H67427   9.403   6.305  -0.649 -2.5060 -1.0049 -0.7726
  511MOL0     H67428   9.586   6.406  -0.745  0.7116  0.3581  0.6665
  511MOL0     H67429   9.572   6.309  -0.896 -1.1873 -0.7817 -0.2463
  511MOL0     H67430   9.622   6.202  -0.620  0.2023  0.8005 -1.2213
  511MOL0     H67431   9.619   6.110  -0.754 -0.0107 -1.2276  2.7918
  511MOL0     H67432   9.810   6.338  -0.691  1.1613 -1.1170 -0.0692
  511MOL0     H67433   9.818   6.251  -0.850  3.2928  1.2759  0.3278
  511MOL0     H67434   9.178   6.969  -0.700 -0.5044  2.1145  0.9615
  511MOL0     H67435   9.259   7.158  -0.583  1.1609  0.0568  1.1795
  511MOL0     H67436   9.847   7.263  -0.385 -0.8525 -0.4996 -1.2631
  511MOL0     H67437   9.925   7.462  -0.245 -0.9560 -1.1183 -0.0841
  511MOL0     H67438   8.387   7.404   0.521  0.4301  0.2037  0.6183
  511MOL0     H67439   8.183   7.310   0.508  0.2359 -1.9344 -3.2104
  511MOL0     H67440   8.023   6.808   0.549  0.1206  1.6733  1.8936
  511MOL0     H67441   7.827   6.653   0.508  3.3983  0.0068  0.2526
  511MOL0     H67442   7.647   6.548   0.478  1.4597 -0.6643  0.7807
  511MOL0     H67443   7.760   6.507   0.353 -0.0706  1.3128  0.5592
  511MOL0     H67444   7.464   6.518   0.335  0.9674  2.6315 -1.7312
  511MOL0     H67445   7.554   6.448   0.205  0.4863  3.2829 -0.2246
  511MOL0     H67446   7.662   6.298   0.378 -0.2656  1.0083 -2.7777
  511MOL0     H67447   7.503   6.253   0.306 -5.7280  2.1738  1.6395
  511MOL0     H67448   7.522   6.209   0.559 -2.5610 -0.2351  1.4670
  511MOL0     H67449   7.520   6.375   0.583 -0.0391  0.9057 -1.4758
  511MOL0     H67450   7.126   6.260   0.432  1.3307  2.2405 -2.9065
  511MOL0     H67451   7.666   6.932   0.234 -1.8360 -3.4813  0.8072
  511MOL0     H67452   7.832   7.088   0.295  1.3436 -0.1716 -1.9274
  512MOL0     O67453   5.625   5.296   9.621  0.7264 -0.5880  0.3282
  512MOL0     C67454   5.570   5.401   9.580  0.2614  0.0876 -1.1137
  512MOL0     O67455   5.627   5.509   9.529  0.1397  0.6221  0.3822
  512MOL0     C67456   5.743   5.497   9.445  0.4197 -0.0162 -0.2297
  512MOL0     C67457   5.846   5.414   9.486 -0.4235  0.9083  0.7033
  512MOL0     C67458   5.969   5.403   9.408 -0.1905 -0.3136 -0.2412
  512MOL0     C67459   5.964   5.473   9.286 -0.1051  0.2153 -0.3657
  512MOL0     O67460   6.073   5.437   9.215  0.3807  0.2840 -0.5702
  512MOL0     C67461   6.137   5.533   9.137 -0.1093 -0.4213 -0.3658
  512MOL0     C67462   6.139   5.497   8.982 -0.3185 -0.1980 -0.1290
  512MOL0     C67463   6.196   5.362   8.942 -0.3651 -0.5770  0.2431
  512MOL0     C67464   6.216   5.357   8.788  0.0807  0.7890 -0.4927
  512MOL0     C67465   6.353   5.411   8.742  0.2395  0.7529 -0.3789
  512MOL0     C67466   6.412   5.353   8.614  0.9550 -0.4754  0.4604
  512MOL0     C67467   6.303   5.344   8.498  0.1046  0.2581  0.2938
  512MOL0     C67468   6.227   5.475   8.469 -0.2311 -0.1760 -0.1969
  512MOL0     N67469   6.305   5.572   8.393  0.0095  0.1660  0.5359
  512MOL0     C67470   6.328   5.694   8.445 -0.1565 -0.3862  0.4226
  512MOL0     C67471   6.375   5.772   8.336 -0.1338  0.4419  0.2174
  512MOL0     C67472   6.400   5.919   8.345 -0.6338 -0.1259  0.7549
  512MOL0     C67473   6.320   5.999   8.246  0.0424 -0.2384  0.0891
  512MOL0     C67474   6.291   6.134   8.299  0.7617 -0.4246 -0.4029
  512MOL0     C67475   6.170   6.200   8.237 -0.1790  0.5622 -0.1040
  512MOL0     O67476   6.134   6.315   8.310  0.1075  0.2846  0.4348
  512MOL0     C67477   6.027   6.396   8.273 -0.9882 -0.3215 -0.5038
  512MOL0     C67478   6.002   6.512   8.350 -0.3302  0.4823  0.2547
  512MOL0     C67479   5.889   6.587   8.328  0.1035  0.1549 -0.3341
  512MOL0     C67480   5.813   6.560   8.223  0.9130 -0.1541  0.3212
  512MOL0     C67481   5.699   6.654   8.199 -0.2831 -0.5260  0.7099
  512MOL0     O67482   5.627   6.629   8.096 -0.1428  0.4199  0.3553
  512MOL0     C67483   5.537   6.718   8.052  0.3901 -1.0799  0.3701
  512MOL0     C67484   5.568   6.799   7.944  0.1066 -0.1189  0.5361
  512MOL0     C67485   5.471   6.883   7.884  0.3728 -0.2107  0.5852
  512MOL0     C67486   5.344   6.894   7.942 -0.4448 -0.2282  0.3835
  512MOL0     O67487   5.260   7.002   7.905  0.0464 -0.2861 -0.2074
  512MOL0     C67488   5.137   7.024   7.967  0.1541 -0.4318 -0.1119
  512MOL0     C67489   5.059   7.135   7.900  0.0338 -0.8064 -0.2268
  512MOL0     C67490   5.074   7.147   7.741  0.6105  0.0918  0.3726
  512MOL0     C67491   5.194   7.236   7.706  0.5562  0.1170  0.1219
  512MOL0     C67492   5.224   7.240   7.550  0.1693 -0.0766  0.3107
  512MOL0     C67493   5.334   7.139   7.511 -0.5209  0.1394 -0.2067
  512MOL0     C67494   5.283   7.006   7.446  0.2650 -0.3016 -0.0498
  512MOL0     C67495   5.399   6.934   7.371 -0.5578 -0.0092  0.5868
  512MOL0    Cl67496   5.503   6.858   7.483  0.7436  0.3147 -0.0588
  512MOL0     C67497   5.305   6.798   8.038 -0.3486  0.4604 -0.5805
  512MOL0     C67498   5.404   6.717   8.098 -0.5521  0.3268 -0.4537
  512MOL0     O67499   5.690   6.750   8.272  0.1854  0.0293 -0.0734
  512MOL0     C67500   5.848   6.465   8.135  0.2506  1.3699  1.3533
  512MOL0     C67501   5.951   6.380   8.159  0.0811  0.2466 -0.0993
  512MOL0     N67502   6.378   5.679   8.226 -0.2800  0.4131 -0.2658
  512MOL0     N67503   6.344   5.559   8.259  0.3795  0.3208 -0.1549
  512MOL0     C67504   5.865   5.563   9.246 -0.7038 -0.2673 -0.5381
  512MOL0     C67505   5.756   5.572   9.332 -0.0248  0.7545 -0.0691
  512MOL0     C67506   5.424   5.442   9.622 -0.1791 -0.4058  1.0387
  512MOL0     C67507   5.381   5.414   9.747  0.0092  0.4247 -0.8487
  512MOL0     C67508   5.260   5.466   9.785  0.3346  0.2477 -0.2460
  512MOL0     C67509   5.181   5.549   9.704 -0.4286  0.5590 -0.2258
  512MOL0     O67510   5.068   5.624   9.734  0.6034 -0.0547 -0.8457
  512MOL0     C67511   5.029   5.632   9.875  0.4372  1.2623  0.1461
  512MOL0     C67512   4.885   5.698   9.870  0.0925 -0.1037  0.5277
  512MOL0     C67513   4.846   5.757  10.001  0.6706  0.5381  0.4130
  512MOL0     C67514   4.692   5.779  10.003  0.6890 -0.8845 -1.0933
  512MOL0     C67515   4.641   5.830  10.125 -0.3702 -0.1936  1.0845
  512MOL0     C67516   4.594   5.890  10.216  0.4671  0.1693 -0.9611
  512MOL0     C67517   5.221   5.566   9.576 -0.2621 -0.3094  0.6101
  512MOL0     C67518   5.344   5.514   9.530  0.3985 -0.0913 -0.0675
  512MOL0     H67519   5.851   5.365   9.583 -0.9898  0.5879  0.5788
  512MOL0     H67520   6.056   5.349   9.442 -1.1397 -1.2134  0.8260
  512MOL0     H67521   6.240   5.544   9.171  0.7997 -0.3393 -2.9530
  512MOL0     H67522   6.086   5.630   9.138 -2.2903 -1.4573  2.2426
  512MOL0     H67523   6.193   5.580   8.937  0.0466 -0.2123  0.2753
  512MOL0     H67524   6.036   5.501   8.945  0.1193  0.3910 -1.3373
  512MOL0     H67525   6.123   5.285   8.968 -2.2365  0.7688 -0.8047
  512MOL0     H67526   6.288   5.344   8.998  1.6412  1.5795 -2.1441
  512MOL0     H67527   6.213   5.250   8.766 -1.9112  0.8511 -0.7933
  512MOL0     H67528   6.133   5.404   8.734 -1.9776 -2.8134 -0.7870
  512MOL0     H67529   6.430   5.388   8.815 -1.2181 -1.5620  0.5279
  512MOL0     H67530   6.354   5.521   8.745 -1.6786  0.8341 -1.3219
  512MOL0     H67531   6.452   5.253   8.630  1.4663 -0.7338 -1.9768
  512MOL0     H67532   6.500   5.413   8.589 -0.5491  2.1421  1.0871
  512MOL0     H67533   6.346   5.312   8.403 -0.6078 -5.3225  1.5135
  512MOL0     H67534   6.230   5.264   8.513  0.5674 -0.4980 -1.3518
  512MOL0     H67535   6.182   5.524   8.556  2.0975  2.5166 -0.3922
  512MOL0     H67536   6.141   5.445   8.409  0.5605 -2.8247 -0.1351
  512MOL0     H67537   6.327   5.725   8.549 -3.8436 -1.7326  0.9488
  512MOL0     H67538   6.506   5.946   8.337 -1.0051  1.2569  0.2830
  512MOL0     H67539   6.364   5.956   8.441 -1.2172  0.6293  0.2561
  512MOL0     H67540   6.227   5.942   8.232  0.0645  0.0288 -1.2602
  512MOL0     H67541   6.361   6.013   8.145  0.9028 -0.5032  0.3955
  512MOL0     H67542   6.265   6.117   8.404  1.2454 -0.4753 -0.2883
  512MOL0     H67543   6.375   6.204   8.299  0.2125  0.2486 -0.7826
  512MOL0     H67544   6.088   6.127   8.235  3.3999 -4.2078  3.0791
  512MOL0     H67545   6.188   6.226   8.132  1.7659  3.4785  0.8145
  512MOL0     H67546   6.066   6.542   8.432  3.6696  1.3653 -2.8435
  512MOL0     H67547   5.859   6.670   8.391  2.8108  2.1895 -1.5340
  512MOL0     H67548   5.675   6.806   7.927  0.5254 -3.9395  0.6263
  512MOL0     H67549   5.479   6.958   7.805  2.6727 -1.3860 -0.3918
  512MOL0     H67550   5.155   7.032   8.074  1.5679 -1.3062 -0.2540
  512MOL0     H67551   5.073   6.936   7.969  1.3972 -1.3572  1.9489
  512MOL0     H67552   5.085   7.228   7.952 -1.4852 -1.5454  1.9884
  512MOL0     H67553   4.952   7.123   7.919 -0.5549  0.3814 -2.4113
  512MOL0     H67554   4.987   7.181   7.684 -1.5917 -3.3738  1.3598
  512MOL0     H67555   5.078   7.041   7.714  0.3592 -0.6883  3.1301
  512MOL0     H67556   5.163   7.333   7.746 -0.7999  0.4273 -1.5812
  512MOL0     H67557   5.289   7.215   7.757  2.3585  3.0702 -1.7209
  512MOL0     H67558   5.253   7.342   7.522 -0.9950 -0.0756 -0.9700
  512MOL0     H67559   5.132   7.227   7.493  1.7871  1.5986 -2.9804
  512MOL0     H67560   5.397   7.108   7.595 -1.6518 -0.3540  0.4914
  512MOL0     H67561   5.403   7.185   7.439  0.6640 -2.3441 -0.7395
  512MOL0     H67562   5.255   6.938   7.527  4.3826 -0.7759  1.2204
  512MOL0     H67563   5.208   7.025   7.369  2.4518 -0.5692 -2.3995
  512MOL0     H67564   5.455   6.999   7.303 -0.2347 -0.1540  0.7150
  512MOL0     H67565   5.365   6.849   7.311  3.0295 -0.7405 -0.6524
  512MOL0     H67566   5.208   6.804   8.087  0.5482 -1.0388  1.5686
  512MOL0     H67567   5.365   6.643   8.167  1.3094 -0.4380 -0.1426
  512MOL0     H67568   5.774   6.428   8.065  2.7522 -0.3370 -0.5254
  512MOL0     H67569   5.970   6.295   8.094  0.5646 -0.5359  1.0346
  512MOL0     H67570   5.881   5.623   9.157  2.7660  1.9461  1.3475
  512MOL0     H67571   5.672   5.638   9.314 -0.8775 -0.6534 -1.5445
  512MOL0     H67572   5.452   5.362   9.811 -0.8822  0.3827  0.1324
  512MOL0     H67573   5.238   5.434   9.887  4.2190  2.5877  1.5674
  512MOL0     H67574   5.097   5.688   9.940  1.1854 -1.5430  1.9802
  512MOL0     H67575   5.005   5.537   9.924 -1.2652  1.7796  0.3978
  512MOL0     H67576   4.879   5.767   9.786 -0.1482  0.2155  0.8031
  512MOL0     H67577   4.812   5.618   9.851  0.0412  0.1057 -0.2004
  512MOL0     H67578   4.893   5.855  10.013 -1.7103  1.4945  2.8115
  512MOL0     H67579   4.884   5.690  10.079 -0.4919  1.1434  1.5327
  512MOL0     H67580   4.657   5.837   9.917  1.5356 -1.9947 -2.2348
  512MOL0     H67581   4.637   5.685   9.992 -3.4114  1.1940 -0.2710
  512MOL0     H67582   4.549   5.935  10.302  0.8760 -2.8766  1.0267
  512MOL0     H67583   5.145   5.610   9.512  1.4793 -0.1118 -1.4608
  512MOL0     H67584   5.375   5.532   9.427  0.5814 -0.8244 -0.1444
  513MOL0     O67585   2.587  10.568   0.252  0.8030  0.0480  0.2546
  513MOL0     C67586   2.470  10.600   0.278  0.3369 -0.4565  0.1721
  513MOL0     O67587   2.361  10.515   0.308  0.1831  0.9053  0.1572
  513MOL0     C67588   2.388  10.387   0.285  0.5864  0.3007 -0.5213
  513MOL0     C67589   2.315  10.321   0.187 -0.7559  0.7912 -0.5027
  513MOL0     C67590   2.330  10.183   0.161  0.5496 -0.3404 -0.0531
  513MOL0     C67591   2.437  10.110   0.221  0.4532 -0.7105 -0.2343
  513MOL0     O67592   2.473   9.975   0.206 -0.0169  0.0891  0.2940
  513MOL0     C67593   2.398   9.903   0.111 -0.3790 -0.3610  0.0283
  513MOL0     C67594   2.476   9.780   0.075  0.5432 -0.1435  0.6868
  513MOL0     C67595   2.408   9.696  -0.026 -0.0726 -0.3808  0.4827
  513MOL0     C67596   2.510   9.584  -0.059 -0.9764  0.8889 -0.3822
  513MOL0     C67597   2.471   9.474  -0.156 -0.4180 -0.5147  0.2874
  513MOL0     C67598   2.358   9.397  -0.090  0.4896  0.2278  0.4732
  513MOL0     C67599   2.291   9.295  -0.189 -1.3734  0.2006  0.5159
  513MOL0     C67600   2.189   9.202  -0.133 -0.5113  0.2655 -1.2529
  513MOL0     N67601   2.229   9.118  -0.009 -0.4340 -0.4633  0.6285
  513MOL0     C67602   2.333   9.016   0.009 -0.2156 -0.5394  1.7828
  513MOL0     C67603   2.319   8.986   0.141  0.0039  0.0370 -0.3007
  513MOL0     C67604   2.385   8.875   0.220  0.1267  0.2983 -0.1075
  513MOL0     C67605   2.297   8.741   0.234 -1.0721 -0.5340 -0.4086
  513MOL0     C67606   2.180   8.741   0.333  0.0953  0.5349  0.9701
  513MOL0     C67607   2.207   8.813   0.461 -0.2954  0.2757 -0.2795
  513MOL0     O67608   2.332   8.747   0.508  0.7714 -0.7195 -0.4749
  513MOL0     C67609   2.426   8.812   0.591 -0.1426  0.6395  0.1900
  513MOL0     C67610   2.545   8.742   0.614 -0.4322 -1.2302 -0.5274
  513MOL0     C67611   2.648   8.794   0.699  1.2107  0.1159 -0.5004
  513MOL0     C67612   2.623   8.913   0.768 -0.4147  0.8766 -0.4988
  513MOL0     C67613   2.729   8.973   0.860 -1.1402 -0.1685  0.7311
  513MOL0     O67614   2.843   8.887   0.885 -0.2062  0.3699 -0.2752
  513MOL0     C67615   2.958   8.942   0.935 -0.4420 -0.9533 -0.6427
  513MOL0     C67616   3.012   9.079   0.938  0.3183 -0.3974  0.1215
  513MOL0     C67617   3.130   9.104   1.003  0.1112  0.0341  0.5696
  513MOL0     C67618   3.205   9.001   1.070 -0.4976  0.3255 -0.0814
  513MOL0     O67619   3.331   9.033   1.126  0.1210  1.5396  0.2042
  513MOL0     C67620   3.341   8.996   1.259  0.3398  0.2116 -0.1671
  513MOL0     C67621   3.483   9.022   1.297 -0.2897  0.4595 -0.0772
  513MOL0     C67622   3.522   9.169   1.265  0.4008  0.5912 -0.8615
  513MOL0     C67623   3.658   9.225   1.322 -0.1923 -0.5056  0.7442
  513MOL0     C67624   3.685   9.363   1.258  0.5602 -0.3612  0.3096
  513MOL0     C67625   3.805   9.444   1.306 -0.1242 -0.0416 -0.7677
  513MOL0     C67626   3.938   9.364   1.298 -0.0685 -0.7004 -0.1751
  513MOL0     C67627   4.049   9.451   1.359  0.5172  0.3091 -0.6005
  513MOL0    Cl67628   4.047   9.613   1.273 -0.5963 -0.1750  0.1666
  513MOL0     C67629   3.156   8.875   1.058 -0.4459 -0.5374 -0.4495
  513MOL0     C67630   3.029   8.846   0.996 -0.6615  0.1776  0.1320
  513MOL0     O67631   2.718   9.083   0.903  0.5771  0.5277 -0.0123
  513MOL0     C67632   2.500   8.982   0.745 -0.2381  0.1636 -1.1525
  513MOL0     C67633   2.401   8.925   0.663 -0.5739  0.0522  0.8830
  513MOL0     N67634   2.233   9.065   0.202  0.1057 -0.0279 -0.6872
  513MOL0     N67635   2.176   9.140   0.111  0.6040  0.0466  0.4590
  513MOL0     C67636   2.500  10.172   0.320  0.1657  0.3201 -1.3712
  513MOL0     C67637   2.481  10.304   0.359  0.3743  0.7936  0.1382
  513MOL0     C67638   2.424  10.737   0.279 -0.2621  0.1906 -0.1994
  513MOL0     C67639   2.519  10.838   0.312  0.1928 -0.5084 -0.0894
  513MOL0     C67640   2.497  10.972   0.319 -0.1434  0.5349  0.7147
  513MOL0     C67641   2.367  11.015   0.298  0.4654 -0.5059 -0.4108
  513MOL0     O67642   2.363  11.153   0.327  0.0008 -0.0520 -0.8872
  513MOL0     C67643   2.249  11.233   0.295  0.6631 -0.1409 -0.0942
  513MOL0     C67644   2.242  11.255   0.141  0.0174 -0.5797  0.7071
  513MOL0     C67645   2.110  11.337   0.110  0.4176 -0.0050 -0.4675
  513MOL0     C67646   2.134  11.471   0.036 -0.0657 -0.2283 -0.6113
  513MOL0     C67647   2.217  11.558   0.121 -0.6940  0.6631  0.5728
  513MOL0     C67648   2.286  11.617   0.205  0.3451 -0.3528  0.1984
  513MOL0     C67649   2.263  10.922   0.263 -0.8748  0.8511 -0.0528
  513MOL0     C67650   2.299  10.790   0.239 -0.2583 -0.2841 -1.0885
  513MOL0     H67651   2.246  10.380   0.127 -0.4498  2.4714  0.7157
  513MOL0     H67652   2.263  10.135   0.091  0.2818  2.2151 -1.6731
  513MOL0     H67653   2.369   9.958   0.022 -3.8053  1.3832  2.0134
  513MOL0     H67654   2.300   9.873   0.150 -0.6977  0.7259  0.1158
  513MOL0     H67655   2.488   9.728   0.171  2.3975 -2.7943 -0.8442
  513MOL0     H67656   2.576   9.812   0.044 -0.5684  1.8163 -1.0992
  513MOL0     H67657   2.404   9.753  -0.120  0.1239  3.0121  2.3502
  513MOL0     H67658   2.317   9.645   0.006 -0.7926  1.5084  1.5982
  513MOL0     H67659   2.602   9.630  -0.097  0.2739 -1.9267 -1.0135
  513MOL0     H67660   2.549   9.541   0.034  0.8265  2.5882 -0.2790
  513MOL0     H67661   2.553   9.404  -0.174 -1.9825 -1.5533 -3.8272
  513MOL0     H67662   2.436   9.514  -0.251 -1.8734  0.5831  1.2463
  513MOL0     H67663   2.280   9.465  -0.057  1.8179  2.2338 -0.3629
  513MOL0     H67664   2.385   9.341   0.000 -0.4180 -0.4333  0.3543
  513MOL0     H67665   2.240   9.350  -0.269 -0.3108  0.2354 -0.1466
  513MOL0     H67666   2.367   9.233  -0.237  0.0981  2.7017 -0.6024
  513MOL0     H67667   2.140   9.140  -0.209 -3.1021  0.0744  0.4431
  513MOL0     H67668   2.110   9.262  -0.088  0.4520  0.5231  0.2058
  513MOL0     H67669   2.392   8.966  -0.067  1.8074  2.6236  1.0862
  513MOL0     H67670   2.412   8.920   0.316  1.6574 -0.9199  0.0807
  513MOL0     H67671   2.483   8.860   0.173  1.4441 -0.7926  2.7476
  513MOL0     H67672   2.368   8.665   0.269 -2.0373 -0.1547  2.5865
  513MOL0     H67673   2.272   8.715   0.131  0.8122 -0.4585 -0.9269
  513MOL0     H67674   2.098   8.791   0.280  1.4349  1.3448 -0.4140
  513MOL0     H67675   2.134   8.645   0.357 -2.8080  2.0187  1.8166
  513MOL0     H67676   2.130   8.791   0.535  0.1444 -3.4742 -0.7131
  513MOL0     H67677   2.230   8.919   0.457 -2.0111  0.6549 -0.9872
  513MOL0     H67678   2.550   8.645   0.566 -0.2596 -1.1765 -0.6184
  513MOL0     H67679   2.738   8.739   0.724 -0.4137 -1.7235  1.8029
  513MOL0     H67680   2.964   9.149   0.870  1.1888  1.3261  1.2398
  513MOL0     H67681   3.167   9.206   0.997  2.0277 -0.6526  0.1708
  513MOL0     H67682   3.324   8.890   1.279  0.7679  0.8159  4.6247
  513MOL0     H67683   3.280   9.047   1.336 -2.3042 -4.2158  1.0539
  513MOL0     H67684   3.546   8.962   1.232  1.6768  3.1959 -0.8772
  513MOL0     H67685   3.504   8.992   1.400  2.4935 -0.8352 -0.9207
  513MOL0     H67686   3.444   9.235   1.304  2.2611  0.6903  3.1286
  513MOL0     H67687   3.523   9.175   1.156  1.0700  0.8509 -0.8472
  513MOL0     H67688   3.637   9.249   1.426 -2.2545  1.1721  0.0191
  513MOL0     H67689   3.745   9.162   1.302  2.1696  3.0963 -1.7046
  513MOL0     H67690   3.593   9.422   1.261 -1.4062 -3.2293  0.6760
  513MOL0     H67691   3.710   9.347   1.152 -2.3674 -0.6709 -0.4196
  513MOL0     H67692   3.791   9.472   1.411 -2.2714  0.4498 -1.1228
  513MOL0     H67693   3.811   9.533   1.243  0.4179 -0.0314 -0.6987
  513MOL0     H67694   3.919   9.270   1.351 -1.0849 -1.0064 -1.0471
  513MOL0     H67695   3.976   9.348   1.197  0.6041  0.2691 -0.0922
  513MOL0     H67696   4.140   9.393   1.342 -1.1324 -1.8804 -2.6520
  513MOL0     H67697   4.035   9.475   1.464  0.1766  1.4758 -0.8939
  513MOL0     H67698   3.221   8.792   1.086  2.3625  0.6682 -2.8763
  513MOL0     H67699   3.012   8.739   0.989  0.0043  0.1510 -1.3526
  513MOL0     H67700   2.483   9.079   0.792 -0.6027 -0.3771 -0.1429
  513MOL0     H67701   2.303   8.971   0.656 -0.3829  0.7052  2.2353
  513MOL0     H67702   2.562  10.095   0.366 -3.4201 -2.2174 -0.2337
  513MOL0     H67703   2.543  10.349   0.437  0.9773  0.4510 -0.1321
  513MOL0     H67704   2.619  10.800   0.326 -0.1114 -0.4748  2.6467
  513MOL0     H67705   2.574  11.045   0.342  0.5963  0.9204 -2.5298
  513MOL0     H67706   2.257  11.328   0.348  2.4927 -0.9801  1.2638
  513MOL0     H67707   2.163  11.175   0.329  0.2879 -0.5217 -1.6372
  513MOL0     H67708   2.327  11.312   0.105  2.6949 -2.3376  3.7155
  513MOL0     H67709   2.242  11.162   0.084 -0.8398  1.9439 -3.8396
  513MOL0     H67710   2.044  11.361   0.193 -1.3193 -4.5014 -0.2962
  513MOL0     H67711   2.049  11.276   0.043 -2.3894  0.5608  1.4046
  513MOL0     H67712   2.176  11.450  -0.063  3.1460  1.4999  0.2272
  513MOL0     H67713   2.044  11.527   0.010 -1.5870 -1.8477  0.8949
  513MOL0     H67714   2.344  11.639   0.292 -0.7844 -1.7960  1.3619
  513MOL0     H67715   2.165  10.961   0.239 -0.3407  1.7654 -0.8277
  513MOL0     H67716   2.222  10.721   0.208  0.5014 -1.8233  0.2718
  514MOL0     O67717   9.003   5.515   0.779 -0.4728 -0.0565  0.4101
  514MOL0     C67718   9.006   5.473   0.658  1.0790  0.4722 -0.9640
  514MOL0     O67719   8.927   5.522   0.555 -0.6379  0.4008  0.1830
  514MOL0     C67720   8.857   5.635   0.588  0.6534  0.4857  0.8098
  514MOL0     C67721   8.731   5.640   0.654 -0.1148 -0.1079 -0.0754
  514MOL0     C67722   8.662   5.759   0.670  0.1100 -0.8762 -0.4413
  514MOL0     C67723   8.718   5.881   0.637 -1.1262 -0.2279 -0.0397
  514MOL0     O67724   8.638   5.988   0.658 -0.0099 -0.1423 -0.3973
  514MOL0     C67725   8.712   6.103   0.715 -0.1116 -0.6128  0.0849
  514MOL0     C67726   8.610   6.201   0.776  0.1797 -0.2200 -0.8205
  514MOL0     C67727   8.680   6.298   0.868 -0.2827 -1.1511 -0.2279
  514MOL0     C67728   8.727   6.237   1.000  0.1751 -0.6549 -0.1749
  514MOL0     C67729   8.771   6.356   1.096  0.2619 -0.2303  0.5797
  514MOL0     C67730   8.863   6.309   1.206 -0.0128  0.2895  0.3590
  514MOL0     C67731   8.787   6.236   1.316 -0.4567  0.2015  0.3049
  514MOL0     C67732   8.878   6.174   1.432  0.3303 -0.3734  0.0983
  514MOL0     N67733   8.970   6.071   1.378  0.1174 -0.0978  0.1056
  514MOL0     C67734   9.102   6.067   1.348 -0.4123 -0.2871 -0.3168
  514MOL0     C67735   9.143   5.942   1.352 -0.2878  0.7505  1.0566
  514MOL0     C67736   9.282   5.894   1.320  0.4246 -0.4393 -0.4277
  514MOL0     C67737   9.341   5.971   1.207  0.2908  0.6726  0.5224
  514MOL0     C67738   9.490   5.941   1.194  0.1930 -0.3412 -0.3368
  514MOL0     C67739   9.525   5.812   1.112 -0.2953 -0.6088 -0.0773
  514MOL0     O67740   9.486   5.689   1.178 -0.8003 -0.0766  0.6469
  514MOL0     C67741   9.528   5.574   1.108 -0.0617  0.8610  0.1691
  514MOL0     C67742   9.535   5.452   1.189 -0.0041  0.6845  0.6049
  514MOL0     C67743   9.570   5.328   1.128 -0.1116 -0.2295 -0.4694
  514MOL0     C67744   9.596   5.331   0.986  0.4345  0.9406 -0.6228
  514MOL0     C67745   9.626   5.194   0.913 -0.0014 -1.2710 -0.3063
  514MOL0     O67746   9.632   5.193   0.776  1.0428 -0.1005 -0.2836
  514MOL0     C67747   9.657   5.072   0.723 -0.5277  0.0937  0.6737
  514MOL0     C67748   9.780   5.072   0.666 -1.1467 -0.0211 -0.0573
  514MOL0     C67749   9.820   4.954   0.592  1.0439  0.8495  0.3212
  514MOL0     C67750   9.751   4.828   0.610  0.4582 -0.3959  0.4105
  514MOL0     O67751   9.790   4.702   0.582  0.0098  0.0193 -0.6560
  514MOL0     C67752   9.928   4.671   0.538  0.2444 -0.0381 -0.2284
  514MOL0     C67753   9.950   4.523   0.535 -0.4672 -0.4931  0.3805
  514MOL0     C67754   9.858   4.457   0.430  0.2599 -0.3897  0.3943
  514MOL0     C67755   9.879   4.304   0.408  1.0354 -1.3302 -0.3710
  514MOL0     C67756   9.789   4.268   0.288 -0.3090  0.1690  0.4351
  514MOL0     C67757   9.779   4.111   0.280  0.4583 -0.3421  0.6737
  514MOL0     C67758   9.902   4.073   0.206  0.0310  0.0911 -0.3751
  514MOL0     C67759   9.963   3.952   0.269  0.2480 -0.2254  0.0617
  514MOL0    Cl67760  10.027   3.977   0.429 -0.4405  0.0137 -0.3430
  514MOL0     C67761   9.639   4.833   0.693  0.8066 -0.2746  0.4092
  514MOL0     C67762   9.587   4.954   0.722  0.7182  0.1096  0.5536
  514MOL0     O67763   9.664   5.106   0.989  0.4505  0.4488 -0.2591
  514MOL0     C67764   9.605   5.448   0.915  0.7690  0.2651 -0.5156
  514MOL0     C67765   9.553   5.572   0.975  0.1331  1.0125  0.1785
  514MOL0     N67766   9.035   5.867   1.388  0.4555 -0.3750  0.3186
  514MOL0     N67767   8.938   5.944   1.407  0.2444 -0.3424  0.2111
  514MOL0     C67768   8.847   5.875   0.572  0.0019  0.4885 -0.1119
  514MOL0     C67769   8.917   5.751   0.540  0.3886  0.5310  0.0280
  514MOL0     C67770   9.106   5.372   0.615  0.3360 -0.1377 -0.0264
  514MOL0     C67771   9.208   5.330   0.695 -0.4631 -0.4793  0.3639
  514MOL0     C67772   9.303   5.238   0.652  0.2121  0.1172  0.4578
  514MOL0     C67773   9.280   5.177   0.528 -0.0573  0.6319  0.5861
  514MOL0     O67774   9.367   5.070   0.508  0.2871 -0.3140 -0.1649
  514MOL0     C67775   9.387   5.005   0.383  0.4182  0.0877 -0.4257
  514MOL0     C67776   9.285   4.898   0.348 -0.3986 -0.2760  0.0175
  514MOL0     C67777   9.305   4.832   0.208  0.0174 -0.5685 -0.6060
  514MOL0     C67778   9.396   4.714   0.208  0.6276 -1.1487  0.4652
  514MOL0     C67779   9.540   4.724   0.209 -0.2095 -0.2015 -0.0839
  514MOL0     C67780   9.654   4.691   0.222 -0.1102  0.4594 -0.1317
  514MOL0     C67781   9.187   5.217   0.443  0.6892  0.3077  0.3884
  514MOL0     C67782   9.106   5.317   0.485 -0.1602 -0.3077  0.6888
  514MOL0     H67783   8.693   5.544   0.688  1.2411 -0.3320  0.9149
  514MOL0     H67784   8.562   5.748   0.711 -0.3235  1.0751 -0.8852
  514MOL0     H67785   8.769   6.163   0.644 -1.2414 -1.4347 -1.5684
  514MOL0     H67786   8.777   6.070   0.796  0.6866  2.4086  0.7774
  514MOL0     H67787   8.529   6.146   0.825  0.9346 -0.5375  0.1134
  514MOL0     H67788   8.551   6.256   0.702 -2.0392  1.3557  1.9385
  514MOL0     H67789   8.616   6.384   0.888  1.3843 -0.4146  2.3466
  514MOL0     H67790   8.768   6.330   0.811  0.8109 -1.7493  1.0819
  514MOL0     H67791   8.649   6.178   1.048  0.3459 -0.0868  0.8447
  514MOL0     H67792   8.815   6.174   0.985 -1.1897 -3.2003  1.6773
  514MOL0     H67793   8.684   6.394   1.150 -1.2979 -0.4902 -1.6109
  514MOL0     H67794   8.818   6.427   1.027 -0.9856 -1.0852 -1.2599
  514MOL0     H67795   8.925   6.396   1.229  1.0620 -0.2394 -0.4101
  514MOL0     H67796   8.918   6.239   1.142 -3.0533 -2.1832  0.1863
  514MOL0     H67797   8.715   6.308   1.357 -1.7303 -0.9882  0.2483
  514MOL0     H67798   8.734   6.154   1.267  0.6025  0.1505 -0.7768
  514MOL0     H67799   8.819   6.133   1.515 -1.1466 -0.4624 -0.9723
  514MOL0     H67800   8.945   6.250   1.473 -1.3391  0.2402  1.8804
  514MOL0     H67801   9.162   6.158   1.346 -2.0298  0.9134  1.5356
  514MOL0     H67802   9.274   5.787   1.297  1.6335 -1.3184  2.7306
  514MOL0     H67803   9.338   5.903   1.413  0.7450  2.3366 -0.8005
  514MOL0     H67804   9.324   6.075   1.235 -0.7285 -0.1427  3.3050
  514MOL0     H67805   9.290   5.934   1.118 -0.7693  1.0865  0.9461
  514MOL0     H67806   9.530   6.026   1.139 -0.1655 -0.7830 -1.3044
  514MOL0     H67807   9.531   5.933   1.295 -2.2797  2.9814  1.1424
  514MOL0     H67808   9.633   5.807   1.096  0.1225  4.9244 -0.9638
  514MOL0     H67809   9.480   5.820   1.012 -0.4235 -1.2376 -0.0788
  514MOL0     H67810   9.512   5.474   1.293 -1.8529  2.4405 -0.1053
  514MOL0     H67811   9.586   5.235   1.181 -0.0920 -0.9229 -1.6439
  514MOL0     H67812   9.845   5.159   0.667 -0.4830 -0.4377  2.9971
  514MOL0     H67813   9.913   4.956   0.536  0.1388 -3.3019 -1.6982
  514MOL0     H67814   9.998   4.721   0.605  1.1708  0.0492 -1.2295
  514MOL0     H67815   9.943   4.712   0.438  1.5566  2.8715  1.0254
  514MOL0     H67816   9.921   4.471   0.627  0.1836  1.9591  2.0607
  514MOL0     H67817  10.052   4.505   0.501 -0.5405  3.0052 -2.1730
  514MOL0     H67818   9.884   4.501   0.333  2.2523  0.3756  1.2222
  514MOL0     H67819   9.751   4.473   0.439  0.2528  3.1190 -3.2083
  514MOL0     H67820   9.985   4.305   0.384  0.4689  0.9936 -3.2593
  514MOL0     H67821   9.852   4.260   0.505 -4.1200  5.3741  1.9859
  514MOL0     H67822   9.815   4.303   0.188 -1.0219  0.1094  0.2205
  514MOL0     H67823   9.687   4.304   0.305 -0.8178  1.4407 -4.1908
  514MOL0     H67824   9.688   4.085   0.226  0.6741 -0.5927  0.4274
  514MOL0     H67825   9.763   4.066   0.379 -0.2299 -1.8384 -0.0796
  514MOL0     H67826   9.866   4.050   0.105  1.1252  1.5777 -1.1353
  514MOL0     H67827   9.967   4.161   0.209 -0.0102  0.1305  2.7364
  514MOL0     H67828  10.037   3.915   0.198 -0.3360  0.8413 -1.1520
  514MOL0     H67829   9.883   3.877   0.274 -1.2263  1.3633  2.7105
  514MOL0     H67830   9.599   4.740   0.733  3.9290 -2.2301 -0.6200
  514MOL0     H67831   9.492   4.969   0.772  0.0345  1.1433 -0.9878
  514MOL0     H67832   9.638   5.435   0.813 -0.9785 -1.3344 -0.9352
  514MOL0     H67833   9.532   5.654   0.906  3.1620  1.4565 -0.3853
  514MOL0     H67834   8.888   5.970   0.539  0.3244  1.0633  1.8079
  514MOL0     H67835   9.002   5.740   0.474 -1.2155  1.1020 -2.2714
  514MOL0     H67836   9.229   5.375   0.792 -1.0833  1.2003 -0.2488
  514MOL0     H67837   9.391   5.199   0.701  2.4641  1.7406 -2.0094
  514MOL0     H67838   9.487   4.960   0.389  1.4744  2.2583 -0.8096
  514MOL0     H67839   9.382   5.078   0.302  0.3762  2.7593  1.8169
  514MOL0     H67840   9.286   4.816   0.421 -0.1269 -1.6924 -1.5039
  514MOL0     H67841   9.188   4.947   0.344 -0.2975  0.0500  1.2543
  514MOL0     H67842   9.321   4.910   0.134 -1.8096 -0.4619 -0.9307
  514MOL0     H67843   9.212   4.789   0.170  1.0532 -1.7973 -1.8670
  514MOL0     H67844   9.376   4.639   0.285  0.3038 -5.9133 -3.7481
  514MOL0     H67845   9.365   4.670   0.113  2.2866 -0.5182 -0.4061
  514MOL0     H67846   9.757   4.676   0.247 -0.2065  2.4422  1.7986
  514MOL0     H67847   9.175   5.179   0.343  1.7061  0.5117  0.1767
  514MOL0     H67848   9.034   5.337   0.407  0.7339  0.2722 -0.0129
  515MOL0     O67849   1.424   4.986   5.216  0.0660  0.2836 -0.5659
  515MOL0     C67850   1.533   4.956   5.264  0.1779  0.4602 -0.1662
  515MOL0     O67851   1.632   4.908   5.195 -0.4207  0.0023 -0.3012
  515MOL0     C67852   1.614   4.884   5.063 -0.6818 -0.9915  0.1091
  515MOL0     C67853   1.534   4.775   5.024 -0.1576  0.8631 -0.1487
  515MOL0     C67854   1.479   4.788   4.892 -0.1150  0.7389 -0.4557
  515MOL0     C67855   1.510   4.883   4.809 -0.2301  0.6736 -0.0568
  515MOL0     O67856   1.457   4.900   4.676 -0.6172 -0.1171  0.1462
  515MOL0     C67857   1.434   4.796   4.585 -0.1354  0.2523  0.4954
  515MOL0     C67858   1.567   4.736   4.529 -0.4689  0.5047 -0.2055
  515MOL0     C67859   1.541   4.620   4.425  0.8419 -0.1573  0.1042
  515MOL0     C67860   1.461   4.668   4.306 -0.2513 -0.0022 -0.3066
  515MOL0     C67861   1.468   4.542   4.208 -0.1161  0.1593  0.0843
  515MOL0     C67862   1.404   4.413   4.267 -0.2705  0.2508  0.8916
  515MOL0     C67863   1.424   4.318   4.145 -0.8200  0.0295  0.7714
  515MOL0     C67864   1.365   4.180   4.181 -0.2329 -0.4632  0.4840
  515MOL0     N67865   1.373   4.096   4.063  0.4276 -0.6880  0.7926
  515MOL0     C67866   1.277   4.106   3.960  0.1964 -0.2254 -1.0240
  515MOL0     C67867   1.297   3.992   3.895  1.0929  0.6309  0.3399
  515MOL0     C67868   1.243   3.945   3.759  0.0630 -0.4093  0.5915
  515MOL0     C67869   1.231   3.796   3.747 -0.7100  0.6935 -0.2234
  515MOL0     C67870   1.125   3.730   3.833 -0.9727  0.2821 -0.7838
  515MOL0     C67871   0.990   3.719   3.752  0.2292  0.2870  0.2311
  515MOL0     O67872   0.902   3.831   3.778  0.0251  0.0418 -0.2359
  515MOL0     C67873   0.783   3.844   3.715  0.8855  0.2256  0.6604
  515MOL0     C67874   0.721   3.747   3.630 -0.6409 -1.0966 -0.7546
  515MOL0     C67875   0.616   3.798   3.554 -0.1520  1.0376 -0.5284
  515MOL0     C67876   0.561   3.927   3.571  0.6331 -0.1044  0.6347
  515MOL0     C67877   0.441   3.978   3.500  0.0405  1.2759  1.3219
  515MOL0     O67878   0.423   4.114   3.477 -0.0635  0.8233  0.1805
  515MOL0     C67879   0.315   4.146   3.399 -1.1040 -0.0515  0.3471
  515MOL0     C67880   0.342   4.202   3.273 -0.6928  0.2649 -0.9413
  515MOL0     C67881   0.242   4.225   3.178 -0.7117  0.8598  0.2908
  515MOL0     C67882   0.117   4.176   3.204 -0.0407  0.8195  0.9587
  515MOL0     O67883   0.019   4.208   3.114 -0.0777  0.0155 -0.0508
  515MOL0     C67884   0.030   4.102   3.012 -0.4693 -0.3182  0.2416
  515MOL0     C67885  -0.097   4.118   2.924  0.1516  0.6881 -0.0567
  515MOL0     C67886  -0.111   4.242   2.846 -0.5042 -0.0697 -0.5698
  515MOL0     C67887  -0.205   4.234   2.722 -0.1674 -0.6623 -1.3943
  515MOL0     C67888  -0.144   4.204   2.587  0.3111 -0.0841  0.4188
  515MOL0     C67889  -0.258   4.176   2.484 -0.1993 -0.6841 -0.1116
  515MOL0     C67890  -0.202   4.103   2.366 -0.6343 -0.2054 -0.2882
  515MOL0     C67891  -0.296   4.095   2.250 -0.0377  0.7992  0.0566
  515MOL0    Cl67892  -0.328   4.254   2.191  0.4502 -0.2016  0.5240
  515MOL0     C67893   0.078   4.125   3.328 -0.2936 -0.6104  0.1344
  515MOL0     C67894   0.180   4.117   3.430  0.3301 -0.2157 -0.7708
  515MOL0     O67895   0.364   3.887   3.467 -0.0882  0.9229  0.0926
  515MOL0     C67896   0.628   4.017   3.652  0.5518 -0.5427 -0.2070
  515MOL0     C67897   0.738   3.978   3.725 -0.0430 -0.2413 -0.2361
  515MOL0     N67898   1.400   3.922   3.946  0.9190 -1.1865 -0.1451
  515MOL0     N67899   1.449   3.988   4.040 -0.3887 -1.1302 -0.5352
  515MOL0     C67900   1.601   4.978   4.852 -0.7390 -0.1805  0.8004
  515MOL0     C67901   1.652   4.988   4.979 -1.1685  1.4779 -0.0562
  515MOL0     C67902   1.543   4.935   5.407 -0.3211 -0.1628  0.0235
  515MOL0     C67903   1.644   4.870   5.474 -0.1805 -0.8744 -0.8770
  515MOL0     C67904   1.648   4.857   5.612  0.2263  1.0410 -0.1095
  515MOL0     C67905   1.544   4.915   5.686 -0.5023  0.4202 -0.0514
  515MOL0     O67906   1.544   4.892   5.821  0.8220  0.2855 -0.3060
  515MOL0     C67907   1.607   4.979   5.912 -0.3601 -0.3769  0.2111
  515MOL0     C67908   1.548   5.122   5.907 -0.2870  0.1616 -0.9997
  515MOL0     C67909   1.398   5.129   5.950 -1.1692 -0.4463  0.0182
  515MOL0     C67910   1.317   4.999   6.008  0.2077  0.2005  0.2627
  515MOL0     C67911   1.182   5.046   6.016  1.1934 -0.5256 -0.6386
  515MOL0     C67912   1.062   5.081   6.018 -0.5068  0.5171 -0.2037
  515MOL0     C67913   1.452   5.002   5.630  0.7574 -0.3145 -1.4090
  515MOL0     C67914   1.452   5.000   5.492  0.3488 -0.5793  0.2718
  515MOL0     H67915   1.509   4.703   5.101  2.2639 -0.7712 -0.7757
  515MOL0     H67916   1.416   4.713   4.846 -0.5132  1.3374 -0.8895
  515MOL0     H67917   1.383   4.833   4.495  0.7351 -3.4553 -1.7627
  515MOL0     H67918   1.364   4.721   4.624 -1.2942  0.8871 -0.2898
  515MOL0     H67919   1.631   4.697   4.609 -2.1615  2.2090  2.0903
  515MOL0     H67920   1.623   4.815   4.479 -1.6917  1.7235  0.2746
  515MOL0     H67921   1.490   4.540   4.480 -0.1273  1.8335  2.2783
  515MOL0     H67922   1.641   4.591   4.389  0.3063 -1.2002 -0.5889
  515MOL0     H67923   1.360   4.702   4.330  0.0906 -0.2865  1.7411
  515MOL0     H67924   1.515   4.751   4.260  0.5888  2.1002  3.9490
  515MOL0     H67925   1.574   4.525   4.184 -0.3515  1.2981 -2.0107
  515MOL0     H67926   1.426   4.568   4.111  1.6778 -0.3260 -0.8703
  515MOL0     H67927   1.298   4.418   4.292 -0.1127 -1.1196  1.9674
  515MOL0     H67928   1.463   4.373   4.350  4.3831 -0.6195 -2.3734
  515MOL0     H67929   1.376   4.360   4.056  1.0538 -1.9892 -1.3139
  515MOL0     H67930   1.526   4.306   4.108 -1.8318 -2.0771 -1.6966
  515MOL0     H67931   1.261   4.179   4.214 -1.2528  1.5688 -2.3245
  515MOL0     H67932   1.421   4.141   4.267  1.0704 -0.0042 -0.1303
  515MOL0     H67933   1.205   4.187   3.954  0.5859  0.1298 -0.9035
  515MOL0     H67934   1.304   3.968   3.671 -1.7890 -0.1098 -0.6829
  515MOL0     H67935   1.144   3.989   3.745  0.0738 -0.0755  1.5441
  515MOL0     H67936   1.328   3.770   3.792 -0.2445  5.8885  2.5090
  515MOL0     H67937   1.221   3.771   3.641  2.9234  1.7874 -0.9898
  515MOL0     H67938   1.156   3.631   3.867 -1.4493 -0.3513 -2.1336
  515MOL0     H67939   1.104   3.773   3.932 -1.7094 -0.3929 -0.6335
  515MOL0     H67940   0.945   3.629   3.796  0.4564  0.2653  0.4191
  515MOL0     H67941   1.008   3.702   3.646 -0.9627 -2.0372  0.3424
  515MOL0     H67942   0.765   3.649   3.620  1.8352 -0.3459  1.7057
  515MOL0     H67943   0.571   3.737   3.476 -1.1368  0.5128  0.4307
  515MOL0     H67944   0.445   4.235   3.267  0.1519 -0.5293  4.0931
  515MOL0     H67945   0.266   4.280   3.088 -1.5054  1.5198  0.4716
  515MOL0     H67946   0.045   4.005   3.062  1.5304 -0.8474 -1.2958
  515MOL0     H67947   0.124   4.125   2.962 -0.4786  0.0452  0.3890
  515MOL0     H67948  -0.172   4.111   3.004  1.9644  0.8526  1.7570
  515MOL0     H67949  -0.120   4.031   2.862  0.2018 -0.1738  1.0829
  515MOL0     H67950  -0.019   4.286   2.807  0.0827 -3.3413 -3.3883
  515MOL0     H67951  -0.148   4.322   2.911  0.0475 -0.5171  0.3226
  515MOL0     H67952  -0.284   4.168   2.758 -1.6700  2.3013  1.2278
  515MOL0     H67953  -0.253   4.330   2.703  0.1529 -0.3967 -0.8870
  515MOL0     H67954  -0.075   4.119   2.581  0.9576  0.4931 -3.7550
  515MOL0     H67955  -0.088   4.286   2.542 -0.1691 -0.0838 -0.1973
  515MOL0     H67956  -0.288   4.276   2.453  1.4101  0.4660  1.8224
  515MOL0     H67957  -0.346   4.120   2.519  1.8033 -3.4444  0.8705
  515MOL0     H67958  -0.110   4.156   2.341  0.4190 -0.7190  2.2495
  515MOL0     H67959  -0.161   4.005   2.390  0.3136  0.2933  0.2058
  515MOL0     H67960  -0.380   4.038   2.292  3.3409 -3.3042  1.9592
  515MOL0     H67961  -0.245   4.027   2.182 -2.1353 -4.5743  3.2207
  515MOL0     H67962  -0.024   4.097   3.351 -0.4021 -1.5209 -1.3448
  515MOL0     H67963   0.154   4.071   3.524 -1.5576  0.4981 -0.8884
  515MOL0     H67964   0.592   4.119   3.658 -0.0452 -0.5043 -2.9876
  515MOL0     H67965   0.793   4.049   3.786  0.2039  0.2731 -1.0422
  515MOL0     H67966   1.615   5.064   4.787 -4.8707  0.2754  0.1982
  515MOL0     H67967   1.709   5.076   5.010 -0.8681  1.2042  0.1772
  515MOL0     H67968   1.717   4.823   5.408  0.2974 -1.7152  0.2117
  515MOL0     H67969   1.727   4.805   5.665 -1.8431  1.3646  3.6422
  515MOL0     H67970   1.714   4.990   5.890  0.1652 -1.6825  1.8981
  515MOL0     H67971   1.602   4.941   6.014 -2.7777 -0.9711 -0.0668
  515MOL0     H67972   1.603   5.183   5.980 -0.3540  0.0422 -0.8476
  515MOL0     H67973   1.568   5.182   5.818 -1.4527  2.1449  0.0017
  515MOL0     H67974   1.345   5.170   5.863 -1.1656 -1.0768 -0.2861
  515MOL0     H67975   1.393   5.198   6.034  0.4728 -1.1204  0.6868
  515MOL0     H67976   1.313   4.914   5.939  1.3687  0.1962  0.1779
  515MOL0     H67977   1.357   4.958   6.100  1.5528 -3.4407 -1.7393
  515MOL0     H67978   0.963   5.117   6.004 -1.2612  0.9980  4.7539
  515MOL0     H67979   1.376   5.061   5.680  1.2207 -0.0072 -1.0624
  515MOL0     H67980   1.383   5.069   5.445 -1.2064 -0.6579  2.3013
  516MOL0     O67981   8.833   1.411   1.040 -0.2257 -0.0128 -0.1298
  516MOL0     C67982   8.918   1.344   1.108 -0.2123 -0.8115  0.3247
  516MOL0     O67983   9.012   1.400   1.195 -0.1964 -0.3854  0.7876
  516MOL0     C67984   8.991   1.519   1.254 -0.0381  1.0069 -0.8447
  516MOL0     C67985   8.864   1.579   1.261  0.0851  0.9645 -0.1406
  516MOL0     C67986   8.848   1.696   1.342 -0.1044  0.7321 -0.4745
  516MOL0     C67987   8.950   1.751   1.418  0.8792 -0.0159 -0.5305
  516MOL0     O67988   8.949   1.851   1.512 -0.8568  0.2033 -0.1855
  516MOL0     C67989   8.817   1.917   1.532 -0.4354  0.2646 -0.2452
  516MOL0     C67990   8.830   2.039   1.627  0.2174 -0.4450 -0.1567
  516MOL0     C67991   8.875   2.171   1.548  0.5498  0.3384  0.5648
  516MOL0     C67992   8.887   2.302   1.629 -0.0097  0.0442 -0.0875
  516MOL0     C67993   8.931   2.416   1.544  0.5248 -0.2774 -0.2535
  516MOL0     C67994   8.961   2.554   1.620 -0.7519  0.8427 -0.5154
  516MOL0     C67995   8.844   2.598   1.714  0.7747  0.2013  0.7990
  516MOL0     C67996   8.838   2.751   1.728 -0.0984  0.3085 -0.4882
  516MOL0     N67997   8.708   2.772   1.785 -0.0148 -0.2815 -0.4571
  516MOL0     C67998   8.686   2.761   1.921  0.0443 -0.0328 -0.7922
  516MOL0     C67999   8.570   2.837   1.943 -1.0467 -0.3692 -0.0435
  516MOL0     C68000   8.485   2.853   2.063 -0.0487 -0.6061  0.3945
  516MOL0     C68001   8.543   2.877   2.196 -0.0930 -0.7614  1.1576
  516MOL0     C68002   8.645   2.985   2.189  1.1815 -0.9055 -0.1783
  516MOL0     C68003   8.683   3.023   2.331  0.3598 -0.1915  1.2163
  516MOL0     O68004   8.750   3.149   2.324  0.5073 -0.0825 -0.0313
  516MOL0     C68005   8.756   3.219   2.446  0.2808  0.6185 -0.6895
  516MOL0     C68006   8.687   3.332   2.442  0.6361 -0.4320 -0.3364
  516MOL0     C68007   8.669   3.416   2.546 -0.0363 -0.1785 -0.4944
  516MOL0     C68008   8.723   3.379   2.675  0.2406  0.2374  0.1850
  516MOL0     C68009   8.692   3.462   2.803  0.5126  0.0315  0.4666
  516MOL0     O68010   8.737   3.405   2.921 -0.7078 -0.0526  0.8002
  516MOL0     C68011   8.684   3.451   3.043 -0.0417  0.0294  0.3029
  516MOL0     C68012   8.552   3.432   3.071 -0.4421 -0.3962 -0.6939
  516MOL0     C68013   8.508   3.467   3.196  0.1303  0.4312 -0.4957
  516MOL0     C68014   8.592   3.539   3.288 -0.0231  0.0336 -0.0487
  516MOL0     O68015   8.550   3.580   3.405  0.3137 -1.0601 -0.1617
  516MOL0     C68016   8.437   3.526   3.477 -0.3680  0.3443 -0.0407
  516MOL0     C68017   8.495   3.415   3.567  0.4425 -0.2931 -0.0661
  516MOL0     C68018   8.398   3.361   3.669  1.3235 -0.6486 -0.3380
  516MOL0     C68019   8.353   3.463   3.780  0.6833 -0.4530  0.4343
  516MOL0     C68020   8.281   3.385   3.899 -0.8496 -0.2748  0.5968
  516MOL0     C68021   8.194   3.479   3.980  0.3460 -0.4671  1.2984
  516MOL0     C68022   8.120   3.415   4.093 -0.9958 -0.1664  0.1324
  516MOL0     C68023   8.014   3.501   4.157  0.3875 -0.4264 -0.3336
  516MOL0    Cl68024   7.929   3.413   4.280  0.2835  0.1875 -0.0671
  516MOL0     C68025   8.720   3.568   3.252 -0.5164  0.8735 -0.0919
  516MOL0     C68026   8.769   3.521   3.128 -0.2091  1.3842  0.4931
  516MOL0     O68027   8.613   3.557   2.799  0.2253 -0.2717  0.7090
  516MOL0     C68028   8.794   3.257   2.673 -0.3776 -0.2734 -0.2348
  516MOL0     C68029   8.808   3.174   2.567 -0.0943  0.2006  0.0811
  516MOL0     N68030   8.534   2.881   1.821  0.3147 -0.4312  1.1179
  516MOL0     N68031   8.610   2.835   1.728  0.2472  0.4866 -0.4538
  516MOL0     C68032   9.075   1.697   1.408  0.8018 -0.2561 -0.3443
  516MOL0     C68033   9.091   1.579   1.331  0.2730 -0.7915 -0.3366
  516MOL0     C68034   8.908   1.195   1.089 -0.9239 -0.0228 -0.1883
  516MOL0     C68035   8.801   1.122   1.032 -0.3564  0.2116  0.4956
  516MOL0     C68036   8.793   0.980   1.018  0.6277  0.0048 -0.1035
  516MOL0     C68037   8.895   0.900   1.071  0.1319  0.1319  0.2308
  516MOL0     O68038   8.894   0.762   1.074 -0.5044 -0.2126 -0.4962
  516MOL0     C68039   8.776   0.696   1.046 -0.1549  0.7081  0.1402
  516MOL0     C68040   8.772   0.557   1.106 -0.8287 -0.5267 -0.3092
  516MOL0     C68041   8.789   0.566   1.257 -0.1699 -1.1310  0.5615
  516MOL0     C68042   8.659   0.626   1.331 -0.6484 -0.5005 -0.1142
  516MOL0     C68043   8.621   0.536   1.438 -0.4335 -0.3104  0.2945
  516MOL0     C68044   8.583   0.447   1.511 -0.5227  0.2837  0.1795
  516MOL0     C68045   8.991   0.972   1.137  0.1818 -0.5162  0.6016
  516MOL0     C68046   9.006   1.107   1.146  0.0391 -0.1365  0.7206
  516MOL0     H68047   8.771   1.539   1.221 -0.8847  0.9186  2.0114
  516MOL0     H68048   8.747   1.735   1.340 -0.1966  0.6317  0.8303
  516MOL0     H68049   8.753   1.843   1.580 -2.4975  1.2277 -1.3906
  516MOL0     H68050   8.772   1.943   1.436 -4.7180  0.6445  1.6645
  516MOL0     H68051   8.893   2.017   1.714 -1.0036  1.3496  1.2524
  516MOL0     H68052   8.732   2.063   1.669 -0.1514  2.3340 -2.3440
  516MOL0     H68053   8.810   2.198   1.464 -1.8177 -0.7342  1.9202
  516MOL0     H68054   8.969   2.152   1.496  1.0905  0.3301  1.5284
  516MOL0     H68055   8.787   2.316   1.671 -1.0803 -4.9183 -0.3160
  516MOL0     H68056   8.959   2.281   1.708  1.1544 -2.8608 -1.7571
  516MOL0     H68057   8.842   2.437   1.483  0.2970 -0.9539 -0.1649
  516MOL0     H68058   9.018   2.397   1.480 -0.3604  3.3261 -2.8760
  516MOL0     H68059   8.982   2.635   1.549  1.3260 -0.0111 -0.9480
  516MOL0     H68060   9.043   2.522   1.684 -2.2365 -1.7478  0.2087
  516MOL0     H68061   8.747   2.552   1.693  1.8279 -2.3418  1.1218
  516MOL0     H68062   8.874   2.565   1.814 -1.1363 -0.9958  1.0260
  516MOL0     H68063   8.843   2.803   1.632  0.0420 -0.3872 -0.8661
  516MOL0     H68064   8.918   2.782   1.796  0.5318  2.3065 -2.0372
  516MOL0     H68065   8.748   2.713   1.995 -0.0327  2.7451  1.2684
  516MOL0     H68066   8.417   2.768   2.078 -1.1484  0.5868  2.7510
  516MOL0     H68067   8.424   2.941   2.041  0.8424 -0.1049 -0.0879
  516MOL0     H68068   8.600   2.786   2.217  0.9400  0.0446  1.9833
  516MOL0     H68069   8.463   2.898   2.268 -1.3690  1.2002 -0.7202
  516MOL0     H68070   8.726   2.956   2.122  2.2137 -1.5377  1.2960
  516MOL0     H68071   8.588   3.074   2.160  1.4204  0.3826  2.9289
  516MOL0     H68072   8.753   2.945   2.360  0.3577 -1.7052 -2.3244
  516MOL0     H68073   8.595   3.023   2.396 -1.0724 -3.1370 -0.5290
  516MOL0     H68074   8.631   3.359   2.353  0.0788  2.7358  0.8558
  516MOL0     H68075   8.614   3.510   2.551 -0.4497 -0.4770  2.3737
  516MOL0     H68076   8.494   3.393   2.988 -2.7077 -0.4565  0.8347
  516MOL0     H68077   8.406   3.436   3.216 -0.7442  4.0349  1.4520
  516MOL0     H68078   8.356   3.496   3.410  1.0238 -1.4867 -1.0218
  516MOL0     H68079   8.396   3.606   3.539 -0.4833 -1.3601  2.2464
  516MOL0     H68080   8.580   3.467   3.614 -0.6274  2.2235 -0.7145
  516MOL0     H68081   8.535   3.334   3.506  0.3114  0.0365 -0.5975
  516MOL0     H68082   8.448   3.270   3.704  3.6936  0.2836 -1.1591
  516MOL0     H68083   8.302   3.332   3.624 -0.6095  2.7622  1.2441
  516MOL0     H68084   8.435   3.519   3.825 -0.1852  1.5056 -0.2817
  516MOL0     H68085   8.278   3.531   3.738  0.9507 -0.3881  0.0602
  516MOL0     H68086   8.362   3.344   3.960  0.5857  2.7640  0.9100
  516MOL0     H68087   8.223   3.301   3.859  0.7267 -1.4067  0.5768
  516MOL0     H68088   8.117   3.527   3.919  1.8687  1.8343  1.0509
  516MOL0     H68089   8.260   3.551   4.029 -0.8046  0.6931  1.1867
  516MOL0     H68090   8.079   3.324   4.048 -0.9005 -0.3638  0.4338
  516MOL0     H68091   8.187   3.381   4.173  1.6074 -0.6121 -2.1267
  516MOL0     H68092   7.948   3.531   4.076  0.3677 -0.6585 -0.4034
  516MOL0     H68093   8.066   3.586   4.204  0.8389 -1.3473  0.8757
  516MOL0     H68094   8.790   3.614   3.321 -0.1530 -0.0317  0.1515
  516MOL0     H68095   8.871   3.542   3.095 -0.8492  3.3998 -0.4132
  516MOL0     H68096   8.841   3.229   2.766  1.1503  2.6906  0.0070
  516MOL0     H68097   8.874   3.088   2.565  1.5987  1.4636 -1.5945
  516MOL0     H68098   9.157   1.738   1.465  0.3832  1.0406 -0.6284
  516MOL0     H68099   9.193   1.541   1.323  1.5126  1.5055  2.5858
  516MOL0     H68100   8.729   1.172   0.967  0.2081 -1.2032 -1.3121
  516MOL0     H68101   8.707   0.933   0.971 -1.3269  3.3738 -0.2390
  516MOL0     H68102   8.768   0.696   0.936 -3.7962  1.4671  0.2720
  516MOL0     H68103   8.696   0.757   1.087  1.0669  0.3088  3.3576
  516MOL0     H68104   8.678   0.506   1.085 -1.5986 -0.0330  1.7806
  516MOL0     H68105   8.854   0.490   1.078 -1.2343 -0.7637 -0.9738
  516MOL0     H68106   8.875   0.633   1.269  0.5563 -2.1472  1.2352
  516MOL0     H68107   8.809   0.472   1.309  3.4525 -0.4746  0.6169
  516MOL0     H68108   8.668   0.721   1.384 -0.7774 -0.8982  0.6279
  516MOL0     H68109   8.579   0.632   1.256 -0.5990 -0.7986 -0.1904
  516MOL0     H68110   8.566   0.357   1.567  3.1468 -0.2212  0.7763
  516MOL0     H68111   9.061   0.920   1.201  2.3363  0.9725 -0.4165
  516MOL0     H68112   9.089   1.152   1.201  0.9834  1.5141 -1.8948
  517MOL0     O68113   0.531   7.006   6.089  0.5483  1.2887 -0.1527
  517MOL0     C68114   0.584   6.972   5.982 -0.2238 -1.1440  0.2247
  517MOL0     O68115   0.525   6.953   5.858 -0.5997 -0.1931 -0.2273
  517MOL0     C68116   0.396   6.984   5.841 -0.1016 -0.6266  0.5087
  517MOL0     C68117   0.358   7.044   5.714 -0.9794 -1.4980  0.7098
  517MOL0     C68118   0.230   7.083   5.683 -0.8584 -0.4661  0.0651
  517MOL0     C68119   0.128   7.046   5.779 -1.1961  0.0155  0.1963
  517MOL0     O68120   0.004   7.088   5.740 -0.3157 -0.5787 -0.3432
  517MOL0     C68121  -0.081   7.107   5.852 -0.5749 -0.0662  0.4994
  517MOL0     C68122  -0.194   7.200   5.809  0.9194  0.5404 -0.2275
  517MOL0     C68123  -0.309   7.119   5.761  0.1223  0.5160 -0.6977
  517MOL0     C68124  -0.428   7.197   5.726 -0.4293 -0.5503 -0.5359
  517MOL0     C68125  -0.549   7.119   5.742 -0.1354  0.0236  0.5225
  517MOL0     C68126  -0.665   7.207   5.700  0.0572 -0.0888  0.0213
  517MOL0     C68127  -0.793   7.121   5.699  0.3813 -1.4889 -0.0456
  517MOL0     C68128  -0.914   7.218   5.670  0.4923 -0.3778  0.2927
  517MOL0     N68129  -1.046   7.155   5.635 -0.1903 -0.1592 -0.5182
  517MOL0     C68130  -1.076   7.023   5.634 -0.0564  0.0366  0.3067
  517MOL0     C68131  -1.207   7.014   5.634 -0.0316 -0.0855  0.4338
  517MOL0     C68132  -1.279   6.889   5.631  0.3897 -0.4505 -1.3213
  517MOL0     C68133  -1.360   6.870   5.761  0.7818 -0.5280  0.5957
  517MOL0     C68134  -1.264   6.842   5.886  1.1511 -0.1903  0.3997
  517MOL0     C68135  -1.195   6.713   5.887 -0.1366  0.9325  0.6886
  517MOL0     O68136  -1.058   6.748   5.855  0.1969 -0.4913  0.1731
  517MOL0     C68137  -0.961   6.655   5.839 -0.3776  0.8992  0.1507
  517MOL0     C68138  -0.915   6.628   5.715 -0.4109  0.0307 -0.2502
  517MOL0     C68139  -0.825   6.531   5.693 -0.1734 -0.2194  0.4552
  517MOL0     C68140  -0.768   6.467   5.805  0.3671 -0.4204  1.4841
  517MOL0     C68141  -0.672   6.358   5.780 -0.1388 -0.1681  0.3332
  517MOL0     O68142  -0.576   6.328   5.870  0.9845 -0.4446  0.2395
  517MOL0     C68143  -0.462   6.270   5.830 -0.5986 -0.2778 -0.2664
  517MOL0     C68144  -0.389   6.214   5.933 -0.7152  1.3195  0.3571
  517MOL0     C68145  -0.271   6.152   5.913 -0.2848  0.0123  0.4427
  517MOL0     C68146  -0.211   6.147   5.780  1.3795  0.2666  0.1981
  517MOL0     O68147  -0.106   6.065   5.754 -0.9197  0.0750 -0.4013
  517MOL0     C68148  -0.053   6.057   5.623  0.1181 -0.0188 -0.3300
  517MOL0     C68149   0.034   5.936   5.618 -0.0013  0.0489 -0.9840
  517MOL0     C68150   0.189   5.951   5.616 -0.3302  0.3294  1.0426
  517MOL0     C68151   0.259   5.824   5.573 -0.4487  0.6913  0.5588
  517MOL0     C68152   0.409   5.846   5.546 -0.1913 -0.0598 -0.8449
  517MOL0     C68153   0.473   5.709   5.539 -0.0573 -0.0398  0.6900
  517MOL0     C68154   0.620   5.709   5.511  0.3925  0.8332  0.6982
  517MOL0     C68155   0.686   5.572   5.511  0.7285  0.6934 -0.0441
  517MOL0    Cl68156   0.639   5.455   5.379  0.1066  0.1542  0.1763
  517MOL0     C68157  -0.274   6.229   5.682  0.1655 -0.1964 -0.0102
  517MOL0     C68158  -0.404   6.289   5.698 -0.3399 -1.2670 -0.9875
  517MOL0     O68159  -0.686   6.305   5.669  0.1075 -0.1840  0.0316
  517MOL0     C68160  -0.818   6.481   5.937  0.4077  0.5994  0.3347
  517MOL0     C68161  -0.915   6.584   5.952 -0.4347  0.4786 -0.4249
  517MOL0     N68162  -1.271   7.138   5.624  0.5610  0.0112 -0.3835
  517MOL0     N68163  -1.175   7.217   5.630 -0.5667 -0.5590 -0.1709
  517MOL0     C68164   0.163   6.984   5.896  0.1486  0.1726  0.3945
  517MOL0     C68165   0.293   6.958   5.930  0.3326  0.4779 -0.3530
  517MOL0     C68166   0.722   6.930   5.988 -0.8070 -1.1881 -0.3594
  517MOL0     C68167   0.807   6.974   5.882 -0.0270 -0.2767 -1.0972
  517MOL0     C68168   0.949   6.979   5.905  0.2574  0.5092  1.7718
  517MOL0     C68169   1.004   6.928   6.023  0.5362 -0.5910  0.5633
  517MOL0     O68170   1.138   6.919   6.043 -0.6859  0.2641  0.4388
  517MOL0     C68171   1.229   6.921   5.939 -0.7988  0.5820  0.2571
  517MOL0     C68172   1.312   7.050   5.961  0.7194 -0.2709  0.4896
  517MOL0     C68173   1.227   7.168   5.910  0.2188 -0.1272  0.0995
  517MOL0     C68174   1.295   7.295   5.952 -0.1964  0.1750  0.3998
  517MOL0     C68175   1.221   7.410   5.922 -0.2351  0.5315 -1.0367
  517MOL0     C68176   1.173   7.517   5.906  0.7438  0.1853  0.6434
  517MOL0     C68177   0.915   6.884   6.118 -0.3342 -0.3461 -0.6015
  517MOL0     C68178   0.778   6.880   6.108 -0.4408 -0.0845 -0.6816
  517MOL0     H68179   0.438   7.058   5.642 -0.0171  0.0020  2.0151
  517MOL0     H68180   0.200   7.119   5.585  0.8308 -0.0619 -0.3291
  517MOL0     H68181  -0.029   7.152   5.938 -2.6628 -0.3198  1.9695
  517MOL0     H68182  -0.127   7.017   5.892  3.2841 -2.0465  1.0123
  517MOL0     H68183  -0.159   7.273   5.736  1.5319  0.7686  0.2832
  517MOL0     H68184  -0.213   7.265   5.895  4.1347  2.7055 -0.9930
  517MOL0     H68185  -0.338   7.066   5.851  2.2558  2.6626  1.4077
  517MOL0     H68186  -0.291   7.045   5.682 -0.4957  1.0741 -1.3800
  517MOL0     H68187  -0.441   7.289   5.784 -2.1863 -1.6025  0.8351
  517MOL0     H68188  -0.418   7.231   5.623  0.0722  0.1579 -0.2619
  517MOL0     H68189  -0.567   7.076   5.840 -0.3890  1.0523  0.9471
  517MOL0     H68190  -0.538   7.036   5.672  0.1016  0.8725 -0.4885
  517MOL0     H68191  -0.639   7.249   5.602  4.1294  1.1417  1.4351
  517MOL0     H68192  -0.670   7.285   5.776 -0.9010 -2.4146  2.5155
  517MOL0     H68193  -0.772   7.050   5.619  0.5126 -0.6773 -0.7439
  517MOL0     H68194  -0.814   7.079   5.798  0.7579 -2.9693 -0.5804
  517MOL0     H68195  -0.898   7.281   5.582 -0.6954 -1.3033 -0.6303
  517MOL0     H68196  -0.918   7.289   5.753  0.0665  0.0042 -0.0528
  517MOL0     H68197  -1.013   6.935   5.629  1.2464  0.9794 -0.6359
  517MOL0     H68198  -1.211   6.804   5.618 -0.3000 -1.0180 -1.2731
  517MOL0     H68199  -1.353   6.882   5.551 -0.2137 -0.0618 -0.8059
  517MOL0     H68200  -1.436   6.791   5.758  1.5171 -1.3598  2.2790
  517MOL0     H68201  -1.414   6.963   5.783 -0.3709 -1.1051  0.2751
  517MOL0     H68202  -1.194   6.925   5.901  1.7599 -1.1629  3.6614
  517MOL0     H68203  -1.329   6.864   5.972 -0.9277 -2.2545 -0.5325
  517MOL0     H68204  -1.227   6.631   5.822  2.3502 -0.8970  1.5658
  517MOL0     H68205  -1.204   6.667   5.986 -1.3268 -2.6029 -0.9077
  517MOL0     H68206  -0.930   6.677   5.620 -0.4070 -0.7947 -0.6899
  517MOL0     H68207  -0.787   6.504   5.595 -0.3920 -2.5337  0.9579
  517MOL0     H68208  -0.431   6.207   6.033 -1.3203  0.8324  0.0754
  517MOL0     H68209  -0.218   6.105   5.995 -2.3746  0.9205  2.4451
  517MOL0     H68210  -0.008   6.148   5.581 -0.2634 -0.5046 -1.8543
  517MOL0     H68211  -0.132   6.028   5.552 -1.2962 -2.3581  2.0265
  517MOL0     H68212   0.008   5.880   5.528  2.7508 -0.2366 -1.6715
  517MOL0     H68213   0.013   5.873   5.705  4.7093 -2.0608 -1.0838
  517MOL0     H68214   0.228   5.980   5.714  2.0012 -2.7413  1.2108
  517MOL0     H68215   0.200   6.035   5.548  2.1110  0.0382  0.9928
  517MOL0     H68216   0.261   5.755   5.658  1.7131  0.3625  0.3159
  517MOL0     H68217   0.200   5.776   5.495 -1.3381  0.6318  1.2556
  517MOL0     H68218   0.447   5.902   5.632  0.6707 -1.4624 -0.2702
  517MOL0     H68219   0.431   5.905   5.457  0.8710  2.3060  0.8948
  517MOL0     H68220   0.427   5.664   5.450  0.0335 -0.5166  0.8836
  517MOL0     H68221   0.458   5.653   5.631  1.9040 -0.1729  0.9794
  517MOL0     H68222   0.643   5.773   5.425  1.9010 -0.2351  0.2533
  517MOL0     H68223   0.677   5.761   5.589  2.6239  1.7157 -1.3789
  517MOL0     H68224   0.661   5.518   5.603 -1.4387 -1.4982 -1.7802
  517MOL0     H68225   0.796   5.577   5.507  0.9028 -1.7181 -0.0520
  517MOL0     H68226  -0.221   6.242   5.588  1.4426 -1.8029  0.4553
  517MOL0     H68227  -0.452   6.340   5.614 -0.3357  3.7736  1.6794
  517MOL0     H68228  -0.778   6.432   6.025  1.5874 -0.5144 -0.7912
  517MOL0     H68229  -0.967   6.593   6.047 -1.5841  0.4716 -1.0431
  517MOL0     H68230   0.098   6.951   5.977  0.2261 -2.9774 -0.6861
  517MOL0     H68231   0.296   6.906   6.025  1.3972  1.3178  0.1009
  517MOL0     H68232   0.762   7.014   5.792 -1.1086 -0.1275 -0.5133
  517MOL0     H68233   1.005   7.001   5.815  1.0285 -0.5668  1.9782
  517MOL0     H68234   1.189   6.909   5.837 -4.4340 -1.8581  1.7464
  517MOL0     H68235   1.291   6.832   5.948 -0.6636  0.3593 -2.1800
  517MOL0     H68236   1.338   7.064   6.066  3.1582 -1.3674  0.0999
  517MOL0     H68237   1.403   7.046   5.901  0.1740  0.4760 -0.4271
  517MOL0     H68238   1.129   7.188   5.954  0.1639  1.3324 -0.6192
  517MOL0     H68239   1.221   7.172   5.801 -1.5847 -0.5385  0.1564
  517MOL0     H68240   1.300   7.296   6.061 -2.2623  0.5443  0.5326
  517MOL0     H68241   1.397   7.296   5.913 -0.1844  4.8705  0.0036
  517MOL0     H68242   1.111   7.601   5.884  1.0986 -0.1057 -1.6811
  517MOL0     H68243   0.955   6.851   6.213  0.6942  1.1456 -0.4781
  517MOL0     H68244   0.731   6.873   6.205 -1.8113  0.1759 -1.3132
  518MOL0     O68245   1.881  11.363   6.483 -0.9761 -0.5735 -0.4959
  518MOL0     C68246   1.853  11.441   6.398 -1.1726  0.3467  0.2555
  518MOL0     O68247   1.885  11.425   6.266  0.4380 -0.0541  0.7702
  518MOL0     C68248   1.983  11.337   6.226  0.4518  1.2566  0.2179
  518MOL0     C68249   2.095  11.303   6.306  0.9451  0.4820 -0.6329
  518MOL0     C68250   2.193  11.214   6.247 -0.3796 -0.4108 -0.0863
  518MOL0     C68251   2.176  11.153   6.121 -0.4519  1.5249 -0.1536
  518MOL0     O68252   2.272  11.067   6.073 -0.1372  0.2185  0.0124
  518MOL0     C68253   2.249  11.007   5.946 -0.0371  0.3036  0.7524
  518MOL0     C68254   2.349  10.904   5.912  0.2659 -0.2569  0.0574
  518MOL0     C68255   2.286  10.811   5.805  0.2856 -0.1641  0.1577
  518MOL0     C68256   2.389  10.731   5.727  0.0733  0.6632 -0.2567
  518MOL0     C68257   2.345  10.644   5.607  0.1798 -0.9197 -0.8780
  518MOL0     C68258   2.218  10.562   5.643 -0.2557  0.0745  0.3397
  518MOL0     C68259   2.195  10.456   5.546  0.1473 -0.5828  0.4407
  518MOL0     C68260   2.054  10.389   5.561  0.0744 -0.5597  0.8685
  518MOL0     N68261   1.940  10.472   5.514  0.2289 -0.2375  0.0186
  518MOL0     C68262   1.836  10.513   5.593  0.1334  0.4196 -0.8345
  518MOL0     C68263   1.759  10.594   5.513 -0.8537 -0.0652  0.8506
  518MOL0     C68264   1.635  10.668   5.535  0.1291  0.1666 -0.9019
  518MOL0     C68265   1.521  10.560   5.545  0.3343 -0.0641 -0.0550
  518MOL0     C68266   1.386  10.634   5.553  0.8163  0.2317 -0.6852
  518MOL0     C68267   1.336  10.694   5.423  0.1195  0.0486 -0.4921
  518MOL0     O68268   1.288  10.593   5.335  0.0298 -0.1786 -0.4951
  518MOL0     C68269   1.263  10.626   5.200 -0.1153  0.3110  0.1341
  518MOL0     C68270   1.230  10.760   5.164  0.1057 -0.0891 -0.1018
  518MOL0     C68271   1.172  10.790   5.035 -0.0777  0.4718  0.3764
  518MOL0     C68272   1.174  10.683   4.938  1.0747 -0.1822  0.1618
  518MOL0     C68273   1.142  10.710   4.798  1.4007 -0.0496 -0.4100
  518MOL0     O68274   1.194  10.609   4.717 -0.3827 -0.3318 -0.1727
  518MOL0     C68275   1.183  10.626   4.583 -0.3979  1.0799  0.1913
  518MOL0     C68276   1.057  10.615   4.521  0.0941 -0.1479  0.0620
  518MOL0     C68277   1.041  10.659   4.386  1.4257  0.1751 -0.5527
  518MOL0     C68278   1.155  10.685   4.314 -0.5750  0.2804  0.0903
  518MOL0     O68279   1.141  10.728   4.181  0.2245  0.6368 -0.5131
  518MOL0     C68280   1.022  10.795   4.153 -0.1738 -0.8567  0.5362
  518MOL0     C68281   1.059  10.926   4.074 -0.3640 -0.1147  0.9230
  518MOL0     C68282   1.098  10.889   3.923 -0.0098 -0.0007  0.5593
  518MOL0     C68283   1.098  11.007   3.819 -0.0446 -0.4231 -0.2715
  518MOL0     C68284   1.129  10.961   3.677 -0.4885 -0.0606 -0.6515
  518MOL0     C68285   1.154  11.090   3.590  0.3079  0.1240 -0.5088
  518MOL0     C68286   1.190  11.058   3.442 -0.4294  0.6229  0.3228
  518MOL0     C68287   1.075  10.998   3.370  0.6463 -0.1583  0.4669
  518MOL0    Cl68288   0.926  11.098   3.390  0.1331  0.0859 -0.3574
  518MOL0     C68289   1.282  10.694   4.379  0.6618 -1.0402  0.0647
  518MOL0     C68290   1.291  10.670   4.508  0.5499  0.6361 -0.1208
  518MOL0     O68291   1.082  10.809   4.762 -1.1501 -0.0421  0.3766
  518MOL0     C68292   1.187  10.544   4.987  0.2929  1.2000  0.4720
  518MOL0     C68293   1.235  10.519   5.115 -0.5454 -0.5864  0.7662
  518MOL0     N68294   1.820  10.597   5.389 -0.6837 -0.4559  0.1389
  518MOL0     N68295   1.936  10.530   5.387  0.4816  0.4619 -0.6073
  518MOL0     C68296   2.051  11.186   6.051 -0.5546  0.5115  0.6582
  518MOL0     C68297   1.963  11.279   6.105  0.1516  0.0773 -0.4966
  518MOL0     C68298   1.777  11.557   6.435 -0.6830  0.1406 -0.6857
  518MOL0     C68299   1.760  11.654   6.335 -0.2451 -0.4493 -0.1193
  518MOL0     C68300   1.689  11.771   6.368 -0.3318  0.2878  1.4057
  518MOL0     C68301   1.620  11.788   6.482  0.1627  0.2312  0.0223
  518MOL0     O68302   1.536  11.893   6.473 -0.2418 -0.1799 -0.7470
  518MOL0     C68303   1.542  12.004   6.573  0.7755 -0.1670  0.5420
  518MOL0     C68304   1.693  12.043   6.587  0.3221 -0.3686 -0.2030
  518MOL0     C68305   1.710  12.179   6.653 -0.4434 -0.3792 -0.7155
  518MOL0     C68306   1.659  12.192   6.796 -0.0440 -0.1694 -0.5739
  518MOL0     C68307   1.686  12.078   6.880  0.5752  0.2082  0.3702
  518MOL0     C68308   1.718  11.994   6.958 -0.3061  0.2160  0.1651
  518MOL0     C68309   1.631  11.687   6.583 -0.2315  0.0689 -0.4094
  518MOL0     C68310   1.718  11.573   6.564  0.8471 -0.9075  0.7068
  518MOL0     H68311   2.121  11.351   6.400  1.3246 -1.3590  0.2425
  518MOL0     H68312   2.284  11.188   6.302  0.4180  0.4724 -0.9508
  518MOL0     H68313   2.247  11.088   5.873 -2.4034  0.0650  0.4644
  518MOL0     H68314   2.147  10.967   5.954 -0.0193  0.5247  2.7131
  518MOL0     H68315   2.378  10.846   6.000 -0.8460  0.5437  0.9804
  518MOL0     H68316   2.438  10.954   5.872  1.3430 -0.9764  1.4744
  518MOL0     H68317   2.244  10.881   5.732 -0.5627 -0.4134  0.4008
  518MOL0     H68318   2.203  10.760   5.853 -1.3359  0.8283 -1.4310
  518MOL0     H68319   2.478  10.791   5.704  1.6521 -1.1668  0.6943
  518MOL0     H68320   2.434  10.657   5.795  3.5369  2.8029  0.0542
  518MOL0     H68321   2.426  10.583   5.565  1.9690  2.1807 -2.2910
  518MOL0     H68322   2.326  10.713   5.525  0.0701 -0.2800 -0.3176
  518MOL0     H68323   2.141  10.639   5.637 -0.1226  0.3270  1.5856
  518MOL0     H68324   2.207  10.524   5.745 -1.4082  1.7604  0.8891
  518MOL0     H68325   2.196  10.493   5.443 -1.1563 -1.4297  0.0997
  518MOL0     H68326   2.278  10.386   5.550 -2.2691 -3.8304 -1.1891
  518MOL0     H68327   2.039  10.350   5.662  0.4403  1.2359  1.6585
  518MOL0     H68328   2.053  10.297   5.501  2.0395 -0.8248  1.1830
  518MOL0     H68329   1.813  10.494   5.698 -0.4954  5.4259  0.1891
  518MOL0     H68330   1.608  10.737   5.455  0.5450  0.5219 -0.7417
  518MOL0     H68331   1.648  10.723   5.629 -1.6110  1.0048 -1.1151
  518MOL0     H68332   1.522  10.506   5.640 -1.0110 -2.4567 -1.2798
  518MOL0     H68333   1.520  10.479   5.471 -1.5790 -1.5610  1.5055
  518MOL0     H68334   1.316  10.558   5.588 -2.7798  3.6498  0.2483
  518MOL0     H68335   1.387  10.707   5.634 -0.0955 -0.9044  0.3782
  518MOL0     H68336   1.417  10.754   5.379  1.9970 -1.0972  1.2135
  518MOL0     H68337   1.251  10.752   5.461  0.6670  2.1085 -2.2130
  518MOL0     H68338   1.243  10.833   5.244  0.8464 -0.0142 -0.2772
  518MOL0     H68339   1.137  10.886   4.999  0.7753  0.6434 -0.0389
  518MOL0     H68340   0.977  10.589   4.589  0.9625 -2.5307  0.2359
  518MOL0     H68341   0.935  10.663   4.361 -0.6924 -0.2385  6.3813
  518MOL0     H68342   0.973  10.851   4.234  0.7683  2.1044 -0.7862
  518MOL0     H68343   0.949  10.726   4.112 -0.5717 -0.8963  1.2903
  518MOL0     H68344   1.134  10.984   4.128 -1.0782  2.4175 -0.5771
  518MOL0     H68345   0.972  10.992   4.064 -1.0346 -1.2224 -1.1186
  518MOL0     H68346   1.016  10.823   3.890 -2.8129  2.6926  1.6373
  518MOL0     H68347   1.200  10.849   3.926 -0.6371 -1.6103  2.4535
  518MOL0     H68348   1.002  11.057   3.825  0.7148  0.9366  1.2902
  518MOL0     H68349   1.180  11.073   3.846 -0.6152  0.5308 -0.8343
  518MOL0     H68350   1.053  10.895   3.634 -0.8216 -0.4202  0.4394
  518MOL0     H68351   1.221  10.901   3.677 -0.1151  0.5046 -1.1556
  518MOL0     H68352   1.246  11.135   3.627  2.3096 -3.3928 -0.7817
  518MOL0     H68353   1.069  11.154   3.614  1.5495  0.4891  3.6936
  518MOL0     H68354   1.224  11.154   3.403  1.1171 -0.0366 -0.0225
  518MOL0     H68355   1.271  10.984   3.440  0.6614  1.7959 -2.2634
  518MOL0     H68356   1.052  10.896   3.400  0.3532 -0.3367 -0.3183
  518MOL0     H68357   1.093  10.983   3.263 -0.6361 -5.2105  0.6845
  518MOL0     H68358   1.365  10.718   4.313 -1.0414  0.7308 -1.5604
  518MOL0     H68359   1.389  10.682   4.553  0.9137 -0.8626 -0.4712
  518MOL0     H68360   1.162  10.455   4.930 -1.8707  0.3804  2.5157
  518MOL0     H68361   1.252  10.415   5.141  2.0161 -0.6918 -0.9583
  518MOL0     H68362   2.034  11.133   5.958  2.5833  1.4383 -0.5744
  518MOL0     H68363   1.878  11.313   6.046  1.8499  3.0373 -1.4467
  518MOL0     H68364   1.797  11.655   6.233  1.0041  0.5965  0.3209
  518MOL0     H68365   1.687  11.842   6.286 -0.9805 -1.9503 -0.6598
  518MOL0     H68366   1.501  11.965   6.667 -0.4039 -2.1529 -0.7477
  518MOL0     H68367   1.482  12.088   6.536 -0.9042 -1.8767 -0.8147
  518MOL0     H68368   1.750  11.969   6.645  1.9250  1.6647  0.9354
  518MOL0     H68369   1.733  12.045   6.485 -2.1472  1.0914 -1.2238
  518MOL0     H68370   1.661  12.244   6.580 -0.3321 -0.6274 -1.0166
  518MOL0     H68371   1.816  12.202   6.652 -0.3156 -0.7419  1.2237
  518MOL0     H68372   1.701  12.287   6.831 -2.1186  0.9822 -1.0559
  518MOL0     H68373   1.550  12.201   6.795 -0.1288 -0.9112 -2.4214
  518MOL0     H68374   1.762  11.917   7.018  3.6982  1.7241 -0.5529
  518MOL0     H68375   1.595  11.709   6.682  3.8813 -0.5709  1.4523
  518MOL0     H68376   1.756  11.500   6.635  0.9023 -0.0255  1.6045
  519MOL0     O68377   9.950   4.237   3.557 -0.0115 -0.3274 -0.1475
  519MOL0     C68378   9.928   4.352   3.597  0.0089  2.0521  0.6082
  519MOL0     O68379   9.987   4.465   3.557 -0.3428  0.0058  0.3323
  519MOL0     C68380  10.112   4.466   3.488  0.3969 -0.2087 -0.4925
  519MOL0     C68381  10.216   4.384   3.526 -0.6972  1.2286  0.9238
  519MOL0     C68382  10.341   4.381   3.457 -0.2094  0.2858 -0.2160
  519MOL0     C68383  10.348   4.465   3.344  0.5336 -0.1503 -0.3544
  519MOL0     O68384  10.457   4.460   3.258  0.2315 -0.3104  0.2681
  519MOL0     C68385  10.546   4.574   3.246  0.0443  0.0547  0.0302
  519MOL0     C68386  10.631   4.602   3.369 -0.2168  0.7639 -0.4063
  519MOL0     C68387  10.757   4.687   3.350 -0.7671  0.4603 -0.5644
  519MOL0     C68388  10.743   4.812   3.256  0.4941  0.5083 -0.4320
  519MOL0     C68389  10.884   4.824   3.194  0.0412 -0.1645 -0.1124
  519MOL0     C68390  10.864   4.922   3.078 -0.5360  0.5162 -0.2273
  519MOL0     C68391  10.996   4.956   3.014 -0.2979  0.3825 -0.0166
  519MOL0     C68392  11.075   4.852   2.935 -0.0311  0.4218  0.0271
  519MOL0     N68393  11.000   4.814   2.814 -0.5659  0.5122  1.1296
  519MOL0     C68394  11.016   4.854   2.686 -0.9135  0.3125  0.2604
  519MOL0     C68395  10.928   4.780   2.609 -0.0858 -0.3950  0.8113
  519MOL0     C68396  10.914   4.779   2.461  0.8403  0.8499 -0.5020
  519MOL0     C68397  10.935   4.633   2.405  0.0860 -0.1027 -0.6627
  519MOL0     C68398  11.089   4.593   2.439  0.0675  0.7253  0.5168
  519MOL0     C68399  11.198   4.705   2.417  0.1952 -0.1943 -0.6991
  519MOL0     O68400  11.324   4.646   2.421  0.7404 -0.0857 -0.7104
  519MOL0     C68401  11.387   4.643   2.549 -0.1467  0.5535  0.3275
  519MOL0     C68402  11.338   4.676   2.677 -0.5590  0.3009 -0.2655
  519MOL0     C68403  11.409   4.650   2.794  0.4033 -0.4661  0.5775
  519MOL0     C68404  11.548   4.611   2.781  0.5730 -0.5073 -0.8536
  519MOL0     C68405  11.632   4.589   2.895 -0.5762  0.1795 -0.6788
  519MOL0     O68406  11.611   4.665   3.006 -0.3494  0.0731  0.2807
  519MOL0     C68407  11.671   4.642   3.120 -0.2385 -0.1518 -0.5896
  519MOL0     C68408  11.606   4.559   3.216 -0.4184  0.4518 -0.0851
  519MOL0     C68409  11.656   4.533   3.341 -0.3667 -0.4324 -0.4482
  519MOL0     C68410  11.776   4.588   3.381 -0.7142  0.1369 -0.3677
  519MOL0     O68411  11.813   4.553   3.509 -0.2266 -0.2696 -0.2408
  519MOL0     C68412  11.941   4.578   3.557 -1.1182  0.2554  0.6717
  519MOL0     C68413  12.025   4.453   3.532  0.3284 -0.3477  0.5252
  519MOL0     C68414  12.075   4.443   3.390 -0.1758  0.1094  0.5047
  519MOL0     C68415  12.191   4.338   3.385 -0.0808  0.1417  0.6419
  519MOL0     C68416  12.298   4.374   3.280 -0.1981  0.1906 -0.2076
  519MOL0     C68417  12.408   4.267   3.280 -0.3419  0.5044  0.5202
  519MOL0     C68418  12.496   4.279   3.414 -0.1848 -1.2802 -0.8125
  519MOL0     C68419  12.613   4.212   3.373 -0.1658 -0.4960 -0.2154
  519MOL0    Cl68420  12.588   4.040   3.345  0.0605 -0.0361 -0.1028
  519MOL0     C68421  11.848   4.673   3.294  0.6806  0.2579 -0.4896
  519MOL0     C68422  11.787   4.705   3.165 -0.0510 -0.0681 -0.4170
  519MOL0     O68423  11.715   4.496   2.885  0.5069  0.3961 -0.1896
  519MOL0     C68424  11.595   4.585   2.656 -0.2535  0.2475  0.0308
  519MOL0     C68425  11.519   4.599   2.539  0.5755  0.6129 -0.9355
  519MOL0     N68426  10.851   4.705   2.691  0.6140  0.0750  0.3256
  519MOL0     N68427  10.896   4.716   2.820  0.0076  0.3514  0.0365
  519MOL0     C68428  10.239   4.549   3.313 -0.4004 -0.5285 -0.1059
  519MOL0     C68429  10.121   4.553   3.381  0.4712  1.0178 -0.2931
  519MOL0     C68430   9.820   4.364   3.698 -0.4674  0.1702 -0.4190
  519MOL0     C68431   9.808   4.482   3.781  0.8875  0.5894 -0.5238
  519MOL0     C68432   9.687   4.499   3.843  0.2469 -0.3606  0.8857
  519MOL0     C68433   9.593   4.400   3.856 -0.3056  0.1439  0.3298
  519MOL0     O68434   9.481   4.452   3.917 -0.4007 -0.4366 -0.2345
  519MOL0     C68435   9.387   4.349   3.947  0.5777  0.0800 -0.3235
  519MOL0     C68436   9.288   4.402   4.057  0.2768  0.3097  0.3527
  519MOL0     C68437   9.356   4.425   4.200  0.9616  0.3266  0.2045
  519MOL0     C68438   9.244   4.474   4.302  0.8315  0.7284 -0.5549
  519MOL0     C68439   9.310   4.476   4.428 -0.6034 -0.6804  0.4820
  519MOL0     C68440   9.361   4.499   4.543  0.4267 -0.2674 -0.1398
  519MOL0     C68441   9.614   4.278   3.793  0.3437 -0.4907  0.5567
  519MOL0     C68442   9.726   4.255   3.712 -0.0592  0.6131  0.1129
  519MOL0     H68443  10.203   4.320   3.613  1.3755  0.7289  0.9126
  519MOL0     H68444  10.422   4.309   3.468  1.5653  2.0981 -0.8253
  519MOL0     H68445  10.493   4.665   3.218  4.1840  2.6004 -0.4010
  519MOL0     H68446  10.626   4.568   3.171  0.6822 -2.1000  0.8112
  519MOL0     H68447  10.659   4.504   3.410 -2.0291  1.4589  2.9459
  519MOL0     H68448  10.578   4.654   3.450  1.5075 -1.8868  2.6859
  519MOL0     H68449  10.844   4.630   3.316  0.5927  3.3347 -2.3358
  519MOL0     H68450  10.781   4.725   3.450 -2.9925  2.0400 -0.5565
  519MOL0     H68451  10.668   4.803   3.177 -0.1376  3.2473 -0.2535
  519MOL0     H68452  10.723   4.908   3.305 -1.3856 -0.1448  0.1719
  519MOL0     H68453  10.923   4.735   3.145 -2.9857  0.9253 -5.2751
  519MOL0     H68454  10.966   4.854   3.260 -0.2403  0.8484 -0.1996
  519MOL0     H68455  10.813   5.016   3.102  0.7504  0.5497  2.7841
  519MOL0     H68456  10.812   4.876   2.993  1.1965  0.1207 -1.1194
  519MOL0     H68457  10.987   5.039   2.943  0.3735 -0.8209 -1.5656
  519MOL0     H68458  11.056   4.990   3.098  0.4188  0.3940 -0.5283
  519MOL0     H68459  11.084   4.764   2.999  0.1642  0.3098 -0.1520
  519MOL0     H68460  11.173   4.887   2.900  0.1663 -1.6420 -1.7062
  519MOL0     H68461  11.082   4.937   2.663  0.3588 -0.5935  0.5583
  519MOL0     H68462  10.987   4.852   2.425  1.1286  1.5418  1.3537
  519MOL0     H68463  10.812   4.803   2.428 -0.3585  0.3528  2.5093
  519MOL0     H68464  10.912   4.627   2.299 -0.1457  1.7220 -0.7491
  519MOL0     H68465  10.869   4.557   2.448 -1.5445  1.3957 -0.3795
  519MOL0     H68466  11.087   4.555   2.542 -2.7135 -0.8746 -0.0197
  519MOL0     H68467  11.117   4.506   2.379 -0.5699  0.2438  0.8951
  519MOL0     H68468  11.189   4.781   2.495  3.9250 -3.4098  3.4122
  519MOL0     H68469  11.198   4.744   2.315 -0.4870 -1.2394 -1.1217
  519MOL0     H68470  11.233   4.702   2.672 -1.4930 -3.0651 -1.2022
  519MOL0     H68471  11.356   4.645   2.888  0.0026 -1.5371  0.3049
  519MOL0     H68472  11.517   4.497   3.204 -1.5825  1.4673  2.6214
  519MOL0     H68473  11.594   4.472   3.405  1.3516 -1.0722  0.6770
  519MOL0     H68474  11.941   4.608   3.662 -0.5349  0.3992  0.6354
  519MOL0     H68475  11.989   4.659   3.501 -2.4665 -1.0446 -2.6334
  519MOL0     H68476  11.965   4.364   3.552 -0.2118 -0.2112 -0.3942
  519MOL0     H68477  12.108   4.447   3.603 -0.0257 -3.1926  0.8103
  519MOL0     H68478  12.127   4.534   3.359 -1.9040  0.8808 -0.2574
  519MOL0     H68479  11.990   4.421   3.325 -1.6730 -0.5758  2.6109
  519MOL0     H68480  12.234   4.337   3.485 -2.0819 -1.0437  1.5534
  519MOL0     H68481  12.157   4.238   3.355  0.1623  0.7471 -1.9377
  519MOL0     H68482  12.328   4.468   3.326 -0.4609 -0.6265  1.7532
  519MOL0     H68483  12.244   4.383   3.186 -1.2463 -2.7673 -0.0119
  519MOL0     H68484  12.460   4.277   3.184 -0.6679 -4.5255 -0.4288
  519MOL0     H68485  12.366   4.166   3.280 -1.0786  0.7666  2.4449
  519MOL0     H68486  12.521   4.385   3.416 -1.0403 -1.0807  0.3212
  519MOL0     H68487  12.448   4.252   3.508  0.4454  3.8136  1.2559
  519MOL0     H68488  12.680   4.217   3.460 -3.3974  2.4859  2.4044
  519MOL0     H68489  12.663   4.257   3.287  1.6118 -2.4288 -0.2741
  519MOL0     H68490  11.942   4.718   3.322  0.1095  0.8738  0.5190
  519MOL0     H68491  11.831   4.787   3.109 -0.3823  0.7820  0.5389
  519MOL0     H68492  11.695   4.543   2.643  0.5342  2.1541 -0.3439
  519MOL0     H68493  11.567   4.584   2.443  0.7291  0.1336 -0.7874
  519MOL0     H68494  10.265   4.626   3.242  2.2967  0.8332  2.1680
  519MOL0     H68495  10.033   4.615   3.367 -1.6653 -1.6392  0.5129
  519MOL0     H68496   9.879   4.563   3.778  0.2478  1.2235  0.6333
  519MOL0     H68497   9.664   4.584   3.906 -0.0294  1.3597 -1.4060
  519MOL0     H68498   9.445   4.263   3.982 -1.3068 -1.0229  0.2387
  519MOL0     H68499   9.325   4.324   3.860 -2.1012  0.3641  1.3747
  519MOL0     H68500   9.255   4.504   4.033 -0.8056  0.0357  0.6442
  519MOL0     H68501   9.193   4.348   4.062  0.1772  0.3583 -0.7460
  519MOL0     H68502   9.434   4.501   4.207  3.5680 -2.3449  3.9403
  519MOL0     H68503   9.388   4.329   4.240  0.6293 -0.3090 -1.0093
  519MOL0     H68504   9.216   4.577   4.277  1.0771  0.2659 -2.9036
  519MOL0     H68505   9.153   4.413   4.302 -0.6467  2.8007 -1.4860
  519MOL0     H68506   9.395   4.510   4.644  0.1605 -1.0255  0.0370
  519MOL0     H68507   9.534   4.205   3.794 -1.9895  1.7903 -2.0035
  519MOL0     H68508   9.733   4.166   3.650  1.8891  1.0850 -0.4244
  520MOL0     O68509   5.293   1.238   8.111 -0.5432 -0.1069 -0.1451
  520MOL0     C68510   5.255   1.123   8.106  0.1813  0.5432 -0.7283
  520MOL0     O68511   5.308   1.029   8.023  0.2381  0.2381  0.8987
  520MOL0     C68512   5.413   1.046   7.942  0.4411  0.3400  1.2300
  520MOL0     C68513   5.406   0.965   7.830 -0.1500 -0.1605 -0.4415
  520MOL0     C68514   5.518   0.958   7.745 -0.5167 -0.1192  0.5214
  520MOL0     C68515   5.620   1.053   7.765  0.5591 -0.9810 -0.5909
  520MOL0     O68516   5.717   1.086   7.674  0.3377 -0.3077  0.3201
  520MOL0     C68517   5.819   0.981   7.659  0.3059 -0.6184  0.4798
  520MOL0     C68518   5.946   1.055   7.681  0.7562 -0.4540 -0.2329
  520MOL0     C68519   6.059   0.968   7.635  0.1234 -0.0128 -0.0223
  520MOL0     C68520   6.187   1.058   7.626  0.1034  0.8957  0.2605
  520MOL0     C68521   6.304   0.965   7.588  0.3164 -0.1509  0.3687
  520MOL0     C68522   6.424   1.061   7.538  0.0052 -0.6755  0.8470
  520MOL0     C68523   6.542   0.965   7.556 -0.2791  0.5464 -0.0469
  520MOL0     C68524   6.667   1.014   7.492 -0.4153 -0.4756  0.3599
  520MOL0     N68525   6.730   1.113   7.588 -0.3250  0.5672  0.1401
  520MOL0     C68526   6.819   1.090   7.699 -0.5614  0.0015 -0.7020
  520MOL0     C68527   6.833   1.213   7.755 -1.0677  0.0942  0.7962
  520MOL0     C68528   6.904   1.248   7.880  0.5238  1.1492  0.8624
  520MOL0     C68529   7.044   1.186   7.892  0.3179  0.0931  0.1813
  520MOL0     C68530   7.140   1.234   7.776  0.9088  0.6445  0.8937
  520MOL0     C68531   7.242   1.117   7.750  0.1738 -0.3228  0.4020
  520MOL0     O68532   7.177   1.019   7.671  0.3758  0.0105 -0.3292
  520MOL0     C68533   7.257   0.908   7.644 -1.0599 -0.2328  0.2886
  520MOL0     C68534   7.395   0.925   7.614  1.2582  0.1791  0.2107
  520MOL0     C68535   7.480   0.824   7.592 -0.4879  0.3967 -0.1845
  520MOL0     C68536   7.430   0.691   7.604  0.5526 -0.3974  0.7091
  520MOL0     C68537   7.527   0.581   7.564 -1.0341  0.2252 -0.4736
  520MOL0     O68538   7.665   0.602   7.567 -0.6683  0.0387  0.5623
  520MOL0     C68539   7.748   0.488   7.545 -0.1721 -0.3081  0.0764
  520MOL0     C68540   7.783   0.423   7.425 -0.1192 -0.5050  0.7172
  520MOL0     C68541   7.881   0.324   7.417 -0.2251  0.3862 -0.3457
  520MOL0     C68542   7.947   0.285   7.535 -0.3047 -0.7746 -0.0303
  520MOL0     O68543   8.049   0.196   7.543 -0.4546  0.3304  0.4842
  520MOL0     C68544   8.103   0.158   7.413  0.5575  0.0309 -0.7812
  520MOL0     C68545   8.179   0.031   7.438  0.0118 -0.5658  0.4520
  520MOL0     C68546   8.308   0.041   7.518  0.2586  0.0422  0.1220
  520MOL0     C68547   8.363  -0.103   7.535  0.4071  0.0638 -0.7584
  520MOL0     C68548   8.492  -0.109   7.612 -0.5607  0.6767  0.0855
  520MOL0     C68549   8.569  -0.247   7.582  0.0372 -0.6506 -1.1428
  520MOL0     C68550   8.513  -0.360   7.656  0.1416 -0.7650  0.5589
  520MOL0     C68551   8.505  -0.342   7.806 -1.1954 -0.4859  0.0915
  520MOL0    Cl68552   8.655  -0.293   7.888 -0.5407  0.1899 -0.3088
  520MOL0     C68553   7.916   0.350   7.647  0.1004  0.3057 -0.2150
  520MOL0     C68554   7.816   0.448   7.656 -0.1180 -0.3758 -0.6830
  520MOL0     O68555   7.481   0.470   7.552 -0.0510 -0.0060  0.2571
  520MOL0     C68556   7.301   0.682   7.640  0.0412  0.1085 -0.5134
  520MOL0     C68557   7.209   0.780   7.656  0.2808 -0.2933 -0.0302
  520MOL0     N68558   6.778   1.307   7.667  0.5233 -0.2577 -0.6251
  520MOL0     N68559   6.720   1.249   7.576 -0.0516 -0.2013 -0.2147
  520MOL0     C68560   5.623   1.136   7.881 -1.0235 -0.2535  0.3153
  520MOL0     C68561   5.511   1.138   7.966 -2.2207 -0.5889  0.4133
  520MOL0     C68562   5.145   1.083   8.204  0.0403  0.0015  0.7848
  520MOL0     C68563   5.108   0.953   8.224  0.9689  0.4785 -1.0999
  520MOL0     C68564   5.010   0.919   8.323 -0.2423  0.4624  0.9844
  520MOL0     C68565   4.950   1.018   8.403  0.1144 -0.1726 -0.0122
  520MOL0     O68566   4.860   0.961   8.498  0.6593  0.1628  0.0201
  520MOL0     C68567   4.755   1.039   8.565 -0.5769  0.7040 -0.3811
  520MOL0     C68568   4.634   1.076   8.487  0.1934 -0.6359  0.6992
  520MOL0     C68569   4.546   1.174   8.566  0.0112  0.3723 -0.7463
  520MOL0     C68570   4.500   1.132   8.713  0.4362 -0.3115  0.0350
  520MOL0     C68571   4.601   1.161   8.807  0.3971  0.1188 -0.1659
  520MOL0     C68572   4.679   1.195   8.888  0.8916 -0.8662  0.3597
  520MOL0     C68573   4.981   1.150   8.375  0.5089 -0.6969  1.0570
  520MOL0     C68574   5.077   1.183   8.273  0.9242  0.4582  0.2176
  520MOL0     H68575   5.319   0.904   7.804 -0.5596 -0.5041  1.5795
  520MOL0     H68576   5.525   0.897   7.655 -0.6654 -2.2892  1.9094
  520MOL0     H68577   5.819   0.936   7.560  0.3886  0.7949 -0.1864
  520MOL0     H68578   5.803   0.902   7.733 -0.3695  1.6499  2.9104
  520MOL0     H68579   5.954   1.100   7.781 -0.3276  2.7327 -1.4496
  520MOL0     H68580   5.943   1.138   7.610 -2.3326  0.2312  0.5451
  520MOL0     H68581   6.039   0.924   7.537  0.0248 -0.8521  0.3675
  520MOL0     H68582   6.068   0.891   7.712 -0.1095  0.9553  1.0142
  520MOL0     H68583   6.184   1.138   7.551 -1.3071  2.1729  1.6114
  520MOL0     H68584   6.204   1.107   7.722  0.2927 -0.6139  1.0261
  520MOL0     H68585   6.277   0.896   7.508 -2.5191  0.9358  0.2658
  520MOL0     H68586   6.330   0.917   7.682 -1.1318 -1.2379  0.2356
  520MOL0     H68587   6.436   1.157   7.589  0.7288  0.4144 -1.2581
  520MOL0     H68588   6.419   1.091   7.433 -1.0860 -2.4125  0.3563
  520MOL0     H68589   6.559   0.944   7.662  2.8826  0.0844 -0.5673
  520MOL0     H68590   6.511   0.869   7.514 -0.4392  1.1700 -1.4143
  520MOL0     H68591   6.638   1.073   7.405 -0.2580 -0.4577  0.3205
  520MOL0     H68592   6.737   0.934   7.464  3.4402  2.8074 -0.2514
  520MOL0     H68593   6.862   0.993   7.722  1.3659  0.7155 -1.1449
  520MOL0     H68594   6.846   1.233   7.972 -0.2436  0.9279  0.3565
  520MOL0     H68595   6.925   1.355   7.886  0.4755  1.1185  1.6799
  520MOL0     H68596   7.047   1.079   7.917  1.6560  0.3792  1.3452
  520MOL0     H68597   7.090   1.227   7.982  3.2025 -1.3937 -0.5139
  520MOL0     H68598   7.090   1.243   7.678  0.3543 -2.4257  0.7977
  520MOL0     H68599   7.181   1.332   7.801  0.3519  1.0492  0.2826
  520MOL0     H68600   7.279   1.079   7.846 -0.5402  1.4341  1.4201
  520MOL0     H68601   7.323   1.166   7.695  0.1459  0.1336  0.7530
  520MOL0     H68602   7.441   1.023   7.606  0.0275  0.6102 -2.7160
  520MOL0     H68603   7.579   0.843   7.552 -0.4759  0.3509 -0.1769
  520MOL0     H68604   7.733   0.460   7.336  1.9738 -0.7679 -0.6525
  520MOL0     H68605   7.905   0.282   7.319  0.1123 -2.1624  0.7508
  520MOL0     H68606   8.163   0.227   7.353  0.8067  0.9312  0.4583
  520MOL0     H68607   8.028   0.115   7.346  1.8760 -0.5156 -1.9347
  520MOL0     H68608   8.204  -0.007   7.338 -1.3320 -0.4944  0.0677
  520MOL0     H68609   8.106  -0.026   7.496  2.5575 -0.8528  3.6282
  520MOL0     H68610   8.279   0.075   7.618 -0.6703 -2.2916  0.6865
  520MOL0     H68611   8.375   0.115   7.472 -0.8360  0.1010 -1.4787
  520MOL0     H68612   8.285  -0.163   7.582  0.7226  1.3026  1.5282
  520MOL0     H68613   8.375  -0.139   7.433 -0.0571  1.3005 -1.2645
  520MOL0     H68614   8.489  -0.106   7.721 -0.3747  0.3795  0.0990
  520MOL0     H68615   8.560  -0.032   7.574  2.8554 -2.3134 -0.3487
  520MOL0     H68616   8.675  -0.232   7.602 -0.6981  2.3888  1.3751
  520MOL0     H68617   8.553  -0.266   7.476  0.9760 -3.6978 -0.8139
  520MOL0     H68618   8.410  -0.364   7.618 -0.2782  3.3619  0.7859
  520MOL0     H68619   8.554  -0.458   7.630  0.8641 -0.1298 -0.8071
  520MOL0     H68620   8.475  -0.436   7.854 -0.6554 -1.3487 -1.1914
  520MOL0     H68621   8.432  -0.267   7.838 -0.3153  1.1563 -1.5943
  520MOL0     H68622   7.966   0.325   7.740  1.2598  0.6250 -0.7300
  520MOL0     H68623   7.784   0.478   7.755 -0.8314 -3.8753  0.3011
  520MOL0     H68624   7.267   0.579   7.647  2.9376 -0.8703  0.5525
  520MOL0     H68625   7.114   0.758   7.703  0.9527  0.3758  1.7520
  520MOL0     H68626   5.710   1.200   7.884 -0.5111 -0.5905 -3.1507
  520MOL0     H68627   5.515   1.214   8.043 -1.6907 -1.2916  1.0964
  520MOL0     H68628   5.144   0.876   8.156  0.6681 -2.0704  1.4420
  520MOL0     H68629   4.990   0.815   8.346  3.7476  0.1034  3.8952
  520MOL0     H68630   4.801   1.135   8.590  0.3295  0.5064 -1.1924
  520MOL0     H68631   4.733   0.987   8.658 -1.9023 -1.4311 -1.7976
  520MOL0     H68632   4.655   1.131   8.395 -1.9281 -1.1523 -0.1714
  520MOL0     H68633   4.583   0.980   8.475 -1.8241  0.6371 -2.1307
  520MOL0     H68634   4.453   1.195   8.512  0.1479  1.5858 -0.5306
  520MOL0     H68635   4.607   1.264   8.578 -0.0438  0.3750 -0.4705
  520MOL0     H68636   4.413   1.193   8.741  1.2193  1.5193 -1.3053
  520MOL0     H68637   4.473   1.026   8.707 -1.7508  0.2591 -1.7499
  520MOL0     H68638   4.734   1.221   8.976  0.2665 -2.0733  1.1423
  520MOL0     H68639   4.931   1.237   8.419  0.9634  1.1586 -1.8233
  520MOL0     H68640   5.082   1.290   8.259 -1.2524  0.6334  0.3647
  521MOL0     O68641   8.331   2.636   8.767  0.2431 -0.3159 -0.1045
  521MOL0     C68642   8.452   2.631   8.802  0.7691 -1.3205 -0.7353
  521MOL0     O68643   8.524   2.747   8.849 -0.8441  0.3860  0.5782
  521MOL0     C68644   8.467   2.874   8.833  0.4150  0.7397 -0.6886
  521MOL0     C68645   8.519   2.980   8.907  0.1190  1.1724  1.1956
  521MOL0     C68646   8.489   3.116   8.889 -0.2445  0.9280  0.8035
  521MOL0     C68647   8.393   3.157   8.799 -0.2313 -0.1567  0.8334
  521MOL0     O68648   8.338   3.285   8.791  0.7077  0.5700  0.7118
  521MOL0     C68649   8.281   3.334   8.916 -1.0720  0.0966  0.5669
  521MOL0     C68650   8.149   3.268   8.957  0.2171 -0.0837  0.0707
  521MOL0     C68651   8.036   3.323   8.865  0.0229 -0.4647  0.3531
  521MOL0     C68652   7.904   3.259   8.901 -0.3271 -0.0346 -0.6559
  521MOL0     C68653   7.808   3.326   8.812 -0.2277 -2.1673 -0.1139
  521MOL0     C68654   7.663   3.285   8.832 -0.9178 -0.7619 -0.6066
  521MOL0     C68655   7.559   3.393   8.788 -0.2107  0.8100  0.7992
  521MOL0     C68656   7.587   3.425   8.639 -0.6599  0.3049  0.2283
  521MOL0     N68657   7.487   3.523   8.590 -0.6915 -0.3260  0.0276
  521MOL0     C68658   7.509   3.651   8.553  0.0344  0.2385  0.4682
  521MOL0     C68659   7.390   3.718   8.536 -0.9859  0.7722  0.9888
  521MOL0     C68660   7.385   3.863   8.492 -0.4316  0.0234 -0.0982
  521MOL0     C68661   7.488   3.891   8.387  0.1709 -0.5815 -0.2078
  521MOL0     C68662   7.467   4.020   8.315  0.6846  0.1031 -0.0586
  521MOL0     C68663   7.568   4.030   8.190  0.5219 -0.8644 -0.0969
  521MOL0     O68664   7.510   4.119   8.095  0.4231 -0.7343 -0.2259
  521MOL0     C68665   7.533   4.249   8.124  0.8246 -0.6645  0.0134
  521MOL0     C68666   7.596   4.317   8.227 -0.2667  0.9200 -0.9698
  521MOL0     C68667   7.609   4.456   8.214 -0.1340  0.3586  0.1772
  521MOL0     C68668   7.550   4.529   8.114 -0.8152 -1.7635 -0.3996
  521MOL0     C68669   7.569   4.668   8.105  0.0371 -0.7526  0.6546
  521MOL0     O68670   7.490   4.743   8.015 -0.2328 -0.5125  0.7398
  521MOL0     C68671   7.471   4.884   8.033  0.1054  0.1098 -0.6679
  521MOL0     C68672   7.560   4.979   8.091 -0.1156  0.1659 -0.3573
  521MOL0     C68673   7.545   5.117   8.084  0.9662 -1.2981 -0.5683
  521MOL0     C68674   7.431   5.171   8.040  0.3070 -0.0370 -0.3766
  521MOL0     O68675   7.392   5.301   8.058 -0.2528 -0.2242 -0.1425
  521MOL0     C68676   7.476   5.403   8.006  0.8227 -0.3844  0.2410
  521MOL0     C68677   7.393   5.525   7.969  0.3728 -0.1640 -1.2164
  521MOL0     C68678   7.318   5.517   7.837  0.8509  0.2694 -0.2058
  521MOL0     C68679   7.318   5.649   7.754  0.4469  0.5046  1.3905
  521MOL0     C68680   7.272   5.634   7.605 -0.7379 -0.2093 -1.0744
  521MOL0     C68681   7.341   5.527   7.522  0.0177  0.9738 -0.2471
  521MOL0     C68682   7.288   5.481   7.388  1.2851 -1.3120  0.1006
  521MOL0     C68683   7.280   5.605   7.293 -0.4682  0.0848 -0.0052
  521MOL0    Cl68684   7.110   5.662   7.297  0.3484  0.0114  0.1778
  521MOL0     C68685   7.331   5.086   7.978 -0.3951  0.2796  0.7093
  521MOL0     C68686   7.357   4.946   7.975  0.0132 -0.2450  0.6626
  521MOL0     O68687   7.663   4.715   8.169 -0.1358  1.1393 -0.5926
  521MOL0     C68688   7.467   4.460   8.025 -1.0491 -1.1699  0.2772
  521MOL0     C68689   7.476   4.321   8.018  0.1984  0.0320 -0.7676
  521MOL0     N68690   7.291   3.616   8.558  0.4456 -0.7095 -0.1718
  521MOL0     N68691   7.351   3.509   8.593 -0.2514 -0.3497  0.1950
  521MOL0     C68692   8.345   3.050   8.713 -0.1976 -0.3241  0.2734
  521MOL0     C68693   8.378   2.915   8.727 -0.2427 -0.6605 -0.4393
  521MOL0     C68694   8.523   2.503   8.782 -0.0848  1.1269 -0.0861
  521MOL0     C68695   8.451   2.380   8.765  0.4475 -0.1145 -1.3812
  521MOL0     C68696   8.519   2.260   8.782 -0.1372 -0.5065 -0.3194
  521MOL0     C68697   8.651   2.249   8.825 -0.1075 -1.1335  0.1861
  521MOL0     O68698   8.701   2.124   8.849  0.2617 -0.7382 -0.3329
  521MOL0     C68699   8.842   2.100   8.844  0.4702  0.0660 -0.3588
  521MOL0     C68700   8.876   1.957   8.905  0.6527 -0.0304  0.5778
  521MOL0     C68701   9.024   1.936   8.953 -0.3894 -0.2174  0.6131
  521MOL0     C68702   9.064   1.809   9.027  0.2755  0.0005  0.0531
  521MOL0     C68703   9.029   1.799   9.164  0.2898 -0.2211 -1.0972
  521MOL0     C68704   9.027   1.801   9.282  0.0382 -0.2416 -1.2131
  521MOL0     C68705   8.721   2.372   8.825  0.0320  0.1017 -0.8027
  521MOL0     C68706   8.663   2.497   8.811  0.8694 -0.5434 -0.6783
  521MOL0     H68707   8.579   2.955   8.994  0.9596 -1.6832 -0.0924
  521MOL0     H68708   8.533   3.180   8.964  2.3902 -0.7581  0.8157
  521MOL0     H68709   8.269   3.441   8.896  1.4604  0.5153  0.9787
  521MOL0     H68710   8.350   3.338   9.001  1.4717 -0.3623 -1.3552
  521MOL0     H68711   8.121   3.301   9.057 -4.1517 -0.0578 -0.9691
  521MOL0     H68712   8.158   3.159   8.958 -2.5646 -0.4209  2.8201
  521MOL0     H68713   8.052   3.287   8.763  0.4400 -0.6383  0.4792
  521MOL0     H68714   8.038   3.432   8.857 -0.4435 -0.3879  1.2281
  521MOL0     H68715   7.908   3.150   8.893  0.2944 -0.3337  2.4434
  521MOL0     H68716   7.888   3.287   9.006 -4.5681 -0.2555 -1.1026
  521MOL0     H68717   7.827   3.307   8.706  0.1777  2.9518 -1.2160
  521MOL0     H68718   7.817   3.433   8.833  0.2650 -2.3049  0.3744
  521MOL0     H68719   7.648   3.257   8.936 -1.5573 -1.6528 -0.9271
  521MOL0     H68720   7.643   3.192   8.778 -1.2057 -0.3817 -1.1654
  521MOL0     H68721   7.460   3.351   8.808  0.4932 -0.6954  1.2207
  521MOL0     H68722   7.576   3.484   8.848  1.9216 -1.8052  4.5773
  521MOL0     H68723   7.566   3.334   8.582 -0.5135 -1.2118  2.4757
  521MOL0     H68724   7.686   3.463   8.611 -0.8597  0.6335 -0.0481
  521MOL0     H68725   7.607   3.695   8.538  0.6085 -1.5951 -1.7248
  521MOL0     H68726   7.408   3.923   8.581 -2.1027 -0.4714  0.7058
  521MOL0     H68727   7.283   3.890   8.461 -0.5254 -0.0856  0.1063
  521MOL0     H68728   7.495   3.809   8.315 -1.0985 -0.2871 -0.6971
  521MOL0     H68729   7.583   3.904   8.440 -1.9450 -4.0501  5.3018
  521MOL0     H68730   7.362   4.021   8.285  0.7535  1.7805 -0.3334
  521MOL0     H68731   7.481   4.100   8.388  1.0453  1.8998 -1.9659
  521MOL0     H68732   7.574   3.930   8.145  1.3758  0.6738 -3.7181
  521MOL0     H68733   7.670   4.059   8.217  0.2288  0.8214 -0.7113
  521MOL0     H68734   7.637   4.263   8.311 -0.0279 -1.4098 -2.5041
  521MOL0     H68735   7.662   4.515   8.288 -2.0963  0.4631  1.5827
  521MOL0     H68736   7.660   4.956   8.127  0.3518  0.6350 -1.3239
  521MOL0     H68737   7.620   5.181   8.129  2.3851 -3.8233  0.8237
  521MOL0     H68738   7.539   5.364   7.925  3.1015  1.0519  1.2261
  521MOL0     H68739   7.543   5.424   8.089 -0.4957  2.6079  0.6589
  521MOL0     H68740   7.452   5.617   7.962  1.3963 -0.6743  0.2529
  521MOL0     H68741   7.312   5.551   8.038  0.5458  0.2376 -1.1641
  521MOL0     H68742   7.215   5.495   7.868  0.0913  2.6551 -0.7715
  521MOL0     H68743   7.367   5.445   7.771 -0.7713  2.4544 -4.2208
  521MOL0     H68744   7.249   5.720   7.800  0.6281  2.6674 -1.4133
  521MOL0     H68745   7.418   5.692   7.759  1.4949 -1.8309  1.7632
  521MOL0     H68746   7.282   5.730   7.554  3.8579  0.5694  0.8491
  521MOL0     H68747   7.173   5.588   7.615  0.5440 -2.6119  2.8728
  521MOL0     H68748   7.363   5.438   7.582 -0.6723  1.0102  0.0691
  521MOL0     H68749   7.438   5.567   7.491 -1.5042  3.3970 -2.2583
  521MOL0     H68750   7.355   5.410   7.338  0.7284 -0.8986 -1.2704
  521MOL0     H68751   7.182   5.453   7.391  0.9007 -0.0459 -0.8813
  521MOL0     H68752   7.313   5.579   7.192  2.2534  2.5087  0.1220
  521MOL0     H68753   7.360   5.672   7.324  0.5484 -2.4599  3.5326
  521MOL0     H68754   7.239   5.124   7.935 -1.3477 -2.2922  0.2759
  521MOL0     H68755   7.294   4.876   7.920  0.6897  0.4915 -1.1412
  521MOL0     H68756   7.425   4.507   7.937  0.3294 -0.4419 -0.0133
  521MOL0     H68757   7.424   4.299   7.925 -1.2825  2.8085 -0.7190
  521MOL0     H68758   8.267   3.083   8.645 -0.2376 -2.2699 -0.6972
  521MOL0     H68759   8.339   2.839   8.660  0.2275 -1.4121  0.1311
  521MOL0     H68760   8.344   2.372   8.744  0.1527  0.7634 -0.2546
  521MOL0     H68761   8.469   2.164   8.775 -0.8941 -0.0137 -2.1999
  521MOL0     H68762   8.887   2.184   8.899  1.5017 -1.1593  0.7171
  521MOL0     H68763   8.881   2.107   8.742  0.1229  1.1253 -0.4363
  521MOL0     H68764   8.819   1.927   8.993  2.3668 -3.4078  0.6912
  521MOL0     H68765   8.849   1.882   8.829 -1.0107  1.3552 -0.2769
  521MOL0     H68766   9.066   2.024   9.003 -0.6490  0.2278  0.0611
  521MOL0     H68767   9.081   1.945   8.860  4.6262  1.0777  3.4878
  521MOL0     H68768   9.022   1.721   8.976  0.5252 -0.1015  0.0238
  521MOL0     H68769   9.173   1.800   9.030  0.4335  1.3821 -0.6959
  521MOL0     H68770   9.016   1.832   9.384  1.2691  3.6322 -2.0832
  521MOL0     H68771   8.829   2.373   8.839  0.0485  0.8357 -0.9133
  521MOL0     H68772   8.727   2.581   8.838  0.6702  0.4893 -3.1552
  522MOL0     O68773   5.762   4.183   1.761  0.0405 -0.2994 -0.4958
  522MOL0     C68774   5.758   4.265   1.672 -0.2049  0.5494  0.5235
  522MOL0     O68775   5.737   4.239   1.544  0.9012  0.6892  0.3099
  522MOL0     C68776   5.654   4.138   1.503  0.6633 -1.0336  1.1596
  522MOL0     C68777   5.667   4.090   1.366  0.0904 -0.6237 -0.0706
  522MOL0     C68778   5.587   3.980   1.331  0.9855  0.3056 -0.5234
  522MOL0     C68779   5.484   3.931   1.419  0.2520  0.5233  0.6013
  522MOL0     O68780   5.403   3.826   1.391 -0.0748  0.6752  0.4695
  522MOL0     C68781   5.458   3.713   1.322 -0.7621  0.5427  0.4594
  522MOL0     C68782   5.354   3.618   1.293  0.7241  0.2376  0.0586
  522MOL0     C68783   5.221   3.676   1.227 -0.0856 -0.7905 -0.0388
  522MOL0     C68784   5.250   3.771   1.101  0.0867  0.6636 -0.7919
  522MOL0     C68785   5.120   3.851   1.063 -0.5451  0.8371 -0.0870
  522MOL0     C68786   5.083   3.968   1.149 -0.2918  0.3634  0.4367
  522MOL0     C68787   5.174   4.091   1.154  0.3426 -0.0979 -0.4241
  522MOL0     C68788   5.137   4.162   1.286  0.4307 -0.1154  0.8714
  522MOL0     N68789   5.220   4.287   1.284  0.5199  0.5762  0.0771
  522MOL0     C68790   5.352   4.312   1.286  0.0536  0.0870 -0.4995
  522MOL0     C68791   5.372   4.446   1.273  0.6123  0.1664  1.0651
  522MOL0     C68792   5.508   4.507   1.254  0.0400 -0.4043  0.7704
  522MOL0     C68793   5.594   4.441   1.153  0.8493 -0.3406  0.9328
  522MOL0     C68794   5.721   4.528   1.125  0.2246 -0.1346 -0.5073
  522MOL0     C68795   5.803   4.467   1.009 -0.9198 -0.4964 -0.5159
  522MOL0     O68796   5.731   4.449   0.886 -0.1212  0.0760  0.4156
  522MOL0     C68797   5.768   4.529   0.780 -0.1438  0.1358 -0.2783
  522MOL0     C68798   5.802   4.666   0.809 -0.1691 -0.0500 -0.1815
  522MOL0     C68799   5.829   4.755   0.701 -0.1408 -0.4864 -0.9467
  522MOL0     C68800   5.847   4.709   0.575 -0.6702 -0.2364  0.5026
  522MOL0     C68801   5.901   4.794   0.467  0.0644  0.6327 -0.1425
  522MOL0     O68802   5.993   4.894   0.499 -1.0591  0.0055  0.3346
  522MOL0     C68803   5.991   5.002   0.411 -0.1018 -0.5019 -0.0883
  522MOL0     C68804   5.993   5.134   0.467  0.6282  0.0199  0.0242
  522MOL0     C68805   5.997   5.249   0.390  0.1217 -0.0023  0.2256
  522MOL0     C68806   6.004   5.241   0.253 -0.3396  0.4044 -0.0333
  522MOL0     O68807   6.027   5.357   0.184 -0.3565 -0.0980 -0.3406
  522MOL0     C68808   5.906   5.440   0.192 -0.0133  0.2123 -0.5855
  522MOL0     C68809   5.915   5.569   0.121  0.7248 -0.0272 -0.1021
  522MOL0     C68810   5.786   5.665   0.115  0.0969  0.8767  0.5843
  522MOL0     C68811   5.826   5.791   0.041 -0.0510 -0.5979  0.5151
  522MOL0     C68812   5.716   5.894   0.053 -0.0701  0.0052 -0.1318
  522MOL0     C68813   5.749   6.029  -0.019 -0.4917 -0.1105 -0.1412
  522MOL0     C68814   5.886   6.107   0.010  0.2960  0.2138  0.1427
  522MOL0     C68815   5.890   6.240  -0.062 -0.1994 -0.6843  0.8934
  522MOL0    Cl68816   6.065   6.290  -0.084 -0.3796 -0.0146 -0.2629
  522MOL0     C68817   6.003   5.114   0.197 -0.0896 -0.9882 -0.0800
  522MOL0     C68818   5.988   4.994   0.272 -0.8672 -0.0632 -0.3958
  522MOL0     O68819   5.838   4.776   0.363 -0.0576  0.1230 -1.2458
  522MOL0     C68820   5.824   4.569   0.560  0.2435 -0.0318 -0.5125
  522MOL0     C68821   5.785   4.477   0.657  0.4790 -1.1852 -0.2905
  522MOL0     N68822   5.251   4.502   1.252 -0.1915  0.0685 -1.0426
  522MOL0     N68823   5.158   4.411   1.272 -0.8781 -0.0244  0.3076
  522MOL0     C68824   5.457   3.991   1.540  0.3373 -0.4062 -0.0878
  522MOL0     C68825   5.550   4.095   1.581  2.2059  0.0618  0.7599
  522MOL0     C68826   5.828   4.389   1.700 -0.0556 -0.0422 -0.7988
  522MOL0     C68827   5.860   4.424   1.830  0.3130 -0.1550  0.8374
  522MOL0     C68828   5.940   4.538   1.860  0.0646 -0.0887 -0.2540
  522MOL0     C68829   5.973   4.617   1.754  0.3186 -0.7045 -0.8322
  522MOL0     O68830   6.018   4.747   1.774  0.2465  0.5467 -0.6502
  522MOL0     C68831   6.093   4.780   1.891  1.0780 -0.0130  0.5468
  522MOL0     C68832   6.232   4.713   1.881 -0.3417  0.2414 -0.6428
  522MOL0     C68833   6.341   4.827   1.872  0.6570  0.4247  0.5295
  522MOL0     C68834   6.472   4.767   1.816  0.0050  0.2484 -0.9685
  522MOL0     C68835   6.512   4.658   1.912 -0.2582  0.9492 -0.2660
  522MOL0     C68836   6.537   4.561   1.981  0.3045 -0.2189 -0.7093
  522MOL0     C68837   5.938   4.586   1.626 -0.0793  0.6481  1.4019
  522MOL0     C68838   5.868   4.474   1.594  0.1969 -0.1713 -0.9767
  522MOL0     H68839   5.758   4.113   1.312  0.6658  1.7327  1.7278
  522MOL0     H68840   5.597   3.940   1.230  1.8396 -1.9968  0.4105
  522MOL0     H68841   5.533   3.662   1.383  0.3834 -0.8703 -1.9735
  522MOL0     H68842   5.520   3.744   1.238  0.8156  7.2131  3.4700
  522MOL0     H68843   5.341   3.554   1.381  2.0917 -2.2795 -1.4588
  522MOL0     H68844   5.396   3.550   1.219  1.2234  1.2079 -0.5750
  522MOL0     H68845   5.155   3.733   1.293  0.8216  0.6806 -0.3589
  522MOL0     H68846   5.174   3.582   1.197 -0.7246  0.3486 -3.0085
  522MOL0     H68847   5.319   3.849   1.133 -0.3076  0.4887  0.5516
  522MOL0     H68848   5.277   3.720   1.008 -2.8514 -0.0418 -1.3815
  522MOL0     H68849   5.033   3.785   1.062  0.1983 -0.1716  0.0766
  522MOL0     H68850   5.150   3.895   0.968 -0.7285  0.3314 -0.3854
  522MOL0     H68851   5.072   3.919   1.246 -1.1194  4.3451  2.5363
  522MOL0     H68852   4.993   4.015   1.108  0.6841  2.1255  0.2356
  522MOL0     H68853   5.280   4.071   1.136 -0.3654 -2.0867 -3.0463
  522MOL0     H68854   5.144   4.161   1.075  2.3511  1.7344  0.3333
  522MOL0     H68855   5.150   4.081   1.359 -0.1739 -2.9871 -1.9681
  522MOL0     H68856   5.030   4.183   1.273  0.1754 -1.6989  0.0836
  522MOL0     H68857   5.445   4.256   1.296 -0.4688 -0.7243 -0.0639
  522MOL0     H68858   5.567   4.524   1.344  1.5901  0.3785 -0.3334
  522MOL0     H68859   5.475   4.603   1.212 -0.7033 -0.0288  2.1640
  522MOL0     H68860   5.532   4.450   1.063  0.0237  2.9887  1.6778
  522MOL0     H68861   5.620   4.337   1.174  2.8662  0.2917  1.7406
  522MOL0     H68862   5.697   4.634   1.112  3.3484  0.5651 -1.5593
  522MOL0     H68863   5.785   4.518   1.213 -0.5649 -0.8978 -0.0051
  522MOL0     H68864   5.836   4.368   1.041  3.8422  1.9447  3.5988
  522MOL0     H68865   5.902   4.509   0.987 -0.5273 -1.3784 -0.4939
  522MOL0     H68866   5.799   4.694   0.913 -1.2842 -0.1591 -0.1693
  522MOL0     H68867   5.853   4.858   0.726  3.1893 -0.8940 -1.9486
  522MOL0     H68868   5.992   5.139   0.576  4.0533  0.1529  0.1346
  522MOL0     H68869   5.999   5.349   0.431 -0.9719 -0.1094  0.5731
  522MOL0     H68870   5.869   5.454   0.294  1.9285 -0.4893  0.2563
  522MOL0     H68871   5.822   5.383   0.151  0.1533 -1.0509  0.7296
  522MOL0     H68872   5.940   5.546   0.017  1.1370  1.3411 -0.3257
  522MOL0     H68873   5.990   5.623   0.180  1.0287 -1.5749  1.0023
  522MOL0     H68874   5.754   5.692   0.216 -0.4915  1.3649  0.2735
  522MOL0     H68875   5.697   5.617   0.071  1.3972 -1.0072 -0.1420
  522MOL0     H68876   5.920   5.831   0.081  0.1082 -0.5878  0.1352
  522MOL0     H68877   5.850   5.770  -0.064 -0.8399  1.5613 -0.1619
  522MOL0     H68878   5.693   5.903   0.159 -0.0833 -0.8509 -0.0598
  522MOL0     H68879   5.617   5.864   0.016  0.7314 -1.2730 -1.3696
  522MOL0     H68880   5.667   6.100  -0.003 -0.3767 -0.0840  0.3416
  522MOL0     H68881   5.762   6.004  -0.125  1.4572 -4.5497  0.9054
  522MOL0     H68882   5.894   6.119   0.118  0.6628 -0.2549  0.1689
  522MOL0     H68883   5.973   6.046  -0.015  0.1859  0.3895 -0.7211
  522MOL0     H68884   5.832   6.325  -0.025  0.1056  0.6134 -1.4331
  522MOL0     H68885   5.832   6.226  -0.154 -1.3881 -0.8439  1.6378
  522MOL0     H68886   6.010   5.099   0.090 -0.6612 -1.1437 -0.0976
  522MOL0     H68887   5.990   4.895   0.227 -2.6229 -0.4232  0.2644
  522MOL0     H68888   5.844   4.518   0.466  0.5621 -2.4054  0.7754
  522MOL0     H68889   5.779   4.369   0.655 -3.9778 -1.2595  3.0535
  522MOL0     H68890   5.371   3.954   1.596  0.5059  0.1399  0.5421
  522MOL0     H68891   5.543   4.141   1.679 -0.5097 -0.6669  0.9696
  522MOL0     H68892   5.835   4.356   1.911  1.7122  0.6151  1.9567
  522MOL0     H68893   5.963   4.544   1.966 -2.0460 -2.4127  0.4451
  522MOL0     H68894   6.043   4.748   1.982 -2.4320  1.3808 -0.7194
  522MOL0     H68895   6.112   4.888   1.896 -0.2700  0.2524  0.1992
  522MOL0     H68896   6.233   4.643   1.965 -3.2357  1.0043  0.1698
  522MOL0     H68897   6.235   4.654   1.789  0.5080 -2.4875  1.0239
  522MOL0     H68898   6.343   4.877   1.969 -0.8192 -1.0693  1.3952
  522MOL0     H68899   6.315   4.906   1.801  4.0286 -1.5828 -3.4004
  522MOL0     H68900   6.448   4.721   1.720 -1.7859 -2.2902  0.5853
  522MOL0     H68901   6.552   4.842   1.818  1.3352 -1.0564 -2.6017
  522MOL0     H68902   6.562   4.476   2.041 -0.9076  0.3379  0.6314
  522MOL0     H68903   5.963   4.647   1.539 -3.0586 -0.4035 -0.3786
  522MOL0     H68904   5.852   4.455   1.488  3.6754 -0.4829 -1.5490
  523MOL0     O68905   4.512   6.132   3.509  0.0799  0.2383  0.0787
  523MOL0     C68906   4.573   6.044   3.558  0.4803  0.9444  0.3023
  523MOL0     O68907   4.583   5.917   3.509 -0.7650 -0.6370  0.5715
  523MOL0     C68908   4.559   5.920   3.372 -0.8241  0.3617 -0.0712
  523MOL0     C68909   4.664   5.943   3.287 -0.1601 -0.6803  0.5007
  523MOL0     C68910   4.644   5.949   3.145 -0.0017 -0.3429 -0.5072
  523MOL0     C68911   4.514   5.943   3.098 -0.4374  0.6518  0.9657
  523MOL0     O68912   4.489   5.951   2.960  0.1178 -0.0109  0.1847
  523MOL0     C68913   4.511   6.077   2.895  0.8894  0.2618  0.0043
  523MOL0     C68914   4.554   6.054   2.750  0.1797  0.7274  0.5946
  523MOL0     C68915   4.551   6.171   2.669 -0.1417  0.1132 -0.3094
  523MOL0     C68916   4.612   6.145   2.534 -0.5831  0.3809  0.4100
  523MOL0     C68917   4.633   6.279   2.456 -0.0584  1.1045 -0.2809
  523MOL0     C68918   4.687   6.245   2.316 -0.6159 -0.7047 -0.8467
  523MOL0     C68919   4.722   6.371   2.226  0.4498  0.0059 -0.2308
  523MOL0     C68920   4.852   6.439   2.281 -0.0454  0.0442  0.1851
  523MOL0     N68921   4.913   6.524   2.180  0.7424  0.5290 -0.5430
  523MOL0     C68922   5.038   6.588   2.174  0.2221  0.4439  0.2107
  523MOL0     C68923   5.025   6.673   2.071 -0.1445 -0.5290  0.4599
  523MOL0     C68924   5.119   6.791   2.025  1.0515  0.2256  0.8466
  523MOL0     C68925   5.052   6.918   2.078 -0.5627 -0.4373 -0.0728
  523MOL0     C68926   5.069   6.928   2.232 -0.1201 -0.4882 -0.7383
  523MOL0     C68927   5.206   6.934   2.294 -0.1359 -0.4024  0.4226
  523MOL0     O68928   5.197   6.934   2.438 -0.5027 -0.0965  0.8515
  523MOL0     C68929   5.171   6.821   2.498  0.2110 -0.4877 -1.0164
  523MOL0     C68930   5.038   6.802   2.528  0.4424 -0.9480 -0.1277
  523MOL0     C68931   5.004   6.682   2.590 -0.2400  0.3368  1.1261
  523MOL0     C68932   5.097   6.593   2.630  0.3491 -0.2963  0.3227
  523MOL0     C68933   5.044   6.466   2.687 -0.5324 -0.3427  0.3516
  523MOL0     O68934   5.141   6.374   2.737 -0.1920 -0.2836  0.2277
  523MOL0     C68935   5.103   6.246   2.783 -0.0884 -0.6627  0.0216
  523MOL0     C68936   5.168   6.199   2.900  1.2724  0.1959 -0.7630
  523MOL0     C68937   5.109   6.088   2.954  0.7052  0.5332 -0.7370
  523MOL0     C68938   4.999   6.020   2.903 -1.3769  0.9694 -0.1666
  523MOL0     O68939   4.947   5.908   2.964  0.4057 -0.6676 -0.4711
  523MOL0     C68940   4.993   5.860   3.097 -0.1864 -0.4574 -0.1250
  523MOL0     C68941   4.918   5.736   3.143 -0.3194  0.1308  0.4335
  523MOL0     C68942   4.923   5.692   3.294  0.5212  0.6735 -0.8849
  523MOL0     C68943   5.063   5.665   3.346  0.9996  0.4649 -0.4333
  523MOL0     C68944   5.047   5.646   3.499  0.0196 -0.1322  0.4156
  523MOL0     C68945   5.177   5.613   3.567  0.9024  0.6669  0.8602
  523MOL0     C68946   5.209   5.467   3.576 -0.3079  0.5219  0.1485
  523MOL0     C68947   5.371   5.455   3.605  0.3201  0.3778  0.6860
  523MOL0    Cl68948   5.411   5.287   3.597 -0.2683  0.4870  0.2053
  523MOL0     C68949   4.947   6.062   2.782  0.7988  0.0141 -0.0630
  523MOL0     C68950   4.995   6.181   2.725  0.3437 -1.3524  1.1140
  523MOL0     O68951   4.924   6.463   2.706 -0.1454  0.5726  0.1650
  523MOL0     C68952   5.234   6.620   2.616 -0.9066 -0.3762 -0.5577
  523MOL0     C68953   5.267   6.729   2.537  0.8340 -0.3016  0.3737
  523MOL0     N68954   4.899   6.659   2.014 -0.4584 -0.1197 -0.3669
  523MOL0     N68955   4.838   6.569   2.074 -0.6949  0.1323  0.3479
  523MOL0     C68956   4.411   5.911   3.183  0.1831  0.2368  0.4058
  523MOL0     C68957   4.435   5.905   3.319 -0.3171  0.1436 -0.6146
  523MOL0     C68958   4.643   6.066   3.681  1.0337  1.5560 -0.1789
  523MOL0     C68959   4.751   5.978   3.722  0.5120  1.7263 -0.3591
  523MOL0     C68960   4.820   6.001   3.842 -0.0433  0.1996 -0.2599
  523MOL0     C68961   4.778   6.109   3.927 -0.1742  0.1322 -0.2411
  523MOL0     O68962   4.852   6.146   4.043  0.8152  0.1434  0.5860
  523MOL0     C68963   4.986   6.089   4.054  0.2317  0.9893  0.7398
  523MOL0     C68964   5.064   6.171   4.151  0.2669  0.1897  0.8458
  523MOL0     C68965   5.021   6.168   4.296  0.5422  0.0371 -0.3319
  523MOL0     C68966   5.052   6.041   4.372  0.0449  0.4132  0.6300
  523MOL0     C68967   4.977   6.045   4.495  0.6597  0.1962  0.4115
  523MOL0     C68968   4.895   6.039   4.586 -0.3046 -0.0528  0.1714
  523MOL0     C68969   4.669   6.182   3.898  0.9268  0.1138  0.4521
  523MOL0     C68970   4.608   6.169   3.767 -0.1284 -0.8238 -0.5180
  523MOL0     H68971   4.763   5.939   3.331 -0.3875 -1.7175  0.9640
  523MOL0     H68972   4.730   5.962   3.081  2.9750  1.1982  3.4326
  523MOL0     H68973   4.591   6.115   2.959  0.8419 -2.9823  2.2372
  523MOL0     H68974   4.421   6.139   2.898  1.3346  0.8778  1.3656
  523MOL0     H68975   4.476   5.995   2.702  1.3732  0.5401 -1.2148
  523MOL0     H68976   4.631   5.977   2.742 -2.2038 -1.7143 -0.3230
  523MOL0     H68977   4.600   6.261   2.709 -4.3578  1.8713  1.4987
  523MOL0     H68978   4.446   6.202   2.662 -0.6359 -1.3354  0.2437
  523MOL0     H68979   4.712   6.099   2.539  0.2513  2.0460 -0.0925
  523MOL0     H68980   4.550   6.078   2.475  1.5743  1.3920 -3.3460
  523MOL0     H68981   4.690   6.344   2.523 -0.7088  1.0958  0.2891
  523MOL0     H68982   4.529   6.314   2.453 -0.8016 -1.0354 -1.1647
  523MOL0     H68983   4.608   6.184   2.271 -1.2820  1.3360 -2.5964
  523MOL0     H68984   4.780   6.190   2.334  0.8768  2.7939  4.7273
  523MOL0     H68985   4.736   6.346   2.120 -3.7264 -5.1161  0.0341
  523MOL0     H68986   4.633   6.433   2.236 -0.3570 -1.2778  0.7453
  523MOL0     H68987   4.922   6.357   2.302 -2.7345 -1.9656  2.0553
  523MOL0     H68988   4.837   6.490   2.376 -0.7650  0.7206 -0.2791
  523MOL0     H68989   5.127   6.580   2.234  1.8695 -0.4867 -2.1825
  523MOL0     H68990   5.124   6.795   1.916  0.7192 -2.1248  0.6945
  523MOL0     H68991   5.223   6.780   2.055  1.2496  0.1025  0.1457
  523MOL0     H68992   4.946   6.898   2.061 -0.8374 -0.0026  1.0142
  523MOL0     H68993   5.082   7.013   2.033  0.7823  0.2530  2.1204
  523MOL0     H68994   5.019   7.021   2.262 -0.3183 -2.2240  5.7157
  523MOL0     H68995   5.017   6.846   2.281 -1.8148 -0.5266 -2.4925
  523MOL0     H68996   5.255   7.027   2.262 -0.9150 -0.1037  0.0483
  523MOL0     H68997   5.271   6.851   2.267  2.6003  0.4590  3.6823
  523MOL0     H68998   4.961   6.872   2.499  0.4237 -1.2198 -0.7429
  523MOL0     H68999   4.897   6.676   2.603 -1.3065  1.7113 -4.4204
  523MOL0     H69000   5.250   6.257   2.943  0.3735  1.8564 -1.2200
  523MOL0     H69001   5.142   6.062   3.054 -0.7389  0.7434 -0.1869
  523MOL0     H69002   4.979   5.935   3.175 -4.0514 -0.0054 -1.0644
  523MOL0     H69003   5.097   5.833   3.079  0.4136  1.5342  0.1119
  523MOL0     H69004   4.961   5.664   3.072 -0.0961  0.8800 -0.1942
  523MOL0     H69005   4.811   5.753   3.131 -0.7545 -2.1562  0.5397
  523MOL0     H69006   4.866   5.598   3.300 -1.8829  2.1490  1.5320
  523MOL0     H69007   4.873   5.770   3.351  2.4704 -0.1223  2.1590
  523MOL0     H69008   5.110   5.575   3.305  1.8455 -0.8132  2.9707
  523MOL0     H69009   5.129   5.752   3.333  2.5040 -0.4776  0.6061
  523MOL0     H69010   4.983   5.559   3.518  0.9935 -0.5751  1.8790
  523MOL0     H69011   5.005   5.740   3.536  0.5695 -0.1044  0.9927
  523MOL0     H69012   5.174   5.648   3.671  0.8505  1.9914  0.4282
  523MOL0     H69013   5.253   5.671   3.513  1.3873 -0.0953  0.7131
  523MOL0     H69014   5.159   5.421   3.662  0.3022 -2.4475 -0.9422
  523MOL0     H69015   5.177   5.410   3.488 -2.0337 -0.9804  1.6551
  523MOL0     H69016   5.389   5.503   3.701 -0.0873 -1.6379  1.8254
  523MOL0     H69017   5.427   5.504   3.525  0.8093 -1.1319  0.0646
  523MOL0     H69018   4.859   6.018   2.735  0.0483  1.2105  0.1855
  523MOL0     H69019   4.949   6.221   2.636 -1.6249  1.2576  3.1261
  523MOL0     H69020   5.304   6.554   2.668 -0.1081  0.7045 -0.2327
  523MOL0     H69021   5.368   6.752   2.506 -0.0110  0.7894 -1.8415
  523MOL0     H69022   4.313   5.896   3.137 -0.1791  3.6157 -0.1856
  523MOL0     H69023   4.358   5.901   3.395  0.1408 -0.5302 -0.1804
  523MOL0     H69024   4.789   5.894   3.665  1.6560  1.1898  1.1519
  523MOL0     H69025   4.902   5.936   3.869 -0.8478 -0.0871  1.6347
  523MOL0     H69026   5.039   6.082   3.958 -1.2163 -1.7220  0.0511
  523MOL0     H69027   4.988   5.984   4.084 -0.0027 -0.1459 -2.7209
  523MOL0     H69028   5.170   6.144   4.152  0.3663  0.5750  1.1608
  523MOL0     H69029   5.051   6.274   4.116 -0.8415 -1.0423 -2.8950
  523MOL0     H69030   4.913   6.187   4.298  0.5642  0.4605 -1.9837
  523MOL0     H69031   5.065   6.248   4.356 -0.1735  0.6790 -0.6426
  523MOL0     H69032   5.022   5.957   4.307  0.3784  0.7179  0.0750
  523MOL0     H69033   5.158   6.027   4.396  0.5647  1.7707 -0.7100
  523MOL0     H69034   4.827   6.049   4.667  0.2297 -0.1949  0.6423
  523MOL0     H69035   4.647   6.263   3.967 -0.4167  0.0981  0.0643
  523MOL0     H69036   4.530   6.240   3.741  1.9796  2.6241  1.6689
  524MOL0     O69037   4.675   1.985   4.747 -0.4702 -0.1621  0.5873
  524MOL0     C69038   4.591   1.903   4.718  0.5744  0.3960 -0.1005
  524MOL0     O69039   4.466   1.901   4.758  0.1627 -0.6251 -0.7434
  524MOL0     C69040   4.410   2.017   4.805  0.3941 -0.8339 -0.4866
  524MOL0     C69041   4.453   2.152   4.773 -0.1623  0.2511 -0.5112
  524MOL0     C69042   4.386   2.269   4.812 -0.3523 -0.4610 -0.3822
  524MOL0     C69043   4.268   2.254   4.874  0.7596  0.5659  0.0672
  524MOL0     O69044   4.199   2.369   4.908 -0.5777 -0.2819 -1.0111
  524MOL0     C69045   4.232   2.433   5.033  0.3147 -1.2793 -0.3476
  524MOL0     C69046   4.121   2.544   5.039 -0.5395  1.0609 -0.5932
  524MOL0     C69047   3.993   2.483   5.101  0.5065 -0.0501 -0.4315
  524MOL0     C69048   3.890   2.596   5.119 -0.9329 -0.2224  0.0020
  524MOL0     C69049   3.751   2.553   5.176  0.1624  0.3274  0.3872
  524MOL0     C69050   3.770   2.483   5.319  0.6036 -0.0910  0.5419
  524MOL0     C69051   3.631   2.452   5.369  0.0245 -0.8341  0.7896
  524MOL0     C69052   3.617   2.373   5.506 -0.1386 -1.0711 -0.4207
  524MOL0     N69053   3.477   2.392   5.536  1.5094 -0.6106 -0.6346
  524MOL0     C69054   3.421   2.502   5.587 -0.1433  0.3892 -0.4181
  524MOL0     C69055   3.293   2.486   5.566  0.3594 -0.2748  0.4964
  524MOL0     C69056   3.182   2.560   5.625  0.4713 -0.7290  0.2797
  524MOL0     C69057   3.105   2.482   5.735 -0.1941  0.4956 -0.8900
  524MOL0     C69058   3.037   2.584   5.819  0.3835  0.1871 -0.3626
  524MOL0     C69059   2.959   2.524   5.942  0.0084  0.8737 -0.1099
  524MOL0     O69060   2.876   2.408   5.912  0.4524 -0.0644 -0.2924
  524MOL0     C69061   2.751   2.437   5.863  0.4016  0.4624 -0.2306
  524MOL0     C69062   2.721   2.435   5.725  0.1763 -0.1821 -0.5320
  524MOL0     C69063   2.586   2.449   5.681  0.4283  0.2024  0.5554
  524MOL0     C69064   2.481   2.430   5.780  0.2866  0.0872  1.1832
  524MOL0     C69065   2.342   2.425   5.735  0.9393 -0.4932 -1.1738
  524MOL0     O69066   2.245   2.454   5.828 -0.2386 -0.0773  0.3451
  524MOL0     C69067   2.119   2.445   5.780  0.5393  0.6935  0.2805
  524MOL0     C69068   2.064   2.547   5.706  0.2053  0.6471 -0.7346
  524MOL0     C69069   1.929   2.541   5.669 -0.8683 -1.1781  0.1561
  524MOL0     C69070   1.852   2.431   5.695 -0.2563 -0.2485  0.5248
  524MOL0     O69071   1.732   2.409   5.634 -0.1202 -0.0595  0.6504
  524MOL0     C69072   1.646   2.517   5.618  0.5635 -1.3412 -0.1745
  524MOL0     C69073   1.611   2.541   5.466 -0.4194 -1.5336  0.2392
  524MOL0     C69074   1.534   2.414   5.405  0.1239  0.2715 -0.8436
  524MOL0     C69075   1.455   2.442   5.280  0.9837 -0.6456  0.5162
  524MOL0     C69076   1.370   2.323   5.243  0.2960 -0.2635  0.4961
  524MOL0     C69077   1.326   2.318   5.090 -1.4261  0.1382 -0.0187
  524MOL0     C69078   1.239   2.438   5.050 -0.5948  1.2868 -0.2237
  524MOL0     C69079   1.220   2.446   4.903 -0.2291  0.3088 -0.3323
  524MOL0    Cl69080   1.090   2.564   4.872  0.2889  0.0549 -0.2515
  524MOL0     C69081   1.916   2.324   5.768  0.2317  1.0463 -0.0172
  524MOL0     C69082   2.049   2.335   5.814  1.2271  0.3216 -0.7357
  524MOL0     O69083   2.325   2.424   5.615 -0.6678 -0.3089  0.7230
  524MOL0     C69084   2.513   2.437   5.916 -0.9149 -0.6127  0.3397
  524MOL0     C69085   2.643   2.440   5.957 -0.3896  0.4744  0.7080
  524MOL0     N69086   3.272   2.367   5.492 -0.5955 -0.6538 -0.4025
  524MOL0     N69087   3.379   2.308   5.482 -0.4918 -0.1401 -0.0546
  524MOL0     C69088   4.217   2.123   4.902  0.0176  0.3726 -0.3914
  524MOL0     C69089   4.290   2.008   4.869 -0.2964  0.3027  0.3891
  524MOL0     C69090   4.642   1.769   4.660 -0.4078 -0.4323 -0.0843
  524MOL0     C69091   4.776   1.731   4.678 -0.0698  0.2093  0.5748
  524MOL0     C69092   4.833   1.623   4.616 -0.1772  0.6777  0.2870
  524MOL0     C69093   4.765   1.553   4.523  0.2693 -0.7392 -0.5848
  524MOL0     O69094   4.822   1.459   4.435  0.7820 -0.3727 -0.1000
  524MOL0     C69095   4.952   1.408   4.467  0.1962 -0.1240 -1.5641
  524MOL0     C69096   4.977   1.293   4.379 -0.9977  0.6879  0.3930
  524MOL0     C69097   5.118   1.241   4.402  0.1621  0.3688 -0.9878
  524MOL0     C69098   5.138   1.147   4.532 -0.3529 -0.5037  0.3923
  524MOL0     C69099   5.268   1.075   4.543  0.0367 -0.9073 -0.5257
  524MOL0     C69100   5.363   0.995   4.546  0.1898  0.7328 -0.4864
  524MOL0     C69101   4.632   1.593   4.500  0.4668  0.2944  1.0024
  524MOL0     C69102   4.566   1.699   4.565 -0.3049 -0.7898 -0.6232
  524MOL0     H69103   4.542   2.172   4.714 -0.1938  1.6722 -0.1235
  524MOL0     H69104   4.416   2.371   4.788 -0.3139 -0.8494 -2.1358
  524MOL0     H69105   4.329   2.482   5.035 -0.2665  0.0308 -1.9442
  524MOL0     H69106   4.231   2.364   5.118  2.6504 -2.3414 -1.1087
  524MOL0     H69107   4.114   2.585   4.938  0.7269 -0.0841 -1.1866
  524MOL0     H69108   4.149   2.622   5.110 -1.3951  0.6653  0.1977
  524MOL0     H69109   4.026   2.446   5.199  3.2634  2.4093 -0.2862
  524MOL0     H69110   3.953   2.401   5.041 -3.4365  0.4533  1.2235
  524MOL0     H69111   3.928   2.667   5.193  0.4176  0.7515 -1.5647
  524MOL0     H69112   3.863   2.639   5.022 -0.2656 -2.1886 -1.1162
  524MOL0     H69113   3.688   2.494   5.110  2.0943 -0.0256 -1.2326
  524MOL0     H69114   3.713   2.653   5.199  1.7077  0.4779  2.5657
  524MOL0     H69115   3.831   2.537   5.392 -0.5735  0.9452  0.7776
  524MOL0     H69116   3.809   2.382   5.301  0.6479  0.1463 -0.8015
  524MOL0     H69117   3.584   2.550   5.383  2.0965  0.6133 -1.5243
  524MOL0     H69118   3.574   2.390   5.300  1.2845 -0.4989 -0.5988
  524MOL0     H69119   3.679   2.411   5.588  1.0096 -2.3742 -0.6431
  524MOL0     H69120   3.631   2.266   5.487  1.0226 -1.1982  1.0352
  524MOL0     H69121   3.461   2.595   5.626 -0.1479  0.9298 -1.6775
  524MOL0     H69122   3.106   2.579   5.548 -0.2692 -1.2086  0.8834
  524MOL0     H69123   3.216   2.661   5.647 -5.0562  1.5791 -0.4235
  524MOL0     H69124   3.180   2.425   5.791  0.1557  4.5345  3.3771
  524MOL0     H69125   3.046   2.401   5.690 -0.7712 -0.5015  1.4734
  524MOL0     H69126   3.112   2.642   5.873 -0.8072 -0.2312  1.8962
  524MOL0     H69127   2.972   2.638   5.750 -0.5308 -1.9307 -1.2374
  524MOL0     H69128   2.900   2.595   6.001  2.9095  2.5972  0.9060
  524MOL0     H69129   3.034   2.478   6.006 -1.1320 -3.3143 -1.4585
  524MOL0     H69130   2.804   2.415   5.658 -0.4369  2.6529 -2.2878
  524MOL0     H69131   2.562   2.443   5.575  2.1014  0.0942  0.1546
  524MOL0     H69132   2.129   2.633   5.690  1.1972 -0.1823 -1.3114
  524MOL0     H69133   1.896   2.629   5.614 -0.8248 -2.4355 -1.9891
  524MOL0     H69134   1.676   2.613   5.661 -0.9658 -1.6357  1.6978
  524MOL0     H69135   1.554   2.495   5.673  0.6199  0.9051  0.9686
  524MOL0     H69136   1.709   2.546   5.417 -1.7837 -3.8987 -3.1526
  524MOL0     H69137   1.549   2.630   5.447  0.5635 -1.0262 -0.7061
  524MOL0     H69138   1.467   2.386   5.486  0.4345  2.6739  0.3176
  524MOL0     H69139   1.600   2.329   5.387 -1.8866 -0.9083 -3.3808
  524MOL0     H69140   1.386   2.523   5.305  1.4111  0.4077 -1.4981
  524MOL0     H69141   1.522   2.463   5.196  2.0673  0.1571  1.5491
  524MOL0     H69142   1.276   2.324   5.300  0.7306 -0.5219  1.2240
  524MOL0     H69143   1.419   2.229   5.269 -2.0674 -1.5719  0.5389
  524MOL0     H69144   1.281   2.224   5.057  1.3829 -0.9634 -1.0399
  524MOL0     H69145   1.417   2.321   5.030 -0.4814 -2.7625  1.0796
  524MOL0     H69146   1.143   2.436   5.104 -0.6979  1.5589 -0.3918
  524MOL0     H69147   1.293   2.527   5.085 -0.6421  1.0400  0.4880
  524MOL0     H69148   1.203   2.345   4.864  3.6916 -0.2042 -1.1595
  524MOL0     H69149   1.316   2.480   4.863  0.6465 -0.4128  1.0597
  524MOL0     H69150   1.860   2.231   5.776 -0.1872  1.2817 -0.2124
  524MOL0     H69151   2.096   2.260   5.876  1.3251  1.2720  0.3796
  524MOL0     H69152   2.426   2.432   5.981 -0.8756  2.9411  0.8432
  524MOL0     H69153   2.666   2.444   6.063  1.3299  2.1289  0.3347
  524MOL0     H69154   4.125   2.105   4.957  1.0333  1.1157  1.6717
  524MOL0     H69155   4.245   1.911   4.887 -2.4206  0.9214 -1.0513
  524MOL0     H69156   4.842   1.800   4.728 -1.6137  1.3115  1.1553
  524MOL0     H69157   4.935   1.594   4.639  0.4470  1.4084 -1.3850
  524MOL0     H69158   4.944   1.367   4.568 -2.1690 -1.9214 -2.3951
  524MOL0     H69159   5.026   1.488   4.477 -2.3125  2.0375  3.0953
  524MOL0     H69160   4.903   1.215   4.400  2.0738 -1.8990  2.8061
  524MOL0     H69161   4.962   1.321   4.274 -2.7967 -1.9306 -0.1537
  524MOL0     H69162   5.191   1.323   4.409  1.4346 -0.8681  1.3058
  524MOL0     H69163   5.140   1.164   4.328 -0.4122 -0.2963 -0.4792
  524MOL0     H69164   5.144   1.204   4.625 -2.4377 -0.6564  0.6554
  524MOL0     H69165   5.052   1.080   4.530 -2.2600  1.8066  1.0923
  524MOL0     H69166   5.447   0.930   4.557  0.8864  1.0972 -3.1042
  524MOL0     H69167   4.591   1.549   4.410 -0.5379 -0.0218  1.5938
  524MOL0     H69168   4.463   1.725   4.542 -0.8091 -1.7063  0.4881
  525MOL0     O69169   7.786   2.438   4.542  0.4957  0.8693  0.2598
  525MOL0     C69170   7.783   2.562   4.516 -0.1221 -0.2651 -0.2386
  525MOL0     O69171   7.679   2.622   4.462  0.2446 -1.1302 -0.4616
  525MOL0     C69172   7.569   2.546   4.419  0.3092  0.1182 -0.3092
  525MOL0     C69173   7.438   2.558   4.483 -0.4112 -0.7740 -0.2966
  525MOL0     C69174   7.335   2.478   4.428 -0.7740  0.4651 -0.7598
  525MOL0     C69175   7.355   2.382   4.328 -0.5311 -1.0359 -0.4637
  525MOL0     O69176   7.251   2.321   4.267 -0.1805 -0.5843  0.3745
  525MOL0     C69177   7.257   2.183   4.253 -0.7086 -0.2739 -0.5111
  525MOL0     C69178   7.269   2.119   4.394  0.1323  0.1190 -0.8641
  525MOL0     C69179   7.167   2.157   4.504 -0.1191  0.2053 -0.0510
  525MOL0     C69180   7.235   2.190   4.638 -0.3518  0.7849 -0.1880
  525MOL0     C69181   7.136   2.228   4.741  0.9113 -0.0023 -0.5005
  525MOL0     C69182   7.129   2.388   4.736 -1.1977  0.8135  0.7209
  525MOL0     C69183   7.026   2.462   4.825  0.4173  0.3726  0.0782
  525MOL0     C69184   7.089   2.489   4.964 -0.2469  0.6346  0.1630
  525MOL0     N69185   7.004   2.542   5.069 -0.5262  0.0751 -1.1789
  525MOL0     C69186   6.914   2.645   5.061  0.9385 -0.0583 -0.6783
  525MOL0     C69187   6.829   2.631   5.167  0.7295  0.3986 -0.1518
  525MOL0     C69188   6.699   2.710   5.211 -0.5607  1.5246  0.0339
  525MOL0     C69189   6.722   2.865   5.239 -0.1118  1.0762  0.1938
  525MOL0     C69190   6.579   2.916   5.262  0.6169 -0.3216  0.6903
  525MOL0     C69191   6.568   3.066   5.273 -0.2197  0.5988  0.7475
  525MOL0     O69192   6.429   3.105   5.303 -0.0536  0.1516 -0.5155
  525MOL0     C69193   6.404   3.217   5.375  0.7520 -0.1967  0.4720
  525MOL0     C69194   6.472   3.266   5.486 -0.4475  0.4673 -0.7745
  525MOL0     C69195   6.450   3.401   5.529  0.0299 -0.2126  0.2450
  525MOL0     C69196   6.356   3.483   5.466  1.2648  0.1924 -0.0514
  525MOL0     C69197   6.342   3.632   5.498 -0.8641 -0.3362 -0.2476
  525MOL0     O69198   6.282   3.705   5.402  0.3972 -0.0529  0.7387
  525MOL0     C69199   6.286   3.846   5.395 -0.5509  0.6947  0.0962
  525MOL0     C69200   6.408   3.923   5.393 -0.1318  0.1502  0.6871
  525MOL0     C69201   6.405   4.056   5.371  1.2062 -0.6869  0.3945
  525MOL0     C69202   6.289   4.130   5.338 -0.8993  0.4091 -0.1779
  525MOL0     O69203   6.290   4.264   5.340  0.6938  0.0045  0.3677
  525MOL0     C69204   6.406   4.339   5.388 -0.5363  1.3576 -0.1618
  525MOL0     C69205   6.399   4.484   5.360 -0.2389  0.0990 -0.5126
  525MOL0     C69206   6.315   4.558   5.466 -0.3277 -0.2856 -0.2815
  525MOL0     C69207   6.333   4.707   5.468  0.5311 -0.1551 -0.1081
  525MOL0     C69208   6.246   4.764   5.583  0.6911  0.6085  0.6790
  525MOL0     C69209   6.217   4.918   5.575 -0.5007  0.3134  0.1440
  525MOL0     C69210   6.146   4.977   5.695  0.1428  0.2656 -0.4353
  525MOL0     C69211   6.111   5.123   5.671  0.7318 -0.7587 -0.3348
  525MOL0    Cl69212   5.993   5.171   5.549 -0.0225  0.5274 -0.3996
  525MOL0     C69213   6.171   4.049   5.317  0.0501  0.3391 -0.3665
  525MOL0     C69214   6.174   3.911   5.348 -0.3154 -0.2403 -1.3211
  525MOL0     O69215   6.414   3.673   5.590 -0.1605 -0.1944 -0.4351
  525MOL0     C69216   6.279   3.416   5.360 -0.3061 -0.5894  0.3093
  525MOL0     C69217   6.307   3.287   5.317  0.2588  0.0425  0.4268
  525MOL0     N69218   6.881   2.533   5.251  0.4565 -0.7417  0.2387
  525MOL0     N69219   6.971   2.476   5.186  0.4975  0.0200  0.2037
  525MOL0     C69220   7.485   2.360   4.287  1.0690 -0.5371  1.1937
  525MOL0     C69221   7.594   2.441   4.331 -0.6486 -0.0777  0.4307
  525MOL0     C69222   7.912   2.629   4.526  0.2341 -0.2723 -1.2562
  525MOL0     C69223   7.925   2.768   4.508  0.1394  0.0852  0.2452
  525MOL0     C69224   8.050   2.825   4.515  0.3334 -0.7192  1.1982
  525MOL0     C69225   8.169   2.746   4.530 -0.1691  0.7651  0.2319
  525MOL0     O69226   8.302   2.778   4.507 -0.1966 -0.8671 -0.9455
  525MOL0     C69227   8.342   2.918   4.488 -0.1147 -1.3734  0.2227
  525MOL0     C69228   8.345   2.998   4.619  0.6329 -0.1191  0.5509
  525MOL0     C69229   8.426   2.928   4.727  0.5523 -0.3807  0.4350
  525MOL0     C69230   8.392   2.982   4.867 -0.4125 -0.3058  1.0573
  525MOL0     C69231   8.433   3.126   4.874 -0.4752  0.2803  0.1011
  525MOL0     C69232   8.457   3.243   4.870 -0.2701  1.0050  0.4922
  525MOL0     C69233   8.150   2.614   4.576 -0.2437 -0.1284  0.3728
  525MOL0     C69234   8.022   2.564   4.571 -0.5152  0.8004 -0.3858
  525MOL0     H69235   7.427   2.628   4.564  0.2271 -0.4537 -0.4855
  525MOL0     H69236   7.239   2.482   4.477 -1.5739  0.9854 -2.2927
  525MOL0     H69237   7.335   2.151   4.183  0.1036 -1.3030  0.8251
  525MOL0     H69238   7.159   2.150   4.216 -0.5288  0.9941 -2.2380
  525MOL0     H69239   7.369   2.131   4.439  0.5111 -4.5785  0.0113
  525MOL0     H69240   7.256   2.012   4.376  3.1865 -0.3517 -0.8575
  525MOL0     H69241   7.100   2.071   4.515 -0.1488  0.2164 -0.1392
  525MOL0     H69242   7.108   2.242   4.469  0.4174  1.2729  1.5310
  525MOL0     H69243   7.276   2.100   4.686 -1.5952  1.0366  1.3982
  525MOL0     H69244   7.316   2.263   4.632  0.5629 -0.0014  1.8862
  525MOL0     H69245   7.157   2.189   4.841 -0.4709  0.1172 -0.1412
  525MOL0     H69246   7.037   2.183   4.726  0.7062 -1.2615  3.3397
  525MOL0     H69247   7.090   2.400   4.635  0.2562 -1.1575 -0.1480
  525MOL0     H69248   7.230   2.430   4.736 -1.6196  1.8800 -0.3782
  525MOL0     H69249   7.003   2.560   4.781  0.4806 -0.3294 -1.5887
  525MOL0     H69250   6.937   2.399   4.817 -0.8381  2.1352 -0.5906
  525MOL0     H69251   7.172   2.560   4.961  2.5802 -2.2659  2.7422
  525MOL0     H69252   7.126   2.399   5.014 -4.3146 -1.2672  0.1669
  525MOL0     H69253   6.879   2.702   4.976 -2.2352 -1.7975 -0.7264
  525MOL0     H69254   6.664   2.683   5.311  0.3643  2.5433  0.6639
  525MOL0     H69255   6.609   2.678   5.158  0.3828 -5.2505  1.6954
  525MOL0     H69256   6.780   2.906   5.156  0.1662 -2.8189 -1.7978
  525MOL0     H69257   6.782   2.869   5.330  0.6000 -1.6555 -0.0451
  525MOL0     H69258   6.519   2.875   5.181 -2.2949 -0.0948  2.5939
  525MOL0     H69259   6.538   2.876   5.355 -0.0211 -1.2919  0.0094
  525MOL0     H69260   6.600   3.105   5.176  1.9144 -2.9796 -0.1845
  525MOL0     H69261   6.642   3.109   5.341  1.5677 -1.9577  0.5858
  525MOL0     H69262   6.541   3.205   5.544 -1.0170  2.2700  1.9843
  525MOL0     H69263   6.504   3.440   5.615 -1.4272  1.4579  0.4443
  525MOL0     H69264   6.500   3.869   5.416 -3.1279 -5.3714  1.4977
  525MOL0     H69265   6.503   4.103   5.379  2.2924 -2.3596 -1.9370
  525MOL0     H69266   6.496   4.309   5.332  0.0996  3.0002 -0.0999
  525MOL0     H69267   6.421   4.306   5.491 -1.3147 -5.8790 -1.8376
  525MOL0     H69268   6.361   4.494   5.258  1.6129  1.5511 -1.1208
  525MOL0     H69269   6.498   4.532   5.359 -0.9988  1.7314 -1.0109
  525MOL0     H69270   6.341   4.516   5.563 -0.6138 -0.5068 -0.2980
  525MOL0     H69271   6.212   4.543   5.430 -0.0973 -0.6580 -0.8092
  525MOL0     H69272   6.439   4.721   5.493  0.5699 -1.9455  0.9663
  525MOL0     H69273   6.295   4.757   5.379  0.3804 -1.5140 -0.8409
  525MOL0     H69274   6.294   4.739   5.678  1.7520 -1.0392 -0.2372
  525MOL0     H69275   6.151   4.712   5.570  0.9255  0.8443 -3.2419
  525MOL0     H69276   6.156   4.943   5.488 -1.1187 -2.6121 -0.3625
  525MOL0     H69277   6.307   4.977   5.558 -2.6040  3.7123 -0.0984
  525MOL0     H69278   6.047   4.931   5.707  1.5457 -2.6356  1.3735
  525MOL0     H69279   6.202   4.957   5.787 -1.0322 -2.9469 -0.2865
  525MOL0     H69280   6.204   5.176   5.648  2.6919 -2.8419  2.1529
  525MOL0     H69281   6.074   5.160   5.767  0.8252 -1.1446 -0.1484
  525MOL0     H69282   6.078   4.100   5.295 -0.8029  0.9222  3.7830
  525MOL0     H69283   6.076   3.870   5.327 -0.3101  0.2978 -2.5105
  525MOL0     H69284   6.195   3.471   5.317  0.0986  0.6951  1.1155
  525MOL0     H69285   6.269   3.254   5.221  1.1618  2.7050 -0.9481
  525MOL0     H69286   7.506   2.289   4.208  0.0096 -0.3192  0.6928
  525MOL0     H69287   7.689   2.418   4.284  0.2040  0.3450  1.8684
  525MOL0     H69288   7.836   2.818   4.471  0.2139  1.0497  1.3351
  525MOL0     H69289   8.050   2.932   4.502 -0.7559 -0.1275  4.8857
  525MOL0     H69290   8.264   2.955   4.421  1.8906  0.3044 -1.3240
  525MOL0     H69291   8.435   2.914   4.431 -1.6723 -0.7506 -2.5371
  525MOL0     H69292   8.386   3.097   4.602  2.1902 -0.6537  1.0888
  525MOL0     H69293   8.247   3.010   4.668  0.5019 -0.0868  0.2801
  525MOL0     H69294   8.527   2.942   4.689  0.4883  2.1331  1.0359
  525MOL0     H69295   8.412   2.820   4.716  1.5078 -0.2631 -3.2743
  525MOL0     H69296   8.284   2.967   4.879 -0.0972 -2.3745  1.7584
  525MOL0     H69297   8.435   2.918   4.944 -2.0023 -1.6269  0.9193
  525MOL0     H69298   8.473   3.348   4.863  3.8429  0.9219  4.3211
  525MOL0     H69299   8.233   2.549   4.603 -0.7675  0.4220  3.6853
  525MOL0     H69300   8.007   2.460   4.599  1.9627  0.2388 -0.8656
  526MOL0     O69301  10.384   0.590   6.459  0.2143 -0.1794  0.3595
  526MOL0     C69302  10.425   0.646   6.557  0.0729 -0.1782  0.5244
  526MOL0     O69303  10.376   0.627   6.687  0.1998 -0.1312  0.0267
  526MOL0     C69304  10.262   0.560   6.724  0.1725 -0.0585  0.8495
  526MOL0     C69305  10.153   0.631   6.768 -0.1415  0.0426 -0.1126
  526MOL0     C69306  10.034   0.560   6.780  1.0809 -0.0017  0.7712
  526MOL0     C69307  10.024   0.418   6.767 -0.4794 -0.3422  0.2393
  526MOL0     O69308   9.921   0.342   6.812  0.0949 -0.2756 -0.7833
  526MOL0     C69309   9.843   0.372   6.931  0.3868  0.1594 -0.0658
  526MOL0     C69310   9.919   0.321   7.060  0.4946 -0.4357 -0.1722
  526MOL0     C69311   9.892   0.170   7.091 -0.2235  0.0001  0.1220
  526MOL0     C69312   9.965   0.111   7.216  0.7275  0.1431  0.0164
  526MOL0     C69313   9.944  -0.032   7.250  0.2527 -0.1256  0.7934
  526MOL0     C69314  10.020  -0.117   7.150  0.2897  0.1345 -0.2711
  526MOL0     C69315   9.990  -0.258   7.192  0.1804 -0.8423 -0.5310
  526MOL0     C69316  10.051  -0.361   7.096 -0.7039 -0.0706 -0.9745
  526MOL0     N69317  10.036  -0.499   7.147  0.6123  0.3611  0.0502
  526MOL0     C69318   9.940  -0.585   7.099 -0.3190 -0.7021 -0.5210
  526MOL0     C69319   9.938  -0.681   7.190 -0.0118  0.2210 -0.2711
  526MOL0     C69320   9.866  -0.811   7.184 -0.5380 -0.0311 -0.0074
  526MOL0     C69321   9.755  -0.848   7.288 -0.6234 -0.0820 -0.6705
  526MOL0     C69322   9.619  -0.783   7.264  0.6404 -0.2249 -0.6351
  526MOL0     C69323   9.617  -0.628   7.262 -0.3249 -0.2766 -0.0446
  526MOL0     O69324   9.626  -0.568   7.125 -0.5646 -0.5622  0.6896
  526MOL0     C69325   9.619  -0.429   7.109  0.5882 -0.0747 -0.5822
  526MOL0     C69326   9.590  -0.382   6.982 -0.2002 -0.4362  0.5116
  526MOL0     C69327   9.578  -0.242   6.952 -0.1512 -0.5606 -0.2224
  526MOL0     C69328   9.583  -0.148   7.065 -0.3969  0.0437  0.1709
  526MOL0     C69329   9.578  -0.004   7.054 -0.2355 -0.4704  0.3368
  526MOL0     O69330   9.553   0.075   7.165  0.1836  0.2140 -0.2868
  526MOL0     C69331   9.552   0.214   7.171 -1.1525 -0.2839  0.0106
  526MOL0     C69332   9.600   0.282   7.287 -0.5708  0.8139  0.3645
  526MOL0     C69333   9.611   0.424   7.285 -0.3623 -0.1589 -0.3678
  526MOL0     C69334   9.565   0.498   7.182  0.0133 -0.0898  0.0120
  526MOL0     O69335   9.567   0.638   7.203  0.1756  0.5973  0.1711
  526MOL0     C69336   9.540   0.732   7.092 -0.1689 -0.7752  0.2022
  526MOL0     C69337   9.619   0.868   7.106  0.4704 -0.0692  0.5176
  526MOL0     C69338   9.765   0.854   7.068  0.5657  0.2207 -0.8990
  526MOL0     C69339   9.840   0.978   7.112 -0.3328  0.7305 -0.4085
  526MOL0     C69340   9.980   0.937   7.160  0.3694  0.0150 -0.3272
  526MOL0     C69341  10.067   0.905   7.035  0.2172 -0.3964 -0.5628
  526MOL0     C69342  10.195   0.835   7.086  0.9199 -0.5283 -0.4818
  526MOL0     C69343  10.291   0.939   7.153  0.0303  0.6657  0.9295
  526MOL0    Cl69344  10.323   1.078   7.029 -0.1164  0.0262  0.0332
  526MOL0     C69345   9.500   0.429   7.082  0.8195 -0.2107  0.4681
  526MOL0     C69346   9.499   0.293   7.071 -0.7777  0.4317 -0.0753
  526MOL0     O69347   9.580   0.034   6.943  0.3194  0.4144  0.2478
  526MOL0     C69348   9.613  -0.208   7.190 -0.4029 -0.7384  0.0631
  526MOL0     C69349   9.635  -0.342   7.216  0.6684  0.0036  0.1651
  526MOL0     N69350  10.047  -0.666   7.280 -0.4529  0.2527 -0.5411
  526MOL0     N69351  10.114  -0.558   7.245 -0.0389 -0.4693  0.1558
  526MOL0     C69352  10.134   0.347   6.730 -0.8656  0.1548 -1.1412
  526MOL0     C69353  10.251   0.412   6.703  0.8088 -0.5524 -0.3590
  526MOL0     C69354  10.543   0.737   6.529  0.4898 -0.8537 -1.3104
  526MOL0     C69355  10.610   0.742   6.407  0.3411 -0.8257 -0.2820
  526MOL0     C69356  10.711   0.826   6.378  0.2292  0.9598 -0.0308
  526MOL0     C69357  10.755   0.918   6.474 -0.1634 -0.2535 -0.4566
  526MOL0     O69358  10.825   1.032   6.436  0.0671  0.0880  0.4709
  526MOL0     C69359  10.866   1.126   6.538 -0.2420  0.9741  0.1541
  526MOL0     C69360  10.958   1.240   6.478  0.0134 -0.1566  0.7261
  526MOL0     C69361  10.875   1.374   6.455 -0.0297 -0.1848  0.7902
  526MOL0     C69362  10.976   1.489   6.433  0.3766  0.2710 -0.2185
  526MOL0     C69363  11.046   1.521   6.563 -0.3347  0.3067  0.0628
  526MOL0     C69364  11.092   1.536   6.672  0.1625  0.3730  0.2977
  526MOL0     C69365  10.693   0.915   6.606 -0.0478  0.4904 -0.0438
  526MOL0     C69366  10.584   0.822   6.634 -0.3959 -1.1547 -0.1225
  526MOL0     H69367  10.168   0.738   6.761 -0.4624 -0.0020 -2.0478
  526MOL0     H69368   9.947   0.617   6.809  1.8854  0.2905  2.7736
  526MOL0     H69369   9.747   0.322   6.912 -0.1724  1.4087 -0.6133
  526MOL0     H69370   9.829   0.480   6.942 -3.4506 -0.0834 -1.1012
  526MOL0     H69371   9.887   0.395   7.134 -1.0816 -0.8268 -0.4253
  526MOL0     H69372  10.025   0.333   7.035  0.7893 -2.3093  0.0628
  526MOL0     H69373   9.923   0.119   7.000  1.3818  2.3890 -0.7555
  526MOL0     H69374   9.787   0.144   7.105 -0.4563 -0.6274 -2.4156
  526MOL0     H69375  10.069   0.145   7.210  0.0671  2.1617 -0.9560
  526MOL0     H69376   9.921   0.163   7.302 -0.2650 -0.9135  0.1572
  526MOL0     H69377   9.837  -0.051   7.243  0.0670  0.6653  1.4109
  526MOL0     H69378   9.972  -0.059   7.352 -3.2406 -2.5765  1.2825
  526MOL0     H69379  10.122  -0.086   7.173  0.4521 -1.1017  0.8301
  526MOL0     H69380   9.989  -0.077   7.053 -4.3057  0.2514  0.9968
  526MOL0     H69381  10.036  -0.265   7.291 -0.3768 -1.2242 -0.2933
  526MOL0     H69382   9.881  -0.267   7.193 -0.2628  2.5860 -2.2932
  526MOL0     H69383  10.156  -0.331   7.087 -0.9516  1.4581  0.5704
  526MOL0     H69384  10.008  -0.359   6.996 -1.3880 -0.5423 -0.6955
  526MOL0     H69385   9.872  -0.569   7.015  1.2306 -0.0002 -1.7051
  526MOL0     H69386   9.936  -0.894   7.194 -0.4686  0.1393  1.0158
  526MOL0     H69387   9.824  -0.818   7.084 -3.3435 -2.3440  1.2027
  526MOL0     H69388   9.782  -0.833   7.392  0.5244 -1.0050 -0.8185
  526MOL0     H69389   9.747  -0.956   7.269 -0.4569 -0.1016 -0.6261
  526MOL0     H69390   9.578  -0.810   7.166 -3.8176  1.3297  0.5357
  526MOL0     H69391   9.541  -0.822   7.330 -1.6305  0.3434 -2.8439
  526MOL0     H69392   9.697  -0.591   7.328 -1.3045 -1.2311  1.7535
  526MOL0     H69393   9.526  -0.590   7.310 -0.3680  0.3552 -0.6137
  526MOL0     H69394   9.565  -0.448   6.899  1.6398 -0.0800 -0.3653
  526MOL0     H69395   9.557  -0.216   6.849  2.1123 -2.8493 -1.3635
  526MOL0     H69396   9.627   0.223   7.374 -0.7503  1.1683  0.6648
  526MOL0     H69397   9.669   0.465   7.368  2.5942 -1.1170 -1.7930
  526MOL0     H69398   9.438   0.767   7.075 -0.4346 -2.4553 -2.1423
  526MOL0     H69399   9.566   0.687   6.996  3.4962  0.8389  0.2818
  526MOL0     H69400   9.608   0.908   7.207 -3.4387  1.1225 -0.2154
  526MOL0     H69401   9.581   0.942   7.035 -1.0500 -3.0630 -2.0709
  526MOL0     H69402   9.789   0.828   6.964  3.3275  0.5687 -0.4329
  526MOL0     H69403   9.790   0.763   7.124 -0.8559 -0.4211 -1.2570
  526MOL0     H69404   9.846   1.058   7.037  0.1589 -0.1872 -1.3773
  526MOL0     H69405   9.787   1.019   7.199 -0.2948 -1.7490  0.8584
  526MOL0     H69406   9.968   0.845   7.218 -2.0318 -0.1400 -0.9593
  526MOL0     H69407  10.032   1.005   7.228 -0.8711 -2.9199  3.9309
  526MOL0     H69408  10.093   0.994   6.977 -0.8378 -0.6508 -1.4586
  526MOL0     H69409  10.012   0.846   6.961  0.0685  0.1988 -0.9376
  526MOL0     H69410  10.177   0.758   7.162 -0.9789  1.5455  1.2995
  526MOL0     H69411  10.242   0.799   6.993  2.1531 -0.2963  0.0295
  526MOL0     H69412  10.378   0.873   7.162 -0.3177 -0.2645 -1.7094
  526MOL0     H69413  10.280   0.987   7.251  1.3078  3.2858 -0.1089
  526MOL0     H69414   9.462   0.488   6.999  2.4991 -3.4180 -2.8387
  526MOL0     H69415   9.443   0.244   6.993 -0.3346  1.2720 -0.9429
  526MOL0     H69416   9.617  -0.149   7.281  1.0889  0.6512 -0.8551
  526MOL0     H69417   9.635  -0.377   7.319 -1.0852  0.1173  0.2478
  526MOL0     H69418  10.135   0.239   6.719  0.5021 -0.3326  2.3393
  526MOL0     H69419  10.331   0.349   6.664  2.3781  1.1799 -0.0761
  526MOL0     H69420  10.563   0.670   6.340 -1.5311 -0.0057  0.0661
  526MOL0     H69421  10.760   0.826   6.281 -3.0139 -1.6995 -1.8682
  526MOL0     H69422  10.933   1.074   6.607  0.7520  0.2529 -1.3151
  526MOL0     H69423  10.780   1.162   6.596  1.1976  3.6299  0.7867
  526MOL0     H69424  11.031   1.269   6.554  1.2230  1.6163 -1.0239
  526MOL0     H69425  11.020   1.209   6.394  1.6606  2.5311  0.8412
  526MOL0     H69426  10.803   1.380   6.537 -1.9174  0.6591 -0.8474
  526MOL0     H69427  10.810   1.371   6.367  2.1022 -2.6646 -0.8667
  526MOL0     H69428  11.051   1.466   6.356  0.4313  3.2458 -1.1750
  526MOL0     H69429  10.925   1.582   6.406  0.9824  0.7141  0.1360
  526MOL0     H69430  11.123   1.541   6.774 -0.1742 -1.4440  0.5185
  526MOL0     H69431  10.721   0.984   6.685  0.5210  0.7253 -0.4446
  526MOL0     H69432  10.522   0.838   6.722  2.1160  0.6753  1.4719
  527MOL0     O69433   3.712   7.750  11.016 -0.7852 -0.4624  0.6405
  527MOL0     C69434   3.650   7.792  11.110  0.5619 -0.9616  0.5586
  527MOL0     O69435   3.598   7.720  11.210 -0.0012  0.3558 -1.0165
  527MOL0     C69436   3.589   7.590  11.196 -0.7945 -0.9494  0.1463
  527MOL0     C69437   3.470   7.533  11.211  0.1945 -0.3066  0.1720
  527MOL0     C69438   3.450   7.393  11.204 -0.6059  0.0922  0.0302
  527MOL0     C69439   3.549   7.308  11.168  0.4939 -0.0413 -0.7451
  527MOL0     O69440   3.531   7.171  11.165  0.0844  0.2144  0.0983
  527MOL0     C69441   3.567   7.112  11.040 -0.0322  1.0046  0.3296
  527MOL0     C69442   3.451   7.090  10.939 -0.0319 -0.6648  0.5379
  527MOL0     C69443   3.507   7.048  10.806 -0.1635 -0.0317  0.3032
  527MOL0     C69444   3.393   7.013  10.704  0.2354  0.1016 -0.3081
  527MOL0     C69445   3.468   6.984  10.574 -0.2781 -0.2731  0.7960
  527MOL0     C69446   3.364   7.001  10.462  1.2218 -0.3542 -0.4462
  527MOL0     C69447   3.407   6.946  10.315 -0.1171 -0.3645  0.0121
  527MOL0     C69448   3.279   6.968  10.229 -0.1798  0.0348  0.1830
  527MOL0     N69449   3.308   6.967  10.085 -0.5981 -0.6095  0.1937
  527MOL0     C69450   3.401   7.051  10.031  1.0512 -0.1509 -0.2897
  527MOL0     C69451   3.428   6.996   9.918  0.2886 -0.3944  0.5532
  527MOL0     C69452   3.540   7.036   9.838 -0.4479  0.3319  0.3503
  527MOL0     C69453   3.578   6.947   9.713  0.2209 -0.1205 -0.7765
  527MOL0     C69454   3.673   7.017   9.629 -0.4117  0.0215  1.1860
  527MOL0     C69455   3.831   7.029   9.665  0.0106 -0.1392 -0.6973
  527MOL0     O69456   3.895   6.905   9.679  0.2175  0.6294  1.1983
  527MOL0     C69457   3.888   6.817   9.569 -0.8747  0.1886  0.5818
  527MOL0     C69458   3.827   6.693   9.581 -0.6327 -0.0582  0.6799
  527MOL0     C69459   3.831   6.608   9.469  0.5550  0.1036  0.0201
  527MOL0     C69460   3.892   6.651   9.353 -0.1097  0.2252  0.0399
  527MOL0     C69461   3.898   6.559   9.240  0.0693  0.1424  0.6429
  527MOL0     O69462   3.818   6.450   9.251 -0.5256  0.5504  0.1208
  527MOL0     C69463   3.794   6.397   9.125  1.0107  0.4487  0.0938
  527MOL0     C69464   3.739   6.466   9.011 -0.6040 -0.5998  0.1131
  527MOL0     C69465   3.710   6.401   8.894  0.2986 -0.1066  0.0718
  527MOL0     C69466   3.749   6.268   8.877 -0.0850  0.5171  0.5584
  527MOL0     O69467   3.714   6.197   8.764 -0.9374 -0.1848 -0.1202
  527MOL0     C69468   3.574   6.173   8.745  0.0138 -0.1363 -0.6299
  527MOL0     C69469   3.552   6.138   8.603 -0.3560  0.1079 -0.4286
  527MOL0     C69470   3.403   6.127   8.574 -0.2346 -0.3332  0.5025
  527MOL0     C69471   3.379   6.070   8.435 -0.7153  0.0893 -0.2404
  527MOL0     C69472   3.227   6.054   8.386  0.2422 -0.3990 -0.2670
  527MOL0     C69473   3.221   5.965   8.261  0.7955  0.1342  0.6035
  527MOL0     C69474   3.074   5.965   8.208 -0.5041 -0.1015  0.4132
  527MOL0     C69475   2.988   5.879   8.292  0.1068  1.9821  0.8367
  527MOL0    Cl69476   2.816   5.890   8.242 -0.3230  0.0871 -0.0792
  527MOL0     C69477   3.801   6.195   8.986  0.0320 -0.6149 -1.1194
  527MOL0     C69478   3.826   6.265   9.108 -0.3526 -0.3573 -1.2267
  527MOL0     O69479   3.975   6.591   9.142  1.4011 -0.4357  0.7015
  527MOL0     C69480   3.952   6.773   9.343 -0.5609 -0.4196 -0.6341
  527MOL0     C69481   3.945   6.861   9.450 -0.1877 -0.9365  0.1469
  527MOL0     N69482   3.356   6.881   9.902 -0.3471  0.0758 -0.1306
  527MOL0     N69483   3.282   6.861  10.007 -0.0838  0.0946 -0.3820
  527MOL0     C69484   3.673   7.373  11.151 -0.4053 -0.6612  0.3144
  527MOL0     C69485   3.696   7.511  11.172 -0.7726 -0.1324 -0.0831
  527MOL0     C69486   3.623   7.935  11.119  0.6307 -0.2048 -1.1433
  527MOL0     C69487   3.632   7.993  11.246 -0.1100 -0.2398 -0.3054
  527MOL0     C69488   3.594   8.128  11.255 -0.5978 -0.3618 -0.3529
  527MOL0     C69489   3.567   8.213  11.149 -0.2392  0.5752  0.1102
  527MOL0     O69490   3.551   8.350  11.167  0.2609  0.6027 -0.6816
  527MOL0     C69491   3.534   8.434  11.056  0.3906  0.9054 -0.0366
  527MOL0     C69492   3.387   8.454  11.037 -0.3755  0.2396 -0.4033
  527MOL0     C69493   3.357   8.529  10.905 -0.1472  0.2570 -0.7652
  527MOL0     C69494   3.390   8.673  10.914 -0.5752 -0.4914  0.6367
  527MOL0     C69495   3.339   8.730  10.789 -0.5433 -0.7055  0.4095
  527MOL0     C69496   3.306   8.782  10.686 -0.8046  0.6267 -0.6429
  527MOL0     C69497   3.559   8.146  11.026  0.7300 -0.8924  0.0019
  527MOL0     C69498   3.593   8.010  11.008 -0.7720 -0.7549  0.2876
  527MOL0     H69499   3.384   7.600  11.215 -1.0235 -1.8840  2.9727
  527MOL0     H69500   3.355   7.342  11.215  0.8893 -2.9466 -0.0384
  527MOL0     H69501   3.623   7.020  11.057  0.2212  1.0279 -0.3356
  527MOL0     H69502   3.654   7.168  11.006  1.7072 -0.1213  2.6638
  527MOL0     H69503   3.395   7.184  10.932 -0.6238 -1.0099  0.5321
  527MOL0     H69504   3.386   7.013  10.982 -1.1164 -0.2389 -0.3037
  527MOL0     H69505   3.565   6.956  10.817 -0.2318 -0.1576 -0.3190
  527MOL0     H69506   3.570   7.130  10.771 -0.3250 -0.9918 -2.5194
  527MOL0     H69507   3.331   6.934  10.747 -2.7500  1.1819 -2.2732
  527MOL0     H69508   3.331   7.100  10.682 -0.3519 -0.3672 -0.5405
  527MOL0     H69509   3.519   6.887  10.572  0.6837  0.1550  2.4726
  527MOL0     H69510   3.534   7.067  10.549 -2.7224  1.3863 -0.5813
  527MOL0     H69511   3.338   7.107  10.452  0.0720  0.0882  4.4058
  527MOL0     H69512   3.275   6.942  10.485  0.2269  0.8177 -1.1376
  527MOL0     H69513   3.498   7.002  10.291 -1.0871  0.9324 -0.7022
  527MOL0     H69514   3.432   6.839  10.320 -0.4675 -0.3837  2.8801
  527MOL0     H69515   3.224   7.058  10.256 -0.9082 -0.2491 -0.3301
  527MOL0     H69516   3.203   6.894  10.256 -0.0132 -0.8957 -1.7534
  527MOL0     H69517   3.463   7.125  10.080  0.8939  0.6765 -1.3312
  527MOL0     H69518   3.620   7.044   9.912  0.6315 -1.7672 -0.5039
  527MOL0     H69519   3.522   7.136   9.798 -3.3175  0.1966  1.0869
  527MOL0     H69520   3.490   6.918   9.655 -1.2172 -0.4881  1.4866
  527MOL0     H69521   3.609   6.848   9.748  0.7858  0.1555 -0.4823
  527MOL0     H69522   3.670   6.971   9.530  2.2851  0.5796  0.7735
  527MOL0     H69523   3.642   7.121   9.613 -0.4311 -0.3680 -1.9117
  527MOL0     H69524   3.854   7.083   9.758  0.8832 -0.4426 -0.7323
  527MOL0     H69525   3.872   7.085   9.581  3.6236 -1.5179 -0.0276
  527MOL0     H69526   3.794   6.666   9.680  1.1961 -1.7067  0.9017
  527MOL0     H69527   3.797   6.507   9.490  2.0707  0.2294  3.8796
  527MOL0     H69528   3.729   6.574   9.017 -1.3574 -0.5170 -2.0313
  527MOL0     H69529   3.657   6.456   8.816  3.0884 -0.1549 -2.0213
  527MOL0     H69530   3.522   6.265   8.774 -0.5339  0.0227 -2.0272
  527MOL0     H69531   3.530   6.096   8.809  1.4462  1.5232  2.6014
  527MOL0     H69532   3.601   6.042   8.583 -0.9791  0.2660 -2.9567
  527MOL0     H69533   3.594   6.207   8.530  2.3415 -1.1598 -0.2059
  527MOL0     H69534   3.356   6.226   8.582  0.7175  0.2173 -0.4395
  527MOL0     H69535   3.350   6.076   8.655 -0.6181  3.3907  2.8465
  527MOL0     H69536   3.432   6.121   8.355  0.5558 -1.1211 -0.2175
  527MOL0     H69537   3.437   5.977   8.431 -0.0654  0.5252 -1.4365
  527MOL0     H69538   3.187   6.154   8.366 -1.9947 -0.5888  2.5938
  527MOL0     H69539   3.173   5.997   8.463 -1.4113  1.1819 -0.1829
  527MOL0     H69540   3.254   5.861   8.269 -0.8162 -0.4456  0.0841
  527MOL0     H69541   3.289   6.005   8.186  0.0170 -0.0813 -0.2303
  527MOL0     H69542   3.033   6.066   8.209 -1.3609 -0.4316  1.8350
  527MOL0     H69543   3.084   5.923   8.107  0.2752  1.7216 -0.3096
  527MOL0     H69544   2.992   5.901   8.399  3.3111 -0.7499  1.4478
  527MOL0     H69545   3.031   5.781   8.268  0.2274  2.8021 -2.8805
  527MOL0     H69546   3.838   6.093   8.980  0.2767 -0.6202  0.1751
  527MOL0     H69547   3.869   6.218   9.195 -0.0983 -1.5262 -1.9634
  527MOL0     H69548   4.002   6.801   9.252  3.4552 -0.0666  1.4789
  527MOL0     H69549   3.980   6.963   9.451  4.0901 -2.2180  0.5900
  527MOL0     H69550   3.765   7.322  11.128 -0.9153 -2.2893  1.7189
  527MOL0     H69551   3.790   7.565  11.161 -1.5424  1.4186  0.6095
  527MOL0     H69552   3.647   7.952  11.345 -1.8744 -1.0200 -0.3200
  527MOL0     H69553   3.586   8.160  11.358  2.7067  0.6845 -0.3155
  527MOL0     H69554   3.570   8.390  10.962  1.2783  0.9704  0.2617
  527MOL0     H69555   3.589   8.528  11.068 -0.7941  1.7306 -0.8397
  527MOL0     H69556   3.344   8.354  11.045  1.3743 -0.4671  0.7778
  527MOL0     H69557   3.355   8.511  11.124 -2.3287  1.1202 -1.6346
  527MOL0     H69558   3.252   8.516  10.876 -0.6501  2.1218  0.0737
  527MOL0     H69559   3.411   8.476  10.826 -0.4156 -1.1615 -0.0336
  527MOL0     H69560   3.350   8.726  11.000  0.2596  1.6224 -0.2028
  527MOL0     H69561   3.499   8.679  10.911 -0.5924 -0.3252 -1.3812
  527MOL0     H69562   3.306   8.836  10.593 -1.4993 -1.1685 -1.7400
  527MOL0     H69563   3.510   8.192  10.941 -0.4483  2.3495  2.2569
  527MOL0     H69564   3.611   7.957  10.914  1.9804  0.9523 -0.2695
  528MOL0     O69565   5.473   3.893   9.257 -0.4801 -0.5609 -0.9255
  528MOL0     C69566   5.575   3.961   9.284 -0.0627 -0.1682 -0.7545
  528MOL0     O69567   5.648   4.027   9.191  0.6972  0.0391 -0.1878
  528MOL0     C69568   5.593   4.060   9.061 -0.3172  1.1423  0.6958
  528MOL0     C69569   5.594   4.190   9.022  0.6572 -0.2485 -1.2967
  528MOL0     C69570   5.552   4.220   8.887 -0.4490  0.4590 -1.1833
  528MOL0     C69571   5.511   4.123   8.798  0.5423  0.1741 -1.1026
  528MOL0     O69572   5.484   4.157   8.669 -0.8457  0.3052  0.3399
  528MOL0     C69573   5.434   4.059   8.580 -0.0864  0.7258 -0.9215
  528MOL0     C69574   5.358   4.115   8.459  0.0448  0.2936  0.0862
  528MOL0     C69575   5.312   3.996   8.361 -0.0597  0.0335 -0.2364
  528MOL0     C69576   5.424   3.935   8.274 -0.0209 -0.3321  0.2960
  528MOL0     C69577   5.344   3.838   8.191  0.4453  1.2236  0.3264
  528MOL0     C69578   5.417   3.764   8.081 -1.1599 -0.2530 -0.2331
  528MOL0     C69579   5.469   3.865   7.973  0.0269 -0.2101  0.0158
  528MOL0     C69580   5.529   3.799   7.850  0.5124 -0.5928  0.2835
  528MOL0     N69581   5.535   3.864   7.722 -0.8308 -0.0798 -0.2373
  528MOL0     C69582   5.459   3.968   7.678  0.2025  0.8483 -0.3082
  528MOL0     C69583   5.502   3.988   7.545 -0.4850 -0.0704  0.3009
  528MOL0     C69584   5.437   4.090   7.452 -0.4408 -0.1245 -1.0542
  528MOL0     C69585   5.417   4.036   7.310 -0.1594  0.1631  0.6598
  528MOL0     C69586   5.327   4.137   7.226 -0.3323  0.9369 -0.4944
  528MOL0     C69587   5.305   4.082   7.081  0.2122  0.4626  0.0033
  528MOL0     O69588   5.221   4.169   7.014  0.6689  0.9545 -0.1563
  528MOL0     C69589   5.254   4.293   6.967  0.0284  0.2474 -0.9014
  528MOL0     C69590   5.156   4.387   6.922 -0.5604 -0.2149 -0.6247
  528MOL0     C69591   5.191   4.508   6.867  0.5155  0.0968  0.2263
  528MOL0     C69592   5.326   4.544   6.861 -0.9319 -0.0009 -0.0111
  528MOL0     C69593   5.357   4.664   6.795 -0.9227 -0.7507  0.1606
  528MOL0     O69594   5.275   4.770   6.805  0.6157 -0.2482  1.4532
  528MOL0     C69595   5.278   4.868   6.708 -0.4916  0.7433 -0.0974
  528MOL0     C69596   5.256   4.857   6.574 -0.3517 -0.3408 -0.7088
  528MOL0     C69597   5.258   4.960   6.485 -0.3396  1.2358 -0.6607
  528MOL0     C69598   5.300   5.083   6.539 -0.7425  0.0029  0.3654
  528MOL0     O69599   5.308   5.184   6.447 -0.0912  0.4274  0.2679
  528MOL0     C69600   5.442   5.237   6.434  0.4022  0.6192  0.9270
  528MOL0     C69601   5.437   5.388   6.436 -1.2794  0.2908  0.3374
  528MOL0     C69602   5.566   5.468   6.457  0.3953 -0.2581  0.0233
  528MOL0     C69603   5.602   5.494   6.602  0.8138 -0.5470  0.0032
  528MOL0     C69604   5.716   5.593   6.612 -0.8370 -0.9156 -0.1672
  528MOL0     C69605   5.737   5.645   6.761  0.1479 -0.4892  0.5844
  528MOL0     C69606   5.704   5.548   6.880  0.4337  0.4464 -0.1992
  528MOL0     C69607   5.805   5.438   6.893  0.0925  1.2013  1.0846
  528MOL0    Cl69608   5.948   5.470   7.003 -0.2911  0.1176  0.1142
  528MOL0     C69609   5.326   5.109   6.675  0.1731  0.5752  0.9382
  528MOL0     C69610   5.318   4.999   6.762 -0.0868 -0.6717  0.2670
  528MOL0     O69611   5.452   4.660   6.718  0.0345 -0.0606  0.4375
  528MOL0     C69612   5.430   4.453   6.905  0.1006 -0.9341 -0.5597
  528MOL0     C69613   5.394   4.323   6.949 -0.1147 -0.2755  0.7903
  528MOL0     N69614   5.592   3.887   7.516 -0.8539  1.8229 -0.3556
  528MOL0     N69615   5.602   3.811   7.621 -0.7251 -0.5176  0.8241
  528MOL0     C69616   5.525   3.992   8.843  0.2106 -0.0786  1.5245
  528MOL0     C69617   5.560   3.959   8.970  0.1933  0.6871 -0.0126
  528MOL0     C69618   5.643   3.933   9.414  0.2282  0.2482  0.0930
  528MOL0     C69619   5.622   3.815   9.484 -0.4205  0.5763 -0.2494
  528MOL0     C69620   5.668   3.806   9.621  1.0823  0.5292 -0.2754
  528MOL0     C69621   5.753   3.900   9.670 -0.7626 -0.3855  0.8420
  528MOL0     O69622   5.817   3.878   9.786 -0.0978 -0.1927 -0.7615
  528MOL0     C69623   5.932   3.797   9.768  0.0961 -0.0022 -0.3213
  528MOL0     C69624   5.988   3.744   9.902 -0.1162 -0.2682  0.1565
  528MOL0     C69625   6.117   3.661   9.875 -0.8507 -0.1177 -0.4444
  528MOL0     C69626   6.169   3.634  10.019 -0.0629 -0.6949 -0.5166
  528MOL0     C69627   6.259   3.749  10.055 -0.1388  0.3917  0.3865
  528MOL0     C69628   6.327   3.836  10.092 -0.3061 -0.2063  0.9289
  528MOL0     C69629   5.779   4.019   9.601 -0.5267 -0.3146  0.0748
  528MOL0     C69630   5.720   4.041   9.477 -0.0018  0.2418 -0.0508
  528MOL0     H69631   5.623   4.280   9.075  3.2020  0.4317 -3.6233
  528MOL0     H69632   5.544   4.321   8.848  3.8446  0.7301 -1.8156
  528MOL0     H69633   5.355   4.017   8.643  2.0885 -1.1151  0.7409
  528MOL0     H69634   5.504   3.977   8.565 -1.6120 -0.9732  0.7979
  528MOL0     H69635   5.421   4.183   8.401  0.3229  2.0086  2.2747
  528MOL0     H69636   5.265   4.161   8.494  1.4169  0.8400  3.3217
  528MOL0     H69637   5.230   4.036   8.300 -2.7031 -2.1212  1.6516
  528MOL0     H69638   5.269   3.925   8.432  0.5592  0.4158  0.5276
  528MOL0     H69639   5.449   4.021   8.212 -3.3151 -0.6811 -1.7634
  528MOL0     H69640   5.506   3.898   8.336  1.1195 -3.7735 -2.8390
  528MOL0     H69641   5.269   3.892   8.134 -0.5620  3.5176  3.5078
  528MOL0     H69642   5.293   3.763   8.252 -1.3100  1.0191 -1.3077
  528MOL0     H69643   5.353   3.687   8.038  0.4522 -1.0224 -1.3640
  528MOL0     H69644   5.496   3.705   8.128 -0.4771  1.5960  1.0614
  528MOL0     H69645   5.383   3.919   7.930 -1.0409 -2.8157 -1.3510
  528MOL0     H69646   5.540   3.939   8.010 -0.0194  0.8054 -1.8194
  528MOL0     H69647   5.480   3.703   7.829  1.3462 -1.3234  1.5465
  528MOL0     H69648   5.635   3.784   7.875  0.1512  2.1073  4.4390
  528MOL0     H69649   5.393   4.044   7.720 -0.2403  0.3533 -0.0942
  528MOL0     H69650   5.498   4.181   7.449 -1.0521  0.3336  0.1459
  528MOL0     H69651   5.335   4.106   7.486  0.1751  0.3356  0.6759
  528MOL0     H69652   5.356   3.946   7.325  0.6286 -0.1968  1.9064
  528MOL0     H69653   5.508   4.002   7.260 -2.7066 -4.1333 -1.7326
  528MOL0     H69654   5.230   4.140   7.277 -0.3477  0.2714 -0.4699
  528MOL0     H69655   5.370   4.237   7.213  0.4183  1.0519  2.2434
  528MOL0     H69656   5.247   3.991   7.101 -1.0611  1.4010  0.7746
  528MOL0     H69657   5.393   4.059   7.020 -2.7897 -3.1961 -3.5282
  528MOL0     H69658   5.052   4.358   6.927 -0.0035 -2.3391 -0.2014
  528MOL0     H69659   5.116   4.573   6.823  1.6598 -1.0891 -3.9392
  528MOL0     H69660   5.241   4.756   6.537  3.0830 -1.5596  0.8142
  528MOL0     H69661   5.235   4.925   6.385 -0.7573 -2.5899  0.6233
  528MOL0     H69662   5.491   5.223   6.337 -3.2086 -1.2243 -0.8429
  528MOL0     H69663   5.516   5.200   6.505  2.5929  0.2325 -1.3941
  528MOL0     H69664   5.368   5.415   6.516 -1.4786 -0.1453  0.3160
  528MOL0     H69665   5.394   5.422   6.341  1.9624  1.3030 -0.9109
  528MOL0     H69666   5.541   5.565   6.412  1.3250  0.7995  1.6531
  528MOL0     H69667   5.648   5.408   6.417 -3.2645 -4.2021 -2.4002
  528MOL0     H69668   5.519   5.538   6.657  3.4181  1.7742  2.4390
  528MOL0     H69669   5.623   5.398   6.651 -0.0436 -2.1461 -2.5632
  528MOL0     H69670   5.710   5.689   6.561 -1.0959 -1.3384 -0.9591
  528MOL0     H69671   5.805   5.544   6.571  1.2311  1.2440  1.5220
  528MOL0     H69672   5.668   5.730   6.764 -1.1877 -1.5166  0.2810
  528MOL0     H69673   5.838   5.677   6.785 -0.5262  0.8703  1.7077
  528MOL0     H69674   5.727   5.601   6.973  2.4726  0.9847 -0.9549
  528MOL0     H69675   5.597   5.527   6.891 -0.1820  1.9806 -2.4552
  528MOL0     H69676   5.847   5.420   6.794  1.5887  0.4371  1.8310
  528MOL0     H69677   5.761   5.345   6.931 -0.1941 -0.1425 -2.1634
  528MOL0     H69678   5.344   5.209   6.713 -1.2412  2.4796 -2.8206
  528MOL0     H69679   5.356   5.017   6.862 -3.4274 -0.4842  1.6250
  528MOL0     H69680   5.535   4.482   6.896  0.0464 -1.3747 -3.6146
  528MOL0     H69681   5.476   4.262   6.985 -0.7711 -0.8498  1.3420
  528MOL0     H69682   5.512   3.915   8.767 -0.3400  0.8382  0.6629
  528MOL0     H69683   5.576   3.855   8.997 -0.2985  0.3062 -1.1686
  528MOL0     H69684   5.562   3.730   9.455 -1.7714  1.3041  0.3086
  528MOL0     H69685   5.643   3.727   9.692  0.1989  2.1764  1.3200
  528MOL0     H69686   6.010   3.864   9.731 -0.1839  0.9427  0.7315
  528MOL0     H69687   5.909   3.716   9.698 -0.8177  0.0086 -0.0446
  528MOL0     H69688   6.005   3.816   9.982 -4.6992 -1.0728  2.1684
  528MOL0     H69689   5.911   3.673   9.933  1.6015 -3.0379 -1.4995
  528MOL0     H69690   6.186   3.716   9.811 -1.0641  0.4912 -0.1643
  528MOL0     H69691   6.095   3.570   9.818  0.7652  0.3061 -1.8203
  528MOL0     H69692   6.090   3.639  10.094  1.2083 -1.2589  0.9388
  528MOL0     H69693   6.224   3.539  10.010  1.4959  0.0981  0.2016
  528MOL0     H69694   6.403   3.895  10.139  1.4510  0.3019 -2.2995
  528MOL0     H69695   5.842   4.094   9.649 -2.3460  1.5088 -0.2925
  528MOL0     H69696   5.732   4.133   9.420  0.3005  0.7141  0.7638
  529MOL0     O69697  10.560   9.398   9.114 -0.7076 -0.9197 -0.8440
  529MOL0     C69698  10.618   9.290   9.082 -0.4531  0.7687  0.2819
  529MOL0     O69699  10.555   9.194   9.012  0.1770 -0.0305 -0.2419
  529MOL0     C69700  10.435   9.223   8.961 -0.8691 -0.1249  0.2225
  529MOL0     C69701  10.336   9.130   9.005  0.0804 -0.2888  0.3580
  529MOL0     C69702  10.204   9.153   8.955 -0.3386  1.0805  0.6604
  529MOL0     C69703  10.164   9.260   8.868 -0.3496  1.0935  0.4158
  529MOL0     O69704  10.031   9.278   8.856  0.3451 -0.4642  0.8154
  529MOL0     C69705   9.991   9.404   8.792  0.8032 -0.4917 -0.4533
  529MOL0     C69706   9.835   9.399   8.796 -0.0893 -0.3066 -0.1676
  529MOL0     C69707   9.761   9.528   8.742 -1.1511 -0.0633 -0.5531
  529MOL0     C69708   9.730   9.515   8.596 -0.5738  0.6326 -0.2270
  529MOL0     C69709   9.712   9.660   8.542  0.4181  0.2799  0.5802
  529MOL0     C69710   9.657   9.665   8.400 -0.3253 -0.0857 -0.5944
  529MOL0     C69711   9.517   9.709   8.377 -0.0304  0.4842 -0.1778
  529MOL0     C69712   9.417   9.590   8.415 -0.2181 -0.0417 -0.2400
  529MOL0     N69713   9.285   9.611   8.351 -0.7699 -0.4546  0.1722
  529MOL0     C69714   9.170   9.666   8.416 -1.0101  0.2833 -0.1960
  529MOL0     C69715   9.080   9.659   8.320  0.7084  0.2188 -0.0678
  529MOL0     C69716   8.926   9.679   8.360 -0.7633  0.4496  0.0020
  529MOL0     C69717   8.848   9.550   8.340 -0.2410 -0.2839 -0.3515
  529MOL0     C69718   8.860   9.448   8.455 -0.5677  0.3557 -1.0355
  529MOL0     C69719   8.834   9.505   8.598 -0.2617 -0.7497  0.8148
  529MOL0     O69720   8.954   9.544   8.664  0.2444  0.0995  0.3766
  529MOL0     C69721   9.040   9.451   8.718  0.1480 -0.2148 -0.2187
  529MOL0     C69722   9.002   9.321   8.741 -0.7171  0.2815 -0.1988
  529MOL0     C69723   9.101   9.232   8.778  0.2921 -0.1653 -0.9245
  529MOL0     C69724   9.239   9.263   8.809  0.3790  0.2759 -0.8338
  529MOL0     C69725   9.334   9.172   8.883  0.1884  0.1233  0.0500
  529MOL0     O69726   9.465   9.195   8.910  0.5374  0.2274 -0.0250
  529MOL0     C69727   9.542   9.108   8.985 -0.5768  0.7595  0.3004
  529MOL0     C69728   9.547   8.974   8.968 -0.3346  0.2072 -0.3213
  529MOL0     C69729   9.660   8.902   9.023 -0.1235 -0.2085  0.8881
  529MOL0     C69730   9.767   8.965   9.089  0.5527 -0.0758  0.2916
  529MOL0     O69731   9.866   8.882   9.122 -0.1125  0.4043  0.1991
  529MOL0     C69732   9.961   8.923   9.226 -0.0070  0.0550  0.3333
  529MOL0     C69733  10.043   8.803   9.282  0.6294  0.1062 -0.3765
  529MOL0     C69734  10.107   8.703   9.179  0.2035 -0.0951 -0.1210
  529MOL0     C69735  10.238   8.764   9.116  0.2313 -0.3698  0.2231
  529MOL0     C69736  10.288   8.696   8.996  0.6328 -0.1404 -0.3629
  529MOL0     C69737  10.200   8.702   8.876  0.9522 -0.0332  0.3710
  529MOL0     C69738  10.278   8.638   8.762  0.1925  0.6445  0.5610
  529MOL0     C69739  10.195   8.620   8.634 -0.1221  0.9057  0.2659
  529MOL0    Cl69740  10.278   8.558   8.486  0.3575  0.1824  0.2248
  529MOL0     C69741   9.757   9.106   9.105 -0.3208 -0.0818 -0.3535
  529MOL0     C69742   9.649   9.168   9.050  0.4056  0.0095  0.4365
  529MOL0     O69743   9.276   9.066   8.904  0.4793 -0.4822 -0.9545
  529MOL0     C69744   9.267   9.400   8.804 -0.6302 -0.3154 -0.0438
  529MOL0     C69745   9.177   9.494   8.751 -0.9279  0.0950 -0.4535
  529MOL0     N69746   9.131   9.599   8.208  0.6160  0.5239  0.2190
  529MOL0     N69747   9.257   9.576   8.226 -0.1832  0.2290  0.8063
  529MOL0     C69748  10.265   9.344   8.835 -0.3693  0.4369 -0.0259
  529MOL0     C69749  10.401   9.316   8.865 -0.0667 -0.1253  0.3899
  529MOL0     C69750  10.763   9.263   9.108  0.1914 -0.4755 -0.2293
  529MOL0     C69751  10.819   9.304   9.233  0.8431 -0.6578 -0.3392
  529MOL0     C69752  10.953   9.273   9.267 -0.3069 -0.9663 -0.8593
  529MOL0     C69753  11.029   9.191   9.189 -0.6173  0.2076  0.1241
  529MOL0     O69754  11.158   9.167   9.208  0.3770 -0.6334 -1.0470
  529MOL0     C69755  11.232   9.210   9.328  0.5825 -0.2283  0.1148
  529MOL0     C69756  11.293   9.350   9.318  0.4145  0.4832 -0.4728
  529MOL0     C69757  11.410   9.373   9.424  0.6745 -0.5618  0.8963
  529MOL0     C69758  11.482   9.504   9.399  0.0564 -0.5280 -0.9679
  529MOL0     C69759  11.577   9.523   9.516 -0.3779 -0.2804  0.4246
  529MOL0     C69760  11.669   9.552   9.591  0.6027 -0.1840  0.3126
  529MOL0     C69761  10.968   9.153   9.068 -0.4305 -0.0406 -0.3613
  529MOL0     C69762  10.831   9.180   9.029 -0.3817 -0.5772  0.1969
  529MOL0     H69763  10.379   9.048   9.061  0.0466  0.0444  0.8717
  529MOL0     H69764  10.123   9.095   8.998  1.6703  0.4833  3.9464
  529MOL0     H69765  10.033   9.428   8.694  3.6450 -1.8969  0.3077
  529MOL0     H69766  10.022   9.491   8.851  0.7937 -0.3122 -0.7159
  529MOL0     H69767   9.809   9.388   8.902  0.7434  1.8537  0.3133
  529MOL0     H69768   9.804   9.317   8.731  0.5385 -1.8263  1.3648
  529MOL0     H69769   9.821   9.616   8.766 -1.1218 -0.1324 -0.3759
  529MOL0     H69770   9.663   9.536   8.791 -0.1284  0.4462  1.4948
  529MOL0     H69771   9.815   9.468   8.545  0.6170  1.9114  0.5331
  529MOL0     H69772   9.641   9.454   8.575  0.3421 -1.6098  1.8944
  529MOL0     H69773   9.806   9.716   8.547 -0.3340  1.7089 -0.6584
  529MOL0     H69774   9.649   9.715   8.612  1.0370  0.2885  1.1470
  529MOL0     H69775   9.667   9.567   8.351 -1.1788 -0.7840  0.5840
  529MOL0     H69776   9.717   9.726   8.331 -1.3164  0.8346 -0.6748
  529MOL0     H69777   9.507   9.799   8.439  0.4400 -1.1617  2.4427
  529MOL0     H69778   9.492   9.726   8.272  0.2886  1.1193 -0.1545
  529MOL0     H69779   9.386   9.587   8.520 -4.4068  2.1665 -1.1755
  529MOL0     H69780   9.469   9.498   8.387 -1.8299 -0.8662 -0.6570
  529MOL0     H69781   9.176   9.708   8.516  0.5658 -2.3276  0.9058
  529MOL0     H69782   8.893   9.745   8.280 -3.1343 -2.4049 -1.5967
  529MOL0     H69783   8.921   9.735   8.454  1.1287  2.0393 -0.7688
  529MOL0     H69784   8.853   9.503   8.242 -2.2245  1.8835 -1.6045
  529MOL0     H69785   8.748   9.590   8.358  0.2102  0.3370  0.8546
  529MOL0     H69786   8.790   9.366   8.436 -0.8612 -0.3631  2.4400
  529MOL0     H69787   8.963   9.410   8.450  0.2643  1.8327  2.1963
  529MOL0     H69788   8.775   9.433   8.655  0.8128 -3.1463 -0.9026
  529MOL0     H69789   8.767   9.590   8.592 -0.8384 -1.2769 -3.0254
  529MOL0     H69790   8.902   9.282   8.727 -1.1187  1.6981 -1.5728
  529MOL0     H69791   9.068   9.129   8.792 -0.4610 -0.0918 -2.0924
  529MOL0     H69792   9.456   8.916   8.960 -2.6531  2.5385  4.9069
  529MOL0     H69793   9.658   8.795   9.008 -1.3408  0.3001 -4.4309
  529MOL0     H69794   9.908   8.957   9.316  0.8731  0.6371  0.6466
  529MOL0     H69795  10.020   9.011   9.199 -1.5330  0.4708 -1.8745
  529MOL0     H69796   9.965   8.764   9.348 -0.4617  1.5904 -0.7295
  529MOL0     H69797  10.130   8.825   9.345  2.6036 -3.8213 -1.4482
  529MOL0     H69798  10.033   8.673   9.104  1.8516 -0.6859 -1.5665
  529MOL0     H69799  10.127   8.608   9.229  1.7448  0.7336  0.9044
  529MOL0     H69800  10.226   8.869   9.090  2.1274 -0.1328  0.1685
  529MOL0     H69801  10.323   8.767   9.185  1.8098  0.6269 -1.6761
  529MOL0     H69802  10.312   8.594   9.026  2.2418  0.9933  2.6063
  529MOL0     H69803  10.380   8.746   8.965  2.1368 -2.4833  0.1057
  529MOL0     H69804  10.172   8.804   8.846 -0.8754 -2.0479 -6.5396
  529MOL0     H69805  10.109   8.644   8.894  0.3150  1.0842  0.8360
  529MOL0     H69806  10.365   8.699   8.737 -0.9509  0.9514 -3.3806
  529MOL0     H69807  10.308   8.539   8.798 -1.8925 -1.2906 -2.5028
  529MOL0     H69808  10.171   8.726   8.620 -2.3786  0.5236  0.7971
  529MOL0     H69809  10.112   8.554   8.662 -0.4867  1.0808 -0.3668
  529MOL0     H69810   9.843   9.152   9.151 -0.0227 -3.1106  2.5168
  529MOL0     H69811   9.650   9.276   9.050 -0.7444  0.1298  3.4118
  529MOL0     H69812   9.368   9.431   8.828 -1.7933  2.3918  1.8533
  529MOL0     H69813   9.201   9.600   8.749 -1.2994  0.1904 -3.0319
  529MOL0     H69814  10.244   9.417   8.757  1.8351 -0.9990 -2.1518
  529MOL0     H69815  10.466   9.388   8.815 -0.8413  0.4523  0.1905
  529MOL0     H69816  10.765   9.368   9.303  2.1248 -1.3042  1.3005
  529MOL0     H69817  10.991   9.322   9.356 -3.3306 -0.2080  0.1697
  529MOL0     H69818  11.309   9.135   9.347  1.3346  0.5646  0.2398
  529MOL0     H69819  11.180   9.215   9.425  2.3201 -4.0679  1.4625
  529MOL0     H69820  11.342   9.351   9.221 -1.8272 -1.0456 -1.6978
  529MOL0     H69821  11.221   9.431   9.329  0.0736 -0.1250  3.3471
  529MOL0     H69822  11.481   9.291   9.418 -1.0607 -2.0469 -1.6402
  529MOL0     H69823  11.360   9.360   9.520 -1.8656 -1.5940 -0.4515
  529MOL0     H69824  11.563   9.504   9.325  1.6949 -0.5728  0.7326
  529MOL0     H69825  11.420   9.593   9.387  1.8270  0.8317 -0.4685
  529MOL0     H69826  11.746   9.586   9.657  1.7157  0.1498 -1.0994
  529MOL0     H69827  11.036   9.107   8.997  1.1863  0.4191  0.8486
  529MOL0     H69828  10.801   9.143   8.931  0.5217 -2.0060  0.4379
  530MOL0     O69829   3.245   1.198   6.375 -0.0168  0.2184 -0.0775
  530MOL0     C69830   3.220   1.112   6.464 -0.0925  0.4368  0.5160
  530MOL0     O69831   3.302   1.007   6.499 -0.8459 -0.2658 -0.5165
  530MOL0     C69832   3.429   1.006   6.461  0.0743 -1.5101  0.3373
  530MOL0     C69833   3.470   0.917   6.361 -1.0749 -0.6807 -1.0524
  530MOL0     C69834   3.598   0.919   6.311 -0.4440 -0.5287 -0.8067
  530MOL0     C69835   3.690   0.995   6.362  0.0923  0.0401  0.4462
  530MOL0     O69836   3.818   0.992   6.306 -1.0662 -0.2124 -0.1015
  530MOL0     C69837   3.885   0.868   6.333  0.0093 -0.6755  0.7429
  530MOL0     C69838   3.894   0.780   6.203 -0.1874 -0.0788  0.3006
  530MOL0     C69839   4.007   0.837   6.116 -0.2398 -0.4742  0.3728
  530MOL0     C69840   4.021   0.768   5.979  0.3828  0.2341 -0.0403
  530MOL0     C69841   4.145   0.831   5.910 -0.1763  0.5202 -0.4050
  530MOL0     C69842   4.268   0.771   5.959  0.1256 -0.1861 -0.2412
  530MOL0     C69843   4.395   0.843   5.884  0.3063  0.3824  0.2053
  530MOL0     C69844   4.419   0.775   5.750  0.1557 -0.0796  0.6855
  530MOL0     N69845   4.341   0.826   5.640  0.0793 -1.2775  0.6382
  530MOL0     C69846   4.357   0.953   5.596  0.6138  0.7882 -0.1463
  530MOL0     C69847   4.257   0.965   5.505  0.8253 -0.1985  0.3281
  530MOL0     C69848   4.241   1.095   5.422 -0.2590  0.4853  0.6483
  530MOL0     C69849   4.102   1.155   5.448  0.3251 -0.0405  0.6363
  530MOL0     C69850   4.078   1.229   5.587 -0.4867 -0.6133 -0.0226
  530MOL0     C69851   4.121   1.379   5.593 -0.5023  0.2575  0.1818
  530MOL0     O69852   4.258   1.395   5.611 -0.1885  0.4324 -0.7710
  530MOL0     C69853   4.318   1.517   5.611 -0.0288  0.0472  0.6214
  530MOL0     C69854   4.442   1.536   5.668 -0.6546 -0.2071 -0.4937
  530MOL0     C69855   4.512   1.663   5.679 -0.7703 -0.0462 -0.2714
  530MOL0     C69856   4.442   1.769   5.620 -0.5005 -0.4649  0.6571
  530MOL0     C69857   4.499   1.899   5.639  0.4933  0.5093  0.3773
  530MOL0     O69858   4.625   1.898   5.667  0.5965  0.1811  0.0842
  530MOL0     C69859   4.701   2.005   5.709  1.3481  0.0212  0.1979
  530MOL0     C69860   4.722   2.125   5.636  0.1973  0.8760  0.0913
  530MOL0     C69861   4.798   2.231   5.680  0.0746 -0.1985 -0.9872
  530MOL0     C69862   4.842   2.231   5.815 -0.3343  0.2313 -0.0297
  530MOL0     O69863   4.901   2.336   5.880  0.1442  0.0873 -0.5423
  530MOL0     C69864   5.002   2.407   5.804 -0.6628  0.4337  0.6244
  530MOL0     C69865   5.042   2.520   5.895 -0.1505 -0.6198 -0.2868
  530MOL0     C69866   5.073   2.485   6.034 -0.3701 -1.0263 -0.5567
  530MOL0     C69867   5.161   2.595   6.098  0.0312 -0.3493 -0.2116
  530MOL0     C69868   5.105   2.731   6.101 -0.6088 -0.3861  0.7063
  530MOL0     C69869   5.143   2.807   6.228  1.3039  0.3777  0.1848
  530MOL0     C69870   5.287   2.856   6.219  0.2012 -0.1601 -0.4849
  530MOL0     C69871   5.340   2.941   6.341  0.7109 -0.3779  0.0322
  530MOL0    Cl69872   5.344   2.832   6.488  0.0670 -0.1233  0.0885
  530MOL0     C69873   4.806   2.116   5.897 -0.3965 -0.7357  1.0297
  530MOL0     C69874   4.727   2.008   5.842 -0.1492 -0.4203 -0.3137
  530MOL0     O69875   4.429   2.000   5.609  0.0881  0.6851  0.3375
  530MOL0     C69876   4.310   1.755   5.558  0.0066 -0.0955  0.5543
  530MOL0     C69877   4.262   1.624   5.537  0.2096  0.0305 -0.7707
  530MOL0     N69878   4.187   0.845   5.493  0.7682 -1.0600  0.4246
  530MOL0     N69879   4.239   0.765   5.567  0.1420 -0.3676 -1.0259
  530MOL0     C69880   3.655   1.077   6.477  0.4715 -0.3604 -0.6361
  530MOL0     C69881   3.526   1.089   6.517 -0.1638  0.1436  0.8299
  530MOL0     C69882   3.081   1.122   6.533  0.4432  0.3365  0.7993
  530MOL0     C69883   3.049   1.038   6.644  0.8305 -0.1958  1.4101
  530MOL0     C69884   2.932   1.048   6.715  0.7573 -0.1717 -0.5007
  530MOL0     C69885   2.839   1.148   6.682  1.1119 -0.2345  0.1301
  530MOL0     O69886   2.733   1.181   6.760 -0.5770  0.5567 -0.1936
  530MOL0     C69887   2.723   1.135   6.899 -0.4174  0.0144 -0.6572
  530MOL0     C69888   2.666   0.999   6.927  0.2160  1.6503  0.7980
  530MOL0     C69889   2.526   0.968   6.868  0.2082  0.1931  0.2864
  530MOL0     C69890   2.430   1.020   6.970  0.6939 -0.3547  0.6064
  530MOL0     C69891   2.297   1.067   6.916 -0.2969 -0.6614  0.1232
  530MOL0     C69892   2.189   1.101   6.880 -0.6636 -0.8466 -1.5028
  530MOL0     C69893   2.864   1.211   6.562 -0.5155  0.2362  0.7774
  530MOL0     C69894   2.987   1.205   6.490  1.0013 -0.7663 -0.0854
  530MOL0     H69895   3.381   0.859   6.341 -1.1566 -2.3077  3.0563
  530MOL0     H69896   3.609   0.852   6.226 -2.6676 -3.7059  1.1474
  530MOL0     H69897   3.841   0.803   6.409 -3.5828 -1.0890 -1.4191
  530MOL0     H69898   3.986   0.889   6.369  1.1485  0.5601 -2.7013
  530MOL0     H69899   3.798   0.774   6.149  0.2850  0.1770 -0.5860
  530MOL0     H69900   3.925   0.679   6.232 -0.7557 -0.0299  1.1072
  530MOL0     H69901   4.091   0.812   6.182 -1.4171 -4.4020  0.6216
  530MOL0     H69902   3.999   0.944   6.095 -0.7815 -0.3921  0.9576
  530MOL0     H69903   4.018   0.659   5.986 -0.7095  0.2333 -0.4039
  530MOL0     H69904   3.930   0.800   5.928  0.3733 -0.3577 -0.3967
  530MOL0     H69905   4.147   0.939   5.931  0.9001 -0.1624  4.0955
  530MOL0     H69906   4.136   0.807   5.804  2.4762  1.8426 -1.0129
  530MOL0     H69907   4.265   0.662   5.953  2.3857 -0.3535  0.6640
  530MOL0     H69908   4.274   0.796   6.066  4.5733 -3.8115  0.6888
  530MOL0     H69909   4.381   0.950   5.869 -2.0164  0.2810  1.1732
  530MOL0     H69910   4.485   0.830   5.944 -0.2126  1.8395  1.3571
  530MOL0     H69911   4.412   0.666   5.754  0.4568 -0.1665 -0.6753
  530MOL0     H69912   4.520   0.809   5.722  1.4693 -0.1594  4.6362
  530MOL0     H69913   4.431   1.026   5.629 -2.0319  3.2777  0.7054
  530MOL0     H69914   4.249   1.086   5.314 -0.6530  1.4595  0.5210
  530MOL0     H69915   4.313   1.171   5.454  1.9659 -1.7042  1.0451
  530MOL0     H69916   4.021   1.082   5.443  1.1245 -0.9983  1.5328
  530MOL0     H69917   4.082   1.224   5.365 -0.2824 -1.1421 -0.1573
  530MOL0     H69918   3.970   1.223   5.603 -0.6446  1.7939  0.2939
  530MOL0     H69919   4.136   1.176   5.663  1.0919  3.9268  2.3602
  530MOL0     H69920   4.067   1.429   5.674  1.1841 -0.6916  1.9608
  530MOL0     H69921   4.077   1.429   5.506 -1.9294  2.5620  2.0990
  530MOL0     H69922   4.475   1.443   5.714 -1.1015  1.0861  2.7111
  530MOL0     H69923   4.612   1.680   5.719 -0.2470  1.3718 -2.0603
  530MOL0     H69924   4.693   2.118   5.531 -0.5450  1.7153  0.2256
  530MOL0     H69925   4.807   2.314   5.611  0.4522 -0.4916 -1.2927
  530MOL0     H69926   4.971   2.436   5.703  2.0504 -0.9377 -0.6990
  530MOL0     H69927   5.093   2.351   5.783 -1.6861 -0.4397 -1.8646
  530MOL0     H69928   4.955   2.587   5.897 -1.2370 -1.8913 -2.1498
  530MOL0     H69929   5.123   2.582   5.855  0.6239 -1.1564  0.4364
  530MOL0     H69930   5.135   2.395   6.036  4.0475  1.7316  0.3729
  530MOL0     H69931   4.983   2.457   6.090 -1.7146  1.2076 -1.5036
  530MOL0     H69932   5.201   2.562   6.194 -2.1992 -1.4803  0.3960
  530MOL0     H69933   5.246   2.599   6.030  1.1975  1.3893  1.2625
  530MOL0     H69934   4.996   2.722   6.090 -0.9770  2.3726  1.1889
  530MOL0     H69935   5.144   2.776   6.009  1.7655 -2.1842  0.7403
  530MOL0     H69936   5.122   2.753   6.321  2.4495 -0.8190 -0.2154
  530MOL0     H69937   5.069   2.887   6.230 -0.5850 -1.2471 -1.1537
  530MOL0     H69938   5.348   2.766   6.226  0.0186 -0.2964 -0.6480
  530MOL0     H69939   5.304   2.896   6.118  2.3859 -2.4612 -1.1435
  530MOL0     H69940   5.271   3.024   6.357 -2.0738 -2.1817 -1.6115
  530MOL0     H69941   5.437   2.984   6.316  0.8346 -0.0836  0.9857
  530MOL0     H69942   4.831   2.116   6.002  0.9595 -0.5668  0.7239
  530MOL0     H69943   4.715   1.918   5.902  2.9186 -0.9141 -0.2516
  530MOL0     H69944   4.262   1.840   5.510  1.6876  1.6067  1.7126
  530MOL0     H69945   4.169   1.614   5.482  0.0850  0.8209 -0.7184
  530MOL0     H69946   3.741   1.132   6.514  1.1082  0.0733 -2.6283
  530MOL0     H69947   3.485   1.158   6.589  0.9991 -1.3880  3.0687
  530MOL0     H69948   3.117   0.963   6.682  3.7259  2.5261  1.9750
  530MOL0     H69949   2.932   0.967   6.788  3.0953 -0.6669 -0.9804
  530MOL0     H69950   2.677   1.210   6.964  0.3671  0.4453 -0.5784
  530MOL0     H69951   2.821   1.135   6.947 -1.3856  0.1356  1.3842
  530MOL0     H69952   2.730   0.918   6.892 -1.4991 -0.0179  1.3805
  530MOL0     H69953   2.668   0.976   7.034 -4.6840  1.5446  1.0650
  530MOL0     H69954   2.525   0.861   6.845  2.6962  0.2156 -0.2552
  530MOL0     H69955   2.513   1.018   6.772  3.3978  0.0520 -0.3340
  530MOL0     H69956   2.421   0.948   7.052 -0.5086  0.0149  0.8129
  530MOL0     H69957   2.467   1.116   7.005  0.0810  1.1843 -2.5755
  530MOL0     H69958   2.093   1.132   6.845 -2.4440 -1.9387  1.9538
  530MOL0     H69959   2.798   1.294   6.538 -0.0081  0.7615  1.1624
  530MOL0     H69960   2.993   1.275   6.408 -2.7655  0.0473  0.1394
  531MOL0     O69961   5.590  10.819   7.504 -0.4269  0.3405 -0.1298
  531MOL0     C69962   5.604  10.927   7.446  0.4985 -0.1354 -0.6048
  531MOL0     O69963   5.714  11.000   7.434  0.2916  0.2123  0.6913
  531MOL0     C69964   5.798  10.971   7.534  0.8065 -0.2877 -0.5413
  531MOL0     C69965   5.758  10.999   7.665  0.6409 -1.1128 -1.3256
  531MOL0     C69966   5.835  10.961   7.776 -1.6321 -0.0036  0.6482
  531MOL0     C69967   5.951  10.877   7.758  0.2726  1.1071 -0.1019
  531MOL0     O69968   6.008  10.814   7.863  0.1645 -0.3345  0.4210
  531MOL0     C69969   6.150  10.795   7.871  0.4557  0.1769  0.1164
  531MOL0     C69970   6.152  10.727   8.004  0.1414  0.0962 -0.7866
  531MOL0     C69971   6.298  10.740   8.054 -1.1542 -0.6583 -0.2323
  531MOL0     C69972   6.331  10.654   8.170  1.1201 -0.1341 -0.1184
  531MOL0     C69973   6.261  10.707   8.298 -0.4666 -0.6156 -0.0144
  531MOL0     C69974   6.284  10.616   8.421 -0.7182 -0.8190 -0.5017
  531MOL0     C69975   6.196  10.629   8.540  0.0190 -0.2529 -0.2569
  531MOL0     C69976   6.204  10.511   8.640  0.1664  0.2680 -0.5560
  531MOL0     N69977   6.328  10.496   8.693 -0.7315 -0.3200 -1.2977
  531MOL0     C69978   6.394  10.378   8.736 -0.1676  0.0579  0.1411
  531MOL0     C69979   6.492  10.413   8.816  0.2695  0.0034  0.4879
  531MOL0     C69980   6.576  10.319   8.902 -0.7279  0.8169  0.5437
  531MOL0     C69981   6.508  10.330   9.039 -0.8408 -0.1211 -0.1154
  531MOL0     C69982   6.581  10.231   9.138 -0.1834 -0.9127 -0.1565
  531MOL0     C69983   6.536  10.257   9.285  0.0683  0.2410 -0.5606
  531MOL0     O69984   6.403  10.202   9.294 -0.5903  0.2229  0.4128
  531MOL0     C69985   6.361  10.177   9.424  0.6082  0.1143  0.0921
  531MOL0     C69986   6.234  10.129   9.441  0.4351  0.0534 -0.3149
  531MOL0     C69987   6.175  10.127   9.568 -0.0068 -0.9631  0.6910
  531MOL0     C69988   6.248  10.154   9.682 -0.3035  0.8849  0.2428
  531MOL0     C69989   6.178  10.151   9.819 -1.2237  0.8358 -1.0327
  531MOL0     O69990   6.240  10.204   9.922  0.3371 -0.4215 -0.3443
  531MOL0     C69991   6.179  10.188  10.048 -0.1853  0.6000 -0.4550
  531MOL0     C69992   6.144  10.295  10.122  0.9953 -0.3378  0.3364
  531MOL0     C69993   6.080  10.277  10.246  0.3464 -0.5597 -0.7003
  531MOL0     C69994   6.055  10.148  10.303  0.8428 -0.6232  0.6775
  531MOL0     O69995   6.006  10.136  10.432 -0.9029  0.4894  0.4952
  531MOL0     C69996   5.968  10.000  10.477  0.2612 -0.3154 -0.5400
  531MOL0     C69997   5.943   9.999  10.628  0.1890  0.7218 -0.5946
  531MOL0     C69998   5.907   9.861  10.692 -0.0373  0.5036  0.0058
  531MOL0     C69999   5.938   9.864  10.841  0.0923  0.4884  0.9251
  531MOL0     C70000   5.919   9.720  10.892  0.5442  0.6122  0.3794
  531MOL0     C70001   5.938   9.704  11.040  0.7844  1.1146 -0.4344
  531MOL0     C70002   5.916   9.557  11.084 -0.1413 -0.9793 -0.3544
  531MOL0     C70003   5.935   9.542  11.233 -0.4370 -0.3401  0.1244
  531MOL0    Cl70004   5.945   9.379  11.278  0.0558 -0.5009 -0.2813
  531MOL0     C70005   6.098  10.040  10.223  0.0292 -0.0073  0.5786
  531MOL0     C70006   6.163  10.058  10.102 -0.5828  0.5807  0.5823
  531MOL0     O70007   6.067  10.104   9.819 -0.1664  0.5681  0.1199
  531MOL0     C70008   6.382  10.193   9.665 -0.0105  0.5496 -0.0843
  531MOL0     C70009   6.437  10.203   9.539 -0.1246 -0.3354 -0.0252
  531MOL0     N70010   6.493  10.553   8.821  0.7162  0.0785  0.0754
  531MOL0     N70011   6.393  10.600   8.752 -0.2585 -0.1652  0.5452
  531MOL0     C70012   5.986  10.844   7.631  0.2672 -0.7088  1.0923
  531MOL0     C70013   5.909  10.889   7.526  0.0516  0.6250  0.0592
  531MOL0     C70014   5.479  10.990   7.395  0.5937 -1.0036  0.3945
  531MOL0     C70015   5.464  11.127   7.378  0.5256 -0.1491  0.0979
  531MOL0     C70016   5.339  11.181   7.338 -0.7785  0.2609 -0.9426
  531MOL0     C70017   5.236  11.099   7.308  0.1608  0.1184  0.5553
  531MOL0     O70018   5.118  11.149   7.280  0.1533 -0.0794  1.0038
  531MOL0     C70019   5.120  11.255   7.168  0.1553  0.1063 -0.2319
  531MOL0     C70020   5.191  11.221   7.031 -0.3143  0.4979  0.3197
  531MOL0     C70021   5.147  11.089   6.976  0.6252  0.1071  0.6466
  531MOL0     C70022   4.996  11.080   6.979  0.6665 -0.1965 -0.3826
  531MOL0     C70023   4.926  11.174   6.889 -1.2001 -0.6582  0.1372
  531MOL0     C70024   4.869  11.253   6.829  0.1346 -1.3005 -0.0955
  531MOL0     C70025   5.252  10.960   7.317  0.0304 -0.2380  0.0667
  531MOL0     C70026   5.383  10.906   7.344 -0.1633 -1.1230 -0.2587
  531MOL0     H70027   5.665  11.052   7.681  2.0838  0.7248  2.1973
  531MOL0     H70028   5.824  10.990   7.880  2.7977 -1.1690  1.6620
  531MOL0     H70029   6.191  10.892   7.898 -0.0996 -0.0100  1.7301
  531MOL0     H70030   6.180  10.743   7.780  1.4188  0.7714  0.0831
  531MOL0     H70031   6.114  10.625   7.991  0.9029 -0.2301 -0.5444
  531MOL0     H70032   6.083  10.780   8.070 -0.7927  1.2250 -2.5922
  531MOL0     H70033   6.318  10.845   8.075 -2.0381 -0.7918  1.4467
  531MOL0     H70034   6.343  10.698   7.963 -2.2435  1.9231 -2.0957
  531MOL0     H70035   6.294  10.552   8.156  0.3877 -0.4535  3.2830
  531MOL0     H70036   6.436  10.662   8.202  0.3712 -1.2545  2.9745
  531MOL0     H70037   6.153  10.718   8.289 -0.8269 -1.6114  2.4753
  531MOL0     H70038   6.293  10.810   8.319  0.2101 -0.1939 -2.6623
  531MOL0     H70039   6.390  10.629   8.446 -0.0734 -2.9026 -1.8943
  531MOL0     H70040   6.289  10.512   8.386  2.5095 -1.2121  0.7776
  531MOL0     H70041   6.216  10.724   8.591  0.9041 -1.5088  1.8898
  531MOL0     H70042   6.094  10.626   8.500 -0.3937  0.0610  0.7371
  531MOL0     H70043   6.181  10.422   8.581 -0.5196 -1.2777  1.8827
  531MOL0     H70044   6.130  10.528   8.720 -3.1867 -3.6343 -2.4425
  531MOL0     H70045   6.356  10.277   8.733 -0.5665  0.2206 -0.6579
  531MOL0     H70046   6.679  10.350   8.920 -1.3058  1.0931  4.0244
  531MOL0     H70047   6.573  10.215   8.868 -0.7409  1.1667 -0.5704
  531MOL0     H70048   6.403  10.301   9.028 -0.5179 -1.3967  0.0484
  531MOL0     H70049   6.512  10.432   9.079 -3.2446 -0.5793  1.4894
  531MOL0     H70050   6.557  10.128   9.110  0.1571 -1.6424  2.0283
  531MOL0     H70051   6.687  10.254   9.123 -0.0322 -2.3079 -1.3865
  531MOL0     H70052   6.536  10.362   9.316 -5.0418 -0.0870  1.5348
  531MOL0     H70053   6.602  10.195   9.346  0.9490  0.7838 -0.9474
  531MOL0     H70054   6.169  10.108   9.357 -2.8778  1.1820  1.7967
  531MOL0     H70055   6.072  10.095   9.574 -0.7636  0.7659 -1.7891
  531MOL0     H70056   6.161  10.395  10.083 -2.5640  0.2903  0.1016
  531MOL0     H70057   6.063  10.365  10.308  1.4215 -1.3563  0.8056
  531MOL0     H70058   6.054   9.940  10.447  0.4807  0.9499 -2.6433
  531MOL0     H70059   5.886   9.957  10.420 -0.0390  0.5322 -0.7695
  531MOL0     H70060   5.871  10.075  10.660 -1.0855 -0.5213 -0.3927
  531MOL0     H70061   6.039  10.011  10.678 -1.1075 -2.8702  3.3402
  531MOL0     H70062   5.956   9.773  10.650 -3.2065 -1.4360  0.0241
  531MOL0     H70063   5.802   9.832  10.681  0.3118 -0.8013  0.0094
  531MOL0     H70064   6.040   9.902  10.855  0.9476 -1.0638 -0.7619
  531MOL0     H70065   5.852   9.915  10.888 -2.1019  0.0444 -2.2788
  531MOL0     H70066   5.998   9.665  10.840  3.2227  3.3064  1.3750
  531MOL0     H70067   5.814   9.692  10.876  0.5450 -0.6656  2.2825
  531MOL0     H70068   5.872   9.768  11.100 -1.3762 -2.0674  0.8636
  531MOL0     H70069   6.039   9.739  11.061  1.0439  1.1872 -1.7381
  531MOL0     H70070   5.818   9.529  11.045 -0.6165  1.0863 -0.7405
  531MOL0     H70071   5.991   9.495  11.034 -0.7223 -1.0349 -1.1948
  531MOL0     H70072   5.854   9.590  11.289 -1.6916 -1.2737 -0.8296
  531MOL0     H70073   6.027   9.597  11.256 -1.1604  1.9489 -2.0383
  531MOL0     H70074   6.093   9.937  10.256  3.6316 -0.7394 -0.6140
  531MOL0     H70075   6.182   9.962  10.054  0.0124  0.0730  1.7802
  531MOL0     H70076   6.447  10.209   9.751 -2.8781  1.0550  2.1722
  531MOL0     H70077   6.540  10.235   9.540 -0.3090  0.2819  0.9975
  531MOL0     H70078   6.071  10.782   7.601 -0.8228 -2.7940  2.0658
  531MOL0     H70079   5.948  10.847   7.434 -0.4705 -1.4548  0.7369
  531MOL0     H70080   5.542  11.198   7.403  1.0709  0.3852 -2.7428
  531MOL0     H70081   5.334  11.289   7.347 -3.5389  0.1138 -0.0226
  531MOL0     H70082   5.162  11.350   7.201 -3.1307  1.0712  1.6415
  531MOL0     H70083   5.018  11.292   7.151  0.2164 -0.0120 -0.9033
  531MOL0     H70084   5.177  11.303   6.960 -1.6467  1.0458  1.1752
  531MOL0     H70085   5.299  11.212   7.042 -0.3280 -1.0176 -0.5103
  531MOL0     H70086   5.197  11.002   7.020 -1.5094  0.0707  3.2327
  531MOL0     H70087   5.184  11.100   6.874  0.9473 -0.1461  0.7347
  531MOL0     H70088   4.961  10.982   6.947 -1.4811 -0.0032  1.1171
  531MOL0     H70089   4.955  11.093   7.080 -0.6306  2.2688 -1.1330
  531MOL0     H70090   4.822  11.321   6.762  1.1694  1.8583  2.1318
  531MOL0     H70091   5.172  10.890   7.299 -0.2784 -0.5204  2.3193
  531MOL0     H70092   5.383  10.799   7.363 -2.2924 -0.9511  1.0869
  532MOL0     O70093   6.462   1.331   1.382 -0.6917  1.4388  0.1577
  532MOL0     C70094   6.430   1.403   1.470  0.1395  0.5709 -0.6351
  532MOL0     O70095   6.331   1.376   1.558 -0.3831 -0.0269  0.5454
  532MOL0     C70096   6.270   1.256   1.559  0.3363  0.3289 -0.3809
  532MOL0     C70097   6.128   1.245   1.554  0.4877  0.3240 -0.2836
  532MOL0     C70098   6.068   1.121   1.548  0.9187  0.3179  0.0253
  532MOL0     C70099   6.135   0.996   1.548 -1.2286 -0.2835 -0.7679
  532MOL0     O70100   6.074   0.872   1.530 -0.7105 -0.2697 -0.1548
  532MOL0     C70101   6.117   0.802   1.416 -0.1661  0.0760  0.0661
  532MOL0     C70102   6.040   0.674   1.398  0.5780 -1.1957  0.1050
  532MOL0     C70103   6.054   0.573   1.519 -0.7126  0.0120  0.1507
  532MOL0     C70104   5.978   0.445   1.478  0.1053  0.4524 -0.6103
  532MOL0     C70105   5.988   0.326   1.580  0.5832  0.9191 -0.4000
  532MOL0     C70106   5.903   0.217   1.518 -0.9169  0.6816 -0.7299
  532MOL0     C70107   5.875   0.092   1.603  0.7055 -0.9492 -0.4282
  532MOL0     C70108   5.986  -0.010   1.592 -0.3919 -0.3597  0.2483
  532MOL0     N70109   5.949  -0.120   1.680  1.1532 -0.4647 -0.1829
  532MOL0     C70110   5.868  -0.230   1.662 -1.2644  0.5447  0.0931
  532MOL0     C70111   5.858  -0.287   1.784  0.0220 -0.1022  0.3688
  532MOL0     C70112   5.770  -0.407   1.807  0.1141  0.3989  0.7739
  532MOL0     C70113   5.661  -0.372   1.902 -0.6642 -0.0070  0.6642
  532MOL0     C70114   5.706  -0.353   2.048 -0.1852  0.4291  0.0935
  532MOL0     C70115   5.572  -0.340   2.124  0.2163  0.9272 -1.4360
  532MOL0     O70116   5.600  -0.367   2.268 -0.2424  0.2326  0.1649
  532MOL0     C70117   5.494  -0.363   2.354  0.1771  0.2228  0.2450
  532MOL0     C70118   5.361  -0.302   2.330  0.2782  0.1559  0.3055
  532MOL0     C70119   5.256  -0.292   2.422 -0.4524  0.8682  0.7348
  532MOL0     C70120   5.278  -0.339   2.549 -0.5542  0.5053  0.3300
  532MOL0     C70121   5.173  -0.355   2.651  0.0292 -0.3477 -1.1012
  532MOL0     O70122   5.045  -0.311   2.609  0.3221  0.3800 -0.2999
  532MOL0     C70123   4.935  -0.306   2.692 -0.0418  1.0504 -0.5482
  532MOL0     C70124   4.936  -0.304   2.832 -0.1429  0.3907  0.0391
  532MOL0     C70125   4.818  -0.267   2.902 -0.8090 -1.0587 -0.2824
  532MOL0     C70126   4.698  -0.257   2.847 -0.5119 -0.4444 -0.4881
  532MOL0     O70127   4.593  -0.228   2.934 -0.0718  0.5111 -0.2858
  532MOL0     C70128   4.473  -0.155   2.897 -0.1249  0.1686  0.6101
  532MOL0     C70129   4.485  -0.002   2.899  0.2098 -0.8002 -0.5651
  532MOL0     C70130   4.499   0.048   2.752  0.3484 -0.6114 -0.5718
  532MOL0     C70131   4.515   0.201   2.754 -0.0451 -0.4905  0.7798
  532MOL0     C70132   4.477   0.280   2.610 -0.1985  1.2104 -0.1299
  532MOL0     C70133   4.418   0.424   2.634  0.4390  0.2466  0.0871
  532MOL0     C70134   4.405   0.492   2.493 -0.1850  0.0515 -0.2415
  532MOL0     C70135   4.376   0.635   2.496  0.3064  0.0720  0.7599
  532MOL0    Cl70136   4.227   0.688   2.581  0.3537  0.1063  0.4392
  532MOL0     C70137   4.683  -0.279   2.708  0.3968 -0.9564 -0.3214
  532MOL0     C70138   4.809  -0.294   2.636  0.4969 -0.4489  0.7288
  532MOL0     O70139   5.209  -0.391   2.762  0.3449 -0.2074  0.1649
  532MOL0     C70140   5.407  -0.389   2.584  0.3753  0.5919  1.4763
  532MOL0     C70141   5.512  -0.394   2.487 -1.1948  0.6082  0.1025
  532MOL0     N70142   5.920  -0.209   1.883 -0.4607 -0.7561 -0.8479
  532MOL0     N70143   5.980  -0.122   1.816 -0.2987 -1.1518  0.0496
  532MOL0     C70144   6.276   1.005   1.556 -0.2561  1.0651  0.8099
  532MOL0     C70145   6.341   1.128   1.551 -0.4570 -0.3468  0.4725
  532MOL0     C70146   6.503   1.532   1.480  0.4436  0.8124 -0.5394
  532MOL0     C70147   6.500   1.610   1.596 -0.5363  0.3406  1.0708
  532MOL0     C70148   6.592   1.715   1.607 -0.4845 -0.0092  0.5492
  532MOL0     C70149   6.678   1.755   1.498 -0.0122 -0.0650  0.0472
  532MOL0     O70150   6.771   1.859   1.505 -0.4363  0.3418  0.3284
  532MOL0     C70151   6.796   1.912   1.642  0.4595 -0.4331 -0.5268
  532MOL0     C70152   6.902   2.018   1.647  1.4031 -0.0224 -0.5696
  532MOL0     C70153   7.028   1.997   1.559  0.4638 -1.0254 -0.0159
  532MOL0     C70154   7.104   1.867   1.604  0.9185 -0.3366  0.1983
  532MOL0     C70155   7.138   1.879   1.749 -0.2451  0.2559  0.3429
  532MOL0     C70156   7.173   1.868   1.862  0.2315 -0.6392  0.0879
  532MOL0     C70157   6.663   1.685   1.379 -0.1389 -0.2813  0.5492
  532MOL0     C70158   6.572   1.576   1.369 -0.4769 -0.4673  0.2546
  532MOL0     H70159   6.073   1.338   1.556  1.6338  1.0292 -0.6522
  532MOL0     H70160   5.960   1.120   1.538  0.8618 -1.2535  0.6052
  532MOL0     H70161   6.223   0.778   1.424  0.6025  3.1513  0.1954
  532MOL0     H70162   6.094   0.856   1.324  1.0797 -2.0191 -1.5734
  532MOL0     H70163   6.067   0.632   1.301 -3.5126 -1.1200 -1.2425
  532MOL0     H70164   5.936   0.707   1.393  1.1209  0.8160  0.8477
  532MOL0     H70165   6.007   0.620   1.606 -0.4376  0.0476  0.2809
  532MOL0     H70166   6.155   0.550   1.554 -0.8963 -0.9686  0.0620
  532MOL0     H70167   5.875   0.478   1.458 -1.0990 -0.1101  3.6604
  532MOL0     H70168   6.027   0.394   1.394 -1.0677  0.2662 -1.2088
  532MOL0     H70169   5.939   0.352   1.675 -1.6536 -0.4117 -1.1123
  532MOL0     H70170   6.087   0.292   1.610  0.0155  0.6481  1.2765
  532MOL0     H70171   5.948   0.182   1.424 -0.3135  2.2553 -1.0475
  532MOL0     H70172   5.808   0.264   1.493 -0.4984  1.9155 -0.0454
  532MOL0     H70173   5.862   0.120   1.708  1.0232  0.0950 -0.6516
  532MOL0     H70174   5.782   0.046   1.567 -0.1885 -0.4206  1.1287
  532MOL0     H70175   6.079   0.035   1.628  0.0314 -1.6079  0.7541
  532MOL0     H70176   5.996  -0.035   1.487 -1.7990 -1.4190  0.3350
  532MOL0     H70177   5.818  -0.260   1.570  0.9081  0.5962 -1.1874
  532MOL0     H70178   5.819  -0.495   1.850 -2.5025 -0.8754  1.3481
  532MOL0     H70179   5.739  -0.443   1.709 -1.0096 -2.9485  2.1951
  532MOL0     H70180   5.598  -0.462   1.899  1.5299 -1.9236  4.6087
  532MOL0     H70181   5.596  -0.287   1.876 -2.1271 -1.6397 -1.4150
  532MOL0     H70182   5.751  -0.447   2.080 -1.1393 -0.1951 -0.3586
  532MOL0     H70183   5.766  -0.262   2.055 -0.0226  0.4791 -1.4878
  532MOL0     H70184   5.504  -0.424   2.106  1.8521 -0.5364 -0.9845
  532MOL0     H70185   5.520  -0.245   2.106 -0.3616  0.3179 -3.2760
  532MOL0     H70186   5.344  -0.264   2.229  2.7484  2.3302  0.6020
  532MOL0     H70187   5.152  -0.262   2.413 -0.4590  1.1714  1.6710
  532MOL0     H70188   5.028  -0.316   2.888 -0.7006  0.5506  0.9939
  532MOL0     H70189   4.817  -0.250   3.009  0.3239 -1.0584 -0.2549
  532MOL0     H70190   4.399  -0.197   2.966 -0.0986 -1.1951 -0.1405
  532MOL0     H70191   4.435  -0.183   2.798 -0.8240 -1.8041  1.3844
  532MOL0     H70192   4.574   0.029   2.954 -0.8806  2.8075 -0.5991
  532MOL0     H70193   4.398   0.042   2.949  1.9162  1.4621  0.5725
  532MOL0     H70194   4.404   0.016   2.708 -0.5890  0.7411  0.3664
  532MOL0     H70195   4.583   0.005   2.697  0.5490  1.6081 -2.1554
  532MOL0     H70196   4.438   0.243   2.819  0.1679 -0.4577  1.0151
  532MOL0     H70197   4.608   0.241   2.796 -0.1783  2.2113 -1.1935
  532MOL0     H70198   4.405   0.216   2.558  0.4122  1.3029 -1.1139
  532MOL0     H70199   4.565   0.292   2.546  0.9588  2.5885  1.6471
  532MOL0     H70200   4.480   0.492   2.693 -2.0443  1.7061  1.1187
  532MOL0     H70201   4.327   0.413   2.693  0.6612  0.2156  0.4232
  532MOL0     H70202   4.500   0.478   2.441  0.4053 -2.3517  1.3120
  532MOL0     H70203   4.328   0.439   2.436 -0.4887  1.2313 -0.9604
  532MOL0     H70204   4.369   0.661   2.389  0.1114  1.7233  1.1360
  532MOL0     H70205   4.462   0.679   2.547  0.5845 -2.7646  2.9378
  532MOL0     H70206   4.590  -0.265   2.656 -0.0918  2.6531  1.2227
  532MOL0     H70207   4.811  -0.280   2.528  2.8781  0.4604  0.8329
  532MOL0     H70208   5.429  -0.408   2.689  0.4565  2.1791  1.7747
  532MOL0     H70209   5.608  -0.444   2.502 -0.7131  1.6382  0.5242
  532MOL0     H70210   6.321   0.906   1.549  0.3389  1.4421 -1.4542
  532MOL0     H70211   6.450   1.128   1.547 -0.3094 -1.5932  2.7573
  532MOL0     H70212   6.448   1.582   1.688  0.1228 -0.8962  1.0829
  532MOL0     H70213   6.606   1.763   1.703  0.2170  0.7147  0.0965
  532MOL0     H70214   6.829   1.837   1.715 -0.6286 -0.9480 -0.5391
  532MOL0     H70215   6.705   1.964   1.674  1.5586  1.6865 -0.6899
  532MOL0     H70216   6.850   2.111   1.621 -2.6451 -2.4578 -2.2513
  532MOL0     H70217   6.934   2.034   1.750 -1.0572  1.9800 -0.0245
  532MOL0     H70218   7.088   2.087   1.573 -1.8334  1.0455 -2.3292
  532MOL0     H70219   6.997   1.998   1.454 -0.5991  0.4198  0.2729
  532MOL0     H70220   7.031   1.785   1.598 -1.3846  1.7122 -2.8061
  532MOL0     H70221   7.193   1.847   1.545 -0.2506  0.3081 -1.8933
  532MOL0     H70222   7.213   1.854   1.961  0.6520  1.6422  0.3009
  532MOL0     H70223   6.702   1.720   1.284 -3.0759  1.2347 -0.2198
  532MOL0     H70224   6.568   1.524   1.273 -2.2656  0.9465 -0.5084
  533MOL0     O70225   7.243   3.466   6.824  0.4252  0.7949  0.4992
  533MOL0     C70226   7.246   3.496   6.945  0.2414 -0.1940  0.3478
  533MOL0     O70227   7.352   3.541   7.022 -0.3223  0.2533  0.5123
  533MOL0     C70228   7.480   3.537   6.965  0.0816  0.2016 -0.4594
  533MOL0     C70229   7.540   3.418   6.927 -0.8999 -0.4662  0.0422
  533MOL0     C70230   7.669   3.404   6.878 -0.6544  0.4814 -0.1806
  533MOL0     C70231   7.738   3.531   6.861  0.2090  0.6893 -0.0386
  533MOL0     O70232   7.867   3.546   6.829  0.2956  0.0807  0.7084
  533MOL0     C70233   7.962   3.435   6.804  0.4448 -0.7053 -0.2466
  533MOL0     C70234   8.095   3.483   6.752 -0.7617  0.4204 -0.5526
  533MOL0     C70235   8.097   3.550   6.609  0.9510 -0.0467 -0.0333
  533MOL0     C70236   8.215   3.656   6.591 -0.6998  0.1538  0.0619
  533MOL0     C70237   8.348   3.579   6.620  0.3643 -0.9632 -0.0314
  533MOL0     C70238   8.473   3.667   6.573 -1.0902 -1.0614  0.1544
  533MOL0     C70239   8.504   3.638   6.422 -0.6622 -0.2033  0.1653
  533MOL0     C70240   8.588   3.749   6.347  0.2718 -0.8903 -1.2399
  533MOL0     N70241   8.678   3.818   6.433  1.0091  0.2554  0.1215
  533MOL0     C70242   8.648   3.936   6.487  0.6739 -0.7237  0.3587
  533MOL0     C70243   8.731   3.950   6.593 -0.2668  0.4226 -0.6425
  533MOL0     C70244   8.745   4.081   6.664 -0.4220 -0.1402 -0.1829
  533MOL0     C70245   8.834   4.183   6.589  0.1560 -0.1649  0.1107
  533MOL0     C70246   8.967   4.125   6.556  0.1254 -0.1914 -0.1199
  533MOL0     C70247   9.038   4.207   6.446 -0.1921 -0.6507  0.1914
  533MOL0     O70248   9.008   4.348   6.457 -0.0389  0.5829 -0.2027
  533MOL0     C70249   9.060   4.427   6.551 -0.6950  0.3971 -0.0697
  533MOL0     C70250   9.163   4.386   6.642  0.0530 -0.3632 -0.0735
  533MOL0     C70251   9.218   4.484   6.734  0.2085 -0.6241  1.2082
  533MOL0     C70252   9.164   4.615   6.730  0.0649 -0.1086  0.5029
  533MOL0     C70253   9.212   4.721   6.820  1.2322 -0.5424  0.2158
  533MOL0     O70254   9.122   4.826   6.837  0.1229  0.0625  0.0379
  533MOL0     C70255   9.152   4.937   6.916  1.2135 -0.0264  0.3284
  533MOL0     C70256   9.038   5.013   6.956 -0.3479 -0.0447  0.1054
  533MOL0     C70257   9.051   5.138   7.012  0.5362 -1.0282 -0.4584
  533MOL0     C70258   9.175   5.202   7.012 -0.2546 -0.6542 -0.3862
  533MOL0     O70259   9.191   5.332   7.057  0.4366  0.0535  0.2132
  533MOL0     C70260   9.321   5.373   7.118 -0.5121 -0.1599 -0.5774
  533MOL0     C70261   9.314   5.523   7.133 -0.6518  0.0555 -0.6729
  533MOL0     C70262   9.450   5.577   7.176 -0.6340 -0.0469  1.2269
  533MOL0     C70263   9.431   5.702   7.254 -0.1555  0.4433 -0.0195
  533MOL0     C70264   9.558   5.750   7.319  0.0122  1.2014  0.3492
  533MOL0     C70265   9.548   5.892   7.363  0.2517 -0.6301 -0.5887
  533MOL0     C70266   9.687   5.954   7.382 -0.1691 -0.2248  0.5174
  533MOL0     C70267   9.747   5.898   7.513 -0.4575  0.5662  0.5789
  533MOL0    Cl70268   9.898   5.978   7.558 -0.6332 -0.2205  0.0206
  533MOL0     C70269   9.288   5.135   6.962 -0.1796  0.7495  0.0385
  533MOL0     C70270   9.278   4.994   6.929 -0.8727 -0.4216  0.6423
  533MOL0     O70271   9.320   4.713   6.882 -0.5707 -0.0201  0.1551
  533MOL0     C70272   9.057   4.648   6.643 -0.2236 -0.2479 -0.2228
  533MOL0     C70273   9.017   4.557   6.542 -0.7020  0.2441 -0.9622
  533MOL0     N70274   8.806   3.837   6.609 -0.1458  0.4217  0.8626
  533MOL0     N70275   8.771   3.752   6.517 -0.1582  0.4085  0.6860
  533MOL0     C70276   7.677   3.645   6.889  0.2508 -0.4155 -1.3015
  533MOL0     C70277   7.546   3.653   6.947 -0.7253  0.2520  0.0080
  533MOL0     C70278   7.106   3.496   7.001 -0.5876  0.8145  0.4289
  533MOL0     C70279   7.086   3.494   7.141  0.4217 -0.3745  0.0313
  533MOL0     C70280   6.966   3.477   7.200  0.0037  0.4197  0.4619
  533MOL0     C70281   6.851   3.482   7.116  0.6022 -0.4030 -0.1971
  533MOL0     O70282   6.729   3.465   7.174  0.6569  0.0390  0.4534
  533MOL0     C70283   6.608   3.411   7.106  0.3083 -0.5730  0.5633
  533MOL0     C70284   6.646   3.268   7.066 -0.4370 -0.2782  0.0576
  533MOL0     C70285   6.540   3.180   6.997 -0.1648 -0.2649  0.0453
  533MOL0     C70286   6.527   3.223   6.846  0.7594  0.4829  0.1262
  533MOL0     C70287   6.494   3.135   6.743  0.1522  0.5046  0.8648
  533MOL0     C70288   6.477   3.056   6.646  0.0556  0.4122 -0.6950
  533MOL0     C70289   6.866   3.500   6.976  0.1306  0.8313 -0.5636
  533MOL0     C70290   6.993   3.501   6.919  0.3977 -0.2561 -0.1928
  533MOL0     H70291   7.500   3.319   6.943 -2.5444  0.2216  0.4072
  533MOL0     H70292   7.713   3.305   6.868 -0.3450  0.7825 -2.5141
  533MOL0     H70293   7.928   3.373   6.721 -0.4831  0.0432 -0.4392
  533MOL0     H70294   7.983   3.381   6.898 -1.0082 -1.3650 -0.2728
  533MOL0     H70295   8.145   3.389   6.725  0.7046  1.3424 -1.1523
  533MOL0     H70296   8.156   3.534   6.826  2.2595 -0.6387 -2.1242
  533MOL0     H70297   7.998   3.596   6.609  0.3929 -1.1935  0.5212
  533MOL0     H70298   8.120   3.475   6.532 -2.2778 -0.1281 -1.0868
  533MOL0     H70299   8.208   3.693   6.488  0.0561 -1.8349 -0.7546
  533MOL0     H70300   8.196   3.744   6.654 -0.4318 -0.6519  1.3071
  533MOL0     H70301   8.346   3.482   6.568  1.7358  0.5780 -3.2514
  533MOL0     H70302   8.355   3.576   6.729 -0.6386  3.0421  0.3027
  533MOL0     H70303   8.563   3.633   6.625  1.4993  1.8309 -2.0435
  533MOL0     H70304   8.461   3.775   6.588  2.0912 -1.0091  4.1441
  533MOL0     H70305   8.556   3.543   6.405  1.3582  1.1328 -1.6715
  533MOL0     H70306   8.407   3.627   6.374 -1.5243  0.7502  1.6087
  533MOL0     H70307   8.523   3.825   6.303  0.7956  0.6488  0.5362
  533MOL0     H70308   8.631   3.692   6.263  0.0625 -1.7040 -0.8036
  533MOL0     H70309   8.587   4.019   6.452 -0.8538 -1.3288  1.4826
  533MOL0     H70310   8.803   4.063   6.755  0.6802 -4.0131 -1.4600
  533MOL0     H70311   8.646   4.125   6.681 -1.4525 -2.3059 -0.1366
  533MOL0     H70312   8.827   4.278   6.643  1.3841 -0.9773  1.7903
  533MOL0     H70313   8.790   4.195   6.490  0.3277  1.0885  0.1742
  533MOL0     H70314   9.035   4.111   6.641  1.2886 -1.4316 -1.2253
  533MOL0     H70315   8.948   4.026   6.516  2.3101 -0.5325 -0.4288
  533MOL0     H70316   9.019   4.170   6.345 -0.6242 -0.2670  0.1298
  533MOL0     H70317   9.147   4.198   6.454  0.1688  1.6753 -1.2639
  533MOL0     H70318   9.200   4.285   6.658  0.6084 -0.3558 -1.2453
  533MOL0     H70319   9.305   4.457   6.792  0.5090 -1.3894  0.4083
  533MOL0     H70320   8.937   4.979   6.936 -0.1572 -0.6195  0.0966
  533MOL0     H70321   8.970   5.199   7.051  2.0928  1.8320 -1.3684
  533MOL0     H70322   9.403   5.363   7.047  1.4015  0.4683  1.4244
  533MOL0     H70323   9.350   5.326   7.212 -1.0128  3.2580  1.4530
  533MOL0     H70324   9.225   5.545   7.193 -0.8949 -1.3945 -0.4467
  533MOL0     H70325   9.300   5.567   7.034 -1.2519 -0.2936 -0.7509
  533MOL0     H70326   9.503   5.595   7.081 -1.9384  1.8819  0.8146
  533MOL0     H70327   9.514   5.510   7.234 -0.8567 -1.5314 -0.1671
  533MOL0     H70328   9.378   5.780   7.198 -1.0344  1.1531  1.7524
  533MOL0     H70329   9.360   5.692   7.336 -0.5045  1.4993 -0.1784
  533MOL0     H70330   9.633   5.735   7.240 -0.4715  0.4358  0.0265
  533MOL0     H70331   9.582   5.685   7.404  2.4024  0.1800 -0.9821
  533MOL0     H70332   9.487   5.895   7.454 -0.8352  3.9831 -1.2206
  533MOL0     H70333   9.487   5.945   7.289 -0.4899  2.4573  2.0488
  533MOL0     H70334   9.755   5.905   7.312  1.6129 -0.5614  2.3823
  533MOL0     H70335   9.707   6.062   7.379 -1.3387  0.1042  2.6683
  533MOL0     H70336   9.759   5.793   7.483  0.8269  1.7690 -3.9347
  533MOL0     H70337   9.671   5.901   7.592  0.9525  1.6209  1.9513
  533MOL0     H70338   9.389   5.172   6.961 -0.0788  0.6948  2.3578
  533MOL0     H70339   9.375   4.963   6.892 -0.4649  3.8366 -2.5766
  533MOL0     H70340   9.003   4.743   6.648 -0.2848 -0.3039  0.3072
  533MOL0     H70341   8.941   4.561   6.465 -0.7192 -1.7666 -1.1016
  533MOL0     H70342   7.718   3.741   6.857 -2.9725  0.4259 -3.3446
  533MOL0     H70343   7.491   3.743   6.974  2.9417  2.1255  1.9375
  533MOL0     H70344   7.170   3.486   7.209 -1.4335 -2.5796  2.2459
  533MOL0     H70345   6.967   3.450   7.305 -1.6075 -1.1940  0.1060
  533MOL0     H70346   6.589   3.467   7.013  1.4689  2.4126  2.0009
  533MOL0     H70347   6.520   3.424   7.169  0.1304  0.4229  0.1343
  533MOL0     H70348   6.733   3.249   7.003 -0.2965 -6.5737  1.4757
  533MOL0     H70349   6.682   3.218   7.156  2.5887  1.4413 -0.0839
  533MOL0     H70350   6.444   3.167   7.048 -1.6627 -3.1984 -3.1163
  533MOL0     H70351   6.579   3.079   6.982 -1.3461 -0.5698 -1.2083
  533MOL0     H70352   6.451   3.301   6.849  0.5917  0.2860  1.7972
  533MOL0     H70353   6.617   3.274   6.808  0.4254  0.2355 -1.0351
  533MOL0     H70354   6.453   2.992   6.564 -4.9259  3.4984 -2.0582
  533MOL0     H70355   6.773   3.504   6.920  0.6127 -3.2758 -1.9618
  533MOL0     H70356   6.995   3.511   6.811 -2.0119 -2.4638 -0.5481
  534MOL0     O70357   8.279   1.712   8.935  0.2491  0.1855  0.5865
  534MOL0     C70358   8.323   1.809   9.002  0.4813  0.5155  0.9883
  534MOL0     O70359   8.426   1.808   9.084  1.0036  0.3370 -0.7938
  534MOL0     C70360   8.537   1.719   9.075  0.2026 -1.5655 -0.3306
  534MOL0     C70361   8.607   1.699   9.193  0.2903  0.1513 -0.0738
  534MOL0     C70362   8.720   1.607   9.198  0.8276  0.6431 -0.6817
  534MOL0     C70363   8.758   1.524   9.087 -0.3959 -0.0900  0.1841
  534MOL0     O70364   8.838   1.413   9.083 -0.6598  0.4474  1.0321
  534MOL0     C70365   8.917   1.392   9.201 -1.2114 -0.4729  0.6568
  534MOL0     C70366   8.977   1.251   9.196  0.5633  0.4004  0.0888
  534MOL0     C70367   8.879   1.137   9.191  0.8141  0.0656  0.3847
  534MOL0     C70368   8.946   0.997   9.171 -0.0019 -0.2353  0.3671
  534MOL0     C70369   8.852   0.897   9.113 -0.1563  0.5057  0.9064
  534MOL0     C70370   8.748   0.844   9.213  0.3366  0.0696  0.0119
  534MOL0     C70371   8.632   0.770   9.144  0.6813  0.6108  0.0402
  534MOL0     C70372   8.562   0.654   9.225  0.7863 -0.1555  0.3542
  534MOL0     N70373   8.508   0.695   9.359  1.1114  0.2330  0.7080
  534MOL0     C70374   8.397   0.773   9.376  0.0520 -0.4801  0.0099
  534MOL0     C70375   8.388   0.808   9.508  0.1281 -0.0748  0.3911
  534MOL0     C70376   8.300   0.906   9.570 -0.5304 -1.1189  0.8237
  534MOL0     C70377   8.153   0.868   9.541  0.0196 -0.0336 -0.1916
  534MOL0     C70378   8.065   0.971   9.607 -0.8623  0.0209 -0.9842
  534MOL0     C70379   7.917   0.935   9.587  1.6502  0.8013  0.5773
  534MOL0     O70380   7.838   1.044   9.631  0.4100 -0.2303 -0.0695
  534MOL0     C70381   7.772   1.116   9.528  0.0682  0.3170  0.4610
  534MOL0     C70382   7.810   1.252   9.495 -0.6395  0.4677 -0.0941
  534MOL0     C70383   7.734   1.332   9.409 -0.2169  0.5631 -1.1051
  534MOL0     C70384   7.616   1.281   9.357 -0.6024 -0.1311 -0.1238
  534MOL0     C70385   7.523   1.356   9.265  0.0079  0.2787  0.0982
  534MOL0     O70386   7.409   1.297   9.215 -1.2319  0.5944 -0.6047
  534MOL0     C70387   7.313   1.381   9.152  0.0864 -0.1138  0.0585
  534MOL0     C70388   7.336   1.440   9.027 -0.1417 -0.4075 -0.0634
  534MOL0     C70389   7.242   1.527   8.964 -0.2796 -0.0246 -0.0453
  534MOL0     C70390   7.131   1.568   9.035 -0.0588  0.9782 -0.1334
  534MOL0     O70391   7.055   1.669   8.985 -0.2098 -0.6197  0.7635
  534MOL0     C70392   6.919   1.676   9.032 -0.0951  0.4681 -0.0183
  534MOL0     C70393   6.826   1.762   8.941  0.8186  0.5427  0.1769
  534MOL0     C70394   6.834   1.734   8.796  0.9136 -0.6810 -0.7586
  534MOL0     C70395   6.795   1.593   8.759  0.5517  0.3432 -0.7056
  534MOL0     C70396   6.804   1.551   8.617 -0.3256  0.4831  0.7035
  534MOL0     C70397   6.730   1.629   8.520  0.3046 -0.7254  0.0351
  534MOL0     C70398   6.581   1.660   8.544 -0.1877 -0.0901 -0.2190
  534MOL0     C70399   6.526   1.780   8.467 -0.7352  0.6709 -0.1570
  534MOL0    Cl70400   6.507   1.740   8.292  0.4178 -0.1469 -0.5778
  534MOL0     C70401   7.125   1.521   9.164  0.1494 -0.5637 -0.6674
  534MOL0     C70402   7.200   1.413   9.219 -0.6426 -0.4778 -0.7321
  534MOL0     O70403   7.565   1.468   9.231  0.4914 -0.6073  0.0324
  534MOL0     C70404   7.586   1.144   9.379 -0.3522  1.2973  0.2040
  534MOL0     C70405   7.659   1.057   9.466 -0.3574 -0.5256 -0.8093
  534MOL0     N70406   8.496   0.743   9.565 -0.0221  0.5478 -0.2415
  534MOL0     N70407   8.563   0.679   9.483  0.2073 -0.3883  1.0546
  534MOL0     C70408   8.675   1.549   8.972 -0.4776 -0.2859 -1.3233
  534MOL0     C70409   8.571   1.643   8.969 -0.0908  0.4241  0.8462
  534MOL0     C70410   8.251   1.939   8.988  0.0181 -0.1107 -0.3322
  534MOL0     C70411   8.306   2.053   9.057  0.3017 -0.8407 -0.8003
  534MOL0     C70412   8.238   2.175   9.037  0.1897  0.1864 -0.4056
  534MOL0     C70413   8.140   2.201   8.943 -0.7994  0.1871  0.5452
  534MOL0     O70414   8.088   2.319   8.893 -0.2355 -0.2984 -0.2759
  534MOL0     C70415   8.086   2.431   8.985 -0.4306 -1.1875 -0.2932
  534MOL0     C70416   7.990   2.551   8.943  1.3002 -0.2023 -0.1153
  534MOL0     C70417   8.035   2.686   9.003  0.4147  0.2673 -0.2441
  534MOL0     C70418   7.961   2.810   8.948  0.9079  0.5770 -0.9645
  534MOL0     C70419   7.822   2.830   8.999 -0.6436  0.6517 -0.3455
  534MOL0     C70420   7.707   2.836   9.053  0.3900  0.0786  0.2788
  534MOL0     C70421   8.099   2.087   8.871 -0.1655  0.3863  0.4673
  534MOL0     C70422   8.145   1.953   8.888 -0.1661 -0.8586  0.3095
  534MOL0     H70423   8.595   1.747   9.290  3.0869  0.3652  0.2601
  534MOL0     H70424   8.767   1.605   9.296  0.7588  0.1661 -0.6568
  534MOL0     H70425   8.858   1.412   9.291 -1.2705  2.2214  0.0894
  534MOL0     H70426   8.995   1.469   9.193 -2.6244  1.1446  1.7512
  534MOL0     H70427   9.032   1.234   9.289 -1.0462 -0.2151  0.9757
  534MOL0     H70428   9.036   1.240   9.105 -3.2870 -2.9045 -2.3692
  534MOL0     H70429   8.815   1.144   9.103  1.7953 -2.8211 -0.6763
  534MOL0     H70430   8.821   1.132   9.284 -2.4655 -3.3140 -1.5897
  534MOL0     H70431   9.028   1.015   9.100 -1.4499  1.5037 -0.9449
  534MOL0     H70432   8.997   0.956   9.259 -1.9691 -0.8448  1.2714
  534MOL0     H70433   8.914   0.818   9.070  1.1257  1.3054  1.2127
  534MOL0     H70434   8.807   0.936   9.022  0.9719  1.4645  0.7380
  534MOL0     H70435   8.720   0.939   9.261 -2.2888 -1.3189  1.4343
  534MOL0     H70436   8.793   0.779   9.289 -0.5775  0.5530  1.0002
  534MOL0     H70437   8.561   0.844   9.105  0.6466  1.2089  1.2199
  534MOL0     H70438   8.673   0.719   9.056  0.0221 -0.3105  0.2510
  534MOL0     H70439   8.648   0.586   9.238  2.7907  1.9159 -1.2309
  534MOL0     H70440   8.483   0.598   9.175 -1.7714  2.0568  1.6882
  534MOL0     H70441   8.331   0.789   9.292  1.5280  0.7208 -0.9706
  534MOL0     H70442   8.324   1.006   9.533 -1.7697 -0.3039  2.1196
  534MOL0     H70443   8.324   0.904   9.677  0.9912 -0.0172  0.5367
  534MOL0     H70444   8.144   0.770   9.589  2.5668  1.1043  3.0037
  534MOL0     H70445   8.132   0.859   9.434 -1.4722  1.4249 -0.0547
  534MOL0     H70446   8.085   0.976   9.715  2.5997  0.6764 -1.5203
  534MOL0     H70447   8.092   1.070   9.568 -0.2823 -0.4203 -1.7355
  534MOL0     H70448   7.894   0.841   9.639  1.5161  1.1073  1.0824
  534MOL0     H70449   7.887   0.904   9.487 -2.9358  2.3502  1.2504
  534MOL0     H70450   7.902   1.293   9.537 -1.9346  2.2580  1.1632
  534MOL0     H70451   7.773   1.431   9.383  1.5827  0.1413 -0.1674
  534MOL0     H70452   7.428   1.424   8.971  0.6847 -0.0301  1.1446
  534MOL0     H70453   7.270   1.570   8.869 -2.6618 -1.4903 -1.5062
  534MOL0     H70454   6.914   1.713   9.135  2.2553  0.0072  0.3240
  534MOL0     H70455   6.877   1.575   9.028 -0.0016  0.3693  1.2295
  534MOL0     H70456   6.851   1.868   8.953  1.8778  0.5180 -1.5712
  534MOL0     H70457   6.726   1.755   8.986  1.0394  0.7581  0.7079
  534MOL0     H70458   6.938   1.751   8.766  2.0770 -1.1307  2.6360
  534MOL0     H70459   6.776   1.807   8.738 -1.6508 -1.4524  0.6743
  534MOL0     H70460   6.869   1.523   8.800 -0.5849 -0.4741  0.0212
  534MOL0     H70461   6.694   1.561   8.788 -0.6999  1.7262 -3.2254
  534MOL0     H70462   6.775   1.447   8.599 -0.7001  0.7846 -0.5212
  534MOL0     H70463   6.909   1.560   8.586 -0.6203 -2.1646 -1.3782
  534MOL0     H70464   6.745   1.584   8.421 -1.7893 -0.7585 -0.3245
  534MOL0     H70465   6.783   1.725   8.518  2.7305 -1.9971 -1.9577
  534MOL0     H70466   6.522   1.571   8.522  0.6429 -0.5688 -0.5209
  534MOL0     H70467   6.572   1.676   8.652  1.3649  1.4776 -0.2696
  534MOL0     H70468   6.579   1.876   8.467 -1.6043  1.2027 -2.2413
  534MOL0     H70469   6.434   1.816   8.515 -0.4636  1.4248 -0.1873
  534MOL0     H70470   7.055   1.565   9.235  2.4517 -0.5953  1.7452
  534MOL0     H70471   7.172   1.364   9.312 -0.1469  1.1873  0.3325
  534MOL0     H70472   7.494   1.100   9.342  2.2398 -1.3720 -3.7276
  534MOL0     H70473   7.608   0.964   9.490 -2.3017  1.0832  1.8671
  534MOL0     H70474   8.686   1.478   8.891  0.9922 -1.7847  0.0970
  534MOL0     H70475   8.524   1.637   8.872 -2.1020  2.3963  1.6023
  534MOL0     H70476   8.386   2.060   9.129 -0.1015  1.7842 -0.5401
  534MOL0     H70477   8.258   2.267   9.093  0.8695 -0.2572  0.0949
  534MOL0     H70478   8.188   2.469   8.996 -1.2152  0.9926 -0.0502
  534MOL0     H70479   8.056   2.392   9.083 -1.8931 -0.3056 -0.3647
  534MOL0     H70480   7.988   2.563   8.835 -0.5140  0.1579 -0.0600
  534MOL0     H70481   7.890   2.516   8.970  0.7718  1.4441  0.1448
  534MOL0     H70482   8.142   2.706   8.990  0.3182  2.6703  1.7206
  534MOL0     H70483   8.019   2.667   9.110  0.4810 -1.5743 -0.5403
  534MOL0     H70484   8.013   2.900   8.982 -0.3923  2.1302 -2.8839
  534MOL0     H70485   7.964   2.802   8.839 -0.2223  0.0586 -0.9688
  534MOL0     H70486   7.609   2.843   9.094 -0.8573 -2.3140 -1.9561
  534MOL0     H70487   8.026   2.099   8.791  0.9729  3.7493 -0.2341
  534MOL0     H70488   8.108   1.865   8.837  0.0682 -0.7593 -0.0344
  535MOL0     O70489   0.578   7.789   5.510  1.1395 -0.5603  0.1094
  535MOL0     C70490   0.537   7.901   5.548 -0.4551 -0.2679  0.5437
  535MOL0     O70491   0.613   8.012   5.544  0.2870  0.2030 -0.3703
  535MOL0     C70492   0.727   7.996   5.473 -0.0474 -0.0522  0.3313
  535MOL0     C70493   0.841   7.980   5.544 -0.0106  0.0786 -0.4711
  535MOL0     C70494   0.954   7.961   5.476  0.5011  0.3021  0.4682
  535MOL0     C70495   0.964   7.968   5.340 -0.9704  0.0827  0.8000
  535MOL0     O70496   1.093   7.956   5.285 -1.1081  0.1008 -0.2299
  535MOL0     C70497   1.096   7.882   5.160 -1.3487 -0.0344  0.1468
  535MOL0     C70498   1.195   7.764   5.172  0.0210 -0.4054  0.7768
  535MOL0     C70499   1.156   7.649   5.267  0.6337 -0.4898 -0.1718
  535MOL0     C70500   1.261   7.555   5.304  0.5377  0.3491  0.5372
  535MOL0     C70501   1.223   7.469   5.430  0.5755  0.5417  0.5198
  535MOL0     C70502   1.317   7.350   5.442 -0.7780  0.6571 -0.3036
  535MOL0     C70503   1.276   7.236   5.337 -0.1921  0.6430  0.1454
  535MOL0     C70504   1.348   7.098   5.353 -0.1056  0.0242 -1.1625
  535MOL0     N70505   1.492   7.121   5.313  0.4660  0.0881 -0.5339
  535MOL0     C70506   1.544   7.142   5.187 -0.2491 -0.1738  0.1680
  535MOL0     C70507   1.682   7.152   5.200 -0.1069  0.2617  0.3207
  535MOL0     C70508   1.782   7.168   5.094 -0.6650  0.7514  0.2945
  535MOL0     C70509   1.844   7.304   5.091 -0.6797  0.1601  0.8851
  535MOL0     C70510   1.978   7.300   5.021  0.1209  0.1418  0.0097
  535MOL0     C70511   2.028   7.437   4.992 -0.2225 -1.2444  0.5165
  535MOL0     O70512   2.145   7.424   4.905  0.3964  0.4675 -0.2037
  535MOL0     C70513   2.220   7.537   4.885 -0.1887 -0.8802  0.8785
  535MOL0     C70514   2.354   7.518   4.836 -0.0396  0.2675 -0.2833
  535MOL0     C70515   2.450   7.621   4.818 -0.2833 -0.9496  1.0666
  535MOL0     C70516   2.404   7.748   4.839 -0.9503  0.3792  0.1374
  535MOL0     C70517   2.488   7.861   4.810  0.9732 -0.1363  0.1783
  535MOL0     O70518   2.437   7.979   4.823  0.1715 -0.3653 -0.0062
  535MOL0     C70519   2.499   8.098   4.777 -0.0982  0.0840  0.1920
  535MOL0     C70520   2.428   8.195   4.698  0.5119  0.2526  0.0693
  535MOL0     C70521   2.480   8.321   4.662  0.4450  0.5225  1.0181
  535MOL0     C70522   2.608   8.353   4.693 -0.2878  0.5367 -0.4803
  535MOL0     O70523   2.667   8.462   4.641  0.1313 -0.0614 -0.0147
  535MOL0     C70524   2.752   8.446   4.521  0.2439 -0.0721  0.3459
  535MOL0     C70525   2.873   8.537   4.549  0.2349  0.6021 -0.2601
  535MOL0     C70526   2.970   8.536   4.439  0.2227  0.4995  0.4798
  535MOL0     C70527   3.088   8.642   4.472 -0.4595 -0.0006 -0.5607
  535MOL0     C70528   3.165   8.661   4.339  0.1569 -0.0028  0.2985
  535MOL0     C70529   3.290   8.735   4.374  0.3392 -0.3284  0.3234
  535MOL0     C70530   3.363   8.743   4.241  0.2524 -0.0795 -0.1073
  535MOL0     C70531   3.475   8.856   4.252  0.7145 -0.0135 -0.1178
  535MOL0    Cl70532   3.566   8.877   4.101  0.1082 -0.0683  0.0821
  535MOL0     C70533   2.681   8.256   4.770 -0.2489  0.4930  0.1836
  535MOL0     C70534   2.626   8.136   4.817 -0.2429 -0.0638 -0.6862
  535MOL0     O70535   2.589   7.835   4.753 -0.3277 -0.4631 -0.0989
  535MOL0     C70536   2.272   7.768   4.877 -0.4446 -1.2463  0.2280
  535MOL0     C70537   2.185   7.663   4.909  0.1217 -0.4364 -0.7849
  535MOL0     N70538   1.708   7.130   5.332 -0.2735 -0.6999  0.6164
  535MOL0     N70539   1.600   7.111   5.390  0.2153 -0.7158  0.1957
  535MOL0     C70540   0.853   8.008   5.274  0.6919  0.3294 -0.0910
  535MOL0     C70541   0.732   8.016   5.334  0.2206 -0.4605 -0.3209
  535MOL0     C70542   0.401   7.916   5.610 -0.3766 -0.3676 -0.3886
  535MOL0     C70543   0.352   8.047   5.620  0.4830 -0.8890  0.2123
  535MOL0     C70544   0.216   8.058   5.669 -0.9032 -0.2686  0.3415
  535MOL0     C70545   0.130   7.947   5.697  0.4261 -0.0972  0.2749
  535MOL0     O70546  -0.002   7.950   5.716 -0.3858  0.9965 -0.6218
  535MOL0     C70547  -0.055   7.859   5.812 -0.0136  0.1599  0.6070
  535MOL0     C70548  -0.178   7.912   5.875 -0.0493  0.3252  0.1535
  535MOL0     C70549  -0.228   7.820   5.984  0.1289 -0.1197 -0.7520
  535MOL0     C70550  -0.362   7.877   6.049 -0.7178  0.2985  0.8325
  535MOL0     C70551  -0.359   7.841   6.195  0.1820 -0.4163 -0.0623
  535MOL0     C70552  -0.378   7.828   6.321 -0.7423  0.5701  0.4636
  535MOL0     C70553   0.183   7.818   5.672 -0.3943 -0.4265 -0.1777
  535MOL0     C70554   0.312   7.802   5.635  0.7198 -0.5311  0.4544
  535MOL0     H70555   0.846   7.961   5.651  0.3078  1.1989 -0.2806
  535MOL0     H70556   1.051   7.958   5.525  1.2260  1.9932 -0.7386
  535MOL0     H70557   1.132   7.952   5.084 -3.8212  2.3177  0.9909
  535MOL0     H70558   0.998   7.844   5.127 -2.8608  0.8379  3.2517
  535MOL0     H70559   1.291   7.810   5.196  0.7964 -0.4250 -1.9661
  535MOL0     H70560   1.207   7.726   5.070  1.9459  0.1072  0.7813
  535MOL0     H70561   1.082   7.591   5.211 -0.2621  0.0426  0.4411
  535MOL0     H70562   1.117   7.705   5.352 -0.4273  1.0125 -1.5642
  535MOL0     H70563   1.286   7.491   5.219 -0.8725 -0.2995  0.5696
  535MOL0     H70564   1.351   7.614   5.318  0.8486 -0.1347  0.6035
  535MOL0     H70565   1.116   7.445   5.434  0.2472  1.3091 -2.0036
  535MOL0     H70566   1.239   7.532   5.518  0.3105  1.1194  0.1619
  535MOL0     H70567   1.313   7.304   5.541  0.4087 -0.4817 -0.7455
  535MOL0     H70568   1.419   7.381   5.415 -0.4888  0.1567  0.1926
  535MOL0     H70569   1.169   7.225   5.316 -0.2277  0.0689  0.5873
  535MOL0     H70570   1.310   7.266   5.238 -0.8424 -0.2675 -0.3768
  535MOL0     H70571   1.307   7.022   5.285  0.0288 -0.8338 -0.2989
  535MOL0     H70572   1.332   7.069   5.457 -0.7143 -3.0217 -1.9985
  535MOL0     H70573   1.496   7.154   5.091  2.5603  2.2470 -1.0683
  535MOL0     H70574   1.730   7.151   4.999 -1.7265 -3.0866  1.3698
  535MOL0     H70575   1.865   7.098   5.105  2.0268  3.2876 -1.9854
  535MOL0     H70576   1.864   7.336   5.193  2.3526 -0.4908  0.5960
  535MOL0     H70577   1.771   7.372   5.045  0.4056 -0.1893 -1.5490
  535MOL0     H70578   2.053   7.244   5.077 -0.5112  0.3464  1.1008
  535MOL0     H70579   1.958   7.244   4.930  0.5605  1.3729 -0.8710
  535MOL0     H70580   2.063   7.481   5.086  3.9588  0.8084 -1.7153
  535MOL0     H70581   1.953   7.507   4.955  0.4142 -1.2589 -0.8350
  535MOL0     H70582   2.387   7.417   4.811  3.3380  1.1733 -0.0521
  535MOL0     H70583   2.548   7.589   4.783 -0.5333  0.7168 -1.4488
  535MOL0     H70584   2.329   8.168   4.664  0.9447  1.7730 -2.6733
  535MOL0     H70585   2.411   8.387   4.612 -0.0859 -0.9423 -0.2632
  535MOL0     H70586   2.694   8.476   4.433  2.6241 -0.6159 -1.5198
  535MOL0     H70587   2.780   8.341   4.509 -0.6533 -0.6361  2.5703
  535MOL0     H70588   2.921   8.509   4.643  3.3192  3.7101 -0.7282
  535MOL0     H70589   2.832   8.636   4.571 -2.4534 -1.1596  3.8284
  535MOL0     H70590   2.912   8.558   4.349  0.5361  1.2657  0.4559
  535MOL0     H70591   3.014   8.437   4.423 -0.6347  0.4999 -2.3288
  535MOL0     H70592   3.052   8.740   4.505  0.9843  0.8147 -1.3021
  535MOL0     H70593   3.146   8.604   4.556  1.0649  0.1324 -1.5236
  535MOL0     H70594   3.095   8.706   4.269 -1.3800 -2.9660 -0.2472
  535MOL0     H70595   3.184   8.568   4.285 -0.3810  1.3399 -2.3547
  535MOL0     H70596   3.352   8.697   4.455  3.1150  0.3610 -1.3392
  535MOL0     H70597   3.257   8.836   4.400 -0.7679 -0.8432  0.9954
  535MOL0     H70598   3.410   8.645   4.233 -0.8412 -1.0831  3.5961
  535MOL0     H70599   3.304   8.761   4.150  1.1861  1.6571 -0.4105
  535MOL0     H70600   3.543   8.831   4.334 -0.0799  0.1093  0.5915
  535MOL0     H70601   3.426   8.953   4.269  0.8068  0.4914 -2.4349
  535MOL0     H70602   2.785   8.283   4.786  0.8003 -3.3459  0.8780
  535MOL0     H70603   2.679   8.053   4.863 -2.3175 -0.5968  0.8637
  535MOL0     H70604   2.227   7.865   4.897  0.3760 -0.5470 -1.1243
  535MOL0     H70605   2.088   7.700   4.944  0.9653  3.7315 -2.3125
  535MOL0     H70606   0.846   8.023   5.167 -2.3935  2.1637  0.2191
  535MOL0     H70607   0.635   8.042   5.295 -0.1147  0.3933  0.9905
  535MOL0     H70608   0.406   8.139   5.599 -0.1096  0.0534  2.5718
  535MOL0     H70609   0.181   8.158   5.689 -2.7690 -0.5684 -1.0549
  535MOL0     H70610   0.017   7.842   5.893 -0.4407  0.4279  1.0498
  535MOL0     H70611  -0.071   7.757   5.778  2.9905 -0.4595  0.7860
  535MOL0     H70612  -0.172   8.016   5.910 -3.0937  0.3292  0.9245
  535MOL0     H70613  -0.254   7.906   5.797  0.4169 -4.0181 -0.1898
  535MOL0     H70614  -0.157   7.791   6.062 -1.2010 -2.7366 -0.4276
  535MOL0     H70615  -0.248   7.720   5.947 -0.7971  0.3230 -1.4858
  535MOL0     H70616  -0.375   7.986   6.043 -0.8199  0.2271 -1.3814
  535MOL0     H70617  -0.450   7.836   5.998 -1.6343  1.2755  1.5707
  535MOL0     H70618  -0.399   7.804   6.424  2.9875 -3.9791  0.4786
  535MOL0     H70619   0.124   7.727   5.671 -0.7845 -0.2090  0.9654
  535MOL0     H70620   0.350   7.701   5.620 -0.2849 -0.7922 -0.4096
  536MOL0     O70621   9.213   3.864  11.333 -0.7015  0.4858 -0.5699
  536MOL0     C70622   9.159   3.756  11.363  0.0862  0.3181  0.1011
  536MOL0     O70623   9.116   3.716  11.488  0.0747 -0.5769 -0.7767
  536MOL0     C70624   9.109   3.801  11.592  0.6637 -1.1635  1.3403
  536MOL0     C70625   9.091   3.945  11.583  0.0505 -0.3152 -0.4651
  536MOL0     C70626   9.065   4.032  11.697 -1.1059  0.7349  0.4326
  536MOL0     C70627   9.080   3.979  11.822  0.2304  0.2338 -0.2963
  536MOL0     O70628   9.048   4.071  11.921  0.0199  0.5513 -0.2658
  536MOL0     C70629   9.066   4.021  12.057  0.8540  0.3147 -0.7119
  536MOL0     C70630   9.018   4.135  12.139  0.8104  0.3149 -0.1062
  536MOL0     C70631   8.860   4.146  12.150 -0.0680 -1.3615 -0.4325
  536MOL0     C70632   8.818   4.275  12.232  0.1956  0.7215  0.1200
  536MOL0     C70633   8.671   4.252  12.284 -0.0403  0.3093 -0.8844
  536MOL0     C70634   8.655   4.331  12.421  0.1976 -0.0948 -0.0921
  536MOL0     C70635   8.522   4.405  12.446 -0.1157  0.3851 -0.1160
  536MOL0     C70636   8.526   4.493  12.572 -0.3611  0.2956  0.7064
  536MOL0     N70637   8.402   4.571  12.588  0.0201  0.0676  0.0980
  536MOL0     C70638   8.373   4.643  12.697 -1.1591 -0.2976 -0.3301
  536MOL0     C70639   8.267   4.715  12.663  0.2545 -0.7168  0.0821
  536MOL0     C70640   8.186   4.792  12.767  0.5540  0.6110  0.8803
  536MOL0     C70641   8.241   4.928  12.813 -1.0078 -0.8328 -0.8090
  536MOL0     C70642   8.152   5.001  12.919  0.2264  0.1067 -0.0834
  536MOL0     C70643   8.028   5.053  12.848  0.5117 -0.1430  0.5089
  536MOL0     O70644   7.960   5.112  12.962  0.0177 -0.2878 -0.0145
  536MOL0     C70645   7.969   5.247  12.981  0.2990  0.7236 -0.1789
  536MOL0     C70646   8.055   5.297  13.087  0.0742 -0.3245 -0.4676
  536MOL0     C70647   8.072   5.431  13.112 -0.3442 -0.8088 -0.1116
  536MOL0     C70648   7.998   5.527  13.035  0.1334  0.7777 -0.4797
  536MOL0     C70649   8.015   5.671  13.063  0.2488 -0.0577  0.2462
  536MOL0     O70650   7.903   5.749  13.042 -0.0667  0.7220  1.1422
  536MOL0     C70651   7.913   5.883  13.030 -0.2165  0.2156  0.1181
  536MOL0     C70652   7.955   5.942  12.910 -0.5212  0.3313  1.4434
  536MOL0     C70653   7.953   6.085  12.887 -0.4123  0.1439 -0.3675
  536MOL0     C70654   7.920   6.166  12.990 -0.1429  0.0733 -0.8289
  536MOL0     O70655   7.938   6.300  12.964 -0.5504  0.0449  0.6005
  536MOL0     C70656   7.927   6.390  13.076  0.0245 -0.6743 -0.5314
  536MOL0     C70657   8.058   6.384  13.155 -0.0599  0.7153  0.5123
  536MOL0     C70658   8.030   6.430  13.289  0.1898 -0.9620 -0.3453
  536MOL0     C70659   8.139   6.433  13.395 -0.2013 -0.3358  0.4656
  536MOL0     C70660   8.099   6.546  13.496 -0.1233 -0.5128 -1.1386
  536MOL0     C70661   8.181   6.540  13.627  1.2964 -0.3586 -0.2637
  536MOL0     C70662   8.133   6.649  13.727 -0.2205 -0.1294 -0.7809
  536MOL0     C70663   8.214   6.665  13.856 -0.9281  0.5718 -0.8010
  536MOL0    Cl70664   8.193   6.521  13.967  0.2314  0.4458  0.0891
  536MOL0     C70665   7.878   6.108  13.113 -0.1383 -0.2122 -0.5595
  536MOL0     C70666   7.877   5.967  13.128  0.6786 -0.0877  0.2079
  536MOL0     O70667   8.118   5.711  13.106 -0.0167  0.3365 -0.5676
  536MOL0     C70668   7.924   5.478  12.931  0.0335  0.0749 -0.2621
  536MOL0     C70669   7.911   5.348  12.903 -0.0515 -0.6519  0.4536
  536MOL0     N70670   8.240   4.702  12.529 -0.0482 -0.0861  1.0742
  536MOL0     N70671   8.319   4.610  12.485 -0.4358 -0.4384  0.7553
  536MOL0     C70672   9.119   3.836  11.829 -0.0364  0.0548  0.2699
  536MOL0     C70673   9.131   3.748  11.717 -0.0157 -0.6784 -0.8968
  536MOL0     C70674   9.117   3.665  11.249 -0.1649  0.3669  0.5650
  536MOL0     C70675   9.137   3.697  11.117  0.6954 -0.5279 -0.2087
  536MOL0     C70676   9.106   3.597  11.014 -0.3698 -0.9508  0.0845
  536MOL0     C70677   9.056   3.467  11.044  0.9808  0.4976 -0.0592
  536MOL0     O70678   9.020   3.365  10.950 -0.5424 -0.5070 -0.5178
  536MOL0     C70679   9.081   3.387  10.826 -0.3920  0.7566 -0.5718
  536MOL0     C70680   9.025   3.269  10.735 -0.1455 -0.1097  0.3421
  536MOL0     C70681   9.104   3.139  10.765 -0.9553 -0.5596 -0.5221
  536MOL0     C70682   9.123   3.091  10.911 -0.2960 -0.3376  0.1208
  536MOL0     C70683   9.221   2.986  10.927 -0.8372  0.4100  0.0653
  536MOL0     C70684   9.306   2.902  10.935  1.0278 -0.2203 -0.1057
  536MOL0     C70685   9.049   3.436  11.178 -0.1099  0.5294 -0.8679
  536MOL0     C70686   9.078   3.532  11.280  0.8697  0.7410  0.3768
  536MOL0     H70687   9.092   4.003  11.491  1.2498 -0.0490 -0.2966
  536MOL0     H70688   9.035   4.136  11.685  0.0600  0.8911 -1.4894
  536MOL0     H70689   9.164   3.990  12.094 -0.3532  1.0924  3.7017
  536MOL0     H70690   8.996   3.937  12.064  2.0258 -0.6464 -0.0382
  536MOL0     H70691   9.059   4.230  12.104 -1.1098  1.0058 -0.5976
  536MOL0     H70692   9.055   4.108  12.238  0.7329 -0.8278 -0.3733
  536MOL0     H70693   8.810   4.067  12.207 -1.3774  1.2859  2.4112
  536MOL0     H70694   8.811   4.159  12.053 -2.8456  0.3986  1.0582
  536MOL0     H70695   8.886   4.291  12.316 -2.2512  0.8963  2.1749
  536MOL0     H70696   8.824   4.363  12.168 -0.9731  0.0873 -0.9042
  536MOL0     H70697   8.636   4.151  12.303  0.0607  0.8567  3.1095
  536MOL0     H70698   8.613   4.285  12.198 -0.7491 -1.7550 -1.2494
  536MOL0     H70699   8.744   4.394  12.420  0.9169 -1.0885 -0.7212
  536MOL0     H70700   8.670   4.270  12.510  1.4958 -1.9958 -1.5299
  536MOL0     H70701   8.503   4.473  12.362 -1.8128 -0.7618 -0.7085
  536MOL0     H70702   8.447   4.326  12.449  2.3524 -2.1006  1.0595
  536MOL0     H70703   8.612   4.559  12.561 -0.6821  0.7652  0.9994
  536MOL0     H70704   8.533   4.431  12.661  2.5802 -1.2314 -0.4561
  536MOL0     H70705   8.438   4.638  12.783  0.5538  0.9289 -1.4729
  536MOL0     H70706   8.157   4.737  12.856  0.5837  0.2807  0.6907
  536MOL0     H70707   8.088   4.807  12.721  0.3549  1.0894  1.4574
  536MOL0     H70708   8.274   5.003  12.740  2.4129  1.3519  2.6117
  536MOL0     H70709   8.333   4.884  12.851  0.6758  3.1714  0.2906
  536MOL0     H70710   8.128   4.932  13.000 -1.9713 -2.4359 -2.7102
  536MOL0     H70711   8.217   5.087  12.940  2.2404  0.0255 -4.7170
  536MOL0     H70712   7.969   4.976  12.798 -1.0871  1.4780 -0.1722
  536MOL0     H70713   8.048   5.130  12.773 -1.2993 -0.6584 -0.5451
  536MOL0     H70714   8.119   5.232  13.146  1.9939  2.3103  0.5311
  536MOL0     H70715   8.143   5.462  13.187  1.5793 -1.9250 -1.3981
  536MOL0     H70716   7.977   5.885  12.820 -3.2984  1.2418  0.0529
  536MOL0     H70717   7.978   6.123  12.788 -2.4809 -1.1156 -1.4342
  536MOL0     H70718   7.840   6.379  13.141 -0.5454  1.4460 -0.8568
  536MOL0     H70719   7.914   6.495  13.047 -2.9048 -1.4463 -2.4039
  536MOL0     H70720   8.139   6.441  13.108 -1.8748  2.4016 -0.7399
  536MOL0     H70721   8.095   6.281  13.157  3.6110  1.8417 -0.9702
  536MOL0     H70722   7.942   6.378  13.329 -3.6494  4.4143 -0.7484
  536MOL0     H70723   7.982   6.527  13.276  0.0265 -0.4736  2.9822
  536MOL0     H70724   8.142   6.337  13.445  1.0001 -0.5207  0.0631
  536MOL0     H70725   8.232   6.453  13.341 -1.0113 -0.5426 -1.0748
  536MOL0     H70726   7.990   6.548  13.509  0.0351  1.8363  0.4592
  536MOL0     H70727   8.120   6.646  13.458  0.9318 -0.5213 -0.6214
  536MOL0     H70728   8.281   6.574  13.600  0.2888  4.2393  0.9103
  536MOL0     H70729   8.169   6.446  13.682  1.9822  1.4267  3.2322
  536MOL0     H70730   8.136   6.746  13.675  0.2156 -0.1224 -0.7476
  536MOL0     H70731   8.029   6.643  13.760 -0.2940  0.8757 -0.7817
  536MOL0     H70732   8.189   6.755  13.913 -0.0962  1.5948 -2.0131
  536MOL0     H70733   8.320   6.675  13.832 -0.2224 -1.4979  1.0679
  536MOL0     H70734   7.867   6.163  13.206  0.1089 -1.2382  0.0954
  536MOL0     H70735   7.857   5.922  13.225  1.0268 -2.2773 -0.6816
  536MOL0     H70736   7.882   5.546  12.859 -1.0364 -1.1880 -0.8778
  536MOL0     H70737   7.866   5.324  12.807  1.5783 -0.2453 -0.4468
  536MOL0     H70738   9.134   3.796  11.929  0.8957 -0.0820  0.0822
  536MOL0     H70739   9.143   3.640  11.720  1.2814 -0.5288  0.4480
  536MOL0     H70740   9.169   3.797  11.090 -3.9810  0.8425 -1.6419
  536MOL0     H70741   9.129   3.617  10.910 -1.2405 -0.0177  0.0538
  536MOL0     H70742   9.189   3.387  10.838 -0.4333  3.8594  0.9769
  536MOL0     H70743   9.052   3.482  10.779  3.2324  2.9927  1.2123
  536MOL0     H70744   8.918   3.256  10.750 -0.0042 -1.7441  0.2110
  536MOL0     H70745   9.030   3.285  10.627 -1.7216 -0.3347  0.2184
  536MOL0     H70746   9.208   3.150  10.732 -0.7748 -1.8318 -0.4284
  536MOL0     H70747   9.068   3.055  10.705  1.2442 -0.6981 -1.7190
  536MOL0     H70748   9.144   3.176  10.977  1.7463  0.1990 -1.1553
  536MOL0     H70749   9.029   3.046  10.944  0.2970 -0.3041  1.9741
  536MOL0     H70750   9.378   2.823  10.943  3.7333  2.1401  0.4586
  536MOL0     H70751   9.035   3.334  11.211  0.0472  1.0923  1.0675
  536MOL0     H70752   9.061   3.503  11.383 -0.6771 -2.1244 -0.5963
  537MOL0     O70753  10.276   7.167   2.784 -0.8044  0.9913 -0.0600
  537MOL0     C70754  10.275   7.093   2.886  0.1554 -0.3914  0.1890
  537MOL0     O70755  10.378   7.017   2.931 -0.6059 -0.2501 -0.4680
  537MOL0     C70756  10.495   7.002   2.857 -0.2656 -0.7612 -0.9222
  537MOL0     C70757  10.610   7.052   2.919 -0.0240 -0.2090 -0.1613
  537MOL0     C70758  10.735   7.057   2.858  0.7731 -0.1662 -0.7958
  537MOL0     C70759  10.744   7.023   2.723  0.3827  0.6095 -0.0494
  537MOL0     O70760  10.867   7.031   2.657 -0.2621 -0.1481  0.3980
  537MOL0     C70761  10.881   7.129   2.553 -1.1600  0.6153 -0.4266
  537MOL0     C70762  10.994   7.095   2.453 -0.2069  0.5121  1.0559
  537MOL0     C70763  11.007   7.204   2.340  0.0909  0.1237  0.0090
  537MOL0     C70764  11.083   7.157   2.217 -0.4704 -0.7447  0.1977
  537MOL0     C70765  11.185   7.273   2.179  0.9146  0.3353  0.0615
  537MOL0     C70766  11.116   7.396   2.131  1.0864  0.8693  0.0921
  537MOL0     C70767  11.042   7.385   2.003 -0.0906  0.3521 -0.9013
  537MOL0     C70768  11.131   7.335   1.897  0.6721  0.0862 -0.5849
  537MOL0     N70769  11.052   7.318   1.780 -0.1115  0.0669  0.0156
  537MOL0     C70770  11.042   7.410   1.677 -0.1585 -0.0067  1.6359
  537MOL0     C70771  10.955   7.358   1.584  0.7428  0.4662 -0.1400
  537MOL0     C70772  10.913   7.416   1.459  0.1417  0.1077  0.3203
  537MOL0     C70773  10.786   7.502   1.465 -0.1549 -0.1064 -0.2420
  537MOL0     C70774  10.735   7.549   1.328  0.4728 -0.3282 -0.8971
  537MOL0     C70775  10.597   7.595   1.346  0.8124 -0.1360  0.0650
  537MOL0     O70776  10.542   7.636   1.215 -0.7963  0.0610  0.1154
  537MOL0     C70777  10.543   7.766   1.182  1.1394  0.2123 -0.9344
  537MOL0     C70778  10.615   7.810   1.074 -0.7771 -0.1569  0.9330
  537MOL0     C70779  10.637   7.946   1.045 -0.5365  0.1200  0.2548
  537MOL0     C70780  10.568   8.040   1.117 -0.6515 -0.1370 -0.9164
  537MOL0     C70781  10.574   8.186   1.080 -1.3235 -0.8564 -0.4127
  537MOL0     O70782  10.657   8.220   0.968  0.6090 -0.6378  0.0554
  537MOL0     C70783  10.662   8.339   0.896  0.3887  0.0481 -1.3722
  537MOL0     C70784  10.580   8.452   0.910  1.2001 -0.1941 -0.1997
  537MOL0     C70785  10.580   8.553   0.816 -0.3015  0.2517  0.2864
  537MOL0     C70786  10.684   8.554   0.725  0.0709 -0.1810  0.2364
  537MOL0     O70787  10.715   8.667   0.644 -0.1279  0.1608  0.3959
  537MOL0     C70788  10.613   8.761   0.610  0.7488 -0.2295 -0.5379
  537MOL0     C70789  10.655   8.827   0.481  0.8959  1.1967 -0.5659
  537MOL0     C70790  10.780   8.922   0.497 -0.6968  0.5001  0.5576
  537MOL0     C70791  10.777   9.041   0.597  0.2487  0.2820 -0.1278
  537MOL0     C70792  10.919   9.073   0.631 -0.1702 -0.4694 -0.4196
  537MOL0     C70793  10.928   9.171   0.752  0.0169  0.5801  0.9464
  537MOL0     C70794  11.071   9.229   0.789 -0.5840 -0.6290 -0.3465
  537MOL0     C70795  11.121   9.337   0.694 -0.5869  0.4318 -0.2292
  537MOL0    Cl70796  11.217   9.289   0.552 -0.0955 -0.0903  0.1770
  537MOL0     C70797  10.779   8.455   0.725  0.8461  0.1588  0.7831
  537MOL0     C70798  10.751   8.336   0.789  0.3249 -0.8308 -1.0008
  537MOL0     O70799  10.526   8.268   1.158  0.1108 -0.3944  0.9446
  537MOL0     C70800  10.484   7.995   1.220  0.4469 -0.2402 -0.3916
  537MOL0     C70801  10.461   7.856   1.249 -1.1296 -0.5419  0.0487
  537MOL0     N70802  10.915   7.239   1.632  0.6333  0.7808 -0.3295
  537MOL0     N70803  10.963   7.215   1.758  0.0911  0.5177  0.7090
  537MOL0     C70804  10.632   6.959   2.661  0.2557 -0.7475  0.2442
  537MOL0     C70805  10.514   6.939   2.730  0.3583  0.1633 -0.8744
  537MOL0     C70806  10.151   7.097   2.967  0.2681  0.0813  0.0946
  537MOL0     C70807  10.036   7.140   2.914 -0.4045  0.5929 -0.5175
  537MOL0     C70808   9.923   7.158   2.993 -0.8909 -0.8383 -0.5583
  537MOL0     C70809   9.931   7.143   3.135 -0.3073 -0.2754 -0.5429
  537MOL0     O70810   9.802   7.157   3.200 -0.4789  0.1378 -0.4369
  537MOL0     C70811   9.800   7.136   3.341 -0.1572 -0.7485  0.8785
  537MOL0     C70812   9.861   7.256   3.411  0.4929 -0.2710 -0.6696
  537MOL0     C70813   9.762   7.380   3.414 -0.4614  0.0631  0.3225
  537MOL0     C70814   9.703   7.449   3.278 -0.2041  0.6234 -0.4525
  537MOL0     C70815   9.804   7.476   3.172 -0.0945 -0.8765  0.2512
  537MOL0     C70816   9.886   7.500   3.084 -0.1883  0.1341  0.2996
  537MOL0     C70817  10.052   7.089   3.192  0.2049 -0.4567  0.3163
  537MOL0     C70818  10.155   7.064   3.106  1.1293 -0.8638 -0.4744
  537MOL0     H70819  10.612   7.086   3.022 -1.5083  0.6646 -0.3905
  537MOL0     H70820  10.821   7.114   2.893  1.2070  0.0222 -2.1241
  537MOL0     H70821  10.919   7.218   2.605  0.3262 -1.2170  1.8022
  537MOL0     H70822  10.788   7.146   2.498 -1.7222 -0.7948  0.0566
  537MOL0     H70823  10.971   7.001   2.401  0.9514  0.9010 -0.2070
  537MOL0     H70824  11.090   7.076   2.503 -1.2596  1.8072  3.7136
  537MOL0     H70825  11.055   7.292   2.384  0.1189 -0.5906  1.4667
  537MOL0     H70826  10.908   7.229   2.301 -0.0007 -1.4066 -0.8247
  537MOL0     H70827  11.138   7.064   2.238 -1.3045 -1.6625 -1.4811
  537MOL0     H70828  11.018   7.135   2.132 -2.6053  1.0407  1.2743
  537MOL0     H70829  11.258   7.238   2.106  0.2372 -0.0461 -0.4429
  537MOL0     H70830  11.237   7.316   2.265  2.4335  2.2591 -1.6958
  537MOL0     H70831  11.196   7.470   2.125  2.5258 -0.6477 -0.2554
  537MOL0     H70832  11.057   7.451   2.205  4.0704  2.9622  1.0829
  537MOL0     H70833  10.949   7.328   2.002 -0.2342  0.4972  0.9640
  537MOL0     H70834  11.024   7.492   1.990 -1.8244  1.3117  5.7799
  537MOL0     H70835  11.171   7.237   1.924  0.1086 -1.5093 -4.7782
  537MOL0     H70836  11.211   7.408   1.881 -1.3127  2.4646 -0.2347
  537MOL0     H70837  11.095   7.504   1.664 -0.0736 -0.1348  0.9987
  537MOL0     H70838  10.899   7.331   1.392  0.3473  0.4414 -0.1511
  537MOL0     H70839  10.994   7.480   1.423  0.0643  0.8567  1.4187
  537MOL0     H70840  10.819   7.590   1.522  1.5015 -0.8897  0.0717
  537MOL0     H70841  10.705   7.447   1.513 -0.3930 -1.6942 -2.3359
  537MOL0     H70842  10.800   7.635   1.307 -1.8572  1.4976 -1.0097
  537MOL0     H70843  10.730   7.467   1.255  2.1782 -3.3735  2.1396
  537MOL0     H70844  10.588   7.677   1.418 -2.7163  0.1331 -0.4816
  537MOL0     H70845  10.526   7.520   1.383 -2.3156  3.1110  1.1789
  537MOL0     H70846  10.666   7.743   1.005  1.3727  2.0240  0.2602
  537MOL0     H70847  10.702   7.966   0.960 -0.1546  0.9489  0.7263
  537MOL0     H70848  10.509   8.453   0.993  2.4830  1.1890  0.9524
  537MOL0     H70849  10.508   8.632   0.832 -1.9456 -1.0543 -0.3302
  537MOL0     H70850  10.585   8.824   0.695 -3.7343 -2.4736 -0.0370
  537MOL0     H70851  10.524   8.709   0.574  2.9204 -4.7114 -0.1394
  537MOL0     H70852  10.575   8.894   0.447 -1.1101 -1.1878 -0.8543
  537MOL0     H70853  10.661   8.750   0.404 -1.9176 -1.3623  1.5389
  537MOL0     H70854  10.793   8.960   0.395 -1.7610 -1.4759 -0.3897
  537MOL0     H70855  10.865   8.858   0.525  2.2015  3.6869 -0.3043
  537MOL0     H70856  10.719   9.126   0.559  2.5959  2.0644  0.0965
  537MOL0     H70857  10.726   9.001   0.686  1.5078  0.5609  0.7476
  537MOL0     H70858  10.958   9.117   0.539 -3.7077  1.9350 -0.9610
  537MOL0     H70859  10.969   8.984   0.673 -1.1887  0.4224  2.9792
  537MOL0     H70860  10.891   9.129   0.846  0.0814  1.5164  1.4047
  537MOL0     H70861  10.860   9.253   0.728  0.7734  0.5195 -1.7925
  537MOL0     H70862  11.061   9.273   0.889 -0.5805 -0.0766 -0.5851
  537MOL0     H70863  11.150   9.154   0.792  0.8292  0.8059 -0.1582
  537MOL0     H70864  11.192   9.391   0.757 -0.9854 -1.6733  2.1629
  537MOL0     H70865  11.040   9.408   0.676 -1.4971 -0.5553 -0.1503
  537MOL0     H70866  10.868   8.463   0.665 -0.4772  1.0569 -1.1677
  537MOL0     H70867  10.807   8.245   0.773 -0.6522 -1.5457 -0.4459
  537MOL0     H70868  10.427   8.070   1.274  0.6714  0.0040 -0.4882
  537MOL0     H70869  10.389   7.820   1.321  2.9852 -2.9428  3.4184
  537MOL0     H70870  10.645   6.909   2.566 -0.2260  0.5870 -0.5451
  537MOL0     H70871  10.437   6.882   2.680  0.0291 -1.4188  1.2981
  537MOL0     H70872  10.045   7.165   2.809  6.6926 -1.5461 -0.9150
  537MOL0     H70873   9.827   7.174   2.943 -0.1837 -1.3632 -2.1607
  537MOL0     H70874   9.844   7.041   3.372  2.2005  0.3631  1.1470
  537MOL0     H70875   9.699   7.120   3.379 -0.7457 -1.2252 -0.7826
  537MOL0     H70876   9.888   7.219   3.510 -1.2731 -1.0210 -0.4271
  537MOL0     H70877   9.957   7.283   3.366  0.2345 -0.1874 -1.1796
  537MOL0     H70878   9.818   7.460   3.463  0.6506 -0.0979 -0.6359
  537MOL0     H70879   9.687   7.354   3.489 -0.1827  0.6298  0.8103
  537MOL0     H70880   9.620   7.389   3.239 -2.2324  2.4404  0.8551
  537MOL0     H70881   9.661   7.545   3.309 -3.0200 -0.7273  0.2610
  537MOL0     H70882   9.963   7.528   3.014  0.8084 -1.2570  0.8079
  537MOL0     H70883  10.060   7.070   3.299  2.2639  0.0260  0.2863
  537MOL0     H70884  10.247   7.024   3.149  1.5395  0.5257  0.0055
  538MOL0     O70885   6.717   8.913   5.834  1.0423 -0.3220 -0.2037
  538MOL0     C70886   6.823   8.964   5.801  0.1809 -0.0147  0.9452
  538MOL0     O70887   6.857   8.995   5.673 -0.0701 -0.4559 -0.2080
  538MOL0     C70888   6.793   8.959   5.556 -0.2160  1.0052 -0.2400
  538MOL0     C70889   6.827   9.030   5.438  0.4157 -0.7353 -0.2085
  538MOL0     C70890   6.779   8.999   5.313  0.4066 -0.0755 -0.2778
  538MOL0     C70891   6.689   8.890   5.292  0.7281 -0.2901 -0.3354
  538MOL0     O70892   6.639   8.858   5.167  0.6639  0.0572 -0.6842
  538MOL0     C70893   6.529   8.764   5.146  0.2661  0.0766 -0.1655
  538MOL0     C70894   6.570   8.622   5.144 -0.2839  0.5186  0.5724
  538MOL0     C70895   6.618   8.551   5.006  0.4650 -0.2221 -0.6484
  538MOL0     C70896   6.706   8.433   5.046 -0.2530  0.0711  0.4242
  538MOL0     C70897   6.729   8.334   4.928 -0.4651 -1.1949  0.4798
  538MOL0     C70898   6.773   8.404   4.798  0.0278 -0.1335  0.6941
  538MOL0     C70899   6.709   8.331   4.677  0.1596  0.1765  0.3975
  538MOL0     C70900   6.775   8.193   4.687  1.6569  0.1498 -0.0206
  538MOL0     N70901   6.775   8.113   4.568  0.0031 -0.0183 -0.1207
  538MOL0     C70902   6.877   8.047   4.517  0.6712 -0.4928  0.1384
  538MOL0     C70903   6.829   7.968   4.416 -0.8635 -0.4510 -0.0340
  538MOL0     C70904   6.906   7.889   4.321  0.4198  0.6450  0.2285
  538MOL0     C70905   6.988   7.966   4.224  0.9345  0.0057 -0.2932
  538MOL0     C70906   7.140   7.959   4.254 -0.6593  0.6533  0.2918
  538MOL0     C70907   7.226   8.028   4.154 -0.0923 -0.2883  0.1795
  538MOL0     O70908   7.210   7.972   4.022 -0.8371 -0.0878 -0.3484
  538MOL0     C70909   7.293   8.029   3.930 -0.2189  0.8816  0.1767
  538MOL0     C70910   7.241   8.131   3.854 -0.2237 -0.6109 -0.8040
  538MOL0     C70911   7.321   8.197   3.773 -0.8217  1.0301  1.3772
  538MOL0     C70912   7.449   8.154   3.727  0.4474 -1.0148 -0.3734
  538MOL0     C70913   7.533   8.209   3.616 -0.1025  0.5896  0.8567
  538MOL0     O70914   7.612   8.118   3.552  0.1852  0.1368 -0.5755
  538MOL0     C70915   7.665   8.156   3.427  0.4236  0.1095  0.8847
  538MOL0     C70916   7.577   8.185   3.322  0.3662  0.2158  0.6226
  538MOL0     C70917   7.622   8.221   3.198  0.4867  0.1743  0.2593
  538MOL0     C70918   7.750   8.256   3.184 -0.1265 -0.9674  0.3077
  538MOL0     O70919   7.780   8.340   3.087 -0.2722 -0.1067 -0.3962
  538MOL0     C70920   7.901   8.310   3.011  0.5432  0.1545  0.3206
  538MOL0     C70921   7.893   8.412   2.898 -0.1452 -0.4738  0.4432
  538MOL0     C70922   8.032   8.429   2.840  0.2095 -0.2201 -0.9730
  538MOL0     C70923   8.038   8.576   2.772  0.0004  0.2664  1.0347
  538MOL0     C70924   8.166   8.599   2.681  0.3341 -0.8767 -0.8530
  538MOL0     C70925   8.301   8.612   2.758  0.3079  0.3646 -0.1704
  538MOL0     C70926   8.329   8.736   2.845  1.0442  0.2992 -1.4394
  538MOL0     C70927   8.443   8.813   2.790 -1.0567  0.5204 -0.4064
  538MOL0    Cl70928   8.590   8.710   2.786  0.1551 -0.4260 -0.0616
  538MOL0     C70929   7.843   8.212   3.284  0.5817 -0.1431 -0.4792
  538MOL0     C70930   7.804   8.156   3.405 -0.0755  0.4134  0.1446
  538MOL0     O70931   7.513   8.325   3.580 -0.7826 -1.1046 -0.7779
  538MOL0     C70932   7.498   8.045   3.800  0.7210 -0.3778 -0.8170
  538MOL0     C70933   7.428   7.991   3.903  0.3513 -0.7778 -1.0833
  538MOL0     N70934   6.687   7.987   4.408 -0.0435  0.8400 -0.1763
  538MOL0     N70935   6.659   8.080   4.498 -0.4118 -0.3208  0.7510
  538MOL0     C70936   6.653   8.818   5.412 -0.9994 -0.3500 -0.7514
  538MOL0     C70937   6.711   8.853   5.536 -0.6836  1.0614  0.5124
  538MOL0     C70938   6.918   9.002   5.900  0.0718  0.2668  0.8842
  538MOL0     C70939   7.057   9.025   5.859 -1.2918  0.0989 -0.1417
  538MOL0     C70940   7.156   9.035   5.962  1.7284 -1.4016  0.3088
  538MOL0     C70941   7.115   9.064   6.096  0.6527  0.1317  1.1013
  538MOL0     O70942   7.212   9.098   6.179  0.1768 -0.7363  0.2769
  538MOL0     C70943   7.164   9.158   6.304 -0.0280 -0.6115 -1.3047
  538MOL0     C70944   7.277   9.225   6.397 -0.0759 -0.3468 -0.0954
  538MOL0     C70945   7.216   9.294   6.521 -0.3152 -0.0055  0.0029
  538MOL0     C70946   7.143   9.190   6.612  0.8083  0.0197 -0.0490
  538MOL0     C70947   7.157   9.212   6.752 -0.2468 -0.6755 -0.0301
  538MOL0     C70948   7.174   9.254   6.866  0.5904  0.0959  0.8651
  538MOL0     C70949   6.980   9.057   6.124  0.6068  0.5169 -0.7786
  538MOL0     C70950   6.885   9.014   6.030  0.2883  0.4053 -0.7661
  538MOL0     H70951   6.902   9.109   5.442  3.4057 -3.2701 -1.7354
  538MOL0     H70952   6.806   9.055   5.224  0.6280 -0.4757 -0.4661
  538MOL0     H70953   6.488   8.786   5.047  0.1788 -1.3953 -0.4710
  538MOL0     H70954   6.449   8.785   5.217  0.3470  2.7558 -0.7572
  538MOL0     H70955   6.486   8.554   5.164  0.8774 -0.7318  1.4242
  538MOL0     H70956   6.644   8.604   5.223 -1.2984 -0.3286  1.3823
  538MOL0     H70957   6.667   8.633   4.953 -2.4881  1.6398 -0.7351
  538MOL0     H70958   6.529   8.517   4.951 -0.1993 -2.3104  1.5364
  538MOL0     H70959   6.800   8.475   5.083 -0.1591  0.0359  0.2238
  538MOL0     H70960   6.657   8.366   5.118  0.8992 -1.2007  0.0605
  538MOL0     H70961   6.635   8.279   4.922 -1.7299  0.6217  2.1331
  538MOL0     H70962   6.800   8.253   4.942  0.5783 -0.7131 -1.6478
  538MOL0     H70963   6.882   8.395   4.786 -0.0386  0.5273 -0.6560
  538MOL0     H70964   6.760   8.513   4.794 -2.5621 -0.3488  1.3374
  538MOL0     H70965   6.602   8.319   4.693 -0.4363  2.9996 -0.9700
  538MOL0     H70966   6.733   8.369   4.578 -1.4396  0.4947  0.1121
  538MOL0     H70967   6.725   8.133   4.763  0.2285  0.4925 -0.6633
  538MOL0     H70968   6.880   8.200   4.715  1.2528  0.3586  1.5094
  538MOL0     H70969   6.982   8.062   4.537  0.6118  2.2051 -1.0517
  538MOL0     H70970   6.838   7.827   4.263  0.0560 -3.1389  4.1790
  538MOL0     H70971   6.971   7.816   4.371 -2.1371 -1.6946  0.3927
  538MOL0     H70972   6.961   8.072   4.228  2.3521  0.3905  3.6101
  538MOL0     H70973   6.963   7.923   4.127 -1.1111 -0.8628  0.5643
  538MOL0     H70974   7.151   8.029   4.337 -2.0275  0.5384  0.6041
  538MOL0     H70975   7.173   7.857   4.274  1.1342  0.9364 -1.0006
  538MOL0     H70976   7.327   8.031   4.195  0.5217  2.6585 -1.2559
  538MOL0     H70977   7.185   8.129   4.142 -3.1729 -1.3890  0.6242
  538MOL0     H70978   7.136   8.160   3.849 -0.7926 -2.3843 -0.0457
  538MOL0     H70979   7.280   8.292   3.741  3.4541  2.6203 -0.0316
  538MOL0     H70980   7.471   8.178   3.341 -0.2139 -1.4534 -2.5013
  538MOL0     H70981   7.545   8.256   3.130 -1.6142  1.9485  3.3113
  538MOL0     H70982   7.893   8.205   2.981  1.6932 -0.0912  0.8300
  538MOL0     H70983   7.993   8.314   3.069  1.6326 -1.3289 -1.1987
  538MOL0     H70984   7.863   8.505   2.947 -0.1798  0.0775 -0.5978
  538MOL0     H70985   7.824   8.389   2.816 -2.7038  3.5993  1.1800
  538MOL0     H70986   8.053   8.347   2.770 -4.5398 -0.0296 -3.0027
  538MOL0     H70987   8.106   8.426   2.920  1.4049 -2.5265 -2.0526
  538MOL0     H70988   7.955   8.576   2.700  0.4052 -2.2794  0.4527
  538MOL0     H70989   8.028   8.646   2.854  1.3528  0.1195  1.3568
  538MOL0     H70990   8.165   8.690   2.621  0.7889 -0.5287 -0.3514
  538MOL0     H70991   8.171   8.515   2.612  2.3627  0.0502 -1.9492
  538MOL0     H70992   8.375   8.599   2.678 -0.8897  0.8651 -1.3966
  538MOL0     H70993   8.305   8.525   2.825  1.0962 -0.6366 -1.4621
  538MOL0     H70994   8.244   8.802   2.868 -0.0212 -1.5244  0.1685
  538MOL0     H70995   8.362   8.694   2.941  2.5797 -1.5206 -2.7059
  538MOL0     H70996   8.466   8.898   2.855 -1.7260  0.3581  0.0445
  538MOL0     H70997   8.420   8.863   2.695 -0.6325  0.8965 -0.3181
  538MOL0     H70998   7.945   8.246   3.300  0.4146 -0.9069  3.2939
  538MOL0     H70999   7.882   8.120   3.471  2.9921  1.8485 -2.3888
  538MOL0     H71000   7.602   8.016   3.794  1.3222 -0.5486  4.9079
  538MOL0     H71001   7.476   7.922   3.973  2.1221  1.4310  0.0296
  538MOL0     H71002   6.599   8.724   5.413 -0.5613 -0.6023 -0.3245
  538MOL0     H71003   6.693   8.794   5.626  1.1386  1.2494  1.0265
  538MOL0     H71004   7.087   9.020   5.755 -1.9193  0.5526 -0.3569
  538MOL0     H71005   7.253   9.073   5.932  0.0121  2.2125 -1.3681
  538MOL0     H71006   7.101   9.090   6.362 -3.1656  1.5277 -1.9322
  538MOL0     H71007   7.105   9.248   6.282  3.5582  2.9526  1.7911
  538MOL0     H71008   7.346   9.155   6.445 -0.5789  0.9099  2.6409
  538MOL0     H71009   7.329   9.293   6.330 -0.8096  0.8411  0.5129
  538MOL0     H71010   7.151   9.375   6.487 -0.6691  0.4692  1.7145
  538MOL0     H71011   7.295   9.331   6.587 -0.2900  2.8137 -1.4335
  538MOL0     H71012   7.040   9.181   6.577  0.9495  0.2482 -0.5405
  538MOL0     H71013   7.178   9.088   6.594  5.2127  1.6152 -2.2843
  538MOL0     H71014   7.201   9.318   6.947  1.8437  0.2729  0.3269
  538MOL0     H71015   6.939   9.069   6.224  1.1233  0.0593 -0.5053
  538MOL0     H71016   6.788   8.998   6.077  0.5158 -1.0537 -0.7254
  539MOL0     O71017   1.399   5.844   4.252 -0.5423  0.2673  0.0657
  539MOL0     C71018   1.366   5.847   4.134 -0.3534  0.6520  0.5424
  539MOL0     O71019   1.322   5.963   4.077 -0.0441 -1.0728  0.1177
  539MOL0     C71020   1.301   6.076   4.157 -0.3115  0.4679 -0.8628
  539MOL0     C71021   1.380   6.191   4.140 -0.3292  0.6640 -0.5106
  539MOL0     C71022   1.359   6.300   4.221 -1.5905  0.2845 -0.9565
  539MOL0     C71023   1.267   6.294   4.331  0.2606  0.0457  0.7360
  539MOL0     O71024   1.267   6.408   4.401 -0.2815 -0.7718  0.1509
  539MOL0     C71025   1.168   6.410   4.509 -0.3079 -0.1018 -0.2129
  539MOL0     C71026   1.203   6.321   4.631  0.5627  0.2314  0.9659
  539MOL0     C71027   1.332   6.365   4.715 -0.0539  0.6517 -0.1671
  539MOL0     C71028   1.425   6.250   4.751 -0.0891  1.0876  0.4397
  539MOL0     C71029   1.523   6.299   4.856  0.0099  0.3596  0.9244
  539MOL0     C71030   1.668   6.246   4.831 -0.1659  0.2723  0.6544
  539MOL0     C71031   1.754   6.302   4.947 -0.2127  0.6528  0.7337
  539MOL0     C71032   1.866   6.196   4.970  0.0435  0.3523 -0.5650
  539MOL0     N71033   1.960   6.185   4.856 -0.1823 -0.5496 -0.6242
  539MOL0     C71034   1.982   6.089   4.770 -1.1608  0.8545  0.7952
  539MOL0     C71035   2.055   6.134   4.666  0.5215 -0.5286 -1.4397
  539MOL0     C71036   2.104   6.059   4.545 -0.0434  0.9613 -0.1468
  539MOL0     C71037   2.189   5.940   4.580 -0.6299 -0.6021 -0.0465
  539MOL0     C71038   2.238   5.879   4.453 -0.3600  0.8972  1.2360
  539MOL0     C71039   2.162   5.754   4.414 -0.1842 -0.6245 -0.2558
  539MOL0     O71040   2.259   5.680   4.333  0.1249 -0.2209  0.4363
  539MOL0     C71041   2.226   5.555   4.278 -1.5766 -0.3233  0.3075
  539MOL0     C71042   2.109   5.496   4.310  0.2920  0.3712  0.2982
  539MOL0     C71043   2.087   5.375   4.240  0.5638  0.1631 -0.2852
  539MOL0     C71044   2.174   5.326   4.134  0.0486 -0.5627  0.3017
  539MOL0     C71045   2.141   5.196   4.069 -0.3486 -0.2279 -0.1555
  539MOL0     O71046   2.197   5.185   3.948 -0.2365 -0.7774  1.2393
  539MOL0     C71047   2.128   5.107   3.855 -0.0641 -0.5111 -0.6841
  539MOL0     C71048   2.019   5.153   3.787  0.5067  0.2438  0.7249
  539MOL0     C71049   1.960   5.081   3.678 -0.0439 -0.2109  0.2558
  539MOL0     C71050   1.999   4.952   3.656  0.8682  0.2424  0.2658
  539MOL0     O71051   1.963   4.866   3.557 -0.1661  0.3230 -0.8896
  539MOL0     C71052   1.935   4.919   3.426 -0.9856  0.9967  0.6413
  539MOL0     C71053   2.058   4.879   3.338 -0.0417 -0.2794  0.1622
  539MOL0     C71054   2.186   4.973   3.339 -0.5603 -0.9797 -0.1487
  539MOL0     C71055   2.141   5.100   3.279 -0.4136 -0.8345  0.5024
  539MOL0     C71056   2.250   5.186   3.226 -0.8563 -0.5302  0.1352
  539MOL0     C71057   2.186   5.315   3.171  0.0598 -0.0568 -0.0600
  539MOL0     C71058   2.295   5.390   3.096 -0.1417 -0.4742 -0.0989
  539MOL0     C71059   2.239   5.532   3.043  1.0100  0.2930 -0.3354
  539MOL0    Cl71060   2.206   5.629   3.197 -0.6186  0.3157 -0.2873
  539MOL0     C71061   2.098   4.904   3.739 -1.1016 -0.2892  0.4143
  539MOL0     C71062   2.168   4.975   3.842  0.0589  1.0263  0.2626
  539MOL0     O71063   2.057   5.124   4.113 -0.0535  0.9924 -0.1523
  539MOL0     C71064   2.293   5.403   4.102 -0.3838  0.1486  1.0487
  539MOL0     C71065   2.325   5.513   4.179 -0.0197 -0.8204  0.2806
  539MOL0     N71066   2.092   6.263   4.708 -0.9159  0.8715 -0.4818
  539MOL0     N71067   2.041   6.292   4.828  0.7033  0.5693  0.3288
  539MOL0     C71068   1.188   6.184   4.350 -0.2685 -0.2482  0.6076
  539MOL0     C71069   1.201   6.079   4.256 -0.0554 -0.2213  0.4075
  539MOL0     C71070   1.372   5.717   4.064  0.1122 -0.6523 -0.0316
  539MOL0     C71071   1.381   5.595   4.140  0.3389  0.7695 -0.7130
  539MOL0     C71072   1.394   5.474   4.073 -0.3721 -0.6095 -0.3105
  539MOL0     C71073   1.387   5.470   3.935  0.5430 -0.9721 -1.2312
  539MOL0     O71074   1.396   5.348   3.876  0.3196  0.4214  0.1992
  539MOL0     C71075   1.422   5.332   3.735 -0.2027 -0.3307 -0.1164
  539MOL0     C71076   1.507   5.204   3.720 -0.7580 -0.7491 -0.5490
  539MOL0     C71077   1.546   5.182   3.573  0.6854  0.5553  0.4534
  539MOL0     C71078   1.634   5.292   3.507 -0.7673  0.7667 -0.9313
  539MOL0     C71079   1.657   5.254   3.369  0.6283  0.4905  0.3201
  539MOL0     C71080   1.683   5.207   3.262  0.2044  0.5859 -0.0167
  539MOL0     C71081   1.363   5.586   3.860 -0.6318 -0.0197  0.7055
  539MOL0     C71082   1.349   5.711   3.924 -0.4091 -0.9162  0.0362
  539MOL0     H71083   1.464   6.192   4.071  3.2850 -3.7579  3.1883
  539MOL0     H71084   1.415   6.392   4.209  1.5899 -1.4423 -0.6454
  539MOL0     H71085   1.074   6.375   4.465 -0.5492  1.2401 -0.8026
  539MOL0     H71086   1.151   6.509   4.552  3.4247  0.9774 -0.8384
  539MOL0     H71087   1.204   6.212   4.621 -0.7276  0.2741  0.2320
  539MOL0     H71088   1.121   6.330   4.703 -0.5746 -1.6067 -0.0411
  539MOL0     H71089   1.296   6.414   4.807 -1.1300  0.0748 -0.2688
  539MOL0     H71090   1.376   6.442   4.651  0.2104  0.3089 -0.3966
  539MOL0     H71091   1.364   6.167   4.787 -0.7348  1.6280  0.5995
  539MOL0     H71092   1.480   6.210   4.665 -0.7144 -2.0285  1.3451
  539MOL0     H71093   1.485   6.276   4.956 -0.5141 -0.4594  0.5547
  539MOL0     H71094   1.527   6.408   4.851  1.9847  0.2542 -1.4067
  539MOL0     H71095   1.705   6.286   4.736 -0.5601  1.2424  0.8965
  539MOL0     H71096   1.666   6.141   4.803 -2.2150  0.7716 -1.3980
  539MOL0     H71097   1.801   6.395   4.916  1.7598 -1.0613 -1.8846
  539MOL0     H71098   1.691   6.302   5.036 -2.5126 -1.8815 -0.7148
  539MOL0     H71099   1.806   6.105   4.977 -0.3551  0.7411  2.0538
  539MOL0     H71100   1.931   6.204   5.058  2.6019  2.3100 -2.4675
  539MOL0     H71101   1.934   5.992   4.777 -1.1974  0.9340  1.7495
  539MOL0     H71102   2.150   6.135   4.481  1.0135 -0.4471 -1.1253
  539MOL0     H71103   2.005   6.028   4.509 -2.0609  2.3837  3.6090
  539MOL0     H71104   2.140   5.874   4.652 -0.8821  0.4158  0.7375
  539MOL0     H71105   2.267   5.989   4.639 -1.6355  1.5315 -0.4065
  539MOL0     H71106   2.249   5.953   4.373 -1.4698  0.4119  0.6065
  539MOL0     H71107   2.338   5.847   4.482  1.0253  3.0427 -0.8555
  539MOL0     H71108   2.068   5.783   4.366  1.0840  4.0438 -0.3980
  539MOL0     H71109   2.142   5.702   4.508 -3.7310 -1.4073 -1.2687
  539MOL0     H71110   2.040   5.539   4.381  0.9363  1.0378  0.5298
  539MOL0     H71111   1.997   5.320   4.263 -1.0708  2.0271 -1.9062
  539MOL0     H71112   1.987   5.247   3.831 -0.4474  0.3620 -0.1690
  539MOL0     H71113   1.888   5.129   3.613  3.2219  2.2018 -1.9229
  539MOL0     H71114   1.923   5.028   3.427 -3.7140  0.7670  0.4572
  539MOL0     H71115   1.849   4.861   3.390  0.5271 -0.8181 -0.1994
  539MOL0     H71116   2.010   4.876   3.240 -1.8132 -1.2913  1.0136
  539MOL0     H71117   2.090   4.775   3.348  1.3366 -0.0404 -1.3990
  539MOL0     H71118   2.269   4.933   3.282  1.7550 -0.7260  2.8051
  539MOL0     H71119   2.234   4.993   3.435 -1.6385  1.2780 -0.0118
  539MOL0     H71120   2.077   5.074   3.194 -1.1110 -1.5501  1.2200
  539MOL0     H71121   2.067   5.154   3.339  1.2276  0.1744  1.7208
  539MOL0     H71122   2.312   5.142   3.147  0.5758 -0.2016  1.0429
  539MOL0     H71123   2.327   5.212   3.298  0.7299  2.2397 -2.3140
  539MOL0     H71124   2.139   5.376   3.249 -2.5418 -1.8206 -0.1323
  539MOL0     H71125   2.100   5.287   3.109 -0.0936 -0.6728  0.4241
  539MOL0     H71126   2.383   5.402   3.159  0.2384 -0.1382 -0.6810
  539MOL0     H71127   2.312   5.339   3.000  0.4757  0.1698 -0.3389
  539MOL0     H71128   2.150   5.509   2.984  1.6273  0.3300 -1.2878
  539MOL0     H71129   2.319   5.584   2.991  0.7935  1.9124  0.8828
  539MOL0     H71130   2.141   4.804   3.731 -0.4521 -0.0509  0.9194
  539MOL0     H71131   2.241   4.921   3.902 -0.5410  0.2455  0.3160
  539MOL0     H71132   2.366   5.375   4.026 -0.4964 -0.7779  1.2682
  539MOL0     H71133   2.410   5.577   4.159 -0.2735 -0.3177  0.7736
  539MOL0     H71134   1.112   6.175   4.427 -1.4667 -0.3563 -0.5583
  539MOL0     H71135   1.140   5.989   4.255  2.3483 -2.0125 -2.1206
  539MOL0     H71136   1.371   5.605   4.248 -0.5057 -1.7304 -0.4973
  539MOL0     H71137   1.396   5.381   4.129  3.0632  0.2432  1.2317
  539MOL0     H71138   1.470   5.422   3.697 -2.4603  1.9825  2.0785
  539MOL0     H71139   1.326   5.326   3.682 -0.8570 -1.0267  1.1013
  539MOL0     H71140   1.597   5.211   3.781 -1.3695 -0.0710  0.3018
  539MOL0     H71141   1.454   5.120   3.765  1.1166 -0.9560  1.4195
  539MOL0     H71142   1.451   5.158   3.524  0.7896  0.3217  0.3644
  539MOL0     H71143   1.593   5.084   3.561 -0.9943 -0.8589  3.9935
  539MOL0     H71144   1.583   5.388   3.508  1.0425  1.8349 -2.6300
  539MOL0     H71145   1.729   5.296   3.561  1.5113 -1.1437 -4.3491
  539MOL0     H71146   1.707   5.165   3.167 -1.7612  1.3610 -0.8960
  539MOL0     H71147   1.363   5.574   3.752  2.7864 -1.4818  0.7341
  539MOL0     H71148   1.330   5.800   3.864  0.7588 -0.2898  0.5378
  540MOL0     O71149   5.704   1.563   5.203 -1.0114  0.0973  0.0002
  540MOL0     C71150   5.717   1.519   5.090  0.6396 -0.0498  0.1902
  540MOL0     O71151   5.701   1.594   4.976 -0.0973  0.2888  0.0699
  540MOL0     C71152   5.680   1.734   4.961 -0.9019  0.1964 -0.3975
  540MOL0     C71153   5.701   1.794   4.838  0.1510  0.7585 -0.8809
  540MOL0     C71154   5.662   1.923   4.814 -0.8612 -0.1648  0.1880
  540MOL0     C71155   5.614   2.006   4.912  0.5004  0.8245  0.0903
  540MOL0     O71156   5.576   2.137   4.909 -0.9106  0.0847 -0.1028
  540MOL0     C71157   5.618   2.188   4.782 -0.6629  0.3126  0.2947
  540MOL0     C71158   5.590   2.338   4.773 -0.7049 -0.0069 -0.8514
  540MOL0     C71159   5.654   2.401   4.647 -0.3413 -0.8299 -0.3654
  540MOL0     C71160   5.577   2.378   4.519  0.1464  0.3464 -0.6769
  540MOL0     C71161   5.644   2.464   4.416 -0.4152  0.1363  0.1754
  540MOL0     C71162   5.612   2.618   4.426 -0.2062 -0.9365  0.0922
  540MOL0     C71163   5.721   2.708   4.355  0.2427 -0.1998 -0.0268
  540MOL0     C71164   5.844   2.734   4.443  0.0355  0.3611  0.4029
  540MOL0     N71165   5.913   2.851   4.411 -0.1707 -0.1690 -0.8584
  540MOL0     C71166   5.882   2.976   4.463  0.2229 -0.4074  1.4135
  540MOL0     C71167   5.954   3.064   4.384 -0.1046 -0.1133  0.0982
  540MOL0     C71168   5.970   3.215   4.403  0.3308 -1.0302  0.2233
  540MOL0     C71169   6.049   3.289   4.285  0.0753 -1.1755 -0.5790
  540MOL0     C71170   5.977   3.297   4.152  0.5130 -0.7872  0.1422
  540MOL0     C71171   5.897   3.426   4.122  0.2703 -0.1340 -0.6363
  540MOL0     O71172   5.806   3.461   4.229 -0.3771  0.5644  0.0983
  540MOL0     C71173   5.723   3.563   4.213 -0.3601  0.1965 -0.8140
  540MOL0     C71174   5.772   3.692   4.186 -0.7324 -0.2620 -0.4129
  540MOL0     C71175   5.688   3.798   4.152 -0.7517  0.0553 -0.8323
  540MOL0     C71176   5.549   3.780   4.148  0.2847  0.3397 -0.8517
  540MOL0     C71177   5.453   3.887   4.118  0.6073  0.3781  0.3960
  540MOL0     O71178   5.329   3.855   4.100 -0.1042  0.3851  0.6959
  540MOL0     C71179   5.243   3.934   4.036  0.0602 -0.9737 -0.7999
  540MOL0     C71180   5.126   3.959   4.100 -0.7511  0.3404  0.1352
  540MOL0     C71181   5.026   4.049   4.049 -1.0427  0.6403 -0.0182
  540MOL0     C71182   5.042   4.092   3.919 -0.0317  0.0418  0.9148
  540MOL0     O71183   4.961   4.168   3.841 -0.2314  0.4602 -0.4593
  540MOL0     C71184   4.830   4.183   3.879  0.6156  0.3043  1.2293
  540MOL0     C71185   4.756   4.259   3.764  0.3814  0.3939  1.4889
  540MOL0     C71186   4.753   4.186   3.630 -0.3241  0.1126  0.3661
  540MOL0     C71187   4.654   4.069   3.631 -0.2778 -0.1203  0.4450
  540MOL0     C71188   4.723   3.944   3.575 -0.5062 -0.2029 -0.4681
  540MOL0     C71189   4.634   3.826   3.539  0.2168 -0.1873 -0.8615
  540MOL0     C71190   4.717   3.697   3.496  0.0131  0.5554  0.4606
  540MOL0     C71191   4.619   3.578   3.484  0.5392  0.5832 -0.6728
  540MOL0    Cl71192   4.473   3.609   3.374  0.3341 -0.2914  0.6543
  540MOL0     C71193   5.160   4.061   3.859  1.0325 -0.0952 -0.0467
  540MOL0     C71194   5.258   3.982   3.911 -0.3765  0.0185 -0.4573
  540MOL0     O71195   5.502   4.006   4.099 -0.1803  0.3157  0.2538
  540MOL0     C71196   5.496   3.644   4.176 -0.2201  0.2697  0.1533
  540MOL0     C71197   5.588   3.541   4.206 -0.2042  0.0521 -0.1282
  540MOL0     N71198   6.016   2.992   4.282 -0.5985 -0.1976 -0.1337
  540MOL0     N71199   5.985   2.863   4.297 -0.8567 -0.0192  0.2494
  540MOL0     C71200   5.605   1.946   5.039 -0.5400 -0.0807 -0.2712
  540MOL0     C71201   5.623   1.808   5.063 -0.3033  0.2864 -0.4210
  540MOL0     C71202   5.751   1.369   5.060  0.2764 -0.1249  0.5918
  540MOL0     C71203   5.794   1.336   4.930 -0.0836  0.0178  0.3159
  540MOL0     C71204   5.858   1.215   4.916 -0.3977 -0.4389  0.1013
  540MOL0     C71205   5.876   1.127   5.023 -0.1515 -0.2532 -0.5885
  540MOL0     O71206   5.936   1.002   5.016  0.5486  0.9429  0.2201
  540MOL0     C71207   6.023   0.983   4.905  1.2347 -0.5961 -0.5559
  540MOL0     C71208   6.149   1.076   4.912 -0.4632  0.5250  0.1880
  540MOL0     C71209   6.238   1.050   4.782 -0.1955  0.0095  0.8544
  540MOL0     C71210   6.369   1.116   4.805  0.4143  0.3720 -0.4853
  540MOL0     C71211   6.461   1.131   4.691 -0.3195 -0.0006  0.2318
  540MOL0     C71212   6.545   1.161   4.603 -0.3848 -0.0625  0.1590
  540MOL0     C71213   5.817   1.165   5.145 -0.1344  0.1389 -0.1282
  540MOL0     C71214   5.769   1.283   5.172 -0.3240 -0.8944  0.2150
  540MOL0     H71215   5.755   1.737   4.763  0.8631 -2.3905  1.7747
  540MOL0     H71216   5.688   1.961   4.716  0.8705 -0.1970  0.6005
  540MOL0     H71217   5.564   2.143   4.699 -0.0940  3.3800 -1.8944
  540MOL0     H71218   5.726   2.177   4.769 -0.5987 -0.7836  1.5715
  540MOL0     H71219   5.640   2.393   4.853  0.0731  1.8130 -2.5144
  540MOL0     H71220   5.483   2.358   4.785 -0.4431  1.1470 -0.2911
  540MOL0     H71221   5.754   2.357   4.636  0.1931  0.5043 -1.1998
  540MOL0     H71222   5.684   2.502   4.676  0.4354 -0.9828 -0.6085
  540MOL0     H71223   5.578   2.274   4.486  0.4038 -0.4251  1.5349
  540MOL0     H71224   5.477   2.419   4.535  1.3541  5.2873 -3.4670
  540MOL0     H71225   5.617   2.437   4.313  2.6464 -2.9633 -0.0005
  540MOL0     H71226   5.753   2.456   4.425  0.0802  3.2914 -1.3645
  540MOL0     H71227   5.609   2.648   4.531  1.8489  4.3132 -1.0564
  540MOL0     H71228   5.517   2.639   4.376  0.5966 -2.6935 -2.3799
  540MOL0     H71229   5.740   2.666   4.256 -0.2121 -3.5155  1.1625
  540MOL0     H71230   5.676   2.807   4.347  1.7637  0.5681  0.4590
  540MOL0     H71231   5.907   2.645   4.426 -2.5766 -1.2732 -1.5180
  540MOL0     H71232   5.825   2.733   4.550  0.1474 -1.1380  0.4346
  540MOL0     H71233   5.831   3.002   4.555  1.6803  1.1387  1.8235
  540MOL0     H71234   6.028   3.224   4.495 -2.4035  0.4671  1.8956
  540MOL0     H71235   5.876   3.265   4.425  1.6101  0.7944  1.8600
  540MOL0     H71236   6.145   3.239   4.269  0.7873  0.6741 -2.6862
  540MOL0     H71237   6.074   3.391   4.317 -0.6437 -0.3072 -2.5991
  540MOL0     H71238   6.047   3.292   4.068 -0.9211  1.7006 -1.3154
  540MOL0     H71239   5.914   3.210   4.131  0.0174 -0.9553  2.0997
  540MOL0     H71240   5.838   3.418   4.031  1.4674  3.2302 -1.8658
  540MOL0     H71241   5.973   3.501   4.097  1.1249 -1.1257 -1.0678
  540MOL0     H71242   5.878   3.718   4.193 -0.2624 -1.3971 -2.5473
  540MOL0     H71243   5.744   3.887   4.127 -0.3501 -0.6986 -2.7408
  540MOL0     H71244   5.107   3.928   4.203  3.3078  0.7270  1.1945
  540MOL0     H71245   4.940   4.068   4.113 -0.4654  2.2278  0.3209
  540MOL0     H71246   4.825   4.236   3.975  1.3075  0.6995  1.0546
  540MOL0     H71247   4.780   4.086   3.880  1.5112 -0.4205 -3.2653
  540MOL0     H71248   4.808   4.355   3.756  1.3201 -0.0933  1.5943
  540MOL0     H71249   4.657   4.284   3.803 -0.1749  0.2830  0.2136
  540MOL0     H71250   4.846   4.134   3.608 -0.3497 -1.4910  3.4724
  540MOL0     H71251   4.739   4.260   3.551 -0.8880  1.0537  1.3129
  540MOL0     H71252   4.595   4.051   3.720 -1.3545  1.3721  0.0774
  540MOL0     H71253   4.573   4.086   3.560  0.0187 -0.0725  0.1106
  540MOL0     H71254   4.798   3.899   3.641 -0.0131 -0.7203 -1.3612
  540MOL0     H71255   4.772   3.966   3.480 -2.7716 -1.2004 -1.9505
  540MOL0     H71256   4.556   3.847   3.465 -2.0765 -2.5912  0.7150
  540MOL0     H71257   4.568   3.811   3.624  0.1498  2.8361 -0.2772
  540MOL0     H71258   4.772   3.721   3.404 -1.3816 -1.6818 -1.0602
  540MOL0     H71259   4.787   3.663   3.573 -0.2959  0.9003  0.9001
  540MOL0     H71260   4.578   3.561   3.584  2.8474  0.1104  0.2522
  540MOL0     H71261   4.660   3.486   3.441 -0.3521 -0.3189  0.3404
  540MOL0     H71262   5.169   4.106   3.761 -1.1876  0.8992  0.1426
  540MOL0     H71263   5.352   3.968   3.858 -0.2257 -2.1503  0.2902
  540MOL0     H71264   5.391   3.622   4.190 -0.2264  0.6617  0.7063
  540MOL0     H71265   5.538   3.445   4.209 -3.6352  1.7031  1.4501
  540MOL0     H71266   5.570   1.990   5.132  4.2153 -2.9701  3.3578
  540MOL0     H71267   5.594   1.760   5.156  1.1563 -1.1225 -0.6403
  540MOL0     H71268   5.799   1.400   4.843  0.3033  0.5454  0.7233
  540MOL0     H71269   5.900   1.192   4.818  0.5308 -3.5976  1.1425
  540MOL0     H71270   5.972   0.999   4.810  1.9756  0.1826 -0.8409
  540MOL0     H71271   6.055   0.879   4.907  1.3072 -0.6574 -2.7901
  540MOL0     H71272   6.127   1.183   4.920  0.6778  0.8223 -0.4585
  540MOL0     H71273   6.202   1.047   5.003  2.7932  3.6358 -0.4739
  540MOL0     H71274   6.184   1.104   4.704 -1.5126  0.7987  2.2648
  540MOL0     H71275   6.249   0.942   4.774  0.9054  0.2160 -1.3453
  540MOL0     H71276   6.341   1.213   4.845 -3.2585 -1.7365  2.6688
  540MOL0     H71277   6.407   1.065   4.894 -2.2133  1.9491  1.6950
  540MOL0     H71278   6.604   1.180   4.515 -2.4989  1.7689 -0.9567
  540MOL0     H71279   5.852   1.110   5.232 -2.2004 -1.2900 -0.1157
  540MOL0     H71280   5.745   1.310   5.275  0.4692  1.2423 -0.1107
  541MOL0     O71281   4.244   2.568   1.445  0.5333  0.2078  0.8208
  541MOL0     C71282   4.335   2.629   1.386  0.0022 -0.9666 -1.2469
  541MOL0     O71283   4.387   2.604   1.263  0.0962 -0.0290 -0.1400
  541MOL0     C71284   4.339   2.507   1.185  0.3056  0.4585 -0.7397
  541MOL0     C71285   4.373   2.527   1.052  0.2133 -0.5340  0.5459
  541MOL0     C71286   4.328   2.445   0.942  0.2705 -0.1684 -1.9252
  541MOL0     C71287   4.244   2.334   0.977 -0.0436 -0.2466 -0.6751
  541MOL0     O71288   4.195   2.256   0.875  0.6809  0.6583  0.2400
  541MOL0     C71289   4.195   2.114   0.891  0.1327 -1.5236  0.0972
  541MOL0     C71290   4.212   2.050   0.751 -0.0533  0.4915  1.2003
  541MOL0     C71291   4.334   2.092   0.676 -0.5884  0.4669  0.8983
  541MOL0     C71292   4.347   2.032   0.531 -0.5391 -0.1660 -1.5392
  541MOL0     C71293   4.267   1.897   0.511  0.2414 -0.2938 -0.3182
  541MOL0     C71294   4.285   1.868   0.364 -0.1255  0.2456  0.3660
  541MOL0     C71295   4.202   1.744   0.312 -0.8381 -0.7164  0.2259
  541MOL0     C71296   4.238   1.605   0.376  0.4323 -0.0337 -0.0382
  541MOL0     N71297   4.380   1.571   0.400  1.3568 -0.3109  0.4076
  541MOL0     C71298   4.471   1.553   0.295 -0.6880  0.3764 -1.1296
  541MOL0     C71299   4.581   1.519   0.358 -0.3040 -0.1533 -0.1924
  541MOL0     C71300   4.703   1.471   0.275  0.6149  1.0142 -0.9833
  541MOL0     C71301   4.835   1.522   0.335  0.0216  0.0406  0.2661
  541MOL0     C71302   4.880   1.448   0.459  0.7659  0.3924 -0.7945
  541MOL0     C71303   5.032   1.465   0.465  0.6707  0.5157 -1.0113
  541MOL0     O71304   5.083   1.388   0.355  0.6573 -0.2295 -0.0649
  541MOL0     C71305   5.123   1.258   0.377  0.3400  0.9094 -0.7135
  541MOL0     C71306   5.177   1.191   0.271  0.1740  0.1688  1.0743
  541MOL0     C71307   5.218   1.058   0.282 -0.5528  0.6523  1.0654
  541MOL0     C71308   5.182   0.970   0.396 -0.2490 -1.0697 -0.0657
  541MOL0     C71309   5.216   0.826   0.392  0.1718 -0.0628 -0.2742
  541MOL0     O71310   5.261   0.752   0.493  0.8260  0.7326 -0.2537
  541MOL0     C71311   5.311   0.620   0.473 -0.0965 -0.2880 -0.2348
  541MOL0     C71312   5.277   0.523   0.571 -0.2051 -0.3537 -0.2848
  541MOL0     C71313   5.316   0.393   0.557 -0.0857 -0.6424 -0.3736
  541MOL0     C71314   5.379   0.356   0.444 -0.0254  0.2031  0.0980
  541MOL0     O71315   5.413   0.228   0.437 -0.0139  0.6547  0.3358
  541MOL0     C71316   5.449   0.188   0.308  0.7204 -0.3408  0.0968
  541MOL0     C71317   5.461   0.042   0.319  0.7764 -0.2427  0.2401
  541MOL0     C71318   5.453  -0.030   0.187 -0.9013 -0.4859 -0.2193
  541MOL0     C71319   5.550   0.027   0.075  0.0588  0.7050 -0.7571
  541MOL0     C71320   5.534  -0.047  -0.059 -0.1034 -0.8639 -0.3850
  541MOL0     C71321   5.623   0.022  -0.170  0.7803  0.0312  0.8523
  541MOL0     C71322   5.616  -0.068  -0.290  0.0278 -0.3064 -0.6932
  541MOL0     C71323   5.691   0.003  -0.406  0.0891 -0.2251 -0.0856
  541MOL0    Cl71324   5.867   0.037  -0.383  0.2989 -0.1686  0.0999
  541MOL0     C71325   5.415   0.458   0.348 -0.7692  1.1876 -0.9776
  541MOL0     C71326   5.387   0.586   0.361  0.1390 -0.7819  0.9063
  541MOL0     O71327   5.194   0.783   0.281  0.2685 -0.1816  0.4805
  541MOL0     C71328   5.118   1.038   0.500  0.1412 -1.0064  0.0149
  541MOL0     C71329   5.092   1.176   0.492 -0.5543 -0.9322 -0.5565
  541MOL0     N71330   4.563   1.524   0.500  0.1103  0.5404  1.1243
  541MOL0     N71331   4.440   1.549   0.525  0.9022  0.7517  0.5881
  541MOL0     C71332   4.202   2.308   1.110 -0.2136 -0.5284 -1.9232
  541MOL0     C71333   4.255   2.398   1.213  0.1295  1.4411 -0.8993
  541MOL0     C71334   4.400   2.747   1.459 -0.0381 -0.0597 -0.3820
  541MOL0     C71335   4.368   2.783   1.588 -0.5336  0.4208  0.5662
  541MOL0     C71336   4.428   2.895   1.639  0.9960  0.2515  0.0661
  541MOL0     C71337   4.518   2.984   1.571 -0.2907 -0.4629  0.2726
  541MOL0     O71338   4.569   3.102   1.611  0.3911 -0.5393 -0.2062
  541MOL0     C71339   4.502   3.176   1.712 -0.1689 -0.3550 -0.1296
  541MOL0     C71340   4.543   3.119   1.854  0.0914  0.8680 -0.2649
  541MOL0     C71341   4.549   3.233   1.958  0.1145 -0.7727  0.3625
  541MOL0     C71342   4.537   3.169   2.102 -0.2034  0.2377  0.1884
  541MOL0     C71343   4.552   3.268   2.204  0.8057 -0.9750  0.4776
  541MOL0     C71344   4.564   3.362   2.282 -0.2455 -0.0619 -0.8802
  541MOL0     C71345   4.539   2.951   1.435  0.1084  0.3174 -0.4376
  541MOL0     C71346   4.493   2.833   1.385 -0.0494  0.2348  0.1459
  541MOL0     H71347   4.443   2.604   1.020 -2.5299  1.3321 -1.4461
  541MOL0     H71348   4.364   2.462   0.840 -1.3694  0.0516 -2.4981
  541MOL0     H71349   4.095   2.086   0.926  0.6208 -0.1640  2.8425
  541MOL0     H71350   4.266   2.073   0.963 -0.2427  1.9918  2.7477
  541MOL0     H71351   4.122   2.072   0.692  1.8508  4.0611 -0.7597
  541MOL0     H71352   4.220   1.944   0.774  0.1862  0.4222  0.8036
  541MOL0     H71353   4.426   2.066   0.730 -0.8687 -2.0911  0.2848
  541MOL0     H71354   4.342   2.201   0.678  1.6201  0.3489  0.5490
  541MOL0     H71355   4.302   2.101   0.458 -1.7290  0.5744 -0.1518
  541MOL0     H71356   4.452   2.022   0.501 -0.0331  0.8304 -0.1733
  541MOL0     H71357   4.158   1.903   0.526 -0.7026 -3.5641 -4.1226
  541MOL0     H71358   4.310   1.818   0.572 -0.3996 -3.4222 -3.5723
  541MOL0     H71359   4.393   1.859   0.348 -0.2042 -1.3248  0.5931
  541MOL0     H71360   4.246   1.955   0.311 -2.8061 -0.6824  0.6644
  541MOL0     H71361   4.096   1.769   0.320 -0.6100 -0.1441  1.6406
  541MOL0     H71362   4.221   1.743   0.204 -1.1961  2.0231  0.0819
  541MOL0     H71363   4.182   1.537   0.312 -0.0017  0.1629  0.1292
  541MOL0     H71364   4.182   1.608   0.470  1.0825  0.1865  0.3474
  541MOL0     H71365   4.467   1.557   0.187  1.1783  1.4472 -1.2025
  541MOL0     H71366   4.692   1.512   0.174  1.8398 -2.4619 -2.6573
  541MOL0     H71367   4.717   1.364   0.262  2.1664  0.9435  0.8268
  541MOL0     H71368   4.832   1.628   0.362  0.6256  0.8439 -2.5713
  541MOL0     H71369   4.904   1.509   0.251  0.4287  0.2603  0.5600
  541MOL0     H71370   4.834   1.496   0.545 -0.1589 -0.4661 -0.7902
  541MOL0     H71371   4.847   1.344   0.464  1.0063  0.3416 -0.1843
  541MOL0     H71372   5.077   1.435   0.560  0.0661 -0.9088 -1.1501
  541MOL0     H71373   5.066   1.568   0.448  0.7840  0.3238 -2.0540
  541MOL0     H71374   5.192   1.251   0.182 -1.1217 -0.3891  0.4548
  541MOL0     H71375   5.269   1.013   0.198 -1.3322  1.9757 -0.1599
  541MOL0     H71376   5.241   0.557   0.667  0.2498  2.7556 -1.1271
  541MOL0     H71377   5.292   0.333   0.644 -0.5266 -1.4910 -1.0567
  541MOL0     H71378   5.550   0.228   0.292 -0.1314  1.8539 -0.1160
  541MOL0     H71379   5.377   0.220   0.232  0.0357  3.8369  2.2390
  541MOL0     H71380   5.370  -0.002   0.362 -1.6758  2.8055 -1.3927
  541MOL0     H71381   5.549   0.004   0.372 -0.8680 -0.2754  3.1675
  541MOL0     H71382   5.351  -0.033   0.147 -0.8696 -1.2006 -0.2545
  541MOL0     H71383   5.467  -0.137   0.202 -0.8216 -0.7128 -1.7324
  541MOL0     H71384   5.531   0.133   0.060 -2.1071  0.3873 -0.6274
  541MOL0     H71385   5.655   0.032   0.103  1.6822 -0.7102 -5.5393
  541MOL0     H71386   5.434  -0.052  -0.102 -0.5251 -2.6803  0.7244
  541MOL0     H71387   5.554  -0.153  -0.045 -1.0179 -1.1308 -1.0054
  541MOL0     H71388   5.726   0.030  -0.134  0.4012  4.7663  1.6589
  541MOL0     H71389   5.604   0.124  -0.206  0.2087  0.1214  1.3753
  541MOL0     H71390   5.669  -0.158  -0.258 -1.6986 -1.1798 -0.2174
  541MOL0     H71391   5.509  -0.084  -0.300 -0.7728  2.8464  1.3093
  541MOL0     H71392   5.641   0.100  -0.422  1.5570  0.2775 -1.9916
  541MOL0     H71393   5.678  -0.042  -0.505 -2.8232  3.7824 -1.7943
  541MOL0     H71394   5.454   0.437   0.250 -1.9782 -1.4612 -0.9775
  541MOL0     H71395   5.410   0.661   0.286  0.5648  0.2046  1.9922
  541MOL0     H71396   5.073   0.986   0.584  2.3002 -3.2714 -0.1197
  541MOL0     H71397   5.036   1.224   0.572  0.2612  2.2675 -1.7412
  541MOL0     H71398   4.138   2.226   1.143 -1.7890  0.6557 -1.9259
  541MOL0     H71399   4.227   2.382   1.317  0.4092  3.6033 -0.4489
  541MOL0     H71400   4.295   2.719   1.637 -0.7531  0.4379  0.2673
  541MOL0     H71401   4.404   2.914   1.743  1.8088 -0.1358  0.3396
  541MOL0     H71402   4.393   3.164   1.707  0.1281 -3.3957 -1.7764
  541MOL0     H71403   4.528   3.283   1.713  1.2688 -0.6770 -0.4330
  541MOL0     H71404   4.477   3.037   1.883  0.3615  1.3707  1.9566
  541MOL0     H71405   4.646   3.081   1.845 -0.2194  0.2494 -1.5559
  541MOL0     H71406   4.464   3.294   1.928 -0.4959 -2.1746 -0.9221
  541MOL0     H71407   4.642   3.290   1.965 -0.4923 -0.0187  4.6916
  541MOL0     H71408   4.432   3.140   2.118 -0.0657  0.8074  2.4472
  541MOL0     H71409   4.615   3.094   2.116  1.5807  1.9274 -0.3032
  541MOL0     H71410   4.556   3.436   2.359 -0.5906  1.2628 -2.1435
  541MOL0     H71411   4.591   3.025   1.374 -1.4698  1.3634 -0.5742
  541MOL0     H71412   4.519   2.804   1.284  0.0259  1.6260 -0.2576
  542MOL0     O71413   2.853   9.918   0.239  0.6123 -0.6427 -0.1535
  542MOL0     C71414   2.862   9.886   0.121  0.1741 -0.0711  0.1568
  542MOL0     O71415   2.830   9.965   0.019 -0.3367  0.0707 -0.8650
  542MOL0     C71416   2.790  10.093   0.042 -0.4004 -0.7015 -0.5513
  542MOL0     C71417   2.891  10.195   0.072 -0.8067 -0.7550 -0.9127
  542MOL0     C71418   2.863  10.337   0.068  0.2954 -0.4168 -0.3339
  542MOL0     C71419   2.733  10.375   0.028  0.2570  0.0796 -0.0679
  542MOL0     O71420   2.681  10.500   0.007  0.2712  0.7974  0.3346
  542MOL0     C71421   2.780  10.603  -0.018  0.9736 -0.1225  0.3503
  542MOL0     C71422   2.718  10.729  -0.081 -0.6730  0.3227  0.3088
  542MOL0     C71423   2.693  10.834   0.012  0.4910 -0.2763 -0.2082
  542MOL0     C71424   2.631  10.965  -0.046  0.7693  0.2240 -0.8368
  542MOL0     C71425   2.496  10.940  -0.096  0.9653  0.9114 -0.0566
  542MOL0     C71426   2.432  11.052  -0.178  0.4407  0.3182  0.2050
  542MOL0     C71427   2.287  11.029  -0.226 -0.3944 -0.4668 -0.4442
  542MOL0     C71428   2.222  11.163  -0.273  0.6696  0.1967  0.3827
  542MOL0     N71429   2.302  11.218  -0.388 -0.4327  0.4537  0.6977
  542MOL0     C71430   2.358  11.159  -0.503 -0.6179  1.3021  0.3178
  542MOL0     C71431   2.442  11.254  -0.563 -0.1068  0.0867  0.1177
  542MOL0     C71432   2.527  11.239  -0.691 -0.1145  0.1974 -0.3191
  542MOL0     C71433   2.456  11.161  -0.793  0.4351  0.8212  0.6726
  542MOL0     C71434   2.548  11.131  -0.911  0.0103 -0.6113 -0.1581
  542MOL0     C71435   2.477  11.014  -0.987 -0.2468 -0.3573 -0.5306
  542MOL0     O71436   2.535  11.010  -1.119 -0.2677 -0.3021 -0.3378
  542MOL0     C71437   2.496  10.916  -1.204  1.0227 -0.1836  0.2382
  542MOL0     C71438   2.539  10.921  -1.336 -0.1431  0.0411  0.8854
  542MOL0     C71439   2.510  10.816  -1.431 -0.0387  0.0799 -0.5535
  542MOL0     C71440   2.433  10.711  -1.392  0.4265 -0.4617 -0.2245
  542MOL0     C71441   2.394  10.591  -1.474 -0.6028  0.9046 -0.3570
  542MOL0     O71442   2.462  10.564  -1.583  0.6017  0.2098  0.1738
  542MOL0     C71443   2.431  10.447  -1.652  1.0945 -0.3954  0.2584
  542MOL0     C71444   2.443  10.327  -1.585 -0.3524  0.2440  0.2226
  542MOL0     C71445   2.423  10.208  -1.673  0.6940  0.9730 -0.2360
  542MOL0     C71446   2.389  10.220  -1.811 -0.0358 -0.6862  0.6847
  542MOL0     O71447   2.368  10.123  -1.901 -0.2843 -0.3081 -0.3371
  542MOL0     C71448   2.359   9.995  -1.840 -0.3006 -0.0888 -0.1993
  542MOL0     C71449   2.388   9.892  -1.959  0.2830  0.0882  0.2199
  542MOL0     C71450   2.345   9.749  -1.921  0.2037  0.5423  0.0696
  542MOL0     C71451   2.447   9.681  -2.013  0.5756  0.7129  0.0692
  542MOL0     C71452   2.426   9.519  -2.029  0.1922 -0.8252  0.7196
  542MOL0     C71453   2.421   9.439  -1.895  0.0036 -0.5610 -0.0350
  542MOL0     C71454   2.456   9.288  -1.896 -0.1494  0.2539  0.1445
  542MOL0     C71455   2.387   9.210  -2.001  0.3500  0.8866  0.0877
  542MOL0    Cl71456   2.206   9.232  -2.046 -0.2789 -0.6898  0.5083
  542MOL0     C71457   2.383  10.352  -1.863 -0.6868 -0.0779  0.4831
  542MOL0     C71458   2.395  10.466  -1.781  0.9264  1.8270 -0.0353
  542MOL0     O71459   2.301  10.520  -1.427  0.3474  0.1991  0.1478
  542MOL0     C71460   2.377  10.709  -1.257  0.7091 -0.7250  0.8928
  542MOL0     C71461   2.407  10.813  -1.165 -0.6633 -0.2792 -0.6037
  542MOL0     N71462   2.434  11.366  -0.476  0.3929  0.4129 -0.1905
  542MOL0     N71463   2.342  11.349  -0.387 -0.6185  0.4181  0.4097
  542MOL0     C71464   2.643  10.274   0.012 -0.5433  1.3960 -0.4684
  542MOL0     C71465   2.665  10.137   0.008 -0.9234  0.1861  0.4377
  542MOL0     C71466   2.877   9.737   0.093  0.2535  0.4096 -0.6328
  542MOL0     C71467   2.873   9.648   0.203  0.6470 -0.0495 -0.0752
  542MOL0     C71468   2.875   9.504   0.188  0.5836 -0.6910  0.2837
  542MOL0     C71469   2.888   9.450   0.054  0.2390  0.3633  0.4225
  542MOL0     O71470   2.903   9.320   0.021 -0.6289 -0.3440  0.0581
  542MOL0     C71471   2.838   9.217   0.100 -0.7728 -1.2178 -0.5514
  542MOL0     C71472   2.808   9.097   0.016  0.0154  0.5946 -0.2780
  542MOL0     C71473   2.689   9.117  -0.077  0.9537 -1.4738  0.1726
  542MOL0     C71474   2.701   8.994  -0.167 -0.6286 -0.3418  0.0143
  542MOL0     C71475   2.594   8.987  -0.262 -0.5935 -0.3001 -0.2265
  542MOL0     C71476   2.497   8.973  -0.333 -0.0927 -0.3852 -0.1656
  542MOL0     C71477   2.884   9.541  -0.052 -0.4423  0.4230  0.0936
  542MOL0     C71478   2.878   9.684  -0.041 -0.5396 -0.2406 -0.5730
  542MOL0     H71479   2.986  10.157   0.109 -1.2461  1.7339  3.4575
  542MOL0     H71480   2.947  10.400   0.096 -1.5002  1.2749  1.5276
  542MOL0     H71481   2.859  10.570  -0.087 -0.4566 -0.8502 -1.0008
  542MOL0     H71482   2.830  10.635   0.074 -1.6347  1.6381  1.2811
  542MOL0     H71483   2.623  10.697  -0.125  1.1577 -2.4339 -1.9927
  542MOL0     H71484   2.784  10.761  -0.163  2.6107  3.4149  3.7686
  542MOL0     H71485   2.777  10.858   0.079 -2.4158 -2.2435  4.6890
  542MOL0     H71486   2.619  10.793   0.081 -0.2363  1.4292  0.0934
  542MOL0     H71487   2.620  11.042   0.031 -1.2683 -0.5806 -0.2711
  542MOL0     H71488   2.703  10.989  -0.125  1.7754 -0.6507 -0.2174
  542MOL0     H71489   2.436  10.903  -0.012  2.3602 -1.3813  0.0032
  542MOL0     H71490   2.499  10.854  -0.162  0.1743 -0.2420  1.3532
  542MOL0     H71491   2.492  11.062  -0.269 -1.1009  4.3538 -0.5812
  542MOL0     H71492   2.437  11.141  -0.116 -1.6880  0.8633 -0.2942
  542MOL0     H71493   2.283  10.954  -0.306  1.1910 -1.2691  0.1760
  542MOL0     H71494   2.223  11.001  -0.142  0.8542  1.4582  1.2621
  542MOL0     H71495   2.220  11.243  -0.198 -2.5153  0.9176 -0.3342
  542MOL0     H71496   2.116  11.160  -0.300  0.9901  1.3827 -1.1504
  542MOL0     H71497   2.337  11.056  -0.529  0.6971  0.8380  1.0581
  542MOL0     H71498   2.619  11.189  -0.660  1.0078  0.6944 -2.6373
  542MOL0     H71499   2.561  11.337  -0.725  1.3759  0.9121  2.8290
  542MOL0     H71500   2.375  11.219  -0.836 -0.2129  0.7000  1.6956
  542MOL0     H71501   2.419  11.070  -0.745 -0.9040  1.7019  1.3502
  542MOL0     H71502   2.555  11.221  -0.973  1.1984 -1.0262 -0.6594
  542MOL0     H71503   2.648  11.091  -0.889 -0.3054 -0.0720  2.6858
  542MOL0     H71504   2.369  11.032  -0.990 -0.0741  0.8260 -0.1504
  542MOL0     H71505   2.488  10.926  -0.923  0.1255  0.7068  0.9253
  542MOL0     H71506   2.613  10.996  -1.366  2.0563 -2.3934 -0.1664
  542MOL0     H71507   2.554  10.809  -1.529 -0.3819  1.0626 -0.7920
  542MOL0     H71508   2.451  10.320  -1.477  0.4418 -5.3543  0.1038
  542MOL0     H71509   2.424  10.114  -1.619  1.5780  0.2635 -1.4387
  542MOL0     H71510   2.264   9.985  -1.788 -0.2235 -0.4524 -0.1205
  542MOL0     H71511   2.430   9.977  -1.758  1.1912  4.3866 -0.2737
  542MOL0     H71512   2.490   9.897  -1.998 -0.4667 -1.7293 -2.2692
  542MOL0     H71513   2.331   9.919  -2.049 -1.8950  0.4216  1.6323
  542MOL0     H71514   2.243   9.725  -1.951  0.5947  0.5138 -1.3501
  542MOL0     H71515   2.374   9.727  -1.818 -3.2449 -2.8010  0.5450
  542MOL0     H71516   2.444   9.730  -2.111 -0.6672  1.4157  0.4379
  542MOL0     H71517   2.544   9.699  -1.966  0.9710  4.4368 -1.8235
  542MOL0     H71518   2.507   9.491  -2.096 -0.1868 -0.2080 -0.0174
  542MOL0     H71519   2.330   9.497  -2.077  1.4178 -2.4353 -1.1387
  542MOL0     H71520   2.316   9.439  -1.866  0.9127 -0.9725  3.7728
  542MOL0     H71521   2.472   9.493  -1.815 -2.4128  3.0534 -0.6737
  542MOL0     H71522   2.563   9.286  -1.919  0.0697  1.9754  0.8655
  542MOL0     H71523   2.450   9.240  -1.798  0.4159 -0.8663 -0.3443
  542MOL0     H71524   2.398   9.107  -1.966 -0.8046  0.6491 -0.2224
  542MOL0     H71525   2.443   9.205  -2.095 -0.1780 -2.9459 -0.1776
  542MOL0     H71526   2.363  10.357  -1.970  0.9192 -2.1679  0.0243
  542MOL0     H71527   2.394  10.569  -1.814 -1.7107  1.5738 -0.9246
  542MOL0     H71528   2.308  10.635  -1.218  0.6024 -0.8327  0.5047
  542MOL0     H71529   2.364  10.802  -1.065 -3.2448 -0.8738 -1.6847
  542MOL0     H71530   2.546  10.301  -0.027 -1.8982 -1.8178  0.3199
  542MOL0     H71531   2.585  10.072  -0.026 -0.6841  0.0699  0.0894
  542MOL0     H71532   2.848   9.683   0.303 -0.9103 -1.7461  0.1717
  542MOL0     H71533   2.883   9.440   0.275 -0.2848  0.0930  0.9565
  542MOL0     H71534   2.742   9.255   0.136 -1.2990 -2.5333 -0.5115
  542MOL0     H71535   2.907   9.187   0.180 -2.5811  0.9014  1.9885
  542MOL0     H71536   2.897   9.058  -0.033  0.5142  0.3726  0.7615
  542MOL0     H71537   2.777   9.018   0.085  2.6520 -1.9583 -1.8171
  542MOL0     H71538   2.700   9.208  -0.136  0.2317 -0.0285  2.1654
  542MOL0     H71539   2.593   9.128  -0.026  2.5659 -0.5415  3.2157
  542MOL0     H71540   2.796   8.996  -0.222  0.3080  0.3246  1.5981
  542MOL0     H71541   2.691   8.914  -0.093 -3.7051  0.5800  0.7518
  542MOL0     H71542   2.406   8.964  -0.388 -1.0793  0.3189  1.3023
  542MOL0     H71543   2.905   9.495  -0.148  0.3715  3.3371 -1.2335
  542MOL0     H71544   2.863   9.736  -0.135 -1.7797 -0.0626 -0.3018
  543MOL0     O71545   2.107  10.693   2.056  0.2844 -0.2586  0.1138
  543MOL0     C71546   2.052  10.605   1.982  0.4298 -1.3137  0.0959
  543MOL0     O71547   2.076  10.471   1.992  0.1412 -0.6057  0.4211
  543MOL0     C71548   2.168  10.404   2.056  0.2161 -0.6350 -0.9765
  543MOL0     C71549   2.150  10.273   2.030 -0.0070 -0.4787  0.6182
  543MOL0     C71550   2.244  10.187   2.075 -0.3142  0.1565 -0.2562
  543MOL0     C71551   2.358  10.222   2.155  0.4593  0.4095  1.1877
  543MOL0     O71552   2.452  10.135   2.201  0.3812  0.7441  0.2113
  543MOL0     C71553   2.401  10.067   2.316 -0.5632  0.7149  0.2089
  543MOL0     C71554   2.401  10.144   2.452  0.4840 -0.2602 -0.3472
  543MOL0     C71555   2.548  10.186   2.488 -0.0902 -0.7879 -0.6583
  543MOL0     C71556   2.556  10.240   2.629 -0.0537 -0.1814  0.7127
  543MOL0     C71557   2.699  10.297   2.661  0.8530 -0.3918  0.1519
  543MOL0     C71558   2.727  10.431   2.604  0.5235 -1.4573 -0.1622
  543MOL0     C71559   2.875  10.459   2.602  0.7464 -0.2442 -0.1178
  543MOL0     C71560   2.914  10.599   2.535 -0.0041  0.6719  0.4389
  543MOL0     N71561   3.060  10.603   2.504  0.0651 -0.2709 -0.0554
  543MOL0     C71562   3.149  10.648   2.605 -0.7605  0.2607  0.9959
  543MOL0     C71563   3.269  10.592   2.562 -0.4100 -0.4714  0.1370
  543MOL0     C71564   3.397  10.605   2.649 -0.4094 -0.2754 -0.4920
  543MOL0     C71565   3.416  10.479   2.742 -0.0337 -1.0666 -1.2034
  543MOL0     C71566   3.446  10.362   2.651 -0.3594 -0.1533 -0.6061
  543MOL0     C71567   3.329  10.256   2.661  0.2072 -0.4345  0.2093
  543MOL0     O71568   3.388  10.143   2.599 -0.5384 -0.0980 -0.4949
  543MOL0     C71569   3.376  10.120   2.465  0.8876 -0.0985  0.9464
  543MOL0     C71570   3.306  10.213   2.383  0.8813  0.8620  0.1773
  543MOL0     C71571   3.270  10.179   2.257 -0.7846 -0.0676 -0.2728
  543MOL0     C71572   3.299  10.051   2.202 -0.4172  0.2835  0.1898
  543MOL0     C71573   3.254  10.022   2.072 -0.6207 -0.2810  0.3700
  543MOL0     O71574   3.261  10.121   1.968  0.2429 -0.4052 -0.0282
  543MOL0     C71575   3.227  10.088   1.840  0.1864  0.4978  1.1462
  543MOL0     C71576   3.111  10.019   1.791  1.0266  0.4532 -0.4827
  543MOL0     C71577   3.088  10.012   1.653  0.5603 -0.1864  0.7083
  543MOL0     C71578   3.172  10.071   1.556  0.7001 -0.8143 -0.9745
  543MOL0     O71579   3.158  10.036   1.424 -0.0337 -0.5874 -0.0311
  543MOL0     C71580   3.216  10.119   1.331 -0.4955  0.7507 -0.8690
  543MOL0     C71581   3.140  10.115   1.197 -0.5247  0.7856  0.0961
  543MOL0     C71582   3.021  10.205   1.212 -0.4086  1.3731 -0.4001
  543MOL0     C71583   3.066  10.347   1.180 -1.2586  0.8111  0.0581
  543MOL0     C71584   2.946  10.442   1.189 -0.2522 -0.3036 -0.0461
  543MOL0     C71585   2.985  10.572   1.123 -0.2531  0.0482  0.2274
  543MOL0     C71586   2.876  10.661   1.071  0.6920  0.5995 -0.1220
  543MOL0     C71587   2.814  10.746   1.172  0.3488 -0.8610 -0.2030
  543MOL0    Cl71588   2.936  10.853   1.237  0.0519  0.5869 -0.0286
  543MOL0     C71589   3.269  10.147   1.611 -0.0768 -0.4691  0.0076
  543MOL0     C71590   3.296  10.162   1.746  1.0029 -1.0386 -0.1322
  543MOL0     O71591   3.249   9.900   2.049 -0.0688 -0.8978  0.3346
  543MOL0     C71592   3.380   9.965   2.282 -0.6338 -0.5753 -0.1885
  543MOL0     C71593   3.419  10.006   2.406 -0.1930 -0.3112  0.3158
  543MOL0     N71594   3.249  10.516   2.449 -0.2665  0.4791 -0.7546
  543MOL0     N71595   3.127  10.524   2.414  0.2860  0.8649  0.0317
  543MOL0     C71596   2.359  10.353   2.197  0.5455  0.0913 -0.2451
  543MOL0     C71597   2.280  10.445   2.137 -0.5520  0.8094 -0.0288
  543MOL0     C71598   1.929  10.630   1.915  1.3895 -0.0241 -0.3351
  543MOL0     C71599   1.853  10.522   1.855  0.0515 -0.2001  0.1289
  543MOL0     C71600   1.723  10.540   1.810 -0.2284 -0.4720  0.7550
  543MOL0     C71601   1.667  10.668   1.816 -0.6587 -0.1651 -0.2578
  543MOL0     O71602   1.542  10.703   1.773  0.4269 -0.3986  0.7083
  543MOL0     C71603   1.465  10.598   1.741  0.3298  0.6552  0.3380
  543MOL0     C71604   1.327  10.643   1.687 -0.5934 -1.1816 -0.1676
  543MOL0     C71605   1.249  10.519   1.644 -0.5803  0.2299 -0.0761
  543MOL0     C71606   1.099  10.544   1.613 -0.5798  0.0076 -0.0881
  543MOL0     C71607   1.019  10.567   1.744 -0.5962  0.7612  0.5204
  543MOL0     C71608   0.953  10.586   1.840 -0.2325 -0.1275 -0.3946
  543MOL0     C71609   1.739  10.772   1.878  0.1618 -0.3102  0.3653
  543MOL0     C71610   1.866  10.755   1.926  0.0958  1.4278 -0.2486
  543MOL0     H71611   2.077  10.246   1.954  0.2596  0.5358 -0.0271
  543MOL0     H71612   2.233  10.084   2.044 -5.0854  0.2405  0.3847
  543MOL0     H71613   2.450   9.970   2.322  0.3621  1.1911  0.6392
  543MOL0     H71614   2.295  10.042   2.301 -0.8519 -0.7994  3.8255
  543MOL0     H71615   2.367  10.059   2.513  0.2493 -0.2898 -0.5141
  543MOL0     H71616   2.332  10.227   2.469  1.3361  0.6839 -1.3234
  543MOL0     H71617   2.575  10.261   2.412  2.0155 -0.7271  0.0894
  543MOL0     H71618   2.614  10.099   2.484 -1.4902 -2.1364  2.3609
  543MOL0     H71619   2.476  10.313   2.635  1.6507  2.3191 -3.1307
  543MOL0     H71620   2.531  10.149   2.685  0.0615 -2.2870 -2.3836
  543MOL0     H71621   2.774  10.235   2.612  0.7714 -0.1385 -0.3028
  543MOL0     H71622   2.703  10.310   2.770 -2.7261  1.3198  0.2661
  543MOL0     H71623   2.685  10.496   2.681  0.0246 -1.6926 -0.2295
  543MOL0     H71624   2.676  10.447   2.509  0.4876 -1.8991 -0.2190
  543MOL0     H71625   2.911  10.457   2.705 -0.3555 -0.2584  0.2871
  543MOL0     H71626   2.927  10.381   2.546 -4.4272 -2.3971 -2.6430
  543MOL0     H71627   2.877  10.681   2.596 -1.9664  0.0656  0.1430
  543MOL0     H71628   2.861  10.597   2.439 -0.4284 -0.1212  0.6732
  543MOL0     H71629   3.117  10.710   2.687 -2.0826 -0.6040  1.1680
  543MOL0     H71630   3.384  10.693   2.713  2.9457  1.6318 -2.1977
  543MOL0     H71631   3.486  10.617   2.586  1.8225 -1.4310  2.1926
  543MOL0     H71632   3.336  10.460   2.814 -1.2073 -1.2509 -2.5241
  543MOL0     H71633   3.502  10.494   2.809 -1.0702 -0.5842  0.0688
  543MOL0     H71634   3.465  10.395   2.549  0.2635  4.4353  0.7776
  543MOL0     H71635   3.532  10.302   2.684  0.3373  1.3685  0.4599
  543MOL0     H71636   3.233  10.283   2.617 -0.3907 -3.0205 -0.2548
  543MOL0     H71637   3.314  10.228   2.765 -0.3597  3.4747  1.3200
  543MOL0     H71638   3.258  10.306   2.411  1.1725  1.1357 -0.2096
  543MOL0     H71639   3.213  10.247   2.194  0.5011 -0.0348 -1.4597
  543MOL0     H71640   3.052   9.968   1.866  2.3694  5.0040  4.2639
  543MOL0     H71641   3.013   9.943   1.615 -0.6967  1.3665  0.2019
  543MOL0     H71642   3.318  10.080   1.319 -0.2129  1.5450 -1.1310
  543MOL0     H71643   3.221  10.221   1.372 -2.5941  1.2604 -1.7528
  543MOL0     H71644   3.120  10.010   1.176 -1.4270  0.5778  1.8755
  543MOL0     H71645   3.203  10.145   1.112 -1.1287 -4.0632 -2.3921
  543MOL0     H71646   2.999  10.202   1.319 -1.0312  1.8936 -0.5047
  543MOL0     H71647   2.941  10.154   1.158 -0.9287  1.1464  0.5651
  543MOL0     H71648   3.145  10.378   1.249  0.6867  2.1935 -2.5802
  543MOL0     H71649   3.107  10.342   1.079 -1.9247  1.9115 -0.2926
  543MOL0     H71650   2.918  10.458   1.294  0.8333  2.3250 -0.0688
  543MOL0     H71651   2.867  10.389   1.136  0.1719 -3.9314  2.5650
  543MOL0     H71652   3.053  10.561   1.037  1.0476  0.4947  1.1714
  543MOL0     H71653   3.038  10.632   1.197  1.2832 -3.2788  2.0485
  543MOL0     H71654   2.912  10.727   0.992 -1.0948 -0.4730 -1.9345
  543MOL0     H71655   2.791  10.609   1.025 -0.0220  2.5946 -1.1902
  543MOL0     H71656   2.779  10.692   1.260 -0.3495 -1.8159 -1.0335
  543MOL0     H71657   2.721  10.792   1.139  0.8397  0.1874 -0.1559
  543MOL0     H71658   3.347  10.202   1.561 -0.4153 -0.2614 -0.3009
  543MOL0     H71659   3.377  10.225   1.781 -0.0284 -0.0601  0.5613
  543MOL0     H71660   3.415   9.868   2.246 -2.3875 -0.5552 -2.0747
  543MOL0     H71661   3.477   9.936   2.464  0.4565 -0.0869 -0.0461
  543MOL0     H71662   2.442  10.386   2.260 -0.3854  0.4202  0.8448
  543MOL0     H71663   2.290  10.544   2.181  4.3464  1.1892 -1.4285
  543MOL0     H71664   1.897  10.424   1.841 -0.7081 -0.7954  1.7115
  543MOL0     H71665   1.672  10.453   1.770 -2.2905  0.8715  0.3111
  543MOL0     H71666   1.451  10.523   1.819  1.0362 -2.7258 -2.5017
  543MOL0     H71667   1.511  10.549   1.654 -1.5636 -1.2520  0.3224
  543MOL0     H71668   1.275  10.701   1.763  2.0819  3.1537 -1.3343
  543MOL0     H71669   1.326  10.710   1.601 -2.9349  1.4747  1.7639
  543MOL0     H71670   1.262  10.428   1.704  2.6229 -0.3110 -1.4155
  543MOL0     H71671   1.272  10.492   1.540  0.2240  1.5071 -0.2395
  543MOL0     H71672   1.077  10.634   1.554  1.2311 -0.2317 -1.2277
  543MOL0     H71673   1.056  10.463   1.552 -4.0362  1.3801  0.2848
  543MOL0     H71674   0.879  10.603   1.916 -0.7351 -2.9276 -0.1320
  543MOL0     H71675   1.703  10.874   1.873  0.3494 -0.3030 -1.6274
  543MOL0     H71676   1.916  10.842   1.966 -2.5241  2.4222  1.1137
  544MOL0     O71677   9.071   1.240   4.102  0.1852  0.1929 -0.1322
  544MOL0     C71678   9.107   1.314   4.190  0.7590 -0.3601  0.6083
  544MOL0     O71679   9.190   1.421   4.159 -0.0984 -0.5328 -0.9182
  544MOL0     C71680   9.264   1.419   4.043 -0.0983 -1.7237 -0.8135
  544MOL0     C71681   9.254   1.534   3.969  0.0961  0.3122 -1.3169
  544MOL0     C71682   9.305   1.543   3.838  0.9365  0.5787  0.2279
  544MOL0     C71683   9.379   1.426   3.781  0.1573 -0.1076 -0.5452
  544MOL0     O71684   9.408   1.404   3.649 -0.2717 -0.0672 -0.6396
  544MOL0     C71685   9.326   1.472   3.553 -0.1699  0.4982 -0.0285
  544MOL0     C71686   9.384   1.602   3.500  1.2672 -0.9580 -0.2571
  544MOL0     C71687   9.535   1.584   3.483 -0.0251 -0.4285 -0.2994
  544MOL0     C71688   9.585   1.720   3.425  0.2535 -0.9042  0.2146
  544MOL0     C71689   9.736   1.717   3.373  0.3285 -0.0091 -0.6215
  544MOL0     C71690   9.831   1.639   3.456  0.1510 -0.1163  0.9913
  544MOL0     C71691   9.866   1.699   3.588 -0.1368  0.7615  0.1840
  544MOL0     C71692   9.979   1.801   3.565 -0.1831  0.5439  0.1904
  544MOL0     N71693  10.024   1.872   3.676  0.0945  0.9328  0.1178
  544MOL0     C71694   9.964   1.986   3.728  0.1604 -0.6730  0.2707
  544MOL0     C71695  10.053   2.046   3.812  0.6766  1.3596  0.1180
  544MOL0     C71696  10.041   2.174   3.886  0.2681  0.0932 -0.3714
  544MOL0     C71697  10.151   2.205   3.994 -0.7959  0.3235  0.3331
  544MOL0     C71698  10.144   2.116   4.111  0.7140  0.1080 -0.3707
  544MOL0     C71699  10.249   2.149   4.210  0.6180 -0.1325  0.6939
  544MOL0     O71700  10.195   2.257   4.285  0.1457  0.1757  0.3938
  544MOL0     C71701  10.287   2.307   4.369 -0.8097  0.8399  0.2928
  544MOL0     C71702  10.393   2.389   4.337  0.5932 -0.7433 -0.3610
  544MOL0     C71703  10.487   2.433   4.431 -0.4160 -0.1818 -0.0784
  544MOL0     C71704  10.473   2.396   4.564 -0.4827 -0.4212 -0.1867
  544MOL0     C71705  10.575   2.433   4.666 -1.5812  0.5364  0.9066
  544MOL0     O71706  10.530   2.431   4.797  0.0919  0.3645 -0.3001
  544MOL0     C71707  10.600   2.511   4.893 -0.9084  0.8971  0.5555
  544MOL0     C71708  10.590   2.452   5.022 -0.2174  0.6961  0.5669
  544MOL0     C71709  10.662   2.505   5.126 -0.2539  0.7372 -0.1201
  544MOL0     C71710  10.753   2.609   5.100 -0.5009  0.3403  0.6876
  544MOL0     O71711  10.838   2.659   5.202 -0.1755 -0.5046  0.8317
  544MOL0     C71712  10.873   2.566   5.308  0.6856 -0.5999 -0.4218
  544MOL0     C71713  10.982   2.631   5.393  0.7979  0.0487 -0.1264
  544MOL0     C71714  11.082   2.703   5.300 -0.4926 -0.8282 -0.0714
  544MOL0     C71715  11.199   2.774   5.366  0.4009 -0.3969  0.6023
  544MOL0     C71716  11.296   2.674   5.438 -0.1439 -0.5729  0.1109
  544MOL0     C71717  11.414   2.747   5.489  1.1055 -0.3495 -0.0987
  544MOL0     C71718  11.387   2.813   5.623  0.5200  0.4825  0.1493
  544MOL0     C71719  11.493   2.902   5.666 -0.3212  0.8776  0.1801
  544MOL0    Cl71720  11.456   3.006   5.800 -0.0870 -0.2049 -0.1801
  544MOL0     C71721  10.766   2.663   4.971  0.3617  0.5547 -0.8771
  544MOL0     C71722  10.683   2.615   4.865 -0.4865 -0.0438 -0.6496
  544MOL0     O71723  10.679   2.481   4.628  0.4673  0.4333  0.6352
  544MOL0     C71724  10.373   2.310   4.596  0.3294  0.4754  0.0112
  544MOL0     C71725  10.275   2.271   4.503 -0.4381 -0.3675  0.5588
  544MOL0     N71726  10.173   1.978   3.797  0.5893  0.3402 -0.1929
  544MOL0     N71727  10.155   1.869   3.727  0.4959 -0.5311  0.2599
  544MOL0     C71728   9.397   1.315   3.870  0.0172 -0.2264  0.1800
  544MOL0     C71729   9.345   1.311   3.995 -0.9063 -0.3384 -1.1067
  544MOL0     C71730   9.038   1.307   4.317  1.1765 -0.0988  0.6386
  544MOL0     C71731   9.004   1.185   4.361  0.5165  0.2857 -0.3615
  544MOL0     C71732   8.921   1.164   4.478 -1.3496 -0.4322 -0.6180
  544MOL0     C71733   8.885   1.281   4.542  0.8287  0.5145 -0.4280
  544MOL0     O71734   8.824   1.270   4.669  0.3787 -0.0147 -0.0665
  544MOL0     C71735   8.741   1.366   4.723 -0.1143  0.1411  0.1613
  544MOL0     C71736   8.607   1.387   4.647 -0.4091 -0.1854  0.0264
  544MOL0     C71737   8.544   1.526   4.674  1.0421 -0.5686 -0.1196
  544MOL0     C71738   8.391   1.508   4.664 -0.8022  0.2243 -0.6213
  544MOL0     C71739   8.311   1.631   4.694 -0.4966  0.0938  0.6780
  544MOL0     C71740   8.239   1.726   4.726  0.4698  0.6086  0.3362
  544MOL0     C71741   8.907   1.414   4.484  0.7229  0.4346  0.4722
  544MOL0     C71742   8.980   1.422   4.371 -0.2440  0.4106  0.9223
  544MOL0     H71743   9.185   1.609   4.008 -0.9369  0.5028 -3.3443
  544MOL0     H71744   9.279   1.629   3.777 -1.4418  0.0002  0.3012
  544MOL0     H71745   9.219   1.478   3.576  0.0097  1.4389  0.6062
  544MOL0     H71746   9.326   1.399   3.471 -2.2955  1.2785 -0.8094
  544MOL0     H71747   9.342   1.679   3.566  1.7752 -0.7757 -0.1428
  544MOL0     H71748   9.336   1.617   3.403 -1.6742  0.4605  1.2881
  544MOL0     H71749   9.553   1.494   3.425 -1.6596 -1.5850  0.8829
  544MOL0     H71750   9.580   1.570   3.582  0.7459 -1.2153 -0.7578
  544MOL0     H71751   9.525   1.751   3.340  1.9828 -2.9526 -1.9138
  544MOL0     H71752   9.579   1.803   3.495 -1.5693  2.1268 -3.2206
  544MOL0     H71753   9.763   1.823   3.368 -2.8232  0.8897 -0.4231
  544MOL0     H71754   9.748   1.689   3.268 -1.0497  3.0129 -1.6866
  544MOL0     H71755   9.928   1.625   3.406  0.1346  2.0068  0.2906
  544MOL0     H71756   9.783   1.542   3.473 -0.6603 -0.0642 -0.7652
  544MOL0     H71757   9.786   1.740   3.650 -0.5164 -0.9696  0.8850
  544MOL0     H71758   9.916   1.619   3.644  1.4268  0.3513 -1.6791
  544MOL0     H71759   9.938   1.886   3.509  0.1711  2.5505  2.7755
  544MOL0     H71760  10.073   1.769   3.520  0.0024 -1.6469  2.0024
  544MOL0     H71761   9.867   2.031   3.707  0.3568 -0.3086  0.1508
  544MOL0     H71762   9.942   2.169   3.931 -1.2648  2.5209 -3.0475
  544MOL0     H71763  10.036   2.257   3.814 -1.6471 -1.1937 -1.8227
  544MOL0     H71764  10.125   2.308   4.018 -1.3767  0.7281 -1.8145
  544MOL0     H71765  10.252   2.204   3.952  0.0312  4.5683  1.7230
  544MOL0     H71766  10.042   2.126   4.151  1.8633  1.0018  2.6034
  544MOL0     H71767  10.162   2.011   4.084 -0.3016 -0.4620  1.0145
  544MOL0     H71768  10.341   2.185   4.162  0.0751 -0.0148 -0.2720
  544MOL0     H71769  10.256   2.062   4.275  0.6562 -1.5467 -1.1198
  544MOL0     H71770  10.404   2.427   4.236 -1.7130 -0.5340 -0.5911
  544MOL0     H71771  10.572   2.491   4.398  1.4011 -3.4235 -1.6040
  544MOL0     H71772  10.518   2.372   5.039  0.4311 -0.8117 -2.8514
  544MOL0     H71773  10.658   2.459   5.224  1.4425  0.3161 -0.2173
  544MOL0     H71774  10.913   2.473   5.268 -0.9800 -1.0704 -1.0716
  544MOL0     H71775  10.781   2.542   5.362  1.4814  0.1277  1.3310
  544MOL0     H71776  11.036   2.557   5.454  1.5259  1.9365  1.6329
  544MOL0     H71777  10.932   2.693   5.467  4.2752  0.0913  2.4675
  544MOL0     H71778  11.035   2.784   5.245 -0.7551  1.1450  2.8128
  544MOL0     H71779  11.121   2.626   5.234 -1.3953  0.0194 -1.6413
  544MOL0     H71780  11.261   2.824   5.291 -0.0853  1.4442  1.3722
  544MOL0     H71781  11.159   2.848   5.436 -0.2086  1.0971 -1.2423
  544MOL0     H71782  11.336   2.619   5.352  3.9032  0.7184  0.9675
  544MOL0     H71783  11.256   2.615   5.521  1.9083  3.7595  4.6517
  544MOL0     H71784  11.452   2.827   5.424  0.6868 -1.1841 -1.4166
  544MOL0     H71785  11.500   2.681   5.500  0.2095 -1.6092 -0.4134
  544MOL0     H71786  11.300   2.876   5.601  2.8574  2.8404 -3.3723
  544MOL0     H71787  11.374   2.735   5.699 -2.3007 -0.6945 -1.3787
  544MOL0     H71788  11.535   2.956   5.581  1.3339 -3.8097 -2.3592
  544MOL0     H71789  11.578   2.837   5.688 -0.5377  1.1362  1.9585
  544MOL0     H71790  10.846   2.736   4.964  1.8352 -0.2952  3.9496
  544MOL0     H71791  10.692   2.660   4.767  1.8130 -0.7519 -0.8093
  544MOL0     H71792  10.372   2.269   4.697  0.8426 -1.5845 -0.7761
  544MOL0     H71793  10.199   2.197   4.524 -0.8756 -1.2114 -3.3160
  544MOL0     H71794   9.439   1.227   3.824 -2.5482 -0.6128 -1.6695
  544MOL0     H71795   9.339   1.216   4.048  0.5281 -0.0685 -0.4191
  544MOL0     H71796   9.030   1.098   4.301 -3.1170 -1.8390  0.8215
  544MOL0     H71797   8.878   1.069   4.509 -0.2699 -0.3846  1.1590
  544MOL0     H71798   8.787   1.465   4.715 -0.6284  0.2935 -1.2919
  544MOL0     H71799   8.726   1.346   4.829 -2.0673  2.1934  0.3564
  544MOL0     H71800   8.627   1.388   4.540 -1.8528  1.5563 -0.2738
  544MOL0     H71801   8.534   1.310   4.674 -2.5799  1.8038  0.1515
  544MOL0     H71802   8.582   1.599   4.603  3.6629 -0.5883  1.1185
  544MOL0     H71803   8.573   1.571   4.769  0.1584  1.0673 -0.5907
  544MOL0     H71804   8.365   1.485   4.560 -4.7684 -0.4415  0.3745
  544MOL0     H71805   8.341   1.437   4.730 -2.4608  1.0749 -0.8927
  544MOL0     H71806   8.198   1.821   4.753 -3.4504  0.5001 -3.8988
  544MOL0     H71807   8.872   1.511   4.520 -1.5814  1.3034 -3.5028
  544MOL0     H71808   8.985   1.518   4.322 -0.8236  0.0946  0.2228
  545MOL0     O71809   9.666   6.780   5.682 -0.1984  0.0969 -0.8070
  545MOL0     C71810   9.744   6.705   5.623  0.8051 -0.1215 -0.5620
  545MOL0     O71811   9.781   6.718   5.494 -0.2646 -0.2448  0.2029
  545MOL0     C71812   9.729   6.821   5.420 -0.2658  0.4475 -0.8387
  545MOL0     C71813   9.797   6.937   5.405 -0.1087  0.7535  0.5643
  545MOL0     C71814   9.740   7.017   5.310 -0.2279 -0.4535  0.2151
  545MOL0     C71815   9.619   7.000   5.257  0.1638 -0.4401  0.2361
  545MOL0     O71816   9.578   7.104   5.177 -0.1974 -0.0409  0.3892
  545MOL0     C71817   9.438   7.119   5.172 -0.6679 -0.1942  0.5141
  545MOL0     C71818   9.398   7.259   5.111 -0.0201  0.7365 -0.3963
  545MOL0     C71819   9.399   7.361   5.224  0.5022 -0.4603  1.4548
  545MOL0     C71820   9.343   7.504   5.181  0.1927  0.1638  0.0292
  545MOL0     C71821   9.419   7.610   5.277 -0.3817  0.1056 -0.5076
  545MOL0     C71822   9.369   7.743   5.243  0.3142 -1.0146  0.3319
  545MOL0     C71823   9.461   7.856   5.310  0.6561  0.3423  1.4114
  545MOL0     C71824   9.578   7.915   5.216  0.2836 -0.1516  0.1053
  545MOL0     N71825   9.668   7.819   5.166  0.4573  0.1918  0.6448
  545MOL0     C71826   9.657   7.738   5.054  1.0363  0.6852 -0.7178
  545MOL0     C71827   9.773   7.674   5.035 -0.6324  0.3922  0.5044
  545MOL0     C71828   9.801   7.568   4.939 -0.0711  0.7910  0.5145
  545MOL0     C71829   9.883   7.596   4.805 -0.4806  1.0717  0.3173
  545MOL0     C71830  10.010   7.672   4.838  0.7435  0.6605 -0.9977
  545MOL0     C71831  10.120   7.613   4.921  0.0475  1.4208 -0.3355
  545MOL0     O71832  10.180   7.496   4.863 -0.1811  1.0221 -0.2793
  545MOL0     C71833  10.281   7.431   4.923 -1.1614  0.7404 -0.8092
  545MOL0     C71834  10.320   7.455   5.051  0.2337 -0.4683  0.5491
  545MOL0     C71835  10.409   7.367   5.117 -0.2476  0.1637  0.2399
  545MOL0     C71836  10.454   7.249   5.057  0.4851 -0.3902  0.3799
  545MOL0     C71837  10.552   7.151   5.118 -0.8277 -0.9109 -0.3124
  545MOL0     O71838  10.548   7.131   5.254  0.3951 -0.2392 -0.6720
  545MOL0     C71839  10.654   7.069   5.313  0.6869  0.4560  0.0017
  545MOL0     C71840  10.770   7.142   5.350 -0.0697 -0.7364 -0.0019
  545MOL0     C71841  10.887   7.075   5.391 -0.6082  0.5194  0.4913
  545MOL0     C71842  10.878   6.936   5.421 -0.6657 -0.9345  0.0271
  545MOL0     O71843  10.985   6.856   5.470  0.5707 -0.7358 -0.7808
  545MOL0     C71844  10.946   6.748   5.555 -0.1206 -0.2605  0.0956
  545MOL0     C71845  11.051   6.691   5.648  0.2500 -0.9627 -0.6714
  545MOL0     C71846  11.185   6.670   5.584 -0.8395  0.0257 -0.5572
  545MOL0     C71847  11.280   6.621   5.687  0.2498 -0.5133 -0.2062
  545MOL0     C71848  11.421   6.589   5.630 -0.0244 -1.0441 -0.3397
  545MOL0     C71849  11.534   6.595   5.740  0.0864 -0.5233  0.2102
  545MOL0     C71850  11.537   6.478   5.837 -0.0642 -0.8251  0.9742
  545MOL0     C71851  11.545   6.335   5.787  0.3404  0.1620 -1.0909
  545MOL0    Cl71852  11.521   6.239   5.934  0.1547  0.1660  0.3767
  545MOL0     C71853  10.762   6.868   5.379  0.0081 -0.5283 -0.9846
  545MOL0     C71854  10.655   6.927   5.330  0.0158 -1.0941 -0.6664
  545MOL0     O71855  10.640   7.102   5.045 -0.1970 -0.0758  0.1508
  545MOL0     C71856  10.409   7.218   4.929 -0.7237  0.2689  0.0832
  545MOL0     C71857  10.334   7.314   4.860 -0.7356 -0.3549  0.3238
  545MOL0     N71858   9.871   7.736   5.118  0.8186  0.6080  0.3068
  545MOL0     N71859   9.800   7.805   5.206  0.1489 -0.0721  0.6360
  545MOL0     C71860   9.555   6.879   5.273 -0.0602  0.6934  0.7645
  545MOL0     C71861   9.619   6.781   5.346  1.6074  0.5930  0.6835
  545MOL0     C71862   9.806   6.598   5.708  0.4947  0.1677  0.8384
  545MOL0     C71863   9.791   6.584   5.851 -0.2106  0.1192  0.3690
  545MOL0     C71864   9.861   6.490   5.930 -0.6859  0.5519  0.2372
  545MOL0     C71865   9.947   6.407   5.867  0.0919 -0.9709 -0.1762
  545MOL0     O71866  10.010   6.327   5.955 -1.5981  0.7147 -0.3959
  545MOL0     C71867  10.155   6.308   5.922  0.4941 -0.0324 -0.6947
  545MOL0     C71868  10.215   6.250   6.046 -0.2388  0.1879 -0.3347
  545MOL0     C71869  10.332   6.166   6.006  0.3995 -0.6136  0.4819
  545MOL0     C71870  10.423   6.154   6.124 -0.8946  0.9421  1.2534
  545MOL0     C71871  10.555   6.097   6.074  0.7427 -0.0562  0.1959
  545MOL0     C71872  10.652   6.063   6.004  0.8268 -0.6565  0.0630
  545MOL0     C71873   9.963   6.416   5.729 -0.1261  0.3905  0.4233
  545MOL0     C71874   9.899   6.516   5.646  0.5228  0.8037 -0.5539
  545MOL0     H71875   9.891   6.967   5.449  0.4898 -0.8387  0.4388
  545MOL0     H71876   9.797   7.109   5.296  0.3889 -1.2527 -4.1255
  545MOL0     H71877   9.386   7.101   5.266  0.6532  1.5239  1.6371
  545MOL0     H71878   9.399   7.048   5.099 -1.4278 -0.4470  1.1632
  545MOL0     H71879   9.301   7.244   5.061 -0.6960 -0.9822  1.3378
  545MOL0     H71880   9.470   7.297   5.038  0.0753  2.2585  0.4428
  545MOL0     H71881   9.505   7.368   5.251  0.9655  1.3975 -0.6751
  545MOL0     H71882   9.346   7.327   5.314 -0.9102  2.1240  1.6810
  545MOL0     H71883   9.359   7.521   5.074 -0.2648  0.8077  0.0595
  545MOL0     H71884   9.235   7.512   5.193  0.1726  2.6963 -1.1506
  545MOL0     H71885   9.525   7.595   5.253 -0.2406  0.8916 -0.4112
  545MOL0     H71886   9.417   7.585   5.383  3.9560 -1.9944 -0.7096
  545MOL0     H71887   9.267   7.756   5.281 -0.0907  0.5763 -1.1848
  545MOL0     H71888   9.382   7.758   5.136 -1.1757  3.6144  0.5692
  545MOL0     H71889   9.402   7.942   5.343 -0.8066  0.5992 -1.5012
  545MOL0     H71890   9.512   7.823   5.401  0.7090  0.6981  1.5105
  545MOL0     H71891   9.638   7.988   5.272  0.3196 -0.6982  0.7960
  545MOL0     H71892   9.533   7.965   5.130  0.1701  1.2072  0.9255
  545MOL0     H71893   9.559   7.726   5.010  0.8029  2.0890 -0.6292
  545MOL0     H71894   9.708   7.517   4.911  0.1156 -0.0285  1.3287
  545MOL0     H71895   9.856   7.493   4.997 -0.9903  0.0064  0.4136
  545MOL0     H71896   9.825   7.660   4.738 -1.7854  0.1069  0.4863
  545MOL0     H71897   9.919   7.502   4.763  1.8024 -0.3688  4.8409
  545MOL0     H71898  10.054   7.703   4.743 -4.3116  5.3729 -2.3427
  545MOL0     H71899   9.978   7.765   4.886  1.5938  0.3572  0.1969
  545MOL0     H71900  10.092   7.574   5.019  0.7646 -1.0509 -1.0166
  545MOL0     H71901  10.198   7.688   4.940  0.9310  0.9085 -1.7170
  545MOL0     H71902  10.278   7.544   5.097 -1.3468  0.0146 -1.6898
  545MOL0     H71903  10.442   7.388   5.218  1.1501 -0.4440 -0.0647
  545MOL0     H71904  10.777   7.250   5.346 -0.2324 -0.5902  2.3361
  545MOL0     H71905  10.981   7.129   5.387  0.2958 -0.9197  1.3670
  545MOL0     H71906  10.920   6.670   5.483 -2.1661  1.4709 -1.1723
  545MOL0     H71907  10.857   6.780   5.610  0.0090  0.7129 -0.2394
  545MOL0     H71908  11.015   6.601   5.700 -0.9052 -0.8465 -1.2381
  545MOL0     H71909  11.072   6.768   5.723  0.6960 -0.2007 -1.5575
  545MOL0     H71910  11.225   6.758   5.532 -2.9924  0.5126 -1.4908
  545MOL0     H71911  11.169   6.604   5.499  1.8338  0.3885 -1.4402
  545MOL0     H71912  11.274   6.680   5.779 -0.6975 -3.7286  1.9961
  545MOL0     H71913  11.241   6.522   5.714  1.7285 -1.2440 -0.5852
  545MOL0     H71914  11.434   6.662   5.550 -0.3758 -1.0191 -0.3768
  545MOL0     H71915  11.423   6.485   5.595 -3.5183 -1.0613 -0.7908
  545MOL0     H71916  11.525   6.684   5.802 -0.6121 -1.4177  1.4499
  545MOL0     H71917  11.624   6.593   5.677  0.4536 -2.3435  0.7184
  545MOL0     H71918  11.613   6.496   5.913  2.4545 -2.4257 -0.9860
  545MOL0     H71919  11.441   6.480   5.890 -1.4999  1.9665 -1.3757
  545MOL0     H71920  11.641   6.299   5.750  0.1704 -0.6140 -0.7885
  545MOL0     H71921  11.478   6.326   5.701  0.5526  3.3871 -1.7223
  545MOL0     H71922  10.742   6.765   5.403 -1.7322  0.0458  0.2077
  545MOL0     H71923  10.573   6.865   5.296  0.2303 -2.3172  0.9369
  545MOL0     H71924  10.432   7.122   4.884 -1.0896  0.6744 -0.9976
  545MOL0     H71925  10.303   7.301   4.757 -0.4499 -2.3914  0.4689
  545MOL0     H71926   9.463   6.851   5.224  0.6482 -2.3644  0.9327
  545MOL0     H71927   9.569   6.687   5.365  2.0694 -0.0432 -1.0024
  545MOL0     H71928   9.722   6.656   5.895  0.7034  1.1414  0.1675
  545MOL0     H71929   9.847   6.488   6.038 -0.0356  2.4887  0.3864
  545MOL0     H71930  10.201   6.404   5.895 -2.1044  2.9059  3.9997
  545MOL0     H71931  10.157   6.241   5.836  0.9365 -0.5615 -0.2785
  545MOL0     H71932  10.243   6.335   6.108 -3.5417  0.1212  1.4465
  545MOL0     H71933  10.144   6.188   6.101 -1.7288  2.7216  0.7743
  545MOL0     H71934  10.400   6.222   5.941 -1.9487  0.5045 -1.1117
  545MOL0     H71935  10.316   6.073   5.951 -1.7913 -0.7491  1.2493
  545MOL0     H71936  10.463   6.251   6.153  0.3546  0.7036  0.4271
  545MOL0     H71937  10.389   6.098   6.212 -0.0333  1.5825  2.0127
  545MOL0     H71938  10.745   6.047   5.953  1.2444  1.5850  0.0182
  545MOL0     H71939  10.032   6.351   5.675  1.2450  3.8301 -2.4365
  545MOL0     H71940   9.933   6.540   5.545 -2.6408  0.6465 -1.7609
  546MOL0     O71941   7.923   7.184   5.976  0.3566 -0.2563  0.9329
  546MOL0     C71942   8.024   7.149   6.037 -0.2918  0.0006 -0.1269
  546MOL0     O71943   8.139   7.106   5.970 -0.4199 -1.0749 -0.0726
  546MOL0     C71944   8.164   7.158   5.847  0.1237 -0.4435 -0.1101
  546MOL0     C71945   8.214   7.078   5.751  0.7614  0.0664  0.3604
  546MOL0     C71946   8.240   7.121   5.619  0.6026 -1.5249 -0.1323
  546MOL0     C71947   8.213   7.260   5.583 -0.6634 -0.1482 -0.6776
  546MOL0     O71948   8.217   7.312   5.450  0.0254 -0.3581 -1.0141
  546MOL0     C71949   8.256   7.446   5.437 -0.3604 -0.2106  0.0602
  546MOL0     C71950   8.326   7.461   5.298  0.8659 -1.0178  0.6310
  546MOL0     C71951   8.218   7.477   5.181 -0.4911 -0.7509 -0.4175
  546MOL0     C71952   8.280   7.473   5.037  0.0108  1.2233  0.3099
  546MOL0     C71953   8.333   7.334   5.000  0.3918  0.5258  0.5680
  546MOL0     C71954   8.241   7.209   4.998  0.4118 -0.7087  0.0412
  546MOL0     C71955   8.324   7.079   4.964  0.2279 -0.2746  0.0018
  546MOL0     C71956   8.349   7.070   4.819  0.2579 -0.0988 -0.7810
  546MOL0     N71957   8.228   7.037   4.736  0.0614  1.8770  0.5401
  546MOL0     C71958   8.145   7.128   4.674 -0.5160  0.6303  0.8146
  546MOL0     C71959   8.060   7.044   4.600 -0.2425  0.0067  1.4887
  546MOL0     C71960   7.950   7.090   4.504  0.8894  0.3660 -0.2997
  546MOL0     C71961   7.992   7.169   4.384  0.1477 -0.1859 -0.9243
  546MOL0     C71962   8.110   7.116   4.304  0.4756 -0.2399 -0.1597
  546MOL0     C71963   8.165   7.215   4.208  0.6723  0.7146 -0.2571
  546MOL0     O71964   8.089   7.212   4.079 -0.1306 -0.0347 -0.0287
  546MOL0     C71965   8.140   7.280   3.979  0.7039  0.7565  0.1584
  546MOL0     C71966   8.284   7.262   3.937  0.3204  0.1675  0.3356
  546MOL0     C71967   8.329   7.340   3.826 -0.4302  1.1013 -0.1721
  546MOL0     C71968   8.239   7.429   3.756 -0.4220  0.4896 -0.7192
  546MOL0     C71969   8.304   7.513   3.641  1.1273  0.6290  0.1234
  546MOL0     O71970   8.426   7.488   3.587  0.0079 -0.3161 -0.2799
  546MOL0     C71971   8.461   7.547   3.469  0.6720 -0.8425 -0.5477
  546MOL0     C71972   8.433   7.474   3.348 -0.2933  0.5011 -1.1827
  546MOL0     C71973   8.463   7.527   3.226 -0.0803  0.0386 -0.2832
  546MOL0     C71974   8.514   7.655   3.211 -0.7302 -0.2601 -0.1168
  546MOL0     O71975   8.540   7.715   3.090  0.0373 -0.4404 -0.3873
  546MOL0     C71976   8.667   7.681   3.037  0.1062 -0.3448 -0.4322
  546MOL0     C71977   8.666   7.672   2.886  0.1436 -0.5840  0.9008
  546MOL0     C71978   8.589   7.544   2.829  0.0601  0.5322 -0.0146
  546MOL0     C71979   8.648   7.398   2.853 -0.3981 -0.0543 -0.6215
  546MOL0     C71980   8.549   7.296   2.788  0.8056  0.1765  0.5217
  546MOL0     C71981   8.534   7.290   2.631 -0.3298 -0.2051  0.0509
  546MOL0     C71982   8.447   7.165   2.599 -0.6077 -0.6669  0.7942
  546MOL0     C71983   8.441   7.142   2.448 -0.4551 -0.4265  0.5196
  546MOL0    Cl71984   8.406   6.976   2.425 -0.0672 -0.5649 -0.5838
  546MOL0     C71985   8.521   7.731   3.331 -0.5431  0.4287  0.4465
  546MOL0     C71986   8.492   7.680   3.456 -0.2934  0.6713 -0.4422
  546MOL0     O71987   8.219   7.592   3.601 -0.3890 -0.0964 -0.7784
  546MOL0     C71988   8.103   7.430   3.792 -0.1368  1.1066 -0.0101
  546MOL0     C71989   8.059   7.362   3.904  0.8683  0.2741  0.2949
  546MOL0     N71990   8.103   6.916   4.631  0.3223  0.6495 -0.1937
  546MOL0     N71991   8.197   6.914   4.712  0.5390 -0.4214  0.1185
  546MOL0     C71992   8.171   7.343   5.684 -0.2700 -0.4426 -1.8148
  546MOL0     C71993   8.148   7.295   5.816  0.8417  0.2547 -0.3053
  546MOL0     C71994   8.022   7.130   6.191 -0.0248 -0.1093  0.8065
  546MOL0     C71995   7.914   7.075   6.256 -0.5980 -0.5242 -0.1449
  546MOL0     C71996   7.917   7.064   6.394  0.9048 -1.4001 -0.5519
  546MOL0     C71997   8.024   7.107   6.468  0.4609 -0.7625  0.8125
  546MOL0     O71998   8.021   7.112   6.610 -0.1743  0.2164 -0.2493
  546MOL0     C71999   7.906   7.060   6.684  0.3557 -0.3932 -0.1571
  546MOL0     C72000   7.959   7.008   6.808  0.3398 -0.2663 -0.2372
  546MOL0     C72001   7.849   6.939   6.896  0.1771  0.4310  0.0160
  546MOL0     C72002   7.906   6.843   6.998 -0.4268 -0.0990 -0.6197
  546MOL0     C72003   7.915   6.709   6.943  0.6200 -0.3370 -0.4111
  546MOL0     C72004   7.926   6.597   6.898  0.2070 -0.4950 -0.9721
  546MOL0     C72005   8.125   7.176   6.401  0.9674 -0.4755  0.0217
  546MOL0     C72006   8.124   7.183   6.267 -0.6240 -0.0939  0.7791
  546MOL0     H72007   8.223   6.972   5.775 -0.1887 -0.2693 -0.6892
  546MOL0     H72008   8.269   7.060   5.534  0.3004 -2.1016  0.1732
  546MOL0     H72009   8.340   7.464   5.505 -1.4807  0.2237  1.3795
  546MOL0     H72010   8.167   7.510   5.447 -0.6543 -0.8921  2.7236
  546MOL0     H72011   8.408   7.390   5.282  2.6180  0.4713  2.4709
  546MOL0     H72012   8.365   7.563   5.304 -1.2187  0.1232 -2.6657
  546MOL0     H72013   8.149   7.558   5.208  1.2115 -0.1176  2.5446
  546MOL0     H72014   8.152   7.391   5.197 -2.2161  0.9893  2.7539
  546MOL0     H72015   8.201   7.509   4.970 -2.8465 -0.6568  2.4343
  546MOL0     H72016   8.369   7.536   5.030  1.4018 -0.7462 -0.9222
  546MOL0     H72017   8.419   7.321   5.066  0.8975  4.2825  0.8633
  546MOL0     H72018   8.384   7.331   4.903 -0.5458 -0.9286  0.0780
  546MOL0     H72019   8.159   7.225   4.928  1.5366 -0.0641 -1.1694
  546MOL0     H72020   8.201   7.194   5.099 -1.0590 -2.2080 -0.7303
  546MOL0     H72021   8.409   7.094   5.030 -0.8939  3.1392  0.8733
  546MOL0     H72022   8.274   6.987   4.997 -0.7193  0.4395  0.5808
  546MOL0     H72023   8.422   6.991   4.801 -1.9513 -2.1249 -1.2395
  546MOL0     H72024   8.396   7.158   4.773  3.0649 -0.2318  1.5292
  546MOL0     H72025   8.145   7.235   4.696 -0.4313  0.6523  0.7120
  546MOL0     H72026   7.887   7.152   4.569 -2.5252 -1.8005 -1.3082
  546MOL0     H72027   7.889   7.005   4.474  0.7976  0.9662 -1.9027
  546MOL0     H72028   8.015   7.270   4.420 -0.0439 -0.3070 -0.4581
  546MOL0     H72029   7.907   7.169   4.314 -2.0431  1.3052  1.5642
  546MOL0     H72030   8.178   7.090   4.385  1.4384 -0.3776 -0.9986
  546MOL0     H72031   8.084   7.027   4.245 -2.0119  0.2153  0.1197
  546MOL0     H72032   8.268   7.185   4.185  0.0210 -4.1352  1.8602
  546MOL0     H72033   8.143   7.317   4.240 -0.5447  0.2327  0.5461
  546MOL0     H72034   8.364   7.214   3.992  0.3295  0.6489  0.7577
  546MOL0     H72035   8.433   7.322   3.806 -0.5585 -0.7231  0.6098
  546MOL0     H72036   8.395   7.373   3.359  1.0884  0.1584  1.2594
  546MOL0     H72037   8.437   7.464   3.141 -1.9601 -1.2406  1.1587
  546MOL0     H72038   8.707   7.589   3.081  2.5957  1.5264  1.4992
  546MOL0     H72039   8.743   7.755   3.062  2.6584 -2.6986 -0.7395
  546MOL0     H72040   8.767   7.660   2.846  0.3016  0.4997  0.9460
  546MOL0     H72041   8.621   7.762   2.841  1.8350 -1.4502 -2.9683
  546MOL0     H72042   8.570   7.565   2.723 -0.9186  2.1807  0.4514
  546MOL0     H72043   8.491   7.540   2.877  1.2228 -0.6460  2.4408
  546MOL0     H72044   8.747   7.399   2.806 -0.0322 -0.3602  0.1270
  546MOL0     H72045   8.658   7.372   2.959 -0.5916 -0.3979 -0.6847
  546MOL0     H72046   8.447   7.315   2.823  0.0803 -0.5062 -1.0852
  546MOL0     H72047   8.575   7.194   2.816 -2.2986 -0.8431  0.1093
  546MOL0     H72048   8.631   7.281   2.582  0.6529  1.7012  1.5518
  546MOL0     H72049   8.481   7.378   2.594 -1.4402 -1.2825 -1.0607
  546MOL0     H72050   8.476   7.069   2.643 -1.1654 -2.2403 -2.0573
  546MOL0     H72051   8.347   7.174   2.644 -0.5566  1.5601  0.6103
  546MOL0     H72052   8.535   7.165   2.396  0.1892 -2.0931  0.8634
  546MOL0     H72053   8.359   7.194   2.399  0.8640  0.1818 -1.1671
  546MOL0     H72054   8.558   7.833   3.317  0.4642 -0.0935 -0.9138
  546MOL0     H72055   8.492   7.732   3.551  3.0959 -1.4385  0.8825
  546MOL0     H72056   8.023   7.481   3.739 -1.0066 -0.2794 -0.0748
  546MOL0     H72057   7.955   7.376   3.931  0.7244  0.8963 -0.5403
  546MOL0     H72058   8.153   7.448   5.662 -1.7207  0.5266  2.9470
  546MOL0     H72059   8.097   7.362   5.885 -1.3912 -1.6515  0.0186
  546MOL0     H72060   7.823   7.044   6.205 -0.3342  0.7467 -1.4516
  546MOL0     H72061   7.827   7.019   6.434  0.9934 -1.0412  0.0652
  546MOL0     H72062   7.864   6.976   6.628 -1.8797 -0.4011  1.3974
  546MOL0     H72063   7.834   7.139   6.705  2.1107  0.9123  1.2091
  546MOL0     H72064   8.035   6.936   6.776  0.7128  0.1267 -0.2339
  546MOL0     H72065   8.001   7.092   6.864  1.9728 -0.8812 -0.4766
  546MOL0     H72066   7.776   6.890   6.830  1.6082 -0.8606 -0.6854
  546MOL0     H72067   7.792   7.021   6.939 -2.1892 -1.5281  0.8646
  546MOL0     H72068   8.000   6.891   7.027 -2.3848  2.9113  1.2217
  546MOL0     H72069   7.831   6.848   7.077 -2.3548 -0.1347 -2.3699
  546MOL0     H72070   7.908   6.500   6.858 -1.0222 -0.7079  0.0731
  546MOL0     H72071   8.207   7.230   6.447 -0.0906  1.4208 -0.2233
  546MOL0     H72072   8.202   7.232   6.209 -2.8154  1.0619 -1.4215
  547MOL0     O72073   1.807   7.445   7.104  0.6173  0.3629  0.8943
  547MOL0     C72074   1.790   7.346   7.035 -0.2457 -0.5982  0.4555
  547MOL0     O72075   1.875   7.239   7.016  0.3837  0.5473  0.4132
  547MOL0     C72076   2.009   7.246   7.053  0.6324 -0.2466  0.5640
  547MOL0     C72077   2.087   7.359   7.028 -0.2489  0.3657 -0.2759
  547MOL0     C72078   2.225   7.365   7.043 -0.3497 -0.1966  0.3264
  547MOL0     C72079   2.299   7.251   7.058  0.0028  0.3274  0.0405
  547MOL0     O72080   2.440   7.241   7.043 -0.2566  0.2503 -0.2383
  547MOL0     C72081   2.520   7.351   7.025  0.4627  0.7080  1.1603
  547MOL0     C72082   2.606   7.360   7.140 -0.9239  0.3959 -0.1541
  547MOL0     C72083   2.532   7.348   7.271 -0.6194 -0.1692 -0.2044
  547MOL0     C72084   2.436   7.459   7.300  0.9008  0.3180  0.1481
  547MOL0     C72085   2.500   7.580   7.382 -0.2537  0.4669 -0.0517
  547MOL0     C72086   2.491   7.570   7.543  0.5932 -0.7190 -0.3428
  547MOL0     C72087   2.582   7.664   7.597 -0.6875 -0.2145 -0.1826
  547MOL0     C72088   2.598   7.658   7.754  0.1092 -0.4877  0.6851
  547MOL0     N72089   2.706   7.740   7.804  0.5770 -0.0626  0.2145
  547MOL0     C72090   2.707   7.875   7.784  0.0759  0.5173 -0.4031
  547MOL0     C72091   2.837   7.910   7.823 -0.0960  0.4449 -0.1677
  547MOL0     C72092   2.875   8.046   7.863 -1.2259  0.4536  0.2818
  547MOL0     C72093   2.760   8.144   7.900 -1.4000 -0.4129  1.0941
  547MOL0     C72094   2.798   8.290   7.897  0.3806 -1.1710  0.2421
  547MOL0     C72095   2.902   8.311   8.005  0.2119 -0.5637 -0.4715
  547MOL0     O72096   2.940   8.453   8.008 -0.1865 -0.0634 -0.3629
  547MOL0     C72097   3.007   8.497   8.115  1.1544  0.8874  0.6416
  547MOL0     C72098   3.035   8.630   8.129 -0.4150  0.5513 -0.0579
  547MOL0     C72099   3.090   8.673   8.248 -0.0758  0.3866  0.7095
  547MOL0     C72100   3.150   8.583   8.345  0.2651  0.1969 -0.5554
  547MOL0     C72101   3.226   8.634   8.462  0.2401 -0.0110  0.5527
  547MOL0     O72102   3.301   8.740   8.442  0.2390  0.1861 -0.1173
  547MOL0     C72103   3.370   8.782   8.556  0.8247  0.1274  0.2837
  547MOL0     C72104   3.499   8.818   8.544  0.3446 -0.4121  0.6298
  547MOL0     C72105   3.581   8.854   8.651  0.4083  0.1433 -0.2954
  547MOL0     C72106   3.523   8.867   8.772 -0.2475  1.3858 -0.1516
  547MOL0     O72107   3.602   8.906   8.883  0.1612 -0.1007 -0.3326
  547MOL0     C72108   3.588   8.809   8.990 -0.2185 -0.9008  0.2037
  547MOL0     C72109   3.678   8.846   9.115 -0.4159  0.3599  0.0259
  547MOL0     C72110   3.830   8.848   9.102 -0.1469  0.0805  0.2013
  547MOL0     C72111   3.902   8.824   9.234  0.0021 -0.6184  0.0603
  547MOL0     C72112   3.895   8.951   9.313  0.2535 -0.2047  0.4372
  547MOL0     C72113   3.994   8.953   9.422  0.6587 -0.6993  0.0006
  547MOL0     C72114   3.975   9.079   9.507  0.1099  0.3455 -0.3435
  547MOL0     C72115   4.083   9.108   9.608  1.0113 -0.2924  0.1416
  547MOL0    Cl72116   4.028   9.227   9.735 -0.4163 -0.0301 -0.1969
  547MOL0     C72117   3.392   8.834   8.786  1.1089 -0.1516 -0.1040
  547MOL0     C72118   3.308   8.800   8.683 -0.4376 -0.2180 -0.7476
  547MOL0     O72119   3.223   8.569   8.562  0.2275  0.0487 -0.0868
  547MOL0     C72120   3.120   8.448   8.334 -0.7058 -0.1698  0.3998
  547MOL0     C72121   3.053   8.408   8.212  1.0311  0.1039  0.2472
  547MOL0     N72122   2.909   7.797   7.850  0.3343 -0.0512  0.0548
  547MOL0     N72123   2.826   7.693   7.838 -0.2375  0.2281 -0.3798
  547MOL0     C72124   2.223   7.132   7.087 -0.0572 -0.7213  0.3210
  547MOL0     C72125   2.079   7.132   7.084  0.6373  0.0296 -0.0093
  547MOL0     C72126   1.653   7.350   6.978  0.1697 -1.7881 -0.4848
  547MOL0     C72127   1.577   7.229   6.963 -0.7622 -0.1230 -1.1350
  547MOL0     C72128   1.451   7.215   6.907 -1.0865 -0.5763 -0.0528
  547MOL0     C72129   1.386   7.333   6.871 -0.9476 -0.2853 -0.1482
  547MOL0     O72130   1.261   7.328   6.824 -0.5884 -0.1805 -0.6092
  547MOL0     C72131   1.202   7.450   6.765  0.2525  0.4290  0.0219
  547MOL0     C72132   1.054   7.415   6.735  1.2293 -0.5300 -0.4441
  547MOL0     C72133   0.962   7.436   6.860  0.1777 -0.6369  0.4258
  547MOL0     C72134   0.809   7.468   6.818 -0.7080  0.8035  0.2890
  547MOL0     C72135   0.795   7.603   6.767 -1.3629 -0.6994  0.1861
  547MOL0     C72136   0.778   7.724   6.731 -0.8902  0.6161 -0.6475
  547MOL0     C72137   1.459   7.460   6.877 -0.5152  0.5730 -0.6981
  547MOL0     C72138   1.588   7.464   6.935 -0.3752  0.4552 -0.6430
  547MOL0     H72139   2.043   7.453   6.997  0.4871  1.6641  2.3753
  547MOL0     H72140   2.278   7.458   7.023 -0.0910  0.3934  3.2840
  547MOL0     H72141   2.458   7.440   7.021 -5.0579 -2.7113 -0.9676
  547MOL0     H72142   2.580   7.325   6.937 -0.1536  1.1460  0.6055
  547MOL0     H72143   2.669   7.450   7.141  2.0168 -1.4850 -1.5930
  547MOL0     H72144   2.682   7.282   7.147 -1.9506 -0.4963  1.5318
  547MOL0     H72145   2.601   7.334   7.354  0.7440  1.9663 -0.9035
  547MOL0     H72146   2.471   7.258   7.262  1.1868 -1.2266 -4.9679
  547MOL0     H72147   2.399   7.502   7.206 -1.1348  0.5527  1.0183
  547MOL0     H72148   2.349   7.403   7.337  1.7250 -0.9666  0.1953
  547MOL0     H72149   2.466   7.680   7.352  0.0266  1.5374  2.9239
  547MOL0     H72150   2.607   7.581   7.360  0.4368 -2.8956  2.4438
  547MOL0     H72151   2.511   7.464   7.563  0.6086 -0.6810 -0.1598
  547MOL0     H72152   2.388   7.590   7.574  1.0106  0.1810  0.5043
  547MOL0     H72153   2.678   7.646   7.548  1.0966  2.8791  1.7800
  547MOL0     H72154   2.544   7.761   7.561  0.4724  0.1252 -0.5437
  547MOL0     H72155   2.624   7.556   7.785 -1.2755 -1.2736 -0.6305
  547MOL0     H72156   2.503   7.686   7.800 -1.0523 -1.8010 -0.7874
  547MOL0     H72157   2.619   7.934   7.760 -2.0057 -1.7949  1.0780
  547MOL0     H72158   2.917   8.086   7.770 -4.7026 -1.9366 -2.5613
  547MOL0     H72159   2.948   8.042   7.944 -0.4403  0.4947 -0.4030
  547MOL0     H72160   2.717   8.111   7.995 -1.1046  1.8001  2.0611
  547MOL0     H72161   2.697   8.131   7.812  2.2391 -1.3159 -1.6298
  547MOL0     H72162   2.836   8.321   7.799  0.3672 -0.4932  0.4459
  547MOL0     H72163   2.709   8.353   7.908 -0.1192 -1.1242 -3.0033
  547MOL0     H72164   2.984   8.239   7.994 -0.4312 -1.4105  0.2009
  547MOL0     H72165   2.859   8.280   8.101 -0.0260 -0.6811 -0.6182
  547MOL0     H72166   2.999   8.697   8.052  4.0471  1.4373 -1.6372
  547MOL0     H72167   3.095   8.780   8.263 -3.9929  0.9688 -1.0005
  547MOL0     H72168   3.536   8.812   8.442 -0.1829  1.7387  0.2736
  547MOL0     H72169   3.684   8.883   8.632 -0.2686  1.2865 -2.5290
  547MOL0     H72170   3.609   8.707   8.955 -1.2172  0.0882 -3.7776
  547MOL0     H72171   3.487   8.792   9.031  0.4458 -1.4009  1.7018
  547MOL0     H72172   3.666   8.760   9.182  2.9518 -0.6240 -0.4790
  547MOL0     H72173   3.646   8.934   9.171 -2.5385 -0.2317 -0.1728
  547MOL0     H72174   3.848   8.949   9.065 -0.6792 -0.3599 -1.3477
  547MOL0     H72175   3.854   8.773   9.027  0.6034  0.4901  0.0226
  547MOL0     H72176   3.863   8.738   9.289  0.8307 -1.2131 -0.2539
  547MOL0     H72177   4.001   8.780   9.214  0.7903  1.4277 -0.7720
  547MOL0     H72178   3.794   8.971   9.351 -0.8756 -0.6668 -2.0651
  547MOL0     H72179   3.922   9.039   9.253 -0.0973  1.9701  3.2729
  547MOL0     H72180   4.089   8.955   9.369  0.6775  0.5356  0.0611
  547MOL0     H72181   4.003   8.871   9.495  1.3250  0.7329  1.5843
  547MOL0     H72182   3.972   9.161   9.435 -0.8512 -0.8749 -1.7410
  547MOL0     H72183   3.886   9.077   9.571  0.0558  3.5037 -0.1812
  547MOL0     H72184   4.172   9.146   9.558 -1.7299  4.5808 -1.6561
  547MOL0     H72185   4.103   9.011   9.654 -0.6655 -0.9567 -0.4494
  547MOL0     H72186   3.357   8.835   8.888 -3.3373 -5.4592 -1.0759
  547MOL0     H72187   3.206   8.769   8.704  0.7943 -2.6019  2.5547
  547MOL0     H72188   3.150   8.380   8.413 -2.4274 -0.1765  1.0916
  547MOL0     H72189   3.021   8.305   8.205 -1.9775  0.8894  0.8975
  547MOL0     H72190   2.280   7.043   7.110 -0.7930 -1.0243  1.0381
  547MOL0     H72191   2.015   7.050   7.115 -2.8807  2.6211  0.2225
  547MOL0     H72192   1.624   7.141   7.007 -1.1640 -0.4216 -1.2979
  547MOL0     H72193   1.399   7.120   6.904  1.8996 -2.3783  0.9005
  547MOL0     H72194   1.256   7.463   6.671  1.8161  0.6927  0.9284
  547MOL0     H72195   1.222   7.548   6.810  0.6211  1.4073 -2.1686
  547MOL0     H72196   1.021   7.472   6.647 -0.2920 -1.4790 -0.5261
  547MOL0     H72197   1.052   7.310   6.704  5.6476 -0.3736 -1.8780
  547MOL0     H72198   1.000   7.523   6.913 -0.0442  1.0344 -2.0211
  547MOL0     H72199   0.966   7.342   6.917  1.4763 -1.5716 -1.0954
  547MOL0     H72200   0.768   7.398   6.745 -0.6433  0.7829  0.2721
  547MOL0     H72201   0.738   7.459   6.901 -2.3532 -0.0883 -1.1673
  547MOL0     H72202   0.780   7.826   6.700  4.7983  1.0712  0.0784
  547MOL0     H72203   1.426   7.559   6.845  1.1680  2.3266  2.4527
  547MOL0     H72204   1.649   7.554   6.941 -1.0451  0.8805 -0.1285
  548MOL0     O72205   8.013   3.690  10.315 -0.0813  1.0287  0.2112
  548MOL0     C72206   8.130   3.663  10.335 -0.0551 -0.3825 -0.1707
  548MOL0     O72207   8.183   3.541  10.348 -0.2372  0.0048  0.7149
  548MOL0     C72208   8.116   3.445  10.421  1.2774 -0.3131  0.3719
  548MOL0     C72209   8.098   3.320  10.372  0.5083  1.0926 -0.3485
  548MOL0     C72210   8.002   3.225  10.425  0.4335  0.5109  0.1239
  548MOL0     C72211   7.937   3.263  10.545 -0.7188  0.0854 -0.7857
  548MOL0     O72212   7.856   3.160  10.603  0.0685  0.3917  0.2226
  548MOL0     C72213   7.800   3.174  10.732 -0.0696 -0.4185 -0.2388
  548MOL0     C72214   7.696   3.052  10.773 -0.8087  0.1774 -0.2624
  548MOL0     C72215   7.573   3.051  10.685  0.1671 -0.0727  0.3247
  548MOL0     C72216   7.494   2.919  10.710  0.3191 -0.1929 -0.0745
  548MOL0     C72217   7.559   2.788  10.673 -0.0853  0.2584  1.0359
  548MOL0     C72218   7.597   2.787  10.523  0.2127  0.7449  0.4956
  548MOL0     C72219   7.500   2.825  10.408  0.2753 -0.4437 -0.6264
  548MOL0     C72220   7.397   2.720  10.371 -0.1702 -0.1225  0.6025
  548MOL0     N72221   7.315   2.780  10.265 -0.6866 -0.6524 -0.5548
  548MOL0     C72222   7.209   2.868  10.275  1.0289  0.6014 -0.8651
  548MOL0     C72223   7.163   2.885  10.145 -0.0713  0.4259  1.0687
  548MOL0     C72224   7.036   2.951  10.101 -0.0183  0.3481 -0.2583
  548MOL0     C72225   6.912   2.874  10.121  0.4995 -0.2273 -0.3610
  548MOL0     C72226   6.887   2.755  10.035 -1.0720  0.2207 -0.8212
  548MOL0     C72227   6.830   2.794   9.896 -0.0379  0.2987  0.1837
  548MOL0     O72228   6.693   2.822   9.891  0.1186  0.1499 -0.2990
  548MOL0     C72229   6.616   2.713   9.878 -0.2535 -0.2552 -0.1665
  548MOL0     C72230   6.647   2.576   9.898  0.0894 -0.6408 -0.2682
  548MOL0     C72231   6.552   2.477   9.882 -0.8701 -0.7262  0.3796
  548MOL0     C72232   6.425   2.498   9.819 -0.0609  0.7086  0.6453
  548MOL0     C72233   6.339   2.388   9.781 -0.7582  1.0740  1.0483
  548MOL0     O72234   6.237   2.418   9.699 -0.2574  0.8013  0.3749
  548MOL0     C72235   6.151   2.315   9.653 -0.0382  0.0211  0.1030
  548MOL0     C72236   6.139   2.284   9.520  0.4622  0.0213 -0.5150
  548MOL0     C72237   6.045   2.181   9.478 -0.2711 -0.2929  0.0146
  548MOL0     C72238   5.975   2.113   9.581 -0.1127  1.2772  0.5141
  548MOL0     O72239   5.878   2.019   9.552  0.6537  0.5058 -0.1993
  548MOL0     C72240   5.890   1.942   9.428 -0.2307 -1.1025 -0.4497
  548MOL0     C72241   5.808   2.019   9.318  0.0427 -0.2575 -0.4979
  548MOL0     C72242   5.869   1.964   9.188 -0.0439  0.3570  0.0994
  548MOL0     C72243   5.805   2.019   9.061  0.2864 -0.3620  0.5725
  548MOL0     C72244   5.860   1.994   8.912 -0.7902 -0.5704 -0.0402
  548MOL0     C72245   5.840   1.848   8.871 -1.1507 -0.3061  0.4453
  548MOL0     C72246   5.922   1.812   8.742  0.1246 -0.1019 -0.7742
  548MOL0     C72247   5.875   1.683   8.687  0.2316 -0.2563  0.9598
  548MOL0    Cl72248   5.930   1.650   8.515 -0.0022 -0.5447 -0.3351
  548MOL0     C72249   5.990   2.149   9.711 -1.0803  0.2029 -0.1669
  548MOL0     C72250   6.070   2.248   9.745 -0.6991 -0.2380  0.3978
  548MOL0     O72251   6.359   2.274   9.828  0.4614  0.2290  0.6116
  548MOL0     C72252   6.389   2.631   9.809  0.0409 -0.3356  0.5666
  548MOL0     C72253   6.489   2.729   9.833  0.4419 -0.8712 -0.4824
  548MOL0     N72254   7.245   2.809  10.067 -0.0410 -0.5219  0.4745
  548MOL0     N72255   7.329   2.738  10.135  0.8156  0.4283 -0.4990
  548MOL0     C72256   7.967   3.382  10.602 -0.0629 -0.6598  0.7011
  548MOL0     C72257   8.044   3.479  10.537 -0.0756  0.2915 -0.7299
  548MOL0     C72258   8.223   3.777  10.341  0.1867 -0.4555  0.7129
  548MOL0     C72259   8.348   3.766  10.405 -0.4751 -0.5835  0.1656
  548MOL0     C72260   8.439   3.874  10.406 -0.4001  0.3292  0.5511
  548MOL0     C72261   8.414   3.988  10.328 -0.3128 -0.1465  0.1230
  548MOL0     O72262   8.519   4.075  10.319  0.5260 -0.3762 -0.3573
  548MOL0     C72263   8.508   4.201  10.259 -0.2633  0.2041 -0.3612
  548MOL0     C72264   8.497   4.197  10.108 -0.5620 -0.5874  1.0472
  548MOL0     C72265   8.602   4.295  10.050 -0.0733 -0.0530  0.3227
  548MOL0     C72266   8.622   4.297   9.892  0.0128 -0.0180 -1.1121
  548MOL0     C72267   8.684   4.178   9.843  0.0572  0.4200 -0.3075
  548MOL0     C72268   8.736   4.079   9.795  0.0468 -0.1232 -0.3359
  548MOL0     C72269   8.290   4.006  10.278  0.3862 -1.4247 -0.5739
  548MOL0     C72270   8.203   3.896  10.280 -0.2412 -0.1910  0.7638
  548MOL0     H72271   8.153   3.292  10.283 -1.5880 -1.5906 -0.9481
  548MOL0     H72272   7.995   3.125  10.382  2.2826  0.7350 -0.8199
  548MOL0     H72273   7.740   3.265  10.725 -3.0944 -2.3377 -0.8935
  548MOL0     H72274   7.879   3.192  10.806  0.0665 -0.0989 -0.4624
  548MOL0     H72275   7.674   3.081  10.876  4.4539  2.5408  0.5417
  548MOL0     H72276   7.747   2.955  10.772 -2.1522 -0.5557  0.2142
  548MOL0     H72277   7.611   3.063  10.583  0.2811 -1.6313  0.1510
  548MOL0     H72278   7.503   3.132  10.706 -0.1322 -0.3426  0.3697
  548MOL0     H72279   7.468   2.907  10.816  3.2208 -1.3127  0.6060
  548MOL0     H72280   7.395   2.928  10.665 -0.9230  0.5100  2.5909
  548MOL0     H72281   7.479   2.714  10.685 -1.2149  1.7010  3.1862
  548MOL0     H72282   7.641   2.768  10.743 -0.8549  1.6974  2.4203
  548MOL0     H72283   7.641   2.689  10.504 -0.0508  0.3595  1.7226
  548MOL0     H72284   7.677   2.860  10.514  0.2959  0.7227  1.0209
  548MOL0     H72285   7.449   2.920  10.425  0.7829 -0.1003 -0.9889
  548MOL0     H72286   7.575   2.838  10.330 -0.5441  1.0283 -1.2087
  548MOL0     H72287   7.322   2.704  10.449 -2.5287 -1.0498 -1.7272
  548MOL0     H72288   7.436   2.623  10.339  3.1544  1.0625  0.6851
  548MOL0     H72289   7.169   2.911  10.367  0.3322 -1.1056 -0.3424
  548MOL0     H72290   7.056   2.970   9.995 -2.5008 -2.7532 -1.4364
  548MOL0     H72291   7.031   3.055  10.136 -0.6908 -0.3812  1.9111
  548MOL0     H72292   6.820   2.934  10.117  0.5133  0.7003  5.4067
  548MOL0     H72293   6.914   2.838  10.224 -2.2944 -2.0671 -0.8246
  548MOL0     H72294   6.986   2.708  10.025 -0.1755  1.9341 -0.4641
  548MOL0     H72295   6.821   2.678  10.075  0.0544 -0.4579 -0.2284
  548MOL0     H72296   6.864   2.712   9.832 -1.9128 -1.5262  1.3942
  548MOL0     H72297   6.877   2.884   9.855 -0.0603 -0.4192 -1.5042
  548MOL0     H72298   6.737   2.536   9.945  0.6874 -0.9323 -1.6279
  548MOL0     H72299   6.575   2.377   9.917 -0.2429 -1.0964 -1.0437
  548MOL0     H72300   6.200   2.343   9.452  0.2630  0.4283 -0.3443
  548MOL0     H72301   6.032   2.151   9.374 -0.3179  2.6457 -0.9083
  548MOL0     H72302   5.851   1.841   9.445  0.2617 -1.2230 -0.0189
  548MOL0     H72303   5.990   1.924   9.388  1.0658  5.6441 -1.4100
  548MOL0     H72304   5.825   2.127   9.321 -0.6051 -0.1600 -0.2345
  548MOL0     H72305   5.703   1.998   9.339 -0.0720  1.5552  1.1029
  548MOL0     H72306   5.834   1.861   9.197 -2.1331  1.1161  1.3032
  548MOL0     H72307   5.978   1.959   9.190 -0.0405  0.1860 -0.3617
  548MOL0     H72308   5.701   1.987   9.064 -0.1619  0.7626 -1.0826
  548MOL0     H72309   5.811   2.127   9.077  1.7266 -0.0218 -1.7604
  548MOL0     H72310   5.963   2.031   8.914 -0.9017 -0.1947  2.2371
  548MOL0     H72311   5.808   2.063   8.845 -0.1977 -0.1804 -0.1087
  548MOL0     H72312   5.734   1.833   8.849 -0.5593 -1.1697 -2.1036
  548MOL0     H72313   5.876   1.785   8.954 -2.1962 -2.0561 -0.3777
  548MOL0     H72314   5.902   1.879   8.658 -1.6770  1.3767  0.7516
  548MOL0     H72315   6.028   1.819   8.769  0.0058  0.2252 -0.3892
  548MOL0     H72316   5.767   1.695   8.683  0.3965  1.8556  1.5102
  548MOL0     H72317   5.903   1.598   8.750 -1.9860 -0.2412  2.0583
  548MOL0     H72318   5.945   2.106   9.800 -0.6212 -0.7971 -0.4019
  548MOL0     H72319   6.083   2.268   9.850  1.2991 -2.3260  0.6233
  548MOL0     H72320   6.285   2.658   9.793 -0.5144 -0.9021  2.9160
  548MOL0     H72321   6.453   2.831   9.822  0.2662 -0.5085  2.6898
  548MOL0     H72322   7.902   3.401  10.688 -0.6189 -0.9319  0.3462
  548MOL0     H72323   8.043   3.583  10.568 -2.6605  0.8619 -2.4067
  548MOL0     H72324   8.369   3.671  10.454 -0.0794 -1.6909 -2.0145
  548MOL0     H72325   8.531   3.845  10.456 -0.2815 -1.5628 -0.6747
  548MOL0     H72326   8.603   4.252  10.280 -0.5111  0.6817 -0.3889
  548MOL0     H72327   8.435   4.262  10.313  0.0727  0.6836 -0.4425
  548MOL0     H72328   8.508   4.099  10.063  0.5689  0.7996 -1.9577
  548MOL0     H72329   8.393   4.225  10.087 -0.4383 -0.6531  0.3202
  548MOL0     H72330   8.695   4.283  10.107 -1.1682  2.3735  2.8851
  548MOL0     H72331   8.547   4.388  10.070 -2.8843 -1.6252  0.3867
  548MOL0     H72332   8.526   4.309   9.841 -0.7016  2.2239  0.6220
  548MOL0     H72333   8.692   4.375   9.861  3.4776 -3.1115 -1.8622
  548MOL0     H72334   8.789   3.995   9.755  1.8849  0.3008  1.0890
  548MOL0     H72335   8.266   4.094  10.219  0.5036  0.0336  1.4372
  548MOL0     H72336   8.111   3.903  10.223  1.5430  0.1473 -2.3441
  549MOL0     O72337   4.824   9.893   5.389 -0.0338  0.1405  0.3448
  549MOL0     C72338   4.722   9.955   5.401 -0.1393 -0.5253  0.6630
  549MOL0     O72339   4.700  10.092   5.370 -0.2308 -0.0925 -0.3851
  549MOL0     C72340   4.808  10.166   5.338 -0.7439 -0.3746 -0.2757
  549MOL0     C72341   4.818  10.194   5.202  0.5707  0.1925  0.7991
  549MOL0     C72342   4.909  10.290   5.156 -0.1260 -0.1439  0.2857
  549MOL0     C72343   4.996  10.356   5.243 -0.5028  0.0166 -0.7273
  549MOL0     O72344   5.077  10.455   5.199 -0.2133  0.2467  0.6216
  549MOL0     C72345   5.211  10.414   5.183 -0.0330  0.2388 -0.6967
  549MOL0     C72346   5.241  10.347   5.049 -0.5984 -0.8007 -0.1528
  549MOL0     C72347   5.395  10.331   5.024  0.2868 -0.4297  0.0041
  549MOL0     C72348   5.431  10.276   4.881  1.1094  0.1751  0.4103
  549MOL0     C72349   5.579  10.241   4.877 -0.1670  0.3151 -0.4925
  549MOL0     C72350   5.607  10.094   4.926 -0.1671 -0.3490  0.4669
  549MOL0     C72351   5.755  10.075   4.943 -0.6236  0.1052 -0.7005
  549MOL0     C72352   5.845  10.026   4.826  0.0444 -0.1152 -0.4022
  549MOL0     N72353   5.985  10.072   4.857  0.3805 -0.0391 -0.0967
  549MOL0     C72354   6.051  10.046   4.974  0.6159 -0.8969  0.2844
  549MOL0     C72355   6.143  10.149   4.992  0.1533 -0.5354  0.5400
  549MOL0     C72356   6.222  10.192   5.124 -0.2140  0.0538  0.8333
  549MOL0     C72357   6.328  10.295   5.103  0.2335  0.2335  0.5737
  549MOL0     C72358   6.380  10.360   5.230 -0.5002 -0.0960 -0.1957
  549MOL0     C72359   6.516  10.438   5.213 -0.2045 -0.2766 -0.0311
  549MOL0     O72360   6.503  10.522   5.095 -0.9418  0.8296 -0.7789
  549MOL0     C72361   6.612  10.562   5.026 -0.3425 -0.2030 -0.3077
  549MOL0     C72362   6.595  10.599   4.892  1.0025 -0.4949 -0.3826
  549MOL0     C72363   6.699  10.635   4.812  0.1254  0.9620 -0.2439
  549MOL0     C72364   6.825  10.650   4.862  0.2222  0.0533  0.0042
  549MOL0     C72365   6.937  10.691   4.781  0.2016  0.8335  0.4568
  549MOL0     O72366   7.058  10.721   4.837  0.1471  0.2117  0.1197
  549MOL0     C72367   7.146  10.808   4.781 -0.1817 -0.0399  0.5008
  549MOL0     C72368   7.219  10.890   4.861  0.6453 -1.0642 -0.5124
  549MOL0     C72369   7.323  10.967   4.816  0.2093  0.3553 -0.3087
  549MOL0     C72370   7.361  10.964   4.685 -0.2566 -1.2210  0.0975
  549MOL0     O72371   7.463  11.034   4.631 -0.5179  0.4888  0.0300
  549MOL0     C72372   7.523  11.136   4.717  0.2616 -0.2953  0.3697
  549MOL0     C72373   7.642  11.204   4.641 -0.0310  0.0773 -0.1920
  549MOL0     C72374   7.720  11.321   4.715 -0.5585  0.0039  0.1647
  549MOL0     C72375   7.616  11.435   4.735  0.8016  0.3007  0.7003
  549MOL0     C72376   7.682  11.566   4.775  0.4811 -0.0214  0.4311
  549MOL0     C72377   7.715  11.581   4.925 -0.0523 -0.7732 -0.4335
  549MOL0     C72378   7.731  11.720   4.972  0.1021 -0.6021  0.3299
  549MOL0     C72379   7.789  11.710   5.114 -0.3845  0.4688 -0.2273
  549MOL0    Cl72380   7.936  11.644   5.123  0.5509 -0.6570  0.7161
  549MOL0     C72381   7.283  10.896   4.595 -0.6169  0.1795  0.0880
  549MOL0     C72382   7.176  10.817   4.640 -1.3829 -0.9460 -0.7244
  549MOL0     O72383   6.911  10.707   4.659  0.1766 -0.5092 -0.7945
  549MOL0     C72384   6.843  10.616   4.998 -0.0821  0.8089  0.5226
  549MOL0     C72385   6.737  10.583   5.083  0.1316  1.1263  0.0717
  549MOL0     N72386   6.137  10.226   4.877  0.0369  0.2872 -0.9752
  549MOL0     N72387   6.036  10.184   4.804 -0.0521 -0.1197  0.3326
  549MOL0     C72388   4.991  10.322   5.381  0.9047  1.1923 -0.0158
  549MOL0     C72389   4.895  10.238   5.430 -0.0316  0.4188 -0.6239
  549MOL0     C72390   4.597   9.883   5.444  1.1009  0.5066 -0.4927
  549MOL0     C72391   4.605   9.757   5.502 -0.0078 -0.0419 -0.5994
  549MOL0     C72392   4.484   9.691   5.527 -0.1115 -0.2638 -0.0767
  549MOL0     C72393   4.362   9.754   5.510 -0.0621 -0.5782  0.7168
  549MOL0     O72394   4.238   9.701   5.528  0.2192 -0.5824 -1.0112
  549MOL0     C72395   4.227   9.594   5.623 -0.4416  0.2912 -0.8252
  549MOL0     C72396   4.124   9.609   5.735 -0.2345  0.2132 -0.2429
  549MOL0     C72397   3.990   9.545   5.693  0.5832  0.2696 -0.4010
  549MOL0     C72398   3.895   9.610   5.589 -0.8030 -0.1554 -0.1820
  549MOL0     C72399   3.762   9.547   5.582  0.8423  0.4539  0.5517
  549MOL0     C72400   3.654   9.489   5.587 -0.6402 -0.1674  0.6209
  549MOL0     C72401   4.360   9.878   5.451 -0.2660 -0.4918 -0.3545
  549MOL0     C72402   4.472   9.941   5.415 -0.7120  0.6792  0.5581
  549MOL0     H72403   4.752  10.145   5.131  0.4939 -0.8805  1.5925
  549MOL0     H72404   4.915  10.327   5.055  2.4507  0.7940  0.7027
  549MOL0     H72405   5.254  10.350   5.261 -0.1006  2.5101  1.2913
  549MOL0     H72406   5.268  10.506   5.188 -0.1787  0.3648 -1.2919
  549MOL0     H72407   5.192  10.401   4.968 -1.7651 -1.1769  0.2753
  549MOL0     H72408   5.198  10.247   5.066 -0.5410 -0.5404  1.7500
  549MOL0     H72409   5.432  10.249   5.086 -0.7547 -0.8805  0.0524
  549MOL0     H72410   5.456  10.417   5.053  1.5717 -1.2378 -0.2574
  549MOL0     H72411   5.371  10.186   4.862  2.3773 -0.5085 -0.5546
  549MOL0     H72412   5.406  10.352   4.805  0.7113 -0.3371  0.0166
  549MOL0     H72413   5.634  10.311   4.940  0.1254  2.7199 -3.2049
  549MOL0     H72414   5.628  10.248   4.779  0.5219  0.5492 -0.1373
  549MOL0     H72415   5.576  10.036   4.839  0.3251 -1.6689  1.1594
  549MOL0     H72416   5.541  10.063   5.008  0.9309  0.0284  1.5260
  549MOL0     H72417   5.790  10.169   4.987 -0.9517 -0.3651  0.6382
  549MOL0     H72418   5.778   9.998   5.016 -3.0145  0.1470  0.1951
  549MOL0     H72419   5.804  10.082   4.742  4.2714  1.7256 -1.4907
  549MOL0     H72420   5.839   9.917   4.814 -3.0078 -0.3690  1.9038
  549MOL0     H72421   6.001   9.984   5.048 -0.3802  0.7209  1.0174
  549MOL0     H72422   6.272  10.105   5.167  0.1385  1.0793  2.5587
  549MOL0     H72423   6.141  10.221   5.192  0.0524 -0.0102  1.1727
  549MOL0     H72424   6.288  10.368   5.033 -0.6956 -1.0990 -0.3309
  549MOL0     H72425   6.401  10.236   5.047  0.0497  1.5399 -1.1199
  549MOL0     H72426   6.314  10.438   5.270 -0.4145 -1.0567  1.9707
  549MOL0     H72427   6.374  10.291   5.315 -2.9221 -1.2415 -1.1939
  549MOL0     H72428   6.592  10.360   5.205  0.2285  0.1056  0.3317
  549MOL0     H72429   6.548  10.495   5.300  0.2348 -0.9688  0.2672
  549MOL0     H72430   6.492  10.606   4.858  1.0289  0.8210 -0.2286
  549MOL0     H72431   6.685  10.665   4.709 -0.6070 -3.5186 -1.6572
  549MOL0     H72432   7.212  10.875   4.969  1.2360 -1.8201 -0.5702
  549MOL0     H72433   7.369  11.015   4.902  0.3287 -0.0435 -0.1465
  549MOL0     H72434   7.576  11.089   4.801  4.2334  2.2892 -0.4085
  549MOL0     H72435   7.449  11.209   4.751 -2.5596 -2.6892 -0.2032
  549MOL0     H72436   7.605  11.265   4.558  2.7307  0.5002 -1.2395
  549MOL0     H72437   7.720  11.136   4.603 -1.0786  0.0783 -2.5380
  549MOL0     H72438   7.809  11.353   4.659 -2.1120  1.7024 -1.4655
  549MOL0     H72439   7.750  11.275   4.810 -0.3615 -0.7539 -0.2592
  549MOL0     H72440   7.546  11.454   4.653 -1.1326  0.0799  2.2257
  549MOL0     H72441   7.551  11.400   4.815 -0.7400  0.6853 -0.3571
  549MOL0     H72442   7.600  11.635   4.757 -2.9799 -3.5665  1.3292
  549MOL0     H72443   7.764  11.600   4.711 -0.6624  2.2183  0.0843
  549MOL0     H72444   7.817  11.540   4.929  1.3420  2.5125  1.6051
  549MOL0     H72445   7.646  11.524   4.988 -1.8688 -1.2849 -2.7362
  549MOL0     H72446   7.806  11.767   4.909 -0.3627 -0.0909  0.1528
  549MOL0     H72447   7.632  11.765   4.960  0.6057  0.2655 -0.7484
  549MOL0     H72448   7.722  11.655   5.180  0.3772 -0.0885  0.0864
  549MOL0     H72449   7.793  11.815   5.146 -1.9043  1.0667 -1.7944
  549MOL0     H72450   7.317  10.892   4.492  1.3804  1.0519  0.6779
  549MOL0     H72451   7.127  10.751   4.570 -3.1845  0.5133 -0.9006
  549MOL0     H72452   6.931  10.654   5.049 -0.5430  2.8957 -0.1528
  549MOL0     H72453   6.739  10.576   5.191 -3.2763  2.3525  0.3361
  549MOL0     H72454   5.051  10.388   5.442  0.3834  2.0265 -0.3795
  549MOL0     H72455   4.879  10.228   5.537 -1.0655  2.0893 -0.5742
  549MOL0     H72456   4.699   9.710   5.525  0.1026 -0.4100 -1.7569
  549MOL0     H72457   4.483   9.595   5.578  0.8988  0.3243  1.0945
  549MOL0     H72458   4.319   9.581   5.681  0.1083  2.4085 -1.1505
  549MOL0     H72459   4.224   9.491   5.587  2.7694 -1.9233  4.1015
  549MOL0     H72460   4.169   9.566   5.825  2.5330 -0.1047 -1.6924
  549MOL0     H72461   4.103   9.712   5.766  0.0671  0.3145 -0.3703
  549MOL0     H72462   3.942   9.540   5.791  0.9170  2.3656 -0.0848
  549MOL0     H72463   4.011   9.444   5.654  0.4067 -0.1970  0.6729
  549MOL0     H72464   3.889   9.716   5.617  3.9470  0.8360 -1.9633
  549MOL0     H72465   3.944   9.606   5.492  2.0069 -3.0851  1.1736
  549MOL0     H72466   3.557   9.444   5.581 -1.7093  2.1530 -2.7081
  549MOL0     H72467   4.270   9.930   5.420 -0.5395  0.2168  1.5432
  549MOL0     H72468   4.457  10.040   5.372 -2.7464 -0.7387 -2.2489
  550MOL0     O72469   6.001   8.883   0.950  0.2233 -0.2302  0.1959
  550MOL0     C72470   6.116   8.845   0.951  0.1262 -1.1033 -0.1616
  550MOL0     O72471   6.170   8.747   1.023  0.1668  0.0346  0.0282
  550MOL0     C72472   6.094   8.683   1.119 -0.3752  1.0329 -0.7650
  550MOL0     C72473   6.021   8.566   1.073  1.0872 -0.6494 -0.0423
  550MOL0     C72474   5.948   8.498   1.169  0.5858 -0.2008 -0.0301
  550MOL0     C72475   5.939   8.536   1.309 -0.1118  0.8472  0.3236
  550MOL0     O72476   5.870   8.456   1.389  0.4662 -0.7836  0.3460
  550MOL0     C72477   5.892   8.481   1.526 -0.6246  0.0800  0.5371
  550MOL0     C72478   5.823   8.400   1.630  0.4200  0.5316 -1.4244
  550MOL0     C72479   5.848   8.251   1.629  0.5668 -0.0218 -0.4712
  550MOL0     C72480   5.770   8.175   1.739 -1.0355  0.7998 -0.6655
  550MOL0     C72481   5.635   8.124   1.698  0.0667  0.0942  0.6305
  550MOL0     C72482   5.574   8.011   1.783 -0.2352  0.3083 -0.1218
  550MOL0     C72483   5.422   8.011   1.784 -1.3642  0.2519 -0.0187
  550MOL0     C72484   5.366   7.895   1.870  0.4680  0.1808 -0.4194
  550MOL0     N72485   5.404   7.768   1.813 -0.2233 -0.3838  0.3194
  550MOL0     C72486   5.360   7.727   1.682  0.1229 -0.4707  0.4003
  550MOL0     C72487   5.429   7.617   1.649 -0.4127 -0.2910 -0.5779
  550MOL0     C72488   5.423   7.533   1.532 -0.3290  0.4715  0.4008
  550MOL0     C72489   5.430   7.617   1.399 -0.3942  0.1998 -0.5451
  550MOL0     C72490   5.447   7.515   1.293  0.2990  0.4649  0.6333
  550MOL0     C72491   5.313   7.457   1.251  0.6549  0.7023 -0.7633
  550MOL0     O72492   5.323   7.342   1.166 -0.0420  0.1750  0.7228
  550MOL0     C72493   5.228   7.334   1.067  1.0101 -0.3060 -0.4821
  550MOL0     C72494   5.141   7.222   1.062 -0.6971  0.0030  0.1322
  550MOL0     C72495   5.047   7.225   0.961 -0.1220  0.4098  0.1602
  550MOL0     C72496   5.020   7.335   0.873  0.1070  0.0980  0.0443
  550MOL0     C72497   4.913   7.332   0.771 -0.4217  0.5598 -0.1227
  550MOL0     O72498   4.845   7.224   0.759 -0.7214  0.4049  0.7177
  550MOL0     C72499   4.719   7.225   0.692 -0.0233  0.4139  0.1899
  550MOL0     C72500   4.628   7.342   0.681 -0.3569  0.4065 -0.2614
  550MOL0     C72501   4.526   7.347   0.591  0.1962 -0.6322 -0.1528
  550MOL0     C72502   4.484   7.231   0.523  0.0350 -1.2065 -0.5646
  550MOL0     O72503   4.381   7.230   0.427  0.0433  0.6019  0.1139
  550MOL0     C72504   4.252   7.267   0.481 -0.9490 -0.0130  0.2964
  550MOL0     C72505   4.134   7.212   0.396  0.8165  0.0443 -1.3674
  550MOL0     C72506   4.118   7.271   0.258  1.6866  0.7976  1.2983
  550MOL0     C72507   3.989   7.234   0.183  0.4599 -0.0103  0.1186
  550MOL0     C72508   3.952   7.081   0.160  0.2302  0.7309 -0.5729
  550MOL0     C72509   3.817   7.070   0.087  0.5078  0.6753  0.1610
  550MOL0     C72510   3.817   6.945   0.004 -0.5039 -0.8770  1.3374
  550MOL0     C72511   3.684   6.863  -0.025  0.8118  0.7479  0.1561
  550MOL0    Cl72512   3.576   6.857   0.122  0.7343  0.3403 -0.1777
  550MOL0     C72513   4.562   7.115   0.538  0.5243 -0.3644  0.2442
  550MOL0     C72514   4.683   7.111   0.615 -0.3469 -0.6426  0.3415
  550MOL0     O72515   4.906   7.423   0.693  0.5457 -0.3691  0.5093
  550MOL0     C72516   5.107   7.447   0.885 -0.2624  0.4195 -0.8168
  550MOL0     C72517   5.219   7.441   0.971  0.5690 -0.1706  0.6005
  550MOL0     N72518   5.510   7.591   1.762  0.3431 -0.3277 -0.5779
  550MOL0     N72519   5.498   7.689   1.852  0.0196  0.3593  0.0647
  550MOL0     C72520   6.021   8.650   1.346  0.4025  0.1084 -0.9727
  550MOL0     C72521   6.097   8.714   1.254  0.3663 -0.6855  0.6055
  550MOL0     C72522   6.198   8.922   0.860  0.6020  0.1143 -0.5405
  550MOL0     C72523   6.330   8.884   0.848  0.6437 -0.8140  0.1497
  550MOL0     C72524   6.422   8.951   0.767 -0.0799 -0.3678  0.5213
  550MOL0     C72525   6.379   9.058   0.687  0.1659 -0.3169 -0.2128
  550MOL0     O72526   6.461   9.132   0.610  0.1688  0.2834  0.0835
  550MOL0     C72527   6.600   9.135   0.645  0.2512  0.2801  0.2352
  550MOL0     C72528   6.686   9.214   0.542 -0.4830 -0.5201 -0.9827
  550MOL0     C72529   6.835   9.178   0.528  0.1241 -0.3767 -0.0080
  550MOL0     C72530   6.928   9.248   0.443 -1.0560  0.0405  0.6411
  550MOL0     C72531   6.916   9.200   0.304 -0.0290 -0.3853 -0.5309
  550MOL0     C72532   6.893   9.144   0.200 -0.3061  0.5005 -0.3021
  550MOL0     C72533   6.235   9.085   0.681 -0.6653  0.2221  0.7152
  550MOL0     C72534   6.151   9.027   0.777  0.2651 -0.4725  0.2659
  550MOL0     H72535   6.014   8.532   0.970 -3.5614 -0.8431  0.1119
  550MOL0     H72536   5.897   8.413   1.127  0.5678  0.0433 -0.5137
  550MOL0     H72537   5.858   8.581   1.554  0.3068 -0.6852  5.2039
  550MOL0     H72538   5.997   8.474   1.554 -0.7674  0.9334  1.3446
  550MOL0     H72539   5.718   8.428   1.619  0.6797  2.7582  0.7881
  550MOL0     H72540   5.857   8.438   1.727  2.1619 -0.2751 -1.6733
  550MOL0     H72541   5.956   8.242   1.649  0.6551 -0.8794 -1.2848
  550MOL0     H72542   5.824   8.198   1.536  1.0132 -1.0853 -0.0037
  550MOL0     H72543   5.842   8.093   1.753 -2.1565 -0.6927 -3.0342
  550MOL0     H72544   5.771   8.236   1.830 -0.0298 -0.9707  0.5789
  550MOL0     H72545   5.640   8.079   1.599  0.3600 -1.0114  1.1209
  550MOL0     H72546   5.569   8.211   1.697  0.7229  0.6920 -2.7219
  550MOL0     H72547   5.612   8.016   1.885  2.4762 -0.6350 -1.0122
  550MOL0     H72548   5.614   7.914   1.752 -0.3181 -0.3221  1.6193
  550MOL0     H72549   5.388   8.106   1.826 -0.0473 -0.5793  3.2119
  550MOL0     H72550   5.381   7.995   1.684 -0.6615 -0.0588 -0.2609
  550MOL0     H72551   5.257   7.901   1.873  0.1155 -2.8497 -2.5208
  550MOL0     H72552   5.399   7.904   1.974 -0.5844  0.8205 -0.1305
  550MOL0     H72553   5.283   7.767   1.617 -2.1481 -2.8825  1.4079
  550MOL0     H72554   5.332   7.472   1.526 -0.3713  0.4839  0.8356
  550MOL0     H72555   5.508   7.465   1.536  0.8651  1.9504  0.9788
  550MOL0     H72556   5.526   7.670   1.394  0.9664 -2.1595 -1.0573
  550MOL0     H72557   5.351   7.687   1.372  1.3433  2.2788 -0.4888
  550MOL0     H72558   5.490   7.574   1.212 -1.2329  0.6581 -0.0656
  550MOL0     H72559   5.517   7.438   1.327  0.4824 -0.1213 -1.0113
  550MOL0     H72560   5.254   7.539   1.208 -0.2221 -0.3032 -1.5224
  550MOL0     H72561   5.255   7.427   1.339 -0.8269 -0.0827 -1.9823
  550MOL0     H72562   5.155   7.131   1.119  2.8540 -0.5081 -1.2926
  550MOL0     H72563   4.994   7.131   0.962  1.4096 -0.4759  0.1502
  550MOL0     H72564   4.652   7.425   0.746 -0.3344 -1.6131  2.4731
  550MOL0     H72565   4.482   7.445   0.575  0.6585 -0.8887 -4.1791
  550MOL0     H72566   4.240   7.375   0.491 -1.1976  0.1119 -1.1241
  550MOL0     H72567   4.250   7.222   0.580  1.1308  2.6108  1.6686
  550MOL0     H72568   4.036   7.215   0.445  1.2882 -0.6864 -0.3224
  550MOL0     H72569   4.160   7.105   0.396  2.4473  0.3294  1.7524
  550MOL0     H72570   4.210   7.249   0.202 -0.1751  1.3755 -2.3202
  550MOL0     H72571   4.114   7.381   0.256 -4.0039  0.8886 -1.8853
  550MOL0     H72572   3.908   7.274   0.244  1.5139  0.5719  1.1627
  550MOL0     H72573   3.974   7.292   0.091  0.3224  0.8437  0.6682
  550MOL0     H72574   3.934   7.040   0.260 -2.5934  1.1173 -0.8613
  550MOL0     H72575   4.038   7.028   0.118  0.2912  1.9069 -2.0079
  550MOL0     H72576   3.803   7.150   0.014 -1.3041 -0.8842 -1.3069
  550MOL0     H72577   3.730   7.062   0.154 -0.0005  0.5953 -0.5016
  550MOL0     H72578   3.865   6.966  -0.092 -1.8409  1.2701  1.0689
  550MOL0     H72579   3.874   6.867   0.056 -1.8446 -3.6139 -1.0087
  550MOL0     H72580   3.704   6.764  -0.067  1.5968 -0.6712  3.6070
  550MOL0     H72581   3.623   6.913  -0.102 -1.9174 -2.5971 -0.1205
  550MOL0     H72582   4.511   7.032   0.490 -0.2897 -0.5997  1.4847
  550MOL0     H72583   4.741   7.022   0.637 -1.2088 -0.7148  2.6335
  550MOL0     H72584   5.111   7.540   0.828  1.2905 -0.2190 -1.8200
  550MOL0     H72585   5.283   7.527   0.985 -0.9876  0.9774  0.9913
  550MOL0     H72586   6.018   8.692   1.446 -2.0718 -1.8290 -0.1400
  550MOL0     H72587   6.159   8.797   1.287 -0.8261 -0.8738  3.6734
  550MOL0     H72588   6.369   8.794   0.894  3.4051  0.4780  0.5392
  550MOL0     H72589   6.518   8.900   0.762 -0.5163 -1.1189 -0.4484
  550MOL0     H72590   6.634   9.032   0.655 -0.0906  0.3527  3.0216
  550MOL0     H72591   6.607   9.173   0.747 -0.3789 -1.2639  0.8768
  550MOL0     H72592   6.630   9.204   0.449 -3.4553 -0.9769  0.7194
  550MOL0     H72593   6.677   9.316   0.580 -1.4337  0.4140 -3.5384
  550MOL0     H72594   6.844   9.070   0.521  1.1302 -0.2285 -1.5721
  550MOL0     H72595   6.876   9.191   0.628  2.5172  1.2106 -1.0922
  550MOL0     H72596   6.903   9.354   0.437  1.9501  0.7364 -1.5795
  550MOL0     H72597   7.031   9.229   0.474 -0.8443  0.6103  0.3080
  550MOL0     H72598   6.899   9.086   0.110 -1.4211 -1.1856  0.6626
  550MOL0     H72599   6.211   9.161   0.608  0.5119  3.2424  3.2451
  550MOL0     H72600   6.047   9.056   0.780  0.6891  1.3188  4.4115
  551MOL0     O72601   7.894   3.953   8.308 -0.4567  0.1117  0.0800
  551MOL0     C72602   7.990   3.921   8.250 -0.9595 -0.2048 -0.1322
  551MOL0     O72603   8.028   3.790   8.223 -0.0664 -0.0052  0.5273
  551MOL0     C72604   7.953   3.678   8.243  0.1496  0.6057 -0.8013
  551MOL0     C72605   7.812   3.668   8.272  0.3717  0.5751  0.0546
  551MOL0     C72606   7.744   3.544   8.283  0.0818  0.9074 -0.0216
  551MOL0     C72607   7.825   3.426   8.266  0.6144  0.2117 -0.6147
  551MOL0     O72608   7.776   3.300   8.291  0.6356  0.3848 -0.3167
  551MOL0     C72609   7.663   3.255   8.217  0.8125 -0.6129 -0.2277
  551MOL0     C72610   7.654   3.104   8.230  0.0973 -0.2484  0.1144
  551MOL0     C72611   7.756   3.032   8.141  0.4984 -0.4141 -0.5526
  551MOL0     C72612   7.753   2.885   8.158  0.0056  0.3813  0.6447
  551MOL0     C72613   7.861   2.807   8.076 -0.2834 -0.7979 -0.4778
  551MOL0     C72614   7.815   2.661   8.090  0.6823 -0.1875  0.0695
  551MOL0     C72615   7.924   2.571   8.035 -0.4605  0.0360  0.4992
  551MOL0     C72616   7.861   2.458   7.964  0.0679  0.7748  0.5557
  551MOL0     N72617   7.802   2.488   7.825 -0.1469  0.5084 -0.0030
  551MOL0     C72618   7.852   2.587   7.744 -0.1921  0.3268  0.8697
  551MOL0     C72619   7.760   2.588   7.650 -0.3705  0.1867  1.4930
  551MOL0     C72620   7.776   2.668   7.521 -0.0027  0.5694  0.6524
  551MOL0     C72621   7.703   2.798   7.551 -0.4890 -0.4042 -0.5598
  551MOL0     C72622   7.766   2.888   7.660  0.3508  0.5085  0.4575
  551MOL0     C72623   7.891   2.949   7.607 -1.0030  0.0495  1.2058
  551MOL0     O72624   7.933   3.008   7.732 -1.1044  0.1300 -0.0971
  551MOL0     C72625   8.007   3.128   7.720  0.0343 -0.2795 -0.0717
  551MOL0     C72626   8.018   3.196   7.844 -0.8613  0.2892  0.1435
  551MOL0     C72627   8.087   3.319   7.839  0.4201 -0.2908 -0.2360
  551MOL0     C72628   8.148   3.371   7.724  0.5428  0.0562  0.6602
  551MOL0     C72629   8.242   3.483   7.728  0.6868  0.6107 -0.1006
  551MOL0     O72630   8.242   3.533   7.857 -0.9476 -0.9509  0.2537
  551MOL0     C72631   8.343   3.618   7.892 -0.0573  0.1455 -0.6029
  551MOL0     C72632   8.420   3.572   8.005  0.3814  0.2410 -0.6697
  551MOL0     C72633   8.523   3.652   8.049  0.9464 -0.6935 -0.4521
  551MOL0     C72634   8.534   3.781   7.997  0.3092 -0.1939  0.2124
  551MOL0     O72635   8.628   3.862   8.051  0.3822 -0.8533  0.5760
  551MOL0     C72636   8.623   4.007   8.033 -0.0315  0.2470 -0.8785
  551MOL0     C72637   8.699   4.087   8.141  0.5813  0.2910  0.3606
  551MOL0     C72638   8.838   4.031   8.160  0.2991 -0.7940 -0.8199
  551MOL0     C72639   8.914   4.009   8.026 -0.2970 -0.1645  0.1375
  551MOL0     C72640   9.056   3.966   8.070  0.2254  0.7605  0.2001
  551MOL0     C72641   9.143   3.912   7.958 -0.0759  0.1442 -0.2355
  551MOL0     C72642   9.288   3.903   8.005  0.3572  0.5076 -0.5751
  551MOL0     C72643   9.367   3.836   7.893 -0.5400 -0.2138 -0.4599
  551MOL0    Cl72644   9.368   3.894   7.729  0.0182  0.1275  0.3045
  551MOL0     C72645   8.455   3.823   7.885 -0.6445 -0.0061 -1.4968
  551MOL0     C72646   8.362   3.740   7.825 -0.0744  0.9233 -0.8451
  551MOL0     O72647   8.315   3.515   7.633 -0.4718 -0.6311 -0.4934
  551MOL0     C72648   8.133   3.295   7.601 -0.5102  0.1353 -0.5514
  551MOL0     C72649   8.059   3.179   7.599 -0.5915 -0.3929  0.0446
  551MOL0     N72650   7.661   2.498   7.672 -0.7449  0.3813  0.2226
  551MOL0     N72651   7.697   2.427   7.772 -0.2142 -0.1890 -0.3758
  551MOL0     C72652   7.955   3.438   8.236  0.8364  0.3752  1.0620
  551MOL0     C72653   8.018   3.556   8.232  0.1637  0.2978  0.7703
  551MOL0     C72654   8.073   4.032   8.189 -0.5793  1.0522 -1.6841
  551MOL0     C72655   8.076   4.166   8.260  0.1832  0.8516 -0.3534
  551MOL0     C72656   8.146   4.272   8.205  0.2442 -0.7061  0.4790
  551MOL0     C72657   8.226   4.253   8.091 -0.5625  0.2219  0.6131
  551MOL0     O72658   8.307   4.362   8.059  0.0857 -0.2772  0.5105
  551MOL0     C72659   8.400   4.349   7.957  0.2255 -0.2072  0.5444
  551MOL0     C72660   8.434   4.493   7.893  0.1226  0.7305 -0.1888
  551MOL0     C72661   8.491   4.471   7.747  0.8506 -0.4875  0.3530
  551MOL0     C72662   8.556   4.592   7.686  0.4577 -0.6502 -0.6021
  551MOL0     C72663   8.630   4.540   7.563  0.1311 -0.6742  0.0221
  551MOL0     C72664   8.686   4.489   7.472  1.1478  0.4576  0.4274
  551MOL0     C72665   8.228   4.127   8.026  0.5780 -0.0363  0.0741
  551MOL0     C72666   8.161   4.017   8.085 -1.2478  0.3656  0.4144
  551MOL0     H72667   7.754   3.760   8.272 -1.7719 -0.6511 -1.9780
  551MOL0     H72668   7.636   3.535   8.283  0.0492  1.1417 -1.0473
  551MOL0     H72669   7.667   3.280   8.111  0.1214 -2.5722 -0.7565
  551MOL0     H72670   7.573   3.300   8.260  0.9775 -1.0459  0.5951
  551MOL0     H72671   7.550   3.085   8.198 -0.2740 -1.2146  1.7714
  551MOL0     H72672   7.655   3.061   8.330 -2.5826  0.8659  0.7216
  551MOL0     H72673   7.853   3.066   8.177 -0.6350  0.2534  2.1530
  551MOL0     H72674   7.738   3.056   8.036 -0.8847 -0.0250 -0.2496
  551MOL0     H72675   7.773   2.870   8.264  2.6237  2.3767  0.5528
  551MOL0     H72676   7.652   2.853   8.132 -1.3924  1.7045  3.9113
  551MOL0     H72677   7.962   2.820   8.116  0.2225  0.4045 -2.0544
  551MOL0     H72678   7.859   2.830   7.969  0.6519  1.8630 -0.0042
  551MOL0     H72679   7.725   2.656   8.028  0.1216 -3.0890  0.9600
  551MOL0     H72680   7.801   2.618   8.189  2.2852 -2.6533 -0.6729
  551MOL0     H72681   8.002   2.625   7.981 -0.3633  0.7112  1.2883
  551MOL0     H72682   7.991   2.529   8.111  2.5409  1.4943 -1.1507
  551MOL0     H72683   7.792   2.407   8.033  0.0181  2.4245  1.7779
  551MOL0     H72684   7.940   2.382   7.953  0.5348  1.0430  1.8918
  551MOL0     H72685   7.938   2.653   7.751  0.5707 -0.2510 -1.7277
  551MOL0     H72686   7.729   2.612   7.440  1.0564 -1.2591  1.2379
  551MOL0     H72687   7.883   2.677   7.501  0.8039 -3.8766  1.8805
  551MOL0     H72688   7.599   2.775   7.576 -1.2407  1.4493 -1.7634
  551MOL0     H72689   7.707   2.861   7.461  2.1085  1.6232  0.8398
  551MOL0     H72690   7.701   2.970   7.691  0.0881 -0.3020  2.1113
  551MOL0     H72691   7.785   2.827   7.748  0.4825 -1.3155 -0.7900
  551MOL0     H72692   7.879   3.022   7.527  0.1798 -2.6751 -1.6610
  551MOL0     H72693   7.962   2.871   7.577  0.7151  2.4038 -1.3033
  551MOL0     H72694   7.978   3.157   7.937 -0.7377 -0.5362 -0.1458
  551MOL0     H72695   8.102   3.356   7.940 -1.1133 -0.3499  0.0296
  551MOL0     H72696   8.418   3.471   8.043  3.7227 -0.2266 -1.3950
  551MOL0     H72697   8.577   3.617   8.136 -0.0004  1.0572  0.9083
  551MOL0     H72698   8.522   4.047   8.038  0.5463  1.6772  0.2565
  551MOL0     H72699   8.676   4.036   7.942  2.6861 -0.1136  0.4561
  551MOL0     H72700   8.647   4.087   8.237 -0.5066 -1.4976 -0.1922
  551MOL0     H72701   8.695   4.186   8.094 -2.0280  0.3495  0.5808
  551MOL0     H72702   8.842   3.936   8.214  1.5449  0.6935  1.8997
  551MOL0     H72703   8.896   4.096   8.227 -0.1913  0.3794 -1.5132
  551MOL0     H72704   8.875   3.921   7.973  0.6262 -2.0447  2.3930
  551MOL0     H72705   8.931   4.089   7.953  0.9532 -2.5340 -2.3729
  551MOL0     H72706   9.045   3.895   8.153 -1.8051  0.7768 -0.0110
  551MOL0     H72707   9.110   4.053   8.108  2.9801 -0.1039 -1.4342
  551MOL0     H72708   9.142   3.980   7.872 -2.2138 -0.1389 -0.4835
  551MOL0     H72709   9.111   3.811   7.930  1.6550  0.6861 -5.1552
  551MOL0     H72710   9.313   4.004   8.036 -3.1989  0.7939  1.9400
  551MOL0     H72711   9.282   3.839   8.094 -1.9354 -0.6896 -1.4856
  551MOL0     H72712   9.333   3.731   7.889  0.0746 -0.4027 -0.8171
  551MOL0     H72713   9.469   3.824   7.929 -1.9164 -1.1609  3.7569
  551MOL0     H72714   8.470   3.921   7.841  1.5753  1.1162  1.4133
  551MOL0     H72715   8.295   3.769   7.745 -2.7321  0.1520  0.9683
  551MOL0     H72716   8.191   3.335   7.518  3.5986  3.5162  3.3926
  551MOL0     H72717   8.050   3.133   7.501  2.7072  0.1955 -0.6401
  551MOL0     H72718   7.998   3.343   8.207 -3.8906 -1.4603 -1.0286
  551MOL0     H72719   8.124   3.569   8.210 -0.6776  4.0278 -1.9183
  551MOL0     H72720   8.010   4.186   8.343 -0.2874  0.9174 -0.7336
  551MOL0     H72721   8.155   4.360   8.269  2.7049 -2.2311  2.4150
  551MOL0     H72722   8.355   4.292   7.876  0.2230  2.2155 -1.2826
  551MOL0     H72723   8.486   4.289   7.989 -0.1811 -0.7037  0.7227
  551MOL0     H72724   8.341   4.549   7.881 -0.6048  1.2858  5.4594
  551MOL0     H72725   8.497   4.553   7.958  1.9000 -3.2626  2.1589
  551MOL0     H72726   8.407   4.429   7.693  1.3544  0.4588 -1.2347
  551MOL0     H72727   8.560   4.386   7.757 -0.2544 -1.3735  0.5369
  551MOL0     H72728   8.477   4.667   7.680  2.4949  2.3108  4.0165
  551MOL0     H72729   8.628   4.633   7.758 -2.8335  2.0669  1.4538
  551MOL0     H72730   8.740   4.442   7.393 -0.7611 -1.4650  0.1574
  551MOL0     H72731   8.282   4.105   7.934  0.6183 -1.3590  0.3921
  551MOL0     H72732   8.156   3.930   8.020 -2.8096 -0.2239  1.2737
  552MOL0     O72733   6.375  10.056   8.763  0.2325 -0.8233 -0.4655
  552MOL0     C72734   6.282   9.967   8.761 -0.1668 -0.9867 -1.0190
  552MOL0     O72735   6.278   9.851   8.694 -0.1447 -0.2741  0.5682
  552MOL0     C72736   6.365   9.839   8.590 -0.6213 -0.8648  0.7292
  552MOL0     C72737   6.499   9.821   8.602 -0.2903 -0.4633  0.7962
  552MOL0     C72738   6.584   9.784   8.497 -0.3812  0.5626 -1.1969
  552MOL0     C72739   6.527   9.782   8.365  0.2080  0.1477 -0.0007
  552MOL0     O72740   6.602   9.755   8.252 -0.2777 -0.5188 -0.3457
  552MOL0     C72741   6.746   9.745   8.267  0.3428  0.9049 -0.2491
  552MOL0     C72742   6.811   9.752   8.125  0.3687  0.3465 -0.6709
  552MOL0     C72743   6.831   9.613   8.057 -0.0287  0.2000  0.4337
  552MOL0     C72744   6.778   9.620   7.911 -0.1038 -0.1393 -0.8960
  552MOL0     C72745   6.815   9.487   7.832  0.5861 -0.1311 -0.4040
  552MOL0     C72746   6.700   9.454   7.729  0.5697  1.0760  0.8909
  552MOL0     C72747   6.654   9.570   7.632 -0.7251 -0.3940  0.0513
  552MOL0     C72748   6.523   9.525   7.556  0.6736 -0.4674  0.1674
  552MOL0     N72749   6.544   9.396   7.498  0.1443  1.2603  0.1973
  552MOL0     C72750   6.602   9.370   7.377 -0.4682  1.2736 -1.2751
  552MOL0     C72751   6.572   9.245   7.350  0.7315  0.8115  0.3864
  552MOL0     C72752   6.657   9.171   7.254 -0.5749  0.1715  0.3387
  552MOL0     C72753   6.714   9.041   7.308  0.5806 -0.9388 -0.4557
  552MOL0     C72754   6.801   9.069   7.432  0.0781 -0.5154 -0.1636
  552MOL0     C72755   6.795   8.949   7.523  0.3533  0.2784  0.7549
  552MOL0     O72756   6.869   8.973   7.641  1.0871 -0.1384  0.0122
  552MOL0     C72757   6.806   9.026   7.746  0.9100 -0.1715 -0.0392
  552MOL0     C72758   6.880   9.029   7.868 -0.4422  0.5566 -0.1146
  552MOL0     C72759   6.835   9.096   7.981  0.7765 -1.1807 -0.8049
  552MOL0     C72760   6.702   9.142   7.993  0.0844  0.4891 -0.0475
  552MOL0     C72761   6.649   9.192   8.122 -0.4047 -0.4868 -0.6715
  552MOL0     O72762   6.523   9.249   8.109  0.0723  0.0015 -0.4273
  552MOL0     C72763   6.454   9.295   8.221 -0.3392  0.2776  0.2557
  552MOL0     C72764   6.506   9.387   8.310  0.1069  0.2136 -0.6180
  552MOL0     C72765   6.422   9.429   8.420 -0.3260 -0.1098 -0.3419
  552MOL0     C72766   6.282   9.401   8.422  0.5963  0.1156 -0.3328
  552MOL0     O72767   6.181   9.450   8.510  0.0329  0.2588 -0.9939
  552MOL0     C72768   6.224   9.470   8.639 -0.5747 -0.7625  0.7043
  552MOL0     C72769   6.101   9.445   8.730  0.1407 -0.1348  0.1200
  552MOL0     C72770   6.142   9.437   8.870  0.1290  0.6860 -0.9893
  552MOL0     C72771   6.027   9.394   8.967  0.7452 -0.7034 -0.0371
  552MOL0     C72772   5.978   9.249   8.943 -0.0360  1.1237  0.5287
  552MOL0     C72773   6.069   9.143   9.002  0.2172  0.3453 -1.0226
  552MOL0     C72774   5.993   9.015   9.021  0.3015 -0.1486 -0.7088
  552MOL0     C72775   6.076   8.896   9.039 -0.1483 -0.5809  0.3203
  552MOL0    Cl72776   6.133   8.867   8.873  0.0425 -0.6238  0.9554
  552MOL0     C72777   6.232   9.320   8.312 -0.1035  0.2760 -0.6865
  552MOL0     C72778   6.322   9.273   8.220 -0.2558 -0.8590  0.1779
  552MOL0     O72779   6.720   9.183   8.231 -0.2695 -0.3035 -0.8917
  552MOL0     C72780   6.619   9.140   7.872  0.9769  1.2577 -0.1201
  552MOL0     C72781   6.672   9.072   7.753 -1.2887 -0.9123 -0.2307
  552MOL0     N72782   6.480   9.193   7.444  0.5171 -1.0150  1.1565
  552MOL0     N72783   6.469   9.284   7.529  1.0405 -0.1101 -0.5719
  552MOL0     C72784   6.385   9.798   8.352  0.0979  0.2896  0.4786
  552MOL0     C72785   6.309   9.817   8.464  0.1805  0.1573 -1.0340
  552MOL0     C72786   6.164   9.994   8.843 -0.2328  0.3766 -0.2521
  552MOL0     C72787   6.171  10.082   8.944 -1.4149 -0.6446 -0.0112
  552MOL0     C72788   6.073  10.103   9.038  0.6569 -0.0175  0.3421
  552MOL0     C72789   5.950  10.030   9.041  0.4578 -0.4877 -0.1109
  552MOL0     O72790   5.848  10.050   9.133 -0.0549  0.4003 -0.3563
  552MOL0     C72791   5.724   9.985   9.103  0.7869 -0.1371  0.6722
  552MOL0     C72792   5.621  10.029   9.199 -0.2145 -0.7948 -0.0284
  552MOL0     C72793   5.654  10.005   9.352 -0.1438 -0.1355 -0.3050
  552MOL0     C72794   5.762  10.096   9.416 -0.1074 -0.3522  0.7152
  552MOL0     C72795   5.780  10.069   9.559 -0.0640  0.1815  0.4475
  552MOL0     C72796   5.794  10.057   9.679 -0.0942 -1.2938  0.3431
  552MOL0     C72797   5.936   9.948   8.924 -0.2128 -0.0646  0.2107
  552MOL0     C72798   6.044   9.920   8.843 -0.2418  0.5348 -0.0065
  552MOL0     H72799   6.545   9.822   8.701  0.2856 -0.4007  0.5317
  552MOL0     H72800   6.689   9.766   8.518 -0.8528 -1.7094 -0.6043
  552MOL0     H72801   6.767   9.651   8.319 -0.9333  0.1146 -1.1152
  552MOL0     H72802   6.776   9.828   8.332  1.5874 -0.4901  1.0302
  552MOL0     H72803   6.908   9.802   8.132  1.5416 -1.8756 -0.2921
  552MOL0     H72804   6.748   9.812   8.059  2.4169  1.5395 -1.6509
  552MOL0     H72805   6.772   9.538   8.110 -0.2213  0.1781  0.1829
  552MOL0     H72806   6.937   9.585   8.054 -0.0711  0.1305 -1.5871
  552MOL0     H72807   6.672   9.646   7.904 -0.9310 -1.8217  2.9033
  552MOL0     H72808   6.828   9.696   7.852 -2.9883  1.2934 -1.6857
  552MOL0     H72809   6.812   9.408   7.908 -2.5417  0.7143  0.4884
  552MOL0     H72810   6.917   9.489   7.792  1.2487  0.4819  1.2128
  552MOL0     H72811   6.609   9.420   7.779  0.8935 -0.2521  0.6190
  552MOL0     H72812   6.734   9.368   7.670  1.1215  0.1833  2.4788
  552MOL0     H72813   6.637   9.660   7.693 -2.4549 -2.2101  2.4217
  552MOL0     H72814   6.730   9.582   7.555 -1.9310 -1.2513 -1.3387
  552MOL0     H72815   6.487   9.598   7.483 -0.6645  3.0549  3.9483
  552MOL0     H72816   6.444   9.509   7.629  1.6131 -1.5893  0.9854
  552MOL0     H72817   6.681   9.428   7.329  0.8101  0.3892 -0.3196
  552MOL0     H72818   6.726   9.241   7.207 -1.5548 -0.7469 -2.7070
  552MOL0     H72819   6.594   9.147   7.168 -2.0249  1.7818  0.9090
  552MOL0     H72820   6.784   8.999   7.236 -1.2839 -0.0926 -2.9325
  552MOL0     H72821   6.644   8.958   7.326  1.1655 -0.8269  2.8126
  552MOL0     H72822   6.904   9.099   7.410 -0.8458  1.6261 -2.0086
  552MOL0     H72823   6.756   9.144   7.497  0.3806 -1.0167  0.6326
  552MOL0     H72824   6.832   8.862   7.468 -0.8433 -0.9298  1.7939
  552MOL0     H72825   6.691   8.932   7.552  0.0901  0.2675 -0.1706
  552MOL0     H72826   6.977   8.981   7.881 -2.0963 -2.9389  0.5146
  552MOL0     H72827   6.891   9.081   8.072 -1.1861 -1.4575  0.3996
  552MOL0     H72828   6.607   9.426   8.317 -0.3280  1.0437  1.9129
  552MOL0     H72829   6.462   9.488   8.501 -0.8151  0.5780 -0.5975
  552MOL0     H72830   6.264   9.570   8.659  1.2350 -1.6914  2.0822
  552MOL0     H72831   6.299   9.397   8.670 -0.9809 -0.4763  2.4742
  552MOL0     H72832   6.055   9.352   8.696  0.8986 -0.8558  1.0182
  552MOL0     H72833   6.024   9.522   8.725 -0.6997 -0.9265  0.6433
  552MOL0     H72834   6.185   9.536   8.885 -0.7049  1.0852 -1.1732
  552MOL0     H72835   6.224   9.365   8.862 -0.3916  0.0674 -0.8261
  552MOL0     H72836   6.041   9.408   9.075 -3.2932 -2.3110  0.8770
  552MOL0     H72837   5.940   9.454   8.941  2.2503  0.6902 -2.2342
  552MOL0     H72838   5.977   9.230   8.835  1.2963  3.8209 -0.0630
  552MOL0     H72839   5.875   9.237   8.977  0.0507 -0.9862  0.1456
  552MOL0     H72840   6.126   9.156   9.095  1.4288 -3.1014 -1.1507
  552MOL0     H72841   6.151   9.131   8.931  0.9064 -2.3066  0.0967
  552MOL0     H72842   5.936   9.027   9.114  0.0306 -2.4188 -0.5166
  552MOL0     H72843   5.919   9.003   8.942  0.8760  1.8335 -1.5997
  552MOL0     H72844   6.016   8.814   9.079  2.2885 -2.6607 -0.0151
  552MOL0     H72845   6.167   8.918   9.097  0.2082 -0.5847 -0.2362
  552MOL0     H72846   6.126   9.298   8.305 -0.1355 -0.0967  0.6629
  552MOL0     H72847   6.285   9.217   8.135 -2.2329 -1.4547  1.3502
  552MOL0     H72848   6.515   9.172   7.872  0.6519  0.2834  0.7785
  552MOL0     H72849   6.607   9.074   7.666 -0.1685  0.1334 -1.0768
  552MOL0     H72850   6.333   9.802   8.257  0.3335 -1.3776  0.2516
  552MOL0     H72851   6.203   9.818   8.442 -0.4075  1.6796  1.4565
  552MOL0     H72852   6.261  10.143   8.942 -2.6004  1.2525  1.6968
  552MOL0     H72853   6.073  10.185   9.110  1.3466 -0.0674  0.4040
  552MOL0     H72854   5.732   9.877   9.116  1.5620 -0.1475  0.1837
  552MOL0     H72855   5.686  10.005   9.002 -0.0374  0.0392  1.0057
  552MOL0     H72856   5.607  10.133   9.172 -3.1912 -1.3687 -1.0139
  552MOL0     H72857   5.523   9.988   9.173 -0.0086 -1.4787  0.2453
  552MOL0     H72858   5.680   9.901   9.377 -1.9050 -0.4564  0.3528
  552MOL0     H72859   5.561  10.018   9.409  0.1921  0.3888  0.1395
  552MOL0     H72860   5.858  10.085   9.365 -1.1020 -0.8981 -1.1734
  552MOL0     H72861   5.733  10.199   9.394 -1.2902 -0.7300  0.4468
  552MOL0     H72862   5.816  10.066   9.783  3.3501 -1.4942 -0.2514
  552MOL0     H72863   5.850   9.885   8.905 -0.4752  0.6501 -1.0455
  552MOL0     H72864   6.031   9.844   8.766 -0.3839 -3.4369  3.5698
  553MOL0     O72865   0.003   3.109   4.735  0.3787  0.4217  0.1951
  553MOL0     C72866  -0.001   3.163   4.624 -0.1670  0.7368  0.9151
  553MOL0     O72867   0.014   3.301   4.592  0.0557  0.7581  0.7748
  553MOL0     C72868   0.057   3.388   4.689  0.0733 -0.0960 -1.2448
  553MOL0     C72869   0.021   3.381   4.824  0.2874 -1.0188  0.1171
  553MOL0     C72870   0.078   3.473   4.918  1.4061 -0.5033 -0.2240
  553MOL0     C72871   0.181   3.563   4.873  0.0100  0.0123  0.4358
  553MOL0     O72872   0.240   3.647   4.962 -0.3267 -0.3762 -0.8452
  553MOL0     C72873   0.380   3.696   4.943  0.3624  0.1614  0.2456
  553MOL0     C72874   0.427   3.704   5.087 -0.3426 -0.2937  0.2718
  553MOL0     C72875   0.570   3.761   5.097 -0.0922  0.2565 -0.2577
  553MOL0     C72876   0.600   3.774   5.244 -0.3597  0.2342 -0.4915
  553MOL0     C72877   0.755   3.760   5.276 -0.2474 -0.2362  0.3582
  553MOL0     C72878   0.807   3.619   5.269 -0.2006  0.5102  1.0204
  553MOL0     C72879   0.961   3.607   5.282  1.5233 -0.6617  0.4323
  553MOL0     C72880   1.019   3.647   5.413 -0.2461  0.5127 -0.1755
  553MOL0     N72881   1.159   3.618   5.430  0.0221  0.1875 -0.4905
  553MOL0     C72882   1.263   3.715   5.429 -0.4932  0.8425 -0.2131
  553MOL0     C72883   1.363   3.646   5.502  0.3276 -0.7497 -0.8251
  553MOL0     C72884   1.506   3.683   5.512 -0.7374  0.9348  0.4743
  553MOL0     C72885   1.560   3.693   5.650  0.8487  0.1335  0.3477
  553MOL0     C72886   1.601   3.551   5.709  0.0999  0.5776 -0.0490
  553MOL0     C72887   1.669   3.560   5.838 -0.1069  0.4216  0.0102
  553MOL0     O72888   1.676   3.423   5.885  0.1297 -0.3306 -0.3474
  553MOL0     C72889   1.787   3.349   5.854 -0.0143 -0.0808  1.0296
  553MOL0     C72890   1.782   3.272   5.740 -0.8569  0.4741  0.6096
  553MOL0     C72891   1.894   3.185   5.709 -0.7337 -0.4336 -0.1179
  553MOL0     C72892   2.014   3.195   5.791 -0.3417 -0.1687  1.1729
  553MOL0     C72893   2.139   3.128   5.754 -0.1358  0.0913  0.3074
  553MOL0     O72894   2.130   3.053   5.638  0.4036  0.0689 -0.9577
  553MOL0     C72895   2.232   2.971   5.592 -1.2834 -1.3204  0.0598
  553MOL0     C72896   2.242   2.960   5.449  0.1646  0.5412 -0.5182
  553MOL0     C72897   2.350   2.886   5.397 -0.4902 -0.1165  0.3001
  553MOL0     C72898   2.432   2.809   5.475 -0.6140  0.3337 -0.4569
  553MOL0     O72899   2.536   2.737   5.410 -0.7535 -0.2902 -0.1076
  553MOL0     C72900   2.670   2.739   5.471 -0.3414  0.0926  0.1666
  553MOL0     C72901   2.738   2.869   5.450  0.0319 -0.2030 -0.2694
  553MOL0     C72902   2.865   2.894   5.530 -0.1330  0.3545 -0.7752
  553MOL0     C72903   2.968   2.796   5.516 -0.8517 -0.0104 -0.0534
  553MOL0     C72904   3.039   2.798   5.376  0.3201 -0.2067 -0.2248
  553MOL0     C72905   3.180   2.856   5.387 -0.4364  0.3713  0.3281
  553MOL0     C72906   3.253   2.817   5.254 -0.4754 -0.2443 -0.2496
  553MOL0     C72907   3.383   2.884   5.236 -0.3546 -0.5458  0.1858
  553MOL0    Cl72908   3.488   2.830   5.370  0.0879  0.1749  0.0543
  553MOL0     C72909   2.422   2.807   5.609  0.0672 -0.0032  0.7151
  553MOL0     C72910   2.329   2.884   5.668 -0.1075 -1.1872 -0.9029
  553MOL0     O72911   2.239   3.134   5.826 -0.2423 -0.3431  0.7638
  553MOL0     C72912   2.013   3.278   5.896  0.2319 -0.2761 -0.0171
  553MOL0     C72913   1.898   3.351   5.935 -0.3741 -0.5185  0.7638
  553MOL0     N72914   1.310   3.525   5.550  0.5149 -0.1916 -0.6105
  553MOL0     N72915   1.188   3.519   5.514 -0.5427 -0.7044  0.0662
  553MOL0     C72916   0.209   3.572   4.738  0.4367 -0.2759  0.4179
  553MOL0     C72917   0.140   3.487   4.649 -0.8447 -0.9300  0.2394
  553MOL0     C72918  -0.039   3.083   4.520  0.1919 -0.7294  0.3099
  553MOL0     C72919  -0.060   2.945   4.531 -0.5192  0.3943 -0.3884
  553MOL0     C72920  -0.100   2.859   4.427  0.4971 -0.1125  0.5399
  553MOL0     C72921  -0.123   2.914   4.297  0.4494 -1.0040 -0.0633
  553MOL0     O72922  -0.158   2.825   4.199  0.2028 -0.3958  0.0532
  553MOL0     C72923  -0.199   2.888   4.081 -0.0435  0.4674 -0.7723
  553MOL0     C72924  -0.210   2.792   3.956  0.2936 -0.3115 -0.5382
  553MOL0     C72925  -0.334   2.699   3.979 -0.2514 -0.0866  1.7573
  553MOL0     C72926  -0.371   2.608   3.856  0.0452 -0.1373  0.6112
  553MOL0     C72927  -0.277   2.508   3.820 -0.3170  0.6292 -0.9541
  553MOL0     C72928  -0.196   2.425   3.808  0.0517 -0.7558  0.5939
  553MOL0     C72929  -0.106   3.053   4.295 -0.2985 -0.8281 -0.1952
  553MOL0     C72930  -0.073   3.144   4.400  0.4646 -0.0509 -0.5452
  553MOL0     H72931  -0.059   3.314   4.853  0.4287 -0.1985  2.6110
  553MOL0     H72932   0.040   3.481   5.019 -2.3814 -0.1322 -1.5245
  553MOL0     H72933   0.387   3.797   4.902  1.8091 -0.0155  0.0083
  553MOL0     H72934   0.442   3.626   4.886 -2.2418  0.4998 -3.4146
  553MOL0     H72935   0.432   3.608   5.138  1.7686  0.9575  2.6649
  553MOL0     H72936   0.361   3.767   5.146  3.0314  2.4801  1.4524
  553MOL0     H72937   0.567   3.864   5.060 -0.2874 -0.7309 -3.3011
  553MOL0     H72938   0.637   3.694   5.042 -0.8682  0.2454 -1.2241
  553MOL0     H72939   0.557   3.866   5.285 -2.1834 -0.7738  0.0193
  553MOL0     H72940   0.554   3.695   5.306  3.7237 -2.2139 -0.2013
  553MOL0     H72941   0.763   3.796   5.379  0.0400  1.5182 -0.2303
  553MOL0     H72942   0.808   3.825   5.206 -0.3597  1.4695  1.7860
  553MOL0     H72943   0.776   3.576   5.173  1.7171  0.3991  0.4059
  553MOL0     H72944   0.747   3.563   5.342  0.2310  0.0944  1.0571
  553MOL0     H72945   0.979   3.502   5.257 -1.7269 -1.3229  0.5315
  553MOL0     H72946   1.017   3.673   5.214 -1.0126  2.3494  1.0705
  553MOL0     H72947   0.962   3.603   5.495 -3.3042  1.1373 -1.7930
  553MOL0     H72948   0.995   3.752   5.430  0.8191  0.3528  2.8514
  553MOL0     H72949   1.272   3.808   5.374  1.5308  0.2830 -0.9212
  553MOL0     H72950   1.527   3.771   5.450 -0.8400  1.4539  1.1669
  553MOL0     H72951   1.561   3.604   5.461 -1.4619 -1.0602  2.6068
  553MOL0     H72952   1.491   3.744   5.718 -2.1469  1.2449 -3.2136
  553MOL0     H72953   1.647   3.758   5.634  1.2853 -0.3949  0.5590
  553MOL0     H72954   1.514   3.486   5.717 -0.6168  1.2134 -1.9676
  553MOL0     H72955   1.680   3.508   5.646  0.2914  2.0707 -0.8623
  553MOL0     H72956   1.624   3.623   5.915 -0.7416 -1.0878  0.8907
  553MOL0     H72957   1.774   3.589   5.844  1.6931 -4.9087 -0.5339
  553MOL0     H72958   1.705   3.276   5.663  0.9187  3.3623 -1.1878
  553MOL0     H72959   1.876   3.117   5.626  1.0493  2.5237 -3.2385
  553MOL0     H72960   2.171   3.011   5.384 -2.4318 -0.6139  1.2353
  553MOL0     H72961   2.373   2.882   5.291  2.1077  1.3719  0.7081
  553MOL0     H72962   2.731   2.661   5.426  0.5534  1.1178 -0.4569
  553MOL0     H72963   2.658   2.713   5.576 -1.7590  1.9481  0.5185
  553MOL0     H72964   2.667   2.946   5.482  1.8025  1.1808  0.4762
  553MOL0     H72965   2.760   2.891   5.345  2.5865 -1.3062 -0.0198
  553MOL0     H72966   2.835   2.896   5.635  2.7581  1.6003  0.1289
  553MOL0     H72967   2.894   2.997   5.506 -3.1682  1.6266  0.4935
  553MOL0     H72968   3.045   2.801   5.594  1.8445 -2.1541 -2.3708
  553MOL0     H72969   2.919   2.698   5.522 -4.6432  1.7324  0.0494
  553MOL0     H72970   2.988   2.862   5.303 -0.4333 -1.9755 -1.2994
  553MOL0     H72971   3.036   2.697   5.335  1.0374 -0.0604 -0.6614
  553MOL0     H72972   3.234   2.810   5.470  3.6066 -0.3960 -2.4011
  553MOL0     H72973   3.175   2.962   5.416  1.1843 -0.3105  3.4719
  553MOL0     H72974   3.276   2.711   5.255 -0.9302 -0.4053 -2.3393
  553MOL0     H72975   3.194   2.834   5.164 -1.7224  2.0628  0.9039
  553MOL0     H72976   3.371   2.992   5.247  0.0324 -0.4426 -0.3712
  553MOL0     H72977   3.441   2.871   5.144 -0.2091  1.5352 -0.0604
  553MOL0     H72978   2.484   2.742   5.671  1.0427 -0.1202 -0.3378
  553MOL0     H72979   2.325   2.866   5.775  3.1020 -2.4808 -0.8843
  553MOL0     H72980   2.107   3.294   5.948  0.4887  0.7277 -0.7706
  553MOL0     H72981   1.903   3.410   6.026  0.8197  0.5347  0.0427
  553MOL0     H72982   0.277   3.644   4.692  0.9250 -0.4391  0.8705
  553MOL0     H72983   0.168   3.486   4.544 -0.9563  1.0029  0.1546
  553MOL0     H72984  -0.052   2.896   4.627 -1.8514 -3.6192 -2.1302
  553MOL0     H72985  -0.104   2.752   4.445  0.7336 -0.6899 -2.3896
  553MOL0     H72986  -0.116   2.955   4.059  0.8118 -0.5253 -0.6698
  553MOL0     H72987  -0.283   2.954   4.104  1.2672  0.7037  4.6155
  553MOL0     H72988  -0.234   2.852   3.868 -1.2966  3.5442  2.2433
  553MOL0     H72989  -0.117   2.735   3.947  2.0293  2.0823  0.9341
  553MOL0     H72990  -0.417   2.768   3.996  0.0075  0.9612 -0.7233
  553MOL0     H72991  -0.320   2.631   4.064 -2.5018 -3.8712 -0.5788
  553MOL0     H72992  -0.472   2.570   3.873 -0.6025 -0.1297 -2.5644
  553MOL0     H72993  -0.381   2.678   3.772  2.3573  0.3428  0.6843
  553MOL0     H72994  -0.113   2.357   3.809  1.2966  0.7119  1.0982
  553MOL0     H72995  -0.131   3.107   4.204  2.0811  0.6171 -0.0737
  553MOL0     H72996  -0.079   3.249   4.377 -1.8746 -0.2991 -1.3913
  554MOL0     O72997   3.846   2.616   8.469 -0.1402 -0.2259  1.6726
  554MOL0     C72998   3.853   2.703   8.377 -0.2761  0.6374  0.4130
  554MOL0     O72999   3.935   2.698   8.265 -0.4328  0.2870  0.6925
  554MOL0     C73000   4.006   2.584   8.254 -0.0773  0.4974  0.1708
  554MOL0     C73001   3.970   2.451   8.288 -0.3516  0.4271 -0.9401
  554MOL0     C73002   4.050   2.335   8.251 -0.5332 -0.5869 -0.1860
  554MOL0     C73003   4.165   2.350   8.177  0.0923 -0.0634  0.0185
  554MOL0     O73004   4.229   2.235   8.138 -0.1289  0.8245  0.9421
  554MOL0     C73005   4.290   2.151   8.242 -0.4528 -0.0096 -0.2196
  554MOL0     C73006   4.428   2.113   8.185 -1.4367 -0.5051 -0.2349
  554MOL0     C73007   4.545   2.188   8.246  0.7623  0.2259  0.1798
  554MOL0     C73008   4.662   2.190   8.144 -0.1878  0.3848 -0.0240
  554MOL0     C73009   4.737   2.055   8.166  0.8987 -0.2889  0.8274
  554MOL0     C73010   4.803   2.043   8.293  0.5399  0.3294 -0.2285
  554MOL0     C73011   4.849   1.898   8.303 -0.0172 -0.3079  0.0803
  554MOL0     C73012   4.759   1.792   8.362 -0.0418 -0.4141 -0.4267
  554MOL0     N73013   4.777   1.654   8.313  0.0020 -0.2769  0.0614
  554MOL0     C73014   4.760   1.617   8.183  0.1928  0.6740 -0.7213
  554MOL0     C73015   4.799   1.491   8.184  0.3588  0.0455  1.2407
  554MOL0     C73016   4.797   1.399   8.059  0.1082 -0.2858 -0.0400
  554MOL0     C73017   4.656   1.327   8.040 -0.4659 -0.2122 -0.3601
  554MOL0     C73018   4.646   1.178   8.007 -0.6477 -0.1196 -0.9791
  554MOL0     C73019   4.685   1.143   7.866 -0.3026 -0.3052  0.3609
  554MOL0     O73020   4.818   1.183   7.810  0.4879  0.5311 -0.0773
  554MOL0     C73021   4.835   1.151   7.672  0.8920  0.3489 -0.6487
  554MOL0     C73022   4.733   1.094   7.595 -0.2485 -0.0695  0.1884
  554MOL0     C73023   4.763   1.059   7.462 -0.3131 -0.7940  0.5005
  554MOL0     C73024   4.884   1.092   7.400  0.9757  0.0762  0.1694
  554MOL0     C73025   4.919   1.045   7.259  0.1029  0.0592 -0.0381
  554MOL0     O73026   5.051   1.055   7.232 -0.2897  0.0411  0.1587
  554MOL0     C73027   5.113   1.017   7.120  0.2567 -0.1066  0.7691
  554MOL0     C73028   5.089   1.072   6.998 -0.3432  0.3099 -0.1197
  554MOL0     C73029   5.151   1.030   6.880 -0.9593  0.5069  0.4945
  554MOL0     C73030   5.255   0.927   6.888  0.5186 -0.5513 -0.1878
  554MOL0     O73031   5.320   0.893   6.776 -0.1413 -0.5483  0.8779
  554MOL0     C73032   5.468   0.870   6.779  0.5461  0.1859 -0.4807
  554MOL0     C73033   5.539   0.984   6.837 -0.6726  0.0977 -0.2145
  554MOL0     C73034   5.496   1.121   6.774 -0.3632 -0.3013  0.2732
  554MOL0     C73035   5.547   1.246   6.851 -0.4809  0.3781  0.1562
  554MOL0     C73036   5.531   1.371   6.772 -0.9712 -0.1509  0.5234
  554MOL0     C73037   5.655   1.447   6.742 -0.2450 -0.7605  1.0286
  554MOL0     C73038   5.653   1.561   6.630  0.1090 -0.8542  1.5363
  554MOL0     C73039   5.782   1.644   6.641 -0.8517 -0.4208 -0.2944
  554MOL0    Cl73040   5.910   1.557   6.551 -0.6597  0.5524 -0.1006
  554MOL0     C73041   5.297   0.877   7.024  0.8247 -0.3092  0.5891
  554MOL0     C73042   5.217   0.919   7.132  0.2993  1.1598 -0.0754
  554MOL0     O73043   4.837   1.006   7.174  0.2897 -0.2820 -0.1290
  554MOL0     C73044   4.977   1.160   7.474 -0.5269  0.3745  0.0623
  554MOL0     C73045   4.954   1.185   7.604  0.2498 -0.0066 -0.4028
  554MOL0     N73046   4.841   1.452   8.312  0.2944 -0.6147  0.0491
  554MOL0     N73047   4.828   1.551   8.385 -1.1165 -0.8986 -0.4793
  554MOL0     C73048   4.204   2.481   8.151 -0.3605 -0.5917  0.9650
  554MOL0     C73049   4.120   2.590   8.172  0.5654 -0.6847 -0.5270
  554MOL0     C73050   3.776   2.826   8.383  0.7768  0.0573 -0.8827
  554MOL0     C73051   3.675   2.833   8.488 -0.0963 -0.6255 -0.6200
  554MOL0     C73052   3.580   2.938   8.491 -0.4627 -0.0109  0.1076
  554MOL0     C73053   3.591   3.036   8.390  0.1461  0.0255  0.5864
  554MOL0     O73054   3.495   3.138   8.393 -0.0796 -0.4270 -0.3685
  554MOL0     C73055   3.546   3.270   8.424 -0.8788  0.1090  0.3755
  554MOL0     C73056   3.465   3.388   8.379  0.0171  0.4162  0.5317
  554MOL0     C73057   3.315   3.381   8.383 -0.0507  0.3406  0.1403
  554MOL0     C73058   3.262   3.358   8.522 -0.8180 -0.4298  0.0767
  554MOL0     C73059   3.119   3.353   8.513  0.0690 -0.2185  0.1263
  554MOL0     C73060   2.999   3.347   8.519  0.2057  0.0735  0.9243
  554MOL0     C73061   3.690   3.033   8.296  0.0856  0.0211 -0.2037
  554MOL0     C73062   3.776   2.928   8.296  0.3129 -0.0732  0.1587
  554MOL0     H73063   3.880   2.427   8.344  2.2504 -1.1718  2.9765
  554MOL0     H73064   4.017   2.234   8.270  0.3763 -0.3053  3.7429
  554MOL0     H73065   4.232   2.058   8.251 -4.0762  1.8841 -1.7022
  554MOL0     H73066   4.304   2.203   8.337  1.0609  3.4957 -2.1870
  554MOL0     H73067   4.422   2.113   8.076 -1.8942  0.8966 -0.2317
  554MOL0     H73068   4.450   2.009   8.211  0.8088  0.2555  1.2158
  554MOL0     H73069   4.574   2.157   8.347  1.6924 -0.6645 -0.3346
  554MOL0     H73070   4.520   2.292   8.266  3.0202  0.8770 -0.1027
  554MOL0     H73071   4.634   2.211   8.040  2.0779 -3.5543 -1.6541
  554MOL0     H73072   4.731   2.271   8.171  2.5639 -1.8571  0.1676
  554MOL0     H73073   4.811   2.047   8.085  0.1525  1.5526 -0.0838
  554MOL0     H73074   4.666   1.972   8.158  3.0148 -2.5342  3.4105
  554MOL0     H73075   4.744   2.051   8.385  1.0261  0.3930  0.0828
  554MOL0     H73076   4.890   2.109   8.302  0.2682  0.7187 -0.4206
  554MOL0     H73077   4.868   1.849   8.207 -1.0643 -2.8887  1.1256
  554MOL0     H73078   4.946   1.892   8.353  0.3498  1.5525 -0.3028
  554MOL0     H73079   4.652   1.814   8.354 -0.1086 -0.1739  0.9231
  554MOL0     H73080   4.769   1.789   8.471  1.0005 -2.5776 -0.5419
  554MOL0     H73081   4.700   1.670   8.110  0.1563  0.2076 -1.0358
  554MOL0     H73082   4.875   1.324   8.074  0.7424  0.2980 -0.3213
  554MOL0     H73083   4.809   1.457   7.967 -2.9677 -1.0844 -1.0441
  554MOL0     H73084   4.597   1.379   7.963  0.5839 -1.4623 -2.1013
  554MOL0     H73085   4.600   1.347   8.131 -0.8847 -1.7007 -0.2683
  554MOL0     H73086   4.693   1.119   8.087  0.0214  1.1401 -0.4068
  554MOL0     H73087   4.541   1.150   8.007 -0.5920 -0.4708 -3.0099
  554MOL0     H73088   4.611   1.182   7.795 -1.1872  5.3177  3.7730
  554MOL0     H73089   4.684   1.034   7.863  0.0962 -0.3634  1.6268
  554MOL0     H73090   4.643   1.047   7.633  0.0973 -1.6650 -0.8657
  554MOL0     H73091   4.693   0.994   7.411  0.8691 -0.9936 -0.9279
  554MOL0     H73092   5.015   1.151   6.991  0.5370  1.2721  0.9454
  554MOL0     H73093   5.140   1.067   6.779  1.4200  0.4722  0.1512
  554MOL0     H73094   5.509   0.844   6.681  1.7952  0.9101 -0.1664
  554MOL0     H73095   5.501   0.782   6.835 -0.1950 -0.4582 -1.0332
  554MOL0     H73096   5.646   0.964   6.831  0.0475  2.3495  2.9661
  554MOL0     H73097   5.510   0.981   6.942 -1.9447  0.8021 -0.5196
  554MOL0     H73098   5.388   1.138   6.763 -0.5170  1.2536  3.2819
  554MOL0     H73099   5.542   1.118   6.675  1.2829 -2.7594  1.0467
  554MOL0     H73100   5.497   1.240   6.948  1.8361  1.6111  1.4901
  554MOL0     H73101   5.651   1.221   6.872 -0.2792  1.3128  0.3023
  554MOL0     H73102   5.460   1.428   6.832 -1.6923 -1.6084  1.1161
  554MOL0     H73103   5.486   1.358   6.672 -1.7704  1.0059  0.7120
  554MOL0     H73104   5.729   1.373   6.708 -1.7361 -1.0886 -1.8435
  554MOL0     H73105   5.680   1.488   6.840 -2.4527  0.4184  1.1506
  554MOL0     H73106   5.643   1.515   6.531 -1.2884  1.0740  0.6887
  554MOL0     H73107   5.568   1.629   6.643 -0.0182  0.0729 -2.4938
  554MOL0     H73108   5.816   1.645   6.745  1.0473  0.8016 -0.8720
  554MOL0     H73109   5.764   1.745   6.603 -3.6387 -1.0441 -0.8498
  554MOL0     H73110   5.372   0.799   7.033  1.0362 -0.1983 -0.1581
  554MOL0     H73111   5.242   0.885   7.232 -1.7731 -0.7102 -0.1167
  554MOL0     H73112   5.070   1.195   7.429 -0.5539 -0.0287 -0.3165
  554MOL0     H73113   5.037   1.234   7.655  2.0065 -2.6386 -0.5531
  554MOL0     H73114   4.295   2.489   8.092 -0.0592 -3.3643  0.9260
  554MOL0     H73115   4.141   2.691   8.137  1.1930 -0.0843  1.4345
  554MOL0     H73116   3.664   2.754   8.561 -0.2272  0.8862  1.0668
  554MOL0     H73117   3.491   2.952   8.552  0.0237  2.6015  0.3483
  554MOL0     H73118   3.645   3.284   8.380 -0.7696 -0.5657  0.4000
  554MOL0     H73119   3.569   3.274   8.531  1.1749 -1.2820  0.0518
  554MOL0     H73120   3.486   3.475   8.441  2.8675  0.4325 -0.2928
  554MOL0     H73121   3.499   3.396   8.275 -2.3151 -0.9344 -0.4071
  554MOL0     H73122   3.293   3.299   8.314  0.9947 -0.9958  1.3173
  554MOL0     H73123   3.283   3.474   8.335 -0.4423  1.9004  3.1713
  554MOL0     H73124   3.295   3.263   8.566  4.3880  1.9409  2.1625
  554MOL0     H73125   3.301   3.434   8.591 -0.9984  1.0209 -1.3656
  554MOL0     H73126   2.894   3.347   8.536 -0.2704 -3.7825 -0.9478
  554MOL0     H73127   3.688   3.114   8.223  1.2538  1.0507  0.8595
  554MOL0     H73128   3.847   2.940   8.214  1.6720  0.4310  1.3606
  555MOL0     O73129  10.600   3.608   3.947  0.1252  0.2426  0.4648
  555MOL0     C73130  10.643   3.504   3.906 -0.0352  0.6585  0.8706
  555MOL0     O73131  10.713   3.419   3.985 -0.0696  1.0573 -0.1678
  555MOL0     C73132  10.761   3.461   4.110 -0.0953  0.3853  0.9847
  555MOL0     C73133  10.701   3.411   4.231 -0.3090  0.3664 -0.0736
  555MOL0     C73134  10.761   3.431   4.356  0.7641 -0.1434  0.2489
  555MOL0     C73135  10.877   3.516   4.367 -0.3812  1.1432 -0.3345
  555MOL0     O73136  10.929   3.543   4.489  0.6161 -0.3056 -0.2068
  555MOL0     C73137  11.065   3.497   4.498  0.0912 -0.0530  1.2749
  555MOL0     C73138  11.114   3.450   4.635 -0.8005  0.2412  0.4673
  555MOL0     C73139  11.046   3.321   4.681 -0.4678  0.5190 -0.2830
  555MOL0     C73140  11.014   3.228   4.562 -0.7762  0.1225  0.3168
  555MOL0     C73141  10.964   3.085   4.617  0.4942  0.0216 -0.6030
  555MOL0     C73142  10.967   2.978   4.506 -0.0809  0.0457 -0.1210
  555MOL0     C73143  10.918   2.837   4.551 -1.1222  0.4583 -0.5155
  555MOL0     C73144  10.925   2.740   4.437 -1.0418  0.9570 -0.4803
  555MOL0     N73145  10.825   2.776   4.340  0.5628  0.5715  0.8668
  555MOL0     C73146  10.693   2.818   4.359  0.0592 -0.2968 -0.6095
  555MOL0     C73147  10.642   2.810   4.233 -0.0895  0.6628  0.6773
  555MOL0     C73148  10.492   2.833   4.215 -0.0266  0.2143 -0.7395
  555MOL0     C73149  10.462   2.982   4.201 -0.2108 -0.8232 -0.2185
  555MOL0     C73150  10.501   3.054   4.072  0.0774  0.0235  0.2619
  555MOL0     C73151  10.423   2.979   3.962  0.6640 -0.5035  0.5925
  555MOL0     O73152  10.431   3.068   3.852 -0.5403  0.0499  0.3267
  555MOL0     C73153  10.361   3.038   3.740 -0.4723  0.3382  0.8661
  555MOL0     C73154  10.367   3.146   3.648 -0.6713  0.1305 -0.6421
  555MOL0     C73155  10.291   3.143   3.528 -0.2606  0.1019 -0.8809
  555MOL0     C73156  10.224   3.023   3.499 -0.3821  0.1797  0.1987
  555MOL0     C73157  10.157   2.999   3.371  0.1652 -0.3334  0.1646
  555MOL0     O73158  10.075   2.890   3.359 -0.0702  0.6477  0.6630
  555MOL0     C73159  10.055   2.824   3.234  0.1093 -1.1595  0.2026
  555MOL0     C73160  10.132   2.819   3.120  0.6129 -0.3154  0.0959
  555MOL0     C73161  10.090   2.754   2.998 -0.6195  0.7280  0.2198
  555MOL0     C73162   9.969   2.677   2.989  0.2280 -0.1027 -0.2650
  555MOL0     O73163   9.922   2.609   2.883 -0.1739 -0.4955 -0.5084
  555MOL0     C73164  10.003   2.568   2.785 -0.5585 -0.0093  0.1192
  555MOL0     C73165  10.063   2.436   2.816  0.0712 -0.4738 -0.5194
  555MOL0     C73166   9.961   2.320   2.817 -0.7471 -0.2670 -0.5997
  555MOL0     C73167   9.899   2.293   2.678 -0.4673  0.4208 -0.8971
  555MOL0     C73168   9.895   2.139   2.641  0.2307 -0.3615 -0.2890
  555MOL0     C73169   9.825   2.106   2.498  0.2391 -0.6329 -0.5834
  555MOL0     C73170   9.819   1.952   2.479 -0.0648  0.4920 -1.0693
  555MOL0     C73171   9.736   1.930   2.351  0.3082 -0.6234 -0.7773
  555MOL0    Cl73172   9.698   1.753   2.327 -0.0092  0.2083  0.2543
  555MOL0     C73173   9.901   2.674   3.116 -0.3665 -0.1598  0.3292
  555MOL0     C73174   9.938   2.748   3.233 -0.3016 -0.3230  0.7599
  555MOL0     O73175  10.175   3.075   3.278 -0.3356  0.1917  0.2476
  555MOL0     C73176  10.203   2.921   3.596 -0.6135 -0.3795  0.5913
  555MOL0     C73177  10.276   2.929   3.714 -0.3116 -0.5986 -0.1220
  555MOL0     N73178  10.740   2.772   4.149 -0.1422 -0.0773  0.0887
  555MOL0     N73179  10.848   2.752   4.208 -0.2544 -0.6263  0.0988
  555MOL0     C73180  10.927   3.571   4.245  0.5545 -0.0723  1.5877
  555MOL0     C73181  10.883   3.533   4.114  0.0588  0.7183  0.1309
  555MOL0     C73182  10.621   3.471   3.770 -0.9899  0.4491  1.8971
  555MOL0     C73183  10.694   3.361   3.713 -0.4200 -0.1562  0.4751
  555MOL0     C73184  10.695   3.332   3.576  0.0300 -0.5955 -0.0740
  555MOL0     C73185  10.612   3.402   3.497  0.7995  0.1457  0.8546
  555MOL0     O73186  10.574   3.352   3.375 -0.1826 -0.1472 -0.1764
  555MOL0     C73187  10.600   3.217   3.347 -0.4818 -0.3901  0.1932
  555MOL0     C73188  10.523   3.168   3.223 -0.4249 -0.4820 -0.0552
  555MOL0     C73189  10.610   3.139   3.096  0.6434  0.4347 -0.1546
  555MOL0     C73190  10.551   3.040   3.015  0.0076  0.1318  0.1629
  555MOL0     C73191  10.659   3.002   2.914 -0.1144  0.1197 -0.0159
  555MOL0     C73192  10.744   2.982   2.828  0.3786 -0.2494 -0.2233
  555MOL0     C73193  10.549   3.512   3.547  0.1050  0.1230  0.7556
  555MOL0     C73194  10.550   3.553   3.679  0.2621 -0.7451  0.2125
  555MOL0     H73195  10.607   3.358   4.224 -1.7734  2.0433  4.1879
  555MOL0     H73196  10.707   3.386   4.438 -3.2784  3.5513 -0.0342
  555MOL0     H73197  11.118   3.584   4.459 -0.7005  1.2106  2.8688
  555MOL0     H73198  11.085   3.417   4.427  0.4511  1.0137  0.1557
  555MOL0     H73199  11.104   3.525   4.714  1.2244  0.7752  0.2816
  555MOL0     H73200  11.222   3.440   4.617 -0.4938  1.1809  1.6615
  555MOL0     H73201  10.952   3.355   4.724 -0.2909  1.7149 -0.8167
  555MOL0     H73202  11.104   3.260   4.751 -0.4065  0.7285 -0.1538
  555MOL0     H73203  10.932   3.264   4.500  0.2191 -1.2116 -1.9196
  555MOL0     H73204  11.100   3.221   4.495 -0.0407  2.3811  0.9538
  555MOL0     H73205  10.860   3.096   4.651  1.0473 -1.5183  1.8767
  555MOL0     H73206  11.013   3.054   4.710 -0.6233 -1.9533 -0.6004
  555MOL0     H73207  11.070   2.964   4.472 -0.4479 -2.6514 -0.3529
  555MOL0     H73208  10.906   3.015   4.423 -0.3137 -0.4241 -0.1655
  555MOL0     H73209  10.990   2.809   4.629 -0.7326 -3.2245 -2.0055
  555MOL0     H73210  10.820   2.848   4.599 -0.1198  1.3992  1.4356
  555MOL0     H73211  10.897   2.641   4.476 -2.7654 -0.2362 -4.2958
  555MOL0     H73212  11.028   2.741   4.400  0.3134  1.0839  2.9108
  555MOL0     H73213  10.650   2.840   4.456  0.1984 -2.8794  0.0997
  555MOL0     H73214  10.438   2.810   4.306  1.9859 -0.7893  0.2803
  555MOL0     H73215  10.444   2.768   4.141  1.0829  2.8010 -3.9952
  555MOL0     H73216  10.512   3.041   4.278 -2.0376  0.4494  0.0602
  555MOL0     H73217  10.357   2.998   4.229 -0.0122 -0.2696  0.2165
  555MOL0     H73218  10.469   3.158   4.065  2.6259  0.9597  1.4131
  555MOL0     H73219  10.609   3.047   4.060  0.1066 -0.0327  0.5639
  555MOL0     H73220  10.321   2.968   4.000  0.6677  4.3406  2.6907
  555MOL0     H73221  10.473   2.885   3.935 -0.6412 -0.8456 -0.8102
  555MOL0     H73222  10.423   3.236   3.671  1.0846 -1.7631  3.5564
  555MOL0     H73223  10.283   3.221   3.452  1.2746 -1.3725 -2.6545
  555MOL0     H73224  10.228   2.871   3.117 -0.0402  0.8583 -1.6429
  555MOL0     H73225  10.154   2.754   2.910 -1.7645  1.7405 -0.6553
  555MOL0     H73226  10.079   2.639   2.751  2.5241 -2.6302  1.0015
  555MOL0     H73227   9.921   2.558   2.713 -4.2601  1.9223  3.6880
  555MOL0     H73228  10.114   2.439   2.913  0.6537 -2.2034 -0.7316
  555MOL0     H73229  10.137   2.419   2.737 -0.6395  0.5235 -1.4199
  555MOL0     H73230   9.888   2.349   2.894 -0.6533 -3.3184  0.7864
  555MOL0     H73231  10.026   2.238   2.849  0.7492  0.8405 -0.6918
  555MOL0     H73232   9.796   2.329   2.678 -0.0806  1.5493 -0.7682
  555MOL0     H73233   9.958   2.349   2.605  0.9489 -1.1423 -1.0222
  555MOL0     H73234   9.832   2.078   2.706 -1.4979  1.8765  0.2848
  555MOL0     H73235   9.999   2.106   2.640  1.3100  2.6091  0.7037
  555MOL0     H73236   9.874   2.178   2.431  1.8764 -0.3938  0.8069
  555MOL0     H73237   9.721   2.139   2.511  0.0904 -1.3944  0.2303
  555MOL0     H73238   9.922   1.917   2.467  0.2960 -0.1511  2.7394
  555MOL0     H73239   9.776   1.903   2.566 -1.7050  1.1844 -1.4665
  555MOL0     H73240   9.776   1.970   2.258 -0.1009  0.2514 -0.5863
  555MOL0     H73241   9.641   1.980   2.374  0.5280  0.9164 -2.9578
  555MOL0     H73242   9.806   2.621   3.118 -0.3922 -0.1502 -0.2764
  555MOL0     H73243   9.879   2.743   3.325 -0.2343 -0.1786  0.8128
  555MOL0     H73244  10.141   2.835   3.574  1.9998 -1.9122 -1.4381
  555MOL0     H73245  10.257   2.855   3.791 -1.5622  0.7684  0.9271
  555MOL0     H73246  11.016   3.631   4.251  2.2211 -2.1459 -0.5110
  555MOL0     H73247  10.940   3.563   4.027  0.9930  0.9507  0.8146
  555MOL0     H73248  10.764   3.304   3.774 -0.1129  0.0618  0.3289
  555MOL0     H73249  10.744   3.244   3.536 -1.3342 -1.0235 -0.8720
  555MOL0     H73250  10.570   3.159   3.434 -0.2653 -1.7620 -0.6148
  555MOL0     H73251  10.708   3.208   3.331  0.4223 -1.0630  5.1394
  555MOL0     H73252  10.477   3.077   3.263  2.1766 -0.7920  2.6001
  555MOL0     H73253  10.454   3.245   3.188  0.7194  0.3256 -0.5740
  555MOL0     H73254  10.710   3.111   3.130  1.1441  1.8741 -0.3774
  555MOL0     H73255  10.622   3.234   3.043  1.9340 -0.9346 -2.4536
  555MOL0     H73256  10.527   2.948   3.068  3.2658 -2.3868 -2.3126
  555MOL0     H73257  10.463   3.077   2.962 -0.2686  0.7936  1.0668
  555MOL0     H73258  10.815   2.957   2.751  1.8828  5.6616 -1.2064
  555MOL0     H73259  10.496   3.560   3.466 -1.0602 -0.3829  1.1990
  555MOL0     H73260  10.483   3.635   3.704  1.2122 -0.0543  0.5519
  556MOL0     O73261   0.729   2.942   4.711  0.2547  0.1809 -0.4472
  556MOL0     C73262   0.764   2.860   4.789 -0.7123  0.7747  0.3925
  556MOL0     O73263   0.760   2.721   4.776  0.1279  0.3777  0.1068
  556MOL0     C73264   0.718   2.668   4.660  0.7457 -0.3277 -0.5589
  556MOL0     C73265   0.707   2.720   4.533  0.1010 -0.2685 -0.3592
  556MOL0     C73266   0.679   2.627   4.434 -1.4822  0.1764  0.4939
  556MOL0     C73267   0.674   2.483   4.445  0.5935 -0.5402  0.2415
  556MOL0     O73268   0.650   2.406   4.331 -0.5726 -0.2059 -0.6940
  556MOL0     C73269   0.621   2.264   4.335 -0.2387 -0.2500 -0.3682
  556MOL0     C73270   0.743   2.178   4.307  0.9968 -0.1568 -0.0137
  556MOL0     C73271   0.714   2.037   4.360 -0.5159  0.8806 -0.0923
  556MOL0     C73272   0.812   1.937   4.292  0.0557 -0.3191 -0.2794
  556MOL0     C73273   0.747   1.846   4.190  0.0989  0.3744 -0.0100
  556MOL0     C73274   0.692   1.900   4.057  0.2098 -0.0848 -0.5687
  556MOL0     C73275   0.681   1.789   3.947 -0.4024  0.0495 -0.4016
  556MOL0     C73276   0.577   1.696   3.996  1.0288  0.2935  0.8698
  556MOL0     N73277   0.559   1.583   3.908  0.5065 -0.2249 -0.5250
  556MOL0     C73278   0.483   1.589   3.791  0.2114  0.4517 -0.2880
  556MOL0     C73279   0.512   1.468   3.729  0.5764 -0.6875 -0.4736
  556MOL0     C73280   0.464   1.423   3.593  0.5236  0.3776  0.5367
  556MOL0     C73281   0.427   1.275   3.577  0.4046 -0.2866  0.5108
  556MOL0     C73282   0.403   1.234   3.426  0.3389 -0.2786 -0.0926
  556MOL0     C73283   0.265   1.282   3.365  0.0265  0.8631  0.4642
  556MOL0     O73284   0.289   1.254   3.227  0.6462 -0.8045 -0.2085
  556MOL0     C73285   0.187   1.225   3.146  0.3415  0.5657 -0.5334
  556MOL0     C73286   0.047   1.238   3.181 -0.5351 -0.0985  0.6710
  556MOL0     C73287  -0.048   1.225   3.081  0.4580 -0.7484 -0.1370
  556MOL0     C73288  -0.008   1.205   2.951  0.0253  0.0274  0.2914
  556MOL0     C73289  -0.109   1.205   2.836  0.0738 -0.4881 -0.7650
  556MOL0     O73290  -0.082   1.249   2.708 -1.0605  0.4784  0.4206
  556MOL0     C73291  -0.161   1.215   2.606 -0.0779  0.3023  0.3881
  556MOL0     C73292  -0.196   1.313   2.513  0.1638  0.4486 -0.5512
  556MOL0     C73293  -0.264   1.269   2.392  0.4377 -0.6911 -0.3952
  556MOL0     C73294  -0.309   1.141   2.363  0.6678 -1.0497  0.3833
  556MOL0     O73295  -0.359   1.100   2.244  0.1068 -0.0184  0.3716
  556MOL0     C73296  -0.483   1.164   2.201 -0.7770 -0.3347  0.9004
  556MOL0     C73297  -0.596   1.102   2.275 -0.7049 -0.1200 -0.1240
  556MOL0     C73298  -0.736   1.162   2.240  0.1425  1.1276 -0.5420
  556MOL0     C73299  -0.764   1.308   2.274  0.5143  0.7660  0.1836
  556MOL0     C73300  -0.859   1.378   2.180 -0.4443  0.0931 -0.7909
  556MOL0     C73301  -1.009   1.366   2.218  0.3893 -0.5413 -0.0514
  556MOL0     C73302  -1.081   1.472   2.134  0.6626  0.7823  0.2660
  556MOL0     C73303  -1.241   1.475   2.154 -1.1576  0.1975 -1.4891
  556MOL0    Cl73304  -1.346   1.541   2.025  0.3770 -0.4225 -0.0109
  556MOL0     C73305  -0.267   1.049   2.460 -0.0873 -0.0398 -0.2629
  556MOL0     C73306  -0.194   1.088   2.580  1.0315  0.6938 -0.3545
  556MOL0     O73307  -0.220   1.163   2.864 -0.0237 -0.0139 -0.0307
  556MOL0     C73308   0.127   1.182   2.921  0.3212  0.3526  0.3759
  556MOL0     C73309   0.228   1.202   3.015  0.0182 -0.3944  0.3325
  556MOL0     N73310   0.605   1.394   3.799 -0.8054  0.1893  0.7384
  556MOL0     N73311   0.639   1.470   3.904  0.8103  0.2534 -0.8561
  556MOL0     C73312   0.690   2.433   4.578  0.7197 -0.2529  0.3265
  556MOL0     C73313   0.701   2.528   4.677  0.5213 -0.0223 -0.0441
  556MOL0     C73314   0.804   2.904   4.924 -0.9545  0.1620  0.1051
  556MOL0     C73315   0.768   3.029   4.974  0.0158 -0.1979 -1.3780
  556MOL0     C73316   0.807   3.068   5.101  0.0144 -0.0292 -0.3580
  556MOL0     C73317   0.878   2.979   5.183  1.0768  1.1049  0.0757
  556MOL0     O73318   0.918   3.002   5.317 -0.2039 -0.3531  0.9820
  556MOL0     C73319   0.902   3.134   5.375 -0.3312 -0.5835  0.3626
  556MOL0     C73320   0.759   3.132   5.439  0.4399  0.4393 -0.1130
  556MOL0     C73321   0.700   3.264   5.457  0.5965  0.3357 -0.0460
  556MOL0     C73322   0.755   3.330   5.589  0.1507 -0.1092  0.2943
  556MOL0     C73323   0.685   3.461   5.599 -0.4095  0.7465  0.5907
  556MOL0     C73324   0.622   3.550   5.641  0.1676 -0.3942  0.3470
  556MOL0     C73325   0.918   2.857   5.123  0.0461  0.1046  0.9034
  556MOL0     C73326   0.874   2.810   5.002 -0.1019  0.4420  0.0838
  556MOL0     H73327   0.719   2.823   4.500  0.4219 -0.0280  0.4857
  556MOL0     H73328   0.664   2.677   4.338 -1.0888  0.8801  0.7909
  556MOL0     H73329   0.536   2.243   4.270 -0.4616  0.6317 -0.3808
  556MOL0     H73330   0.573   2.239   4.430 -2.3377 -2.2737 -1.8472
  556MOL0     H73331   0.833   2.211   4.360 -0.2064  1.3756  1.1816
  556MOL0     H73332   0.763   2.167   4.200  2.0777  2.4079 -0.1602
  556MOL0     H73333   0.608   2.013   4.351  0.0608 -1.3678 -1.5001
  556MOL0     H73334   0.722   2.045   4.469 -1.5623  1.0551 -0.0116
  556MOL0     H73335   0.887   1.991   4.233 -1.3390 -2.1659 -4.0851
  556MOL0     H73336   0.868   1.877   4.364 -0.2784 -2.6735 -1.8787
  556MOL0     H73337   0.673   1.791   4.248  0.8657 -1.5559 -0.7878
  556MOL0     H73338   0.826   1.773   4.172 -0.4064 -0.2336  0.1790
  556MOL0     H73339   0.750   1.983   4.017 -2.0803  0.2145 -3.5978
  556MOL0     H73340   0.601   1.954   4.084 -0.1566 -0.9430 -0.0364
  556MOL0     H73341   0.652   1.824   3.848  2.5518  2.0360 -0.6648
  556MOL0     H73342   0.774   1.732   3.934  0.0548 -0.4876  3.8024
  556MOL0     H73343   0.476   1.738   4.004  0.5387 -0.2410 -1.7393
  556MOL0     H73344   0.613   1.661   4.094 -0.9134  2.4476  2.4732
  556MOL0     H73345   0.405   1.657   3.760 -2.0848 -2.0985 -0.4634
  556MOL0     H73346   0.535   1.445   3.513  0.1817  1.2888  0.4755
  556MOL0     H73347   0.369   1.475   3.581  1.4935  2.0836 -0.2497
  556MOL0     H73348   0.337   1.250   3.634  0.2369  0.2814  0.5005
  556MOL0     H73349   0.503   1.214   3.629  3.0268 -1.2070 -3.9051
  556MOL0     H73350   0.495   1.256   3.371  1.0010 -0.3142  0.9921
  556MOL0     H73351   0.401   1.125   3.420  3.6278 -0.6242  2.4314
  556MOL0     H73352   0.248   1.388   3.384  2.2731  1.6108 -1.3271
  556MOL0     H73353   0.183   1.221   3.404 -0.8581  0.8219 -1.3368
  556MOL0     H73354   0.011   1.259   3.281  0.0733 -0.1182  0.8979
  556MOL0     H73355  -0.152   1.239   3.108 -0.3264 -2.0231 -2.2738
  556MOL0     H73356  -0.168   1.417   2.525  1.9940 -0.0452 -0.2752
  556MOL0     H73357  -0.263   1.347   2.317  0.0013  0.0293  0.3375
  556MOL0     H73358  -0.497   1.135   2.097  0.4590 -0.5713  0.7848
  556MOL0     H73359  -0.479   1.273   2.201  3.7145 -0.2508 -1.5791
  556MOL0     H73360  -0.587   1.131   2.380 -1.4734  1.0967 -0.3790
  556MOL0     H73361  -0.600   0.993   2.262 -0.6414 -0.3144  1.3119
  556MOL0     H73362  -0.810   1.096   2.286 -0.8976  1.4719 -1.6663
  556MOL0     H73363  -0.742   1.146   2.132  1.6255  0.8788 -0.6064
  556MOL0     H73364  -0.793   1.322   2.379 -0.1620 -0.6632  0.2038
  556MOL0     H73365  -0.669   1.359   2.252  0.5978 -0.1653 -1.8190
  556MOL0     H73366  -0.845   1.347   2.076 -1.0518 -0.2048 -0.7902
  556MOL0     H73367  -0.827   1.482   2.185 -0.4102  0.0221  2.0619
  556MOL0     H73368  -1.009   1.403   2.321 -1.0419  1.9425 -0.8735
  556MOL0     H73369  -1.052   1.267   2.205 -2.3761  0.8204 -2.3297
  556MOL0     H73370  -1.047   1.574   2.150 -3.2797  2.6710 -1.9026
  556MOL0     H73371  -1.061   1.441   2.031  1.8858  1.8431  0.1663
  556MOL0     H73372  -1.266   1.522   2.249 -1.9457  0.4392 -1.8086
  556MOL0     H73373  -1.271   1.371   2.169  1.1115 -0.3522 -0.1736
  556MOL0     H73374  -0.309   0.949   2.458  0.0850 -0.1248  0.1418
  556MOL0     H73375  -0.161   1.008   2.645 -1.1985 -0.3957 -0.4766
  556MOL0     H73376   0.148   1.167   2.816 -0.7950 -0.1276  0.2048
  556MOL0     H73377   0.333   1.185   2.994 -0.0720 -0.0114 -0.4628
  556MOL0     H73378   0.693   2.326   4.592  0.1923 -0.1902  0.9684
  556MOL0     H73379   0.719   2.485   4.775 -0.1975 -0.1194  0.0479
  556MOL0     H73380   0.705   3.087   4.908 -3.5881 -0.2743  1.6223
  556MOL0     H73381   0.762   3.155   5.146 -3.4785 -2.3900  1.2141
  556MOL0     H73382   0.919   3.209   5.296  1.4486 -1.5344 -0.2089
  556MOL0     H73383   0.973   3.145   5.457 -1.1185 -2.4307  1.3502
  556MOL0     H73384   0.678   3.084   5.384 -0.8265  1.3485  0.9226
  556MOL0     H73385   0.762   3.080   5.535 -2.2533  3.4098  1.7461
  556MOL0     H73386   0.591   3.256   5.461  0.4418  1.5607 -1.2337
  556MOL0     H73387   0.720   3.324   5.368  1.3084 -2.1823 -1.7116
  556MOL0     H73388   0.728   3.289   5.687 -0.6613  2.2971  1.1245
  556MOL0     H73389   0.863   3.338   5.570 -0.1754  0.3523 -1.5600
  556MOL0     H73390   0.552   3.620   5.681  0.1970 -1.6797  2.8574
  556MOL0     H73391   0.974   2.795   5.193 -0.6623  0.4354  1.7815
  556MOL0     H73392   0.888   2.706   4.976  1.2615  0.5230  0.3633
  557MOL0     O73393  10.386   3.661   2.248 -0.4726 -0.7245 -0.0879
  557MOL0     C73394  10.322   3.572   2.300 -0.3599  0.6172 -0.4008
  557MOL0     O73395  10.258   3.563   2.422  0.7940  0.0057 -0.0915
  557MOL0     C73396  10.295   3.653   2.520  0.0376  0.6661  0.5212
  557MOL0     C73397  10.385   3.760   2.516  0.0276 -0.1035 -0.4710
  557MOL0     C73398  10.418   3.836   2.630 -0.3132  0.1872  0.2221
  557MOL0     C73399  10.348   3.813   2.750 -0.0831  0.1854  0.3997
  557MOL0     O73400  10.394   3.887   2.855  0.3530 -0.4307  0.4554
  557MOL0     C73401  10.529   3.888   2.880 -0.1514 -0.1676  0.0863
  557MOL0     C73402  10.550   3.953   3.018  0.2150  0.3856 -1.1918
  557MOL0     C73403  10.641   3.857   3.103  0.0987 -0.6510  0.6985
  557MOL0     C73404  10.675   3.905   3.241 -0.4359  0.0900  0.2517
  557MOL0     C73405  10.819   3.967   3.240  0.3852 -0.1849 -0.6088
  557MOL0     C73406  10.861   4.023   3.378  0.6209  1.1843  0.3014
  557MOL0     C73407  10.750   4.131   3.412  0.6418 -0.4489 -0.1463
  557MOL0     C73408  10.795   4.211   3.545  0.7680  0.1303  0.4964
  557MOL0     N73409  10.920   4.291   3.536  0.0512 -0.5620  0.0773
  557MOL0     C73410  10.930   4.429   3.532  1.1330  0.1457 -0.4831
  557MOL0     C73411  11.058   4.461   3.551 -0.0581 -0.2396  0.2923
  557MOL0     C73412  11.122   4.588   3.528 -0.5650  0.4016 -0.1036
  557MOL0     C73413  11.134   4.621   3.374 -0.4777  0.7354  0.2251
  557MOL0     C73414  11.238   4.552   3.288 -0.2294 -0.3886 -0.6780
  557MOL0     C73415  11.198   4.420   3.219 -0.3187 -0.4854 -0.4127
  557MOL0     O73416  11.062   4.406   3.208 -0.0559 -0.4965 -0.7101
  557MOL0     C73417  11.012   4.361   3.093 -0.4385  0.7457 -1.3146
  557MOL0     C73418  11.006   4.228   3.063  0.0262  0.1284 -0.2284
  557MOL0     C73419  10.951   4.172   2.948 -0.2624 -0.5827 -0.1407
  557MOL0     C73420  10.898   4.260   2.854  0.3905 -0.5379 -0.1110
  557MOL0     C73421  10.865   4.213   2.714  0.3368 -0.3643  0.4031
  557MOL0     O73422  10.796   4.300   2.632 -0.2371  0.4372 -1.4159
  557MOL0     C73423  10.749   4.254   2.510 -0.5580  0.6532  0.0306
  557MOL0     C73424  10.629   4.180   2.511 -0.2881 -0.6234  0.2884
  557MOL0     C73425  10.579   4.116   2.398 -0.9209 -0.7561  0.9083
  557MOL0     C73426  10.651   4.121   2.280 -0.5326  0.6795 -0.4770
  557MOL0     O73427  10.612   4.039   2.180  0.5142 -0.1178 -0.6530
  557MOL0     C73428  10.620   3.895   2.193 -0.3980  0.9762  1.0479
  557MOL0     C73429  10.629   3.837   2.051  0.8834  0.4510 -0.4627
  557MOL0     C73430  10.728   3.902   1.953  0.4015 -0.3182  0.4138
  557MOL0     C73431  10.761   3.809   1.833  1.0422 -0.2806  0.7361
  557MOL0     C73432  10.849   3.878   1.733  0.8089 -0.3633  0.6398
  557MOL0     C73433  10.980   3.932   1.792  0.1795  0.1661 -0.5003
  557MOL0     C73434  11.090   3.975   1.698 -0.1379 -1.6810  1.0840
  557MOL0     C73435  11.201   4.066   1.761 -0.4978 -0.1272  1.1186
  557MOL0    Cl73436  11.143   4.216   1.829 -0.3513  0.0953  0.1380
  557MOL0     C73437  10.755   4.217   2.268 -0.2841 -0.3173  0.0237
  557MOL0     C73438  10.813   4.268   2.390  0.1601 -0.1774 -0.4926
  557MOL0     O73439  10.889   4.096   2.684  0.5717  0.1621  0.3559
  557MOL0     C73440  10.872   4.396   2.896  0.4912  0.0926  0.2023
  557MOL0     C73441  10.936   4.448   3.019  0.6803  0.4180  0.8281
  557MOL0     N73442  11.122   4.344   3.578  0.3943 -0.6143 -0.6150
  557MOL0     N73443  11.043   4.238   3.565  0.4128 -0.4495 -0.1014
  557MOL0     C73444  10.260   3.709   2.753  1.1262 -0.1837  0.8717
  557MOL0     C73445  10.240   3.623   2.642  0.4706  0.2694  0.7653
  557MOL0     C73446  10.295   3.453   2.215  0.4765  0.7834  0.6789
  557MOL0     C73447  10.222   3.338   2.257  0.2173 -0.4464  0.2438
  557MOL0     C73448  10.176   3.239   2.167 -0.3928 -0.1844 -0.3639
  557MOL0     C73449  10.216   3.244   2.036 -1.0207 -0.4424  0.1346
  557MOL0     O73450  10.181   3.133   1.955  0.0153 -0.1057 -0.7430
  557MOL0     C73451  10.213   3.125   1.816  0.0313  0.2307  1.3533
  557MOL0     C73452  10.146   3.007   1.753  0.8032 -0.5437  0.5531
  557MOL0     C73453  10.034   2.934   1.842  0.0094  0.2775 -0.2746
  557MOL0     C73454   9.953   2.838   1.765 -0.6537  0.1877 -1.0553
  557MOL0     C73455   9.874   2.758   1.857 -1.4948  0.1167  0.5541
  557MOL0     C73456   9.798   2.685   1.915  0.2674  0.2121 -0.1931
  557MOL0     C73457  10.302   3.352   1.988 -0.6255 -0.0665  0.2677
  557MOL0     C73458  10.328   3.459   2.077  0.4728 -0.6896  0.5394
  557MOL0     H73459  10.445   3.779   2.428  0.2872  0.2359 -0.2220
  557MOL0     H73460  10.474   3.926   2.606 -1.7197  1.3787  1.2223
  557MOL0     H73461  10.579   3.948   2.803 -1.0700  1.1340  0.4603
  557MOL0     H73462  10.571   3.788   2.870  0.4310 -0.2944  2.9073
  557MOL0     H73463  10.462   3.969   3.080 -0.4308  2.5337 -2.5562
  557MOL0     H73464  10.617   4.038   3.002  0.1089  0.7619  0.2478
  557MOL0     H73465  10.731   3.837   3.044  0.5014  0.0015  1.0846
  557MOL0     H73466  10.592   3.759   3.107 -0.0908 -0.6120 -0.3452
  557MOL0     H73467  10.598   3.978   3.268 -0.6266  0.1382 -0.4284
  557MOL0     H73468  10.676   3.823   3.313  1.8757  0.2471  0.4779
  557MOL0     H73469  10.820   4.052   3.172  3.2676 -0.5550 -1.1717
  557MOL0     H73470  10.883   3.885   3.206 -1.3469 -2.9392  2.1682
  557MOL0     H73471  10.962   4.065   3.377 -0.0571  3.0719 -2.8402
  557MOL0     H73472  10.861   3.946   3.456  1.6345  0.8820  0.0165
  557MOL0     H73473  10.735   4.203   3.331  1.7603  0.1027  0.1077
  557MOL0     H73474  10.657   4.078   3.435  1.0437  0.0971  3.3128
  557MOL0     H73475  10.814   4.128   3.615  1.9460 -0.3134 -0.3023
  557MOL0     H73476  10.709   4.271   3.574  1.3138  2.5272 -2.3686
  557MOL0     H73477  10.845   4.495   3.518  0.6071 -0.2572  0.6913
  557MOL0     H73478  11.222   4.590   3.571 -1.3898 -2.1579  2.2179
  557MOL0     H73479  11.066   4.670   3.573 -1.7178  1.1398 -2.6837
  557MOL0     H73480  11.173   4.723   3.376  1.6321 -0.0145  2.3301
  557MOL0     H73481  11.038   4.625   3.321  1.7501  3.8605 -4.1578
  557MOL0     H73482  11.267   4.623   3.210 -0.2269 -0.2728 -0.5719
  557MOL0     H73483  11.322   4.534   3.357  0.4258 -2.6785 -1.9452
  557MOL0     H73484  11.234   4.340   3.285  1.5668  1.8451  1.5871
  557MOL0     H73485  11.258   4.410   3.127  0.3923 -0.4667  0.0381
  557MOL0     H73486  11.061   4.159   3.125  1.3407 -0.0766 -1.5511
  557MOL0     H73487  10.957   4.064   2.939 -0.4829 -0.6644  0.6291
  557MOL0     H73488  10.571   4.170   2.602 -0.9568  2.4020  0.3014
  557MOL0     H73489  10.484   4.066   2.385 -2.0047  1.2999  0.4179
  557MOL0     H73490  10.527   3.853   2.233 -0.6106  0.5251  0.1043
  557MOL0     H73491  10.711   3.873   2.250 -1.6750 -1.7125  2.2394
  557MOL0     H73492  10.524   3.831   2.019  0.3095  0.6774  1.3110
  557MOL0     H73493  10.657   3.732   2.064 -0.8197 -0.0057 -0.2778
  557MOL0     H73494  10.824   3.921   2.003  0.4751 -2.3407  1.1387
  557MOL0     H73495  10.681   3.989   1.906 -0.6440 -2.0162 -1.8549
  557MOL0     H73496  10.781   3.704   1.857  0.4496 -1.2358 -2.4993
  557MOL0     H73497  10.670   3.809   1.772  2.9044 -2.7595 -2.3673
  557MOL0     H73498  10.787   3.958   1.690  2.4248  0.1784 -0.7793
  557MOL0     H73499  10.872   3.799   1.662  1.5295  0.3243  0.0982
  557MOL0     H73500  11.014   3.874   1.877  0.0954 -0.8283 -1.1303
  557MOL0     H73501  10.954   4.026   1.841  0.9780 -1.5854  3.6381
  557MOL0     H73502  11.139   3.887   1.655  1.7519  0.8209 -2.3494
  557MOL0     H73503  11.050   4.015   1.604  1.7094 -0.7291  0.6639
  557MOL0     H73504  11.273   4.089   1.682 -0.2902 -2.8177  0.4261
  557MOL0     H73505  11.257   4.017   1.841  1.1928 -2.7218 -1.4604
  557MOL0     H73506  10.800   4.237   2.171  1.0068 -0.2065  0.6291
  557MOL0     H73507  10.906   4.324   2.392 -1.0249  1.9007 -0.7348
  557MOL0     H73508  10.818   4.457   2.824  1.6723 -0.3006 -1.0534
  557MOL0     H73509  10.925   4.553   3.043  0.0069  1.3183 -2.7864
  557MOL0     H73510  10.203   3.683   2.841 -2.8797  0.3318 -1.3644
  557MOL0     H73511  10.169   3.541   2.645  1.4814 -0.5745  2.3367
  557MOL0     H73512  10.181   3.337   2.358 -0.0332  1.4197  0.1840
  557MOL0     H73513  10.115   3.158   2.206  0.7321 -0.7887  0.1970
  557MOL0     H73514  10.318   3.125   1.789 -0.2577  1.9136  0.0339
  557MOL0     H73515  10.178   3.221   1.775 -0.7795  0.2523  2.0476
  557MOL0     H73516  10.105   3.041   1.657  1.2163  2.5747  1.3569
  557MOL0     H73517  10.214   2.931   1.713 -2.6510 -2.2005 -2.8238
  557MOL0     H73518   9.960   3.005   1.879  0.0988  0.8101 -1.0750
  557MOL0     H73519  10.090   2.903   1.931 -0.9755 -1.6274 -0.2736
  557MOL0     H73520   9.895   2.893   1.690  0.8063  2.6894 -0.4698
  557MOL0     H73521  10.019   2.784   1.696  2.8066  2.2864  0.3684
  557MOL0     H73522   9.731   2.632   1.980 -0.8096  3.1138  1.2544
  557MOL0     H73523  10.340   3.342   1.887 -1.5453 -2.4756  0.1051
  557MOL0     H73524  10.380   3.544   2.035 -1.6041  0.8764  0.9571
  558MOL0     O73525   4.111   9.155   3.990  0.0426 -0.2711  0.0318
  558MOL0     C73526   4.084   9.239   4.071  0.0274 -0.2214  0.4284
  558MOL0     O73527   4.173   9.319   4.130  0.2629  0.7301 -0.6849
  558MOL0     C73528   4.303   9.311   4.084  0.7438  0.3229 -0.8034
  558MOL0     C73529   4.391   9.234   4.159 -0.5181 -0.4184 -0.7768
  558MOL0     C73530   4.525   9.226   4.127 -0.3375 -0.1855  0.0176
  558MOL0     C73531   4.572   9.283   4.008  0.5186 -0.5315 -0.0994
  558MOL0     O73532   4.694   9.279   3.959 -0.7558  0.0487 -0.4477
  558MOL0     C73533   4.780   9.175   4.018  0.3136  0.3917 -0.6021
  558MOL0     C73534   4.913   9.187   3.937 -0.3245  0.8668  0.3937
  558MOL0     C73535   4.998   9.063   3.937 -0.0804 -0.9742 -0.6924
  558MOL0     C73536   5.050   9.017   4.072  0.5270  0.1662  0.9309
  558MOL0     C73537   5.134   9.117   4.149 -0.5159 -0.2390 -0.5201
  558MOL0     C73538   5.177   9.070   4.290  0.9527 -0.8425  0.1214
  558MOL0     C73539   5.317   9.096   4.337 -0.0226 -0.5373 -0.4503
  558MOL0     C73540   5.335   9.229   4.423  0.1725 -0.1055  0.3249
  558MOL0     N73541   5.464   9.263   4.477 -0.2288 -0.3286 -0.7041
  558MOL0     C73542   5.584   9.217   4.441  0.5463 -0.1735 -0.7773
  558MOL0     C73543   5.682   9.279   4.526  0.2224  0.7195  1.3220
  558MOL0     C73544   5.831   9.255   4.512 -0.0763  0.7055  0.1731
  558MOL0     C73545   5.896   9.379   4.565  0.0589 -0.9075 -0.8367
  558MOL0     C73546   6.041   9.351   4.608 -0.1084  0.2439  0.4193
  558MOL0     C73547   6.110   9.471   4.662  0.5516 -0.9519 -0.1727
  558MOL0     O73548   6.234   9.432   4.725  0.3419 -0.5425 -0.6742
  558MOL0     C73549   6.291   9.539   4.788 -0.7195  1.0440 -0.6750
  558MOL0     C73550   6.274   9.561   4.922 -0.0283  0.5914  0.9001
  558MOL0     C73551   6.322   9.671   4.986 -0.6592  1.1570  0.1498
  558MOL0     C73552   6.394   9.765   4.920 -0.8603  0.1711  0.2491
  558MOL0     C73553   6.445   9.882   4.987 -0.5338 -0.5466 -0.4082
  558MOL0     O73554   6.528   9.964   4.908 -0.0164  0.2973  1.2956
  558MOL0     C73555   6.641  10.011   4.958 -0.3427  0.0893 -0.1896
  558MOL0     C73556   6.688  10.137   4.926  0.5889 -1.0475  0.7307
  558MOL0     C73557   6.802  10.189   4.994  0.3029  0.3552 -0.2941
  558MOL0     C73558   6.876  10.121   5.098 -0.7978  0.3997  0.8027
  558MOL0     O73559   6.996  10.165   5.158  0.1420  0.7636 -0.2309
  558MOL0     C73560   7.009  10.306   5.182 -0.3044 -1.2161  0.3994
  558MOL0     C73561   7.145  10.352   5.233  1.2929 -0.9365 -0.0076
  558MOL0     C73562   7.165  10.504   5.262 -0.7824  0.6144 -0.7028
  558MOL0     C73563   7.064  10.571   5.356 -0.7746 -0.3435 -0.1676
  558MOL0     C73564   7.122  10.686   5.442  0.3540 -0.2616  0.4129
  558MOL0     C73565   7.181  10.812   5.361  0.9334 -0.5260 -0.2701
  558MOL0     C73566   7.279  10.887   5.454 -0.2560  0.1391 -0.0780
  558MOL0     C73567   7.337  11.010   5.381 -1.0416  0.1873  0.0152
  558MOL0    Cl73568   7.444  10.938   5.256  0.1397 -0.7356  0.1153
  558MOL0     C73569   6.837   9.986   5.113  0.2538 -0.9138  0.3377
  558MOL0     C73570   6.721   9.939   5.049 -0.6986 -0.1302  0.5118
  558MOL0     O73571   6.427   9.894   5.110 -0.3616 -0.4871 -0.1728
  558MOL0     C73572   6.430   9.736   4.787  0.1471 -0.2854 -0.4684
  558MOL0     C73573   6.383   9.620   4.726 -0.7062 -0.9798 -0.9068
  558MOL0     N73574   5.610   9.351   4.619  0.8245 -0.7462 -0.3406
  558MOL0     N73575   5.483   9.333   4.585  0.4932 -0.0375 -0.7341
  558MOL0     C73576   4.476   9.362   3.935 -1.2768  0.1594  0.8416
  558MOL0     C73577   4.341   9.380   3.964 -0.3383 -0.4094 -0.3714
  558MOL0     C73578   3.938   9.270   4.101 -0.8313  0.3337 -0.7286
  558MOL0     C73579   3.832   9.174   4.087 -0.4364  0.2194  0.3926
  558MOL0     C73580   3.700   9.213   4.098  0.1127 -0.6090  0.2234
  558MOL0     C73581   3.662   9.348   4.119 -0.2827  0.4140 -0.1680
  558MOL0     O73582   3.534   9.382   4.138  0.6550  0.3696  0.9377
  558MOL0     C73583   3.457   9.368   4.014 -0.0465  0.5630 -0.4831
  558MOL0     C73584   3.411   9.516   3.997 -0.1335  0.0879  0.9726
  558MOL0     C73585   3.344   9.558   3.863 -0.7908  0.0540 -0.3671
  558MOL0     C73586   3.222   9.473   3.847 -0.4299 -0.4759 -0.6350
  558MOL0     C73587   3.129   9.532   3.753  0.0674  0.3898  0.1957
  558MOL0     C73588   3.054   9.601   3.688 -0.4538 -0.4978 -0.0158
  558MOL0     C73589   3.763   9.441   4.141  0.8363  0.5438 -1.0520
  558MOL0     C73590   3.897   9.409   4.133  0.9108  0.5072  0.5907
  558MOL0     H73591   4.358   9.193   4.254 -2.2625  1.1215 -0.6652
  558MOL0     H73592   4.588   9.176   4.200  0.5153  0.4463 -0.2626
  558MOL0     H73593   4.726   9.081   4.009  1.1876 -0.2291  0.4224
  558MOL0     H73594   4.803   9.204   4.121 -1.1179  1.9810 -0.6922
  558MOL0     H73595   4.971   9.274   3.968  1.5377  0.0491 -0.6254
  558MOL0     H73596   4.873   9.203   3.836 -1.7104 -2.0901  0.3703
  558MOL0     H73597   5.085   9.069   3.871  0.7193 -0.8294  0.3532
  558MOL0     H73598   4.937   8.983   3.893  1.5504 -2.6317 -0.0548
  558MOL0     H73599   4.963   8.976   4.124  0.3420 -1.6536 -0.7018
  558MOL0     H73600   5.113   8.931   4.048 -0.1987  0.0168 -0.5649
  558MOL0     H73601   5.094   9.219   4.145  1.0998  0.4715  0.6062
  558MOL0     H73602   5.224   9.113   4.087  1.0317  3.7685  1.1630
  558MOL0     H73603   5.160   8.963   4.276 -2.2681 -0.4034  0.0128
  558MOL0     H73604   5.103   9.096   4.366 -0.4040  1.1031 -1.7750
  558MOL0     H73605   5.335   9.018   4.412 -1.7190  1.4560  2.1958
  558MOL0     H73606   5.384   9.088   4.251 -0.5056 -0.7132 -0.8117
  558MOL0     H73607   5.267   9.219   4.508 -1.4049 -1.0627 -0.9817
  558MOL0     H73608   5.294   9.311   4.363 -0.9940  0.4147  1.7868
  558MOL0     H73609   5.592   9.135   4.372  2.5274 -1.1368  0.4869
  558MOL0     H73610   5.859   9.250   4.406 -1.0956  1.1993 -0.1315
  558MOL0     H73611   5.864   9.163   4.561  0.8323  1.6228  1.3360
  558MOL0     H73612   5.848   9.430   4.648 -2.2287 -0.2119 -2.4941
  558MOL0     H73613   5.911   9.460   4.493 -3.5220  0.8766  0.1817
  558MOL0     H73614   6.029   9.280   4.691 -2.8071  2.0453  1.7116
  558MOL0     H73615   6.097   9.315   4.521  0.3108  4.3985 -1.2773
  558MOL0     H73616   6.055   9.528   4.738  0.9873 -0.4859 -0.1990
  558MOL0     H73617   6.124   9.548   4.586 -2.3303  1.2055  1.2824
  558MOL0     H73618   6.205   9.497   4.976 -0.3862 -0.6653 -0.9518
  558MOL0     H73619   6.305   9.675   5.094 -1.3029 -1.0068  0.1686
  558MOL0     H73620   6.631  10.195   4.855  0.3566 -2.3734 -0.2178
  558MOL0     H73621   6.844  10.287   4.969 -3.2594  2.2045  0.3022
  558MOL0     H73622   6.948  10.322   5.271  3.3949  0.4597  2.9081
  558MOL0     H73623   6.983  10.359   5.090 -0.7674 -3.0622 -0.5759
  558MOL0     H73624   7.215  10.323   5.154  2.5461  2.4865 -0.3280
  558MOL0     H73625   7.163  10.298   5.327 -2.9361 -0.6692  1.1626
  558MOL0     H73626   7.167  10.568   5.173 -1.7455  0.6638 -0.6974
  558MOL0     H73627   7.263  10.524   5.306 -0.4601  0.2039 -1.2176
  558MOL0     H73628   6.975  10.618   5.313 -1.2567 -0.6143  0.5164
  558MOL0     H73629   7.028  10.490   5.420  0.3627 -1.7895 -1.2965
  558MOL0     H73630   7.195  10.652   5.516 -0.4509 -1.7985  0.5279
  558MOL0     H73631   7.044  10.734   5.501  0.0258 -0.7597  0.3849
  558MOL0     H73632   7.102  10.881   5.328  1.8431 -0.1064 -1.6671
  558MOL0     H73633   7.237  10.787   5.271  2.0525  3.2680 -0.8138
  558MOL0     H73634   7.231  10.914   5.549  0.2667  0.3485  0.1323
  558MOL0     H73635   7.365  10.821   5.471 -0.2334  0.6401  2.0324
  558MOL0     H73636   7.381  11.077   5.455 -2.0066  0.3852  0.4239
  558MOL0     H73637   7.254  11.066   5.336  1.2344  2.2730 -1.8605
  558MOL0     H73638   6.879   9.911   5.179 -1.5137 -2.1248  0.1371
  558MOL0     H73639   6.681   9.843   5.080 -1.7616  0.0937 -0.1190
  558MOL0     H73640   6.501   9.793   4.729  2.4058  0.3273  2.6104
  558MOL0     H73641   6.403   9.620   4.619  0.4940 -1.2979 -0.6927
  558MOL0     H73642   4.510   9.414   3.846  2.4916  0.6328  2.3804
  558MOL0     H73643   4.276   9.436   3.897 -0.5545 -2.0311 -1.5520
  558MOL0     H73644   3.859   9.074   4.056 -2.3091 -0.7252  1.6488
  558MOL0     H73645   3.622   9.138   4.090  0.0438 -0.5863  0.6417
  558MOL0     H73646   3.377   9.296   4.034  1.8608 -1.3361  0.7011
  558MOL0     H73647   3.509   9.330   3.926  0.7674  1.5842 -0.4628
  558MOL0     H73648   3.343   9.547   4.077 -1.4150  0.0777 -0.0824
  558MOL0     H73649   3.501   9.578   4.003 -1.1804  2.1323 -2.1003
  558MOL0     H73650   3.412   9.551   3.777 -1.8063  6.1840 -2.1611
  558MOL0     H73651   3.309   9.661   3.860 -4.2109 -1.0223 -1.8492
  558MOL0     H73652   3.245   9.367   3.828 -1.5337 -0.9801  0.7058
  558MOL0     H73653   3.175   9.463   3.945  2.4276 -0.6712  0.8067
  558MOL0     H73654   2.977   9.652   3.633  0.0340 -1.9900 -2.2157
  558MOL0     H73655   3.747   9.548   4.157  3.4357  1.1694 -2.0883
  558MOL0     H73656   3.980   9.478   4.143  2.3005 -0.7845 -1.2628
  559MOL0     O73657   4.109   7.089   3.574  0.4124  0.6137  0.4347
  559MOL0     C73658   4.208   7.039   3.622  0.3085  0.9735  0.2339
  559MOL0     O73659   4.329   7.096   3.670 -0.4400 -0.2142  0.3642
  559MOL0     C73660   4.347   7.229   3.675  0.7956  0.4542  0.9004
  559MOL0     C73661   4.367   7.280   3.799  0.0202  0.1144 -1.1121
  559MOL0     C73662   4.393   7.410   3.806 -1.4267  0.7373 -0.1551
  559MOL0     C73663   4.414   7.487   3.690  0.3857 -0.3595 -0.5130
  559MOL0     O73664   4.463   7.616   3.702 -0.1476  0.2568 -0.7447
  559MOL0     C73665   4.573   7.644   3.789 -0.1554 -0.0657  0.2828
  559MOL0     C73666   4.700   7.574   3.749 -0.0278  0.6719  0.0783
  559MOL0     C73667   4.744   7.600   3.610 -0.1174 -0.2185  0.5525
  559MOL0     C73668   4.876   7.526   3.564 -0.1017  0.2849  0.3418
  559MOL0     C73669   4.910   7.560   3.417 -0.5793  0.1690 -0.7369
  559MOL0     C73670   5.059   7.497   3.376 -1.1738 -1.1206 -0.8871
  559MOL0     C73671   5.104   7.583   3.253  0.2718 -1.3226 -0.8326
  559MOL0     C73672   5.182   7.493   3.149 -1.5325  0.3638  0.3215
  559MOL0     N73673   5.245   7.571   3.032 -0.2556  0.5938 -0.7335
  559MOL0     C73674   5.220   7.568   2.897 -0.5351  0.1887  0.2583
  559MOL0     C73675   5.306   7.654   2.843 -0.8189  0.4762 -0.8645
  559MOL0     C73676   5.310   7.695   2.692 -0.4812 -0.1914 -1.1319
  559MOL0     C73677   5.455   7.753   2.670 -0.5716  0.8559 -0.0721
  559MOL0     C73678   5.452   7.792   2.524 -0.0461  0.0673 -0.6618
  559MOL0     C73679   5.590   7.872   2.485  0.0053  0.7403 -0.1800
  559MOL0     O73680   5.616   7.861   2.350  0.6252 -0.6229 -0.1060
  559MOL0     C73681   5.728   7.929   2.303 -0.1174 -0.3431  0.1998
  559MOL0     C73682   5.736   7.925   2.166  0.2924  0.4039 -0.8551
  559MOL0     C73683   5.828   7.998   2.092 -0.4018  0.6499 -0.0242
  559MOL0     C73684   5.933   8.061   2.165 -0.3475  0.2115 -0.3401
  559MOL0     C73685   6.041   8.130   2.093 -1.0413 -0.3438  0.2193
  559MOL0     O73686   6.072   8.086   1.968 -0.2228 -0.8736  0.3123
  559MOL0     C73687   6.154   8.174   1.897  0.0459  0.8989  0.3884
  559MOL0     C73688   6.290   8.138   1.881  0.5751 -0.1156 -1.0414
  559MOL0     C73689   6.367   8.211   1.805 -0.2498 -0.3898 -0.0963
  559MOL0     C73690   6.321   8.323   1.731 -0.1597 -0.6949 -0.4665
  559MOL0     O73691   6.397   8.412   1.664 -0.4590 -0.9477 -0.6828
  559MOL0     C73692   6.533   8.387   1.655 -0.0125 -0.7033  0.9145
  559MOL0     C73693   6.607   8.506   1.574  1.0259 -0.2259 -0.2530
  559MOL0     C73694   6.566   8.647   1.626  0.1606  0.2573 -0.6635
  559MOL0     C73695   6.644   8.765   1.573 -0.1966  0.1362  0.8286
  559MOL0     C73696   6.616   8.883   1.655  0.7851 -0.2718  0.3694
  559MOL0     C73697   6.692   9.002   1.589  0.5497 -0.4867 -0.8725
  559MOL0     C73698   6.697   9.122   1.684  0.4323  0.2749 -1.2142
  559MOL0     C73699   6.753   9.249   1.607 -0.3855 -0.4925 -0.3441
  559MOL0    Cl73700   6.656   9.305   1.471 -0.0932 -0.2388 -0.4382
  559MOL0     C73701   6.188   8.368   1.751 -0.5613 -0.3228 -0.5099
  559MOL0     C73702   6.105   8.289   1.828 -0.2971  0.8242  0.4831
  559MOL0     O73703   6.106   8.212   2.153  0.4758 -0.2789 -0.6168
  559MOL0     C73704   5.926   8.068   2.308  0.5551  0.2432  1.0047
  559MOL0     C73705   5.828   7.995   2.379  1.2586 -0.3497 -0.5335
  559MOL0     N73706   5.388   7.699   2.943 -0.4023 -0.1996  0.2953
  559MOL0     N73707   5.349   7.646   3.058  0.6806 -1.1173  0.0854
  559MOL0     C73708   4.391   7.439   3.563  0.5955 -0.2148 -0.3138
  559MOL0     C73709   4.345   7.312   3.557  1.0595 -0.2374  0.3739
  559MOL0     C73710   4.187   6.898   3.663  0.7440 -0.3850  0.1551
  559MOL0     C73711   4.285   6.825   3.725  0.8631 -0.7347  0.3403
  559MOL0     C73712   4.268   6.688   3.740 -0.1205  0.1226  0.4609
  559MOL0     C73713   4.150   6.609   3.726 -0.4055  0.0451  0.3104
  559MOL0     O73714   4.130   6.483   3.760  0.6119  0.1603  0.2623
  559MOL0     C73715   4.250   6.401   3.767  0.0887 -0.5467  0.3117
  559MOL0     C73716   4.206   6.262   3.805  0.6408 -0.0251 -0.3568
  559MOL0     C73717   4.215   6.222   3.948  0.0887 -0.6439 -0.4328
  559MOL0     C73718   4.109   6.128   4.006 -0.1194  0.2145  0.6451
  559MOL0     C73719   3.984   6.205   4.043 -0.7386  0.9046  0.5786
  559MOL0     C73720   3.897   6.268   4.089 -0.3289  0.1188  0.5867
  559MOL0     C73721   4.044   6.688   3.674  0.4764 -0.3778 -0.1684
  559MOL0     C73722   4.066   6.829   3.637 -1.0483 -0.2341  0.4152
  559MOL0     H73723   4.349   7.215   3.884  0.8453 -0.4163 -1.3323
  559MOL0     H73724   4.424   7.448   3.903  0.2676  0.0533 -0.4014
  559MOL0     H73725   4.546   7.615   3.891  1.2796 -1.2797  0.3488
  559MOL0     H73726   4.583   7.753   3.792 -1.2397  0.1244 -1.4105
  559MOL0     H73727   4.704   7.467   3.773  4.8670  0.7659  0.6996
  559MOL0     H73728   4.781   7.615   3.808  0.9812  0.8486 -1.3754
  559MOL0     H73729   4.761   7.706   3.593 -4.1734  0.6629  0.8579
  559MOL0     H73730   4.661   7.573   3.544 -0.0604  2.9062 -0.9739
  559MOL0     H73731   4.953   7.556   3.636  1.7484  0.6281 -1.6901
  559MOL0     H73732   4.866   7.418   3.577 -0.8653  0.1176 -1.4380
  559MOL0     H73733   4.929   7.667   3.421  0.0336  0.0516  2.7685
  559MOL0     H73734   4.834   7.552   3.339 -1.9860  1.5321  0.4284
  559MOL0     H73735   5.051   7.393   3.344  1.6676 -1.5151 -0.6300
  559MOL0     H73736   5.128   7.503   3.461 -0.1516 -1.2999 -1.6742
  559MOL0     H73737   5.026   7.619   3.185 -0.0920 -0.7386 -0.1134
  559MOL0     H73738   5.152   7.674   3.290  0.2641 -2.1205  1.2431
  559MOL0     H73739   5.119   7.416   3.103  1.0955 -1.4778 -0.3734
  559MOL0     H73740   5.269   7.454   3.203  1.1330  0.4415 -3.5601
  559MOL0     H73741   5.151   7.500   2.849  0.2457  0.3944 -1.2268
  559MOL0     H73742   5.233   7.770   2.675 -0.1257  0.0151 -1.8906
  559MOL0     H73743   5.292   7.605   2.632 -0.2959 -1.5076  0.7008
  559MOL0     H73744   5.527   7.672   2.682  0.4728  0.5709 -5.3926
  559MOL0     H73745   5.483   7.836   2.736  5.0049 -0.3301 -0.4616
  559MOL0     H73746   5.452   7.699   2.466 -2.3166  0.3165 -1.1389
  559MOL0     H73747   5.361   7.842   2.491  0.1267  1.1442  0.4139
  559MOL0     H73748   5.678   7.833   2.537  1.1677  1.6176 -1.4300
  559MOL0     H73749   5.571   7.975   2.517 -1.3136 -0.1357  2.0951
  559MOL0     H73750   5.657   7.867   2.119 -0.2106 -1.7798  2.3437
  559MOL0     H73751   5.829   7.995   1.984 -1.2148  0.7658 -0.0409
  559MOL0     H73752   6.332   8.049   1.926 -0.4550  1.5408  3.7231
  559MOL0     H73753   6.469   8.172   1.798  1.5346  2.7949  3.9244
  559MOL0     H73754   6.551   8.294   1.601  0.4683  0.9214 -1.9497
  559MOL0     H73755   6.573   8.385   1.757  0.2150 -1.0529  0.8195
  559MOL0     H73756   6.592   8.500   1.466  0.7939 -2.2109 -0.1365
  559MOL0     H73757   6.715   8.493   1.581  1.4899  3.1371  0.9704
  559MOL0     H73758   6.578   8.649   1.734  0.1404  0.9880 -0.6727
  559MOL0     H73759   6.461   8.670   1.607 -0.3708 -2.1802 -1.1011
  559MOL0     H73760   6.752   8.748   1.571 -0.3036 -0.5813 -1.1282
  559MOL0     H73761   6.619   8.779   1.468  2.9919  1.7304  0.1662
  559MOL0     H73762   6.660   8.874   1.755  0.4941 -2.9186  0.3195
  559MOL0     H73763   6.509   8.895   1.676  0.2461 -0.4451 -1.9967
  559MOL0     H73764   6.645   9.028   1.494 -2.3816  0.2597  0.6550
  559MOL0     H73765   6.798   8.983   1.570  0.2782  0.2104 -3.4846
  559MOL0     H73766   6.605   9.152   1.735  0.8848  1.5602 -1.1035
  559MOL0     H73767   6.764   9.087   1.763 -1.5826  0.1642  0.5060
  559MOL0     H73768   6.851   9.223   1.567  0.6870  1.6303  0.7359
  559MOL0     H73769   6.758   9.325   1.686 -1.1006  2.6531 -3.1413
  559MOL0     H73770   6.166   8.462   1.702  1.5538 -0.1852 -1.3093
  559MOL0     H73771   6.011   8.336   1.855  0.1568  1.2149  1.4484
  559MOL0     H73772   6.006   8.129   2.350  1.6678 -0.4067 -0.1352
  559MOL0     H73773   5.823   8.002   2.487 -0.5192 -0.6220 -0.5744
  559MOL0     H73774   4.388   7.508   3.480 -2.6913  1.9944  1.4143
  559MOL0     H73775   4.324   7.272   3.459 -0.5746  1.5171 -0.0432
  559MOL0     H73776   4.380   6.868   3.754  0.9168 -0.8438  0.3262
  559MOL0     H73777   4.358   6.648   3.785 -0.3046 -0.6184  0.1959
  559MOL0     H73778   4.335   6.436   3.827 -1.1053  0.9229  1.1906
  559MOL0     H73779   4.293   6.393   3.666 -1.7349 -0.3852 -0.5036
  559MOL0     H73780   4.114   6.251   3.748 -0.5335  0.7375  1.3031
  559MOL0     H73781   4.273   6.195   3.751  0.9687 -0.9924  1.1811
  559MOL0     H73782   4.217   6.309   4.015 -1.2334 -2.0483  1.5492
  559MOL0     H73783   4.311   6.175   3.969 -0.4784 -1.4201  0.5101
  559MOL0     H73784   4.092   6.047   3.935  2.3034 -1.1647  1.5193
  559MOL0     H73785   4.142   6.073   4.095 -2.4947  2.3717  3.0497
  559MOL0     H73786   3.812   6.320   4.128  0.1772  0.6684  0.9616
  559MOL0     H73787   3.946   6.643   3.662  0.4459 -0.4008  0.1539
  559MOL0     H73788   3.981   6.874   3.586 -1.3265 -2.7967 -1.5616
  560MOL0     O73789   4.396  10.068   6.455 -0.0275 -0.0115 -0.2861
  560MOL0     C73790   4.314  10.015   6.528  0.3517 -0.2276 -0.4327
  560MOL0     O73791   4.336   9.904   6.599  0.2825  0.5908 -0.2964
  560MOL0     C73792   4.458   9.844   6.611  0.3028  0.1658  0.7010
  560MOL0     C73793   4.484   9.709   6.591  0.4782 -0.4428  0.1991
  560MOL0     C73794   4.613   9.652   6.614  0.5634  0.7813 -0.4170
  560MOL0     C73795   4.710   9.728   6.670  0.3564 -0.8796  0.5718
  560MOL0     O73796   4.842   9.689   6.697  0.1139  0.4584 -1.1516
  560MOL0     C73797   4.865   9.549   6.690  0.8377 -0.0803 -0.8544
  560MOL0     C73798   5.007   9.524   6.740  0.2973  0.1824 -0.1066
  560MOL0     C73799   5.107   9.552   6.632  0.4943 -0.1194 -0.3096
  560MOL0     C73800   5.254   9.561   6.678  0.3834  0.8311 -0.2098
  560MOL0     C73801   5.343   9.599   6.554 -0.0196  0.0721  0.2527
  560MOL0     C73802   5.484   9.639   6.601  0.0083  0.4907  0.5308
  560MOL0     C73803   5.548   9.529   6.686  0.0191  1.2787 -0.0403
  560MOL0     C73804   5.540   9.393   6.612 -0.1879  0.0837  0.0500
  560MOL0     N73805   5.571   9.286   6.702  0.2936  0.2702 -0.5071
  560MOL0     C73806   5.698   9.266   6.751 -0.0178  0.4010 -0.1385
  560MOL0     C73807   5.680   9.177   6.854 -0.3754 -0.3308  0.9984
  560MOL0     C73808   5.770   9.115   6.961  0.0119 -0.5822  0.6110
  560MOL0     C73809   5.787   8.964   6.951 -0.7618  0.0080 -0.7942
  560MOL0     C73810   5.884   8.912   6.843  0.2052  0.3038 -0.3975
  560MOL0     C73811   5.907   8.761   6.846 -0.2421  0.0515 -0.7836
  560MOL0     O73812   5.970   8.735   6.976 -0.6621 -0.7941  0.1578
  560MOL0     C73813   6.062   8.628   6.981  0.0447 -0.1472  0.1402
  560MOL0     C73814   6.103   8.535   6.880  0.4578 -0.9180 -0.3145
  560MOL0     C73815   6.199   8.435   6.896 -0.7322 -0.2699  0.5960
  560MOL0     C73816   6.274   8.436   7.016  0.9964 -1.1234 -0.0473
  560MOL0     C73817   6.386   8.352   7.039 -0.4224  0.3364  0.0828
  560MOL0     O73818   6.480   8.386   7.131 -1.5338 -0.6382  0.5737
  560MOL0     C73819   6.577   8.296   7.167 -0.3437 -0.2408  0.2242
  560MOL0     C73820   6.585   8.240   7.288  0.8011  0.6452  0.0461
  560MOL0     C73821   6.678   8.145   7.322 -0.6492 -0.5462 -0.5973
  560MOL0     C73822   6.788   8.122   7.240 -0.7323 -1.0626 -0.3510
  560MOL0     O73823   6.887   8.037   7.296  0.2609  0.0110  0.0819
  560MOL0     C73824   7.023   8.049   7.234 -0.6751  0.1498  0.3731
  560MOL0     C73825   7.109   8.159   7.303  0.0639  0.1852  0.5611
  560MOL0     C73826   7.258   8.146   7.289  0.0354 -0.0404  0.5352
  560MOL0     C73827   7.348   8.250   7.362  0.2426  0.0673 -0.1701
  560MOL0     C73828   7.364   8.213   7.514 -0.6576  0.6626 -0.4107
  560MOL0     C73829   7.415   8.332   7.586  0.7750 -0.0950  0.1203
  560MOL0     C73830   7.491   8.297   7.721 -0.6951  0.9035  0.9486
  560MOL0     C73831   7.525   8.420   7.802  0.8774  0.0708  0.3098
  560MOL0    Cl73832   7.630   8.540   7.714  0.0160  0.7780  0.2201
  560MOL0     C73833   6.798   8.197   7.125  0.0748  0.1602  0.2595
  560MOL0     C73834   6.685   8.278   7.091 -1.1294 -0.5504  0.7210
  560MOL0     O73835   6.380   8.246   6.976  0.0955  0.3504 -0.2517
  560MOL0     C73836   6.236   8.525   7.117 -1.1109  0.4893 -0.0794
  560MOL0     C73837   6.138   8.617   7.099  0.2777  0.9051 -0.4379
  560MOL0     N73838   5.540   9.154   6.858  0.6885  0.4166  0.1825
  560MOL0     N73839   5.479   9.214   6.770 -0.8446 -0.5619  0.3813
  560MOL0     C73840   4.680   9.856   6.703 -0.6577 -0.4507 -0.0103
  560MOL0     C73841   4.559   9.915   6.676 -0.4437  0.1214  0.4921
  560MOL0     C73842   4.190  10.096   6.560  0.4230 -0.1201  0.7310
  560MOL0     C73843   4.071  10.036   6.616 -0.4643 -0.3529 -0.3472
  560MOL0     C73844   3.976  10.130   6.665 -0.4071 -1.3354  0.0513
  560MOL0     C73845   3.997  10.265   6.661 -1.0862 -0.8122 -0.0919
  560MOL0     O73846   3.883  10.343   6.693 -1.3617  0.2148 -0.6612
  560MOL0     C73847   3.898  10.483   6.691 -0.3828 -0.3251  0.1932
  560MOL0     C73848   3.763  10.545   6.725 -0.6011 -0.7152  0.9526
  560MOL0     C73849   3.726  10.552   6.879 -0.0170  0.3522  0.1516
  560MOL0     C73850   3.595  10.627   6.905  0.9071 -0.1438  0.0834
  560MOL0     C73851   3.549  10.623   7.046 -0.3325  1.3701  0.2691
  560MOL0     C73852   3.498  10.627   7.153  0.1038 -0.1610  0.8266
  560MOL0     C73853   4.128  10.317   6.616  0.6024 -0.4163  0.4625
  560MOL0     C73854   4.213  10.235   6.551 -0.1177 -0.1243 -0.2014
  560MOL0     H73855   4.409   9.650   6.540  1.4766 -1.1507 -0.4834
  560MOL0     H73856   4.611   9.544   6.604  0.6338  0.2320  3.7265
  560MOL0     H73857   4.855   9.526   6.583  0.0473  2.7738 -1.4986
  560MOL0     H73858   4.798   9.481   6.742 -0.2254  0.8051 -1.0334
  560MOL0     H73859   5.005   9.421   6.777  1.3246  0.3719  0.5211
  560MOL0     H73860   5.039   9.583   6.826  0.4221 -1.5768  1.1072
  560MOL0     H73861   5.083   9.648   6.585 -0.1736  1.1817  2.4736
  560MOL0     H73862   5.098   9.475   6.555 -2.0006  1.5069 -1.8149
  560MOL0     H73863   5.262   9.641   6.751 -2.0159 -0.1115  1.2207
  560MOL0     H73864   5.281   9.465   6.723  2.3659  1.5485  0.2042
  560MOL0     H73865   5.297   9.681   6.498 -1.0498 -0.7300 -0.1261
  560MOL0     H73866   5.351   9.520   6.479 -1.1454  0.3172 -0.1507
  560MOL0     H73867   5.489   9.732   6.659  2.1875 -0.2706  1.6910
  560MOL0     H73868   5.545   9.644   6.510  0.1902 -0.5225  0.5878
  560MOL0     H73869   5.652   9.551   6.710  0.8495 -1.3631 -0.8879
  560MOL0     H73870   5.487   9.524   6.776  2.5677  1.3213  1.7812
  560MOL0     H73871   5.613   9.404   6.531 -0.4947 -1.8609 -0.5537
  560MOL0     H73872   5.443   9.370   6.567 -0.8585  0.4536  1.2627
  560MOL0     H73873   5.791   9.321   6.737  1.5134 -1.9605  0.1845
  560MOL0     H73874   5.724   9.132   7.058  2.2666 -1.1609  1.8532
  560MOL0     H73875   5.860   9.176   6.973  0.9080 -2.2334  3.3131
  560MOL0     H73876   5.691   8.914   6.941 -1.0023 -0.2211  1.9962
  560MOL0     H73877   5.832   8.936   7.047  1.4041  1.5429 -1.2703
  560MOL0     H73878   5.852   8.932   6.741  3.1084  0.9789 -1.2850
  560MOL0     H73879   5.982   8.960   6.850 -0.6925  2.2645 -0.6669
  560MOL0     H73880   5.962   8.724   6.760 -0.4017 -0.2196 -0.7698
  560MOL0     H73881   5.823   8.691   6.853  0.1243 -0.2759  0.6839
  560MOL0     H73882   6.059   8.538   6.780  0.1899 -0.5598 -0.1873
  560MOL0     H73883   6.222   8.382   6.805  2.5656  1.2032  0.4251
  560MOL0     H73884   6.516   8.263   7.369  2.2188 -0.0380  1.5096
  560MOL0     H73885   6.656   8.085   7.410 -2.9650  3.1633  1.6005
  560MOL0     H73886   7.026   8.055   7.125  2.0541 -0.6611  0.3216
  560MOL0     H73887   7.068   7.957   7.271  0.1105 -0.3055 -1.6206
  560MOL0     H73888   7.093   8.143   7.410 -0.1260 -1.4860  0.3127
  560MOL0     H73889   7.083   8.260   7.268  2.1423  0.9574  1.1252
  560MOL0     H73890   7.268   8.155   7.180 -1.4771  2.9356  0.5409
  560MOL0     H73891   7.293   8.045   7.315  1.5420 -0.2862 -2.1384
  560MOL0     H73892   7.445   8.270   7.314  0.2857  1.2403  0.3536
  560MOL0     H73893   7.288   8.341   7.370 -0.5984 -0.5018  0.1442
  560MOL0     H73894   7.433   8.129   7.526 -2.5923 -0.8366  0.9892
  560MOL0     H73895   7.268   8.187   7.560 -1.0996 -0.2252 -1.7815
  560MOL0     H73896   7.337   8.405   7.604  1.0814  0.4777 -0.7881
  560MOL0     H73897   7.488   8.378   7.517 -0.9649  1.9199 -0.4777
  560MOL0     H73898   7.438   8.228   7.788 -2.0972 -2.1180 -2.9143
  560MOL0     H73899   7.586   8.253   7.689 -1.1710  0.8092 -0.4051
  560MOL0     H73900   7.586   8.400   7.891 -0.1848 -0.3156  0.9681
  560MOL0     H73901   7.435   8.471   7.837  1.0531 -0.5112  1.6885
  560MOL0     H73902   6.876   8.188   7.049 -2.9873  1.5154 -3.3649
  560MOL0     H73903   6.702   8.323   6.993  1.4887 -1.4266  0.6937
  560MOL0     H73904   6.284   8.533   7.214 -1.4190  3.4062 -0.0739
  560MOL0     H73905   6.115   8.695   7.170 -1.7384 -1.1569  1.3336
  560MOL0     H73906   4.761   9.912   6.749 -0.1935 -2.2194  1.4657
  560MOL0     H73907   4.543  10.017   6.707 -0.2642  0.0507  0.8203
  560MOL0     H73908   4.045   9.931   6.624 -3.3811  0.2269 -0.9740
  560MOL0     H73909   3.889  10.089   6.715  0.0442 -0.3469  1.7134
  560MOL0     H73910   3.934  10.513   6.592 -1.5162  0.1961 -0.0791
  560MOL0     H73911   3.961  10.524   6.770  0.6632  0.5628 -1.0623
  560MOL0     H73912   3.760  10.641   6.673 -1.1516 -1.7308 -0.9871
  560MOL0     H73913   3.682  10.488   6.679 -1.3311 -1.4396  3.0101
  560MOL0     H73914   3.813  10.605   6.919  2.4012 -1.2109 -2.6406
  560MOL0     H73915   3.746  10.453   6.921 -0.0937 -0.6416 -1.9969
  560MOL0     H73916   3.605  10.735   6.888 -0.5242 -0.3991 -3.1788
  560MOL0     H73917   3.518  10.593   6.834  0.6346  3.5499 -1.6346
  560MOL0     H73918   3.450  10.627   7.249 -2.9477 -0.2128 -0.5840
  560MOL0     H73919   4.146  10.424   6.612 -0.7151 -0.2046 -1.7319
  560MOL0     H73920   4.295  10.270   6.489 -0.7596 -0.3521 -1.1911
  561MOL0     O73921   1.274   8.401   9.491  0.6152  0.5330 -0.1676
  561MOL0     C73922   1.183   8.437   9.420  0.3189 -0.5786 -0.4175
  561MOL0     O73923   1.046   8.423   9.444 -0.1023 -0.2929  0.0910
  561MOL0     C73924   0.997   8.361   9.562 -0.8569  0.1775 -0.2923
  561MOL0     C73925   0.863   8.318   9.563  0.0347 -0.1051  0.0182
  561MOL0     C73926   0.799   8.248   9.667  0.8228 -0.0968 -0.0587
  561MOL0     C73927   0.884   8.221   9.784  0.5544  0.8858 -1.1890
  561MOL0     O73928   0.830   8.142   9.886 -0.0293 -0.4512  1.2798
  561MOL0     C73929   0.919   8.036   9.940  0.2415  0.9069  0.3431
  561MOL0     C73930   0.829   7.919   9.988 -0.9597  0.1238 -0.4333
  561MOL0     C73931   0.903   7.804  10.036  0.8338  0.3541 -0.6367
  561MOL0     C73932   0.994   7.816  10.157  0.2591 -0.8003 -0.3242
  561MOL0     C73933   1.051   7.693  10.229  0.3549  0.3411  0.5025
  561MOL0     C73934   1.166   7.637  10.151 -0.3334 -0.0486 -0.1745
  561MOL0     C73935   1.211   7.505  10.225 -1.1404 -0.3536  0.8906
  561MOL0     C73936   1.347   7.470  10.179  0.2373 -0.1684 -0.1243
  561MOL0     N73937   1.389   7.343  10.234 -0.2559 -0.3001 -0.2939
  561MOL0     C73938   1.391   7.330  10.372  0.1442  0.0778  0.8728
  561MOL0     C73939   1.450   7.203  10.389 -0.2752  0.1008 -0.5143
  561MOL0     C73940   1.463   7.141  10.528 -0.9708 -0.9382  0.0636
  561MOL0     C73941   1.384   7.016  10.551 -0.1194 -0.3408  0.6549
  561MOL0     C73942   1.399   6.947  10.686  0.3201 -0.6172  0.2447
  561MOL0     C73943   1.391   7.042  10.803  0.0076  0.0546 -0.2428
  561MOL0     O73944   1.281   7.135  10.768  0.2821  0.1422 -0.2735
  561MOL0     C73945   1.236   7.210  10.868  0.5276 -0.6274  0.3869
  561MOL0     C73946   1.120   7.290  10.837  0.4357  0.9316  0.2954
  561MOL0     C73947   1.061   7.372  10.936  0.1316 -0.5775 -0.0102
  561MOL0     C73948   1.111   7.376  11.067 -0.2311  0.0390  0.7487
  561MOL0     C73949   1.051   7.462  11.166 -1.1395 -0.1469  0.0964
  561MOL0     O73950   0.960   7.554  11.126 -0.8660 -0.0235  0.2154
  561MOL0     C73951   0.877   7.625  11.209  0.2342  0.8144  0.2477
  561MOL0     C73952   0.873   7.631  11.349 -0.7809 -0.5513 -1.1198
  561MOL0     C73953   0.785   7.711  11.422 -0.5051  0.1914  0.0549
  561MOL0     C73954   0.697   7.787  11.354 -0.0368  0.3379 -0.2613
  561MOL0     O73955   0.630   7.887  11.428 -0.5062  0.4732  0.1057
  561MOL0     C73956   0.603   7.867  11.574 -0.1496  0.2622 -1.2819
  561MOL0     C73957   0.492   7.971  11.601 -1.0368  0.1627  0.2516
  561MOL0     C73958   0.427   7.965  11.741 -0.4681  0.0563  1.5378
  561MOL0     C73959   0.380   8.110  11.769  0.4333 -0.6589  0.3725
  561MOL0     C73960   0.268   8.135  11.871 -0.6272 -0.3107  0.2193
  561MOL0     C73961   0.308   8.084  12.018 -0.0136  0.1854 -0.0501
  561MOL0     C73962   0.406   8.173  12.081  0.0466  0.2422  0.4862
  561MOL0     C73963   0.450   8.123  12.223 -0.1559  0.3255 -0.0536
  561MOL0    Cl73964   0.526   7.965  12.216  0.1986  0.4315 -0.2415
  561MOL0     C73965   0.690   7.784  11.210  0.3299  0.6683 -1.0036
  561MOL0     C73966   0.785   7.699  11.137  0.9692 -0.2214  0.0268
  561MOL0     O73967   1.103   7.461  11.278  0.4217  0.5404  0.5401
  561MOL0     C73968   1.222   7.299  11.092  0.0707 -0.2615  0.7869
  561MOL0     C73969   1.290   7.224  10.992 -0.7282 -0.3995  0.3824
  561MOL0     N73970   1.497   7.165  10.272  0.0619 -0.1927  0.0227
  561MOL0     N73971   1.464   7.244  10.175 -0.2938 -0.3650  0.1862
  561MOL0     C73972   1.015   8.265   9.780 -0.5368 -0.3518 -0.5393
  561MOL0     C73973   1.069   8.342   9.679  0.2700  0.1232 -0.5666
  561MOL0     C73974   1.207   8.520   9.296  0.0691  0.1117 -1.0778
  561MOL0     C73975   1.111   8.603   9.243  0.2468 -0.2025 -0.2309
  561MOL0     C73976   1.138   8.677   9.130  0.2213 -0.0776  0.4506
  561MOL0     C73977   1.257   8.673   9.066 -1.0082 -0.0083 -0.3901
  561MOL0     O73978   1.266   8.746   8.958 -0.6739  0.3306  0.2657
  561MOL0     C73979   1.286   8.671   8.837 -0.3098  0.2192 -0.4509
  561MOL0     C73980   1.388   8.754   8.746 -0.3163  0.3152  0.0713
  561MOL0     C73981   1.529   8.748   8.795 -0.3633 -0.4960 -0.6868
  561MOL0     C73982   1.605   8.624   8.750 -0.1278 -0.6587  0.3666
  561MOL0     C73983   1.662   8.644   8.617  0.2944 -0.7290 -0.2101
  561MOL0     C73984   1.715   8.664   8.512  0.0978 -0.0813 -0.0258
  561MOL0     C73985   1.358   8.590   9.117 -0.7994 -0.0797 -0.7701
  561MOL0     C73986   1.332   8.515   9.230 -0.9091 -0.4423  0.1473
  561MOL0     H73987   0.819   8.339   9.466 -1.1884  0.4778  0.6730
  561MOL0     H73988   0.695   8.215   9.663  0.4772  0.9107  0.3802
  561MOL0     H73989   0.980   8.067  10.025  1.0038  1.6740 -0.4741
  561MOL0     H73990   0.982   7.998   9.860 -1.6000  0.0247 -0.7571
  561MOL0     H73991   0.777   7.873   9.903 -3.5795 -1.6149  1.9136
  561MOL0     H73992   0.747   7.949  10.054 -3.7087 -1.8891 -2.6517
  561MOL0     H73993   0.959   7.753   9.957  0.2991 -0.6293 -0.3881
  561MOL0     H73994   0.821   7.740  10.069 -0.5064  2.9303  1.3467
  561MOL0     H73995   1.082   7.869  10.119  1.0417 -1.5661  0.3772
  561MOL0     H73996   0.935   7.886  10.216  0.7575 -1.9815  1.6322
  561MOL0     H73997   0.980   7.612  10.246  2.3553 -1.7505 -0.4746
  561MOL0     H73998   1.096   7.738  10.318  1.1032  1.5806 -0.4784
  561MOL0     H73999   1.243   7.714  10.151 -0.0891  0.1509  5.3697
  561MOL0     H74000   1.142   7.636  10.045 -1.6447  5.4880 -0.1992
  561MOL0     H74001   1.224   7.540  10.328  0.8900  2.0833 -0.0763
  561MOL0     H74002   1.134   7.428  10.223 -0.3859 -1.4750  5.1431
  561MOL0     H74003   1.415   7.554  10.198  2.1540 -1.3772 -1.2597
  561MOL0     H74004   1.345   7.458  10.070  1.2006  1.5908 -0.3683
  561MOL0     H74005   1.331   7.390  10.440  0.0799  2.4162 -1.1269
  561MOL0     H74006   1.444   7.219  10.602  4.4746  1.2346 -0.3985
  561MOL0     H74007   1.566   7.118  10.557 -2.1088 -3.5557  2.5417
  561MOL0     H74008   1.410   6.935  10.483 -0.8518  0.8533 -1.0948
  561MOL0     H74009   1.279   7.032  10.528 -0.2035  1.7451  2.2090
  561MOL0     H74010   1.317   6.876  10.693  0.0944 -0.6114 -1.7202
  561MOL0     H74011   1.492   6.889  10.679  1.9496  1.9622 -2.1450
  561MOL0     H74012   1.483   7.097  10.827  0.1760 -1.0417  1.8427
  561MOL0     H74013   1.362   6.991  10.896  2.1445 -2.1118 -0.6773
  561MOL0     H74014   1.071   7.273  10.742 -2.5417 -0.5856  1.9716
  561MOL0     H74015   0.966   7.422  10.922 -0.9159 -1.0794  4.0031
  561MOL0     H74016   0.933   7.563  11.409 -0.7761 -0.8450 -1.4508
  561MOL0     H74017   0.788   7.708  11.531  2.6182  0.2999  0.0682
  561MOL0     H74018   0.697   7.888  11.627 -0.2417 -1.5844 -0.3202
  561MOL0     H74019   0.565   7.768  11.600 -3.5875  0.9713 -2.9884
  561MOL0     H74020   0.414   7.960  11.525 -2.3703 -0.3121  1.6565
  561MOL0     H74021   0.535   8.071  11.598 -2.0368  0.6895  2.1364
  561MOL0     H74022   0.508   7.937  11.810  0.0054  1.5793  1.6463
  561MOL0     H74023   0.350   7.888  11.731  0.8037 -0.9552 -2.7629
  561MOL0     H74024   0.468   8.173  11.789  0.1108  0.5549 -1.6880
  561MOL0     H74025   0.342   8.153  11.676 -1.3356 -0.8465  0.9783
  561MOL0     H74026   0.174   8.096  11.832  0.7385 -1.3776 -2.2652
  561MOL0     H74027   0.240   8.240  11.883 -0.7109 -0.2607 -0.4147
  561MOL0     H74028   0.346   7.982  12.012 -1.3396 -0.3483  0.2644
  561MOL0     H74029   0.210   8.079  12.068 -1.3005  1.8929 -2.2168
  561MOL0     H74030   0.492   8.197  12.018  1.3770  2.8115  3.0656
  561MOL0     H74031   0.358   8.270  12.099 -1.0898 -0.9055  4.9080
  561MOL0     H74032   0.361   8.115  12.286 -0.7633 -1.2700 -1.0428
  561MOL0     H74033   0.522   8.196  12.261 -0.4766 -0.3097  1.8504
  561MOL0     H74034   0.614   7.836  11.153  0.2439  0.4634 -1.0760
  561MOL0     H74035   0.780   7.696  11.029 -2.7668  2.9486 -0.0947
  561MOL0     H74036   1.273   7.316  11.186  2.0053  1.8770 -0.5349
  561MOL0     H74037   1.388   7.178  10.995 -0.5438 -0.5828 -3.3850
  561MOL0     H74038   1.067   8.241   9.873 -0.3834 -3.8451 -1.3814
  561MOL0     H74039   1.165   8.385   9.705  0.4601 -1.3199  1.3490
  561MOL0     H74040   1.012   8.600   9.287  1.6931 -0.0965  3.3646
  561MOL0     H74041   1.070   8.753   9.092  1.2048  0.1629 -0.8842
  561MOL0     H74042   1.195   8.662   8.776  1.0837 -0.0223 -2.5869
  561MOL0     H74043   1.321   8.570   8.860 -2.5333 -0.3983  0.5305
  561MOL0     H74044   1.387   8.720   8.642  0.1577 -0.4949  0.3192
  561MOL0     H74045   1.357   8.859   8.753 -0.6498  0.2040  0.2904
  561MOL0     H74046   1.530   8.761   8.903 -0.2498 -2.1679 -0.4641
  561MOL0     H74047   1.579   8.840   8.762 -0.3858 -1.0621 -2.3989
  561MOL0     H74048   1.685   8.608   8.822  0.9504  1.9404 -0.1699
  561MOL0     H74049   1.538   8.537   8.753 -4.0700  2.1223  0.2477
  561MOL0     H74050   1.740   8.708   8.418 -0.8194  2.4396  0.8365
  561MOL0     H74051   1.457   8.588   9.074 -0.2379 -0.4857  0.4734
  561MOL0     H74052   1.421   8.483   9.283 -0.3238  2.1329  0.8428
  562MOL0     O74053   6.081   9.711  10.041  0.6385 -0.2266 -0.4248
  562MOL0     C74054   6.000   9.717   9.951  0.4076 -0.7609  0.3605
  562MOL0     O74055   5.866   9.711   9.963 -0.2497  0.6896 -0.0342
  562MOL0     C74056   5.793   9.661  10.067 -0.4544  0.2198 -0.1126
  562MOL0     C74057   5.835   9.680  10.196 -0.6050 -0.4103  0.6076
  562MOL0     C74058   5.762   9.632  10.303  0.6660 -0.0029 -1.0475
  562MOL0     C74059   5.634   9.564  10.278  0.0706 -0.7858  1.3676
  562MOL0     O74060   5.562   9.505  10.375  0.4406 -0.1214 -0.5332
  562MOL0     C74061   5.627   9.475  10.499  0.8383  0.1632 -0.1389
  562MOL0     C74062   5.529   9.406  10.589  0.7343  1.1579 -0.6163
  562MOL0     C74063   5.483   9.275  10.528 -0.2195  0.0480 -0.3291
  562MOL0     C74064   5.411   9.189  10.635  0.5345 -0.4950 -0.1756
  562MOL0     C74065   5.388   9.046  10.602 -0.2675 -0.2119  1.2339
  562MOL0     C74066   5.265   9.031  10.507 -0.4007  0.0781 -0.3344
  562MOL0     C74067   5.219   8.882  10.480  0.4276 -0.6192  0.3616
  562MOL0     C74068   5.110   8.841  10.579  0.4952 -1.0768  0.1570
  562MOL0     N74069   5.057   8.707  10.559  0.0476 -0.4651 -0.2281
  562MOL0     C74070   4.963   8.666  10.465 -0.1457  0.0787  1.2141
  562MOL0     C74071   4.953   8.533  10.468 -0.7137 -0.3210  0.1566
  562MOL0     C74072   4.885   8.441  10.367 -0.3415  0.1962 -0.6919
  562MOL0     C74073   4.962   8.443  10.236 -0.1019 -0.4042  0.9250
  562MOL0     C74074   4.937   8.331  10.128 -0.3994  0.0714  0.5839
  562MOL0     C74075   4.825   8.368  10.043  0.7135  0.3366 -0.4166
  562MOL0     O74076   4.813   8.263   9.953  0.4927  0.1688  0.0416
  562MOL0     C74077   4.707   8.268   9.861  0.3805 -0.0614 -0.2456
  562MOL0     C74078   4.632   8.386   9.840 -0.4824 -0.9322  0.8861
  562MOL0     C74079   4.543   8.389   9.737 -0.3731  0.0434  0.1765
  562MOL0     C74080   4.518   8.275   9.653 -0.2501 -0.3589 -0.2639
  562MOL0     C74081   4.423   8.293   9.546 -0.1071 -0.0857  0.0685
  562MOL0     O74082   4.403   8.417   9.491 -0.2806 -0.5957  0.0264
  562MOL0     C74083   4.330   8.435   9.368 -0.3112  0.3031 -0.5837
  562MOL0     C74084   4.211   8.370   9.327 -0.1944 -0.1652 -1.1013
  562MOL0     C74085   4.139   8.391   9.203  0.4600  0.3463 -0.1069
  562MOL0     C74086   4.192   8.485   9.109  0.7776 -0.6837  0.2728
  562MOL0     O74087   4.122   8.494   8.987 -0.0700  0.7550 -0.1432
  562MOL0     C74088   4.166   8.587   8.894  0.0527 -0.7900  0.8128
  562MOL0     C74089   4.121   8.550   8.754 -0.5294  0.1535  0.5157
  562MOL0     C74090   3.962   8.577   8.744 -0.4066 -0.1208 -0.1777
  562MOL0     C74091   3.894   8.480   8.651  0.0615  0.3304  0.3670
  562MOL0     C74092   3.751   8.517   8.620 -0.5133  0.5951  0.8062
  562MOL0     C74093   3.688   8.412   8.526  0.6124  0.1062  0.4094
  562MOL0     C74094   3.542   8.374   8.570  0.5623  0.4736 -0.2488
  562MOL0     C74095   3.473   8.279   8.475  0.4642 -1.2317 -0.0625
  562MOL0    Cl74096   3.480   8.337   8.298  0.7126 -0.6207  0.0283
  562MOL0     C74097   4.293   8.577   9.152 -0.1493 -0.6442  0.1212
  562MOL0     C74098   4.363   8.542   9.277 -0.4774 -0.4366 -0.0239
  562MOL0     O74099   4.377   8.189   9.504  0.1192  0.4880 -0.8054
  562MOL0     C74100   4.594   8.160   9.678  0.3086 -0.2852  0.5250
  562MOL0     C74101   4.685   8.157   9.783 -0.0422 -0.2265 -1.5717
  562MOL0     N74102   5.024   8.490  10.576 -0.4171  0.3610 -0.5845
  562MOL0     N74103   5.074   8.598  10.640  0.3706  0.0948  0.9353
  562MOL0     C74104   5.586   9.563  10.152  1.2094 -0.2738 -1.1545
  562MOL0     C74105   5.663   9.608  10.045 -0.1911  0.5528 -1.2124
  562MOL0     C74106   6.063   9.739   9.816 -0.0473 -0.1166 -0.3485
  562MOL0     C74107   6.195   9.734   9.790  0.8769  0.3237 -0.5159
  562MOL0     C74108   6.246   9.748   9.666  0.6410 -0.0360  0.2590
  562MOL0     C74109   6.161   9.766   9.552 -0.5937 -0.2971 -0.0671
  562MOL0     O74110   6.195   9.800   9.427 -0.0606 -0.1966 -0.1526
  562MOL0     C74111   6.314   9.733   9.382 -0.3169  0.4416 -0.5195
  562MOL0     C74112   6.336   9.748   9.231 -0.3739  0.0301  0.3186
  562MOL0     C74113   6.488   9.761   9.192  0.2079 -0.3788  0.1843
  562MOL0     C74114   6.496   9.802   9.042 -0.9132  0.2180 -0.6647
  562MOL0     C74115   6.489   9.683   8.956 -0.1466 -0.7329 -1.6296
  562MOL0     C74116   6.489   9.573   8.905  1.2702 -0.0515 -0.6013
  562MOL0     C74117   6.029   9.759   9.576  1.2817 -0.6678  0.7472
  562MOL0     C74118   5.980   9.753   9.709  0.3918  0.2283  0.2964
  562MOL0     H74119   5.909   9.758  10.210 -1.1697  0.8045 -2.4241
  562MOL0     H74120   5.800   9.635  10.405  4.0157 -2.9258 -1.9721
  562MOL0     H74121   5.654   9.568  10.550  1.8204 -1.1854  1.9152
  562MOL0     H74122   5.712   9.407  10.490  1.8986  1.4369 -0.0317
  562MOL0     H74123   5.435   9.462  10.588 -0.2494 -0.4069 -2.6698
  562MOL0     H74124   5.568   9.391  10.690  0.2931 -2.6107 -0.8653
  562MOL0     H74125   5.567   9.215  10.492 -1.2274 -2.3901  1.1420
  562MOL0     H74126   5.427   9.288  10.435 -0.7804 -1.9628 -0.3312
  562MOL0     H74127   5.483   9.191  10.717 -2.5106  4.0867  2.8903
  562MOL0     H74128   5.318   9.235  10.670  0.8707  0.3989 -0.4259
  562MOL0     H74129   5.354   9.004  10.697 -0.4206  1.0624  1.7613
  562MOL0     H74130   5.479   8.996  10.568 -0.6497  0.6258 -1.2496
  562MOL0     H74131   5.287   9.058  10.403 -1.3580  1.7885 -0.1311
  562MOL0     H74132   5.187   9.095  10.549  3.4708  3.2217  2.9448
  562MOL0     H74133   5.186   8.863  10.377  1.5278  1.4984 -0.4474
  562MOL0     H74134   5.309   8.820  10.488  2.7251  2.0171 -2.3823
  562MOL0     H74135   5.017   8.894  10.561  1.9384  1.4445 -0.3868
  562MOL0     H74136   5.152   8.852  10.680  2.6353 -1.8427 -0.5796
  562MOL0     H74137   4.907   8.727  10.394 -0.8924  0.7430  2.3556
  562MOL0     H74138   4.779   8.468  10.359  0.0687  1.3452 -2.8218
  562MOL0     H74139   4.887   8.338  10.406  0.3514 -0.3531 -2.0991
  562MOL0     H74140   5.065   8.444  10.271 -0.1296 -0.5958  1.0129
  562MOL0     H74141   4.939   8.540  10.191  2.3007 -1.6099 -3.5676
  562MOL0     H74142   5.028   8.315  10.071  0.3666  1.9448  1.2056
  562MOL0     H74143   4.920   8.241  10.189 -2.6329  1.8393  2.7668
  562MOL0     H74144   4.841   8.466   9.997  0.4882 -0.7136 -2.8798
  562MOL0     H74145   4.733   8.380  10.100  0.1640  0.1547 -1.2525
  562MOL0     H74146   4.645   8.489   9.873  1.2120 -0.7394 -0.2537
  562MOL0     H74147   4.488   8.480   9.715  0.7189  0.2244 -2.1523
  562MOL0     H74148   4.179   8.298   9.402 -0.2414  1.5264  0.5742
  562MOL0     H74149   4.046   8.337   9.185 -0.4350  0.8052  2.5976
  562MOL0     H74150   4.276   8.581   8.889  0.1478  0.3327  1.1830
  562MOL0     H74151   4.140   8.691   8.916 -2.4655 -1.3228  0.5493
  562MOL0     H74152   4.160   8.449   8.734  1.3649  0.9244  0.0501
  562MOL0     H74153   4.165   8.601   8.668  0.5741 -0.7367  0.5238
  562MOL0     H74154   3.944   8.673   8.695 -1.2422  0.5573  1.3955
  562MOL0     H74155   3.905   8.563   8.836 -2.1920 -1.5411 -1.3960
  562MOL0     H74156   3.950   8.476   8.557  1.7752 -2.5025  1.3724
  562MOL0     H74157   3.898   8.379   8.695  1.8065 -0.3260 -1.1648
  562MOL0     H74158   3.748   8.618   8.576 -1.1963  0.2560  0.0520
  562MOL0     H74159   3.701   8.518   8.717 -2.4436  1.2928 -0.1334
  562MOL0     H74160   3.762   8.334   8.507  1.4840  1.3946 -1.9936
  562MOL0     H74161   3.680   8.461   8.429  2.3493  1.4851  0.9038
  562MOL0     H74162   3.552   8.322   8.666  2.5684  2.9307  0.9620
  562MOL0     H74163   3.480   8.463   8.582  1.6426  1.1934  0.1121
  562MOL0     H74164   3.371   8.287   8.516  1.4991  2.3789  2.2510
  562MOL0     H74165   3.519   8.180   8.480  3.9408  0.2094 -0.6903
  562MOL0     H74166   4.315   8.669   9.099  2.3740 -0.2096  1.7262
  562MOL0     H74167   4.443   8.609   9.306  0.2531 -0.7467 -1.1982
  562MOL0     H74168   4.586   8.073   9.614  2.3458 -0.7649  0.8539
  562MOL0     H74169   4.761   8.080   9.777 -1.9962 -2.4411 -0.1129
  562MOL0     H74170   5.481   9.540  10.139  0.3357  1.5827  1.6601
  562MOL0     H74171   5.627   9.583   9.945  1.7579 -2.5687 -1.2805
  562MOL0     H74172   6.266   9.730   9.872 -0.7071 -1.9542  0.8269
  562MOL0     H74173   6.353   9.750   9.650  0.2843 -0.7848 -3.0808
  562MOL0     H74174   6.323   9.628   9.408  1.5688  1.2001  2.4834
  562MOL0     H74175   6.393   9.789   9.434 -0.8107  2.5352 -1.8686
  562MOL0     H74176   6.292   9.664   9.176 -0.1526  1.6796 -2.6145
  562MOL0     H74177   6.281   9.835   9.195  1.7082  0.8642 -1.0994
  562MOL0     H74178   6.551   9.673   9.211 -0.1342 -1.0271 -1.5027
  562MOL0     H74179   6.538   9.842   9.246  0.2011  2.1093 -3.1956
  562MOL0     H74180   6.415   9.869   9.012 -0.2300  0.0938 -2.9775
  562MOL0     H74181   6.591   9.850   9.017 -0.6239  0.6460  1.0957
  562MOL0     H74182   6.501   9.474   8.865  3.2090  0.4412 -1.3185
  562MOL0     H74183   5.961   9.783   9.495 -0.0350  0.3667  2.0947
  562MOL0     H74184   5.871   9.751   9.715  0.2189  4.1695  1.4827
  563MOL0     O74185   4.500   9.961   9.435  0.7086 -0.1094 -0.3545
  563MOL0     C74186   4.489  10.003   9.325 -0.1674 -1.5054 -0.0550
  563MOL0     O74187   4.601  10.052   9.241  0.8085 -0.5683  0.0171
  563MOL0     C74188   4.737  10.046   9.277 -1.0059 -0.1187  0.5478
  563MOL0     C74189   4.787  10.061   9.409  0.0745  0.7097 -0.6243
  563MOL0     C74190   4.918  10.066   9.435  0.2468  0.0187  0.1797
  563MOL0     C74191   5.003  10.072   9.326 -0.0281  1.1873  0.0277
  563MOL0     O74192   5.141  10.072   9.331  0.2657 -0.6071  0.4316
  563MOL0     C74193   5.213  10.122   9.445  0.0879 -0.8460 -0.1643
  563MOL0     C74194   5.198  10.270   9.434  0.0640  0.3028  0.1722
  563MOL0     C74195   5.289  10.335   9.542 -0.3131 -0.4571  0.5504
  563MOL0     C74196   5.290  10.487   9.532 -1.2840 -0.5550 -0.7315
  563MOL0     C74197   5.345  10.542   9.405 -0.3543  1.7270 -0.7282
  563MOL0     C74198   5.481  10.481   9.357  0.4635 -0.3005 -0.5361
  563MOL0     C74199   5.551  10.585   9.275  0.5716 -0.5998  0.3390
  563MOL0     C74200   5.488  10.603   9.143 -0.9930  0.0556 -0.4097
  563MOL0     N74201   5.528  10.500   9.048 -0.0833  0.6496  1.1052
  563MOL0     C74202   5.648  10.470   8.995 -0.8201 -0.6479  1.1414
  563MOL0     C74203   5.630  10.363   8.917  0.4161 -0.8318  0.1017
  563MOL0     C74204   5.749  10.305   8.846 -0.1947  0.2237  0.4639
  563MOL0     C74205   5.749  10.247   8.704 -0.0837  0.3204  0.6150
  563MOL0     C74206   5.674  10.113   8.715  0.2865 -0.5748 -0.5221
  563MOL0     C74207   5.683  10.021   8.587 -1.1325 -0.4158  0.1547
  563MOL0     O74208   5.803   9.946   8.582  0.8567  0.3054 -0.3386
  563MOL0     C74209   5.826   9.870   8.468 -0.1596  0.9090  0.4218
  563MOL0     C74210   5.929   9.776   8.467  0.9146 -0.2438  0.5785
  563MOL0     C74211   5.951   9.690   8.357 -0.0186 -0.6149  0.0894
  563MOL0     C74212   5.884   9.707   8.237 -0.3571 -0.3548 -0.5530
  563MOL0     C74213   5.936   9.634   8.118  0.4955 -0.7101  1.0776
  563MOL0     O74214   5.886   9.685   7.990 -0.2810  0.1357  0.7421
  563MOL0     C74215   5.941   9.643   7.866  1.3537 -0.7224 -0.4586
  563MOL0     C74216   5.861   9.627   7.756  0.0514  0.1995  0.6038
  563MOL0     C74217   5.912   9.594   7.625  0.2428 -0.9992 -0.2548
  563MOL0     C74218   6.044   9.598   7.599 -0.0142  0.2025  0.1703
  563MOL0     O74219   6.088   9.577   7.471  0.5154  0.5441 -0.7918
  563MOL0     C74220   6.168   9.468   7.453 -0.0485  0.9125  0.5921
  563MOL0     C74221   6.249   9.499   7.326 -0.9413  0.2061  0.0545
  563MOL0     C74222   6.188   9.490   7.181  0.3105 -0.7514  0.6452
  563MOL0     C74223   6.129   9.352   7.134  0.8443 -0.5915  0.4717
  563MOL0     C74224   6.217   9.229   7.170 -0.2764 -0.8504  0.4798
  563MOL0     C74225   6.162   9.099   7.087  0.3042  0.7423 -1.1032
  563MOL0     C74226   6.269   8.983   7.093 -0.1080 -0.3014 -1.5158
  563MOL0     C74227   6.258   8.923   7.233 -0.1552  0.0057 -0.7012
  563MOL0    Cl74228   6.374   8.797   7.264  0.6023 -0.1151  0.1028
  563MOL0     C74229   6.132   9.624   7.702  0.1531 -0.3635 -0.0077
  563MOL0     C74230   6.081   9.642   7.837 -1.3183 -0.1010 -0.1699
  563MOL0     O74231   6.012   9.541   8.135 -0.6931 -0.1571  0.2582
  563MOL0     C74232   5.776   9.788   8.232  0.2846  0.0815 -0.4619
  563MOL0     C74233   5.740   9.866   8.352  0.3931 -0.1568  0.8366
  563MOL0     N74234   5.495  10.338   8.904 -0.1934  0.3134  0.4277
  563MOL0     N74235   5.438  10.409   8.996 -0.6767 -0.2054  0.9562
  563MOL0     C74236   4.957  10.064   9.199  0.5912  0.4988 -0.1832
  563MOL0     C74237   4.826  10.044   9.165 -0.4109  0.6957 -0.0772
  563MOL0     C74238   4.352  10.024   9.266  0.0258 -0.3667  0.5583
  563MOL0     C74239   4.318  10.018   9.128  0.1996  0.5248  0.5792
  563MOL0     C74240   4.191  10.035   9.071 -0.0756  0.2162  0.5606
  563MOL0     C74241   4.081  10.058   9.154  0.4546  0.0713 -0.6481
  563MOL0     O74242   3.951  10.090   9.131  0.2068  0.1087  0.4037
  563MOL0     C74243   3.892  10.089   8.999 -0.0878 -0.0119  0.3227
  563MOL0     C74244   3.918  10.214   8.915 -0.2007  0.0742 -0.6907
  563MOL0     C74245   3.847  10.337   8.970  0.2647 -0.1895 -0.3189
  563MOL0     C74246   3.877  10.464   8.891  0.1951  1.1249  0.0888
  563MOL0     C74247   4.020  10.486   8.858  0.4075 -0.0228 -1.0192
  563MOL0     C74248   4.139  10.509   8.825  0.0536 -0.3172  0.0537
  563MOL0     C74249   4.116  10.062   9.293 -0.1968 -0.1925  0.0060
  563MOL0     C74250   4.243  10.045   9.344 -0.0762  0.9949 -1.0685
  563MOL0     H74251   4.717  10.071   9.491  1.4844 -0.4623  0.7580
  563MOL0     H74252   4.958  10.056   9.536  0.2010  1.2292  0.3256
  563MOL0     H74253   5.318  10.089   9.446  0.7893  1.1732  2.2583
  563MOL0     H74254   5.184  10.090   9.545  0.4615  1.1002  0.6082
  563MOL0     H74255   5.094  10.303   9.425 -0.9236 -2.7291 -0.5046
  563MOL0     H74256   5.239  10.286   9.334 -2.9970  2.2074 -0.8977
  563MOL0     H74257   5.390  10.296   9.523  0.9832  1.4394  3.0114
  563MOL0     H74258   5.251  10.296   9.636 -0.9216  0.1126  0.5481
  563MOL0     H74259   5.192  10.527   9.558 -1.1692 -0.7519  0.0439
  563MOL0     H74260   5.361  10.526   9.607  0.0839  0.4099 -2.4515
  563MOL0     H74261   5.355  10.651   9.402 -0.2906  1.7170 -0.9095
  563MOL0     H74262   5.282  10.512   9.321  1.0285 -0.1812 -1.1659
  563MOL0     H74263   5.469  10.386   9.305  2.3595 -2.1541  2.1895
  563MOL0     H74264   5.540  10.456   9.445 -0.0553 -2.7243 -0.8221
  563MOL0     H74265   5.558  10.688   9.310 -2.0219 -0.2528  0.0608
  563MOL0     H74266   5.655  10.550   9.271  1.5238  2.0439  0.2274
  563MOL0     H74267   5.525  10.696   9.098 -1.4534  1.1846  1.4126
  563MOL0     H74268   5.379  10.613   9.142 -0.9728  0.8080 -3.5804
  563MOL0     H74269   5.738  10.527   9.016 -0.6577 -0.5908  0.3070
  563MOL0     H74270   5.787  10.224   8.910 -3.0861 -0.9319  0.9157
  563MOL0     H74271   5.825  10.382   8.837 -0.6788  0.5349 -1.3864
  563MOL0     H74272   5.847  10.220   8.664 -1.9288 -2.6804 -2.4970
  563MOL0     H74273   5.700  10.312   8.630  0.1785  0.8094  0.8704
  563MOL0     H74274   5.696  10.049   8.801 -1.0781 -2.9916 -1.8498
  563MOL0     H74275   5.570  10.147   8.725  1.1179  1.9242  0.1801
  563MOL0     H74276   5.668  10.072   8.491  1.1461 -1.1521 -0.6589
  563MOL0     H74277   5.597   9.954   8.589 -1.6432 -0.0253 -2.9204
  563MOL0     H74278   5.988   9.754   8.555  0.0934  2.3497  1.8736
  563MOL0     H74279   6.039   9.628   8.364  0.4684  0.0648  0.1061
  563MOL0     H74280   5.754   9.621   7.778 -0.0897 -2.9653 -0.3598
  563MOL0     H74281   5.830   9.566   7.559 -0.2301 -1.1051  0.3673
  563MOL0     H74282   6.101   9.382   7.445 -0.4899  1.1410  1.6806
  563MOL0     H74283   6.226   9.446   7.543 -0.8300 -0.4530  0.7895
  563MOL0     H74284   6.343   9.443   7.330  0.2099  1.9801 -1.0049
  563MOL0     H74285   6.288   9.601   7.332  4.3556 -1.2922 -2.4723
  563MOL0     H74286   6.271   9.500   7.112  2.5275 -1.1260  3.1063
  563MOL0     H74287   6.110   9.564   7.160  0.8649 -0.5599 -0.8627
  563MOL0     H74288   6.025   9.352   7.167  1.4448 -1.2077  2.5215
  563MOL0     H74289   6.122   9.357   7.025  2.9105  1.7909  0.3590
  563MOL0     H74290   6.204   9.214   7.278  0.3221  0.3452  0.7321
  563MOL0     H74291   6.323   9.243   7.150 -0.2218 -1.1835  0.5386
  563MOL0     H74292   6.144   9.122   6.982  0.6470 -0.8221 -1.5378
  563MOL0     H74293   6.072   9.065   7.139  0.6861  0.3103 -0.7221
  563MOL0     H74294   6.248   8.904   7.021 -2.8830 -1.6020  0.5273
  563MOL0     H74295   6.370   9.010   7.063  0.4004 -1.0308 -0.5097
  563MOL0     H74296   6.160   8.890   7.268  1.7173 -3.9607  1.4400
  563MOL0     H74297   6.281   9.001   7.306 -0.4158 -0.8850  0.3511
  563MOL0     H74298   6.239   9.610   7.689  0.1892 -1.1461  1.0097
  563MOL0     H74299   6.148   9.657   7.920 -1.2309 -1.1203 -0.0374
  563MOL0     H74300   5.712   9.809   8.146  0.1745  0.6432 -0.2489
  563MOL0     H74301   5.645   9.918   8.354  1.3496  1.7348  3.9887
  563MOL0     H74302   5.029  10.082   9.120 -2.8533  2.6204 -3.2152
  563MOL0     H74303   4.789  10.050   9.063  0.1368 -2.7964 -0.6066
  563MOL0     H74304   4.393   9.992   9.053  0.0844  1.3048  0.1779
  563MOL0     H74305   4.179  10.021   8.964  1.3898 -2.7522  0.6711
  563MOL0     H74306   3.787  10.059   8.991  0.3687 -1.2097 -2.3299
  563MOL0     H74307   3.942   9.999   8.962 -2.4607 -3.1764  4.0444
  563MOL0     H74308   4.028  10.217   8.910 -0.1856  3.6898 -1.0580
  563MOL0     H74309   3.890  10.197   8.810  1.6269  0.1163 -1.2263
  563MOL0     H74310   3.868  10.344   9.077 -3.0556  0.6543  0.3882
  563MOL0     H74311   3.739  10.325   8.960  0.5396 -0.2900 -5.1925
  563MOL0     H74312   3.829  10.452   8.793 -1.7960  1.2380  1.0147
  563MOL0     H74313   3.835  10.549   8.945  0.0713  0.2427  1.4243
  563MOL0     H74314   4.242  10.528   8.802 -0.4428 -0.5204 -2.6017
  563MOL0     H74315   4.028  10.079   9.354 -1.5637  0.1918 -1.9550
  563MOL0     H74316   4.257  10.036   9.452 -0.8248  1.1677 -0.9496
  564MOL0     O74317  10.720   6.886   5.973 -0.2516 -0.8995 -0.1210
  564MOL0     C74318  10.731   6.874   6.092 -0.5349  0.8486 -0.4830
  564MOL0     O74319  10.660   6.941   6.188  0.1217 -0.1193  0.2528
  564MOL0     C74320  10.587   7.051   6.166  0.5216 -0.7861  0.3141
  564MOL0     C74321  10.487   7.045   6.072 -0.6624 -0.9916  0.8479
  564MOL0     C74322  10.420   7.171   6.047  0.5142 -0.2124  0.4801
  564MOL0     C74323  10.438   7.290   6.109  0.1350 -0.6947  0.6078
  564MOL0     O74324  10.367   7.408   6.100  0.3497 -0.8898  0.1124
  564MOL0     C74325  10.296   7.424   5.978 -0.6910  0.8648 -0.1743
  564MOL0     C74326  10.253   7.559   5.967  0.0018  0.9730 -0.5479
  564MOL0     C74327  10.105   7.565   6.022 -0.4663 -0.2045 -1.0030
  564MOL0     C74328  10.063   7.706   6.078  1.1442 -0.5658  0.6685
  564MOL0     C74329  10.118   7.813   5.981 -0.5070  0.3373  0.2570
  564MOL0     C74330  10.026   7.929   5.997 -0.8887  1.7779  0.2372
  564MOL0     C74331  10.065   8.043   5.900  0.4062 -0.3244  0.5129
  564MOL0     C74332   9.952   8.076   5.799 -1.1462  0.7382 -0.4763
  564MOL0     N74333   9.891   7.977   5.716 -0.5719  1.0467 -0.5580
  564MOL0     C74334   9.950   7.892   5.624  0.4158  0.3051 -0.0598
  564MOL0     C74335   9.851   7.801   5.595 -0.0275  0.1762  0.1022
  564MOL0     C74336   9.860   7.700   5.495  0.4725 -0.1042  0.1636
  564MOL0     C74337   9.912   7.572   5.540 -0.7549 -0.2505 -0.9543
  564MOL0     C74338   9.926   7.466   5.427  0.9330  0.4512  0.5938
  564MOL0     C74339  10.032   7.498   5.323 -0.9107  0.5161 -0.2587
  564MOL0     O74340  10.024   7.416   5.204 -0.0873  0.4366 -0.7620
  564MOL0     C74341  10.046   7.286   5.201  0.9859 -1.0266 -0.9294
  564MOL0     C74342  10.098   7.205   5.299 -0.9915 -0.9897  0.5095
  564MOL0     C74343  10.104   7.071   5.271  0.3829 -0.2036  0.3518
  564MOL0     C74344  10.054   7.013   5.159 -0.0242  0.5515  0.2184
  564MOL0     C74345  10.042   6.869   5.156 -0.9229 -0.0468  0.0719
  564MOL0     O74346  10.121   6.797   5.237 -0.4110  0.8039  0.1784
  564MOL0     C74347  10.081   6.662   5.275  0.2141 -1.2268 -0.5390
  564MOL0     C74348  10.183   6.599   5.342 -0.6858 -0.1754 -0.1499
  564MOL0     C74349  10.161   6.461   5.387 -0.6941  0.0920 -0.4831
  564MOL0     C74350  10.036   6.396   5.363 -0.8901  0.1355  0.0709
  564MOL0     O74351   9.994   6.264   5.392  0.1240  0.2752 -0.0685
  564MOL0     C74352  10.100   6.173   5.427  0.2410  1.4658  0.2238
  564MOL0     C74353  10.028   6.045   5.454  0.5110 -0.0149 -0.3729
  564MOL0     C74354  10.110   5.940   5.529  0.3133  0.0075  0.4775
  564MOL0     C74355  10.033   5.804   5.546  0.2207 -0.8872  0.1039
  564MOL0     C74356   9.903   5.817   5.627 -0.3877 -0.1095  0.4371
  564MOL0     C74357   9.772   5.817   5.540  0.2045 -0.7102 -0.7696
  564MOL0     C74358   9.721   5.677   5.538  0.8938 -0.4769 -0.0270
  564MOL0     C74359   9.608   5.647   5.435 -0.1354 -0.0620 -0.1900
  564MOL0    Cl74360   9.471   5.773   5.461 -0.1582  0.1973  0.2359
  564MOL0     C74361   9.945   6.464   5.285  0.3913  0.4825  0.4926
  564MOL0     C74362   9.963   6.593   5.245 -0.2018 -0.5308  0.0799
  564MOL0     O74363   9.967   6.824   5.075 -0.6419 -0.1813  0.7598
  564MOL0     C74364  10.001   7.096   5.059 -1.3552 -0.2747 -0.4310
  564MOL0     C74365  10.005   7.229   5.079  0.4436 -0.4942  0.3270
  564MOL0     N74366   9.736   7.853   5.646  0.5147  0.1649  0.1127
  564MOL0     N74367   9.756   7.958   5.714 -0.5745  0.1816  0.0443
  564MOL0     C74368  10.536   7.286   6.202  0.1881 -0.0053  0.5525
  564MOL0     C74369  10.606   7.171   6.234 -0.5194 -0.1018  0.2630
  564MOL0     C74370  10.807   6.756   6.147  0.5893 -0.6629  0.6305
  564MOL0     C74371  10.934   6.721   6.092  0.9930 -0.5887  0.0616
  564MOL0     C74372  11.015   6.623   6.152  0.1720  0.6761  0.0006
  564MOL0     C74373  10.980   6.569   6.277  1.5077 -0.3108  0.4705
  564MOL0     O74374  11.066   6.499   6.367  0.8081 -0.8172 -0.1141
  564MOL0     C74375  11.203   6.470   6.321 -0.6904 -0.0003 -0.4436
  564MOL0     C74376  11.266   6.378   6.427  1.1172 -0.4647  0.3304
  564MOL0     C74377  11.384   6.304   6.365 -0.3203 -0.6364 -0.4368
  564MOL0     C74378  11.351   6.155   6.325  0.0514 -0.0514 -0.1981
  564MOL0     C74379  11.327   6.063   6.440 -0.5706  0.8695  0.0658
  564MOL0     C74380  11.304   5.979   6.531 -0.4031 -0.1783 -0.1878
  564MOL0     C74381  10.857   6.612   6.336 -0.2742 -0.1124  0.8858
  564MOL0     C74382  10.770   6.695   6.266  0.1354  0.0637 -0.6530
  564MOL0     H74383  10.481   6.952   6.017  0.4075 -1.6992  1.8746
  564MOL0     H74384  10.333   7.167   5.981 -0.9352  1.3902  2.1850
  564MOL0     H74385  10.210   7.356   5.975  1.6102 -2.2837 -0.2440
  564MOL0     H74386  10.362   7.406   5.893 -0.8781 -0.1837 -0.1088
  564MOL0     H74387  10.259   7.597   5.865 -2.2989 -1.3043 -1.6249
  564MOL0     H74388  10.313   7.619   6.037 -1.0569  1.0500  0.3188
  564MOL0     H74389  10.093   7.507   6.114 -1.9390  0.1643 -0.9340
  564MOL0     H74390  10.033   7.518   5.955 -0.9625  0.1031 -0.6956
  564MOL0     H74391   9.954   7.711   6.080  1.1880  2.5166  0.0504
  564MOL0     H74392  10.092   7.726   6.181 -0.2335  3.9508  0.4166
  564MOL0     H74393  10.093   7.776   5.882 -5.5784 -0.4120  1.4965
  564MOL0     H74394  10.222   7.840   6.001 -0.4231 -1.1409  2.0919
  564MOL0     H74395  10.031   7.955   6.103 -0.3725 -1.8604  1.2623
  564MOL0     H74396   9.922   7.899   5.979 -0.4105  0.4840 -0.4863
  564MOL0     H74397  10.061   8.131   5.964 -0.1856  1.2848 -1.6273
  564MOL0     H74398  10.157   8.027   5.842  0.7286  4.0880 -0.5589
  564MOL0     H74399   9.989   8.148   5.726  0.4948  2.1548  1.6685
  564MOL0     H74400   9.871   8.127   5.853 -2.4396 -1.0882 -0.5769
  564MOL0     H74401  10.054   7.899   5.593  0.2044  0.5397 -0.7262
  564MOL0     H74402   9.933   7.738   5.423  0.0629 -0.7601 -0.6250
  564MOL0     H74403   9.765   7.680   5.445  0.6531  0.3053 -0.3519
  564MOL0     H74404   9.836   7.527   5.604 -2.4206  2.0437 -1.2035
  564MOL0     H74405  10.007   7.592   5.592 -1.7615  4.0390 -0.4285
  564MOL0     H74406   9.941   7.371   5.479 -1.0131  0.1451  0.6743
  564MOL0     H74407   9.841   7.463   5.358  0.7954  0.0714  0.7772
  564MOL0     H74408  10.132   7.496   5.369 -0.7430 -2.4230 -0.5602
  564MOL0     H74409  10.026   7.601   5.286  2.3361  0.6812 -0.6535
  564MOL0     H74410  10.132   7.253   5.390 -2.7685  0.8609  0.2604
  564MOL0     H74411  10.141   7.008   5.351 -2.6288  0.3106  2.3201
  564MOL0     H74412  10.271   6.651   5.377 -3.3198  2.5054  3.2447
  564MOL0     H74413  10.237   6.409   5.444 -1.0771  1.1220  1.0179
  564MOL0     H74414  10.163   6.197   5.513  1.5715 -1.7656  0.2964
  564MOL0     H74415  10.174   6.178   5.347 -0.6482  2.6144 -0.5544
  564MOL0     H74416   9.991   6.005   5.359 -2.1982  2.3208 -0.4280
  564MOL0     H74417   9.939   6.064   5.514 -0.6204  1.3991 -2.3675
  564MOL0     H74418  10.137   5.972   5.630  0.3481  1.8873 -0.0733
  564MOL0     H74419  10.203   5.922   5.475  0.1545 -1.8158  0.7647
  564MOL0     H74420  10.021   5.750   5.451 -1.6354 -0.6222  0.1429
  564MOL0     H74421  10.098   5.750   5.615  2.4090 -1.6051 -2.3671
  564MOL0     H74422   9.911   5.902   5.695 -1.6676 -1.7922  2.8496
  564MOL0     H74423   9.902   5.731   5.695  0.1216  0.4796  1.1957
  564MOL0     H74424   9.773   5.857   5.438 -1.4879 -0.3874 -0.6823
  564MOL0     H74425   9.700   5.878   5.597  1.2770 -1.6046  1.6686
  564MOL0     H74426   9.807   5.613   5.517  1.3940 -0.1332  0.8815
  564MOL0     H74427   9.679   5.640   5.632  0.5122  2.0113  0.8595
  564MOL0     H74428   9.567   5.546   5.452 -0.6538  0.0828 -0.5540
  564MOL0     H74429   9.657   5.647   5.338 -1.7349  0.7797 -1.0401
  564MOL0     H74430   9.850   6.425   5.248  0.5434  2.5867 -2.5015
  564MOL0     H74431   9.881   6.640   5.191 -0.3651 -0.6557  0.2165
  564MOL0     H74432   9.956   7.049   4.972 -3.0908  1.5029 -0.5686
  564MOL0     H74433   9.981   7.283   4.988  1.4063 -0.9290 -0.2124
  564MOL0     H74434  10.560   7.382   6.247  1.1387 -1.3201  3.0862
  564MOL0     H74435  10.693   7.194   6.295  1.0205 -1.6902 -1.2277
  564MOL0     H74436  10.981   6.771   6.007 -2.3096 -0.8891 -2.1270
  564MOL0     H74437  11.105   6.604   6.096  0.2549  2.1516 -0.4095
  564MOL0     H74438  11.268   6.557   6.315  1.6781 -1.6322  0.1549
  564MOL0     H74439  11.189   6.400   6.237 -2.3080 -4.3884  3.0321
  564MOL0     H74440  11.301   6.438   6.511 -4.2596  1.0409  1.8898
  564MOL0     H74441  11.183   6.311   6.450 -0.0616  0.9098  0.1927
  564MOL0     H74442  11.468   6.301   6.435  1.3038  3.2566 -1.9545
  564MOL0     H74443  11.427   6.358   6.279  1.8331  1.3636  1.7357
  564MOL0     H74444  11.258   6.151   6.267  0.7997  1.5492 -1.5831
  564MOL0     H74445  11.434   6.125   6.260 -0.2393  0.1155 -0.6574
  564MOL0     H74446  11.257   5.904   6.593  1.0263 -2.2191 -1.4549
  564MOL0     H74447  10.830   6.591   6.440  1.8113 -0.3717  1.4145
  564MOL0     H74448  10.675   6.727   6.307 -2.0495 -2.0866 -3.6321
  565MOL0     O74449   0.659   0.743   7.637 -0.1326 -0.1587  0.2696
  565MOL0     C74450   0.724   0.683   7.725  0.2294  0.7335  0.8006
  565MOL0     O74451   0.823   0.600   7.701  0.4895  0.3571 -0.3237
  565MOL0     C74452   0.915   0.614   7.600  0.2569 -0.1558  0.5175
  565MOL0     C74453   0.936   0.724   7.512  0.1040  0.1241  0.7198
  565MOL0     C74454   1.042   0.729   7.416 -0.3047 -0.0217 -0.2592
  565MOL0     C74455   1.127   0.627   7.385  0.3843  0.7484  0.4176
  565MOL0     O74456   1.211   0.634   7.274 -0.1647  0.6458 -0.4240
  565MOL0     C74457   1.181   0.725   7.177  0.1095 -0.0777 -0.0011
  565MOL0     C74458   1.238   0.685   7.042 -0.6019 -0.3373 -0.1234
  565MOL0     C74459   1.148   0.576   6.976  0.2577 -0.8893  0.5010
  565MOL0     C74460   1.163   0.433   7.013  0.4388 -0.1925 -0.1555
  565MOL0     C74461   1.059   0.337   6.937  0.4894 -0.9859 -0.8453
  565MOL0     C74462   0.911   0.374   6.941  0.7198  0.1567  0.4914
  565MOL0     C74463   0.815   0.258   6.903  0.4831 -0.5741 -0.3285
  565MOL0     C74464   0.813   0.212   6.765 -0.2810 -0.6953  0.5087
  565MOL0     N74465   0.770   0.329   6.673  0.6553 -0.5907 -0.3574
  565MOL0     C74466   0.640   0.377   6.668 -0.5030  0.1633  0.7236
  565MOL0     C74467   0.656   0.505   6.624  1.3892  0.6637 -1.0020
  565MOL0     C74468   0.537   0.603   6.603 -0.2096 -0.5381 -0.5585
  565MOL0     C74469   0.563   0.720   6.703  0.2278  0.1559 -0.0632
  565MOL0     C74470   0.596   0.856   6.642 -0.5702  0.2948  0.4974
  565MOL0     C74471   0.687   0.941   6.733 -0.1144 -0.7215 -0.1293
  565MOL0     O74472   0.683   1.066   6.674  0.8582 -0.8248  0.7468
  565MOL0     C74473   0.783   1.145   6.730 -0.2143 -0.2734  0.5425
  565MOL0     C74474   0.756   1.247   6.821 -0.1497 -0.1920  0.1571
  565MOL0     C74475   0.850   1.338   6.872 -1.1549  0.7033  0.1955
  565MOL0     C74476   0.980   1.336   6.806  0.6982  1.0803  1.1073
  565MOL0     C74477   1.085   1.444   6.827 -0.0594  0.2477 -0.2276
  565MOL0     O74478   1.193   1.430   6.754  0.1005  0.6045  0.5450
  565MOL0     C74479   1.297   1.523   6.730  1.2562 -0.2358 -0.3246
  565MOL0     C74480   1.303   1.653   6.782 -0.1227 -0.2098 -0.1445
  565MOL0     C74481   1.379   1.755   6.727  0.2444  1.0813  0.2724
  565MOL0     C74482   1.458   1.724   6.621 -0.2968  0.0566 -0.9199
  565MOL0     O74483   1.536   1.828   6.586 -0.2757 -0.6255 -0.3326
  565MOL0     C74484   1.632   1.818   6.477 -0.1849  0.0679 -0.2906
  565MOL0     C74485   1.699   1.949   6.454  0.7647 -0.1352  0.9896
  565MOL0     C74486   1.808   1.956   6.342 -0.2919 -0.2285  0.2732
  565MOL0     C74487   1.869   2.095   6.344 -0.2391 -0.6972  0.5082
  565MOL0     C74488   1.954   2.118   6.219 -0.6008 -0.9955 -1.1790
  565MOL0     C74489   1.977   2.259   6.173 -0.3421 -0.8482  0.3252
  565MOL0     C74490   2.028   2.362   6.279  0.5322  1.2652  1.1391
  565MOL0     C74491   2.162   2.317   6.324 -0.2785 -0.9379 -0.1613
  565MOL0    Cl74492   2.285   2.319   6.191 -0.3854  0.2643 -0.1828
  565MOL0     C74493   1.467   1.593   6.571 -0.6820 -0.0479 -0.8309
  565MOL0     C74494   1.392   1.486   6.627 -0.0198  0.2630 -0.6200
  565MOL0     O74495   1.069   1.533   6.908 -0.3509  0.3711  0.4841
  565MOL0     C74496   1.017   1.218   6.717  1.1515  0.9288  0.7606
  565MOL0     C74497   0.911   1.128   6.684 -0.6703  0.6864 -0.1238
  565MOL0     N74498   0.781   0.534   6.593  0.0482 -0.2213  0.7666
  565MOL0     N74499   0.841   0.423   6.611 -0.5832 -1.2268 -0.9195
  565MOL0     C74500   1.116   0.518   7.474 -0.8125  0.8098  0.1563
  565MOL0     C74501   1.016   0.515   7.583 -0.9880 -0.4512  0.3738
  565MOL0     C74502   0.653   0.680   7.861  0.8324 -0.5182  0.1923
  565MOL0     C74503   0.727   0.632   7.974  0.3576  0.7145  0.0102
  565MOL0     C74504   0.653   0.629   8.096  0.4940  0.0330 -0.4694
  565MOL0     C74505   0.520   0.667   8.113  0.1904 -0.2636 -0.2806
  565MOL0     O74506   0.454   0.652   8.228  0.0312 -0.3338 -0.3470
  565MOL0     C74507   0.419   0.777   8.300  0.3563  0.1881  0.2803
  565MOL0     C74508   0.531   0.837   8.377  0.5578  0.0160 -0.3275
  565MOL0     C74509   0.473   0.942   8.472 -1.3956 -0.2388  0.2573
  565MOL0     C74510   0.573   0.988   8.573  0.0519  0.5828  0.1432
  565MOL0     C74511   0.671   1.080   8.523 -0.6846 -0.0723  0.8454
  565MOL0     C74512   0.762   1.163   8.485  0.0445 -0.3468 -0.4033
  565MOL0     C74513   0.462   0.731   8.006  0.9742  0.6283 -0.0971
  565MOL0     C74514   0.522   0.739   7.879  1.1375  0.3824  1.0555
  565MOL0     H74515   0.881   0.817   7.518 -3.5744 -1.7028 -1.1830
  565MOL0     H74516   1.043   0.820   7.357 -0.2255 -1.0385 -1.8866
  565MOL0     H74517   1.231   0.821   7.195  0.5566 -0.6253  1.7760
  565MOL0     H74518   1.072   0.737   7.170 -0.1153 -0.8388  1.6949
  565MOL0     H74519   1.339   0.649   7.064 -0.1326  1.3918  0.6996
  565MOL0     H74520   1.254   0.776   6.984  2.6860  1.8253  3.6349
  565MOL0     H74521   1.153   0.594   6.869 -0.4046  1.7637  0.8448
  565MOL0     H74522   1.041   0.598   6.992 -0.4390 -3.2749 -0.4345
  565MOL0     H74523   1.270   0.415   6.997  0.4383 -0.4584  0.1234
  565MOL0     H74524   1.150   0.424   7.122  0.7323 -1.3913 -0.2089
  565MOL0     H74525   1.064   0.235   6.976  0.7154 -0.1900  1.3546
  565MOL0     H74526   1.087   0.337   6.831 -1.0308  0.7295 -1.2962
  565MOL0     H74527   0.887   0.461   6.879  3.1450 -0.1592 -0.9817
  565MOL0     H74528   0.888   0.407   7.043  1.3436  0.3531  0.5683
  565MOL0     H74529   0.849   0.167   6.955  1.6886  1.1194  2.0287
  565MOL0     H74530   0.716   0.293   6.932  1.5641  2.2812  0.2551
  565MOL0     H74531   0.742   0.129   6.753 -0.8936 -0.4500  2.1445
  565MOL0     H74532   0.908   0.175   6.726 -0.5502  1.3431 -2.3768
  565MOL0     H74533   0.549   0.329   6.704 -2.2641  0.8643 -2.4087
  565MOL0     H74534   0.443   0.553   6.629  1.0930 -1.0646  4.1139
  565MOL0     H74535   0.525   0.635   6.499 -0.7863 -0.0885 -0.3617
  565MOL0     H74536   0.644   0.693   6.771 -0.5619  1.3471  1.4011
  565MOL0     H74537   0.476   0.727   6.769  2.6037  3.7449  3.1079
  565MOL0     H74538   0.651   0.843   6.548 -1.4048  2.0937 -0.3038
  565MOL0     H74539   0.509   0.916   6.613 -1.6479 -2.0230 -1.4148
  565MOL0     H74540   0.789   0.902   6.722  1.0694  2.7551 -3.7514
  565MOL0     H74541   0.650   0.934   6.836  1.6573  0.2091  0.6182
  565MOL0     H74542   0.655   1.261   6.857 -0.8568  0.5995 -1.9904
  565MOL0     H74543   0.821   1.413   6.944 -1.0698 -0.6931  1.7423
  565MOL0     H74544   1.240   1.686   6.865 -1.5508  2.1873 -2.0592
  565MOL0     H74545   1.381   1.859   6.757  0.8452  1.0882  0.2256
  565MOL0     H74546   1.585   1.779   6.386 -3.1127 -0.1228  1.1985
  565MOL0     H74547   1.704   1.737   6.499 -2.0729 -1.4796  0.4712
  565MOL0     H74548   1.756   1.976   6.544  1.9067  1.6668 -0.2207
  565MOL0     H74549   1.617   2.017   6.431  1.7489  0.2318 -1.8081
  565MOL0     H74550   1.752   1.938   6.250 -0.5017 -0.8222  0.5132
  565MOL0     H74551   1.888   1.887   6.370  0.2751  1.1507  2.2698
  565MOL0     H74552   1.792   2.169   6.369  2.8394  1.5505  4.6553
  565MOL0     H74553   1.930   2.117   6.432 -1.3322  0.9806  0.9159
  565MOL0     H74554   1.920   2.064   6.130 -1.0930  0.6028 -2.0041
  565MOL0     H74555   2.057   2.085   6.237  0.5577  2.8771  0.1898
  565MOL0     H74556   1.888   2.294   6.120  0.7222 -1.7697 -2.2332
  565MOL0     H74557   2.052   2.245   6.095  0.7932 -2.4720  1.6264
  565MOL0     H74558   2.036   2.463   6.237  3.3372  0.4513 -0.5212
  565MOL0     H74559   1.954   2.364   6.360  0.0709 -0.0131  0.7630
  565MOL0     H74560   2.157   2.214   6.359 -1.2187 -1.6531 -2.2395
  565MOL0     H74561   2.197   2.382   6.405 -1.4787  1.5803 -1.5457
  565MOL0     H74562   1.518   1.582   6.476  0.8885  1.8679 -0.2641
  565MOL0     H74563   1.383   1.389   6.578 -0.6333  0.9937 -1.9862
  565MOL0     H74564   1.118   1.212   6.676 -0.1503 -0.1197 -2.6403
  565MOL0     H74565   0.928   1.047   6.613  2.1278 -0.1730  1.3465
  565MOL0     H74566   1.174   0.428   7.457 -1.5128  0.2285  0.7452
  565MOL0     H74567   1.005   0.435   7.657 -1.2801  0.8805  1.8274
  565MOL0     H74568   0.828   0.596   7.955  0.3629  1.7691 -2.3441
  565MOL0     H74569   0.701   0.581   8.181  0.7371 -1.5546 -1.4509
  565MOL0     H74570   0.335   0.759   8.368  1.2537  1.1050  1.6759
  565MOL0     H74571   0.394   0.855   8.228 -2.4695 -1.0056 -0.1453
  565MOL0     H74572   0.588   0.759   8.428  1.5208 -0.6148 -2.2832
  565MOL0     H74573   0.596   0.883   8.303 -0.7874 -2.6975 -3.4416
  565MOL0     H74574   0.378   0.909   8.515 -2.2444 -1.7913 -2.5305
  565MOL0     H74575   0.436   1.029   8.418 -2.1899 -1.3589 -1.0730
  565MOL0     H74576   0.516   1.042   8.649  1.0190  1.2373  0.4195
  565MOL0     H74577   0.613   0.907   8.634 -3.0843 -0.2567  1.3212
  565MOL0     H74578   0.850   1.220   8.466  0.0199  0.5564  1.8632
  565MOL0     H74579   0.363   0.775   8.019  1.5939  1.7120  1.0845
  565MOL0     H74580   0.463   0.780   7.797  0.4068 -0.9664  0.8602
  566MOL0     O74581   7.283   6.629  10.731  1.4198 -0.3109  0.4799
  566MOL0     C74582   7.200   6.719  10.782 -0.0215  0.4008 -0.2382
  566MOL0     O74583   7.072   6.698  10.824  0.4953 -0.8415  0.2115
  566MOL0     C74584   7.041   6.583  10.875 -0.4745 -0.3254  0.3626
  566MOL0     C74585   7.110   6.518  10.976  0.0006 -0.9242 -0.5217
  566MOL0     C74586   7.070   6.395  11.034  0.5481  0.2314  0.3524
  566MOL0     C74587   6.955   6.325  10.978  0.1605 -0.9295 -0.3764
  566MOL0     O74588   6.911   6.200  11.012 -0.1634  0.4139  0.1997
  566MOL0     C74589   6.985   6.110  11.102 -0.2413 -0.7532 -1.2497
  566MOL0     C74590   7.113   6.047  11.049 -0.6041  0.8046  1.5267
  566MOL0     C74591   7.091   5.960  10.922 -0.2031  0.0998  0.3232
  566MOL0     C74592   6.987   5.847  10.914 -0.1099 -0.8436  0.3394
  566MOL0     C74593   6.973   5.776  10.784  0.8886  0.0636 -0.5980
  566MOL0     C74594   6.939   5.874  10.667  0.5271  1.2858 -0.9652
  566MOL0     C74595   6.880   5.794  10.549 -1.9699  0.4636 -0.2468
  566MOL0     C74596   6.995   5.712  10.492  0.1586 -0.0484  0.5387
  566MOL0     N74597   6.992   5.575  10.525 -0.9254  0.5911 -0.2258
  566MOL0     C74598   7.034   5.468  10.446 -0.4168 -0.2618  0.4291
  566MOL0     C74599   7.030   5.355  10.521  0.2908  0.0567  0.6744
  566MOL0     C74600   7.049   5.226  10.451  0.5593  0.3350  0.4392
  566MOL0     C74601   7.185   5.208  10.383 -0.3525 -0.8569 -0.1176
  566MOL0     C74602   7.313   5.212  10.491 -0.1861  0.2360 -0.4392
  566MOL0     C74603   7.301   5.097  10.587 -0.3660 -0.4545 -0.1986
  566MOL0     O74604   7.417   5.095  10.673 -0.0240  0.3209  0.1459
  566MOL0     C74605   7.425   4.999  10.771  0.3685  0.6520  0.3479
  566MOL0     C74606   7.320   4.905  10.800  0.6662  0.3050 -0.5139
  566MOL0     C74607   7.340   4.804  10.895 -0.2234 -0.1989 -0.3341
  566MOL0     C74608   7.466   4.791  10.963  0.4242 -0.9337 -0.3938
  566MOL0     C74609   7.483   4.684  11.061 -0.6200 -0.1847 -0.2461
  566MOL0     O74610   7.610   4.661  11.107  0.0551 -0.1245  0.1690
  566MOL0     C74611   7.649   4.561  11.194 -0.2324 -0.2638 -1.2292
  566MOL0     C74612   7.590   4.437  11.219  1.0683  0.6080 -0.5068
  566MOL0     C74613   7.630   4.347  11.311  0.0183 -0.0093 -0.2533
  566MOL0     C74614   7.745   4.377  11.388  0.6509  0.4053 -0.7017
  566MOL0     O74615   7.796   4.286  11.479  0.3444  0.3728 -0.5180
  566MOL0     C74616   7.854   4.337  11.597  0.8788  0.6885 -1.3001
  566MOL0     C74617   7.796   4.269  11.720  0.4678  0.4561 -0.9179
  566MOL0     C74618   7.853   4.138  11.753 -0.0984  0.0232  0.9433
  566MOL0     C74619   8.007   4.138  11.779 -0.4480  0.5582  0.7903
  566MOL0     C74620   8.065   4.008  11.836  1.3784  0.2786 -0.0531
  566MOL0     C74621   8.201   4.031  11.895  0.1276  1.0875  0.2448
  566MOL0     C74622   8.275   3.916  11.946  0.2573 -0.0541 -0.6845
  566MOL0     C74623   8.416   3.940  12.001 -0.1590 -0.9090 -0.5874
  566MOL0    Cl74624   8.411   4.028  12.153 -0.2124  0.1427 -0.1481
  566MOL0     C74625   7.806   4.500  11.371 -0.1901 -0.9482 -0.1032
  566MOL0     C74626   7.761   4.588  11.275  0.4481 -0.0998 -0.2307
  566MOL0     O74627   7.389   4.605  11.077  0.0597 -0.2001 -0.0953
  566MOL0     C74628   7.566   4.885  10.942  0.3254 -0.0316  0.1567
  566MOL0     C74629   7.541   4.982  10.842  0.7563 -0.1644 -1.0323
  566MOL0     N74630   6.984   5.389  10.647 -0.0358  0.0090  0.1971
  566MOL0     N74631   6.970   5.518  10.648  0.4989 -0.8296  0.7777
  566MOL0     C74632   6.876   6.392  10.881  0.4065 -0.8813 -0.2076
  566MOL0     C74633   6.921   6.519  10.831  0.3778 -0.1148  0.5076
  566MOL0     C74634   7.245   6.862  10.791  0.6754 -0.4846 -0.0852
  566MOL0     C74635   7.376   6.893  10.786 -0.3924  0.1977  0.6713
  566MOL0     C74636   7.423   7.026  10.783  0.2326  0.6746 -0.1222
  566MOL0     C74637   7.326   7.135  10.800 -0.5262 -0.4190 -0.7910
  566MOL0     O74638   7.362   7.265  10.820 -0.0548 -0.1533 -0.7195
  566MOL0     C74639   7.493   7.300  10.864 -0.0034 -0.7725  0.4572
  566MOL0     C74640   7.505   7.455  10.862  0.7606 -0.1502  1.2467
  566MOL0     C74641   7.609   7.512  10.947 -0.3063  0.2026  0.7309
  566MOL0     C74642   7.611   7.486  11.100  0.5664 -0.1457 -0.4544
  566MOL0     C74643   7.497   7.546  11.167 -0.3017  0.2921 -0.2359
  566MOL0     C74644   7.411   7.567  11.253  0.9339  0.4303 -0.4088
  566MOL0     C74645   7.197   7.100  10.795  0.3271 -0.5152  0.8800
  566MOL0     C74646   7.147   6.972  10.781 -0.7062  0.6837 -0.0683
  566MOL0     H74647   7.197   6.573  11.010 -0.0811  0.0413 -1.7661
  566MOL0     H74648   7.135   6.341  11.102 -0.0019 -1.4366 -0.3978
  566MOL0     H74649   6.916   6.033  11.140 -1.1938  1.9972  3.3408
  566MOL0     H74650   7.017   6.166  11.190 -0.6469  0.3094 -1.7617
  566MOL0     H74651   7.156   5.991  11.132 -0.5848 -1.5483  0.0229
  566MOL0     H74652   7.176   6.126  11.008 -1.2599 -0.2019 -1.7571
  566MOL0     H74653   7.191   5.923  10.896 -0.1873  0.9559 -0.9152
  566MOL0     H74654   7.046   6.031  10.852 -2.8975 -1.5456  0.2617
  566MOL0     H74655   7.024   5.777  10.990  1.8484 -0.0212  0.2151
  566MOL0     H74656   6.894   5.891  10.952  1.1846  1.0230  1.5423
  566MOL0     H74657   6.896   5.701  10.804 -0.1407  1.5323  1.2754
  566MOL0     H74658   7.072   5.736  10.760  0.6350 -0.8824 -0.1307
  566MOL0     H74659   7.021   5.941  10.643 -0.5540  2.8828 -0.3939
  566MOL0     H74660   6.853   5.938  10.690 -0.4245  0.5295 -2.3012
  566MOL0     H74661   6.790   5.736  10.571 -0.5453 -1.6059  0.5036
  566MOL0     H74662   6.857   5.862  10.466  0.1669  0.9424 -0.5055
  566MOL0     H74663   7.092   5.744  10.532  0.8616 -0.4886 -0.7762
  566MOL0     H74664   7.002   5.721  10.383  0.0587 -2.0540  0.3312
  566MOL0     H74665   7.043   5.475  10.338 -0.8950 -0.1885  0.3912
  566MOL0     H74666   6.972   5.209  10.375  1.9387 -1.9715 -0.5467
  566MOL0     H74667   7.039   5.141  10.520  2.3955  0.0410  0.4059
  566MOL0     H74668   7.194   5.296  10.319 -0.0788  0.4769  1.6911
  566MOL0     H74669   7.189   5.120  10.317  3.2372 -1.3230  0.5090
  566MOL0     H74670   7.397   5.199  10.422 -0.2906  0.9788 -0.7179
  566MOL0     H74671   7.317   5.308  10.544 -0.9430 -0.9032  1.8128
  566MOL0     H74672   7.278   5.004  10.534 -1.1130 -0.5640  0.2945
  566MOL0     H74673   7.218   5.115  10.656  0.0064  0.4273  0.0339
  566MOL0     H74674   7.223   4.919  10.753  1.5540 -1.4462 -3.1063
  566MOL0     H74675   7.259   4.744  10.934  0.2248  0.3223  1.4658
  566MOL0     H74676   7.494   4.420  11.170  1.5402 -0.8098 -0.9864
  566MOL0     H74677   7.586   4.251  11.338 -2.8237  1.2187 -0.1276
  566MOL0     H74678   7.830   4.443  11.608 -2.6107 -0.2434  2.7520
  566MOL0     H74679   7.961   4.318  11.610  0.7726  0.6738 -0.3227
  566MOL0     H74680   7.689   4.270  11.697  0.7047  1.4935 -2.0333
  566MOL0     H74681   7.829   4.325  11.808  2.6119 -1.3781 -0.4821
  566MOL0     H74682   7.843   4.072  11.667 -0.8421 -0.4033  1.3446
  566MOL0     H74683   7.794   4.105  11.840 -1.0395 -0.7981  0.0270
  566MOL0     H74684   8.058   4.155  11.683 -0.0303 -1.3165  0.6512
  566MOL0     H74685   8.038   4.223  11.841 -2.4239  1.3540  0.7627
  566MOL0     H74686   8.074   3.937  11.754  1.4700  2.0130 -1.6220
  566MOL0     H74687   8.003   3.971  11.917  1.5558 -0.3787 -0.2154
  566MOL0     H74688   8.184   4.104  11.974 -0.5625  2.1972 -0.8767
  566MOL0     H74689   8.260   4.082  11.818  0.2002 -3.2498 -2.9489
  566MOL0     H74690   8.225   3.874  12.034  1.3559  2.2119  1.1263
  566MOL0     H74691   8.288   3.841  11.868  0.9992 -1.9586  1.1773
  566MOL0     H74692   8.461   4.020  11.940 -2.2149  2.8858  2.4247
  566MOL0     H74693   8.471   3.846  12.008  1.0804 -0.1961 -0.4518
  566MOL0     H74694   7.892   4.531  11.430 -0.2095  1.9841 -1.4332
  566MOL0     H74695   7.818   4.680  11.273 -1.1067  0.9118 -1.8816
  566MOL0     H74696   7.662   4.872  10.991 -0.2613  0.0490  1.3510
  566MOL0     H74697   7.626   5.047  10.820  0.0270  0.0525 -3.4934
  566MOL0     H74698   6.789   6.340  10.845 -0.1030  0.2443 -0.6373
  566MOL0     H74699   6.869   6.571  10.752 -0.7019 -1.5915  0.2004
  566MOL0     H74700   7.445   6.811  10.767 -1.8829 -0.9019 -0.2148
  566MOL0     H74701   7.528   7.044  10.802  0.1932  1.3420 -0.5127
  566MOL0     H74702   7.575   7.271  10.797  0.6625 -1.8083  1.6771
  566MOL0     H74703   7.524   7.272  10.965  2.1400  2.6015  0.8996
  566MOL0     H74704   7.530   7.487  10.761  1.9573 -0.4029  1.4354
  566MOL0     H74705   7.411   7.499  10.895  0.3623  1.2038 -1.4332
  566MOL0     H74706   7.601   7.621  10.941  3.4322  0.6956  1.6835
  566MOL0     H74707   7.706   7.491  10.900 -0.9006  2.0400 -1.4884
  566MOL0     H74708   7.629   7.381  11.122 -0.6996  0.0984  2.1216
  566MOL0     H74709   7.699   7.544  11.133  0.7261  0.1274 -1.3293
  566MOL0     H74710   7.325   7.600  11.308  0.5372 -0.6786 -0.3357
  566MOL0     H74711   7.119   7.176  10.799 -2.3916 -2.9331 -1.6134
  566MOL0     H74712   7.041   6.952  10.776 -0.7714  1.0953 -0.3936
  567MOL0     O74713   7.527   2.116   5.731 -0.3561 -1.0026 -0.8967
  567MOL0     C74714   7.570   2.020   5.677 -0.4090  0.4132  0.4395
  567MOL0     O74715   7.568   1.896   5.734  0.2386 -0.3536 -0.8663
  567MOL0     C74716   7.509   1.875   5.855 -0.6374  0.1992 -1.2951
  567MOL0     C74717   7.467   1.744   5.876  0.0919 -0.2509 -0.3267
  567MOL0     C74718   7.414   1.702   5.999  0.2177 -0.4754 -0.1587
  567MOL0     C74719   7.393   1.793   6.103 -0.4762  0.5927  0.2855
  567MOL0     O74720   7.322   1.739   6.207  0.6752 -0.3808  0.3210
  567MOL0     C74721   7.256   1.829   6.293 -0.4435  0.0706  0.4324
  567MOL0     C74722   7.351   1.850   6.411 -0.3859 -0.4407  0.0713
  567MOL0     C74723   7.310   1.949   6.515  0.8586 -0.3454  0.5719
  567MOL0     C74724   7.357   2.096   6.496 -0.8388  0.7377  0.1267
  567MOL0     C74725   7.310   2.214   6.591  0.0648  0.5989 -0.7032
  567MOL0     C74726   7.156   2.212   6.602 -0.5545 -0.0458 -0.2769
  567MOL0     C74727   7.093   2.306   6.712 -0.0511 -0.3237 -0.4072
  567MOL0     C74728   6.995   2.404   6.654 -0.2361 -1.4090 -0.1230
  567MOL0     N74729   7.073   2.508   6.576  0.1442 -0.0353  0.1483
  567MOL0     C74730   7.131   2.490   6.455 -0.8147 -0.7191  0.5894
  567MOL0     C74731   7.200   2.606   6.426 -0.4761 -0.2404  0.7340
  567MOL0     C74732   7.287   2.632   6.304 -0.3404  0.3924  0.3456
  567MOL0     C74733   7.325   2.782   6.298 -0.2721 -0.7969 -0.1930
  567MOL0     C74734   7.450   2.807   6.201  0.3276 -0.3216 -0.3565
  567MOL0     C74735   7.520   2.938   6.247  0.1411 -0.3485  0.3301
  567MOL0     O74736   7.453   3.047   6.186  0.0505  0.4616 -0.6019
  567MOL0     C74737   7.529   3.131   6.122 -1.0556 -0.0800  0.5279
  567MOL0     C74738   7.546   3.117   5.980 -0.5685  0.1099  0.4905
  567MOL0     C74739   7.612   3.209   5.907  0.3419 -0.8060  0.2375
  567MOL0     C74740   7.673   3.318   5.972  0.0368  0.0764 -0.0472
  567MOL0     C74741   7.727   3.430   5.895 -0.7255  0.0152  0.1799
  567MOL0     O74742   7.714   3.557   5.948 -0.0827 -0.6688  0.5382
  567MOL0     C74743   7.778   3.664   5.880  0.5524 -0.2437 -0.7364
  567MOL0     C74744   7.903   3.714   5.923  0.8788  1.1162 -0.0228
  567MOL0     C74745   7.969   3.814   5.855  0.0367  0.9022 -0.6447
  567MOL0     C74746   7.902   3.866   5.741 -0.5099  0.2728  0.5015
  567MOL0     O74747   7.947   3.970   5.666 -0.0763  0.2045  0.2567
  567MOL0     C74748   8.080   3.937   5.606  0.1555 -0.1082 -0.1999
  567MOL0     C74749   8.200   4.005   5.670  1.4241  0.0056  0.1648
  567MOL0     C74750   8.332   3.982   5.595  0.1433 -0.3471 -0.9371
  567MOL0     C74751   8.331   4.027   5.442 -0.2322 -0.3581 -0.1281
  567MOL0     C74752   8.470   3.985   5.371 -0.3094  0.9890 -0.0625
  567MOL0     C74753   8.497   4.079   5.257 -0.9855  0.8287 -0.3025
  567MOL0     C74754   8.396   4.072   5.143 -0.0684 -0.3238 -0.3015
  567MOL0     C74755   8.474   4.135   5.024  0.9450 -0.0585 -0.1124
  567MOL0    Cl74756   8.403   4.107   4.860 -0.3580 -0.2915  0.0499
  567MOL0     C74757   7.777   3.826   5.707  0.7831  1.2502 -0.2311
  567MOL0     C74758   7.712   3.718   5.774 -0.2216 -0.6476  0.3744
  567MOL0     O74759   7.779   3.397   5.794  0.0413 -0.4295  0.4692
  567MOL0     C74760   7.681   3.320   6.114  0.6215  0.0649  0.0074
  567MOL0     C74761   7.597   3.237   6.185  0.2625 -0.0633 -0.2521
  567MOL0     N74762   7.177   2.696   6.528  0.9498 -0.1069 -0.2260
  567MOL0     N74763   7.099   2.634   6.615 -0.6342  0.4732 -0.0300
  567MOL0     C74764   7.455   1.918   6.089 -0.4168 -0.7147  0.0679
  567MOL0     C74765   7.508   1.961   5.967 -0.6684 -0.1247  0.1386
  567MOL0     C74766   7.615   2.025   5.536 -0.0480 -0.2472 -0.8716
  567MOL0     C74767   7.575   2.121   5.444 -0.2079 -0.6485  0.1817
  567MOL0     C74768   7.604   2.120   5.302  0.2629  0.6942  0.6721
  567MOL0     C74769   7.667   2.002   5.252 -0.5000 -0.3555 -0.2632
  567MOL0     O74770   7.684   2.001   5.118  0.2479  0.6379  0.2037
  567MOL0     C74771   7.787   1.912   5.073  1.1965  0.4456 -0.1039
  567MOL0     C74772   7.713   1.775   5.063 -0.0900 -0.0803 -0.5644
  567MOL0     C74773   7.656   1.745   4.918 -0.5192 -0.8576 -1.0407
  567MOL0     C74774   7.783   1.721   4.815  1.0208 -0.3120 -0.1210
  567MOL0     C74775   7.844   1.600   4.857 -0.1727  0.7883  0.4150
  567MOL0     C74776   7.881   1.492   4.889 -0.6439 -1.3084 -0.8422
  567MOL0     C74777   7.713   1.912   5.343 -0.3731 -0.4436 -0.3065
  567MOL0     C74778   7.689   1.919   5.481 -0.3819  0.6343 -0.1474
  567MOL0     H74779   7.492   1.676   5.795 -0.2048 -0.0327 -0.6057
  567MOL0     H74780   7.373   1.602   5.994 -2.7764  0.6512 -0.1984
  567MOL0     H74781   7.163   1.780   6.324 -0.6162 -0.0569 -0.2703
  567MOL0     H74782   7.229   1.928   6.257 -0.0036  0.7274  1.8285
  567MOL0     H74783   7.457   1.869   6.393 -0.7215  2.6641  0.7898
  567MOL0     H74784   7.352   1.751   6.459 -2.6579 -1.2611 -1.4009
  567MOL0     H74785   7.349   1.918   6.612  1.7446 -0.5276  0.1699
  567MOL0     H74786   7.202   1.965   6.507  0.6839 -2.0754 -1.5453
  567MOL0     H74787   7.467   2.098   6.500 -0.7884  0.7025 -1.0747
  567MOL0     H74788   7.339   2.125   6.392 -0.2167 -1.5841 -0.6801
  567MOL0     H74789   7.343   2.312   6.557 -1.4231  1.0738 -0.8314
  567MOL0     H74790   7.346   2.193   6.692 -3.4425  0.8000  0.7401
  567MOL0     H74791   7.121   2.114   6.634 -1.8651  1.4099  3.2096
  567MOL0     H74792   7.102   2.230   6.508  2.8921 -1.3224 -2.6825
  567MOL0     H74793   7.041   2.243   6.785  1.4010 -1.6187 -0.4223
  567MOL0     H74794   7.170   2.366   6.761 -2.7619  2.6745  0.4807
  567MOL0     H74795   6.935   2.458   6.728  1.5217  4.1634 -2.2817
  567MOL0     H74796   6.935   2.338   6.591  0.0841  0.0914 -2.0741
  567MOL0     H74797   7.124   2.406   6.386  3.0431 -0.5957 -0.1429
  567MOL0     H74798   7.239   2.601   6.211  1.1328 -1.2386  0.0862
  567MOL0     H74799   7.373   2.565   6.309 -1.1394 -0.8020 -1.0873
  567MOL0     H74800   7.353   2.806   6.401  0.6040 -3.2466  0.2254
  567MOL0     H74801   7.243   2.844   6.263  1.4125  1.9988  0.5425
  567MOL0     H74802   7.519   2.723   6.189  1.0884  0.3095 -0.4873
  567MOL0     H74803   7.404   2.815   6.102 -1.4306 -5.4945 -0.2238
  567MOL0     H74804   7.623   2.948   6.213 -0.3711 -0.5220 -1.3560
  567MOL0     H74805   7.509   2.952   6.355 -1.5015 -0.7335  0.2375
  567MOL0     H74806   7.521   3.025   5.929  2.8019  0.5941 -2.4176
  567MOL0     H74807   7.611   3.194   5.799 -0.6743  1.1889 -0.0872
  567MOL0     H74808   7.957   3.660   6.000 -0.6272  1.0353  1.0264
  567MOL0     H74809   8.069   3.847   5.881 -0.0518  0.9720 -0.3920
  567MOL0     H74810   8.068   3.974   5.503 -0.1029  1.4218  0.3450
  567MOL0     H74811   8.098   3.830   5.597 -1.1967 -0.3774  0.1382
  567MOL0     H74812   8.219   3.981   5.775  0.7869 -3.1097 -0.3522
  567MOL0     H74813   8.178   4.112   5.659 -1.3256 -0.2369  2.2288
  567MOL0     H74814   8.359   3.876   5.598 -0.4028 -0.4710  0.7733
  567MOL0     H74815   8.406   4.038   5.651 -2.2785  0.3763  1.7691
  567MOL0     H74816   8.254   3.972   5.387  1.8739 -1.4430 -2.2425
  567MOL0     H74817   8.324   4.136   5.430  1.3205 -0.3139 -1.0146
  567MOL0     H74818   8.458   3.879   5.346 -0.3067  0.4705  1.9618
  567MOL0     H74819   8.544   3.987   5.452 -0.1609 -0.9845 -0.1083
  567MOL0     H74820   8.594   4.049   5.217 -1.2940 -1.7991  0.7501
  567MOL0     H74821   8.512   4.182   5.293  1.3008  0.4454  0.0239
  567MOL0     H74822   8.364   3.974   5.106 -0.8022  0.3629 -1.5631
  567MOL0     H74823   8.311   4.136   5.166 -0.0768 -0.6404  0.5670
  567MOL0     H74824   8.576   4.100   5.007  1.4542  1.6302 -0.7346
  567MOL0     H74825   8.473   4.244   5.031 -0.5412 -0.1146  1.0092
  567MOL0     H74826   7.714   3.850   5.622 -1.5639 -0.6025  0.8718
  567MOL0     H74827   7.625   3.667   5.732  2.2850 -3.0952 -2.2801
  567MOL0     H74828   7.715   3.409   6.166 -2.7778  1.2472  0.4941
  567MOL0     H74829   7.597   3.239   6.294  0.3682 -0.8472 -0.2369
  567MOL0     H74830   7.454   1.991   6.169  1.1673 -0.1084 -0.4277
  567MOL0     H74831   7.550   2.061   5.969 -4.4940  1.6675  0.4808
  567MOL0     H74832   7.529   2.214   5.473 -0.0629  0.6059 -3.1303
  567MOL0     H74833   7.582   2.191   5.223 -1.8061 -0.5986 -0.0117
  567MOL0     H74834   7.877   1.896   5.133  1.1509 -0.9805 -0.3869
  567MOL0     H74835   7.806   1.960   4.976 -1.3937  1.1074 -0.3552
  567MOL0     H74836   7.799   1.709   5.079  1.2760  1.6453 -0.5067
  567MOL0     H74837   7.637   1.762   5.140  1.0075 -0.4570  0.4915
  567MOL0     H74838   7.598   1.834   4.892  0.7038  0.3629  0.2251
  567MOL0     H74839   7.582   1.666   4.930  0.1388 -1.0874  2.8426
  567MOL0     H74840   7.737   1.715   4.716  0.7151  3.3462 -0.3581
  567MOL0     H74841   7.854   1.804   4.804  0.9161 -0.4933 -2.8910
  567MOL0     H74842   7.892   1.393   4.929 -1.3045 -1.3262 -0.6935
  567MOL0     H74843   7.763   1.822   5.309 -0.9076 -0.1058 -2.1119
  567MOL0     H74844   7.706   1.836   5.548 -0.2714  0.3423 -0.5313
  568MOL0     O74845  10.538   4.730   4.232 -0.1993 -0.2769  0.3103
  568MOL0     C74846  10.603   4.834   4.202  0.1340  0.8712  1.6981
  568MOL0     O74847  10.739   4.848   4.218 -0.4237 -0.8949 -0.4088
  568MOL0     C74848  10.818   4.762   4.295 -0.3144 -0.2113 -0.2055
  568MOL0     C74849  10.958   4.793   4.289 -0.1077  0.4225 -0.1410
  568MOL0     C74850  11.048   4.716   4.365  0.2026  0.6038 -0.3542
  568MOL0     C74851  11.014   4.630   4.470 -0.3270  0.4607 -0.9499
  568MOL0     O74852  11.098   4.577   4.564 -0.1469 -0.4396  0.1906
  568MOL0     C74853  11.235   4.625   4.569 -0.3904  0.4177  0.1195
  568MOL0     C74854  11.307   4.571   4.692 -0.3215  1.7508 -0.5234
  568MOL0     C74855  11.453   4.617   4.673  0.3633 -0.0545 -0.5588
  568MOL0     C74856  11.537   4.559   4.785 -0.2696  0.3249  0.1042
  568MOL0     C74857  11.695   4.572   4.754  1.3783 -0.1491 -0.0817
  568MOL0     C74858  11.773   4.493   4.862 -0.4826  0.2113 -0.5511
  568MOL0     C74859  11.929   4.493   4.852 -0.1178  0.1035  0.7722
  568MOL0     C74860  11.988   4.627   4.883  0.7274 -0.0070 -0.0207
  568MOL0     N74861  12.136   4.622   4.887  0.5363  0.6588  0.1074
  568MOL0     C74862  12.213   4.685   4.986  0.8860 -0.4262  0.5135
  568MOL0     C74863  12.344   4.658   4.959  0.2404 -0.7287  0.3421
  568MOL0     C74864  12.470   4.714   5.016 -0.0521 -0.8003 -0.3963
  568MOL0     C74865  12.538   4.618   5.123  0.2428 -0.4592  0.2097
  568MOL0     C74866  12.482   4.618   5.256 -0.1134  0.4631 -1.0388
  568MOL0     C74867  12.543   4.506   5.355 -0.1195  0.9040  0.7168
  568MOL0     O74868  12.682   4.531   5.355 -0.6265 -0.1524 -0.0088
  568MOL0     C74869  12.723   4.522   5.488  1.0921 -0.8888 -0.0395
  568MOL0     C74870  12.716   4.636   5.566 -0.4560  0.1512  0.1359
  568MOL0     C74871  12.746   4.637   5.697 -1.1066  0.6395  0.9263
  568MOL0     C74872  12.793   4.517   5.761 -0.2499  0.4944  0.8975
  568MOL0     C74873  12.847   4.522   5.897  1.0705 -0.4598  0.4226
  568MOL0     O74874  12.847   4.641   5.960 -0.0950  0.0517  0.3895
  568MOL0     C74875  12.882   4.652   6.093  1.5903 -0.2781  0.6567
  568MOL0     C74876  13.014   4.636   6.137  0.8307  0.0185 -0.0612
  568MOL0     C74877  13.038   4.666   6.275  0.0832 -0.0203  0.5559
  568MOL0     C74878  12.931   4.703   6.360 -0.2722 -0.1193  0.0416
  568MOL0     O74879  12.950   4.742   6.487  0.8013 -0.5395 -0.2017
  568MOL0     C74880  13.058   4.673   6.567  0.3960  0.6825 -0.0990
  568MOL0     C74881  12.996   4.611   6.686 -0.2765  0.4172 -0.2275
  568MOL0     C74882  12.906   4.480   6.650 -0.7390 -0.3889  0.2079
  568MOL0     C74883  12.998   4.361   6.693  1.1172 -0.3127  0.7258
  568MOL0     C74884  12.935   4.224   6.678 -0.3820 -0.2077 -0.0181
  568MOL0     C74885  13.028   4.127   6.731 -1.5068 -0.5275 -0.3559
  568MOL0     C74886  12.996   3.979   6.690  0.7795  0.6187  0.1772
  568MOL0     C74887  13.042   3.953   6.545 -0.5682 -0.0411 -0.5083
  568MOL0    Cl74888  13.218   3.920   6.538 -0.3370 -0.0967 -0.5874
  568MOL0     C74889  12.802   4.713   6.308  0.0389  0.6422 -0.4735
  568MOL0     C74890  12.771   4.682   6.172 -0.3784  0.6490  0.5421
  568MOL0     O74891  12.860   4.416   5.954  0.3867  0.4445 -0.3468
  568MOL0     C74892  12.793   4.397   5.687 -0.1161 -0.5635  0.3289
  568MOL0     C74893  12.763   4.402   5.543  0.1183  0.1385 -0.3884
  568MOL0     N74894  12.344   4.591   4.838  0.5144  0.1247 -0.1979
  568MOL0     N74895  12.226   4.566   4.796 -0.1093  0.4015 -0.5902
  568MOL0     C74896  10.879   4.592   4.466 -0.4033 -0.1873  1.2291
  568MOL0     C74897  10.784   4.654   4.378 -0.9505 -0.3910  0.7521
  568MOL0     C74898  10.535   4.945   4.128  0.4221 -0.1017 -0.9829
  568MOL0     C74899  10.611   5.050   4.071 -0.3149  0.4277 -0.2062
  568MOL0     C74900  10.535   5.155   4.015  0.8822  0.9440 -0.2809
  568MOL0     C74901  10.392   5.154   4.008 -0.7721  0.3155  0.1722
  568MOL0     O74902  10.321   5.263   3.966 -0.0978 -0.2651 -0.3543
  568MOL0     C74903  10.316   5.305   3.827 -1.4273  0.4570  0.0389
  568MOL0     C74904  10.388   5.441   3.813 -0.4079  0.5249 -0.3912
  568MOL0     C74905  10.389   5.475   3.669  0.2231 -0.4733 -0.7774
  568MOL0     C74906  10.507   5.419   3.586 -0.0168  0.2043 -0.2708
  568MOL0     C74907  10.628   5.491   3.595 -0.5569  0.7072  0.1509
  568MOL0     C74908  10.740   5.544   3.613  0.9476  0.2824 -0.3894
  568MOL0     C74909  10.326   5.049   4.072 -0.1892  0.5187  0.4132
  568MOL0     C74910  10.397   4.942   4.127  0.0855 -0.9617 -0.8943
  568MOL0     H74911  10.989   4.878   4.229 -1.6120  1.0393 -0.1031
  568MOL0     H74912  11.156   4.726   4.356  0.0669  0.8378 -1.9133
  568MOL0     H74913  11.228   4.734   4.580 -2.7026  0.3785 -0.4641
  568MOL0     H74914  11.294   4.598   4.481  0.0666  1.8539 -0.0324
  568MOL0     H74915  11.308   4.461   4.695 -0.3889  1.6592 -2.4757
  568MOL0     H74916  11.262   4.616   4.781 -1.7077 -0.6587  0.0880
  568MOL0     H74917  11.460   4.725   4.688 -0.0699 -0.3844  2.9154
  568MOL0     H74918  11.502   4.591   4.578  0.3799  0.2694 -0.6405
  568MOL0     H74919  11.519   4.623   4.871 -3.6086  0.7420 -0.7947
  568MOL0     H74920  11.510   4.455   4.807  0.5163  0.2050  0.5597
  568MOL0     H74921  11.721   4.679   4.754  3.6113 -0.6369 -0.1555
  568MOL0     H74922  11.722   4.525   4.659 -2.8799 -3.3231 -0.0352
  568MOL0     H74923  11.734   4.391   4.859  1.5347 -0.6445  0.3029
  568MOL0     H74924  11.743   4.532   4.959  2.9038  1.0096  0.3145
  568MOL0     H74925  11.979   4.414   4.909  1.7205  0.2029 -0.5768
  568MOL0     H74926  11.958   4.473   4.748 -0.8118 -0.4656  0.6821
  568MOL0     H74927  11.957   4.647   4.986  0.7901  1.7880 -0.3127
  568MOL0     H74928  11.943   4.702   4.817 -3.6431 -0.2173  2.3246
  568MOL0     H74929  12.174   4.736   5.074 -0.6660 -0.0511 -0.3516
  568MOL0     H74930  12.455   4.804   5.077 -0.1298 -1.3797  0.4605
  568MOL0     H74931  12.529   4.751   4.932  0.4845  1.2974  0.8332
  568MOL0     H74932  12.645   4.641   5.130 -0.2209  1.6097  5.1974
  568MOL0     H74933  12.527   4.519   5.080  0.7731  0.9927 -3.5972
  568MOL0     H74934  12.512   4.711   5.303  1.5717 -1.2120  1.4238
  568MOL0     H74935  12.373   4.621   5.246 -0.1146 -1.8969 -2.9201
  568MOL0     H74936  12.511   4.407   5.323 -0.5828  0.8738  1.2521
  568MOL0     H74937  12.490   4.510   5.451 -2.6841  0.6880 -0.5873
  568MOL0     H74938  12.680   4.724   5.513 -2.4931 -1.8727 -2.0229
  568MOL0     H74939  12.732   4.732   5.748  0.3905  0.6709  1.3435
  568MOL0     H74940  13.097   4.605   6.075  1.4363  1.5672 -0.0708
  568MOL0     H74941  13.137   4.661   6.319  0.2637  0.0401  0.1578
  568MOL0     H74942  13.132   4.749   6.593 -0.6225  0.5604  3.7086
  568MOL0     H74943  13.108   4.596   6.507  0.1645 -0.9122  1.6414
  568MOL0     H74944  12.934   4.691   6.728 -1.9499 -0.7626 -0.3666
  568MOL0     H74945  13.082   4.592   6.751 -1.5564 -1.7045  0.9706
  568MOL0     H74946  12.886   4.463   6.544 -0.9292  4.5056 -0.7734
  568MOL0     H74947  12.809   4.477   6.702 -1.4199 -1.4257 -1.0617
  568MOL0     H74948  13.096   4.360   6.644  0.8136 -2.1246  0.0561
  568MOL0     H74949  13.003   4.379   6.800  3.1217 -1.5486  0.8794
  568MOL0     H74950  12.918   4.196   6.573 -0.2376  0.8523 -0.3348
  568MOL0     H74951  12.849   4.215   6.746  1.4131  1.6827  2.6690
  568MOL0     H74952  13.027   4.126   6.840 -5.1196 -0.7089 -0.2736
  568MOL0     H74953  13.127   4.153   6.691 -1.4737 -1.7307 -1.1069
  568MOL0     H74954  13.036   3.899   6.753 -2.6380 -1.4846 -0.0548
  568MOL0     H74955  12.888   3.967   6.701  1.0652 -0.8949  1.7346
  568MOL0     H74956  13.015   4.034   6.477 -2.7366  1.2427  1.7222
  568MOL0     H74957  12.985   3.869   6.504 -1.5411  0.3956 -0.0849
  568MOL0     H74958  12.727   4.744   6.380  3.3753  2.5019  2.5595
  568MOL0     H74959  12.677   4.700   6.121 -0.0237  1.6609  0.2200
  568MOL0     H74960  12.825   4.304   5.733  2.7723  0.1236 -0.1189
  568MOL0     H74961  12.757   4.316   5.476 -1.1599 -1.1304  1.2819
  568MOL0     H74962  10.846   4.516   4.536 -2.5525 -0.0618  0.4197
  568MOL0     H74963  10.680   4.622   4.380 -0.6362 -1.7198 -1.0327
  568MOL0     H74964  10.719   5.061   4.083 -0.4300  2.8683 -0.8802
  568MOL0     H74965  10.593   5.230   3.962 -0.4146  2.7831  0.7702
  568MOL0     H74966  10.210   5.300   3.800 -2.3995  1.2409  3.2655
  568MOL0     H74967  10.356   5.228   3.761 -3.4826  0.1755 -0.9606
  568MOL0     H74968  10.329   5.512   3.872 -1.3181 -0.8570  0.4281
  568MOL0     H74969  10.488   5.448   3.855 -1.3423 -0.8922  2.3167
  568MOL0     H74970  10.398   5.583   3.650 -0.0647 -0.4398 -0.7306
  568MOL0     H74971  10.293   5.443   3.628 -0.4848 -0.5243  0.8704
  568MOL0     H74972  10.518   5.313   3.610 -3.6582  0.2574  2.5578
  568MOL0     H74973  10.476   5.410   3.481  2.7465 -0.8633 -1.0765
  568MOL0     H74974  10.836   5.592   3.620  1.1247  0.0803 -1.3484
  568MOL0     H74975  10.218   5.038   4.069  0.0092 -1.7303 -0.2868
  568MOL0     H74976  10.334   4.870   4.177 -0.4129  0.8102  1.1738
  569MOL0     O74977   3.688   4.467  11.117  0.3885 -0.2116  0.3764
  569MOL0     C74978   3.732   4.544  11.030  0.4274 -0.5549  0.0257
  569MOL0     O74979   3.844   4.627  11.046  0.2983 -0.1689 -0.2643
  569MOL0     C74980   3.874   4.666  11.181 -1.8201 -0.4857  0.1868
  569MOL0     C74981   3.788   4.680  11.297  0.3881 -0.2981  0.2630
  569MOL0     C74982   3.839   4.717  11.421  0.6215  0.6550  0.5416
  569MOL0     C74983   3.971   4.768  11.422 -0.6839  0.7633  0.1815
  569MOL0     O74984   4.015   4.816  11.546  0.1786  0.0054 -0.6696
  569MOL0     C74985   4.147   4.873  11.557  0.6360 -0.3876 -0.3193
  569MOL0     C74986   4.178   4.915  11.708 -0.6293  0.3594 -0.1471
  569MOL0     C74987   4.319   4.978  11.726  0.4710  0.1553  0.8897
  569MOL0     C74988   4.348   5.072  11.841 -0.0859  0.3797  0.5099
  569MOL0     C74989   4.485   5.148  11.803  0.1804  0.2795  0.0077
  569MOL0     C74990   4.527   5.219  11.935  0.1274  0.1779 -0.0098
  569MOL0     C74991   4.425   5.321  12.001 -0.0602  0.1871 -0.1631
  569MOL0     C74992   4.454   5.335  12.154  1.2801 -0.0953  0.3038
  569MOL0     N74993   4.542   5.444  12.175 -0.9446  0.6216  0.3696
  569MOL0     C74994   4.496   5.561  12.235 -0.3013  0.2653  0.3595
  569MOL0     C74995   4.615   5.620  12.267 -0.1032  0.2905  0.2236
  569MOL0     C74996   4.634   5.756  12.311  0.0282 -0.3455  0.0166
  569MOL0     C74997   4.618   5.860  12.207 -0.4124 -0.7632 -0.3279
  569MOL0     C74998   4.723   5.841  12.089  0.5188  0.4956  0.6124
  569MOL0     C74999   4.700   5.734  11.982  0.4232 -1.0068 -0.7325
  569MOL0     O75000   4.739   5.786  11.854  0.2964 -0.3349  0.0798
  569MOL0     C75001   4.667   5.739  11.745 -0.2741  0.3251 -0.3668
  569MOL0     C75002   4.677   5.818  11.633 -0.5424  0.4643 -0.8179
  569MOL0     C75003   4.606   5.796  11.508  0.5251  0.1315 -0.0970
  569MOL0     C75004   4.522   5.679  11.499  0.3926  0.7198 -0.0029
  569MOL0     C75005   4.453   5.634  11.375  0.4605  0.0220 -0.0320
  569MOL0     O75006   4.356   5.533  11.390  0.9017  0.0573  0.8951
  569MOL0     C75007   4.278   5.525  11.279  0.0107  0.1772 -0.4990
  569MOL0     C75008   4.166   5.603  11.272  0.6594 -0.7728  0.6502
  569MOL0     C75009   4.080   5.609  11.165  0.5439 -0.4330  0.5644
  569MOL0     C75010   4.108   5.539  11.049  0.4210 -0.3588 -0.1526
  569MOL0     O75011   4.029   5.541  10.930 -0.0456 -0.4538  0.4631
  569MOL0     C75012   3.960   5.673  10.902  0.5455  0.4437  0.3231
  569MOL0     C75013   3.810   5.672  10.927  0.0666 -0.1292  0.1208
  569MOL0     C75014   3.773   5.639  11.075  0.0742  0.5758 -0.3559
  569MOL0     C75015   3.624   5.622  11.108 -0.0244  0.4515  0.2734
  569MOL0     C75016   3.570   5.560  11.237 -0.8636 -0.1986  0.2421
  569MOL0     C75017   3.603   5.628  11.372  1.0871  0.4550 -0.5100
  569MOL0     C75018   3.551   5.545  11.477  0.4296 -0.0355 -0.0952
  569MOL0     C75019   3.581   5.590  11.630  0.0263 -0.6152  0.4924
  569MOL0    Cl75020   3.553   5.753  11.652  0.3776 -0.0335  0.2150
  569MOL0     C75021   4.220   5.448  11.053 -0.1384 -0.1834 -0.4606
  569MOL0     C75022   4.308   5.449  11.167  0.0813 -0.7882 -0.0400
  569MOL0     O75023   4.498   5.684  11.269  0.2822 -0.1686 -0.5286
  569MOL0     C75024   4.514   5.604  11.620 -0.5051 -0.0845  0.1457
  569MOL0     C75025   4.588   5.625  11.735 -0.3794 -0.1182  0.6145
  569MOL0     N75026   4.729   5.541  12.222 -0.4164  0.2848 -1.6263
  569MOL0     N75027   4.679   5.436  12.174 -0.3304  0.5374  0.6640
  569MOL0     C75028   4.055   4.759  11.310 -0.6494  0.3049 -0.2852
  569MOL0     C75029   4.007   4.698  11.190 -0.2560 -0.2050  0.3373
  569MOL0     C75030   3.651   4.549  10.909 -0.1446 -0.3103  0.2339
  569MOL0     C75031   3.538   4.468  10.878  0.1297 -1.2486  0.2070
  569MOL0     C75032   3.455   4.494  10.754 -0.0615  0.6940 -0.3057
  569MOL0     C75033   3.483   4.600  10.664 -0.3875  0.1200 -0.1032
  569MOL0     O75034   3.417   4.634  10.546 -0.4813 -0.0583 -0.6695
  569MOL0     C75035   3.348   4.528  10.489 -0.3153  0.1057 -0.5192
  569MOL0     C75036   3.333   4.544  10.338  0.4092 -0.6009 -0.2189
  569MOL0     C75037   3.301   4.692  10.290 -0.4816  0.1616 -0.0177
  569MOL0     C75038   3.244   4.687  10.142  1.4117 -0.7086 -0.3062
  569MOL0     C75039   3.100   4.664  10.130  0.9395  0.5639  0.3947
  569MOL0     C75040   2.986   4.622  10.134 -1.0654 -0.5280  0.5739
  569MOL0     C75041   3.593   4.675  10.705 -0.0339 -1.1289 -0.5817
  569MOL0     C75042   3.672   4.661  10.821 -0.3993 -0.2169 -0.1540
  569MOL0     H75043   3.685   4.647  11.296 -0.3651  1.8314  1.8071
  569MOL0     H75044   3.776   4.708  11.509 -0.3593  1.9268  0.0017
  569MOL0     H75045   4.153   4.960  11.490  2.1746 -0.5510 -0.4330
  569MOL0     H75046   4.225   4.803  11.526  2.2428 -0.0751  2.6147
  569MOL0     H75047   4.173   4.829  11.776  0.0317 -0.5631 -1.2376
  569MOL0     H75048   4.109   4.996  11.732  0.2251  0.9826  0.2522
  569MOL0     H75049   4.321   5.037  11.634  1.7510 -0.0520  0.7684
  569MOL0     H75050   4.400   4.904  11.724 -0.2563 -0.6579 -0.3724
  569MOL0     H75051   4.263   5.140  11.836  0.9715  1.8020  1.1714
  569MOL0     H75052   4.348   5.031  11.943  2.4751 -2.3201 -0.4018
  569MOL0     H75053   4.458   5.219  11.724 -3.2302 -0.0594  0.6834
  569MOL0     H75054   4.568   5.085  11.773 -1.8212 -1.8898 -1.3406
  569MOL0     H75055   4.616   5.282  11.923  0.9517 -0.5864  1.7701
  569MOL0     H75056   4.556   5.145  12.009 -2.6543 -0.6840  0.3409
  569MOL0     H75057   4.430   5.422  11.959 -0.0364  1.1500  2.0096
  569MOL0     H75058   4.327   5.276  11.983 -0.6761  0.9120  1.2371
  569MOL0     H75059   4.481   5.239  12.199 -0.2628  1.1473  4.4108
  569MOL0     H75060   4.354   5.358  12.194  1.8003  1.2009  0.9172
  569MOL0     H75061   4.397   5.604  12.246 -0.5904  0.1539 -1.5144
  569MOL0     H75062   4.737   5.758  12.348  2.1806  3.4203 -5.0696
  569MOL0     H75063   4.569   5.770  12.398  1.0867 -0.0811  0.8016
  569MOL0     H75064   4.636   5.958  12.254 -3.0825  0.0251 -0.7771
  569MOL0     H75065   4.519   5.864  12.161  0.0944 -0.0387 -1.3975
  569MOL0     H75066   4.695   5.928  12.029 -0.8554 -1.0881 -1.1792
  569MOL0     H75067   4.825   5.833  12.128  0.0188 -0.2993  1.8366
  569MOL0     H75068   4.593   5.711  11.984 -0.1759  1.5219  0.4334
  569MOL0     H75069   4.762   5.646  12.002  0.2810 -0.6402  1.6349
  569MOL0     H75070   4.732   5.911  11.640 -2.1504  1.4530 -0.8831
  569MOL0     H75071   4.601   5.873  11.432  2.5882  1.7162  1.2389
  569MOL0     H75072   4.142   5.673  11.351 -3.8580 -3.4270  2.0328
  569MOL0     H75073   4.004   5.686  11.175  1.0058  0.2739 -1.0914
  569MOL0     H75074   3.966   5.692  10.795  1.6905  0.2177  0.3344
  569MOL0     H75075   4.018   5.753  10.948 -0.0101  0.2242  1.4411
  569MOL0     H75076   3.757   5.604  10.859 -1.3341  2.5100 -1.5975
  569MOL0     H75077   3.760   5.767  10.906 -1.2892 -1.2253 -2.0381
  569MOL0     H75078   3.806   5.720  11.140 -2.9827  0.9593  0.8597
  569MOL0     H75079   3.826   5.546  11.099  0.0792  0.6642 -0.0153
  569MOL0     H75080   3.573   5.719  11.106  1.0484  1.2454  3.7184
  569MOL0     H75081   3.589   5.561  11.024  2.2688 -1.4949  0.6148
  569MOL0     H75082   3.607   5.457  11.231  0.9481  0.4883 -1.3070
  569MOL0     H75083   3.463   5.544  11.220 -0.1818 -4.4248 -1.5956
  569MOL0     H75084   3.564   5.730  11.383  2.0097  0.7548  0.1038
  569MOL0     H75085   3.712   5.635  11.381  1.0886  0.6492 -0.6664
  569MOL0     H75086   3.442   5.536  11.469  0.0747  3.4801 -0.9478
  569MOL0     H75087   3.598   5.447  11.465 -1.0088 -0.5734 -1.7502
  569MOL0     H75088   3.683   5.563  11.660 -0.2293 -0.1799  1.8122
  569MOL0     H75089   3.503   5.537  11.686 -4.0730  2.5591 -1.6303
  569MOL0     H75090   4.255   5.397  10.963  2.7485  1.5831 -0.4731
  569MOL0     H75091   4.396   5.386  11.162 -0.5073 -1.7356  0.8200
  569MOL0     H75092   4.460   5.510  11.616  0.4466 -0.6118 -2.7930
  569MOL0     H75093   4.580   5.555  11.818  2.3947  0.0435  1.1275
  569MOL0     H75094   4.142   4.824  11.315 -0.1929  0.1695 -3.7767
  569MOL0     H75095   4.065   4.688  11.099  1.5694  1.7383  1.2122
  569MOL0     H75096   3.487   4.398  10.943 -1.2622 -0.7229 -0.2604
  569MOL0     H75097   3.367   4.431  10.741 -1.6341  3.0930 -2.1377
  569MOL0     H75098   3.251   4.526  10.540 -0.0278 -1.9323  0.0326
  569MOL0     H75099   3.413   4.446  10.521  2.6945  1.4829 -2.7324
  569MOL0     H75100   3.430   4.520  10.292  1.3114  1.4234  0.4988
  569MOL0     H75101   3.250   4.483  10.305  0.0489 -0.0906 -0.2701
  569MOL0     H75102   3.386   4.758  10.307 -1.2529  1.6389 -1.5788
  569MOL0     H75103   3.224   4.742  10.350 -0.4002  3.9507 -2.7365
  569MOL0     H75104   3.251   4.782  10.088 -0.0620 -2.4013 -3.7742
  569MOL0     H75105   3.297   4.617  10.077 -1.3717  0.9683 -4.8246
  569MOL0     H75106   2.879   4.609  10.130 -1.3109  1.4969 -0.4651
  569MOL0     H75107   3.612   4.767  10.651 -0.1050 -0.7441  0.0367
  569MOL0     H75108   3.744   4.739  10.844 -0.1834 -1.1552  2.8123
  570MOL0     O75109   0.043   5.100   9.109  0.3928 -0.7871 -0.4756
  570MOL0     C75110   0.092   5.050   9.006  0.3135  0.3572  0.4307
  570MOL0     O75111   0.077   5.092   8.874 -0.1650  0.7927 -0.6008
  570MOL0     C75112   0.058   5.222   8.845  0.2073 -0.5972  0.6793
  570MOL0     C75113   0.111   5.339   8.909  1.1184 -0.8526  0.4792
  570MOL0     C75114   0.086   5.458   8.872 -0.4542 -0.9165  0.4856
  570MOL0     C75115  -0.001   5.484   8.769 -0.2960  0.6151 -0.4164
  570MOL0     O75116  -0.011   5.615   8.736  0.5083  0.0567 -0.7327
  570MOL0     C75117  -0.021   5.653   8.599 -0.9287 -0.2960  0.2266
  570MOL0     C75118   0.017   5.804   8.584 -0.4569 -0.5090  0.8420
  570MOL0     C75119   0.077   5.835   8.446 -0.3530 -0.6612  0.4010
  570MOL0     C75120  -0.013   5.816   8.328 -0.1514  0.1751  0.2050
  570MOL0     C75121   0.055   5.833   8.185 -0.0651  0.4770 -0.2391
  570MOL0     C75122   0.103   5.700   8.130  0.2942 -0.3091  0.6085
  570MOL0     C75123   0.153   5.715   7.994  0.7029  1.0737  0.3069
  570MOL0     C75124   0.131   5.586   7.922  0.5705  0.0309  0.0557
  570MOL0     N75125   0.005   5.600   7.846 -0.2801 -0.4537 -0.3551
  570MOL0     C75126  -0.014   5.522   7.736  0.0354 -0.0123  0.6219
  570MOL0     C75127  -0.146   5.521   7.717 -1.3972  0.4426  0.4280
  570MOL0     C75128  -0.241   5.442   7.636 -0.5587  0.4760 -0.5804
  570MOL0     C75129  -0.176   5.304   7.595 -0.3562  0.4034  1.4958
  570MOL0     C75130  -0.107   5.314   7.458 -0.2651 -0.0454 -0.7126
  570MOL0     C75131  -0.197   5.320   7.331  0.9613  1.1351  0.0957
  570MOL0     O75132  -0.240   5.450   7.296 -0.2617 -0.0378 -0.0418
  570MOL0     C75133  -0.287   5.480   7.171 -0.0607  0.2712  0.6440
  570MOL0     C75134  -0.265   5.613   7.128  0.5162  0.4261 -0.3272
  570MOL0     C75135  -0.292   5.657   6.994 -0.6975 -0.5710 -0.5133
  570MOL0     C75136  -0.319   5.559   6.899 -0.4523  0.0948  0.3706
  570MOL0     C75137  -0.312   5.585   6.750  1.1006 -0.2760 -0.5946
  570MOL0     O75138  -0.313   5.476   6.656  0.3396 -0.5447  0.0122
  570MOL0     C75139  -0.362   5.500   6.529  0.3545 -0.9777 -0.1418
  570MOL0     C75140  -0.434   5.390   6.482  0.5115 -0.6378  0.5164
  570MOL0     C75141  -0.475   5.387   6.346 -0.7669  1.2380 -0.1273
  570MOL0     C75142  -0.437   5.488   6.257 -0.0626  0.3722 -0.1539
  570MOL0     O75143  -0.485   5.461   6.128 -0.3559  0.0179  0.1386
  570MOL0     C75144  -0.538   5.587   6.070 -0.5576  0.0677 -0.2311
  570MOL0     C75145  -0.645   5.542   5.972  0.1536 -0.9466 -0.4685
  570MOL0     C75146  -0.709   5.658   5.908 -0.0181  0.2832 -0.2200
  570MOL0     C75147  -0.831   5.612   5.830  0.1965 -0.0673  0.4010
  570MOL0     C75148  -0.908   5.732   5.779  0.1254 -0.1018  0.1276
  570MOL0     C75149  -0.810   5.840   5.706  0.6930 -1.0600  0.2310
  570MOL0     C75150  -0.896   5.943   5.628 -0.2441 -0.3032 -1.0551
  570MOL0     C75151  -0.927   6.079   5.705 -0.6139  1.3234 -0.0380
  570MOL0    Cl75152  -1.024   6.200   5.602  0.2895 -0.0230 -0.1534
  570MOL0     C75153  -0.383   5.602   6.309 -0.4514  0.2644  0.1527
  570MOL0     C75154  -0.332   5.604   6.438  0.0071 -0.3302  0.0668
  570MOL0     O75155  -0.325   5.707   6.717  0.0902  0.6648  1.2701
  570MOL0     C75156  -0.348   5.430   6.942  0.9578 -0.3465 -0.0617
  570MOL0     C75157  -0.329   5.391   7.070 -0.2114  0.5314  0.1459
  570MOL0     N75158  -0.206   5.614   7.803 -0.2786  0.3743 -0.7074
  570MOL0     N75159  -0.116   5.649   7.889  0.1454  0.1503  0.8918
  570MOL0     C75160  -0.051   5.379   8.690  0.4712  0.3286  0.0997
  570MOL0     C75161  -0.026   5.247   8.735 -0.4198  0.2014  0.5289
  570MOL0     C75162   0.165   4.918   9.021 -0.3281 -1.0547  0.1008
  570MOL0     C75163   0.124   4.829   9.113 -0.4068 -0.7732  0.7096
  570MOL0     C75164   0.184   4.698   9.126  0.3699  0.6124  0.1120
  570MOL0     C75165   0.286   4.660   9.046 -0.8064  0.5408  0.0236
  570MOL0     O75166   0.366   4.549   9.069 -0.9189  0.1944 -0.6525
  570MOL0     C75167   0.386   4.498   9.195  0.5200  0.9571  0.6426
  570MOL0     C75168   0.504   4.397   9.196 -0.6189 -0.1995  0.5254
  570MOL0     C75169   0.643   4.453   9.162  0.9309 -1.2632 -0.4681
  570MOL0     C75170   0.654   4.529   9.029  0.0816  0.6889  0.7917
  570MOL0     C75171   0.792   4.560   8.990  0.4967 -0.0774  0.6918
  570MOL0     C75172   0.904   4.591   8.955  0.4880  0.7252 -0.1322
  570MOL0     C75173   0.327   4.749   8.941 -1.5392  0.0392 -1.1051
  570MOL0     C75174   0.258   4.872   8.924  0.0555  0.6219 -0.7365
  570MOL0     H75175   0.172   5.328   8.998 -1.7781 -0.7576  2.5873
  570MOL0     H75176   0.142   5.545   8.907 -0.1132 -1.7912  2.1941
  570MOL0     H75177  -0.118   5.631   8.555 -1.3672 -0.6888  1.3714
  570MOL0     H75178   0.040   5.580   8.544  0.0256 -0.7082  1.7789
  570MOL0     H75179   0.084   5.830   8.667 -2.7424  0.8131  2.4102
  570MOL0     H75180  -0.067   5.873   8.594  1.9981  3.3652 -2.5162
  570MOL0     H75181   0.167   5.772   8.444 -0.0037 -0.5001  3.8418
  570MOL0     H75182   0.101   5.942   8.448 -0.6860 -0.4932  4.4931
  570MOL0     H75183  -0.074   5.725   8.323  1.9246 -1.2000 -2.2240
  570MOL0     H75184  -0.081   5.901   8.340 -0.3535 -0.2164  2.0567
  570MOL0     H75185   0.144   5.897   8.180 -0.9476  1.6545 -1.3935
  570MOL0     H75186  -0.022   5.868   8.116  0.1391  0.1659 -0.6267
  570MOL0     H75187   0.017   5.632   8.124 -1.1442  1.5653 -1.0655
  570MOL0     H75188   0.176   5.652   8.196  2.2969 -1.0184 -1.9371
  570MOL0     H75189   0.090   5.789   7.942 -1.8794 -1.2080 -0.0822
  570MOL0     H75190   0.260   5.731   7.983  0.5566  2.6825  0.9678
  570MOL0     H75191   0.137   5.502   7.992  1.0571  0.7757  0.9378
  570MOL0     H75192   0.206   5.558   7.848 -1.1304  1.4464 -2.3519
  570MOL0     H75193   0.063   5.467   7.684  1.4360  1.9048  0.5759
  570MOL0     H75194  -0.265   5.514   7.557 -1.7339  0.9279  0.1632
  570MOL0     H75195  -0.333   5.417   7.690  0.6183 -3.1360 -0.0044
  570MOL0     H75196  -0.260   5.234   7.599  1.1263 -1.5573  0.2792
  570MOL0     H75197  -0.108   5.266   7.672  0.9992  2.7494  1.5378
  570MOL0     H75198  -0.013   5.371   7.458  0.4637 -0.9580  3.4282
  570MOL0     H75199  -0.074   5.211   7.443 -5.1761 -2.1193  0.9329
  570MOL0     H75200  -0.274   5.248   7.361  1.0274  1.5139  1.2441
  570MOL0     H75201  -0.139   5.270   7.253  1.8008 -2.5526  2.8152
  570MOL0     H75202  -0.227   5.675   7.208  0.4482 -0.6508  0.5634
  570MOL0     H75203  -0.281   5.761   6.964  0.7083 -1.4811 -3.5964
  570MOL0     H75204  -0.452   5.307   6.549  0.1983  0.9915  2.5498
  570MOL0     H75205  -0.546   5.310   6.317 -0.2015  0.6344  0.0577
  570MOL0     H75206  -0.460   5.641   6.015 -0.8449 -0.1421 -0.8588
  570MOL0     H75207  -0.585   5.657   6.139  0.0378  2.4825 -2.0998
  570MOL0     H75208  -0.726   5.490   6.024 -0.6182  1.2658  0.6415
  570MOL0     H75209  -0.594   5.473   5.904 -0.1526 -1.0275 -0.6178
  570MOL0     H75210  -0.637   5.704   5.840 -1.0511  1.5548 -0.4896
  570MOL0     H75211  -0.734   5.736   5.981 -0.7436  1.0250 -1.2290
  570MOL0     H75212  -0.801   5.554   5.742 -2.5695 -1.0164  0.0092
  570MOL0     H75213  -0.895   5.548   5.891  0.6495 -0.9766 -0.0496
  570MOL0     H75214  -0.968   5.780   5.857 -1.2758 -1.5687  0.0091
  570MOL0     H75215  -0.987   5.702   5.710 -1.1469 -0.3279  1.6328
  570MOL0     H75216  -0.747   5.791   5.631  0.4893 -3.5660  1.6109
  570MOL0     H75217  -0.739   5.888   5.775 -0.8051 -1.0799  1.8538
  570MOL0     H75218  -0.835   5.964   5.539 -1.2281  0.3170 -1.6025
  570MOL0     H75219  -0.985   5.896   5.586 -0.2242  0.7620 -2.3711
  570MOL0     H75220  -0.834   6.120   5.747 -2.3942  3.0229  2.4779
  570MOL0     H75221  -0.975   6.052   5.799  1.2217  1.0766  0.8796
  570MOL0     H75222  -0.356   5.683   6.242  0.6568  0.2488  0.5636
  570MOL0     H75223  -0.282   5.696   6.468 -1.6246 -0.0753  2.2287
  570MOL0     H75224  -0.359   5.360   6.860 -2.1176  1.9955 -1.8474
  570MOL0     H75225  -0.344   5.285   7.087 -0.4804  0.6876  0.9453
  570MOL0     H75226  -0.116   5.378   8.603  0.3912 -2.3988  0.1099
  570MOL0     H75227  -0.071   5.156   8.696  0.6937 -0.5402  0.9145
  570MOL0     H75228   0.034   4.857   9.166 -0.0642  0.2997  0.7550
  570MOL0     H75229   0.144   4.635   9.205 -0.1524 -1.3326 -1.6143
  570MOL0     H75230   0.292   4.445   9.211  1.3472 -0.9201 -0.3931
  570MOL0     H75231   0.406   4.570   9.275 -1.0321  1.5375  0.5369
  570MOL0     H75232   0.505   4.340   9.290  2.1558 -1.8170 -0.3740
  570MOL0     H75233   0.493   4.319   9.120  4.8830 -0.6818 -0.1674
  570MOL0     H75234   0.707   4.366   9.141  0.6720 -1.5731  0.0187
  570MOL0     H75235   0.676   4.518   9.244  2.8274 -3.3823  0.5849
  570MOL0     H75236   0.615   4.476   8.941 -0.2127  0.3328  1.1364
  570MOL0     H75237   0.587   4.614   9.041  0.3220  0.7025  2.2119
  570MOL0     H75238   0.996   4.628   8.914  0.5954  0.5515 -0.0493
  570MOL0     H75239   0.406   4.736   8.867 -2.9823 -0.6344 -2.5896
  570MOL0     H75240   0.294   4.933   8.842  0.8072  1.0740 -0.0869
  571MOL0     O75241   6.909   4.329   9.214 -0.2982  0.2796 -0.5805
  571MOL0     C75242   6.838   4.357   9.306 -0.2807 -0.8750 -0.2494
  571MOL0     O75243   6.763   4.264   9.379 -0.6491 -0.1542 -0.1021
  571MOL0     C75244   6.746   4.130   9.339  0.0735 -0.7153  0.6194
  571MOL0     C75245   6.619   4.067   9.347  0.0681 -0.7014  0.3462
  571MOL0     C75246   6.600   3.938   9.302 -0.3273  0.4809 -0.2353
  571MOL0     C75247   6.711   3.862   9.262 -0.0743 -0.7763 -0.2596
  571MOL0     O75248   6.706   3.735   9.205  0.1274 -0.0531  0.7206
  571MOL0     C75249   6.595   3.660   9.174 -0.8255  0.1671 -0.4574
  571MOL0     C75250   6.648   3.522   9.154 -0.4666  0.8208 -0.6463
  571MOL0     C75251   6.745   3.511   9.032  0.3968  0.2284 -0.3328
  571MOL0     C75252   6.789   3.364   8.994  0.1236 -0.8719 -0.2494
  571MOL0     C75253   6.695   3.259   8.940 -0.7057  0.5284  0.9331
  571MOL0     C75254   6.604   3.296   8.816 -0.1236 -0.3434 -0.1180
  571MOL0     C75255   6.532   3.187   8.746  0.6175  0.5807  0.2669
  571MOL0     C75256   6.387   3.181   8.789 -0.1050  0.9607 -0.1492
  571MOL0     N75257   6.333   3.051   8.735 -0.0496  0.5446  0.1347
  571MOL0     C75258   6.352   2.923   8.791  0.3418 -0.4635  0.1830
  571MOL0     C75259   6.256   2.846   8.734 -0.3095 -0.4147 -0.2890
  571MOL0     C75260   6.231   2.700   8.759 -1.7865  0.1815  0.4422
  571MOL0     C75261   6.271   2.598   8.648 -0.5092  0.1309  0.5862
  571MOL0     C75262   6.335   2.475   8.711 -0.6711  1.1998  0.6717
  571MOL0     C75263   6.356   2.371   8.597  0.4465  0.4106 -0.4104
  571MOL0     O75264   6.457   2.280   8.634 -0.1291 -0.2659  0.9975
  571MOL0     C75265   6.430   2.168   8.704  0.0260 -0.2469  0.4949
  571MOL0     C75266   6.331   2.074   8.661  0.3813  0.4192  0.2820
  571MOL0     C75267   6.323   1.967   8.742 -0.4070  0.6824 -0.4891
  571MOL0     C75268   6.413   1.930   8.842 -0.9111  0.5221 -0.3574
  571MOL0     C75269   6.401   1.803   8.916 -0.5654 -0.2459  0.8161
  571MOL0     O75270   6.312   1.714   8.866  0.8541 -0.2337  0.5966
  571MOL0     C75271   6.319   1.574   8.882 -1.0902  0.1282  0.2561
  571MOL0     C75272   6.442   1.509   8.903  0.0980  1.0109 -0.6949
  571MOL0     C75273   6.438   1.372   8.914 -0.6176 -0.7198  0.1908
  571MOL0     C75274   6.325   1.297   8.893  0.8020 -0.4260 -0.1427
  571MOL0     O75275   6.326   1.162   8.885 -0.6549  0.9826 -0.7203
  571MOL0     C75276   6.394   1.097   9.003  1.1013 -0.1152  0.5048
  571MOL0     C75277   6.424   0.956   8.976 -0.2737  0.8633 -0.0646
  571MOL0     C75278   6.532   0.907   9.075 -0.3770 -0.2132 -1.1911
  571MOL0     C75279   6.610   0.785   9.021 -0.2079 -0.2922  0.2296
  571MOL0     C75280   6.498   0.674   9.016 -0.3049  0.3518  0.2605
  571MOL0     C75281   6.560   0.538   9.011  0.2096 -0.7881  0.3232
  571MOL0     C75282   6.452   0.427   9.019  0.2049 -0.9158  0.0651
  571MOL0     C75283   6.478   0.310   9.116 -0.1200 -0.1292 -0.5068
  571MOL0    Cl75284   6.456   0.364   9.282 -0.2085 -0.4364  0.0453
  571MOL0     C75285   6.207   1.363   8.864  0.1776 -0.3018  0.2221
  571MOL0     C75286   6.197   1.503   8.857  0.4968  0.7633  0.0022
  571MOL0     O75287   6.461   1.784   9.018 -0.1810 -0.7179  0.4085
  571MOL0     C75288   6.514   2.022   8.879  0.4998  0.1655  0.5963
  571MOL0     C75289   6.513   2.149   8.817 -0.0321 -0.6327 -1.4149
  571MOL0     N75290   6.180   2.914   8.646 -0.0313  0.1649 -0.7927
  571MOL0     N75291   6.231   3.040   8.652 -0.3698 -0.5059  0.3167
  571MOL0     C75292   6.832   3.919   9.262 -0.3146 -0.3783 -0.4747
  571MOL0     C75293   6.853   4.054   9.293  0.1584  1.1009 -0.0810
  571MOL0     C75294   6.807   4.490   9.352  0.0313  0.7589  0.0566
  571MOL0     C75295   6.741   4.518   9.471  0.6149 -0.5687 -0.5044
  571MOL0     C75296   6.706   4.649   9.499  0.8434  0.5740  0.0028
  571MOL0     C75297   6.728   4.750   9.410  0.7438  0.1836  0.6326
  571MOL0     O75298   6.676   4.874   9.427  0.2015 -0.8084  0.1631
  571MOL0     C75299   6.712   4.943   9.552 -0.0414 -0.4988 -1.0241
  571MOL0     C75300   6.846   5.022   9.546  0.0007 -1.1460  0.1034
  571MOL0     C75301   6.842   5.130   9.426  0.0154  1.1352 -0.2532
  571MOL0     C75302   6.959   5.223   9.434  0.0862 -0.0932  0.1208
  571MOL0     C75303   6.982   5.285   9.565  0.0630 -0.3751  0.5948
  571MOL0     C75304   6.983   5.314   9.679 -0.4275  0.0350 -0.6541
  571MOL0     C75305   6.800   4.728   9.292  0.4522  0.5543  0.5912
  571MOL0     C75306   6.838   4.597   9.261 -0.2033  0.0128 -0.2584
  571MOL0     H75307   6.539   4.128   9.388  1.5115  2.8856 -1.6787
  571MOL0     H75308   6.499   3.897   9.303  0.1250 -0.6811  0.3834
  571MOL0     H75309   6.546   3.676   9.077 -2.4210 -1.0031  0.1266
  571MOL0     H75310   6.528   3.659   9.260  1.9056  2.4814  1.9113
  571MOL0     H75311   6.575   3.441   9.146  0.6909 -0.7926  3.0854
  571MOL0     H75312   6.710   3.509   9.243 -1.2646  0.0597 -0.2008
  571MOL0     H75313   6.830   3.578   9.048  0.7303  0.1347 -1.6283
  571MOL0     H75314   6.697   3.558   8.945 -2.5395  0.3301  1.2099
  571MOL0     H75315   6.879   3.379   8.934  1.0011  5.3786  1.8149
  571MOL0     H75316   6.820   3.321   9.090  2.1308  2.3852  0.7523
  571MOL0     H75317   6.620   3.239   9.016 -2.1916 -1.3467 -0.8845
  571MOL0     H75318   6.755   3.174   8.903 -0.0031  2.7110 -3.6631
  571MOL0     H75319   6.676   3.324   8.738  0.7951  0.6843  1.0493
  571MOL0     H75320   6.541   3.378   8.853 -0.8742 -0.3163 -1.4073
  571MOL0     H75321   6.546   3.187   8.638 -1.3114 -1.4073 -0.0664
  571MOL0     H75322   6.590   3.099   8.776  1.5758  0.7890 -0.9289
  571MOL0     H75323   6.340   3.271   8.750  3.9374  2.7239 -1.3959
  571MOL0     H75324   6.372   3.184   8.897  0.8601 -2.2771  0.2029
  571MOL0     H75325   6.439   2.899   8.851  3.1368  4.4307 -1.3881
  571MOL0     H75326   6.127   2.689   8.789 -1.9181  1.5549  0.5568
  571MOL0     H75327   6.294   2.673   8.844 -0.0730 -1.5451 -1.2678
  571MOL0     H75328   6.351   2.649   8.593  0.4671  0.8191  2.5690
  571MOL0     H75329   6.198   2.563   8.574  1.4262 -0.8937 -0.9341
  571MOL0     H75330   6.433   2.501   8.752 -0.6039 -0.0983  1.3971
  571MOL0     H75331   6.270   2.434   8.789  2.4893 -0.6161  2.5508
  571MOL0     H75332   6.392   2.427   8.510 -1.7905  0.9001 -1.0922
  571MOL0     H75333   6.266   2.313   8.576  0.1098  0.3245  1.1711
  571MOL0     H75334   6.265   2.095   8.578  2.1371  2.3149 -0.7209
  571MOL0     H75335   6.252   1.894   8.706  0.0498 -1.6477  2.9086
  571MOL0     H75336   6.527   1.567   8.937  1.3199 -0.3366 -1.3277
  571MOL0     H75337   6.532   1.325   8.941 -0.1528  1.8202  3.7325
  571MOL0     H75338   6.324   1.095   9.088 -0.4578  1.6065 -0.6710
  571MOL0     H75339   6.480   1.161   9.027 -2.1644  4.8247  0.5987
  571MOL0     H75340   6.473   0.937   8.880 -0.5164  0.9460 -0.2064
  571MOL0     H75341   6.336   0.891   8.979  0.4510 -0.4293 -2.9455
  571MOL0     H75342   6.488   0.877   9.171 -1.7028 -0.2220 -1.7803
  571MOL0     H75343   6.594   0.995   9.092 -3.0242  1.5782 -0.1101
  571MOL0     H75344   6.645   0.801   8.918  0.6518  1.3909  0.7539
  571MOL0     H75345   6.697   0.761   9.083  2.0627 -1.8103 -3.2541
  571MOL0     H75346   6.424   0.668   8.935  0.3579 -2.5934 -0.2662
  571MOL0     H75347   6.436   0.686   9.105  1.0432  3.1789  0.9292
  571MOL0     H75348   6.644   0.532   9.080  2.7533  0.6272 -2.4250
  571MOL0     H75349   6.613   0.531   8.916 -0.0177 -0.2872  0.1576
  571MOL0     H75350   6.353   0.471   9.034 -0.7579 -2.2687 -1.8707
  571MOL0     H75351   6.450   0.392   8.916 -1.5822  1.4584 -0.7971
  571MOL0     H75352   6.578   0.269   9.097  0.2376  0.7239 -0.4949
  571MOL0     H75353   6.413   0.224   9.096  0.3477 -0.3788 -0.9844
  571MOL0     H75354   6.108   1.321   8.848 -0.9968  1.1623  3.0358
  571MOL0     H75355   6.107   1.562   8.847  1.7117  3.2340  2.2364
  571MOL0     H75356   6.596   2.009   8.949  1.4972 -0.8045 -0.7116
  571MOL0     H75357   6.584   2.230   8.832 -1.5815  0.5955 -0.3535
  571MOL0     H75358   6.907   3.843   9.242 -0.1837 -0.2173 -0.5932
  571MOL0     H75359   6.950   4.100   9.278  0.2140  0.9757 -0.1036
  571MOL0     H75360   6.714   4.453   9.553  2.3869  1.6607  2.0337
  571MOL0     H75361   6.642   4.661   9.585 -0.8788 -0.5279 -1.0568
  571MOL0     H75362   6.709   4.875   9.638  0.3014  1.6497  0.7827
  571MOL0     H75363   6.629   5.012   9.573 -0.0931 -0.2659 -1.9581
  571MOL0     H75364   6.860   5.076   9.640  0.3327  0.7982 -0.9948
  571MOL0     H75365   6.933   4.956   9.536 -0.2320 -1.1961 -2.0268
  571MOL0     H75366   6.750   5.189   9.434 -1.1997 -0.7919  0.7572
  571MOL0     H75367   6.849   5.074   9.333  0.1813 -0.7472  0.8451
  571MOL0     H75368   7.049   5.176   9.393 -0.5041  0.3158 -1.7033
  571MOL0     H75369   6.933   5.303   9.365 -2.0883 -1.7593 -1.1167
  571MOL0     H75370   6.982   5.335   9.784  2.0120  0.5895 -0.6864
  571MOL0     H75371   6.831   4.818   9.240  1.7669 -0.5487 -0.6174
  571MOL0     H75372   6.896   4.577   9.171 -2.5783  0.8715 -2.0884
  572MOL0     O75373   9.117   0.845  10.223 -0.9895  0.2115  0.5009
  572MOL0     C75374   9.149   0.821  10.338  0.1625 -0.3153  0.3202
  572MOL0     O75375   9.260   0.854  10.402 -0.2732 -0.6465  0.1732
  572MOL0     C75376   9.371   0.920  10.345 -0.4826 -0.1596 -0.6031
  572MOL0     C75377   9.482   0.952  10.420 -0.3429 -0.1130 -0.1135
  572MOL0     C75378   9.593   1.030  10.370  0.3896 -0.2870  0.2328
  572MOL0     C75379   9.601   1.069  10.235 -0.2113  1.2481 -1.0114
  572MOL0     O75380   9.713   1.126  10.182 -0.1975 -0.7773 -0.3283
  572MOL0     C75381   9.805   1.191  10.268 -0.1148 -0.1566  0.5080
  572MOL0     C75382   9.898   1.272  10.181  0.0339 -0.8680 -0.0767
  572MOL0     C75383   9.953   1.388  10.269 -0.2726  0.4512  0.5498
  572MOL0     C75384  10.053   1.344  10.370 -0.0443 -0.4778  0.2510
  572MOL0     C75385  10.111   1.459  10.455 -0.6490  0.7123 -0.1238
  572MOL0     C75386  10.214   1.389  10.544 -0.4369  0.8245 -0.8314
  572MOL0     C75387  10.280   1.482  10.641 -0.4444 -0.3112 -1.3834
  572MOL0     C75388  10.411   1.432  10.709 -0.4036  0.7762  0.0177
  572MOL0     N75389  10.387   1.314  10.793 -0.7066 -0.5274 -0.5226
  572MOL0     C75390  10.408   1.184  10.749  0.0680 -0.5340 -0.7163
  572MOL0     C75391  10.336   1.111  10.833  0.6845 -0.3958  1.1273
  572MOL0     C75392  10.356   0.959  10.834  0.2965 -0.4464 -0.1554
  572MOL0     C75393  10.251   0.880  10.909 -0.3947 -0.1911  0.1394
  572MOL0     C75394  10.281   0.726  10.895  0.6578  0.6401 -0.0006
  572MOL0     C75395  10.228   0.656  10.766 -0.5417 -0.0641 -1.4131
  572MOL0     O75396  10.304   0.539  10.728  0.3573  0.1173 -0.2981
  572MOL0     C75397  10.362   0.534  10.603  0.4108 -0.7853  0.3922
  572MOL0     C75398  10.492   0.474  10.592 -0.1115 -0.3664 -0.8437
  572MOL0     C75399  10.544   0.459  10.466 -0.7315 -0.0357  0.9370
  572MOL0     C75400  10.493   0.519  10.350  0.6376  0.0301  1.1975
  572MOL0     C75401  10.559   0.480  10.219 -0.2488 -0.2881 -0.1637
  572MOL0     O75402  10.518   0.545  10.108  0.1165  0.1951 -0.3455
  572MOL0     C75403  10.601   0.637  10.054 -0.1434 -0.8422 -1.0390
  572MOL0     C75404  10.550   0.704   9.942 -1.5281 -0.0341 -0.4843
  572MOL0     C75405  10.625   0.813   9.893 -0.4455 -0.2586 -0.2089
  572MOL0     C75406  10.762   0.832   9.929  0.9194 -0.0598 -1.0557
  572MOL0     O75407  10.834   0.929   9.864  0.2055 -1.4069 -1.0121
  572MOL0     C75408  10.836   0.940   9.722 -0.8212 -0.8648  1.1080
  572MOL0     C75409  10.978   0.978   9.679 -0.0970 -0.1516  0.6945
  572MOL0     C75410  11.008   1.121   9.703  0.5133 -0.3002  0.9675
  572MOL0     C75411  10.937   1.213   9.602  0.0338 -1.0717 -0.6339
  572MOL0     C75412  11.010   1.344   9.607  0.2863  0.1126  0.3358
  572MOL0     C75413  10.966   1.448   9.513 -0.4349  0.0247 -0.7833
  572MOL0     C75414  11.046   1.578   9.523  0.0329 -0.4173 -0.2284
  572MOL0     C75415  10.972   1.691   9.452  0.3220  0.2732 -0.6603
  572MOL0    Cl75416  10.952   1.645   9.285 -0.5100  0.3323 -0.1478
  572MOL0     C75417  10.817   0.757  10.034 -0.0187 -0.6142  0.5371
  572MOL0     C75418  10.738   0.670  10.107  0.3471 -0.0759  0.2994
  572MOL0     O75419  10.639   0.388  10.216 -0.2937 -0.2264  0.0214
  572MOL0     C75420  10.378   0.600  10.358 -0.3547 -0.3378  1.2584
  572MOL0     C75421  10.310   0.591  10.483  0.0711  0.2398  0.5903
  572MOL0     N75422  10.279   1.196  10.926 -1.1255  0.0542 -0.6541
  572MOL0     N75423  10.307   1.319  10.903 -0.0089  0.5912 -0.2537
  572MOL0     C75424   9.489   1.024  10.155 -0.6283 -1.2056  0.3141
  572MOL0     C75425   9.383   0.950  10.211  0.6015  0.6388  0.6671
  572MOL0     C75426   9.043   0.757  10.416 -0.4098 -0.0457  0.4861
  572MOL0     C75427   9.063   0.727  10.547 -0.2882 -0.4900 -0.7846
  572MOL0     C75428   8.964   0.682  10.629 -0.1436 -0.5586  0.4844
  572MOL0     C75429   8.833   0.660  10.582  0.0022 -0.2569  0.4198
  572MOL0     O75430   8.717   0.611  10.647 -0.3487  0.1079  0.7116
  572MOL0     C75431   8.746   0.571  10.783 -0.4015 -0.4628 -0.1842
  572MOL0     C75432   8.610   0.513  10.850  0.4207 -0.3805  0.1454
  572MOL0     C75433   8.555   0.406  10.752  0.7475 -0.1568 -1.1149
  572MOL0     C75434   8.662   0.307  10.704  0.0493 -0.1356  0.0713
  572MOL0     C75435   8.738   0.253  10.820 -0.4748  0.3201  1.0670
  572MOL0     C75436   8.795   0.200  10.913 -0.7883  0.0324 -0.0853
  572MOL0     C75437   8.817   0.673  10.440  0.8260  0.3596  0.3305
  572MOL0     C75438   8.915   0.726  10.365  0.0612  0.6670  0.3589
  572MOL0     H75439   9.477   0.944  10.528  0.0142 -0.0387 -0.0880
  572MOL0     H75440   9.671   1.051  10.442  1.2558  3.0917 -1.4685
  572MOL0     H75441   9.857   1.112  10.323  1.1124  1.4033  1.6753
  572MOL0     H75442   9.751   1.245  10.347  0.5860 -0.9919  1.5774
  572MOL0     H75443   9.850   1.308  10.090 -2.4370  0.0763  1.5081
  572MOL0     H75444   9.980   1.204  10.157  1.0641  0.5782 -0.7472
  572MOL0     H75445   9.862   1.439  10.301 -1.3597 -0.6875 -0.5914
  572MOL0     H75446  10.002   1.445  10.190  0.2775 -1.7623 -0.7866
  572MOL0     H75447  10.001   1.265  10.425 -2.0019  1.1947  0.9485
  572MOL0     H75448  10.131   1.293  10.313  1.3960 -1.8367  3.2174
  572MOL0     H75449  10.039   1.514  10.515  0.1193 -0.9000  2.4573
  572MOL0     H75450  10.161   1.532  10.390 -0.5195 -0.0793 -0.9382
  572MOL0     H75451  10.292   1.346  10.481 -1.4677 -0.2695 -1.3911
  572MOL0     H75452  10.163   1.304  10.590 -0.4467 -1.8995 -5.3199
  572MOL0     H75453  10.325   1.561  10.580 -0.7742  1.0850  0.1143
  572MOL0     H75454  10.219   1.522  10.722  1.7908  2.3619 -0.8806
  572MOL0     H75455  10.460   1.510  10.770  3.2272 -1.1860 -0.0858
  572MOL0     H75456  10.488   1.402  10.637  1.0243  1.9243  0.9949
  572MOL0     H75457  10.459   1.148  10.661 -1.1853 -1.0045 -1.2685
  572MOL0     H75458  10.453   0.936  10.880  0.3286 -1.2738 -0.6143
  572MOL0     H75459  10.361   0.919  10.732  0.1374 -0.4372 -0.1665
  572MOL0     H75460  10.153   0.897  10.864 -0.7229 -1.7213  0.2248
  572MOL0     H75461  10.252   0.904  11.016  2.7089  0.0427  0.1324
  572MOL0     H75462  10.389   0.704  10.891  0.6626  0.7338 -2.6957
  572MOL0     H75463  10.238   0.672  10.979  0.4912 -0.9210 -1.0461
  572MOL0     H75464  10.238   0.734  10.690  2.9624 -2.3231 -3.5503
  572MOL0     H75465  10.123   0.627  10.776  0.3230 -3.0143  0.3675
  572MOL0     H75466  10.537   0.440  10.685 -1.6811 -0.2002  0.0218
  572MOL0     H75467  10.643   0.415  10.475  0.3007  1.9602 -0.0900
  572MOL0     H75468  10.456   0.673   9.897  0.0179 -2.3856 -2.3532
  572MOL0     H75469  10.580   0.879   9.819 -0.0295  3.4838  2.5777
  572MOL0     H75470  10.773   1.021   9.683 -0.4652 -1.2928 -0.3978
  572MOL0     H75471  10.802   0.851   9.669  0.9362 -1.0448  0.2194
  572MOL0     H75472  10.977   0.956   9.572 -0.0489  2.2251  0.1405
  572MOL0     H75473  11.052   0.918   9.733 -0.6838 -0.3113  1.3353
  572MOL0     H75474  11.113   1.145   9.684 -0.6690  2.2952 -4.1603
  572MOL0     H75475  10.981   1.142   9.807  2.3582  2.6430  0.9885
  572MOL0     H75476  10.931   1.169   9.502 -0.7235  1.8923 -2.0236
  572MOL0     H75477  10.837   1.243   9.635  0.1680 -2.7053  1.4840
  572MOL0     H75478  11.114   1.328   9.578  0.5487  0.7403  0.9099
  572MOL0     H75479  10.998   1.378   9.710 -1.2040 -2.1281  0.9766
  572MOL0     H75480  10.859   1.462   9.532  0.3427  1.3542  4.1663
  572MOL0     H75481  10.978   1.414   9.410 -2.4956 -2.1404 -0.3803
  572MOL0     H75482  11.053   1.598   9.630 -1.1170  1.0946 -0.4107
  572MOL0     H75483  11.153   1.572   9.499  0.5973  2.0785  1.3080
  572MOL0     H75484  11.029   1.783   9.466  0.8163 -0.3473  1.8539
  572MOL0     H75485  10.874   1.702   9.500  0.6904  1.4544 -0.1300
  572MOL0     H75486  10.920   0.778  10.060 -0.1613 -0.5363  1.0532
  572MOL0     H75487  10.764   0.623  10.202  0.1378  1.3426  1.0857
  572MOL0     H75488  10.329   0.643  10.270  1.8760 -0.8101 -0.3067
  572MOL0     H75489  10.211   0.635  10.491  0.0239 -0.0735  1.9021
  572MOL0     H75490   9.495   1.050  10.050  3.6734  0.0223  0.6534
  572MOL0     H75491   9.314   0.915  10.135  1.1184  3.2074 -1.1422
  572MOL0     H75492   9.153   0.759  10.598 -1.7890  1.0135  1.1330
  572MOL0     H75493   8.999   0.665  10.730 -0.0525 -1.5585  0.3050
  572MOL0     H75494   8.786   0.659  10.834  1.2172  0.7721 -3.3229
  572MOL0     H75495   8.823   0.494  10.787 -1.2638 -1.3383  0.1540
  572MOL0     H75496   8.647   0.484  10.949  2.9538  2.9029  0.3468
  572MOL0     H75497   8.534   0.592  10.857  0.0484 -0.7906  0.8199
  572MOL0     H75498   8.494   0.454  10.675  0.8665 -1.1958 -1.8789
  572MOL0     H75499   8.480   0.352  10.810 -1.7126  2.0665 -2.0122
  572MOL0     H75500   8.609   0.229  10.647  0.7761 -2.2453  2.1300
  572MOL0     H75501   8.737   0.357  10.642  0.2345 -1.9050 -1.2131
  572MOL0     H75502   8.844   0.151  10.994  0.3631 -0.4451 -1.0368
  572MOL0     H75503   8.721   0.642  10.399  1.9114 -2.8713 -0.0563
  572MOL0     H75504   8.885   0.764  10.267  0.0988  0.7370  0.3744
  573MOL0     O75505   3.053   5.457   1.034  0.2537 -0.1610  0.5237
  573MOL0     C75506   3.075   5.417   1.150  0.2289  0.2228  0.1418
  573MOL0     O75507   2.994   5.331   1.225 -0.1919 -0.3797  0.6014
  573MOL0     C75508   2.870   5.318   1.168 -0.3166 -0.4813  0.6909
  573MOL0     C75509   2.843   5.210   1.079 -0.0012 -0.6406  1.0034
  573MOL0     C75510   2.710   5.197   1.023  0.1592 -0.5627  0.9580
  573MOL0     C75511   2.610   5.289   1.059 -0.2509 -0.5293  0.8532
  573MOL0     O75512   2.486   5.264   0.998 -0.5280  0.4495 -0.3849
  573MOL0     C75513   2.386   5.362   1.009  0.0947  0.1086  0.3563
  573MOL0     C75514   2.257   5.342   0.919  0.0267  0.3431  0.6790
  573MOL0     C75515   2.173   5.227   0.977 -0.6255 -0.7582 -0.5314
  573MOL0     C75516   2.042   5.216   0.893  0.0176  0.1641  1.2584
  573MOL0     C75517   1.939   5.134   0.955  0.2280  0.9493 -0.5928
  573MOL0     C75518   1.802   5.140   0.894  0.4321  0.9751 -0.5918
  573MOL0     C75519   1.700   5.041   0.946 -0.6430 -0.9450 -0.6650
  573MOL0     C75520   1.738   4.895   0.927  0.6587 -0.4682  0.7153
  573MOL0     N75521   1.628   4.807   0.970  0.7283  0.9660 -0.1449
  573MOL0     C75522   1.605   4.769   1.099  0.3172 -0.7901 -0.3086
  573MOL0     C75523   1.474   4.728   1.102 -0.7422  0.4792  1.0995
  573MOL0     C75524   1.390   4.683   1.217  0.6591 -0.3644 -0.0753
  573MOL0     C75525   1.341   4.535   1.208 -0.0209 -0.0428 -0.1077
  573MOL0     C75526   1.228   4.509   1.314 -0.8789  0.5212  0.3224
  573MOL0     C75527   1.244   4.359   1.350  0.7180 -0.7533  0.4620
  573MOL0     O75528   1.143   4.312   1.440 -0.1833  0.0931  0.2050
  573MOL0     C75529   1.165   4.315   1.570  0.3185  0.3602 -0.8659
  573MOL0     C75530   1.281   4.297   1.639  0.4360  0.4415  0.0007
  573MOL0     C75531   1.276   4.304   1.778 -0.4931  0.0076  0.2638
  573MOL0     C75532   1.153   4.315   1.854 -0.3175  1.7521  0.8394
  573MOL0     C75533   1.169   4.307   2.000  0.3011 -0.4062  0.3394
  573MOL0     O75534   1.293   4.277   2.053 -0.2779  0.5421  0.6655
  573MOL0     C75535   1.299   4.231   2.186 -0.0461  0.9876  1.3073
  573MOL0     C75536   1.389   4.296   2.274 -0.7208 -0.1393 -0.6496
  573MOL0     C75537   1.413   4.245   2.408  1.1129 -0.0359  0.6038
  573MOL0     C75538   1.337   4.137   2.452 -0.1968 -0.8477  0.0563
  573MOL0     O75539   1.340   4.079   2.581  0.2558 -0.8299 -0.6941
  573MOL0     C75540   1.466   4.068   2.647  0.3037  0.1684 -0.3282
  573MOL0     C75541   1.503   3.922   2.625 -0.6387 -0.6133 -0.2210
  573MOL0     C75542   1.657   3.880   2.654 -0.4113 -1.1793  0.3694
  573MOL0     C75543   1.670   3.727   2.641  0.3833  0.1977  0.1154
  573MOL0     C75544   1.808   3.661   2.675  0.7790 -0.3118 -0.3112
  573MOL0     C75545   1.883   3.742   2.789 -0.3870 -0.7718 -0.0029
  573MOL0     C75546   2.014   3.674   2.829 -0.2580 -0.1971 -0.3691
  573MOL0     C75547   1.995   3.583   2.945  1.2647 -0.1099  0.2031
  573MOL0    Cl75548   2.143   3.492   2.986  0.2759 -0.2862 -0.1948
  573MOL0     C75549   1.248   4.076   2.360 -0.0514  0.8082 -0.4651
  573MOL0     C75550   1.228   4.123   2.228 -0.0937 -0.6908  0.9167
  573MOL0     O75551   1.073   4.330   2.076 -0.5059  0.7582  0.0223
  573MOL0     C75552   1.037   4.311   1.782  0.1881  0.2483 -0.4856
  573MOL0     C75553   1.043   4.322   1.646  0.6950  0.1964  0.1151
  573MOL0     N75554   1.424   4.741   0.975  0.2797 -0.4766 -0.5823
  573MOL0     N75555   1.512   4.790   0.901  0.0327 -0.3445  0.2497
  573MOL0     C75556   2.645   5.407   1.135  0.4612 -0.1058 -0.1763
  573MOL0     C75557   2.770   5.417   1.190 -0.6623 -0.5263  0.1226
  573MOL0     C75558   3.203   5.463   1.209  0.5961  0.8584  0.9279
  573MOL0     C75559   3.297   5.539   1.143  0.0663 -0.6642 -0.1681
  573MOL0     C75560   3.414   5.584   1.207 -0.3523  0.4764 -0.1234
  573MOL0     C75561   3.448   5.553   1.344  0.1430 -0.6599  1.1371
  573MOL0     O75562   3.558   5.596   1.413 -0.3934  0.1006 -0.4461
  573MOL0     C75563   3.559   5.736   1.402  0.7009 -0.4046  0.0928
  573MOL0     C75564   3.676   5.765   1.493  0.1278 -0.0009 -1.0081
  573MOL0     C75565   3.680   5.917   1.529  0.2308 -0.7381  0.1053
  573MOL0     C75566   3.803   5.937   1.619 -1.0859 -0.9247 -0.0673
  573MOL0     C75567   3.797   6.074   1.689 -0.7367 -0.2211  0.1667
  573MOL0     C75568   3.804   6.173   1.740  0.0009  0.3825 -0.0524
  573MOL0     C75569   3.355   5.473   1.404  0.5709 -0.3083 -0.5234
  573MOL0     C75570   3.235   5.426   1.342  0.9404  1.2659  0.6610
  573MOL0     H75571   2.918   5.138   1.049  2.0448  1.9868 -0.5711
  573MOL0     H75572   2.698   5.109   0.960 -1.1553  0.6672 -0.6201
  573MOL0     H75573   2.424   5.462   0.985 -2.0027  0.5932 -1.2321
  573MOL0     H75574   2.360   5.379   1.114 -0.6345  1.1290  0.0333
  573MOL0     H75575   2.311   5.311   0.829 -0.4544  0.4541  0.3521
  573MOL0     H75576   2.203   5.437   0.912  2.6599  1.9021  0.1013
  573MOL0     H75577   2.136   5.252   1.077 -2.2434 -0.7673 -1.0928
  573MOL0     H75578   2.236   5.138   0.978 -1.6631 -1.5351 -1.6821
  573MOL0     H75579   1.999   5.316   0.877  0.5469  0.2769  0.4958
  573MOL0     H75580   2.059   5.188   0.789  1.2868  2.6814  0.7072
  573MOL0     H75581   1.924   5.154   1.061 -0.2851 -0.5796 -0.3511
  573MOL0     H75582   1.987   5.036   0.944 -0.0986  0.7948 -0.6624
  573MOL0     H75583   1.805   5.132   0.785  0.5012 -0.0835 -0.5286
  573MOL0     H75584   1.751   5.233   0.921  0.3813  1.0589 -0.9630
  573MOL0     H75585   1.690   5.053   1.054  3.9202  3.0560 -0.3614
  573MOL0     H75586   1.610   5.061   0.887 -1.7187 -1.6875  0.6812
  573MOL0     H75587   1.820   4.858   0.988  0.1244 -5.3396 -1.0320
  573MOL0     H75588   1.767   4.870   0.824 -1.3130 -3.0175  0.6470
  573MOL0     H75589   1.676   4.766   1.181 -2.0776 -1.9092  1.8678
  573MOL0     H75590   1.303   4.749   1.223  1.1293  0.9047 -4.1636
  573MOL0     H75591   1.455   4.694   1.304  1.2800  1.0514 -0.7012
  573MOL0     H75592   1.422   4.468   1.237  3.1319  3.4742 -0.0791
  573MOL0     H75593   1.304   4.505   1.109 -0.8086  2.0125 -0.5004
  573MOL0     H75594   1.249   4.570   1.403 -1.4157 -1.2673  1.7372
  573MOL0     H75595   1.128   4.521   1.272 -0.8147 -2.9365 -1.1685
  573MOL0     H75596   1.346   4.345   1.387  0.2114 -2.7476  1.2217
  573MOL0     H75597   1.232   4.294   1.262  0.6969  2.8592 -2.4528
  573MOL0     H75598   1.379   4.287   1.593 -0.6304 -2.1033 -1.9490
  573MOL0     H75599   1.368   4.326   1.832 -0.7023  3.9299 -0.6673
  573MOL0     H75600   1.448   4.375   2.228  0.7080 -0.8437 -0.0980
  573MOL0     H75601   1.490   4.307   2.452  1.1926  0.3649 -0.0750
  573MOL0     H75602   1.452   4.091   2.753 -1.7661 -2.9280  0.2081
  573MOL0     H75603   1.547   4.123   2.600  0.2075 -0.0307 -0.7300
  573MOL0     H75604   1.453   3.877   2.538 -3.0289  0.6333  0.4159
  573MOL0     H75605   1.445   3.871   2.702  2.7533 -3.7884  0.5197
  573MOL0     H75606   1.691   3.919   2.751  1.2160 -0.2206 -0.5405
  573MOL0     H75607   1.730   3.917   2.581 -1.4212 -0.2521 -0.1982
  573MOL0     H75608   1.596   3.678   2.705 -0.8945  1.6088 -0.2316
  573MOL0     H75609   1.650   3.703   2.537  0.1529 -2.3541  0.6981
  573MOL0     H75610   1.873   3.675   2.588 -0.9163 -0.9312 -1.7160
  573MOL0     H75611   1.799   3.557   2.708  1.3403 -0.0160  0.8437
  573MOL0     H75612   1.824   3.746   2.881  0.1949  3.0475  0.3993
  573MOL0     H75613   1.905   3.843   2.753  2.1653 -1.5748 -0.9529
  573MOL0     H75614   2.053   3.606   2.753 -2.4773  1.1374 -2.8680
  573MOL0     H75615   2.091   3.747   2.855  0.0731 -1.4676  2.7539
  573MOL0     H75616   1.912   3.514   2.923  1.5650 -1.2100  2.2269
  573MOL0     H75617   1.953   3.640   3.028 -0.2177 -2.8234  1.4851
  573MOL0     H75618   1.183   4.001   2.404  0.2449  0.5888 -0.3991
  573MOL0     H75619   1.163   4.064   2.163  1.2427 -1.6853  0.4309
  573MOL0     H75620   0.947   4.296   1.840  0.3403 -0.8963 -0.5114
  573MOL0     H75621   0.948   4.326   1.593  0.7187  2.4847  0.1508
  573MOL0     H75622   2.560   5.474   1.140 -0.2599 -0.9517 -0.8217
  573MOL0     H75623   2.804   5.503   1.247  1.0243 -2.9239  3.0084
  573MOL0     H75624   3.294   5.568   1.039 -0.4783 -4.4563 -1.3388
  573MOL0     H75625   3.485   5.646   1.153  0.5774  3.8995  4.4216
  573MOL0     H75626   3.463   5.773   1.439  0.3979  0.7396 -1.7448
  573MOL0     H75627   3.576   5.778   1.303 -1.0712  1.0188  0.3506
  573MOL0     H75628   3.688   5.708   1.585  5.2158  2.4462  0.2158
  573MOL0     H75629   3.768   5.731   1.444  0.2603  0.1949 -0.8968
  573MOL0     H75630   3.587   5.943   1.581  0.8131  3.0910 -0.4047
  573MOL0     H75631   3.687   5.971   1.434 -1.2473 -1.5059 -0.4677
  573MOL0     H75632   3.793   5.856   1.692  0.9786 -1.3344 -0.1987
  573MOL0     H75633   3.889   5.932   1.552 -2.2965 -0.1816 -1.7787
  573MOL0     H75634   3.816   6.254   1.809 -1.8204  0.3222  0.4038
  573MOL0     H75635   3.367   5.428   1.502  2.3159  2.2497  0.5512
  573MOL0     H75636   3.172   5.354   1.393  1.9841 -1.9944 -2.2930
  574MOL0     O75637   5.162   8.735  11.180 -0.7489  0.1248  0.3986
  574MOL0     C75638   5.075   8.704  11.252 -0.6294  0.8412  0.1325
  574MOL0     O75639   5.044   8.776  11.365 -0.4761  0.4125 -0.3269
  574MOL0     C75640   5.128   8.871  11.412  0.1153 -0.2843  1.3896
  574MOL0     C75641   5.246   8.829  11.471 -1.6192  0.8380  0.6154
  574MOL0     C75642   5.330   8.922  11.532 -0.5774 -0.6555 -0.6682
  574MOL0     C75643   5.312   9.062  11.513  0.3553 -0.1024  0.7868
  574MOL0     O75644   5.406   9.155  11.557  0.4151 -0.0741 -0.2236
  574MOL0     C75645   5.443   9.147  11.688  0.0973 -0.1274 -1.0414
  574MOL0     C75646   5.541   9.259  11.713 -0.3500  0.1261  0.5100
  574MOL0     C75647   5.473   9.393  11.695  0.3716 -0.5377 -0.1457
  574MOL0     C75648   5.584   9.490  11.677  0.5000  0.8178  0.1481
  574MOL0     C75649   5.532   9.629  11.652 -0.1116  0.2208  0.6078
  574MOL0     C75650   5.647   9.721  11.594  0.4547 -0.2947 -0.0356
  574MOL0     C75651   5.768   9.740  11.687  0.4232 -0.6709  0.0532
  574MOL0     C75652   5.808   9.892  11.682 -0.5296  0.1402 -0.5406
  574MOL0     N75653   5.866   9.939  11.561 -0.6192 -0.1588 -0.6307
  574MOL0     C75654   5.933  10.054  11.537 -0.2702 -0.7250 -0.3442
  574MOL0     C75655   5.968  10.046  11.406 -0.0011  0.5262  0.3624
  574MOL0     C75656   6.045  10.152  11.329 -0.0911 -0.2946 -0.1456
  574MOL0     C75657   5.958  10.277  11.322  0.7055  0.3500  0.1168
  574MOL0     C75658   6.016  10.384  11.232  0.3861  0.0167  0.3270
  574MOL0     C75659   6.169  10.408  11.255  0.3491 -0.3457 -0.2914
  574MOL0     O75660   6.213  10.545  11.240 -0.7529  0.1598  0.4051
  574MOL0     C75661   6.204  10.607  11.121 -0.4836 -0.1496  0.2638
  574MOL0     C75662   6.220  10.746  11.117  0.9763  0.1382  0.6227
  574MOL0     C75663   6.223  10.812  10.992 -1.2792  0.5285  0.1647
  574MOL0     C75664   6.199  10.748  10.872 -0.4489 -0.7875  0.2135
  574MOL0     C75665   6.207  10.825  10.738  1.0266  1.0298  0.2440
  574MOL0     O75666   6.173  10.752  10.623  0.7571  0.3958 -0.4863
  574MOL0     C75667   6.152  10.811  10.503 -0.4554  0.8158 -0.5197
  574MOL0     C75668   6.242  10.786  10.393  1.4757  0.4698 -0.7359
  574MOL0     C75669   6.240  10.860  10.274  0.1426 -0.2134  0.7846
  574MOL0     C75670   6.138  10.955  10.260  0.6897 -0.8372  0.2375
  574MOL0     O75671   6.114  11.042  10.155 -0.2252  0.2065  0.0238
  574MOL0     C75672   6.187  11.027  10.025 -1.2280 -0.2622  0.5288
  574MOL0     C75673   6.128  11.129   9.927  0.0158  0.3532 -0.3083
  574MOL0     C75674   6.203  11.271   9.916 -0.1242  0.5212  0.1514
  574MOL0     C75675   6.196  11.336   9.776 -0.5018 -0.0483 -0.6537
  574MOL0     C75676   6.307  11.450   9.739 -0.6255  0.1165 -0.5157
  574MOL0     C75677   6.248  11.547   9.633  0.3249 -0.1469  0.2825
  574MOL0     C75678   6.256  11.492   9.485 -0.7849  0.3376 -0.3081
  574MOL0     C75679   6.131  11.420   9.436 -0.6199 -0.5886  0.0512
  574MOL0    Cl75680   5.992  11.524   9.437  0.6216 -0.2876 -0.2287
  574MOL0     C75681   6.040  10.967  10.363  0.0956 -0.5716 -0.6938
  574MOL0     C75682   6.050  10.890  10.483  0.5032 -0.5770  0.3616
  574MOL0     O75683   6.219  10.945  10.731  0.2928  0.0259  0.1459
  574MOL0     C75684   6.190  10.602  10.877 -0.4123  0.3720  0.1942
  574MOL0     C75685   6.191  10.536  10.997  0.0580 -0.5239 -0.0354
  574MOL0     N75686   5.935   9.921  11.348 -0.6089 -0.7880 -1.1488
  574MOL0     N75687   5.876   9.870  11.446  0.6106  0.5679 -0.5184
  574MOL0     C75688   5.205   9.103  11.432 -0.3124  0.4618  0.5576
  574MOL0     C75689   5.110   9.013  11.382  0.0922  0.5969 -0.0067
  574MOL0     C75690   5.010   8.574  11.225  0.4450 -0.2753  1.0421
  574MOL0     C75691   4.950   8.490  11.316  0.9870  0.5359 -0.6856
  574MOL0     C75692   4.916   8.358  11.292  0.1289  0.2438  0.0827
  574MOL0     C75693   4.933   8.304  11.162 -0.3970 -0.5939  0.9884
  574MOL0     O75694   4.902   8.180  11.129  0.4322  0.4736  0.0593
  574MOL0     C75695   5.015   8.106  11.077  0.7355 -0.5626  0.4919
  574MOL0     C75696   5.111   8.061  11.185  0.9044  0.0687  0.5668
  574MOL0     C75697   5.209   7.959  11.133  0.6812  0.3024  0.6318
  574MOL0     C75698   5.298   7.904  11.245 -0.6393 -0.2778  0.9718
  574MOL0     C75699   5.436   7.957  11.255  0.1594 -0.2921  0.1048
  574MOL0     C75700   5.555   7.987  11.281  0.9472 -0.2208 -0.8695
  574MOL0     C75701   4.974   8.391  11.060  0.8517  0.5156 -0.1534
  574MOL0     C75702   5.014   8.523  11.089  0.1878 -0.4747 -0.2398
  574MOL0     H75703   5.265   8.723  11.484 -2.7775  0.5987  0.4599
  574MOL0     H75704   5.414   8.890  11.593  0.1751  0.4332 -1.1010
  574MOL0     H75705   5.472   9.046  11.718 -2.3215 -1.5581 -3.1613
  574MOL0     H75706   5.357   9.169  11.752  1.0909  1.4217 -0.1499
  574MOL0     H75707   5.621   9.254  11.638  1.6097  1.3436  2.4255
  574MOL0     H75708   5.574   9.249  11.817 -0.2380 -2.6796  0.2734
  574MOL0     H75709   5.411   9.421  11.780 -1.5748 -0.8170 -1.4231
  574MOL0     H75710   5.400   9.399  11.614 -1.8437 -1.4745  1.6707
  574MOL0     H75711   5.649   9.497  11.765  0.3757 -0.2577  0.3371
  574MOL0     H75712   5.650   9.463  11.595  0.4868 -1.5673  0.8465
  574MOL0     H75713   5.499   9.660  11.751  0.9570  2.1074  0.4241
  574MOL0     H75714   5.457   9.629  11.573  1.2723 -1.0494 -0.7914
  574MOL0     H75715   5.600   9.810  11.551  2.5240  1.3080  0.8637
  574MOL0     H75716   5.676   9.671  11.501  0.6996  0.3459 -0.3056
  574MOL0     H75717   5.752   9.715  11.792  3.3096  4.7985  2.1795
  574MOL0     H75718   5.850   9.681  11.645  0.5001 -1.4619  1.2747
  574MOL0     H75719   5.876   9.909  11.765  0.1584 -3.0803 -0.3166
  574MOL0     H75720   5.714   9.948  11.689  0.2474  1.6978 -1.7725
  574MOL0     H75721   5.957  10.134  11.605 -0.9802  0.3463 -1.3204
  574MOL0     H75722   6.076  10.127  11.227  1.4020 -0.7418  0.3949
  574MOL0     H75723   6.136  10.158  11.389 -0.5893 -1.0865  0.7101
  574MOL0     H75724   5.958  10.313  11.425  0.3648 -0.8260  0.5446
  574MOL0     H75725   5.855  10.255  11.292  0.6210  2.0369 -0.9186
  574MOL0     H75726   5.995  10.364  11.126  0.3201  0.5939  0.2279
  574MOL0     H75727   5.965  10.476  11.261  1.7950  1.6555 -2.0020
  574MOL0     H75728   6.226  10.346  11.186  1.5615 -1.8004  1.8875
  574MOL0     H75729   6.201  10.371  11.353 -0.6483  0.8864  0.5441
  574MOL0     H75730   6.226  10.809  11.205  1.5007  1.2275 -0.1569
  574MOL0     H75731   6.247  10.918  10.987  0.4761  0.1410 -0.4847
  574MOL0     H75732   6.323  10.717  10.414  0.2577 -1.0488 -0.9235
  574MOL0     H75733   6.311  10.833  10.197  0.9055  0.5107  1.2081
  574MOL0     H75734   6.174  10.930   9.976 -0.6198  1.1592 -2.6730
  574MOL0     H75735   6.295  11.042  10.037 -1.1396 -1.4146  1.3478
  574MOL0     H75736   6.019  11.134   9.929 -0.0173 -0.0034 -0.9223
  574MOL0     H75737   6.143  11.075   9.833  4.8705  2.9283 -1.3334
  574MOL0     H75738   6.304  11.258   9.957 -0.8996 -0.4091  1.9023
  574MOL0     H75739   6.165  11.346   9.986  0.2721  2.7424 -1.8823
  574MOL0     H75740   6.223  11.260   9.702 -2.7217 -0.7007 -0.8427
  574MOL0     H75741   6.095  11.375   9.762 -0.6396  0.4705  1.3867
  574MOL0     H75742   6.409  11.417   9.718 -0.5287 -0.8022  1.2130
  574MOL0     H75743   6.316  11.500   9.835 -2.9160 -2.4540  1.2171
  574MOL0     H75744   6.322  11.626   9.619  1.8063 -1.7841 -1.9625
  574MOL0     H75745   6.142  11.570   9.648  0.7952  0.4547  3.0918
  574MOL0     H75746   6.282  11.570   9.413  2.3289 -0.1894  0.0986
  574MOL0     H75747   6.331  11.412   9.486 -0.8376  0.0261  4.4099
  574MOL0     H75748   6.102  11.335   9.498 -4.4509  1.1739  0.9488
  574MOL0     H75749   6.155  11.393   9.332  0.6142  1.7374 -0.3407
  574MOL0     H75750   5.952  11.031  10.358 -1.8824 -2.9863  0.4704
  574MOL0     H75751   5.973  10.914  10.556  0.2679  3.3440 -0.9706
  574MOL0     H75752   6.169  10.548  10.785  0.2009  0.0788  0.2179
  574MOL0     H75753   6.190  10.428  10.997  0.2963 -0.5338 -0.5093
  574MOL0     H75754   5.191   9.210  11.419 -0.9045  0.3341  0.0567
  574MOL0     H75755   5.040   9.066  11.319  1.3756  4.0145  1.2280
  574MOL0     H75756   4.935   8.518  11.420 -1.0841  0.4362 -0.9175
  574MOL0     H75757   4.875   8.280  11.355 -2.8927 -0.4073 -2.3978
  574MOL0     H75758   5.066   8.162  10.999  2.2408 -0.3964  1.5497
  574MOL0     H75759   4.986   8.007  11.040 -0.7877  0.0491 -0.0210
  574MOL0     H75760   5.164   8.145  11.231  0.2765  0.4777  0.5499
  574MOL0     H75761   5.044   8.003  11.249 -1.6672  0.9386 -1.1842
  574MOL0     H75762   5.275   8.019  11.069 -0.4823  2.0731  0.9978
  574MOL0     H75763   5.174   7.881  11.066  1.8699  2.1830 -2.4234
  574MOL0     H75764   5.249   7.920  11.342 -0.0089  0.8480  1.1120
  574MOL0     H75765   5.322   7.802  11.216 -0.5516 -0.6250  2.1956
  574MOL0     H75766   5.651   8.032  11.297  0.2679  1.8123 -2.1274
  574MOL0     H75767   4.968   8.363  10.955 -0.5710 -1.5538  0.4196
  574MOL0     H75768   5.058   8.583  11.009  0.1082 -1.0404 -0.7153
  575MOL0     O75769   8.219   3.787   1.987  0.4890 -0.2213 -0.0318
  575MOL0     C75770   8.329   3.803   1.929 -0.5470 -1.2335  0.1554
  575MOL0     O75771   8.351   3.866   1.801 -0.1400  0.2073 -0.2478
  575MOL0     C75772   8.242   3.892   1.721  0.2748 -0.4169  0.3678
  575MOL0     C75773   8.185   3.790   1.656  0.4136 -0.0473  1.3401
  575MOL0     C75774   8.082   3.805   1.553  0.5318 -0.5644 -0.0722
  575MOL0     C75775   8.036   3.934   1.517 -1.1181 -0.4668  0.1197
  575MOL0     O75776   7.940   3.963   1.419  0.3046  0.1951 -0.0103
  575MOL0     C75777   7.875   3.852   1.369 -0.1694  0.2875  0.5066
  575MOL0     C75778   7.760   3.892   1.261  0.3096 -0.0567 -0.1555
  575MOL0     C75779   7.658   3.996   1.317 -0.4130  0.1262 -0.4370
  575MOL0     C75780   7.559   3.947   1.438 -0.3797  0.2802  0.2594
  575MOL0     C75781   7.457   4.054   1.456  0.6455 -0.0249 -0.2828
  575MOL0     C75782   7.335   4.001   1.537  0.0804 -0.2449  1.3288
  575MOL0     C75783   7.382   3.915   1.661 -0.1482 -0.0891  0.7575
  575MOL0     C75784   7.267   3.824   1.704 -0.3831 -0.2474  0.0914
  575MOL0     N75785   7.312   3.772   1.832 -0.1650 -0.2055 -0.7064
  575MOL0     C75786   7.307   3.827   1.956  0.1595 -0.2849 -1.1151
  575MOL0     C75787   7.310   3.726   2.040  0.1607  0.6934  0.5813
  575MOL0     C75788   7.302   3.740   2.190  0.5661 -0.3504  0.3241
  575MOL0     C75789   7.424   3.692   2.274  0.4199 -0.3476  0.8578
  575MOL0     C75790   7.563   3.742   2.220 -1.1554 -0.0339 -0.2972
  575MOL0     C75791   7.684   3.681   2.304 -0.5812 -0.1282  0.0552
  575MOL0     O75792   7.686   3.716   2.445 -0.5953 -0.4180  0.5042
  575MOL0     C75793   7.742   3.632   2.539  0.0176  0.5434 -0.2780
  575MOL0     C75794   7.817   3.514   2.504 -0.1579 -0.1544  0.5584
  575MOL0     C75795   7.886   3.435   2.599  0.3941  0.7877 -0.6455
  575MOL0     C75796   7.884   3.474   2.737 -0.4810 -0.0855  0.2181
  575MOL0     C75797   7.962   3.388   2.833 -0.3382  0.2122 -0.1325
  575MOL0     O75798   7.952   3.415   2.968  0.3126 -0.2793 -0.0625
  575MOL0     C75799   8.012   3.331   3.058  0.2022 -0.6917 -0.6463
  575MOL0     C75800   7.989   3.194   3.067  0.2024  0.4492  0.2675
  575MOL0     C75801   8.048   3.127   3.175 -0.5648  0.0727 -0.1559
  575MOL0     C75802   8.117   3.195   3.278  0.9663  0.9418 -0.3678
  575MOL0     O75803   8.153   3.134   3.397 -0.1370 -0.4707 -0.0229
  575MOL0     C75804   8.179   2.996   3.413  0.2057 -0.6898  0.2327
  575MOL0     C75805   8.319   3.001   3.476 -0.4222 -0.9442 -0.0439
  575MOL0     C75806   8.426   3.024   3.372 -0.8618 -0.0582 -0.4853
  575MOL0     C75807   8.565   3.035   3.436  0.2087 -0.0768 -0.6138
  575MOL0     C75808   8.673   3.084   3.331  0.3818  0.2106 -0.0981
  575MOL0     C75809   8.817   3.097   3.379 -0.1556 -1.2060  0.7774
  575MOL0     C75810   8.819   3.240   3.444  0.7045  0.5322  0.3968
  575MOL0     C75811   8.947   3.298   3.467  0.1510 -0.7024 -0.1961
  575MOL0    Cl75812   9.016   3.358   3.319 -0.2137 -0.2317  0.1926
  575MOL0     C75813   8.146   3.323   3.260  0.2078 -0.0106 -0.2025
  575MOL0     C75814   8.097   3.392   3.153  0.5905 -0.4093 -0.6202
  575MOL0     O75815   8.047   3.306   2.785  0.7268 -1.1462 -1.0531
  575MOL0     C75816   7.812   3.589   2.772  1.7842  0.2886  0.4055
  575MOL0     C75817   7.747   3.667   2.675  0.1153  0.5744  0.5527
  575MOL0     N75818   7.315   3.605   1.968  0.0649 -0.5245 -0.3437
  575MOL0     N75819   7.312   3.639   1.846 -0.0934 -0.2744  0.3798
  575MOL0     C75820   8.086   4.041   1.594 -0.4090 -0.2612 -0.3514
  575MOL0     C75821   8.188   4.020   1.686 -0.4904 -0.1875  0.2650
  575MOL0     C75822   8.444   3.739   1.998  0.6542  0.4791 -0.2867
  575MOL0     C75823   8.416   3.642   2.093 -0.5932  1.0468 -0.2253
  575MOL0     C75824   8.530   3.583   2.158 -0.7849 -0.7193 -0.4011
  575MOL0     C75825   8.660   3.624   2.129  0.0999 -1.2107 -0.6094
  575MOL0     O75826   8.752   3.570   2.210 -0.0718  0.6346 -0.3736
  575MOL0     C75827   8.877   3.534   2.140 -0.8621  0.3520  0.3962
  575MOL0     C75828   8.850   3.403   2.073  1.0205  0.6521 -0.6555
  575MOL0     C75829   8.917   3.363   1.940  0.5807  0.2539 -0.5719
  575MOL0     C75830   8.923   3.209   1.931 -0.2436 -0.4238 -1.2046
  575MOL0     C75831   8.965   3.166   1.799 -0.2013 -0.2832  0.5901
  575MOL0     C75832   8.992   3.145   1.677  0.3649 -0.6804 -0.3564
  575MOL0     C75833   8.684   3.722   2.034 -0.6225 -0.0826 -0.2971
  575MOL0     C75834   8.575   3.781   1.963  0.0983  0.2321  0.0526
  575MOL0     H75835   8.235   3.693   1.662  2.9097  0.9559 -0.9369
  575MOL0     H75836   8.041   3.715   1.510  0.8780 -1.3420  1.1665
  575MOL0     H75837   7.823   3.805   1.453  0.4031  0.6103  1.0476
  575MOL0     H75838   7.940   3.781   1.318 -1.2670 -0.0653 -0.4508
  575MOL0     H75839   7.700   3.803   1.240 -1.8161  0.2840  3.5344
  575MOL0     H75840   7.804   3.933   1.170  2.3639  0.6759  1.1073
  575MOL0     H75841   7.592   4.025   1.235 -5.7655  1.4482  3.7988
  575MOL0     H75842   7.711   4.084   1.353 -0.3896 -0.5850  1.3658
  575MOL0     H75843   7.502   3.856   1.415 -1.2332  0.4102  1.7239
  575MOL0     H75844   7.623   3.918   1.521  0.9633  0.3607 -0.7212
  575MOL0     H75845   7.429   4.085   1.355 -0.0874  3.3038  0.8217
  575MOL0     H75846   7.506   4.140   1.501  0.0846  0.4659 -0.5963
  575MOL0     H75847   7.280   3.930   1.474 -0.7731 -0.5224  2.3457
  575MOL0     H75848   7.254   4.071   1.562  1.3717  1.1038  1.9009
  575MOL0     H75849   7.466   3.847   1.647  0.9814  0.9263  2.2430
  575MOL0     H75850   7.417   3.984   1.739  3.9572 -1.5238  0.4413
  575MOL0     H75851   7.253   3.755   1.620 -0.4334  1.4551 -1.3674
  575MOL0     H75852   7.171   3.874   1.719 -0.1685  0.2674 -0.1945
  575MOL0     H75853   7.282   3.928   1.988 -0.1515 -1.2716  2.0799
  575MOL0     H75854   7.208   3.697   2.226 -1.2431  1.4987 -1.8440
  575MOL0     H75855   7.288   3.846   2.216 -1.2934 -0.4821 -0.0067
  575MOL0     H75856   7.419   3.583   2.265 -1.5693 -0.2724  0.5639
  575MOL0     H75857   7.419   3.728   2.377  0.2048 -2.4297  1.6296
  575MOL0     H75858   7.566   3.712   2.115 -2.9192  1.1431 -0.7415
  575MOL0     H75859   7.571   3.850   2.237  1.4771 -0.6238  3.1982
  575MOL0     H75860   7.771   3.729   2.256 -1.8545  2.3796  0.0710
  575MOL0     H75861   7.681   3.573   2.295 -0.5726 -0.2517  1.3343
  575MOL0     H75862   7.821   3.483   2.401 -1.8182 -2.9228  1.2359
  575MOL0     H75863   7.933   3.350   2.551  0.5961  0.4170  0.1835
  575MOL0     H75864   7.925   3.134   3.003 -2.9092 -0.7973  4.0921
  575MOL0     H75865   8.038   3.020   3.182 -0.1085  0.0411  0.0288
  575MOL0     H75866   8.188   2.936   3.321  3.5798 -1.6463  1.0245
  575MOL0     H75867   8.107   2.956   3.485 -0.2692 -2.1127 -0.9565
  575MOL0     H75868   8.339   2.903   3.521  1.2779 -1.2309 -1.3467
  575MOL0     H75869   8.334   3.078   3.552 -0.5814  0.4220 -1.3535
  575MOL0     H75870   8.408   3.118   3.320  0.0993  3.3355  4.5191
  575MOL0     H75871   8.422   2.947   3.294  0.0885 -0.3607 -0.2575
  575MOL0     H75872   8.565   3.108   3.517 -2.5017 -0.2283 -0.3978
  575MOL0     H75873   8.606   2.942   3.476  3.4596  2.1221  1.6846
  575MOL0     H75874   8.635   3.170   3.276 -0.7752 -1.8309 -2.7551
  575MOL0     H75875   8.673   3.003   3.257 -0.4374 -0.5761  0.7292
  575MOL0     H75876   8.888   3.113   3.297  0.8386  3.1975  2.2013
  575MOL0     H75877   8.850   3.016   3.444  1.9940 -1.9988 -1.1619
  575MOL0     H75878   8.761   3.312   3.385 -0.3821 -1.4456 -1.0579
  575MOL0     H75879   8.765   3.235   3.539 -1.0943 -0.2388 -0.6099
  575MOL0     H75880   9.005   3.217   3.512  1.1197 -0.9305 -1.7744
  575MOL0     H75881   8.950   3.387   3.531 -0.6295 -1.4060  0.8510
  575MOL0     H75882   8.192   3.389   3.333 -0.3857  0.5283 -0.3111
  575MOL0     H75883   8.126   3.496   3.142 -1.3136  0.4222  1.4979
  575MOL0     H75884   7.797   3.616   2.876  4.3113  1.7978  0.4578
  575MOL0     H75885   7.687   3.755   2.697  1.1723  1.1545  1.1686
  575MOL0     H75886   8.047   4.141   1.580 -1.9960 -0.8270 -0.1892
  575MOL0     H75887   8.230   4.107   1.735  0.8710 -0.9252  0.4579
  575MOL0     H75888   8.315   3.605   2.106  0.5467 -2.1430  0.3461
  575MOL0     H75889   8.509   3.512   2.237 -2.4786  1.6439  1.4162
  575MOL0     H75890   8.951   3.534   2.219 -1.3149  1.4325  0.8418
  575MOL0     H75891   8.915   3.604   2.065  0.6007  0.7865  1.5118
  575MOL0     H75892   8.863   3.333   2.156  0.6107  1.9265  0.5038
  575MOL0     H75893   8.746   3.400   2.041  2.1183  1.9295 -4.9898
  575MOL0     H75894   9.022   3.395   1.940  0.8639 -0.5886 -2.0309
  575MOL0     H75895   8.863   3.413   1.860 -1.7743 -1.8417 -0.4253
  575MOL0     H75896   8.993   3.165   2.001 -0.7938  0.3405 -0.1523
  575MOL0     H75897   8.826   3.162   1.953 -0.9610  0.0309 -3.1155
  575MOL0     H75898   9.005   3.143   1.571 -0.6832 -2.4720 -0.5010
  575MOL0     H75899   8.783   3.763   2.018 -0.6500  0.4131  0.7193
  575MOL0     H75900   8.591   3.869   1.903 -1.0967  0.9101  0.6893
  576MOL0     O75901   8.381   5.398   9.645 -1.3670  0.5135  0.0171
  576MOL0     C75902   8.395   5.522   9.648 -0.1169 -0.6835  1.2472
  576MOL0     O75903   8.403   5.599   9.753  1.0744  0.0777 -0.1682
  576MOL0     C75904   8.420   5.565   9.885 -0.3887 -0.5378 -0.1225
  576MOL0     C75905   8.442   5.446   9.947 -0.3160  0.2778 -0.7491
  576MOL0     C75906   8.478   5.429  10.071  1.7551  0.5656  0.2188
  576MOL0     C75907   8.498   5.541  10.153 -0.3565  0.6045 -0.4411
  576MOL0     O75908   8.537   5.543  10.282  0.5572  0.0538 -0.2394
  576MOL0     C75909   8.624   5.446  10.331 -0.3694  0.5989 -0.2160
  576MOL0     C75910   8.657   5.472  10.480  0.6629  0.6605  0.6639
  576MOL0     C75911   8.783   5.384  10.524 -0.0021  0.7116  0.2709
  576MOL0     C75912   8.738   5.246  10.561 -0.8499 -0.4818  0.3319
  576MOL0     C75913   8.859   5.155  10.597 -0.0971  0.6792 -1.1644
  576MOL0     C75914   8.823   5.008  10.632  0.9413  0.9597  0.3513
  576MOL0     C75915   8.765   4.979  10.776  0.8326  0.5413 -0.4907
  576MOL0     C75916   8.777   4.829  10.832 -0.1838 -0.4715 -0.1024
  576MOL0     N75917   8.911   4.776  10.805  0.5331 -0.6470  0.9335
  576MOL0     C75918   9.033   4.826  10.852 -0.2399 -0.1117 -0.5590
  576MOL0     C75919   9.126   4.782  10.761  0.1001 -0.7486 -0.1412
  576MOL0     C75920   9.274   4.831  10.774  0.6211  0.9719  0.2506
  576MOL0     C75921   9.302   4.971  10.724 -0.1341 -0.3005  0.7467
  576MOL0     C75922   9.303   4.959  10.569 -1.1635  0.1625 -0.5948
  576MOL0     C75923   9.377   5.081  10.505  0.2820 -0.1536  0.4489
  576MOL0     O75924   9.387   5.060  10.364  0.5399  0.1809 -0.4070
  576MOL0     C75925   9.449   5.164  10.292  0.8504 -1.0893 -0.9352
  576MOL0     C75926   9.411   5.172  10.161 -0.5989  0.3626  0.0517
  576MOL0     C75927   9.462   5.275  10.074 -0.3924  0.5029  0.6568
  576MOL0     C75928   9.559   5.366  10.128 -0.9028  0.1201 -0.7915
  576MOL0     C75929   9.628   5.466  10.037 -0.4209 -0.0147  0.8746
  576MOL0     O75930   9.647   5.419   9.907 -0.3133 -0.4488  0.3812
  576MOL0     C75931   9.681   5.504   9.802  0.4121  0.8786 -0.2222
  576MOL0     C75932   9.625   5.627   9.786 -0.4446  0.4387 -0.2944
  576MOL0     C75933   9.666   5.704   9.680 -0.2924 -0.7691 -0.7320
  576MOL0     C75934   9.776   5.657   9.596 -0.5830 -0.8081 -0.7069
  576MOL0     O75935   9.817   5.736   9.493  0.5341  0.3635  0.1290
  576MOL0     C75936   9.762   5.694   9.369  0.2913  0.2804  0.5320
  576MOL0     C75937   9.643   5.784   9.352  0.0000 -0.3497  0.4230
  576MOL0     C75938   9.540   5.710   9.272 -0.3627 -0.4295  0.2081
  576MOL0     C75939   9.437   5.798   9.211  0.3153 -0.2889 -0.2582
  576MOL0     C75940   9.332   5.723   9.122 -0.4398 -0.4685 -0.1719
  576MOL0     C75941   9.230   5.815   9.053  0.7216  0.8973  0.7986
  576MOL0     C75942   9.126   5.752   8.959 -0.9356  0.1284  0.7013
  576MOL0     C75943   9.019   5.847   8.921 -0.8142  0.0378 -0.0627
  576MOL0    Cl75944   9.084   6.007   8.861 -0.2447 -0.3416  0.1514
  576MOL0     C75945   9.826   5.527   9.619 -0.7066 -0.0828  1.1182
  576MOL0     C75946   9.778   5.452   9.719  0.6012 -0.1308  0.0748
  576MOL0     O75947   9.667   5.571  10.087 -0.1895  0.1433  0.7601
  576MOL0     C75948   9.601   5.356  10.258  0.0240  0.5439  1.0716
  576MOL0     C75949   9.548   5.252  10.338  0.7934 -0.3978 -0.0880
  576MOL0     N75950   9.077   4.694  10.676 -0.2891 -0.0075 -1.0433
  576MOL0     N75951   8.944   4.687  10.707 -0.8395 -0.1275 -0.4878
  576MOL0     C75952   8.465   5.672  10.115 -0.0206 -0.7360  0.4762
  576MOL0     C75953   8.428   5.687   9.976  0.1215  0.0535 -0.9003
  576MOL0     C75954   8.368   5.582   9.513  0.0316  0.7655 -0.1171
  576MOL0     C75955   8.326   5.712   9.491 -0.1379  0.0147 -0.0406
  576MOL0     C75956   8.322   5.772   9.364 -0.5467 -0.8482 -0.2084
  576MOL0     C75957   8.343   5.701   9.248 -0.3384  0.8241 -0.5171
  576MOL0     O75958   8.331   5.736   9.121  0.0119 -0.0697 -0.0833
  576MOL0     C75959   8.306   5.872   9.078 -0.2170  0.4602 -0.3370
  576MOL0     C75960   8.326   5.867   8.921  0.0500 -1.8922 -0.0192
  576MOL0     C75961   8.452   5.789   8.885  0.0982  0.2486  0.0764
  576MOL0     C75962   8.448   5.641   8.868 -0.1869  0.2943  0.6316
  576MOL0     C75963   8.358   5.607   8.754  0.3859  0.0736  0.1814
  576MOL0     C75964   8.291   5.590   8.653  0.2727  0.7951 -0.9159
  576MOL0     C75965   8.396   5.568   9.275  0.7345  0.4749  0.1363
  576MOL0     C75966   8.402   5.508   9.397  0.7080 -0.0256  0.3037
  576MOL0     H75967   8.442   5.353   9.891 -2.7896 -0.0262 -0.3771
  576MOL0     H75968   8.505   5.327  10.095 -2.4079 -0.0796  3.2265
  576MOL0     H75969   8.709   5.451  10.263 -1.2216 -1.0502 -1.4710
  576MOL0     H75970   8.593   5.342  10.316  3.7070 -0.7509 -0.3216
  576MOL0     H75971   8.570   5.461  10.545 -0.4423 -2.8676 -1.1697
  576MOL0     H75972   8.700   5.573  10.482  1.2979  0.8936 -5.5422
  576MOL0     H75973   8.834   5.425  10.612 -0.7394  0.0375  1.0263
  576MOL0     H75974   8.851   5.388  10.438  1.2155  1.8729  1.2270
  576MOL0     H75975   8.670   5.251  10.646 -0.7938 -1.9263  0.4971
  576MOL0     H75976   8.688   5.210  10.471  2.3014 -1.8672 -1.0160
  576MOL0     H75977   8.915   5.200  10.680 -1.4255 -0.2419  0.3077
  576MOL0     H75978   8.929   5.159  10.513  1.6090  1.1073  0.2126
  576MOL0     H75979   8.910   4.943  10.616 -1.4073 -1.7389 -3.0141
  576MOL0     H75980   8.746   4.981  10.559  1.1321  2.3536 -0.4179
  576MOL0     H75981   8.812   5.043  10.852  0.7996 -3.4881  3.2960
  576MOL0     H75982   8.660   5.007  10.785  0.6995 -0.6481  3.4185
  576MOL0     H75983   8.701   4.757  10.799  1.0918 -1.5717 -0.7272
  576MOL0     H75984   8.771   4.834  10.941  0.1267  1.3262 -0.1393
  576MOL0     H75985   9.038   4.891  10.939 -1.1890  0.8798 -1.2174
  576MOL0     H75986   9.332   4.760  10.715 -1.5334 -0.6469 -0.0510
  576MOL0     H75987   9.302   4.819  10.879 -1.0223  1.4868  0.7800
  576MOL0     H75988   9.402   4.997  10.758  0.4484  0.6617 -1.5211
  576MOL0     H75989   9.228   5.043  10.758  0.3393 -1.1410  3.7812
  576MOL0     H75990   9.349   4.867  10.532 -2.8419 -0.3551 -1.5255
  576MOL0     H75991   9.197   4.941  10.548 -1.4679 -0.7222  1.4699
  576MOL0     H75992   9.475   5.094  10.551  1.1998  0.0193 -1.4678
  576MOL0     H75993   9.325   5.173  10.534 -0.0636 -0.5000  0.9564
  576MOL0     H75994   9.329   5.108  10.134  0.2609  0.2730 -2.5739
  576MOL0     H75995   9.424   5.290   9.974  1.3494 -0.2664 -0.1733
  576MOL0     H75996   9.557   5.671   9.857 -0.4184 -3.0371  2.1073
  576MOL0     H75997   9.635   5.807   9.669 -0.1606 -0.6201  0.2041
  576MOL0     H75998   9.738   5.588   9.363  0.4606  0.3126 -1.5405
  576MOL0     H75999   9.830   5.720   9.287  0.5675  0.7166  0.8925
  576MOL0     H76000   9.670   5.882   9.313  3.9398 -1.6019 -0.4100
  576MOL0     H76001   9.605   5.813   9.451  1.6932 -0.4696  1.1314
  576MOL0     H76002   9.493   5.628   9.327  2.6869 -2.0680  0.5940
  576MOL0     H76003   9.593   5.664   9.188  1.4664  1.1117  0.4601
  576MOL0     H76004   9.378   5.851   9.286  0.9794 -1.4117  1.1224
  576MOL0     H76005   9.484   5.874   9.149 -0.6797  0.5260 -0.0280
  576MOL0     H76006   9.288   5.638   9.176  2.3200 -1.9919 -0.1184
  576MOL0     H76007   9.395   5.678   9.045  3.3060  1.7273  1.3703
  576MOL0     H76008   9.287   5.888   8.995  4.8282 -2.4897  0.0081
  576MOL0     H76009   9.177   5.842   9.145  1.2628 -2.2586  2.1653
  576MOL0     H76010   9.176   5.705   8.874 -2.8545 -0.6467 -0.0570
  576MOL0     H76011   9.071   5.674   9.013  0.3212 -1.5563 -0.3371
  576MOL0     H76012   8.937   5.863   8.992 -1.8787 -0.2729 -1.1800
  576MOL0     H76013   8.961   5.806   8.838 -0.9803  0.7312 -0.3018
  576MOL0     H76014   9.898   5.498   9.544 -0.3932 -2.0479  2.1186
  576MOL0     H76015   9.805   5.346   9.723  2.7890  0.4154  1.9261
  576MOL0     H76016   9.684   5.415  10.295  1.8255 -1.1869 -0.0480
  576MOL0     H76017   9.597   5.241  10.434  0.5811 -1.2520 -0.0669
  576MOL0     H76018   8.467   5.755  10.186 -0.4762 -1.2465  1.1031
  576MOL0     H76019   8.404   5.783   9.932 -0.4782  0.7675  0.8803
  576MOL0     H76020   8.305   5.762   9.586  2.0437 -1.8978  1.5694
  576MOL0     H76021   8.270   5.867   9.357 -1.0071 -1.1120 -0.3715
  576MOL0     H76022   8.385   5.927   9.130  1.1447 -1.6086 -0.0865
  576MOL0     H76023   8.204   5.902   9.105  0.0007 -0.9790  2.4336
  576MOL0     H76024   8.245   5.822   8.862  1.7532 -1.0201 -3.2867
  576MOL0     H76025   8.313   5.970   8.886 -1.0773 -1.4736  1.5132
  576MOL0     H76026   8.536   5.802   8.954  3.5009 -0.6926 -3.4647
  576MOL0     H76027   8.486   5.842   8.795 -2.3865  1.3568 -0.2859
  576MOL0     H76028   8.550   5.617   8.840 -0.9071  0.2376 -2.2449
  576MOL0     H76029   8.413   5.583   8.954 -0.8284 -3.1980 -1.7401
  576MOL0     H76030   8.236   5.564   8.564 -0.9966 -1.7302  0.5021
  576MOL0     H76031   8.437   5.516   9.189 -1.3449 -0.9864 -0.0455
  576MOL0     H76032   8.451   5.412   9.410 -1.0535 -1.1710 -0.9828
  577MOL0     O76033   9.153   1.020   5.877  0.9700 -0.6345  0.7721
  577MOL0     C76034   9.158   0.921   5.796 -0.8578 -0.3486  0.7031
  577MOL0     O76035   9.156   0.792   5.827 -0.4670 -0.1634 -0.4596
  577MOL0     C76036   9.115   0.777   5.957 -0.8379  0.9626 -0.0696
  577MOL0     C76037   8.983   0.792   5.992 -0.2380  1.2500  0.4133
  577MOL0     C76038   8.923   0.768   6.117 -0.4035 -0.5219 -0.0224
  577MOL0     C76039   9.010   0.718   6.210 -0.3781 -0.1492 -0.4615
  577MOL0     O76040   8.948   0.670   6.323  0.1884 -0.1822 -0.4441
  577MOL0     C76041   9.010   0.703   6.443 -0.6874 -0.4373 -0.0715
  577MOL0     C76042   9.015   0.850   6.486  0.3457  0.5021 -0.2800
  577MOL0     C76043   9.152   0.923   6.468  0.1435 -0.4301  0.0856
  577MOL0     C76044   9.133   1.080   6.477 -0.0508  0.0598 -0.1300
  577MOL0     C76045   9.264   1.163   6.475  0.4893 -0.4576 -0.4184
  577MOL0     C76046   9.333   1.110   6.341  0.9462  0.2431 -0.4748
  577MOL0     C76047   9.426   1.209   6.272  0.2988 -0.1755 -0.1377
  577MOL0     C76048   9.469   1.150   6.141 -0.4775 -0.0397 -0.5278
  577MOL0     N76049   9.543   1.025   6.158  0.2207  0.2636 -0.5342
  577MOL0     C76050   9.653   1.022   6.246 -0.9322 -0.5730  0.6668
  577MOL0     C76051   9.681   0.893   6.249 -0.5242 -0.6480 -0.1064
  577MOL0     C76052   9.769   0.832   6.355 -1.2128  0.1041 -0.4273
  577MOL0     C76053   9.899   0.800   6.278 -0.4339 -0.1051 -0.3886
  577MOL0     C76054  10.007   0.740   6.368 -0.0316  0.5326  0.0873
  577MOL0     C76055  10.075   0.820   6.483  0.0353 -0.4043  0.4721
  577MOL0     O76056  10.095   0.951   6.429 -0.5223 -0.6287  0.2376
  577MOL0     C76057  10.187   1.028   6.491  0.8256  0.3420 -0.1271
  577MOL0     C76058  10.247   1.006   6.617  0.0768 -0.7759 -0.5302
  577MOL0     C76059  10.352   1.082   6.671  0.9237 -0.9922 -0.0833
  577MOL0     C76060  10.398   1.191   6.597  0.6940 -0.5816 -0.9925
  577MOL0     C76061  10.493   1.292   6.661  0.1014  0.5756  0.5930
  577MOL0     O76062  10.571   1.256   6.761  0.0335  0.1590 -0.0048
  577MOL0     C76063  10.649   1.354   6.827  0.1952  0.0136 -0.1059
  577MOL0     C76064  10.779   1.316   6.852  0.3123 -0.0570 -0.1443
  577MOL0     C76065  10.869   1.399   6.919  1.3594  0.3552  0.1893
  577MOL0     C76066  10.831   1.539   6.947  0.2509 -0.3334 -0.6287
  577MOL0     O76067  10.937   1.610   7.006  0.2028  0.0190 -0.4179
  577MOL0     C76068  10.921   1.753   7.024  1.1431  0.4452 -0.5260
  577MOL0     C76069  11.059   1.820   7.042 -0.4432 -0.2573 -0.2714
  577MOL0     C76070  11.129   1.838   6.908 -1.3993  0.2452 -0.5500
  577MOL0     C76071  11.274   1.890   6.933 -0.5861 -0.2980  0.1495
  577MOL0     C76072  11.380   1.851   6.826  0.6126  0.3489 -0.1013
  577MOL0     C76073  11.492   1.959   6.804  0.3089  0.5403 -0.7835
  577MOL0     C76074  11.595   1.924   6.691  0.5609 -0.2802  0.5209
  577MOL0     C76075  11.728   1.999   6.691  0.0321  0.5794 -0.8125
  577MOL0    Cl76076  11.855   1.907   6.610  0.1976  0.1731  0.5239
  577MOL0     C76077  10.694   1.582   6.914  0.1632 -0.3937 -0.4353
  577MOL0     C76078  10.605   1.480   6.861 -0.2228  0.6133 -0.7542
  577MOL0     O76079  10.473   1.406   6.620  0.0517  0.0911  0.1277
  577MOL0     C76080  10.357   1.205   6.465  0.0050 -0.2247 -0.0733
  577MOL0     C76081  10.253   1.126   6.409 -0.1535 -0.2379 -0.3163
  577MOL0     N76082   9.597   0.821   6.169  0.0146 -0.1601 -0.4481
  577MOL0     N76083   9.520   0.898   6.111  0.4399 -0.5431 -0.7392
  577MOL0     C76084   9.150   0.710   6.187  0.1835  0.6017 -0.6164
  577MOL0     C76085   9.200   0.740   6.062 -0.3014  0.0251  0.1924
  577MOL0     C76086   9.210   0.948   5.656  1.3129 -0.0457 -0.7904
  577MOL0     C76087   9.229   0.835   5.569  0.2592 -0.7187  0.1668
  577MOL0     C76088   9.296   0.852   5.443  0.3468  0.1158  1.1097
  577MOL0     C76089   9.330   0.980   5.395  0.3032 -0.2867  0.3311
  577MOL0     O76090   9.367   1.019   5.269  0.6700 -0.2622 -0.4318
  577MOL0     C76091   9.394   0.931   5.165  0.6017  0.6977  0.1869
  577MOL0     C76092   9.525   0.871   5.198  0.2033 -1.1299  0.0800
  577MOL0     C76093   9.576   0.783   5.082  0.3053 -0.8208 -0.7660
  577MOL0     C76094   9.601   0.645   5.123 -0.2780 -0.4915  0.0690
  577MOL0     C76095   9.714   0.645   5.217  0.2741  0.3070 -0.3974
  577MOL0     C76096   9.789   0.628   5.309  0.4008  0.2792  0.3410
  577MOL0     C76097   9.304   1.089   5.481  0.0551 -0.4606  0.9436
  577MOL0     C76098   9.247   1.067   5.607  0.6679 -0.8161 -0.5486
  577MOL0     H76099   8.918   0.819   5.909  1.4135 -0.2339 -1.4567
  577MOL0     H76100   8.823   0.792   6.149  1.2195  3.8005  2.6398
  577MOL0     H76101   9.112   0.662   6.446 -0.4531  0.0290 -1.1550
  577MOL0     H76102   8.951   0.647   6.516 -0.3686  0.7552  1.1427
  577MOL0     H76103   8.974   0.849   6.588 -1.2044  3.7274 -0.7583
  577MOL0     H76104   8.946   0.907   6.424  1.2872  0.8379 -1.0424
  577MOL0     H76105   9.198   0.888   6.375 -0.3723 -2.3592  0.5339
  577MOL0     H76106   9.212   0.886   6.552 -0.2464  0.2408  0.6701
  577MOL0     H76107   9.084   1.108   6.383  0.6186  0.3838 -0.3921
  577MOL0     H76108   9.062   1.112   6.553 -0.8568 -1.5626 -0.1501
  577MOL0     H76109   9.314   1.143   6.569  0.4904  1.3879  0.0012
  577MOL0     H76110   9.243   1.270   6.477  2.2494 -0.0925  2.0224
  577MOL0     H76111   9.252   1.082   6.275 -2.6250 -0.4492  3.7232
  577MOL0     H76112   9.386   1.019   6.372  4.0986  1.2920 -2.3443
  577MOL0     H76113   9.369   1.299   6.250 -1.1818 -1.4066 -1.6169
  577MOL0     H76114   9.517   1.226   6.331  1.2339  2.1405 -2.0921
  577MOL0     H76115   9.529   1.228   6.093 -4.4332  3.1110 -0.9142
  577MOL0     H76116   9.378   1.137   6.081 -1.6803 -0.7990  1.3424
  577MOL0     H76117   9.700   1.105   6.299 -0.6395 -2.5620  3.7497
  577MOL0     H76118   9.724   0.743   6.401 -0.5308 -0.7868 -1.4116
  577MOL0     H76119   9.782   0.895   6.443 -0.2335 -4.8937  3.4682
  577MOL0     H76120   9.938   0.891   6.231  2.7310 -1.0134  0.1866
  577MOL0     H76121   9.880   0.719   6.208  1.5356  0.0161 -1.1526
  577MOL0     H76122   9.981   0.641   6.407  2.3080 -0.1191  0.1592
  577MOL0     H76123  10.086   0.724   6.295 -1.8586 -1.2672 -1.6050
  577MOL0     H76124  10.167   0.770   6.515  1.0753  1.1634  0.1108
  577MOL0     H76125   9.998   0.837   6.559 -0.5367 -1.3140  0.1109
  577MOL0     H76126  10.207   0.937   6.691  0.0328 -1.1639 -0.9128
  577MOL0     H76127  10.381   1.074   6.775 -0.8533 -2.3038  0.3592
  577MOL0     H76128  10.827   1.222   6.827  0.4572 -0.6863  2.3371
  577MOL0     H76129  10.967   1.354   6.924  1.0438 -0.2116  3.2726
  577MOL0     H76130  10.851   1.776   7.105  0.3308 -1.9431 -0.4842
  577MOL0     H76131  10.880   1.788   6.929 -0.6603 -0.2010 -0.0254
  577MOL0     H76132  11.114   1.754   7.108  1.1133  0.2724 -0.9825
  577MOL0     H76133  11.058   1.918   7.090  2.7544 -1.6505  3.0624
  577MOL0     H76134  11.071   1.914   6.856 -1.2131  0.5873 -0.2662
  577MOL0     H76135  11.146   1.744   6.854  2.5839 -0.8188  2.0578
  577MOL0     H76136  11.269   1.999   6.933  0.3969 -0.2486 -0.0914
  577MOL0     H76137  11.298   1.847   7.031 -0.3057 -3.4664 -1.1903
  577MOL0     H76138  11.321   1.818   6.740 -0.3864 -1.1992  1.1338
  577MOL0     H76139  11.425   1.757   6.859  0.2916  0.7421  1.5373
  577MOL0     H76140  11.558   1.963   6.891 -0.4260  2.5984 -0.2649
  577MOL0     H76141  11.447   2.058   6.793 -0.1210  0.1597 -2.8262
  577MOL0     H76142  11.609   1.815   6.698  0.3086 -0.3006  0.6811
  577MOL0     H76143  11.537   1.942   6.600  0.6586 -0.4105  0.4316
  577MOL0     H76144  11.763   2.015   6.793  2.6528 -0.4645 -1.4648
  577MOL0     H76145  11.707   2.095   6.644  0.2748  0.5897 -0.9007
  577MOL0     H76146  10.663   1.685   6.911  1.2888  0.1197  2.5412
  577MOL0     H76147  10.498   1.493   6.848 -0.4914 -0.0231  0.6508
  577MOL0     H76148  10.391   1.286   6.401  1.1887 -2.6033 -2.6481
  577MOL0     H76149  10.213   1.148   6.310  1.8013 -0.7328 -1.2650
  577MOL0     H76150   9.223   0.688   6.263  2.3034  5.1411 -1.0379
  577MOL0     H76151   9.306   0.739   6.035  0.3786 -0.5630  2.6095
  577MOL0     H76152   9.210   0.736   5.609 -1.2393 -0.5244 -0.0197
  577MOL0     H76153   9.323   0.770   5.377  4.1150  1.8069  0.3345
  577MOL0     H76154   9.410   0.986   5.072 -0.1417 -0.8656 -0.9049
  577MOL0     H76155   9.317   0.855   5.145 -1.1454  1.7087  2.5495
  577MOL0     H76156   9.603   0.945   5.214  0.7644 -1.8833  0.8841
  577MOL0     H76157   9.520   0.803   5.283  0.6571 -1.2411  0.0213
  577MOL0     H76158   9.667   0.829   5.042 -1.4176  1.5722 -2.2106
  577MOL0     H76159   9.500   0.790   5.004 -1.0011  0.6040  0.5594
  577MOL0     H76160   9.513   0.603   5.172  0.3182 -0.6401  1.0437
  577MOL0     H76161   9.633   0.583   5.039  0.9234 -1.1831  1.0021
  577MOL0     H76162   9.842   0.605   5.399  1.5394 -0.7429 -0.5549
  577MOL0     H76163   9.345   1.184   5.450 -0.2127 -0.3874  0.8185
  577MOL0     H76164   9.233   1.151   5.674 -2.7754 -1.5497 -0.1467
  578MOL0     O76165   2.979   3.818   6.015 -0.7842  0.4126  0.0448
  578MOL0     C76166   2.971   3.695   6.031 -0.5667  0.3760  1.1828
  578MOL0     O76167   3.012   3.623   6.140  0.0818  0.3163 -0.4522
  578MOL0     C76168   3.075   3.688   6.238 -0.3492  0.1885  0.4799
  578MOL0     C76169   3.208   3.701   6.247 -0.4352 -0.1682 -0.4795
  578MOL0     C76170   3.273   3.756   6.356  0.0545 -0.4227 -0.2150
  578MOL0     C76171   3.194   3.792   6.469  0.2871 -0.3707 -0.2063
  578MOL0     O76172   3.250   3.834   6.585  0.5987 -0.0169  0.1755
  578MOL0     C76173   3.376   3.785   6.630  0.0598  0.6022  0.1990
  578MOL0     C76174   3.390   3.853   6.774  0.4508 -1.0070 -0.2789
  578MOL0     C76175   3.520   3.826   6.851 -0.8046 -0.8555  0.9561
  578MOL0     C76176   3.645   3.854   6.768  0.2812 -0.2514 -0.0286
  578MOL0     C76177   3.665   4.005   6.740  0.8649 -0.7537  0.4701
  578MOL0     C76178   3.770   4.029   6.636 -0.0055 -0.3719 -0.2110
  578MOL0     C76179   3.799   4.174   6.613  0.7007 -0.1931  0.5382
  578MOL0     C76180   3.677   4.255   6.583  0.2313 -0.3027  0.1853
  578MOL0     N76181   3.601   4.208   6.464  0.6639  0.5231  0.2710
  578MOL0     C76182   3.481   4.135   6.460  0.2660 -0.0796 -0.5742
  578MOL0     C76183   3.441   4.141   6.330 -0.3560  0.9772 -1.0451
  578MOL0     C76184   3.316   4.078   6.272 -0.0275  0.9320  0.0357
  578MOL0     C76185   3.254   4.170   6.171  0.2241  0.1575  0.5140
  578MOL0     C76186   3.171   4.079   6.075 -0.7796  0.1455 -0.5732
  578MOL0     C76187   3.093   4.160   5.975  0.1892  0.6003  0.5480
  578MOL0     O76188   3.183   4.204   5.872  0.1712 -0.5872 -0.2546
  578MOL0     C76189   3.120   4.272   5.771  1.4327 -0.4431  0.0977
  578MOL0     C76190   3.032   4.379   5.781  0.0355  0.1934  0.3133
  578MOL0     C76191   2.998   4.459   5.672  0.1239  1.2739  0.1761
  578MOL0     C76192   3.040   4.422   5.542 -0.8878  1.2428  0.6393
  578MOL0     C76193   3.008   4.503   5.422 -0.3066 -0.1948  0.2638
  578MOL0     O76194   3.069   4.480   5.298  0.0911  0.7001  0.2118
  578MOL0     C76195   3.041   4.572   5.202  0.6081 -0.4666  0.3696
  578MOL0     C76196   2.946   4.555   5.106  0.8975 -0.8633  0.2215
  578MOL0     C76197   2.913   4.651   5.015  0.1319 -0.2373  0.4447
  578MOL0     C76198   2.981   4.769   5.012 -0.5016  0.1479 -0.0533
  578MOL0     O76199   2.952   4.857   4.912 -0.6822 -0.3239 -0.3987
  578MOL0     C76200   2.965   4.999   4.959  0.3047 -0.4913 -0.2233
  578MOL0     C76201   2.925   5.090   4.839 -0.6021  0.1545 -0.8749
  578MOL0     C76202   3.005   5.045   4.711 -0.0593  1.1649 -0.2145
  578MOL0     C76203   3.156   5.079   4.732  0.5220  0.3086  0.1669
  578MOL0     C76204   3.254   4.956   4.746  0.5696 -0.4051  0.8795
  578MOL0     C76205   3.326   4.910   4.624 -0.3870  0.0853  0.8697
  578MOL0     C76206   3.427   5.002   4.558  0.2049  0.1253 -0.2023
  578MOL0     C76207   3.554   4.929   4.510 -0.0406 -0.0157  0.4919
  578MOL0    Cl76208   3.654   5.015   4.384 -0.6577  0.3515 -0.3260
  578MOL0     C76209   3.076   4.792   5.110  0.5667 -0.6910  0.0637
  578MOL0     C76210   3.107   4.697   5.211  0.1847 -1.0247  0.0318
  578MOL0     O76211   2.933   4.603   5.441  0.0501 -0.0972 -0.7195
  578MOL0     C76212   3.125   4.307   5.530  0.5035 -0.9583  0.2995
  578MOL0     C76213   3.161   4.243   5.637 -0.6541  0.7663 -0.4528
  578MOL0     N76214   3.533   4.205   6.257 -0.6578 -0.2067  0.0212
  578MOL0     N76215   3.623   4.257   6.331  0.5449 -0.1994  0.3119
  578MOL0     C76216   3.056   3.802   6.451 -0.2677  0.1722 -0.1133
  578MOL0     C76217   3.000   3.749   6.337  0.3097  1.1054  0.3437
  578MOL0     C76218   2.892   3.618   5.929  0.7271 -0.9227  0.0397
  578MOL0     C76219   2.929   3.502   5.874 -0.6604 -0.8821  0.0178
  578MOL0     C76220   2.866   3.437   5.775 -0.0942 -0.1888 -0.2969
  578MOL0     C76221   2.735   3.475   5.736 -0.5563 -0.0933  0.0197
  578MOL0     O76222   2.657   3.410   5.663  0.7713  0.9328  0.7919
  578MOL0     C76223   2.647   3.270   5.660  0.0742 -0.8159  0.1828
  578MOL0     C76224   2.600   3.231   5.799 -0.1344  0.5273 -1.1981
  578MOL0     C76225   2.566   3.083   5.788 -0.5464  0.4185  0.2742
  578MOL0     C76226   2.561   3.005   5.928  0.1835 -0.1169  0.6546
  578MOL0     C76227   2.697   2.969   5.969  0.6625 -0.8077 -0.4293
  578MOL0     C76228   2.815   2.950   5.991 -0.1889 -0.8950 -0.5259
  578MOL0     C76229   2.691   3.593   5.794  0.0623 -1.2447 -0.1675
  578MOL0     C76230   2.770   3.670   5.879 -0.0288  0.9691 -0.4059
  578MOL0     H76231   3.264   3.668   6.160  0.0432 -0.2472 -0.1471
  578MOL0     H76232   3.381   3.760   6.357  0.1548 -2.2922 -0.1725
  578MOL0     H76233   3.457   3.816   6.563  0.1374  3.8859  1.6589
  578MOL0     H76234   3.371   3.677   6.646 -0.5383  0.2842 -1.8723
  578MOL0     H76235   3.304   3.818   6.831 -2.7471  0.8286 -3.5199
  578MOL0     H76236   3.372   3.959   6.756 -0.8690 -1.5344 -2.3987
  578MOL0     H76237   3.511   3.720   6.878 -0.8192 -0.9976  0.4127
  578MOL0     H76238   3.519   3.893   6.937 -1.1299  3.7986 -2.3196
  578MOL0     H76239   3.737   3.809   6.806  1.4404  0.0518 -2.3395
  578MOL0     H76240   3.639   3.815   6.666 -2.1543  0.2445 -0.1401
  578MOL0     H76241   3.686   4.066   6.829 -1.0191  2.2930 -1.0225
  578MOL0     H76242   3.564   4.038   6.713  0.9207  0.2058  1.3668
  578MOL0     H76243   3.755   3.971   6.544  1.2641 -0.6424 -0.2609
  578MOL0     H76244   3.862   3.992   6.682 -0.2175  1.8049  2.1993
  578MOL0     H76245   3.840   4.220   6.703  1.0215  0.3923  0.1021
  578MOL0     H76246   3.871   4.185   6.531  0.3099 -3.2479 -0.3515
  578MOL0     H76247   3.717   4.355   6.562  0.5189  0.1490  2.6645
  578MOL0     H76248   3.616   4.268   6.672 -1.1825  0.4570 -0.8505
  578MOL0     H76249   3.422   4.079   6.531 -0.9883  0.1679 -1.3922
  578MOL0     H76250   3.239   4.058   6.346 -2.3520  1.0410 -2.2376
  578MOL0     H76251   3.348   3.986   6.222 -0.1045  1.3726 -0.8434
  578MOL0     H76252   3.327   4.230   6.115 -0.4647  1.9023  1.4076
  578MOL0     H76253   3.187   4.241   6.221  0.8829 -0.3791  2.2050
  578MOL0     H76254   3.240   4.009   6.027 -1.7139 -2.5497  1.7497
  578MOL0     H76255   3.104   4.028   6.144 -1.2365  0.1868 -0.9735
  578MOL0     H76256   3.056   4.248   6.030  1.5522  1.5453  0.0208
  578MOL0     H76257   3.011   4.099   5.937  0.0570  0.7959  0.5197
  578MOL0     H76258   3.005   4.417   5.879 -1.8583  0.1436 -0.1563
  578MOL0     H76259   2.942   4.550   5.691 -0.9846  1.2328 -2.4222
  578MOL0     H76260   2.884   4.466   5.112  0.2395 -0.3526  1.3329
  578MOL0     H76261   2.840   4.631   4.937 -1.1820 -2.8875  2.1884
  578MOL0     H76262   3.068   5.027   4.985 -0.1481 -0.6712  1.9297
  578MOL0     H76263   2.919   5.033   5.052  0.9457 -0.7181  0.1804
  578MOL0     H76264   2.951   5.191   4.873  2.3954 -1.1089  1.0296
  578MOL0     H76265   2.817   5.085   4.825 -0.4495  1.6742 -3.1270
  578MOL0     H76266   2.967   5.092   4.620  1.2037 -0.5499 -1.7078
  578MOL0     H76267   2.978   4.944   4.676 -2.2421  2.1627 -1.6395
  578MOL0     H76268   3.186   5.144   4.650 -0.9494 -0.2036 -0.8165
  578MOL0     H76269   3.172   5.144   4.819  3.1783 -0.9855  0.7699
  578MOL0     H76270   3.190   4.870   4.767 -1.5981  0.9281  0.0561
  578MOL0     H76271   3.319   4.973   4.832  0.5563  0.1282  0.7862
  578MOL0     H76272   3.250   4.874   4.553 -1.0118  1.5658  0.7422
  578MOL0     H76273   3.381   4.820   4.651 -0.9122 -1.2782 -2.1470
  578MOL0     H76274   3.382   5.051   4.471  0.3972 -0.1580 -0.4689
  578MOL0     H76275   3.441   5.084   4.628 -2.6345 -1.6403  2.6866
  578MOL0     H76276   3.520   4.840   4.456  1.4501  0.7739 -1.9088
  578MOL0     H76277   3.617   4.907   4.596 -0.1394  0.4470  0.6846
  578MOL0     H76278   3.120   4.891   5.118  1.1704 -1.1041  3.5738
  578MOL0     H76279   3.178   4.723   5.289 -0.5782  0.1420  0.3563
  578MOL0     H76280   3.165   4.282   5.432  0.2146  0.1792 -0.1319
  578MOL0     H76281   3.247   4.177   5.639 -1.2339 -0.0119  2.2540
  578MOL0     H76282   2.991   3.852   6.523 -1.4664  0.0874 -1.1145
  578MOL0     H76283   2.893   3.744   6.319  0.7209 -0.1918 -2.2549
  578MOL0     H76284   3.018   3.462   5.922  0.7701  1.1301 -0.7907
  578MOL0     H76285   2.905   3.341   5.744  0.9431  0.3232 -0.5995
  578MOL0     H76286   2.742   3.218   5.642  0.7314  0.9292 -1.7339
  578MOL0     H76287   2.583   3.239   5.577  0.0160  2.6034 -1.1866
  578MOL0     H76288   2.677   3.251   5.874 -1.1773  4.0388 -0.8875
  578MOL0     H76289   2.508   3.281   5.832 -0.1368 -0.4177  0.2888
  578MOL0     H76290   2.644   3.038   5.726 -0.5727 -0.3204  0.7674
  578MOL0     H76291   2.467   3.084   5.741 -0.1809  1.0195 -0.5177
  578MOL0     H76292   2.515   3.064   6.007 -2.5414 -1.8286  0.4618
  578MOL0     H76293   2.489   2.923   5.924 -0.1582  0.0069  2.9674
  578MOL0     H76294   2.918   2.938   6.018 -0.3384  1.3652  1.4304
  578MOL0     H76295   2.589   3.625   5.776 -0.0649 -0.5831  1.5056
  578MOL0     H76296   2.727   3.763   5.917  0.4995  1.4136 -0.8945
  579MOL0     O76297   1.509   6.518   2.488 -0.2268 -0.2596  0.3413
  579MOL0     C76298   1.394   6.552   2.466  0.2328  0.6311 -0.2198
  579MOL0     O76299   1.318   6.507   2.361  0.0192 -0.3290  0.4642
  579MOL0     C76300   1.377   6.407   2.284  0.6022 -1.2200  0.4395
  579MOL0     C76301   1.332   6.275   2.295  0.1899 -0.0185  0.3376
  579MOL0     C76302   1.379   6.173   2.212  0.0451 -0.1732 -0.0274
  579MOL0     C76303   1.487   6.197   2.136 -0.0735 -0.0106 -0.4683
  579MOL0     O76304   1.532   6.092   2.067 -0.5656  0.2080  0.1057
  579MOL0     C76305   1.618   6.115   1.949 -0.4283 -0.2339  0.5238
  579MOL0     C76306   1.671   5.975   1.901 -0.4152 -0.0666 -0.0191
  579MOL0     C76307   1.792   5.983   1.798  0.7274 -0.3108 -0.4954
  579MOL0     C76308   1.756   5.951   1.655  0.0968 -0.4959 -0.4362
  579MOL0     C76309   1.695   5.816   1.648  0.0634  0.6634 -0.8269
  579MOL0     C76310   1.713   5.758   1.512 -0.4755  0.7473  0.9814
  579MOL0     C76311   1.609   5.645   1.480  1.1225  0.1928 -0.0474
  579MOL0     C76312   1.597   5.627   1.322  1.5734  0.4170  0.7915
  579MOL0     N76313   1.473   5.555   1.277  0.5232 -0.0602  0.0048
  579MOL0     C76314   1.473   5.422   1.273 -0.1455 -1.1649  0.4914
  579MOL0     C76315   1.355   5.394   1.221 -0.2614  0.8757 -0.4625
  579MOL0     C76316   1.325   5.248   1.188  0.2648 -0.2755  0.7603
  579MOL0     C76317   1.333   5.220   1.037 -0.1898 -0.3735  0.0804
  579MOL0     C76318   1.298   5.073   1.007 -0.5378  0.9080  0.4424
  579MOL0     C76319   1.246   5.079   0.860  0.0879 -0.1072 -0.5424
  579MOL0     O76320   1.111   5.138   0.839 -0.3937 -0.6892 -0.0378
  579MOL0     C76321   0.999   5.081   0.888 -0.0496  0.3432 -0.1989
  579MOL0     C76322   0.887   5.159   0.863 -0.0185  0.3627  1.0125
  579MOL0     C76323   0.759   5.120   0.918  0.0695 -0.9783  0.5472
  579MOL0     C76324   0.748   4.999   0.988 -0.3579  0.8831  0.1826
  579MOL0     C76325   0.617   4.943   1.028 -0.6348  0.5564  0.4431
  579MOL0     O76326   0.514   5.037   1.057 -0.1349  0.1354  0.4867
  579MOL0     C76327   0.386   4.993   1.085  0.0230 -0.4060  0.5717
  579MOL0     C76328   0.322   4.911   0.988 -0.3016  0.0734  0.6749
  579MOL0     C76329   0.193   4.878   0.995 -0.0263  0.4698 -0.0712
  579MOL0     C76330   0.121   4.907   1.120  0.0887 -0.1864  0.4404
  579MOL0     O76331  -0.016   4.885   1.118 -1.1023  0.1071  0.3808
  579MOL0     C76332  -0.079   4.900   1.245  0.1176 -0.8571 -0.6017
  579MOL0     C76333  -0.223   4.857   1.234  0.4075  0.3590  0.2051
  579MOL0     C76334  -0.301   4.941   1.132  0.5409  0.2630  0.0047
  579MOL0     C76335  -0.443   4.901   1.131  0.3341  0.8145 -0.5990
  579MOL0     C76336  -0.531   5.010   1.077 -0.8479 -0.1108 -0.4148
  579MOL0     C76337  -0.677   4.976   1.062  0.2471  0.9492 -0.1974
  579MOL0     C76338  -0.776   5.052   0.967 -0.3165 -0.1762 -0.7220
  579MOL0     C76339  -0.786   5.204   0.989 -0.6037 -0.4421 -0.4370
  579MOL0    Cl76340  -0.852   5.262   0.842  0.1280 -0.2502  0.2144
  579MOL0     C76341   0.182   4.987   1.223 -0.2577  0.8801  0.1971
  579MOL0     C76342   0.323   5.020   1.211 -0.1527 -0.8692 -0.4479
  579MOL0     O76343   0.601   4.819   1.040 -0.8192  0.6786 -0.2751
  579MOL0     C76344   0.861   4.917   0.999  0.4874  0.4206 -0.2031
  579MOL0     C76345   0.991   4.958   0.955  0.0571 -0.5175  0.3664
  579MOL0     N76346   1.303   5.511   1.165 -0.5044 -0.9217  0.3295
  579MOL0     N76347   1.367   5.608   1.219  0.3751 -1.2097  0.3800
  579MOL0     C76348   1.532   6.329   2.112  0.5802  0.9089 -0.4527
  579MOL0     C76349   1.474   6.428   2.188 -1.0505  0.4358  0.2599
  579MOL0     C76350   1.327   6.644   2.562 -0.4017  0.9502  0.3964
  579MOL0     C76351   1.188   6.638   2.564 -1.1601 -0.3591  0.1433
  579MOL0     C76352   1.115   6.712   2.654 -0.0434 -0.1148  0.9558
  579MOL0     C76353   1.177   6.811   2.738  0.2011  0.3776 -0.0410
  579MOL0     O76354   1.088   6.897   2.789 -0.0069 -0.5122 -0.2970
  579MOL0     C76355   1.155   7.012   2.850 -0.0849  0.0713  0.0057
  579MOL0     C76356   1.043   7.097   2.902 -0.4755 -0.7271  0.0733
  579MOL0     C76357   1.098   7.232   2.966 -1.1689  0.2215 -0.2565
  579MOL0     C76358   1.230   7.216   3.063 -1.1471 -0.1196 -0.8089
  579MOL0     C76359   1.211   7.103   3.154 -0.4603 -0.0777 -0.7622
  579MOL0     C76360   1.195   7.002   3.226 -1.2484  0.0701  0.7702
  579MOL0     C76361   1.319   6.822   2.734  0.4481  0.5446 -0.8128
  579MOL0     C76362   1.392   6.732   2.652  0.0819  0.1215  0.5939
  579MOL0     H76363   1.254   6.259   2.369  0.8025 -0.9528  0.8032
  579MOL0     H76364   1.332   6.076   2.223 -1.5816  0.5762 -0.0857
  579MOL0     H76365   1.710   6.168   1.976  1.1969 -2.7130  0.1117
  579MOL0     H76366   1.577   6.180   1.871 -0.5078  0.9798  1.5548
  579MOL0     H76367   1.582   5.923   1.866 -0.4932 -0.1555  0.3053
  579MOL0     H76368   1.706   5.929   1.994 -1.1011 -0.4598  0.0509
  579MOL0     H76369   1.851   5.900   1.838  2.5589  1.6836  1.2263
  579MOL0     H76370   1.846   6.078   1.807  0.2327 -0.1873  2.2366
  579MOL0     H76371   1.688   6.032   1.627  3.2789  1.5535 -2.7905
  579MOL0     H76372   1.851   5.956   1.602  0.7255 -0.0535  0.6788
  579MOL0     H76373   1.591   5.823   1.679  0.1061 -1.9060  0.1433
  579MOL0     H76374   1.748   5.749   1.717 -0.8335  0.9449  0.1519
  579MOL0     H76375   1.806   5.700   1.520  0.8467  2.8364  1.5254
  579MOL0     H76376   1.704   5.829   1.430 -0.3158  0.7171  0.9364
  579MOL0     H76377   1.640   5.552   1.528  0.9940 -1.5951 -3.1624
  579MOL0     H76378   1.512   5.677   1.518  0.0835  0.1257 -2.5088
  579MOL0     H76379   1.684   5.572   1.284 -1.1149 -2.7306 -1.3665
  579MOL0     H76380   1.590   5.726   1.277 -2.5168 -0.8760 -1.9829
  579MOL0     H76381   1.550   5.361   1.319  1.4302 -1.4319 -2.3133
  579MOL0     H76382   1.216   5.237   1.196  0.3572 -2.1078 -0.0622
  579MOL0     H76383   1.381   5.179   1.252  0.8468 -0.6393 -0.1222
  579MOL0     H76384   1.422   5.247   0.979 -0.7814  2.3365  0.2784
  579MOL0     H76385   1.258   5.288   0.996  0.0728 -0.6816 -0.9184
  579MOL0     H76386   1.385   5.007   1.004 -1.2967 -0.0803 -0.3482
  579MOL0     H76387   1.219   5.030   1.070 -3.7475 -0.1012 -3.8441
  579MOL0     H76388   1.240   4.974   0.828  1.2671 -1.1936  2.4174
  579MOL0     H76389   1.331   5.127   0.811  2.5882 -1.1697  2.4779
  579MOL0     H76390   0.905   5.248   0.803 -2.9125  0.7212  0.5265
  579MOL0     H76391   0.673   5.185   0.921  0.0476 -1.0027  0.4539
  579MOL0     H76392   0.378   4.887   0.899  1.5786 -0.1024  1.8584
  579MOL0     H76393   0.129   4.828   0.922 -0.1057  0.1874  0.1875
  579MOL0     H76394  -0.079   5.001   1.287 -0.2122 -1.7126  1.5930
  579MOL0     H76395  -0.035   4.828   1.315  2.1301 -0.6055 -1.5412
  579MOL0     H76396  -0.264   4.870   1.335 -0.2910 -2.1254  0.3001
  579MOL0     H76397  -0.222   4.751   1.208  2.1972  0.7867 -1.6938
  579MOL0     H76398  -0.267   4.932   1.029 -0.5119  2.2722 -0.5678
  579MOL0     H76399  -0.291   5.046   1.159  2.4927 -0.1627  1.1191
  579MOL0     H76400  -0.456   4.810   1.072  0.8029 -0.8953  1.7888
  579MOL0     H76401  -0.482   4.872   1.229  0.1906 -1.3145 -1.2378
  579MOL0     H76402  -0.487   5.033   0.980  0.2444 -1.6728 -0.3283
  579MOL0     H76403  -0.517   5.100   1.139 -1.8109  0.3314 -0.8262
  579MOL0     H76404  -0.716   4.990   1.163  2.6872 -0.1160  0.9925
  579MOL0     H76405  -0.704   4.873   1.038 -3.0893  1.4346  0.9356
  579MOL0     H76406  -0.729   5.031   0.871  1.7985 -0.7686  0.3774
  579MOL0     H76407  -0.878   5.014   0.969 -0.0386 -1.0714 -2.1865
  579MOL0     H76408  -0.687   5.250   1.001 -0.4863 -0.0489 -2.5942
  579MOL0     H76409  -0.851   5.227   1.074 -0.0871 -1.7309  0.3387
  579MOL0     H76410   0.137   5.012   1.318 -1.1662 -1.1751  0.3442
  579MOL0     H76411   0.374   5.076   1.289  0.0606 -2.7162  0.7925
  579MOL0     H76412   0.856   4.813   1.029  0.9822  0.0879 -1.2044
  579MOL0     H76413   1.081   4.901   0.974  1.1082  1.7379  2.7772
  579MOL0     H76414   1.610   6.358   2.043 -2.7248  3.3269 -3.5515
  579MOL0     H76415   1.503   6.532   2.178  1.0776  0.0034  1.2786
  579MOL0     H76416   1.126   6.580   2.496 -2.7312  0.6849  0.6306
  579MOL0     H76417   1.007   6.706   2.666 -0.3217  2.6114  0.5419
  579MOL0     H76418   1.214   7.076   2.784  0.1237 -2.5159 -2.4742
  579MOL0     H76419   1.219   6.966   2.926  0.7129 -3.5049 -2.6009
  579MOL0     H76420   0.966   7.112   2.825 -1.6360  4.7506  1.8735
  579MOL0     H76421   0.982   7.049   2.978 -2.7150  1.3732 -0.2518
  579MOL0     H76422   1.015   7.274   3.023 -1.0269  0.9423 -0.5642
  579MOL0     H76423   1.131   7.305   2.892 -1.0124  0.1333 -0.2735
  579MOL0     H76424   1.321   7.196   3.005  0.7051 -2.0092  2.4341
  579MOL0     H76425   1.255   7.298   3.131 -0.9120 -1.4406  0.7765
  579MOL0     H76426   1.202   6.905   3.271 -0.7847  0.2867  1.1732
  579MOL0     H76427   1.374   6.897   2.790 -1.7549  0.6423  1.3555
  579MOL0     H76428   1.496   6.763   2.648  0.6662 -1.7721  0.0031
  580MOL0     O76429   5.258   1.313   2.230 -0.7014  0.5281 -0.1976
  580MOL0     C76430   5.189   1.211   2.248 -0.8998 -0.4399  0.1902
  580MOL0     O76431   5.214   1.111   2.335  1.0120  0.3979 -0.3170
  580MOL0     C76432   5.314   1.103   2.428  0.0854  0.5381  0.8201
  580MOL0     C76433   5.390   1.211   2.479 -0.3461  0.0426 -0.0713
  580MOL0     C76434   5.473   1.194   2.590  0.4000  0.2573 -0.0259
  580MOL0     C76435   5.478   1.069   2.656 -0.7268  0.0562  0.2551
  580MOL0     O76436   5.546   1.045   2.772 -0.5220 -0.2019 -0.4809
  580MOL0     C76437   5.689   1.039   2.755  0.5919  0.3773 -0.0701
  580MOL0     C76438   5.724   0.895   2.742 -0.6469  0.4623 -0.4155
  580MOL0     C76439   5.871   0.889   2.705 -0.0271  1.1295  0.1844
  580MOL0     C76440   5.918   0.745   2.713  0.7794 -0.0626  0.7288
  580MOL0     C76441   6.061   0.728   2.664 -0.9812 -0.0718 -0.0363
  580MOL0     C76442   6.080   0.773   2.524 -0.9998  0.1947 -0.8484
  580MOL0     C76443   6.224   0.727   2.480 -0.3532  0.1421  0.1709
  580MOL0     C76444   6.279   0.806   2.355 -0.4132  0.2446  0.1326
  580MOL0     N76445   6.413   0.738   2.331 -0.1714 -0.7206 -0.2266
  580MOL0     C76446   6.421   0.637   2.246  0.3869  0.1506  0.6591
  580MOL0     C76447   6.547   0.602   2.252 -0.7444  0.4392  0.2321
  580MOL0     C76448   6.610   0.498   2.167 -1.0716 -0.4925  0.1713
  580MOL0     C76449   6.597   0.349   2.214 -0.1967 -0.8158  0.7437
  580MOL0     C76450   6.456   0.308   2.195  0.0186 -0.2212 -0.5427
  580MOL0     C76451   6.410   0.171   2.251 -0.0437 -0.7946 -0.6559
  580MOL0     O76452   6.275   0.129   2.233  0.1669 -0.6023  0.4095
  580MOL0     C76453   6.187   0.176   2.319 -0.0330 -0.6265  0.3537
  580MOL0     C76454   6.126   0.299   2.285 -0.3803 -0.0590 -0.6022
  580MOL0     C76455   6.025   0.350   2.370 -0.1762  0.2941 -0.0096
  580MOL0     C76456   5.968   0.281   2.478  0.1724  0.1574  0.2647
  580MOL0     C76457   5.848   0.335   2.547 -1.3948  0.7575  0.0120
  580MOL0     O76458   5.762   0.405   2.476 -0.6503  0.4788  0.2770
  580MOL0     C76459   5.645   0.449   2.532  0.4814  0.5452 -0.2619
  580MOL0     C76460   5.601   0.570   2.462 -0.1245 -1.3181  0.2989
  580MOL0     C76461   5.482   0.633   2.504 -0.4570 -0.1035 -0.0954
  580MOL0     C76462   5.402   0.570   2.598 -0.7050  0.5862 -0.7078
  580MOL0     O76463   5.285   0.629   2.639 -0.0084 -0.0152  0.4066
  580MOL0     C76464   5.179   0.565   2.703 -0.1392  0.0131 -0.0003
  580MOL0     C76465   5.056   0.646   2.675 -0.5241 -0.3011 -0.1349
  580MOL0     C76466   4.948   0.625   2.783  0.1199 -0.4833 -0.6769
  580MOL0     C76467   4.830   0.715   2.756  0.7588 -0.5553  0.2511
  580MOL0     C76468   4.710   0.700   2.850 -0.4311 -0.9282 -0.6413
  580MOL0     C76469   4.595   0.805   2.807 -0.8766  0.5767 -0.3788
  580MOL0     C76470   4.457   0.789   2.878  0.0862 -0.3955  0.2005
  580MOL0     C76471   4.363   0.895   2.831 -0.2307 -0.2571 -0.3069
  580MOL0    Cl76472   4.221   0.914   2.940  0.0931 -0.4007  0.0727
  580MOL0     C76473   5.448   0.446   2.659 -1.1723  0.3796  0.1496
  580MOL0     C76474   5.563   0.379   2.615  0.1200  0.1200 -0.1998
  580MOL0     O76475   5.836   0.315   2.666 -0.0351  0.5112 -0.7020
  580MOL0     C76476   6.035   0.165   2.508 -0.0356  0.8418  1.3281
  580MOL0     C76477   6.142   0.111   2.435  0.3639 -0.2676  0.1955
  580MOL0     N76478   6.612   0.689   2.340 -0.7094 -0.3433  0.6397
  580MOL0     N76479   6.532   0.767   2.391  0.2155  1.3112  0.0234
  580MOL0     C76480   5.401   0.960   2.596 -0.4991  0.2453 -0.1416
  580MOL0     C76481   5.329   0.982   2.484  0.4175 -0.3184 -0.2316
  580MOL0     C76482   5.083   1.190   2.151 -0.0399  0.8884 -0.1583
  580MOL0     C76483   5.010   1.292   2.100  0.3108 -0.4779 -0.1183
  580MOL0     C76484   4.896   1.264   2.015  0.2569  0.6761  0.7375
  580MOL0     C76485   4.871   1.134   1.983 -0.9290  0.0019 -0.3822
  580MOL0     O76486   4.761   1.108   1.908 -0.5303  1.4184  0.1661
  580MOL0     C76487   4.636   1.134   1.966  0.3217 -0.5367 -0.6912
  580MOL0     C76488   4.525   1.071   1.882  0.1470 -0.1392 -0.5112
  580MOL0     C76489   4.485   0.943   1.946 -0.0038 -0.6457 -0.4394
  580MOL0     C76490   4.408   0.940   2.088 -0.4159  0.9527  0.2869
  580MOL0     C76491   4.352   0.814   2.110 -0.2952  0.6793  0.2079
  580MOL0     C76492   4.288   0.711   2.109 -0.0687 -0.3281 -0.6992
  580MOL0     C76493   4.943   1.035   2.034  0.2895  0.4009  0.4064
  580MOL0     C76494   5.052   1.055   2.115 -0.6278  0.0060 -0.3678
  580MOL0     H76495   5.395   1.310   2.436 -1.9341 -0.3319 -1.2142
  580MOL0     H76496   5.540   1.270   2.630  1.2498 -0.5934  0.2044
  580MOL0     H76497   5.730   1.074   2.850 -0.3618 -0.7590  0.7988
  580MOL0     H76498   5.713   1.112   2.678 -1.4120  2.2465  0.9693
  580MOL0     H76499   5.678   0.839   2.660  0.7155 -0.0337 -0.8837
  580MOL0     H76500   5.702   0.843   2.835  1.0733 -0.3566 -0.4227
  580MOL0     H76501   5.925   0.949   2.779 -0.6845  0.0148  1.6046
  580MOL0     H76502   5.886   0.929   2.604 -1.6032  0.8387 -0.1965
  580MOL0     H76503   5.907   0.712   2.816  3.1080  0.0234  1.0544
  580MOL0     H76504   5.856   0.688   2.643  3.6819 -1.8290 -0.6253
  580MOL0     H76505   6.090   0.623   2.674 -1.6933 -0.4577 -1.7323
  580MOL0     H76506   6.122   0.784   2.736  0.7370 -1.4192 -0.3640
  580MOL0     H76507   6.070   0.882   2.517 -0.5764  0.5339  2.4406
  580MOL0     H76508   6.006   0.739   2.451 -2.0246  0.1818  0.1632
  580MOL0     H76509   6.289   0.738   2.567 -0.8046 -1.2623  0.7070
  580MOL0     H76510   6.213   0.621   2.455  1.7311  0.1430 -0.9834
  580MOL0     H76511   6.288   0.913   2.378  1.8925 -0.3458  2.4485
  580MOL0     H76512   6.209   0.795   2.272 -0.9676  3.0875  0.1100
  580MOL0     H76513   6.336   0.591   2.196  2.1453  0.6359 -3.1546
  580MOL0     H76514   6.716   0.524   2.159 -1.3511  2.2498  3.5268
  580MOL0     H76515   6.566   0.496   2.066 -1.4031 -3.7095  0.2558
  580MOL0     H76516   6.612   0.352   2.323  0.9791  0.0236  0.5836
  580MOL0     H76517   6.661   0.273   2.169 -0.0482 -0.2046 -0.1018
  580MOL0     H76518   6.392   0.377   2.250 -0.7686 -2.1552  1.0824
  580MOL0     H76519   6.421   0.315   2.091  1.6681  2.2575 -1.0052
  580MOL0     H76520   6.435   0.194   2.354 -0.9817 -1.4561 -0.2620
  580MOL0     H76521   6.482   0.095   2.219 -0.6655 -0.4497 -3.1247
  580MOL0     H76522   6.174   0.347   2.200  0.8458  1.2459  0.7716
  580MOL0     H76523   5.976   0.437   2.327 -1.7039 -2.4038 -4.4197
  580MOL0     H76524   5.672   0.610   2.390 -0.6140  1.1765  1.0854
  580MOL0     H76525   5.459   0.728   2.456 -1.4787 -0.1096  0.3583
  580MOL0     H76526   5.206   0.551   2.808 -0.2699  1.7565  0.2837
  580MOL0     H76527   5.165   0.467   2.655 -1.2063 -0.7340  1.7390
  580MOL0     H76528   5.008   0.603   2.587 -1.2633 -3.4957  1.6847
  580MOL0     H76529   5.072   0.753   2.659 -2.2690  0.7545  3.9072
  580MOL0     H76530   4.986   0.631   2.885 -0.7210  1.2234 -0.4313
  580MOL0     H76531   4.909   0.522   2.784 -0.4855 -0.2577 -0.6987
  580MOL0     H76532   4.873   0.815   2.759  1.3152 -0.8120  2.1364
  580MOL0     H76533   4.798   0.685   2.655  2.0924 -1.3728  0.0570
  580MOL0     H76534   4.754   0.727   2.946 -2.8244  0.2079  0.2018
  580MOL0     H76535   4.673   0.597   2.848 -1.4729 -0.5732 -0.2788
  580MOL0     H76536   4.566   0.790   2.703 -1.4494 -0.1466 -0.1213
  580MOL0     H76537   4.641   0.903   2.825  0.5640  0.1348 -1.3985
  580MOL0     H76538   4.419   0.693   2.843  1.8942 -1.5853  1.2790
  580MOL0     H76539   4.460   0.776   2.987 -1.9501  0.9003  0.4555
  580MOL0     H76540   4.346   0.870   2.726  3.1613 -4.8400 -0.0526
  580MOL0     H76541   4.416   0.991   2.833  0.4455 -0.6146 -0.9293
  580MOL0     H76542   5.405   0.393   2.743  0.5403 -0.6736  0.4165
  580MOL0     H76543   5.587   0.285   2.664 -0.9323  1.1822  2.5203
  580MOL0     H76544   6.005   0.107   2.595 -1.3870  0.8375  0.8854
  580MOL0     H76545   6.194   0.026   2.478  1.4213  0.3070  0.0863
  580MOL0     H76546   5.409   0.858   2.633 -0.5776  0.1408 -0.4064
  580MOL0     H76547   5.278   0.896   2.441  3.1788 -1.5062 -1.4070
  580MOL0     H76548   5.038   1.393   2.128  2.0584 -1.3911  1.6812
  580MOL0     H76549   4.852   1.342   1.953 -0.4954  0.4209  0.9455
  580MOL0     H76550   4.616   1.241   1.977 -0.7235 -0.9779  2.6591
  580MOL0     H76551   4.644   1.095   2.067 -0.3990  0.2570 -0.3153
  580MOL0     H76552   4.436   1.134   1.870  1.5605  1.5624 -2.8300
  580MOL0     H76553   4.553   1.055   1.778 -1.5940  3.1521 -1.6386
  580MOL0     H76554   4.572   0.876   1.946  0.1551 -0.4544 -1.4007
  580MOL0     H76555   4.425   0.892   1.870 -2.1998  2.4512 -0.9604
  580MOL0     H76556   4.480   0.958   2.168 -2.4792  1.1908  2.1863
  580MOL0     H76557   4.336   1.022   2.101 -2.2160  0.2968 -3.9124
  580MOL0     H76558   4.244   0.613   2.114 -0.9483 -0.0395 -2.0838
  580MOL0     H76559   4.906   0.934   2.021  0.0875  0.4763  0.4062
  580MOL0     H76560   5.107   0.969   2.151  1.0085  2.0140  2.2992
  581MOL0     O76561   4.951   8.950  10.228  0.3861 -0.5122  0.4869
  581MOL0     C76562   4.880   9.029  10.168  0.5995 -0.2001 -0.1867
  581MOL0     O76563   4.750   9.013  10.142 -0.6801 -0.3074 -0.2590
  581MOL0     C76564   4.683   8.922  10.211 -0.4394 -0.4051  0.0625
  581MOL0     C76565   4.679   8.786  10.186 -0.2456  0.5611  0.1483
  581MOL0     C76566   4.590   8.710  10.259 -0.0013 -0.0912 -0.2316
  581MOL0     C76567   4.524   8.765  10.364  0.2469 -0.6140 -0.4119
  581MOL0     O76568   4.431   8.684  10.430 -0.9139  0.3841  0.2886
  581MOL0     C76569   4.300   8.738  10.445  0.0676  0.6495  0.3535
  581MOL0     C76570   4.199   8.629  10.474 -0.0216 -0.5453  0.4415
  581MOL0     C76571   4.236   8.557  10.610  0.1124 -0.8549  0.6893
  581MOL0     C76572   4.156   8.431  10.622  0.1170  0.1157  0.7633
  581MOL0     C76573   4.153   8.382  10.769  0.6956  0.1474 -0.9793
  581MOL0     C76574   4.142   8.487  10.883  0.6298 -0.3427 -0.2968
  581MOL0     C76575   4.096   8.426  11.014  0.1852 -0.0794  0.9806
  581MOL0     C76576   4.130   8.489  11.140  1.0428 -0.5850  0.2358
  581MOL0     N76577   4.026   8.598  11.160 -0.8224  0.4654 -0.5514
  581MOL0     C76578   3.940   8.603  11.267 -0.6672 -1.3763  0.6440
  581MOL0     C76579   3.875   8.717  11.265 -0.0047 -0.1367  0.0944
  581MOL0     C76580   3.782   8.761  11.367  0.3762  0.5510 -0.6845
  581MOL0     C76581   3.637   8.709  11.336 -0.4713  0.3384  0.0733
  581MOL0     C76582   3.587   8.749  11.200 -0.4014 -0.1964 -0.5353
  581MOL0     C76583   3.552   8.899  11.206  0.4214  0.2767  0.6648
  581MOL0     O76584   3.523   8.956  11.079  0.2762  1.1006  0.6650
  581MOL0     C76585   3.624   8.984  10.986 -0.2131  0.6062  0.0545
  581MOL0     C76586   3.759   8.986  11.022  0.1709 -0.5145  0.4946
  581MOL0     C76587   3.852   9.016  10.927  0.1960  0.1983  0.3930
  581MOL0     C76588   3.812   9.053  10.792 -0.5485  0.1439 -0.8667
  581MOL0     C76589   3.916   9.112  10.710  0.6484 -0.1693  0.3975
  581MOL0     O76590   4.040   9.054  10.727  0.8965  0.1809  0.0817
  581MOL0     C76591   4.134   9.100  10.647 -1.0187 -0.1434 -0.1011
  581MOL0     C76592   4.203   9.217  10.690 -0.1256 -0.0207 -0.4506
  581MOL0     C76593   4.307   9.267  10.619 -0.6792 -1.1487  0.8434
  581MOL0     C76594   4.345   9.211  10.496 -0.7027  0.2550  0.4664
  581MOL0     O76595   4.450   9.257  10.420  0.0400 -0.3393 -0.9615
  581MOL0     C76596   4.463   9.397  10.416 -0.9214  0.0320  0.5269
  581MOL0     C76597   4.553   9.442  10.301  0.0885 -0.1540  1.1564
  581MOL0     C76598   4.511   9.436  10.155 -0.3660  0.3699 -0.4357
  581MOL0     C76599   4.473   9.298  10.099  0.1667 -0.7099  0.4961
  581MOL0     C76600   4.393   9.313   9.959 -0.0407  0.3232 -0.1209
  581MOL0     C76601   4.487   9.352   9.841 -0.2855  0.4189  0.4458
  581MOL0     C76602   4.422   9.298   9.715 -0.7600 -0.5007  0.1185
  581MOL0     C76603   4.500   9.367   9.612 -0.6646  0.0362  0.6505
  581MOL0    Cl76604   4.412   9.324   9.464  0.0258 -0.0183  0.4961
  581MOL0     C76605   4.278   9.098  10.444 -0.4270  0.0513  0.0622
  581MOL0     C76606   4.164   9.044  10.522 -0.7177 -0.1330  0.5501
  581MOL0     O76607   3.879   9.193  10.627  0.2047 -0.2148  0.3901
  581MOL0     C76608   3.670   9.062  10.759 -0.9630  0.9166 -0.1510
  581MOL0     C76609   3.578   9.023  10.861  0.6729 -0.0177 -0.0509
  581MOL0     N76610   3.911   8.781  11.152  0.0932  0.4732  0.2684
  581MOL0     N76611   3.999   8.702  11.082  0.6111 -0.8644  0.1122
  581MOL0     C76612   4.538   8.900  10.398  0.3231 -0.0053  0.6547
  581MOL0     C76613   4.617   8.978  10.327 -0.5129 -0.9183 -0.3049
  581MOL0     C76614   4.951   9.149  10.110  0.6727  0.5379 -0.7138
  581MOL0     C76615   4.873   9.233  10.037  0.4170  0.6128  0.1888
  581MOL0     C76616   4.927   9.341   9.984 -0.2992  0.3537  0.0508
  581MOL0     C76617   5.069   9.364   9.978  0.6501  0.9118  0.7709
  581MOL0     O76618   5.138   9.465   9.910 -0.2362  0.3897  0.1382
  581MOL0     C76619   5.084   9.492   9.777  0.7908  0.0724  0.4512
  581MOL0     C76620   5.114   9.637   9.737  0.2131  0.0875  0.4215
  581MOL0     C76621   5.079   9.667   9.591 -0.5823 -0.1326  0.0375
  581MOL0     C76622   5.125   9.807   9.564  0.6204 -0.2059  0.6206
  581MOL0     C76623   5.273   9.810   9.538 -0.6133  0.6217 -0.0853
  581MOL0     C76624   5.392   9.800   9.532 -0.3502  1.0841 -0.3742
  581MOL0     C76625   5.144   9.279  10.051 -0.1533  0.8077  0.1891
  581MOL0     C76626   5.092   9.168  10.113  0.2255  0.4458 -0.4799
  581MOL0     H76627   4.742   8.759  10.102 -1.0170  2.3069 -1.0776
  581MOL0     H76628   4.581   8.605  10.234  2.8330 -0.6198  0.6433
  581MOL0     H76629   4.280   8.781  10.347  1.6167 -2.4136 -1.4271
  581MOL0     H76630   4.290   8.808  10.529 -0.7492 -1.9756  2.6140
  581MOL0     H76631   4.198   8.556  10.392 -2.0837  0.7720 -0.7939
  581MOL0     H76632   4.101   8.676  10.478  0.3785  0.5941 -1.5464
  581MOL0     H76633   4.199   8.621  10.690  1.1591  1.6588 -0.6914
  581MOL0     H76634   4.341   8.535  10.630  0.7787  1.6919  0.3189
  581MOL0     H76635   4.050   8.456  10.607  0.1671  0.2301  0.6004
  581MOL0     H76636   4.193   8.345  10.565 -2.7621  0.2194 -1.5100
  581MOL0     H76637   4.243   8.330  10.802 -0.7790 -0.8903  1.6646
  581MOL0     H76638   4.069   8.316  10.792  1.4289  0.0052  1.6371
  581MOL0     H76639   4.075   8.570  10.857  4.0580  2.1905 -1.7665
  581MOL0     H76640   4.235   8.542  10.896 -0.2761  1.9088 -2.3696
  581MOL0     H76641   3.988   8.409  11.009  0.1728  0.3120 -2.5193
  581MOL0     H76642   4.147   8.330  11.014  1.5112  0.6072  0.3084
  581MOL0     H76643   4.233   8.525  11.140  1.5304 -1.8929 -0.5827
  581MOL0     H76644   4.114   8.417  11.221  0.9664 -2.7107 -1.5743
  581MOL0     H76645   3.923   8.526  11.342 -1.6510 -0.9274  0.9014
  581MOL0     H76646   3.781   8.867  11.395 -2.6172 -0.2336  3.0733
  581MOL0     H76647   3.799   8.711  11.463  1.6978  1.2225 -0.5467
  581MOL0     H76648   3.573   8.742  11.418 -0.9314 -0.2417 -0.0450
  581MOL0     H76649   3.642   8.600  11.334  1.9226  0.4151 -0.8259
  581MOL0     H76650   3.653   8.723  11.117 -0.6715 -0.7735 -0.5681
  581MOL0     H76651   3.494   8.695  11.184 -1.9032  2.2991 -0.8458
  581MOL0     H76652   3.623   8.962  11.260 -1.4077  0.9852  2.3763
  581MOL0     H76653   3.461   8.914  11.265  0.6354 -0.5643  1.2154
  581MOL0     H76654   3.790   8.976  11.126 -0.5168  0.9554  0.8539
  581MOL0     H76655   3.953   9.034  10.962 -1.6241  0.5367  6.7696
  581MOL0     H76656   4.183   9.261  10.787  2.3179 -1.2626  0.7077
  581MOL0     H76657   4.366   9.350  10.657 -0.3992 -1.6856  1.5915
  581MOL0     H76658   4.497   9.433  10.513 -0.6937 -0.8705  0.7923
  581MOL0     H76659   4.368   9.447  10.394 -0.9123 -0.8711 -1.8686
  581MOL0     H76660   4.643   9.382  10.312 -0.3735 -1.6071 -2.0616
  581MOL0     H76661   4.572   9.548  10.320 -2.6932  0.4892  0.8117
  581MOL0     H76662   4.581   9.480  10.084 -3.0031 -0.2588 -3.6603
  581MOL0     H76663   4.423   9.501  10.156 -1.4942 -1.0425  1.4742
  581MOL0     H76664   4.556   9.227  10.093  1.0336  0.3661 -1.1095
  581MOL0     H76665   4.399   9.258  10.169 -2.7462  1.1962 -1.2644
  581MOL0     H76666   4.309   9.382   9.951  2.0382  2.8018 -3.1776
  581MOL0     H76667   4.352   9.214   9.939 -0.1846  0.5193 -0.8331
  581MOL0     H76668   4.582   9.304   9.865 -2.7340 -4.5084  1.6491
  581MOL0     H76669   4.498   9.461   9.836 -5.2599  1.2080  1.5061
  581MOL0     H76670   4.426   9.189   9.709 -1.4039 -0.5678  0.8160
  581MOL0     H76671   4.321   9.338   9.707 -1.0393 -0.3442  3.2046
  581MOL0     H76672   4.606   9.343   9.605  0.9552  5.9786 -0.5322
  581MOL0     H76673   4.485   9.473   9.631  2.2957  0.3927  1.4996
  581MOL0     H76674   4.306   9.055  10.349 -1.0013 -0.0797 -0.0504
  581MOL0     H76675   4.098   8.964  10.490 -1.7672 -0.2004  2.6832
  581MOL0     H76676   3.629   9.081  10.660 -0.1048 -0.1385 -0.7259
  581MOL0     H76677   3.473   9.037  10.837  1.1987  1.2054 -1.8349
  581MOL0     H76678   4.493   8.923  10.495  4.4575 -3.2467  3.7326
  581MOL0     H76679   4.622   9.086  10.341 -0.6229 -1.0929  1.1540
  581MOL0     H76680   4.765   9.226  10.039  0.3464  0.4445 -1.9205
  581MOL0     H76681   4.862   9.411   9.931 -0.7895 -0.5992 -0.6330
  581MOL0     H76682   4.979   9.462   9.779  1.4053 -2.3000  0.8929
  581MOL0     H76683   5.125   9.416   9.709  2.0604  3.4325 -2.8686
  581MOL0     H76684   5.047   9.700   9.798 -1.8038 -1.0476 -0.5080
  581MOL0     H76685   5.218   9.659   9.762 -0.1543 -0.2252  2.4492
  581MOL0     H76686   4.973   9.648   9.572 -0.6533  0.8896 -0.6887
  581MOL0     H76687   5.140   9.599   9.531 -0.4777 -0.0696  0.0723
  581MOL0     H76688   5.085   9.837   9.467  0.8339 -1.7058  0.0313
  581MOL0     H76689   5.088   9.862   9.650 -1.1347 -0.4107  0.0435
  581MOL0     H76690   5.495   9.771   9.529 -0.9826 -1.4428 -0.0160
  581MOL0     H76691   5.253   9.285  10.054  0.2301 -2.6865 -1.5072
  581MOL0     H76692   5.158   9.101  10.167  0.1032 -0.9265 -1.9751
  582MOL0     O76693  11.354   8.877   7.191 -0.1866  0.4104 -1.0119
  582MOL0     C76694  11.353   8.794   7.282 -0.1109  0.1602  0.7788
  582MOL0     O76695  11.383   8.665   7.259  0.1779  0.3822 -0.1607
  582MOL0     C76696  11.362   8.603   7.143 -0.3465 -0.1602 -0.0567
  582MOL0     C76697  11.292   8.645   7.027  0.2023 -0.1962  0.0830
  582MOL0     C76698  11.273   8.555   6.924 -0.4699 -0.4121 -0.7616
  582MOL0     C76699  11.341   8.428   6.927  0.2112 -0.2283 -0.0384
  582MOL0     O76700  11.320   8.343   6.823  0.8716  0.2720  0.3172
  582MOL0     C76701  11.210   8.253   6.842  0.3395  0.1137  0.0057
  582MOL0     C76702  11.189   8.160   6.718 -0.1947  0.3603 -0.6932
  582MOL0     C76703  11.130   8.236   6.602 -1.1063  0.0611  0.3411
  582MOL0     C76704  11.164   8.155   6.467  0.8485  0.2314 -0.0283
  582MOL0     C76705  11.093   8.216   6.349  0.0245  0.2746  0.8536
  582MOL0     C76706  11.171   8.338   6.310  0.4249  0.0882 -0.8069
  582MOL0     C76707  11.129   8.389   6.175  0.2175  0.0582  0.0089
  582MOL0     C76708  11.177   8.529   6.159  0.0896 -0.6090 -0.3776
  582MOL0     N76709  11.318   8.542   6.192  0.8785  0.4973 -0.5079
  582MOL0     C76710  11.424   8.509   6.115 -0.9559 -0.3932  0.4272
  582MOL0     C76711  11.523   8.576   6.172  0.0599  0.6879 -0.2398
  582MOL0     C76712  11.657   8.606   6.112 -0.2331 -0.5526 -1.4303
  582MOL0     C76713  11.778   8.603   6.207 -0.1060 -0.7855  0.0105
  582MOL0     C76714  11.824   8.465   6.256  0.2703 -0.3980  0.6580
  582MOL0     C76715  11.735   8.404   6.361  0.7139 -0.2451 -0.4934
  582MOL0     O76716  11.814   8.310   6.425 -0.3170  1.1695 -0.0794
  582MOL0     C76717  11.761   8.229   6.524 -0.4856  0.3742 -0.5771
  582MOL0     C76718  11.649   8.270   6.593 -0.3436 -0.8223 -0.3174
  582MOL0     C76719  11.599   8.195   6.699 -0.1612 -0.3078  1.0765
  582MOL0     C76720  11.649   8.069   6.729  0.2592 -0.0714  1.1466
  582MOL0     C76721  11.602   8.000   6.844 -0.0539 -0.0693 -0.0532
  582MOL0     O76722  11.555   8.085   6.940 -0.3456 -0.0865 -0.4948
  582MOL0     C76723  11.495   8.035   7.062 -1.0628 -1.1314 -1.0445
  582MOL0     C76724  11.383   7.958   7.072  1.4419 -0.1858 -0.2716
  582MOL0     C76725  11.318   7.928   7.189 -0.0083  0.1914 -0.5297
  582MOL0     C76726  11.365   7.973   7.310 -0.6189  0.2651 -0.6975
  582MOL0     O76727  11.311   7.915   7.421  0.6830  0.2027 -0.8168
  582MOL0     C76728  11.406   7.887   7.528  0.4013 -0.8799  0.9225
  582MOL0     C76729  11.354   7.767   7.611 -1.1526 -1.0791 -0.6551
  582MOL0     C76730  11.431   7.754   7.741  0.5847 -0.0574 -0.2996
  582MOL0     C76731  11.375   7.855   7.843 -0.2880 -0.1262 -0.4909
  582MOL0     C76732  11.479   7.902   7.949 -0.5848 -1.1363  0.3110
  582MOL0     C76733  11.534   7.789   8.042  1.0132  0.1237  0.5911
  582MOL0     C76734  11.583   7.849   8.173 -0.7176  1.0240 -0.5807
  582MOL0     C76735  11.627   7.738   8.265  0.8216  0.2373  0.0651
  582MOL0    Cl76736  11.776   7.673   8.207 -0.1290  0.5172  0.4696
  582MOL0     C76737  11.488   8.049   7.307  0.5843  0.5788 -0.7307
  582MOL0     C76738  11.550   8.080   7.183  0.2278 -0.3793  0.5079
  582MOL0     O76739  11.600   7.877   6.849 -0.4125  0.0528  0.4449
  582MOL0     C76740  11.763   8.025   6.656  0.6119  0.3407  0.0844
  582MOL0     C76741  11.812   8.100   6.552 -0.9550  0.1077  0.3752
  582MOL0     N76742  11.493   8.618   6.299  0.8481  0.8469 -0.0179
  582MOL0     N76743  11.369   8.592   6.314  0.0357 -0.2620  0.6069
  582MOL0     C76744  11.420   8.390   7.035 -0.0539  0.1659  0.1773
  582MOL0     C76745  11.434   8.478   7.144  0.0092  0.2127  0.8685
  582MOL0     C76746  11.343   8.839   7.420  0.6223 -0.2124 -0.9556
  582MOL0     C76747  11.346   8.747   7.521  0.4304  1.2690  0.9106
  582MOL0     C76748  11.357   8.781   7.650  0.7362 -0.4595 -1.0539
  582MOL0     C76749  11.355   8.918   7.688 -0.3455  0.2935  0.1502
  582MOL0     O76750  11.360   8.941   7.824 -0.6951  0.0187 -0.1321
  582MOL0     C76751  11.404   9.075   7.874 -0.6033 -0.4800 -0.1465
  582MOL0     C76752  11.554   9.059   7.931  0.0684 -0.1507  0.0206
  582MOL0     C76753  11.639   9.004   7.819  0.1132 -0.6412 -0.9856
  582MOL0     C76754  11.780   9.002   7.882  0.4164  0.5474  0.7940
  582MOL0     C76755  11.862   9.117   7.842  0.2274  0.9486 -0.2318
  582MOL0     C76756  11.915   9.213   7.803 -1.2578  0.3663  0.6471
  582MOL0     C76757  11.342   9.012   7.588 -0.0066 -0.8741 -0.2110
  582MOL0     C76758  11.353   8.977   7.458  1.2306 -0.4366  0.0101
  582MOL0     H76759  11.240   8.739   7.017 -1.1843 -0.5557  2.8871
  582MOL0     H76760  11.208   8.580   6.840 -1.0950  2.4285  0.4521
  582MOL0     H76761  11.125   8.318   6.865  0.2971 -0.8450  3.0477
  582MOL0     H76762  11.228   8.189   6.929  1.8531 -0.6655 -0.8380
  582MOL0     H76763  11.120   8.088   6.763 -0.7910  1.7970  0.7798
  582MOL0     H76764  11.278   8.101   6.694 -0.1560 -1.5446  3.3508
  582MOL0     H76765  11.174   8.336   6.593  0.2283 -0.6241 -1.2725
  582MOL0     H76766  11.023   8.249   6.622 -1.1498 -2.3850  2.1396
  582MOL0     H76767  11.272   8.165   6.453  1.2554  0.2837  2.6601
  582MOL0     H76768  11.136   8.051   6.482 -0.2069  0.8804  3.3403
  582MOL0     H76769  10.986   8.235   6.363 -0.2088  3.2829 -3.0120
  582MOL0     H76770  11.108   8.140   6.271  3.1563  0.6115  0.9836
  582MOL0     H76771  11.279   8.318   6.306  0.4862 -0.6052  2.1830
  582MOL0     H76772  11.153   8.421   6.378 -0.8791 -0.9770  0.1848
  582MOL0     H76773  11.166   8.314   6.105  1.4750 -1.0236  1.7566
  582MOL0     H76774  11.022   8.410   6.169  0.9555  4.4570 -1.2172
  582MOL0     H76775  11.119   8.603   6.217 -0.5188 -3.3967  2.8779
  582MOL0     H76776  11.163   8.563   6.056  0.4522 -0.8894 -0.5185
  582MOL0     H76777  11.434   8.463   6.017  0.3316 -1.6981  1.1377
  582MOL0     H76778  11.653   8.706   6.068  0.2799  0.0131 -0.2484
  582MOL0     H76779  11.672   8.530   6.036 -1.3105 -0.1631 -2.0411
  582MOL0     H76780  11.779   8.678   6.286 -1.0149  0.3376 -1.0198
  582MOL0     H76781  11.865   8.626   6.144 -0.4934 -1.5155 -0.8156
  582MOL0     H76782  11.828   8.391   6.176  1.3439  0.8746 -0.5073
  582MOL0     H76783  11.926   8.478   6.293 -0.7894 -0.3071  3.9175
  582MOL0     H76784  11.642   8.362   6.320 -0.2084  0.2570  1.0179
  582MOL0     H76785  11.693   8.480   6.428  0.2851  2.1688 -3.2943
  582MOL0     H76786  11.587   8.359   6.585 -1.3046 -1.5023 -0.6382
  582MOL0     H76787  11.509   8.229   6.749  0.2938 -0.7750  2.2499
  582MOL0     H76788  11.340   7.945   6.973  2.5487  1.4279 -1.0284
  582MOL0     H76789  11.226   7.871   7.189 -0.3797  0.7709 -1.9906
  582MOL0     H76790  11.419   7.972   7.595 -1.3989 -1.5500  2.1922
  582MOL0     H76791  11.498   7.859   7.477 -0.0343 -1.5927  0.5136
  582MOL0     H76792  11.366   7.674   7.556  2.8817 -0.9862 -0.3008
  582MOL0     H76793  11.248   7.772   7.638 -0.8057 -1.0964  0.8298
  582MOL0     H76794  11.534   7.786   7.723  2.0118 -1.5633  3.8666
  582MOL0     H76795  11.436   7.646   7.760 -0.8278 -0.1585 -0.4094
  582MOL0     H76796  11.332   7.947   7.802 -0.9938  1.1088  2.7465
  582MOL0     H76797  11.304   7.804   7.909 -1.6849  0.4917 -1.4601
  582MOL0     H76798  11.428   7.971   8.016  0.5867  3.3513 -2.8880
  582MOL0     H76799  11.569   7.952   7.911  0.5593 -3.3042  0.0167
  582MOL0     H76800  11.604   7.729   7.983 -1.1529 -2.9525  0.8517
  582MOL0     H76801  11.450   7.718   8.049 -1.6218  2.6199 -2.3709
  582MOL0     H76802  11.665   7.921   8.163  1.2737 -0.7377  1.6748
  582MOL0     H76803  11.492   7.900   8.206  0.3194  1.8216  1.2477
  582MOL0     H76804  11.557   7.654   8.264  0.4177  0.2826  4.3888
  582MOL0     H76805  11.632   7.783   8.365 -2.2855  0.8423  0.0688
  582MOL0     H76806  11.535   8.083   7.399 -0.6933 -1.5184  0.8018
  582MOL0     H76807  11.634   8.148   7.180  0.3213 -0.3542  2.3445
  582MOL0     H76808  11.809   7.931   6.684  0.2381 -0.1415 -0.8535
  582MOL0     H76809  11.901   8.080   6.493 -0.4593  2.4204  0.2544
  582MOL0     H76810  11.469   8.293   7.031 -3.6487 -1.7856 -0.7675
  582MOL0     H76811  11.496   8.458   7.231  0.6062  2.3600  0.9738
  582MOL0     H76812  11.320   8.644   7.498  0.7359  0.9552  1.9489
  582MOL0     H76813  11.374   8.699   7.719  0.7394  0.6279  0.2683
  582MOL0     H76814  11.345   9.095   7.963 -3.5198 -4.1654 -0.9837
  582MOL0     H76815  11.406   9.156   7.801  0.2635 -1.1229 -0.8581
  582MOL0     H76816  11.595   9.157   7.955  0.0905 -0.4958  1.4645
  582MOL0     H76817  11.553   8.990   8.016  2.6916  1.7683  1.7881
  582MOL0     H76818  11.643   9.072   7.734 -2.2170  3.4713  1.8570
  582MOL0     H76819  11.598   8.905   7.797 -0.0689 -1.2526  1.7654
  582MOL0     H76820  11.768   9.018   7.990  1.5604  2.6080  0.6636
  582MOL0     H76821  11.823   8.905   7.857 -2.4425 -1.7807  3.9229
  582MOL0     H76822  11.961   9.303   7.766 -0.4729  0.5588  2.0142
  582MOL0     H76823  11.355   9.116   7.617  0.0785 -1.0207  0.2879
  582MOL0     H76824  11.349   9.047   7.376  0.5950 -0.7522 -0.2350
  583MOL0     O76825   5.803   8.308   9.206 -0.7306 -0.3479  0.1945
  583MOL0     C76826   5.727   8.278   9.296 -0.0980 -0.5752 -0.4864
  583MOL0     O76827   5.590   8.260   9.287 -0.0758 -0.7197  0.0633
  583MOL0     C76828   5.516   8.280   9.176  0.2426 -0.0540  0.0147
  583MOL0     C76829   5.562   8.258   9.050 -0.3587 -0.5864  0.1913
  583MOL0     C76830   5.476   8.258   8.940  0.0004  0.3393  0.1984
  583MOL0     C76831   5.347   8.313   8.955 -0.0495  0.0268 -1.5038
  583MOL0     O76832   5.263   8.307   8.852 -0.2543  0.0735 -0.4018
  583MOL0     C76833   5.133   8.371   8.872 -0.3101  0.6204  0.7207
  583MOL0     C76834   5.065   8.369   8.739 -0.7442  0.5725  0.0045
  583MOL0     C76835   5.121   8.478   8.646  0.2894  0.5047 -0.8786
  583MOL0     C76836   5.055   8.496   8.509  0.2036  0.9914  0.7668
  583MOL0     C76837   5.147   8.593   8.426 -0.4254 -0.2209  0.1024
  583MOL0     C76838   5.144   8.743   8.484 -0.0846  0.7153  1.0690
  583MOL0     C76839   5.007   8.800   8.460  0.9118 -0.2916  0.3391
  583MOL0     C76840   5.013   8.934   8.537 -0.8367 -0.8829 -0.3975
  583MOL0     N76841   4.881   9.004   8.529  0.0697 -0.3383 -0.8772
  583MOL0     C76842   4.827   9.071   8.413  0.6941  0.0942  0.6469
  583MOL0     C76843   4.725   9.145   8.463 -0.1644 -0.2992 -0.3683
  583MOL0     C76844   4.633   9.237   8.380 -0.4632  0.0094 -0.7309
  583MOL0     C76845   4.490   9.178   8.354 -0.4934 -0.3228  0.4246
  583MOL0     C76846   4.412   9.253   8.251 -0.9194  0.5898  0.0064
  583MOL0     C76847   4.306   9.170   8.187  0.3667 -0.1937  0.4419
  583MOL0     O76848   4.237   9.265   8.099 -0.2121  0.4259  0.4224
  583MOL0     C76849   4.122   9.234   8.029  0.0785 -0.0683 -0.2574
  583MOL0     C76850   4.079   9.337   7.939  1.3099  0.1999  0.5455
  583MOL0     C76851   3.958   9.315   7.867  0.1764 -0.0045  0.8554
  583MOL0     C76852   3.881   9.198   7.893  1.0259 -0.1904  0.3451
  583MOL0     C76853   3.763   9.177   7.806  0.6976 -0.5094 -0.2534
  583MOL0     O76854   3.726   9.048   7.795  0.6243  0.1683 -0.2358
  583MOL0     C76855   3.684   8.993   7.679  0.4364 -0.6304 -0.0561
  583MOL0     C76856   3.588   8.893   7.681  0.1187  1.0615 -0.0072
  583MOL0     C76857   3.549   8.828   7.573  0.4241  1.0776  1.0509
  583MOL0     C76858   3.624   8.846   7.456  0.8977  0.9559  0.2598
  583MOL0     O76859   3.610   8.774   7.340  0.1544  0.3440 -0.8079
  583MOL0     C76860   3.552   8.636   7.339 -0.6211  0.2895  0.3696
  583MOL0     C76861   3.404   8.640   7.317 -0.0366  0.7149  0.7743
  583MOL0     C76862   3.362   8.712   7.190 -0.8748  0.2456  0.3232
  583MOL0     C76863   3.209   8.731   7.189  0.5452 -0.4282 -0.4757
  583MOL0     C76864   3.162   8.743   7.041 -0.3100 -0.0698  0.7017
  583MOL0     C76865   3.021   8.794   7.042  0.1865  0.0102  1.0077
  583MOL0     C76866   2.982   8.832   6.903 -0.0626 -0.5787  0.6112
  583MOL0     C76867   2.854   8.896   6.870  1.1513  0.0037 -0.7800
  583MOL0    Cl76868   2.718   8.832   6.966 -0.1270  0.5674  0.2998
  583MOL0     C76869   3.711   8.951   7.444  0.1191 -0.5530  0.4280
  583MOL0     C76870   3.742   9.029   7.550 -0.6893  0.6940  0.6208
  583MOL0     O76871   3.718   9.267   7.740 -0.0981 -0.4241  1.2093
  583MOL0     C76872   3.913   9.118   7.996  0.5796  0.3302 -0.6784
  583MOL0     C76873   4.038   9.133   8.064  0.1023 -0.7397  0.0472
  583MOL0     N76874   4.712   9.124   8.605  0.8645  0.9370  0.3825
  583MOL0     N76875   4.802   9.042   8.633  0.9058  0.8714 -0.8269
  583MOL0     C76876   5.305   8.350   9.085  0.2816  0.2639  0.4833
  583MOL0     C76877   5.387   8.326   9.192  0.5304  0.1101  0.4676
  583MOL0     C76878   5.790   8.257   9.437 -1.0433  0.4949  0.1903
  583MOL0     C76879   5.929   8.274   9.456  0.3003  0.8931 -0.6375
  583MOL0     C76880   5.996   8.236   9.578 -0.2070 -0.3502  0.9348
  583MOL0     C76881   5.923   8.182   9.681  0.1664  0.6960 -0.7727
  583MOL0     O76882   5.967   8.143   9.806  0.7266  0.3862  0.0199
  583MOL0     C76883   6.068   8.230   9.859  0.1862 -0.2158  0.9661
  583MOL0     C76884   6.105   8.191   9.999 -1.2395  1.2806 -1.1750
  583MOL0     C76885   6.244   8.249  10.048  1.1392  0.1841  0.1122
  583MOL0     C76886   6.274   8.238  10.201  0.3510  0.4066  0.6549
  583MOL0     C76887   6.165   8.285  10.295  1.0956  0.6818 -1.5735
  583MOL0     C76888   6.087   8.315  10.384 -0.1703 -0.3962  0.2146
  583MOL0     C76889   5.782   8.159   9.663  0.4534 -0.7233  0.0593
  583MOL0     C76890   5.721   8.191   9.542 -0.3734 -0.3465 -0.6699
  583MOL0     H76891   5.667   8.230   9.040  1.2136  2.7880  4.2671
  583MOL0     H76892   5.516   8.221   8.846  0.6935  1.2407  0.1289
  583MOL0     H76893   5.149   8.474   8.907 -4.4226  1.8608 -0.5332
  583MOL0     H76894   5.072   8.313   8.942 -0.0303  0.0994  0.5335
  583MOL0     H76895   4.958   8.381   8.761 -0.2227  0.1065  3.2763
  583MOL0     H76896   5.079   8.273   8.689  0.2985  1.3266 -1.2156
  583MOL0     H76897   5.223   8.441   8.631  0.2523 -0.8736  1.6571
  583MOL0     H76898   5.133   8.574   8.696  3.2611  0.1357 -0.6792
  583MOL0     H76899   5.043   8.404   8.450 -1.9896  0.9642  1.1456
  583MOL0     H76900   4.956   8.541   8.526 -1.6375 -2.3431 -0.2340
  583MOL0     H76901   5.105   8.592   8.325  3.9328 -0.8844 -1.9192
  583MOL0     H76902   5.251   8.561   8.416 -0.3843 -1.2141  2.8666
  583MOL0     H76903   5.227   8.791   8.432  1.8753 -1.9310  1.5499
  583MOL0     H76904   5.173   8.748   8.589  2.2381 -1.3432  0.6219
  583MOL0     H76905   4.998   8.810   8.352 -1.6068 -1.5746  0.3587
  583MOL0     H76906   4.918   8.753   8.503 -0.6783  0.6827 -1.6873
  583MOL0     H76907   5.089   9.000   8.494 -1.4534 -1.1469 -1.9640
  583MOL0     H76908   5.042   8.914   8.641  0.2484  0.7521 -0.3402
  583MOL0     H76909   4.855   9.080   8.309  2.0426  1.3729  1.0846
  583MOL0     H76910   4.678   9.250   8.282 -3.2151  1.5356 -1.9171
  583MOL0     H76911   4.636   9.333   8.433  0.0283  0.1028 -0.9272
  583MOL0     H76912   4.440   9.173   8.451  3.1082  2.1736  2.6696
  583MOL0     H76913   4.505   9.077   8.316  1.4446 -1.0376  2.8328
  583MOL0     H76914   4.371   9.339   8.304 -2.6504 -1.0013  1.3618
  583MOL0     H76915   4.475   9.294   8.171 -0.3356 -1.2832 -0.5584
  583MOL0     H76916   4.235   9.131   8.261 -1.0576  0.7065 -0.4107
  583MOL0     H76917   4.345   9.087   8.128 -0.9570 -1.2839  1.0493
  583MOL0     H76918   4.154   9.411   7.911  2.4788 -1.3410 -0.5357
  583MOL0     H76919   3.927   9.383   7.788 -0.8810 -3.8371 -2.3419
  583MOL0     H76920   3.524   8.881   7.768  0.1545 -0.0577 -0.1199
  583MOL0     H76921   3.461   8.768   7.593  1.3280 -0.4976  0.4361
  583MOL0     H76922   3.576   8.593   7.437  1.0721  2.0264  0.7698
  583MOL0     H76923   3.606   8.586   7.257 -3.2722 -1.3855 -0.4694
  583MOL0     H76924   3.369   8.695   7.405 -0.4757  0.4800  0.7476
  583MOL0     H76925   3.366   8.538   7.320  3.5662 -0.7489  1.6700
  583MOL0     H76926   3.384   8.645   7.106  1.0267 -0.5730  1.4192
  583MOL0     H76927   3.409   8.811   7.182 -0.3684 -0.1279 -3.3130
  583MOL0     H76928   3.160   8.643   7.233  2.6704 -2.3522 -1.7242
  583MOL0     H76929   3.177   8.818   7.247  1.0409 -0.7737  0.3456
  583MOL0     H76930   3.184   8.651   6.985  3.2820  1.6890 -1.1241
  583MOL0     H76931   3.220   8.823   6.996 -1.4743  2.0474  2.7605
  583MOL0     H76932   3.018   8.884   7.105 -0.8996 -1.2869  2.9217
  583MOL0     H76933   2.961   8.724   7.101  0.4673 -0.1214  1.1377
  583MOL0     H76934   3.058   8.894   6.854 -1.5061  1.7851  1.1896
  583MOL0     H76935   2.990   8.735   6.853  1.3650  0.1409 -0.6305
  583MOL0     H76936   2.831   8.890   6.764  2.0238  3.4433 -1.2748
  583MOL0     H76937   2.862   9.004   6.887  2.0472 -0.1873  0.1631
  583MOL0     H76938   3.733   8.980   7.341 -1.0997 -1.2071 -0.0368
  583MOL0     H76939   3.826   9.094   7.531  2.1271 -2.3602  1.7087
  583MOL0     H76940   3.850   9.033   8.018  3.2443 -1.2349  1.6490
  583MOL0     H76941   4.072   9.069   8.144 -0.5928  0.5814  1.4496
  583MOL0     H76942   5.204   8.379   9.112 -0.3398 -0.5970 -0.8714
  583MOL0     H76943   5.345   8.351   9.289 -1.2244  0.8951 -0.4287
  583MOL0     H76944   5.985   8.324   9.377  1.1150  1.8179  0.4857
  583MOL0     H76945   6.100   8.255   9.605 -0.6106  1.4321  1.3822
  583MOL0     H76946   6.029   8.331   9.874 -1.1191 -0.4150 -0.7730
  583MOL0     H76947   6.158   8.243   9.798 -0.5842  3.2072  0.3398
  583MOL0     H76948   6.023   8.233  10.059  0.1045  1.5843  0.5157
  583MOL0     H76949   6.115   8.083  10.013  2.6817  1.2763 -2.9267
  583MOL0     H76950   6.227   8.354  10.023 -2.1164  0.2008  1.8191
  583MOL0     H76951   6.321   8.209   9.983 -1.8129  0.3412 -3.8321
  583MOL0     H76952   6.279   8.133  10.231  1.0597  1.6080  5.7881
  583MOL0     H76953   6.364   8.292  10.232  0.3349 -0.3742  2.1799
  583MOL0     H76954   6.026   8.327  10.472 -1.5582  1.3959 -0.9175
  583MOL0     H76955   5.726   8.120   9.747  0.1617  1.3342  0.8752
  583MOL0     H76956   5.618   8.162   9.526 -1.4136  3.2230 -1.4630
  584MOL0     O76957   1.076   3.082   7.681  0.0598  0.2276 -0.0779
  584MOL0     C76958   1.099   3.095   7.561  0.5083  0.4518 -0.9899
  584MOL0     O76959   1.079   3.009   7.463 -0.0487  0.3955 -0.2966
  584MOL0     C76960   0.980   2.908   7.462 -0.7629  0.2747 -0.7547
  584MOL0     C76961   0.887   2.891   7.565  0.0280  0.1160 -1.3286
  584MOL0     C76962   0.814   2.776   7.578  0.0592  0.0793  0.2295
  584MOL0     C76963   0.809   2.684   7.473  0.9427  0.6384  0.1471
  584MOL0     O76964   0.717   2.578   7.484  0.1789  0.3248  0.0048
  584MOL0     C76965   0.697   2.490   7.380 -0.1536 -0.5206  0.0143
  584MOL0     C76966   0.566   2.404   7.401 -0.0100 -0.1056  0.9436
  584MOL0     C76967   0.562   2.289   7.296  0.9035 -0.0553  0.3981
  584MOL0     C76968   0.430   2.216   7.301 -0.2021 -0.8261 -0.2863
  584MOL0     C76969   0.408   2.110   7.195  0.4242  0.5411  1.0608
  584MOL0     C76970   0.525   2.014   7.163  0.0099 -0.3756 -0.1502
  584MOL0     C76971   0.482   1.909   7.064  0.1425  0.0136  0.1704
  584MOL0     C76972   0.550   1.770   7.078  0.1423 -0.1750  0.4737
  584MOL0     N76973   0.482   1.659   7.026 -1.0807  0.6184 -0.1394
  584MOL0     C76974   0.426   1.660   6.900 -0.0795 -0.1350 -0.0653
  584MOL0     C76975   0.429   1.530   6.870  0.8967 -0.0190  0.6547
  584MOL0     C76976   0.366   1.483   6.741 -0.2248 -0.1133  0.9467
  584MOL0     C76977   0.214   1.501   6.745 -0.4770  0.0010 -0.0932
  584MOL0     C76978   0.165   1.526   6.604 -0.5156  0.4992  0.0817
  584MOL0     C76979   0.017   1.567   6.598 -0.4939 -0.8990  0.2697
  584MOL0     O76980  -0.019   1.589   6.467  0.1853 -1.0870 -0.6874
  584MOL0     C76981  -0.056   1.484   6.385 -0.1032 -0.7412  0.4761
  584MOL0     C76982  -0.064   1.354   6.423  0.2250  0.8629 -0.4515
  584MOL0     C76983  -0.121   1.259   6.333  0.1596 -0.4808 -0.5875
  584MOL0     C76984  -0.148   1.295   6.198  0.7369 -0.2655  0.4426
  584MOL0     C76985  -0.209   1.200   6.101  1.3177 -0.6506  0.3719
  584MOL0     O76986  -0.244   1.075   6.145  0.3601  0.0068  0.0596
  584MOL0     C76987  -0.329   1.003   6.061 -0.1460 -0.1112  0.3256
  584MOL0     C76988  -0.459   0.976   6.103  0.4978 -0.0896 -0.7373
  584MOL0     C76989  -0.554   0.919   6.020  0.7691 -0.0019  0.3561
  584MOL0     C76990  -0.521   0.863   5.903  1.1459  1.4439  0.7058
  584MOL0     O76991  -0.602   0.796   5.818 -0.4879 -0.4776  0.2680
  584MOL0     C76992  -0.731   0.752   5.850  0.4405  0.6840 -0.0113
  584MOL0     C76993  -0.790   0.714   5.716  0.2575 -0.1222 -0.4684
  584MOL0     C76994  -0.744   0.570   5.675  0.1810 -0.9007 -0.0856
  584MOL0     C76995  -0.746   0.561   5.525 -0.2791  0.2376  1.1753
  584MOL0     C76996  -0.716   0.427   5.462  0.0730 -1.0652  0.3187
  584MOL0     C76997  -0.590   0.355   5.511 -0.2635  0.1197  0.4234
  584MOL0     C76998  -0.458   0.431   5.478  0.0665 -0.4106 -0.6013
  584MOL0     C76999  -0.405   0.381   5.343 -0.5881  0.7258 -0.0982
  584MOL0    Cl77000  -0.465   0.452   5.188  0.1744  0.1586  0.1433
  584MOL0     C77001  -0.392   0.880   5.856  0.4115  0.2895  0.4239
  584MOL0     C77002  -0.297   0.947   5.934 -0.7061  0.1732  0.4362
  584MOL0     O77003  -0.220   1.238   5.982 -0.9492  0.3254  0.2870
  584MOL0     C77004  -0.139   1.428   6.162 -0.2014  0.6289  0.5638
  584MOL0     C77005  -0.092   1.518   6.254 -1.0165  0.7305 -0.3527
  584MOL0     N77006   0.481   1.453   6.972 -0.2939 -0.3501  0.6538
  584MOL0     N77007   0.521   1.529   7.068  0.2157 -0.3759 -0.2140
  584MOL0     C77008   0.891   2.701   7.361 -0.0327  0.2659 -0.5918
  584MOL0     C77009   0.979   2.818   7.358  0.3819  0.2874  0.6288
  584MOL0     C77010   1.184   3.213   7.534  0.0191  0.2934 -0.3103
  584MOL0     C77011   1.230   3.291   7.646  0.4408 -0.5748 -0.2862
  584MOL0     C77012   1.315   3.399   7.619  0.2937  0.2949  0.0506
  584MOL0     C77013   1.368   3.423   7.487 -0.4206  0.2242 -0.0088
  584MOL0     O77014   1.453   3.531   7.473 -0.2704  0.7648  0.6778
  584MOL0     C77015   1.456   3.579   7.336 -0.6323  0.1529 -1.1089
  584MOL0     C77016   1.490   3.731   7.363 -0.0873 -0.6381  0.1571
  584MOL0     C77017   1.641   3.745   7.416  0.7367  0.1571 -0.1926
  584MOL0     C77018   1.684   3.890   7.422 -0.1840  0.0603 -0.5282
  584MOL0     C77019   1.829   3.906   7.453 -0.3276 -0.0361 -0.4256
  584MOL0     C77020   1.951   3.932   7.460  0.8856 -0.6605  0.0113
  584MOL0     C77021   1.330   3.336   7.387  0.2450 -0.5575  0.1837
  584MOL0     C77022   1.237   3.238   7.410  0.2866  0.6956  0.2415
  584MOL0     H77023   0.894   2.967   7.643  0.4978  0.1836 -1.4303
  584MOL0     H77024   0.759   2.750   7.667  2.3168 -1.6386  1.2068
  584MOL0     H77025   0.782   2.421   7.383 -0.6402 -1.0985  1.6777
  584MOL0     H77026   0.695   2.547   7.286 -0.5123  3.0831  2.0333
  584MOL0     H77027   0.483   2.474   7.391 -0.0386 -0.2366  0.2106
  584MOL0     H77028   0.562   2.365   7.503  1.1554  0.5771  1.2659
  584MOL0     H77029   0.632   2.208   7.316 -1.7605 -2.9123 -0.9021
  584MOL0     H77030   0.586   2.331   7.198 -2.6427  2.2684  0.3267
  584MOL0     H77031   0.422   2.162   7.396 -0.9706 -0.7100 -0.2797
  584MOL0     H77032   0.346   2.286   7.293  2.2089  2.0900 -2.4469
  584MOL0     H77033   0.388   2.157   7.099  0.5384  0.7410  1.1339
  584MOL0     H77034   0.321   2.048   7.219  0.8521 -1.5520 -2.0843
  584MOL0     H77035   0.554   1.974   7.260 -4.2624  0.7549  1.7920
  584MOL0     H77036   0.607   2.069   7.114 -0.6739 -1.0507 -2.1654
  584MOL0     H77037   0.376   1.892   7.087 -0.2594  3.0330  0.9493
  584MOL0     H77038   0.495   1.941   6.960  0.2208 -3.8257 -1.1680
  584MOL0     H77039   0.570   1.750   7.183  3.1833 -0.9104 -0.1580
  584MOL0     H77040   0.651   1.787   7.039  0.2313  0.3675  0.9307
  584MOL0     H77041   0.407   1.747   6.838 -1.6235 -0.7294 -0.4790
  584MOL0     H77042   0.374   1.375   6.731  0.3225  0.0114 -0.0410
  584MOL0     H77043   0.414   1.532   6.656  0.0490  1.9290  2.2102
  584MOL0     H77044   0.184   1.585   6.809 -1.0768  0.4115 -0.8913
  584MOL0     H77045   0.176   1.410   6.792 -0.3929  0.6465  1.2675
  584MOL0     H77046   0.220   1.612   6.565 -0.1967 -0.2557 -1.1755
  584MOL0     H77047   0.183   1.447   6.531  0.0664 -0.5796  1.3528
  584MOL0     H77048   0.010   1.658   6.659 -2.0173 -0.0393 -1.1128
  584MOL0     H77049  -0.050   1.494   6.644 -3.7974 -0.0183 -2.7404
  584MOL0     H77050  -0.060   1.313   6.523 -3.4320  0.0705 -0.4836
  584MOL0     H77051  -0.141   1.156   6.360 -0.0377 -0.1462  0.5816
  584MOL0     H77052  -0.483   1.010   6.203 -3.5350 -1.6324 -0.9856
  584MOL0     H77053  -0.655   0.917   6.061  1.5422  1.2514  2.4650
  584MOL0     H77054  -0.789   0.832   5.898 -1.6822 -1.3323  0.9647
  584MOL0     H77055  -0.731   0.675   5.928 -1.3880 -1.3478 -1.8907
  584MOL0     H77056  -0.758   0.787   5.641 -1.7859  0.4766 -0.8446
  584MOL0     H77057  -0.898   0.703   5.730  0.8261 -2.1819  3.7696
  584MOL0     H77058  -0.811   0.492   5.712 -2.2997  1.9826  2.0068
  584MOL0     H77059  -0.639   0.555   5.702  0.7503 -1.6565 -2.5266
  584MOL0     H77060  -0.846   0.589   5.492 -0.6651  0.4869  2.4890
  584MOL0     H77061  -0.681   0.639   5.485 -0.7952  0.0852  0.0208
  584MOL0     H77062  -0.712   0.446   5.355 -0.7389 -1.0425  0.2816
  584MOL0     H77063  -0.796   0.353   5.476 -0.0754 -0.6901  1.6612
  584MOL0     H77064  -0.585   0.255   5.466  2.2836  0.8647 -1.1833
  584MOL0     H77065  -0.597   0.351   5.620  2.4667  2.0509  0.7971
  584MOL0     H77066  -0.483   0.538   5.483  1.2770 -0.1151  4.2105
  584MOL0     H77067  -0.389   0.418   5.562 -1.5423  0.2644  0.8958
  584MOL0     H77068  -0.395   0.273   5.333  0.3809  0.7234  0.7070
  584MOL0     H77069  -0.303   0.420   5.349 -0.3129 -0.1374  1.2089
  584MOL0     H77070  -0.361   0.830   5.765 -0.9039 -1.6376  0.9752
  584MOL0     H77071  -0.205   0.976   5.886 -1.4286 -1.6738 -2.2899
  584MOL0     H77072  -0.167   1.467   6.064 -3.3486 -3.3785 -0.3967
  584MOL0     H77073  -0.069   1.618   6.220 -0.2348  0.7471  0.2079
  584MOL0     H77074   0.890   2.640   7.271  0.7091 -1.3370  0.4432
  584MOL0     H77075   1.037   2.837   7.268 -2.4411  2.9826 -0.8060
  584MOL0     H77076   1.200   3.268   7.747 -1.4468  4.0605  0.4287
  584MOL0     H77077   1.337   3.466   7.702  2.2773  0.3234 -0.4459
  584MOL0     H77078   1.362   3.557   7.285 -0.9351 -2.8213  0.4915
  584MOL0     H77079   1.538   3.525   7.288 -0.2992 -2.8919  2.4266
  584MOL0     H77080   1.486   3.772   7.262  0.3767 -2.3416 -0.5871
  584MOL0     H77081   1.422   3.785   7.430 -0.3006  0.3265 -0.8091
  584MOL0     H77082   1.711   3.690   7.353  0.5574  1.0148 -1.1558
  584MOL0     H77083   1.635   3.689   7.510 -0.2452 -1.1101 -0.9750
  584MOL0     H77084   1.654   3.939   7.329  1.3669  1.5758 -0.2684
  584MOL0     H77085   1.635   3.948   7.501  0.1450  2.7692 -2.1957
  584MOL0     H77086   2.057   3.938   7.449  0.6945 -0.4356 -2.2941
  584MOL0     H77087   1.356   3.346   7.282 -1.4746 -0.0058 -0.2096
  584MOL0     H77088   1.200   3.181   7.325 -1.0353  1.7527  0.0634
  585MOL0     O77089   5.429   9.940   4.598  0.4374 -0.3796  0.0993
  585MOL0     C77090   5.428   9.817   4.570  0.3331  0.3422  0.4767
  585MOL0     O77091   5.535   9.739   4.534  0.1446 -0.6108 -0.1435
  585MOL0     C77092   5.662   9.803   4.508  1.2367  0.2602  0.6390
  585MOL0     C77093   5.775   9.716   4.526  0.0568 -1.0330 -0.1815
  585MOL0     C77094   5.902   9.776   4.513  0.3785 -1.0118  0.5303
  585MOL0     C77095   5.915   9.907   4.468  0.4884  0.5436 -1.5711
  585MOL0     O77096   6.045   9.956   4.449  0.1019  0.5900  0.0539
  585MOL0     C77097   6.143   9.938   4.550  0.0576  0.2200  0.2568
  585MOL0     C77098   6.250  10.049   4.521  0.1809 -0.2799 -0.3868
  585MOL0     C77099   6.334  10.045   4.398  0.1403  0.3767  0.6971
  585MOL0     C77100   6.429   9.923   4.397  0.6053 -0.2534 -0.2982
  585MOL0     C77101   6.530   9.914   4.284  0.2190 -0.2215  0.3092
  585MOL0     C77102   6.625  10.020   4.319 -0.2658  0.0410  0.5148
  585MOL0     C77103   6.761  10.013   4.241  0.8519  0.5816 -0.3985
  585MOL0     C77104   6.861   9.939   4.323  0.6713 -0.4621  0.6237
  585MOL0     N77105   6.986   9.909   4.239  0.0016 -1.2916  0.6063
  585MOL0     C77106   7.083   9.994   4.239 -0.3766 -0.0786 -0.2136
  585MOL0     C77107   7.165   9.967   4.139  0.3962 -0.8445  0.4253
  585MOL0     C77108   7.276  10.055   4.096  0.4038 -1.4434  0.7155
  585MOL0     C77109   7.392  10.067   4.199 -0.4566  1.0417  0.7498
  585MOL0     C77110   7.482   9.939   4.185 -0.1561 -0.3538  0.7517
  585MOL0     C77111   7.624   9.952   4.252  0.5057 -0.0350 -0.4230
  585MOL0     O77112   7.625  10.013   4.375  0.2036  0.5314 -0.5067
  585MOL0     C77113   7.743  10.016   4.444  0.2124  0.5946  0.4785
  585MOL0     C77114   7.763  10.126   4.521 -0.2658  0.5393  0.0808
  585MOL0     C77115   7.878  10.137   4.593 -0.4789  0.2364 -0.8189
  585MOL0     C77116   7.986  10.050   4.572 -0.3432 -0.1699  0.3079
  585MOL0     C77117   8.104  10.062   4.648 -0.1175 -0.0624 -0.5347
  585MOL0     O77118   8.110  10.166   4.743  0.0102  0.5399  0.0391
  585MOL0     C77119   8.211  10.174   4.836 -0.5265  0.0881 -0.2012
  585MOL0     C77120   8.276  10.065   4.903 -0.4679 -0.1369 -0.3958
  585MOL0     C77121   8.382  10.081   4.989 -0.3093  0.0128 -0.0243
  585MOL0     C77122   8.437  10.210   5.011 -0.2898 -0.6745  0.1844
  585MOL0     O77123   8.539  10.243   5.104 -0.3077 -0.5958  0.4943
  585MOL0     C77124   8.609  10.140   5.169  0.9296  0.0695 -0.8964
  585MOL0     C77125   8.729  10.201   5.239  0.1723  1.5205 -0.1317
  585MOL0     C77126   8.845  10.107   5.241  0.6032  0.2569  1.0606
  585MOL0     C77127   8.956  10.176   5.306  0.0937  0.4628 -1.1034
  585MOL0     C77128   9.091  10.100   5.284 -0.4455 -0.0617  1.1131
  585MOL0     C77129   9.092   9.945   5.305 -0.4402 -0.6576 -0.0653
  585MOL0     C77130   9.231   9.887   5.255  1.0486 -0.2121 -0.7388
  585MOL0     C77131   9.231   9.740   5.210 -0.5969  0.7685 -0.4030
  585MOL0    Cl77132   9.147   9.621   5.314  0.4675 -0.0746  0.2778
  585MOL0     C77133   8.368  10.319   4.955 -1.0216  0.4798  0.2375
  585MOL0     C77134   8.256  10.301   4.884 -0.5939  0.8262  0.8076
  585MOL0     O77135   8.184   9.970   4.639  0.6871 -0.2577 -0.0238
  585MOL0     C77136   7.971   9.940   4.491  0.1382  0.0543  1.1741
  585MOL0     C77137   7.844   9.923   4.433 -0.6041 -0.2891 -0.7132
  585MOL0     N77138   7.102   9.867   4.058  0.1008  0.4515 -0.2384
  585MOL0     N77139   6.993   9.838   4.120  0.3405 -0.1100 -0.7084
  585MOL0     C77140   5.805   9.984   4.436 -0.8875 -0.6217  0.7416
  585MOL0     C77141   5.677   9.943   4.468  0.0039  0.2215  0.3637
  585MOL0     C77142   5.301   9.750   4.584  0.8502 -0.0968 -0.5756
  585MOL0     C77143   5.281   9.610   4.587 -1.1147  0.0332  0.4628
  585MOL0     C77144   5.159   9.546   4.608  1.0541 -0.4999  0.0013
  585MOL0     C77145   5.047   9.622   4.640 -0.0451  0.2635 -1.1460
  585MOL0     O77146   4.924   9.563   4.643 -1.0624  0.5268 -0.3324
  585MOL0     C77147   4.899   9.460   4.742 -0.2684 -0.3136 -0.0334
  585MOL0     C77148   4.936   9.510   4.884 -0.4578  0.1774 -1.0891
  585MOL0     C77149   4.847   9.610   4.958 -0.0334 -0.5839 -0.6897
  585MOL0     C77150   4.881   9.605   5.112 -0.3876  0.0496  0.3232
  585MOL0     C77151   4.793   9.516   5.197 -0.1859 -0.2671 -0.2174
  585MOL0     C77152   4.716   9.444   5.263  0.6684  0.0727  0.8214
  585MOL0     C77153   5.059   9.759   4.641 -0.2853  0.2974  0.5935
  585MOL0     C77154   5.184   9.823   4.608  0.4437  0.3733  0.0081
  585MOL0     H77155   5.768   9.619   4.574 -0.2126  0.0783  2.1660
  585MOL0     H77156   5.998   9.728   4.532  0.6211 -0.4551  0.7069
  585MOL0     H77157   6.180   9.836   4.535  1.9410  1.0140 -0.9391
  585MOL0     H77158   6.093   9.938   4.647  0.5697  1.5979  0.5441
  585MOL0     H77159   6.322  10.050   4.603  1.3695  0.4317 -1.4179
  585MOL0     H77160   6.203  10.147   4.529 -1.8537 -1.1109 -1.4706
  585MOL0     H77161   6.398  10.133   4.411  2.0532 -1.1937  2.6970
  585MOL0     H77162   6.280  10.054   4.303  3.5147  1.1495 -1.2889
  585MOL0     H77163   6.472   9.912   4.497 -0.5065  0.6282  0.3026
  585MOL0     H77164   6.366   9.834   4.393  0.2724  0.0158 -1.3440
  585MOL0     H77165   6.492   9.929   4.183  1.7664  3.7536  0.1350
  585MOL0     H77166   6.583   9.818   4.293  1.0194  0.3838  2.7744
  585MOL0     H77167   6.643  10.012   4.427 -1.9485  2.2787  1.0389
  585MOL0     H77168   6.582  10.121   4.313  0.9969  0.5492 -0.3895
  585MOL0     H77169   6.741   9.945   4.157  1.8010  0.6824 -0.7120
  585MOL0     H77170   6.799  10.112   4.216 -0.9978  1.5632  0.5048
  585MOL0     H77171   6.814   9.845   4.354  2.6736 -1.0506  2.0949
  585MOL0     H77172   6.892   9.997   4.410  2.3972 -2.6955  1.6072
  585MOL0     H77173   7.097  10.069   4.316 -1.5953  1.9250 -1.8240
  585MOL0     H77174   7.223  10.151   4.092  0.5573 -1.3971 -0.9769
  585MOL0     H77175   7.313  10.032   3.995  1.5389 -4.0404  1.6419
  585MOL0     H77176   7.356  10.082   4.301  3.3370  0.8980  2.2725
  585MOL0     H77177   7.445  10.159   4.176 -3.6704  2.6939 -0.7027
  585MOL0     H77178   7.425   9.857   4.229 -1.4130  0.0825 -0.0014
  585MOL0     H77179   7.486   9.916   4.078  0.2676  1.8611  0.2218
  585MOL0     H77180   7.694   9.993   4.179  0.6680 -2.8017 -1.9445
  585MOL0     H77181   7.664   9.850   4.247 -1.6362 -0.8861 -2.5721
  585MOL0     H77182   7.692  10.205   4.540  1.6712  2.6128 -0.8738
  585MOL0     H77183   7.879  10.214   4.670  0.2789  1.2491 -1.7984
  585MOL0     H77184   8.234   9.967   4.882 -0.9734 -0.3493  1.4347
  585MOL0     H77185   8.440  10.003   5.036  1.7396  0.9495 -0.8684
  585MOL0     H77186   8.647  10.065   5.099  0.3262 -0.4909 -0.6346
  585MOL0     H77187   8.537  10.101   5.241 -1.2609 -1.5293 -3.7446
  585MOL0     H77188   8.708  10.215   5.345  1.6197  1.1544  0.2142
  585MOL0     H77189   8.764  10.290   5.187  2.3750  0.7968  0.0222
  585MOL0     H77190   8.866  10.088   5.135  0.0450 -2.8435  1.3942
  585MOL0     H77191   8.808  10.019   5.296 -2.3287  1.3912  1.0971
  585MOL0     H77192   8.978  10.282   5.294  2.2345  0.1403 -0.5424
  585MOL0     H77193   8.922  10.166   5.409  0.1038  0.6911 -1.0780
  585MOL0     H77194   9.169  10.135   5.352  1.2496 -1.7818  0.1665
  585MOL0     H77195   9.132  10.130   5.187 -0.4281 -0.7764  0.8889
  585MOL0     H77196   9.004   9.909   5.251  1.0834 -2.8755 -1.1995
  585MOL0     H77197   9.083   9.940   5.414  1.1294  0.9942  0.1960
  585MOL0     H77198   9.278   9.947   5.177 -0.6351 -0.4035 -1.9607
  585MOL0     H77199   9.294   9.909   5.342 -3.0022  2.0838  1.9782
  585MOL0     H77200   9.333   9.709   5.184  0.1702  2.2164  0.7182
  585MOL0     H77201   9.176   9.730   5.116 -0.3417  1.8858 -0.6849
  585MOL0     H77202   8.417  10.414   4.978 -1.0547  1.4108 -3.0448
  585MOL0     H77203   8.207  10.390   4.846  2.4232  1.9093 -0.8868
  585MOL0     H77204   8.042   9.862   4.466 -0.3925  0.1051 -0.6326
  585MOL0     H77205   7.828   9.834   4.373 -0.8981 -0.6581 -0.0935
  585MOL0     H77206   5.819  10.088   4.406 -0.7500 -0.4290  1.4389
  585MOL0     H77207   5.599  10.018   4.456  0.5519  0.4014 -2.8769
  585MOL0     H77208   5.376   9.557   4.588 -1.0530  0.0703 -1.2422
  585MOL0     H77209   5.171   9.440   4.586  1.5103 -0.4116 -0.1875
  585MOL0     H77210   4.971   9.382   4.718  1.5365  1.5668 -1.0583
  585MOL0     H77211   4.798   9.418   4.747 -0.7970  1.0061  2.2059
  585MOL0     H77212   4.940   9.413   4.934 -2.5673 -0.2892 -1.7470
  585MOL0     H77213   5.040   9.545   4.882  0.4333 -1.4043  3.6261
  585MOL0     H77214   4.746   9.569   4.947 -1.2741  1.9215  0.3491
  585MOL0     H77215   4.855   9.714   4.926  0.6600 -0.4211 -0.0130
  585MOL0     H77216   4.987   9.581   5.127  0.0563  1.5991 -0.1302
  585MOL0     H77217   4.857   9.706   5.147  0.4919  1.1484 -2.0244
  585MOL0     H77218   4.633   9.388   5.303  3.5641 -5.0557  0.5595
  585MOL0     H77219   4.980   9.819   4.686  1.5306  0.5182  3.7450
  585MOL0     H77220   5.198   9.931   4.608 -1.7191  0.7352  2.0110
  586MOL0     O77221   5.655   9.191   1.176 -0.3300  0.6371 -0.6971
  586MOL0     C77222   5.705   9.214   1.291 -0.3763 -0.7546  0.3945
  586MOL0     O77223   5.837   9.260   1.317  0.0502  0.3273 -0.8254
  586MOL0     C77224   5.912   9.303   1.208 -0.1268  0.2138  0.0409
  586MOL0     C77225   6.030   9.231   1.183 -0.8296 -0.5635 -1.3049
  586MOL0     C77226   6.098   9.263   1.064  0.6451 -0.0950 -0.0862
  586MOL0     C77227   6.056   9.354   0.972  0.1682  0.4063  0.0547
  586MOL0     O77228   6.124   9.351   0.855 -0.7949 -0.3794 -0.1105
  586MOL0     C77229   6.177   9.482   0.827  0.0963  0.0298  0.5955
  586MOL0     C77230   6.307   9.508   0.903  0.0737  0.0026  0.3364
  586MOL0     C77231   6.374   9.635   0.851 -0.2133 -0.4846 -0.0147
  586MOL0     C77232   6.469   9.701   0.952  1.1801 -0.6522 -0.2314
  586MOL0     C77233   6.565   9.601   1.041 -0.1853  0.5632  0.9588
  586MOL0     C77234   6.667   9.677   1.128  0.0627 -0.3677 -0.3754
  586MOL0     C77235   6.734   9.579   1.229  0.2718  0.2001 -0.8309
  586MOL0     C77236   6.827   9.662   1.316 -0.3277 -0.2703 -0.2074
  586MOL0     N77237   6.872   9.596   1.439  0.4100 -0.2133  0.0743
  586MOL0     C77238   6.901   9.661   1.557  0.2581  1.7899 -0.2556
  586MOL0     C77239   6.980   9.591   1.639 -0.0452  0.9308  0.2255
  586MOL0     C77240   7.042   9.639   1.774  0.9805 -0.7680 -0.3283
  586MOL0     C77241   7.139   9.757   1.761  1.0862  0.5534 -0.1631
  586MOL0     C77242   7.208   9.801   1.893  0.1989 -0.2453 -0.7765
  586MOL0     C77243   7.283   9.683   1.949 -0.2537  0.0732  0.9885
  586MOL0     O77244   7.394   9.634   1.862 -0.8338 -0.3950  0.1662
  586MOL0     C77245   7.510   9.661   1.918 -1.0666  0.0083 -0.1671
  586MOL0     C77246   7.598   9.759   1.869  0.9530 -0.5425 -0.6035
  586MOL0     C77247   7.719   9.781   1.936 -0.0916  0.5484  0.5817
  586MOL0     C77248   7.758   9.703   2.049 -0.0283 -0.1782  0.2191
  586MOL0     C77249   7.886   9.720   2.119  0.0560 -0.2160 -0.5085
  586MOL0     O77250   7.919   9.628   2.211 -0.5619  0.7244 -0.1572
  586MOL0     C77251   8.026   9.647   2.305  0.2367 -0.2569 -0.5664
  586MOL0     C77252   8.118   9.555   2.327 -0.3554 -0.0941  0.0696
  586MOL0     C77253   8.210   9.554   2.424  0.4272 -0.6327  0.2959
  586MOL0     C77254   8.226   9.667   2.502  0.0212  0.1874  1.1296
  586MOL0     O77255   8.327   9.686   2.593  0.2248  1.0883 -0.5113
  586MOL0     C77256   8.436   9.601   2.586  1.0661  1.4865 -0.3196
  586MOL0     C77257   8.551   9.668   2.650 -0.5833 -0.2722 -0.5817
  586MOL0     C77258   8.687   9.648   2.575 -0.8657 -0.1952 -0.3498
  586MOL0     C77259   8.816   9.695   2.644 -0.3630  0.7523  0.1775
  586MOL0     C77260   8.856   9.592   2.760  0.9420  0.1508  0.9910
  586MOL0     C77261   8.996   9.626   2.816  0.7140 -0.8233  0.0816
  586MOL0     C77262   9.005   9.776   2.875  0.4912 -0.1691 -0.0219
  586MOL0     C77263   9.150   9.802   2.926  0.2477 -0.7397  0.1956
  586MOL0    Cl77264   9.142   9.963   3.013 -0.2095 -0.5362 -0.4551
  586MOL0     C77265   8.135   9.769   2.485 -0.1926 -0.2135  0.8131
  586MOL0     C77266   8.031   9.764   2.392  0.3592  0.1643  0.1533
  586MOL0     O77267   7.946   9.822   2.097 -0.2528  0.4682 -0.1965
  586MOL0     C77268   7.669   9.603   2.096  0.1555  0.2221  0.1681
  586MOL0     C77269   7.554   9.580   2.024 -0.4692  0.2328 -0.0697
  586MOL0     N77270   7.006   9.478   1.559 -0.2912 -0.5104  0.2814
  586MOL0     N77271   6.943   9.482   1.442 -0.1027 -0.7204  0.0498
  586MOL0     C77272   5.951   9.439   1.006  0.7408  0.4903  0.8600
  586MOL0     C77273   5.873   9.408   1.116  0.0164 -0.2930 -1.1108
  586MOL0     C77274   5.613   9.211   1.416 -0.2178 -0.7504  0.1868
  586MOL0     C77275   5.491   9.151   1.406 -0.4023  0.3540 -0.1631
  586MOL0     C77276   5.402   9.165   1.518  0.0557  0.5652  0.4661
  586MOL0     C77277   5.430   9.246   1.629  0.2248 -0.5172  0.3348
  586MOL0     O77278   5.348   9.269   1.734 -0.1906 -0.4957 -0.2138
  586MOL0     C77279   5.250   9.162   1.765  1.0396  0.4759  1.2072
  586MOL0     C77280   5.189   9.167   1.904 -1.0343 -0.1759 -0.0299
  586MOL0     C77281   5.166   9.309   1.960  0.8064 -0.4496  0.8148
  586MOL0     C77282   5.115   9.299   2.099 -0.7222 -0.1187 -0.5652
  586MOL0     C77283   5.110   9.433   2.157 -0.1947  0.2992 -0.9173
  586MOL0     C77284   5.116   9.549   2.212 -0.1353 -0.0284  1.3641
  586MOL0     C77285   5.559   9.306   1.637 -0.3900 -1.0777  0.3652
  586MOL0     C77286   5.646   9.288   1.529 -0.2725  0.5980  0.1752
  586MOL0     H77287   6.074   9.160   1.253  0.1975  1.7858  0.5936
  586MOL0     H77288   6.188   9.212   1.032 -1.5207 -1.1340 -5.7328
  586MOL0     H77289   6.101   9.557   0.853  1.5749  1.6028  0.5641
  586MOL0     H77290   6.192   9.497   0.720 -2.5363  0.1833  0.1713
  586MOL0     H77291   6.373   9.423   0.884  2.4764  2.3671 -3.0315
  586MOL0     H77292   6.283   9.511   1.010 -0.7983 -0.8752  0.1804
  586MOL0     H77293   6.293   9.702   0.820  0.3404  0.5118  0.6448
  586MOL0     H77294   6.429   9.616   0.758  1.8843  0.4403  0.9727
  586MOL0     H77295   6.516   9.785   0.900 -2.5349  0.7066 -1.7124
  586MOL0     H77296   6.392   9.743   1.016 -0.6497 -1.3861 -1.8708
  586MOL0     H77297   6.615   9.534   0.970 -0.8669  1.5336 -0.4914
  586MOL0     H77298   6.504   9.532   1.100 -1.6096  0.1056 -0.9451
  586MOL0     H77299   6.608   9.754   1.177  0.6532 -0.6170  0.7497
  586MOL0     H77300   6.747   9.724   1.070  2.2395 -1.7837  1.3335
  586MOL0     H77301   6.654   9.524   1.279  1.9824 -1.1280  0.6099
  586MOL0     H77302   6.783   9.503   1.168  1.0141  0.2233 -0.2826
  586MOL0     H77303   6.780   9.757   1.343 -1.0800 -1.0315  1.3046
  586MOL0     H77304   6.915   9.681   1.254 -0.7598 -3.6098 -2.1116
  586MOL0     H77305   6.857   9.756   1.585 -0.1888  2.1057 -1.8876
  586MOL0     H77306   7.092   9.547   1.804  0.6661 -1.0341 -0.6161
  586MOL0     H77307   6.966   9.671   1.845  0.7936 -0.6669 -0.5715
  586MOL0     H77308   7.098   9.850   1.721 -2.1872  0.1762  1.9320
  586MOL0     H77309   7.216   9.716   1.694  0.6316  1.0550 -1.0116
  586MOL0     H77310   7.279   9.878   1.863  1.5299 -2.0642 -2.5233
  586MOL0     H77311   7.132   9.843   1.960  0.3104  0.4136 -1.0579
  586MOL0     H77312   7.227   9.596   1.984  1.2701 -2.3636 -2.1544
  586MOL0     H77313   7.329   9.718   2.042 -4.1933  0.4920  2.9978
  586MOL0     H77314   7.564   9.829   1.793  1.2474  1.2847  0.8843
  586MOL0     H77315   7.779   9.863   1.897  0.5109 -1.2231 -2.6305
  586MOL0     H77316   8.126   9.462   2.272 -1.6096 -2.0695  3.0446
  586MOL0     H77317   8.277   9.469   2.414  2.4948  1.1817 -3.5340
  586MOL0     H77318   8.462   9.577   2.483 -0.4184  1.4258 -0.7023
  586MOL0     H77319   8.397   9.506   2.624 -4.1164  2.1797 -3.0523
  586MOL0     H77320   8.550   9.636   2.754 -4.2062 -0.2138 -0.4779
  586MOL0     H77321   8.538   9.777   2.653 -1.8759 -0.4247 -0.0763
  586MOL0     H77322   8.698   9.710   2.486  4.1790  1.8752  1.3528
  586MOL0     H77323   8.677   9.541   2.552 -3.3807 -0.0037 -0.4365
  586MOL0     H77324   8.897   9.705   2.571 -0.3765 -2.1188 -0.3637
  586MOL0     H77325   8.796   9.786   2.702 -3.4524 -0.4102  1.1308
  586MOL0     H77326   8.859   9.495   2.710  1.0430  1.4962 -1.8706
  586MOL0     H77327   8.785   9.592   2.843 -2.7861  4.2770 -1.6784
  586MOL0     H77328   9.080   9.611   2.747  3.3233  3.8952  1.7807
  586MOL0     H77329   9.016   9.556   2.898  1.4993 -0.1998  0.4412
  586MOL0     H77330   8.978   9.855   2.804  1.7970 -2.0244 -2.8017
  586MOL0     H77331   8.941   9.781   2.963  3.1169 -1.0904  2.0812
  586MOL0     H77332   9.219   9.812   2.841 -2.0456 -2.2643 -1.9722
  586MOL0     H77333   9.182   9.723   2.995 -0.2401  1.1241  2.6955
  586MOL0     H77334   8.144   9.862   2.541  1.7504  1.6910 -2.3243
  586MOL0     H77335   7.967   9.852   2.385 -1.5452 -0.9117  2.5050
  586MOL0     H77336   7.679   9.564   2.197 -0.9205 -0.8217 -0.1039
  586MOL0     H77337   7.487   9.509   2.073  1.1492 -1.6106 -0.4371
  586MOL0     H77338   5.929   9.517   0.933  4.4773  2.4049  1.5088
  586MOL0     H77339   5.777   9.452   1.141 -1.1342 -4.5983  3.8673
  586MOL0     H77340   5.474   9.085   1.321  1.2028 -0.0910 -0.1862
  586MOL0     H77341   5.307   9.112   1.511 -1.5971  2.6109  4.4336
  586MOL0     H77342   5.293   9.062   1.752  2.6048  1.3144 -0.5130
  586MOL0     H77343   5.169   9.160   1.691  2.3047 -0.1024 -0.2128
  586MOL0     H77344   5.095   9.111   1.897 -0.2296 -1.4205 -1.2407
  586MOL0     H77345   5.256   9.107   1.967 -2.8216 -1.2194  0.9488
  586MOL0     H77346   5.107   9.379   1.900  1.2327  0.9978  2.0116
  586MOL0     H77347   5.260   9.366   1.961  3.1047 -3.6721 -3.1542
  586MOL0     H77348   5.019   9.247   2.093  0.3990 -2.6329  1.6674
  586MOL0     H77349   5.181   9.247   2.168  0.5256 -2.0188 -3.0421
  586MOL0     H77350   5.133   9.640   2.265 -2.4018  2.4753 -1.8444
  586MOL0     H77351   5.576   9.370   1.723 -1.1305 -1.0747  0.5182
  586MOL0     H77352   5.740   9.342   1.515  0.6439 -1.6410 -4.7469
  587MOL0     O77353   6.294   7.676  10.493  0.3115 -0.5903  0.4767
  587MOL0     C77354   6.301   7.800  10.481  0.5965 -0.4453 -1.0402
  587MOL0     O77355   6.247   7.877  10.388  0.6821 -0.4518  0.5401
  587MOL0     C77356   6.218   7.839  10.261  0.0050  0.1984 -0.1674
  587MOL0     C77357   6.096   7.834  10.212  0.3552  0.6029  0.8259
  587MOL0     C77358   6.080   7.801  10.078  1.0594  0.2996 -0.5077
  587MOL0     C77359   6.186   7.769   9.993 -0.1149  0.1919  0.1050
  587MOL0     O77360   6.185   7.718   9.859 -0.2224 -0.9011  0.3664
  587MOL0     C77361   6.089   7.768   9.761  0.2302  0.9918  0.0017
  587MOL0     C77362   6.161   7.844   9.654  0.5753  0.4953 -0.4784
  587MOL0     C77363   6.072   7.853   9.533 -0.4195  0.4758  0.2749
  587MOL0     C77364   6.050   7.725   9.449 -0.0634  0.0486 -0.1595
  587MOL0     C77365   6.021   7.724   9.298  0.8112  0.2321  0.6037
  587MOL0     C77366   5.932   7.836   9.250 -0.1629 -0.3520  0.8828
  587MOL0     C77367   5.784   7.816   9.291 -0.2116 -0.5865 -0.8255
  587MOL0     C77368   5.707   7.937   9.239  0.6332  0.9255  0.1492
  587MOL0     N77369   5.660   7.896   9.104  0.3492 -0.3699 -0.1877
  587MOL0     C77370   5.536   7.843   9.073 -1.2470 -0.4558 -0.2964
  587MOL0     C77371   5.525   7.857   8.940 -0.2948 -0.1570  0.0800
  587MOL0     C77372   5.413   7.803   8.860 -0.3960  0.6482 -0.1456
  587MOL0     C77373   5.314   7.895   8.781  0.2111  0.1626 -0.6684
  587MOL0     C77374   5.390   7.963   8.666 -0.1053 -0.7804  0.7694
  587MOL0     C77375   5.303   8.050   8.576  0.1057 -0.7723 -0.2180
  587MOL0     O77376   5.287   8.005   8.436  0.2095 -0.6876 -0.3894
  587MOL0     C77377   5.164   7.970   8.392 -0.4990 -0.2698  0.0473
  587MOL0     C77378   5.039   8.041   8.427 -0.7890 -0.0640 -0.3572
  587MOL0     C77379   4.924   8.002   8.368 -1.3457  0.9485 -1.0467
  587MOL0     C77380   4.923   7.891   8.270  0.3464 -0.5571 -0.5177
  587MOL0     C77381   4.790   7.834   8.228 -0.3620  0.8053  0.0740
  587MOL0     O77382   4.795   7.769   8.117  0.2084 -0.7815 -0.0777
  587MOL0     C77383   4.687   7.712   8.056 -0.0229  0.2524  0.3747
  587MOL0     C77384   4.586   7.637   8.121  0.1633 -0.5724  0.0838
  587MOL0     C77385   4.485   7.586   8.043  0.8882 -0.2072 -0.3148
  587MOL0     C77386   4.475   7.599   7.904 -0.5064  0.4187  0.1289
  587MOL0     O77387   4.365   7.545   7.844  0.6357 -0.6741  0.7402
  587MOL0     C77388   4.322   7.583   7.711  0.9912  0.0859 -1.9448
  587MOL0     C77389   4.367   7.472   7.617  0.4964  1.7085  0.2013
  587MOL0     C77390   4.300   7.341   7.648  0.1496 -0.5150  0.2673
  587MOL0     C77391   4.145   7.336   7.632 -0.4201  1.3856  0.6320
  587MOL0     C77392   4.069   7.201   7.665 -0.5659 -0.1614 -0.2123
  587MOL0     C77393   4.039   7.188   7.817  0.6325 -0.3211 -0.1574
  587MOL0     C77394   3.970   7.043   7.833 -0.1968 -0.5226 -0.1041
  587MOL0     C77395   3.862   7.049   7.941 -0.2788  0.1923 -0.4231
  587MOL0    Cl77396   3.946   7.049   8.105 -0.3151  0.0157 -0.4358
  587MOL0     C77397   4.574   7.669   7.839 -0.0339  0.8964  0.1051
  587MOL0     C77398   4.682   7.724   7.912  0.7665  0.6063 -0.5091
  587MOL0     O77399   4.688   7.857   8.294  0.6389 -0.3927  0.3646
  587MOL0     C77400   5.040   7.843   8.230  0.3352 -0.5810 -0.8912
  587MOL0     C77401   5.164   7.871   8.293  0.5277 -0.4693 -0.7967
  587MOL0     N77402   5.648   7.903   8.888 -0.0551  0.0322 -0.3847
  587MOL0     N77403   5.719   7.933   8.987 -0.3629 -0.2068  0.7492
  587MOL0     C77404   6.311   7.776  10.047 -1.2762  0.0462  0.1473
  587MOL0     C77405   6.328   7.815  10.182  0.0506 -0.1871 -0.3266
  587MOL0     C77406   6.371   7.876  10.581 -0.7793  0.4620 -0.8248
  587MOL0     C77407   6.372   8.019  10.578  0.2665 -0.0718  0.4498
  587MOL0     C77408   6.413   8.097  10.687  0.4819  1.0502 -0.0159
  587MOL0     C77409   6.474   8.036  10.798  0.6849  0.2526  0.0557
  587MOL0     O77410   6.527   8.120  10.890  0.1174  0.1979 -0.3956
  587MOL0     C77411   6.604   8.061  11.000  0.5018 -0.2780  0.1839
  587MOL0     C77412   6.678   8.156  11.094  0.7592 -1.3716  1.1487
  587MOL0     C77413   6.760   8.260  11.022  0.6674  0.4720  0.6150
  587MOL0     C77414   6.695   8.393  10.979  0.4805  0.3172 -0.2807
  587MOL0     C77415   6.785   8.463  10.893 -0.4374  0.5229  0.5568
  587MOL0     C77416   6.849   8.522  10.815 -0.6209 -0.3407  0.0560
  587MOL0     C77417   6.470   7.893  10.807  0.9612 -0.7018  0.6906
  587MOL0     C77418   6.415   7.824  10.700 -0.3952  0.7273 -0.6428
  587MOL0     H77419   6.004   7.848  10.268 -0.6206 -0.6331 -0.3609
  587MOL0     H77420   5.979   7.811  10.038 -0.2822 -0.8991  2.3128
  587MOL0     H77421   6.018   7.837   9.806 -1.5044 -2.6982  3.5625
  587MOL0     H77422   6.034   7.687   9.712 -1.9974  2.6677 -0.4018
  587MOL0     H77423   6.254   7.798   9.621 -0.3470 -1.3868 -0.6024
  587MOL0     H77424   6.178   7.946   9.689 -1.8039  1.3369 -1.5730
  587MOL0     H77425   6.114   7.931   9.469 -1.0754 -0.5133 -1.4235
  587MOL0     H77426   5.972   7.889   9.557  0.3990  2.8211  0.4294
  587MOL0     H77427   6.140   7.662   9.455  0.4328  0.7760  0.1650
  587MOL0     H77428   5.966   7.670   9.494 -2.0121  1.3360 -2.0331
  587MOL0     H77429   5.986   7.623   9.276 -0.2522  1.0944 -1.9982
  587MOL0     H77430   6.115   7.730   9.241  0.6050  1.4094  0.3691
  587MOL0     H77431   5.949   7.836   9.142  2.5565 -1.3754  1.2289
  587MOL0     H77432   5.967   7.935   9.279 -2.1492  1.4964 -2.3371
  587MOL0     H77433   5.752   7.722   9.246  1.6903 -1.5828 -0.1945
  587MOL0     H77434   5.774   7.822   9.399 -0.4621 -0.7161 -0.8428
  587MOL0     H77435   5.780   8.016   9.221 -0.2510  1.3742 -1.7253
  587MOL0     H77436   5.621   7.973   9.296 -0.5893 -0.8197 -0.4832
  587MOL0     H77437   5.480   7.775   9.136 -1.4453  1.3073  1.5086
  587MOL0     H77438   5.372   7.736   8.936  1.2563 -1.4314 -0.9659
  587MOL0     H77439   5.459   7.728   8.794  2.3108 -0.8488  3.1344
  587MOL0     H77440   5.280   7.974   8.849 -0.9423  0.7917 -1.9123
  587MOL0     H77441   5.237   7.836   8.731  0.4149  1.1402 -2.2204
  587MOL0     H77442   5.467   8.021   8.719  1.8316 -2.2327 -0.3289
  587MOL0     H77443   5.437   7.899   8.591 -1.1804 -0.8930  0.1875
  587MOL0     H77444   5.350   8.149   8.573  1.3421 -1.0884  3.3998
  587MOL0     H77445   5.206   8.062   8.624  0.4223  3.3672 -0.2691
  587MOL0     H77446   5.051   8.112   8.508  1.1534 -1.7927  0.9784
  587MOL0     H77447   4.846   8.064   8.411  1.0272  2.3423  1.6507
  587MOL0     H77448   4.580   7.626   8.228 -1.4661  0.9408  0.1887
  587MOL0     H77449   4.407   7.531   8.095  0.5560 -0.3501 -0.9498
  587MOL0     H77450   4.368   7.679   7.687  0.4642  0.9808  0.3162
  587MOL0     H77451   4.212   7.584   7.710  0.8813 -2.8762 -1.6415
  587MOL0     H77452   4.475   7.453   7.617  0.2403  0.0014  1.1340
  587MOL0     H77453   4.331   7.506   7.520  1.0289 -2.5246 -1.6951
  587MOL0     H77454   4.324   7.316   7.752  2.5300  2.5790  0.6223
  587MOL0     H77455   4.326   7.262   7.577 -1.8166 -0.9083 -0.0581
  587MOL0     H77456   4.109   7.405   7.709 -1.7171 -0.9840  2.2765
  587MOL0     H77457   4.117   7.351   7.527  2.2920 -0.6971 -0.5254
  587MOL0     H77458   4.141   7.124   7.634  0.6332  0.0568  1.8654
  587MOL0     H77459   3.971   7.199   7.615  0.3412 -0.8121 -2.0963
  587MOL0     H77460   3.966   7.261   7.854  0.2034  0.3167 -2.1232
  587MOL0     H77461   4.133   7.199   7.871 -0.0072 -2.7993  1.6236
  587MOL0     H77462   3.927   7.010   7.738 -0.0915 -0.0789 -0.3080
  587MOL0     H77463   4.043   6.966   7.858  3.9721  2.9546 -0.5441
  587MOL0     H77464   3.800   6.958   7.946  3.3839 -2.5207  0.3354
  587MOL0     H77465   3.806   7.143   7.938 -1.6452 -0.6098 -2.6067
  587MOL0     H77466   4.564   7.668   7.731 -1.0510 -1.8280  0.1481
  587MOL0     H77467   4.766   7.770   7.860  2.1398 -1.1686  0.0557
  587MOL0     H77468   5.036   7.767   8.153 -1.2648  0.5385 -2.0034
  587MOL0     H77469   5.260   7.826   8.273  2.3917  2.6256  0.4330
  587MOL0     H77470   6.399   7.751   9.988 -0.5021 -1.1423  1.7032
  587MOL0     H77471   6.432   7.826  10.213  1.2608 -1.0728 -3.6583
  587MOL0     H77472   6.344   8.061  10.482  0.9622 -1.1087 -0.2271
  587MOL0     H77473   6.431   8.204  10.685 -1.7223  1.4872  0.8898
  587MOL0     H77474   6.679   7.989  10.964  0.8509  0.5411 -0.7553
  587MOL0     H77475   6.525   8.008  11.054 -0.1185  0.0162 -0.4242
  587MOL0     H77476   6.608   8.211  11.158 -1.2129 -0.0229 -1.9082
  587MOL0     H77477   6.750   8.092  11.145  0.3678 -0.4184  2.9514
  587MOL0     H77478   6.798   8.213  10.931 -2.7893 -2.3778  0.4251
  587MOL0     H77479   6.847   8.283  11.084  1.3179 -0.3173  0.0125
  587MOL0     H77480   6.597   8.377  10.933  2.0519  0.4147 -4.0136
  587MOL0     H77481   6.685   8.444  11.075  2.6767 -1.1179  0.7927
  587MOL0     H77482   6.898   8.576  10.736  2.3442 -2.6647  0.1256
  587MOL0     H77483   6.501   7.834  10.892  1.3148 -2.0422 -0.3271
  587MOL0     H77484   6.414   7.716  10.709  0.3423  0.6722 -1.1534
  588MOL0     O77485   2.368   2.308   4.311  0.2483 -0.2635 -0.1182
  588MOL0     C77486   2.338   2.346   4.204  0.0707  0.2247  0.8118
  588MOL0     O77487   2.308   2.468   4.163 -0.3421  0.4388 -0.7333
  588MOL0     C77488   2.302   2.569   4.256 -0.9096  0.7755 -0.1694
  588MOL0     C77489   2.423   2.600   4.326 -0.6956 -0.7992 -0.0952
  588MOL0     C77490   2.426   2.707   4.412  0.1959 -0.2734  0.1753
  588MOL0     C77491   2.311   2.795   4.422 -0.1102 -0.1811  0.7181
  588MOL0     O77492   2.295   2.907   4.495 -0.1361 -0.5832 -0.8298
  588MOL0     C77493   2.412   2.965   4.568  0.3571  0.2766  0.6426
  588MOL0     C77494   2.378   3.107   4.626  0.2721 -0.4723  0.6732
  588MOL0     C77495   2.275   3.079   4.739  1.1756 -0.4730  0.7558
  588MOL0     C77496   2.240   3.204   4.830 -0.7868 -0.0698 -0.0306
  588MOL0     C77497   2.138   3.154   4.931  0.7222  0.5585 -0.8917
  588MOL0     C77498   2.089   3.251   5.040 -0.0834  0.2289 -0.5043
  588MOL0     C77499   2.048   3.400   5.005 -0.4614  0.6751 -0.0709
  588MOL0     C77500   2.025   3.473   5.129 -0.3272 -0.1807 -1.1393
  588MOL0     N77501   1.897   3.457   5.192 -0.5759  0.8406 -0.7967
  588MOL0     C77502   1.849   3.343   5.261 -0.1622  0.2267  0.4439
  588MOL0     C77503   1.716   3.360   5.271 -1.2158  0.3681  0.2565
  588MOL0     C77504   1.616   3.256   5.301 -0.4804  0.9894  0.7148
  588MOL0     C77505   1.522   3.301   5.404  0.1337  0.1006  0.5075
  588MOL0     C77506   1.435   3.196   5.472 -0.3677  0.2261 -0.3590
  588MOL0     C77507   1.339   3.126   5.370 -0.2712  0.3075 -0.1103
  588MOL0     O77508   1.402   3.001   5.328  0.5319 -0.7169 -0.4539
  588MOL0     C77509   1.360   2.947   5.206  0.2537 -0.0440  0.2396
  588MOL0     C77510   1.447   2.845   5.156  0.2668 -0.1043 -0.5404
  588MOL0     C77511   1.428   2.792   5.026  0.6685 -0.7130  0.1122
  588MOL0     C77512   1.325   2.847   4.938 -0.8957  0.7429  0.2089
  588MOL0     C77513   1.310   2.802   4.794 -0.5085 -0.5673  0.1232
  588MOL0     O77514   1.222   2.866   4.719  0.1425  0.3879 -0.0357
  588MOL0     C77515   1.191   2.823   4.582  0.2291 -0.1964 -0.6978
  588MOL0     C77516   1.088   2.732   4.559  0.0629 -0.1840  0.1285
  588MOL0     C77517   1.075   2.678   4.435 -0.5097 -0.9349  0.4128
  588MOL0     C77518   1.149   2.723   4.328 -0.1626  0.2197 -0.9436
  588MOL0     O77519   1.139   2.666   4.203 -1.0822 -0.2283  0.2469
  588MOL0     C77520   1.004   2.660   4.158 -0.0333  0.3902 -0.0638
  588MOL0     C77521   1.007   2.559   4.040  0.8376  0.4360  0.3385
  588MOL0     C77522   0.858   2.517   4.021 -1.1645 -0.6622 -0.7361
  588MOL0     C77523   0.850   2.459   3.880  0.2077 -0.3026 -0.1121
  588MOL0     C77524   0.753   2.339   3.890  0.2935 -0.5898  0.1407
  588MOL0     C77525   0.613   2.388   3.919 -0.9114  0.9411  0.9354
  588MOL0     C77526   0.502   2.285   3.925  0.4188 -1.3272 -0.3522
  588MOL0     C77527   0.506   2.168   3.822  0.4489 -0.9339 -0.4410
  588MOL0    Cl77528   0.387   2.049   3.891 -0.1375  0.3107  0.4503
  588MOL0     C77529   1.238   2.827   4.351  0.6165 -0.5091 -0.0310
  588MOL0     C77530   1.259   2.882   4.480 -0.5107 -0.0475  0.9793
  588MOL0     O77531   1.380   2.706   4.761  0.0370 -0.0234  0.2577
  588MOL0     C77532   1.248   2.951   4.992  0.2981  0.5915 -0.3023
  588MOL0     C77533   1.275   3.007   5.116  0.2221  0.5052  0.5901
  588MOL0     N77534   1.686   3.486   5.227  0.0194  0.0351 -0.6799
  588MOL0     N77535   1.793   3.548   5.183  0.3261  0.1991 -0.2858
  588MOL0     C77536   2.199   2.766   4.359 -0.3934 -0.6028  0.6146
  588MOL0     C77537   2.190   2.646   4.281  0.5134 -0.9156 -0.5319
  588MOL0     C77538   2.344   2.241   4.099 -0.3069 -0.3736  0.4609
  588MOL0     C77539   2.392   2.114   4.108 -0.7261  1.3801 -0.3243
  588MOL0     C77540   2.390   2.015   4.004 -0.5546 -0.0725 -0.9061
  588MOL0     C77541   2.316   2.041   3.889 -0.6633  0.0888 -0.2868
  588MOL0     O77542   2.318   1.955   3.797  0.3569 -0.1368  0.4917
  588MOL0     C77543   2.186   1.932   3.738  0.6904 -0.3657 -0.0881
  588MOL0     C77544   2.149   1.806   3.811  0.0258 -0.2627  0.7164
  588MOL0     C77545   2.006   1.755   3.770 -1.0985  0.5887  0.5852
  588MOL0     C77546   1.943   1.674   3.883  0.5299 -0.9622  0.2571
  588MOL0     C77547   2.006   1.550   3.902  0.1052  0.1509  0.1032
  588MOL0     C77548   2.058   1.437   3.909  0.2576 -0.3569 -0.3492
  588MOL0     C77549   2.276   2.175   3.868 -0.1165  0.4788 -0.0581
  588MOL0     C77550   2.292   2.275   3.971  0.8741 -0.0607 -0.6117
  588MOL0     H77551   2.505   2.530   4.311 -1.4567 -1.3989 -1.6877
  588MOL0     H77552   2.519   2.726   4.464 -0.1348 -0.3012  0.7843
  588MOL0     H77553   2.484   2.981   4.488  0.3339  3.0263  1.0481
  588MOL0     H77554   2.441   2.895   4.647 -0.9116 -0.0124  0.8786
  588MOL0     H77555   2.334   3.165   4.545 -1.4657 -1.7534  0.6452
  588MOL0     H77556   2.459   3.174   4.656 -2.3301  2.8282  0.7674
  588MOL0     H77557   2.305   2.990   4.796  0.1313 -1.2757  0.0861
  588MOL0     H77558   2.184   3.054   4.684  3.3463 -1.7498 -2.5562
  588MOL0     H77559   2.325   3.247   4.884 -2.0712  1.2003  1.0769
  588MOL0     H77560   2.193   3.279   4.765 -0.4732 -1.7255 -2.2980
  588MOL0     H77561   2.185   3.072   4.987 -0.5852  0.0701 -0.4577
  588MOL0     H77562   2.049   3.120   4.877 -2.0736  0.0269  3.4925
  588MOL0     H77563   2.166   3.248   5.117 -1.5120  0.6890  1.0009
  588MOL0     H77564   2.007   3.195   5.085  0.3819  0.8036  1.1435
  588MOL0     H77565   2.129   3.449   4.950  2.9197 -0.0902  3.7654
  588MOL0     H77566   1.964   3.405   4.934  0.2455  1.4927 -0.8615
  588MOL0     H77567   2.044   3.580   5.115  2.6035 -0.5713 -0.7391
  588MOL0     H77568   2.104   3.437   5.196 -0.7928 -0.9173 -0.9814
  588MOL0     H77569   1.908   3.254   5.277  2.2813  1.4327 -1.2436
  588MOL0     H77570   1.678   3.169   5.326  0.8021  1.7855  0.4332
  588MOL0     H77571   1.565   3.240   5.206  2.4315  1.0921 -0.9790
  588MOL0     H77572   1.450   3.375   5.369 -0.6549  1.3895  4.3149
  588MOL0     H77573   1.594   3.337   5.479  1.9012 -0.3142 -0.9064
  588MOL0     H77574   1.495   3.116   5.518 -1.8387  1.1179  3.5151
  588MOL0     H77575   1.376   3.232   5.557  2.7443  0.8000  1.7114
  588MOL0     H77576   1.315   3.202   5.295 -2.6391 -2.4155 -2.3057
  588MOL0     H77577   1.245   3.100   5.420 -0.4430 -0.5381 -0.8581
  588MOL0     H77578   1.522   2.802   5.222 -2.5460  1.4111  4.1595
  588MOL0     H77579   1.493   2.714   4.986  0.7102 -0.3306 -0.5880
  588MOL0     H77580   1.017   2.702   4.635 -1.7069  2.2588 -0.4428
  588MOL0     H77581   0.998   2.603   4.425  0.0639 -1.2616 -3.0468
  588MOL0     H77582   0.971   2.757   4.120  3.6280  2.7659  2.2458
  588MOL0     H77583   0.933   2.642   4.239 -0.3450 -1.7569 -0.7509
  588MOL0     H77584   1.065   2.472   4.071 -0.5364  0.1896  2.3848
  588MOL0     H77585   1.055   2.596   3.949  5.7463 -4.2098  0.5348
  588MOL0     H77586   0.787   2.600   4.032 -0.7749 -0.5930  2.0762
  588MOL0     H77587   0.830   2.456   4.107 -1.2870 -1.9250 -1.6572
  588MOL0     H77588   0.810   2.535   3.813  1.7955  0.8596  0.1978
  588MOL0     H77589   0.949   2.425   3.848  1.1475  2.1822 -0.0348
  588MOL0     H77590   0.786   2.275   3.972 -0.6720  2.0871  2.7722
  588MOL0     H77591   0.745   2.300   3.788 -1.4749 -0.7093  0.3029
  588MOL0     H77592   0.583   2.452   3.836  1.0465 -1.4530 -1.8010
  588MOL0     H77593   0.618   2.445   4.013  0.6451  4.1771 -0.9376
  588MOL0     H77594   0.508   2.244   4.026  0.0853  1.2283  0.7814
  588MOL0     H77595   0.406   2.337   3.921 -0.0861 -2.1452  0.5884
  588MOL0     H77596   0.607   2.129   3.811 -0.1094 -2.5653 -0.1048
  588MOL0     H77597   0.469   2.205   3.725 -1.8410 -2.4003 -0.2254
  588MOL0     H77598   1.288   2.867   4.264 -1.9874 -2.0261 -2.4076
  588MOL0     H77599   1.318   2.973   4.491  1.6810 -1.1496 -0.8692
  588MOL0     H77600   1.163   2.989   4.936 -0.8072 -0.6255  0.5051
  588MOL0     H77601   1.219   3.094   5.149  2.1428  1.8789  0.4136
  588MOL0     H77602   2.115   2.834   4.369 -0.5053 -0.8159  1.1624
  588MOL0     H77603   2.098   2.618   4.230 -1.0742 -0.6484  1.9872
  588MOL0     H77604   2.432   2.088   4.206  0.4348  1.4870 -0.7524
  588MOL0     H77605   2.431   1.914   4.011 -0.6555 -0.0492  0.1176
  588MOL0     H77606   2.192   1.909   3.631 -0.0711 -3.9289  0.5022
  588MOL0     H77607   2.116   2.014   3.757 -0.9658 -2.3178  2.8928
  588MOL0     H77608   2.221   1.726   3.797  1.0132  0.2845  2.3325
  588MOL0     H77609   2.146   1.837   3.916 -0.4769 -1.0364  0.9361
  588MOL0     H77610   2.014   1.690   3.683  1.2315  2.1809 -0.5161
  588MOL0     H77611   1.949   1.845   3.745 -0.0955  1.0424 -0.1442
  588MOL0     H77612   1.949   1.744   3.966  1.1235  0.8369 -1.2426
  588MOL0     H77613   1.839   1.647   3.862  1.3250 -2.0512 -2.7698
  588MOL0     H77614   2.095   1.336   3.914  0.0857 -0.7216 -3.7586
  588MOL0     H77615   2.234   2.211   3.775  0.7866  2.7325  0.3438
  588MOL0     H77616   2.269   2.377   3.943 -1.5270  0.3058  2.1461
  589MOL0     O77617   7.256   5.744   5.054 -0.0109 -0.1574 -0.5556
  589MOL0     C77618   7.245   5.803   5.159  0.0350 -0.7771  0.1265
  589MOL0     O77619   7.288   5.926   5.175 -0.3034  0.2268  0.1654
  589MOL0     C77620   7.330   6.013   5.074  0.1649 -0.3338  0.1391
  589MOL0     C77621   7.404   6.121   5.116 -0.4439 -0.0138 -0.3384
  589MOL0     C77622   7.459   6.216   5.033  0.7712 -0.0100  0.1745
  589MOL0     C77623   7.427   6.202   4.892 -0.2596 -0.7845  0.2319
  589MOL0     O77624   7.472   6.296   4.797  0.0260 -0.1279 -0.0612
  589MOL0     C77625   7.551   6.406   4.846 -0.1674 -1.3819 -0.2446
  589MOL0     C77626   7.590   6.511   4.745  0.2558  0.2919 -0.0256
  589MOL0     C77627   7.637   6.641   4.812 -0.5647  1.0151  0.9067
  589MOL0     C77628   7.666   6.744   4.703  0.4686  0.4102 -0.3627
  589MOL0     C77629   7.689   6.889   4.756  0.3472  0.0516 -0.3431
  589MOL0     C77630   7.806   6.889   4.851 -0.5884 -0.0324  0.2362
  589MOL0     C77631   7.856   7.024   4.895  1.0162 -0.1706 -0.4572
  589MOL0     C77632   7.750   7.082   4.997  0.4722  0.3479  0.7059
  589MOL0     N77633   7.801   7.199   5.069 -0.2765 -0.5957  0.3151
  589MOL0     C77634   7.743   7.258   5.185 -0.2846  0.6566  0.6887
  589MOL0     C77635   7.800   7.378   5.206  0.6118  0.7248  0.3333
  589MOL0     C77636   7.785   7.458   5.335 -0.4691 -0.5585 -0.1036
  589MOL0     C77637   7.846   7.373   5.450  0.2583  0.1848 -0.4224
  589MOL0     C77638   7.720   7.313   5.526  0.1333  0.0950 -0.5370
  589MOL0     C77639   7.753   7.242   5.659 -0.1885  0.5256 -0.2412
  589MOL0     O77640   7.631   7.190   5.705 -0.1602  0.8855 -0.1985
  589MOL0     C77641   7.556   7.252   5.796 -0.4688  0.7050 -0.0148
  589MOL0     C77642   7.444   7.317   5.749  1.3151 -1.1541 -0.0903
  589MOL0     C77643   7.347   7.359   5.835 -0.2873  0.3406 -0.9803
  589MOL0     C77644   7.368   7.341   5.970 -0.0514 -0.0087 -0.0159
  589MOL0     C77645   7.265   7.392   6.060  0.0858 -0.1019  0.3072
  589MOL0     O77646   7.159   7.435   5.991  0.1792  0.4129 -0.4108
  589MOL0     C77647   7.063   7.505   6.064  0.0690 -0.8534 -0.7802
  589MOL0     C77648   7.016   7.622   6.015 -0.1363  0.2454  0.4191
  589MOL0     C77649   6.910   7.687   6.077  0.3705 -0.7782 -0.5072
  589MOL0     C77650   6.856   7.641   6.199 -0.1992  0.2507  0.1673
  589MOL0     O77651   6.742   7.711   6.237 -0.2737 -0.4855 -0.0199
  589MOL0     C77652   6.684   7.673   6.361 -0.5861 -0.1048  0.9092
  589MOL0     C77653   6.574   7.787   6.388 -0.5425  0.4545  0.3764
  589MOL0     C77654   6.442   7.734   6.331  0.0306 -0.1928 -0.1781
  589MOL0     C77655   6.401   7.601   6.393  0.0319 -0.1101 -0.1774
  589MOL0     C77656   6.323   7.512   6.296 -0.7593  0.2110 -0.3632
  589MOL0     C77657   6.235   7.416   6.375  0.9166 -0.4963  0.4457
  589MOL0     C77658   6.133   7.338   6.294  0.2483  0.2144  0.0998
  589MOL0     C77659   6.185   7.260   6.174  0.0748  0.3289  0.3017
  589MOL0    Cl77660   6.313   7.137   6.218  0.0439 -0.3189 -0.4397
  589MOL0     C77661   6.901   7.519   6.248  0.2821 -0.5273 -0.8703
  589MOL0     C77662   6.998   7.453   6.181  0.1589  1.0045 -0.1752
  589MOL0     O77663   7.284   7.391   6.181 -0.7472 -0.0654 -0.1664
  589MOL0     C77664   7.484   7.282   6.019  0.1271  0.1611 -0.0966
  589MOL0     C77665   7.573   7.220   5.932 -0.1276  0.4945  0.9657
  589MOL0     N77666   7.900   7.388   5.106 -0.5830 -0.0463  0.2776
  589MOL0     N77667   7.894   7.289   5.027  0.9559 -0.1370  0.6351
  589MOL0     C77668   7.357   6.092   4.850 -0.3654  0.0191 -0.2957
  589MOL0     C77669   7.313   5.990   4.940 -0.3154  0.7206  0.8552
  589MOL0     C77670   7.175   5.751   5.276 -0.5593  0.5363 -0.4875
  589MOL0     C77671   7.199   5.791   5.411 -0.2700 -0.0500  0.4477
  589MOL0     C77672   7.123   5.736   5.517  1.6794  0.3215 -0.3045
  589MOL0     C77673   7.014   5.647   5.488 -0.5341 -0.5216  0.0306
  589MOL0     O77674   6.949   5.604   5.596 -0.1192 -0.4587 -0.3957
  589MOL0     C77675   6.842   5.509   5.594  0.3579 -0.1464 -0.4399
  589MOL0     C77676   6.809   5.465   5.735 -0.8222  0.7814  0.1389
  589MOL0     C77677   6.924   5.373   5.795 -0.0671  0.3597 -0.0500
  589MOL0     C77678   6.881   5.228   5.791  0.4421  0.1802  0.7916
  589MOL0     C77679   6.956   5.153   5.886  0.7645  0.5109  0.7169
  589MOL0     C77680   7.013   5.105   5.980  0.2193  0.4767 -0.6224
  589MOL0     C77681   6.984   5.615   5.358 -0.3481  0.6011  1.6948
  589MOL0     C77682   7.064   5.661   5.249  0.8552  0.1410  0.0814
  589MOL0     H77683   7.422   6.130   5.223  0.8184 -1.4650 -0.3843
  589MOL0     H77684   7.512   6.301   5.075 -1.7594  1.6885  0.1425
  589MOL0     H77685   7.650   6.376   4.881  1.4225 -0.5143 -3.5403
  589MOL0     H77686   7.504   6.453   4.932  2.9262 -1.1867  1.4642
  589MOL0     H77687   7.497   6.543   4.696  0.5360  2.0211  0.4904
  589MOL0     H77688   7.665   6.475   4.674  0.2773 -1.8928  1.0526
  589MOL0     H77689   7.727   6.613   4.868 -0.6964  1.8843  1.5666
  589MOL0     H77690   7.561   6.686   4.876 -0.7442  1.1926  0.5753
  589MOL0     H77691   7.756   6.716   4.647 -0.0242 -2.6509  0.2056
  589MOL0     H77692   7.586   6.749   4.628  0.7932  1.4638 -0.6498
  589MOL0     H77693   7.594   6.903   4.808 -2.4252 -1.8285 -4.3402
  589MOL0     H77694   7.709   6.966   4.681  0.2437  0.0217 -0.4028
  589MOL0     H77695   7.890   6.854   4.791 -0.9543 -0.2142 -0.1794
  589MOL0     H77696   7.795   6.824   4.939  3.5132  1.8866  2.4391
  589MOL0     H77697   7.947   7.027   4.955  1.0464  2.2553 -0.5218
  589MOL0     H77698   7.888   7.089   4.812  4.4376 -1.9098 -0.6436
  589MOL0     H77699   7.729   6.994   5.058  3.0880 -0.4802  0.5657
  589MOL0     H77700   7.652   7.111   4.959 -1.2926 -1.5827  3.3836
  589MOL0     H77701   7.668   7.207   5.245  1.1149 -0.0535  1.9247
  589MOL0     H77702   7.678   7.476   5.350 -1.0113 -1.0753 -2.7870
  589MOL0     H77703   7.827   7.559   5.325 -0.8272 -0.3831  0.1114
  589MOL0     H77704   7.907   7.433   5.518 -4.5612  4.2631  0.8353
  589MOL0     H77705   7.920   7.299   5.417 -1.5615 -2.7302  1.6195
  589MOL0     H77706   7.642   7.389   5.537 -1.3506 -1.1277 -2.0324
  589MOL0     H77707   7.681   7.231   5.465 -2.2770  2.0629 -1.8057
  589MOL0     H77708   7.792   7.318   5.727  1.8786  2.4453 -3.3102
  589MOL0     H77709   7.836   7.173   5.639  0.8863  1.8316 -0.5067
  589MOL0     H77710   7.449   7.347   5.645 -1.1770  4.2708  1.0201
  589MOL0     H77711   7.267   7.417   5.791 -1.7964  1.3912  2.7467
  589MOL0     H77712   7.063   7.660   5.925  3.8317 -0.8072  1.8246
  589MOL0     H77713   6.859   7.771   6.032  2.4053  0.5351 -0.4817
  589MOL0     H77714   6.750   7.675   6.448 -1.0033 -0.2003  1.2330
  589MOL0     H77715   6.635   7.579   6.331 -1.8242  0.1757  1.9698
  589MOL0     H77716   6.605   7.874   6.330 -0.5627  1.3309  1.6360
  589MOL0     H77717   6.576   7.807   6.496 -3.4170  1.4707  0.3086
  589MOL0     H77718   6.462   7.729   6.224  0.0445  3.1313 -0.4270
  589MOL0     H77719   6.363   7.809   6.337  2.1240  2.0557  1.2251
  589MOL0     H77720   6.482   7.559   6.453 -1.4885 -1.6061  0.9252
  589MOL0     H77721   6.324   7.625   6.466 -0.8459 -0.8881 -0.8148
  589MOL0     H77722   6.395   7.449   6.243 -0.1738 -0.0311  0.6749
  589MOL0     H77723   6.267   7.575   6.227 -2.3759  1.3805  1.8660
  589MOL0     H77724   6.178   7.472   6.449 -0.0202  1.9107 -1.9128
  589MOL0     H77725   6.302   7.346   6.426  1.5905 -0.1811  0.0051
  589MOL0     H77726   6.085   7.266   6.362  1.8438 -1.0384 -0.0361
  589MOL0     H77727   6.058   7.408   6.256 -0.3396  0.3776  1.4938
  589MOL0     H77728   6.220   7.332   6.100  0.4607 -0.7287 -0.5788
  589MOL0     H77729   6.100   7.212   6.125  0.5416 -1.3741  1.0832
  589MOL0     H77730   6.842   7.483   6.331  0.9537  2.7102  1.1765
  589MOL0     H77731   7.035   7.353   6.202 -1.7357  0.5111  1.0994
  589MOL0     H77732   7.485   7.258   6.125 -0.8421  1.9760  0.3716
  589MOL0     H77733   7.654   7.154   5.963 -0.5473 -0.4029  0.1992
  589MOL0     H77734   7.323   6.078   4.747  2.8662 -2.6287 -1.1917
  589MOL0     H77735   7.257   5.910   4.892 -0.5738  3.4417 -4.0144
  589MOL0     H77736   7.276   5.865   5.431 -0.6936  2.5264 -5.3992
  589MOL0     H77737   7.159   5.764   5.615 -0.2840 -1.1849  0.9418
  589MOL0     H77738   6.882   5.421   5.544  0.3782  1.1350 -2.8003
  589MOL0     H77739   6.755   5.545   5.540 -0.1975  0.8660  1.0695
  589MOL0     H77740   6.808   5.553   5.799  3.3634  1.1043  0.0676
  589MOL0     H77741   6.713   5.413   5.727 -0.3730  0.0463 -0.8661
  589MOL0     H77742   6.932   5.411   5.897 -1.1278  1.1103 -0.2293
  589MOL0     H77743   7.019   5.381   5.741  0.9026 -2.9971  0.9079
  589MOL0     H77744   6.774   5.220   5.813  0.1857  1.5016  0.1739
  589MOL0     H77745   6.900   5.184   5.693 -1.1191 -2.7270  1.6921
  589MOL0     H77746   7.067   5.057   6.059  2.9095  0.1247 -2.5610
  589MOL0     H77747   6.913   5.537   5.334  2.1252 -1.0645 -0.7820
  589MOL0     H77748   7.058   5.634   5.144 -1.1467  1.0652 -0.1053
  590MOL0     O77749   4.309   5.047  11.289  0.1306  0.3812  0.5243
  590MOL0     C77750   4.388   5.101  11.209  0.3474  0.1156  1.1716
  590MOL0     O77751   4.375   5.104  11.067  0.4155 -0.2189 -0.0702
  590MOL0     C77752   4.273   5.031  11.004  0.3884 -0.4817  0.2169
  590MOL0     C77753   4.138   5.051  11.031  0.3294 -0.4588  1.2520
  590MOL0     C77754   4.042   4.978  10.954 -0.1697 -0.8770  0.3330
  590MOL0     C77755   4.080   4.878  10.856 -0.5476  0.4310 -0.8757
  590MOL0     O77756   3.967   4.824  10.794 -0.7936  0.0235  0.1742
  590MOL0     C77757   3.990   4.754  10.675  0.4780  0.7528 -0.0989
  590MOL0     C77758   4.048   4.834  10.553 -0.2732 -0.3140 -0.2276
  590MOL0     C77759   4.006   4.783  10.420  0.1159 -0.3289 -0.3825
  590MOL0     C77760   3.861   4.800  10.395  0.7717 -0.3856  0.6033
  590MOL0     C77761   3.808   4.775  10.250 -1.3355 -0.2147  0.1020
  590MOL0     C77762   3.664   4.743  10.228 -0.9508 -0.0629 -0.7804
  590MOL0     C77763   3.625   4.745  10.088 -0.2780 -0.6409 -0.2314
  590MOL0     C77764   3.563   4.887  10.057 -0.8962  0.3537 -0.4704
  590MOL0     N77765   3.619   4.920   9.919  0.2053 -0.2261  0.5680
  590MOL0     C77766   3.597   4.855   9.803 -0.2640 -0.4467  1.1253
  590MOL0     C77767   3.699   4.886   9.721 -0.5534 -0.2412  0.0330
  590MOL0     C77768   3.722   4.849   9.581  0.9744 -0.3482  0.1077
  590MOL0     C77769   3.842   4.764   9.544 -0.1065 -0.0352 -1.1420
  590MOL0     C77770   3.858   4.639   9.631 -1.5130  0.0356  0.7980
  590MOL0     C77771   3.944   4.674   9.744 -0.3911  0.5527 -0.0386
  590MOL0     O77772   4.021   4.555   9.772  0.2116 -0.7392  0.8807
  590MOL0     C77773   4.094   4.540   9.883  0.5420 -0.0859 -1.1698
  590MOL0     C77774   4.165   4.420   9.909 -0.8763  0.3817 -0.0443
  590MOL0     C77775   4.241   4.404  10.016 -1.4390 -0.1360  0.3710
  590MOL0     C77776   4.248   4.500  10.117 -0.2317 -0.4928 -0.1247
  590MOL0     C77777   4.337   4.492  10.243 -0.7041 -0.4748  0.5977
  590MOL0     O77778   4.341   4.605  10.312  0.4012  0.7267  0.4868
  590MOL0     C77779   4.415   4.620  10.429 -0.0490  0.1685  0.7112
  590MOL0     C77780   4.492   4.741  10.449 -0.1627  0.6515  0.5532
  590MOL0     C77781   4.566   4.772  10.566  0.6756  0.1068  0.0340
  590MOL0     C77782   4.567   4.678  10.678  0.4666 -1.0689  0.6811
  590MOL0     O77783   4.626   4.714  10.794 -0.2836  0.3228 -0.2504
  590MOL0     C77784   4.571   4.647  10.913  0.7708  0.6022 -0.0421
  590MOL0     C77785   4.650   4.686  11.043 -0.5448 -0.3793  0.2765
  590MOL0     C77786   4.625   4.820  11.101 -0.3702 -0.0388 -0.4949
  590MOL0     C77787   4.697   4.840  11.238 -0.4113  0.1871  0.3759
  590MOL0     C77788   4.689   4.728  11.336  0.4221 -0.8555  0.0393
  590MOL0     C77789   4.553   4.677  11.384  0.2772  0.2899  0.3184
  590MOL0     C77790   4.571   4.553  11.479 -0.6940 -0.4402 -0.2199
  590MOL0     C77791   4.446   4.470  11.487  0.6992 -0.3041  0.5814
  590MOL0    Cl77792   4.341   4.545  11.608 -0.0899  0.1452  0.0756
  590MOL0     C77793   4.475   4.568  10.660 -0.6186  0.0796 -0.5179
  590MOL0     C77794   4.399   4.534  10.542  0.2405  0.1379  0.4555
  590MOL0     O77795   4.417   4.395  10.259  0.8307  0.5764  0.6864
  590MOL0     C77796   4.177   4.622  10.091 -0.5538 -0.7305  1.0154
  590MOL0     C77797   4.106   4.642   9.979  0.6049 -0.0492  0.7360
  590MOL0     N77798   3.802   4.954   9.792 -0.1115 -0.2260  0.0968
  590MOL0     N77799   3.745   4.977   9.907 -0.9538  1.0308  0.9010
  590MOL0     C77800   4.218   4.851  10.840  0.1281  0.1184  0.2683
  590MOL0     C77801   4.307   4.933  10.907 -0.4917 -0.5987 -0.5681
  590MOL0     C77802   4.510   5.163  11.261 -0.7281 -0.1685 -0.3374
  590MOL0     C77803   4.611   5.221  11.175 -0.0961  0.2452  0.5162
  590MOL0     C77804   4.730   5.277  11.225  0.3629  0.7845  0.2129
  590MOL0     C77805   4.736   5.305  11.369  0.5129  0.5813  0.0903
  590MOL0     O77806   4.849   5.376  11.410 -0.2598 -0.1176  0.3306
  590MOL0     C77807   4.869   5.422  11.548 -0.2099  0.7938  0.5990
  590MOL0     C77808   4.916   5.308  11.637 -0.5440  0.8302  0.7559
  590MOL0     C77809   4.985   5.357  11.765 -0.3233 -0.0336 -0.0973
  590MOL0     C77810   4.891   5.437  11.858  0.2580  0.7306  0.2874
  590MOL0     C77811   4.974   5.511  11.952 -0.7928 -0.4520 -0.0314
  590MOL0     C77812   5.044   5.557  12.035 -0.2710 -0.8107 -0.0352
  590MOL0     C77813   4.635   5.251  11.445 -0.5766 -0.3121  0.4138
  590MOL0     C77814   4.521   5.177  11.400 -0.1351  0.2354  0.1785
  590MOL0     H77815   4.110   5.120  11.111 -1.3856 -0.6125  0.8315
  590MOL0     H77816   3.934   4.978  10.968 -0.2558  0.7456 -0.0833
  590MOL0     H77817   3.893   4.710  10.652 -0.4856  1.4437  2.3101
  590MOL0     H77818   4.059   4.670  10.685  2.4761  2.0690 -1.8074
  590MOL0     H77819   4.156   4.821  10.556 -0.2667 -0.6130 -1.4805
  590MOL0     H77820   4.027   4.938  10.581 -1.6198 -0.7462  0.4542
  590MOL0     H77821   4.036   4.678  10.411  0.4397 -0.2521 -0.1878
  590MOL0     H77822   4.065   4.823  10.337  1.6731 -1.4836  0.1089
  590MOL0     H77823   3.808   4.726  10.456 -0.0563  1.0720  1.7279
  590MOL0     H77824   3.836   4.900  10.433 -0.3162  0.3402 -1.8597
  590MOL0     H77825   3.864   4.692  10.205 -2.3604  1.1142 -4.0424
  590MOL0     H77826   3.830   4.862  10.187 -0.4381 -0.5855 -0.1180
  590MOL0     H77827   3.607   4.810  10.292  3.1480  1.2548  1.9304
  590MOL0     H77828   3.649   4.641  10.263 -2.7226 -0.0665 -1.4686
  590MOL0     H77829   3.711   4.724  10.024  0.9238  1.3657  0.6411
  590MOL0     H77830   3.554   4.664  10.068  2.4706 -2.6913 -2.5457
  590MOL0     H77831   3.588   4.951  10.141  1.6846 -1.0256 -0.0893
  590MOL0     H77832   3.453   4.880  10.056 -0.9074 -0.0931 -2.5368
  590MOL0     H77833   3.507   4.814   9.759 -0.2954  0.2432  0.5321
  590MOL0     H77834   3.729   4.942   9.524 -0.4397 -0.9551 -1.1186
  590MOL0     H77835   3.634   4.793   9.547  0.9854  0.0529 -0.6046
  590MOL0     H77836   3.934   4.823   9.534  1.7896 -2.9081 -2.0539
  590MOL0     H77837   3.825   4.721   9.445 -1.5350 -0.9685 -0.5221
  590MOL0     H77838   3.759   4.596   9.648 -0.4442 -2.5491  0.9676
  590MOL0     H77839   3.909   4.566   9.568 -2.0524  1.1277 -0.9605
  590MOL0     H77840   3.883   4.688   9.834  1.1925 -2.0461  1.5759
  590MOL0     H77841   4.004   4.764   9.728  1.6892 -0.9213 -1.0568
  590MOL0     H77842   4.158   4.342   9.833 -2.5157  0.8901 -0.4650
  590MOL0     H77843   4.312   4.325  10.035 -0.4411  0.4363 -0.8055
  590MOL0     H77844   4.488   4.813  10.368 -2.7507  0.0942  0.1239
  590MOL0     H77845   4.601   4.873  10.583 -0.4684  0.2744  1.6392
  590MOL0     H77846   4.590   4.540  10.906  0.9694  0.7499 -2.7682
  590MOL0     H77847   4.464   4.663  10.929 -0.0041 -3.2323 -0.4119
  590MOL0     H77848   4.756   4.670  11.024 -0.3724  0.7668  0.2278
  590MOL0     H77849   4.609   4.613  11.114 -0.9438 -1.2148 -0.7967
  590MOL0     H77850   4.517   4.829  11.117 -0.6737 -1.7521 -1.3881
  590MOL0     H77851   4.649   4.910  11.045  0.6821  1.3332  1.9886
  590MOL0     H77852   4.801   4.862  11.212 -0.4243  0.2228  0.3532
  590MOL0     H77853   4.661   4.932  11.285  1.6657  1.7470 -0.8709
  590MOL0     H77854   4.749   4.758  11.422  2.1684  1.0206 -1.7099
  590MOL0     H77855   4.744   4.644  11.291  0.7173  0.6658 -2.6946
  590MOL0     H77856   4.489   4.640  11.304 -0.3635  0.7276  0.6237
  590MOL0     H77857   4.498   4.761  11.427 -1.3214  0.0726 -1.1920
  590MOL0     H77858   4.659   4.495  11.447  1.5062  2.9576 -0.8229
  590MOL0     H77859   4.579   4.601  11.577  0.0933  0.8348 -0.8825
  590MOL0     H77860   4.458   4.366  11.519 -0.7670 -0.8896 -0.6816
  590MOL0     H77861   4.393   4.470  11.392  3.6791  0.6131 -1.2293
  590MOL0     H77862   4.474   4.489  10.735 -0.6529  0.5873  0.0162
  590MOL0     H77863   4.340   4.443  10.540  0.0018  0.3011 -0.2835
  590MOL0     H77864   4.190   4.704  10.161 -0.0090  0.9408 -0.9319
  590MOL0     H77865   4.046   4.733   9.972  0.0112 -0.5398 -1.3297
  590MOL0     H77866   4.259   4.773  10.777  1.4170  0.6961  0.3639
  590MOL0     H77867   4.412   4.909  10.893  0.6974  1.7406  2.8987
  590MOL0     H77868   4.587   5.221  11.069 -3.5103  3.4786  1.0274
  590MOL0     H77869   4.810   5.302  11.156  1.4034 -1.3089  0.5860
  590MOL0     H77870   4.777   5.458  11.594 -0.3223 -0.2406  1.2242
  590MOL0     H77871   4.942   5.503  11.556  1.3281 -0.6991  2.9197
  590MOL0     H77872   4.837   5.238  11.666  1.2434 -2.5684 -1.8874
  590MOL0     H77873   4.987   5.249  11.578 -0.3572 -0.5235  2.2516
  590MOL0     H77874   5.063   5.427  11.731  2.1501 -2.8519 -0.6870
  590MOL0     H77875   5.033   5.273  11.816 -2.9465 -0.2961  2.1833
  590MOL0     H77876   4.822   5.501  11.802  1.7103  0.2876 -2.1322
  590MOL0     H77877   4.833   5.359  11.908  0.4941  1.2052  1.3370
  590MOL0     H77878   5.125   5.583  12.101  2.1128 -3.1406 -1.8240
  590MOL0     H77879   4.645   5.262  11.553 -0.0995  0.5805  0.2843
  590MOL0     H77880   4.452   5.136  11.472 -1.4553  2.6241  0.3711
  591MOL0     O77881   4.222  10.454   2.483 -1.1641  0.8308  0.0870
  591MOL0     C77882   4.190  10.484   2.369 -0.5731 -0.0459 -0.2801
  591MOL0     O77883   4.280  10.489   2.264 -0.2537  0.8976 -0.9732
  591MOL0     C77884   4.411  10.432   2.284  0.0892 -0.6814 -0.1882
  591MOL0     C77885   4.512  10.503   2.225  0.8429 -0.1982 -0.0537
  591MOL0     C77886   4.643  10.467   2.237 -0.3317 -0.3818  0.3264
  591MOL0     C77887   4.669  10.359   2.323 -0.1045  0.4108 -0.6751
  591MOL0     O77888   4.799  10.333   2.357  0.1050 -0.3137  0.0179
  591MOL0     C77889   4.862  10.209   2.307  0.4962 -0.1194  0.7493
  591MOL0     C77890   4.995  10.224   2.368 -1.4917  0.5885 -0.1013
  591MOL0     C77891   5.100  10.117   2.327  0.1801 -0.6121  0.4486
  591MOL0     C77892   5.144  10.127   2.184  0.8613  0.3342  0.8220
  591MOL0     C77893   5.293  10.181   2.171 -1.2764  0.5687  0.1796
  591MOL0     C77894   5.302  10.330   2.187  0.1276  0.0108 -0.2885
  591MOL0     C77895   5.435  10.368   2.125  0.5479 -0.3281 -0.2444
  591MOL0     C77896   5.479  10.496   2.186  0.0562  1.5181  0.7631
  591MOL0     N77897   5.599  10.546   2.106  0.2850 -0.6349 -0.0067
  591MOL0     C77898   5.712  10.470   2.072  0.7723  0.0844 -0.3497
  591MOL0     C77899   5.790  10.559   2.006 -0.2903 -0.3781 -0.0815
  591MOL0     C77900   5.937  10.543   1.965  0.2110 -0.1739 -0.3684
  591MOL0     C77901   5.961  10.433   1.867 -0.0688 -0.2566 -0.3272
  591MOL0     C77902   5.932  10.492   1.725  0.6866 -0.3990  0.6715
  591MOL0     C77903   5.882  10.379   1.635  0.5931 -0.4690  0.3604
  591MOL0     O77904   5.742  10.357   1.657 -0.2013  0.4338 -0.6225
  591MOL0     C77905   5.683  10.241   1.613 -0.9555  0.1712 -0.2436
  591MOL0     C77906   5.567  10.189   1.672  0.6247  0.2153  1.1209
  591MOL0     C77907   5.516  10.066   1.637 -0.9929 -0.3643  0.0313
  591MOL0     C77908   5.574   9.995   1.534  0.5238  0.0886  0.5714
  591MOL0     C77909   5.511   9.863   1.477  0.5961  0.2641 -0.6918
  591MOL0     O77910   5.597   9.772   1.403  0.0400 -0.1349 -0.4508
  591MOL0     C77911   5.542   9.667   1.344 -0.0846  0.2191  0.9533
  591MOL0     C77912   5.574   9.650   1.208  0.5873 -0.0058  0.5975
  591MOL0     C77913   5.499   9.553   1.131 -0.9239  0.3221 -0.0040
  591MOL0     C77914   5.398   9.463   1.195 -0.1082 -0.1185  0.9326
  591MOL0     O77915   5.328   9.379   1.115 -0.2756 -0.6075 -0.0771
  591MOL0     C77916   5.301   9.247   1.155 -0.1980 -0.2536 -0.2071
  591MOL0     C77917   5.164   9.199   1.095 -0.6468 -0.0350  0.2431
  591MOL0     C77918   5.134   9.055   1.146 -0.4413 -0.1339 -0.2819
  591MOL0     C77919   5.215   8.945   1.074 -0.0990 -0.2770  0.3159
  591MOL0     C77920   5.141   8.819   1.055 -0.1516 -0.1427 -0.0115
  591MOL0     C77921   5.216   8.724   0.971 -0.2303 -0.2967 -0.8736
  591MOL0     C77922   5.120   8.616   0.927 -0.3943  0.1516  0.1384
  591MOL0     C77923   5.173   8.490   1.001 -0.1637 -0.2292 -0.0920
  591MOL0    Cl77924   5.119   8.336   0.926  1.1917  0.0155 -0.3477
  591MOL0     C77925   5.383   9.470   1.335  0.6831 -1.1663 -0.4812
  591MOL0     C77926   5.455   9.572   1.400  1.5633 -0.5343 -0.1105
  591MOL0     O77927   5.389   9.850   1.494  0.0393  0.1905  0.0537
  591MOL0     C77928   5.694  10.039   1.480 -0.3297 -0.2576  0.2372
  591MOL0     C77929   5.740  10.159   1.522 -0.2682 -0.3741  0.1365
  591MOL0     N77930   5.741  10.682   2.007  0.0419 -0.1745 -0.4135
  591MOL0     N77931   5.627  10.673   2.069 -0.3621 -0.2279 -0.3387
  591MOL0     C77932   4.568  10.272   2.367  0.3770  0.4324  0.0513
  591MOL0     C77933   4.437  10.312   2.352 -0.0201 -0.0376 -0.0768
  591MOL0     C77934   4.047  10.525   2.344  0.4719  0.0883 -0.2757
  591MOL0     C77935   3.957  10.541   2.459  0.6194 -0.6936 -0.4440
  591MOL0     C77936   3.813  10.546   2.434  0.4227  0.7454  0.8854
  591MOL0     C77937   3.762  10.557   2.308  0.2811 -0.6281  0.9595
  591MOL0     O77938   3.620  10.575   2.297  0.1301 -0.1853 -0.8004
  591MOL0     C77939   3.557  10.640   2.176 -0.5191  0.7028 -0.2703
  591MOL0     C77940   3.433  10.562   2.130 -0.5780  1.0708 -0.2273
  591MOL0     C77941   3.376  10.616   2.001 -0.1659  0.2568  0.2697
  591MOL0     C77942   3.272  10.533   1.923 -0.1286  0.7676  0.2312
  591MOL0     C77943   3.220  10.617   1.809 -0.6122 -0.0491 -0.2398
  591MOL0     C77944   3.194  10.697   1.718  0.5582  0.6409 -0.4367
  591MOL0     C77945   3.856  10.553   2.199 -0.4337  0.0640 -0.3164
  591MOL0     C77946   3.997  10.539   2.216 -1.9138 -1.2260  0.4963
  591MOL0     H77947   4.478  10.581   2.158 -2.8358 -0.0751  1.7631
  591MOL0     H77948   4.714  10.529   2.184 -2.1785  1.3048 -0.3288
  591MOL0     H77949   4.865  10.207   2.197 -0.7784  2.6598  0.5867
  591MOL0     H77950   4.803  10.121   2.335  1.8401 -0.4798  2.6512
  591MOL0     H77951   4.995  10.227   2.477 -0.7226  2.9042 -0.1185
  591MOL0     H77952   5.045  10.315   2.333  2.6882 -2.3317 -2.6240
  591MOL0     H77953   5.062  10.015   2.342 -2.7018  0.5507  1.6536
  591MOL0     H77954   5.185  10.142   2.391 -1.8469  2.5692  2.1525
  591MOL0     H77955   5.139  10.026   2.142 -2.4090 -0.3371  2.5024
  591MOL0     H77956   5.072  10.185   2.126 -1.4920 -2.8420  0.3655
  591MOL0     H77957   5.333  10.163   2.070  0.6978  2.5108  0.5511
  591MOL0     H77958   5.364  10.125   2.233 -3.1448 -2.6365 -0.3442
  591MOL0     H77959   5.294  10.373   2.287 -0.1582  0.9001 -0.6827
  591MOL0     H77960   5.226  10.384   2.130  1.1092 -0.3487 -2.0088
  591MOL0     H77961   5.510  10.290   2.142  1.6391  0.1020 -2.6590
  591MOL0     H77962   5.410  10.386   2.020 -0.4788  0.2226  0.0814
  591MOL0     H77963   5.518  10.483   2.287  3.2013  1.3907 -0.3751
  591MOL0     H77964   5.399  10.569   2.203 -1.0639 -0.0606  2.8126
  591MOL0     H77965   5.733  10.366   2.094  2.4867  0.7564  1.4256
  591MOL0     H77966   6.003  10.525   2.050  4.8190  0.2199 -3.4717
  591MOL0     H77967   5.968  10.639   1.923  3.0101 -0.2672  1.2328
  591MOL0     H77968   5.901  10.346   1.897  0.2898 -1.1253 -2.0119
  591MOL0     H77969   6.066  10.403   1.868  0.1607  0.5030  1.2331
  591MOL0     H77970   5.857  10.572   1.723  0.1418 -0.8491  1.8450
  591MOL0     H77971   6.027  10.527   1.685  0.5183 -1.4751 -0.7541
  591MOL0     H77972   5.947  10.292   1.650 -2.2069 -2.2300  3.9990
  591MOL0     H77973   5.893  10.415   1.533  0.7501  1.4345  1.0002
  591MOL0     H77974   5.525  10.253   1.750 -1.2336  0.8826 -0.3458
  591MOL0     H77975   5.430  10.036   1.696 -1.9862  1.7636 -0.2325
  591MOL0     H77976   5.643   9.715   1.156  0.1377  0.7994  0.9862
  591MOL0     H77977   5.512   9.550   1.023 -0.9004  1.6149 -0.0571
  591MOL0     H77978   5.301   9.246   1.264  3.2916 -2.8247 -0.0704
  591MOL0     H77979   5.378   9.176   1.122 -0.8930 -0.8952 -0.4857
  591MOL0     H77980   5.185   9.202   0.988 -1.8162 -0.9516 -0.0246
  591MOL0     H77981   5.086   9.268   1.129 -0.5071  0.0806  0.3319
  591MOL0     H77982   5.028   9.040   1.121 -0.4741  0.0630 -0.2662
  591MOL0     H77983   5.139   9.047   1.255 -2.8535  0.8574 -0.0186
  591MOL0     H77984   5.238   8.975   0.971 -0.2440 -0.4325  0.2383
  591MOL0     H77985   5.316   8.936   1.116  0.7616 -2.9445 -2.0316
  591MOL0     H77986   5.042   8.837   1.012 -1.5661 -1.6026  2.3880
  591MOL0     H77987   5.101   8.777   1.148  0.0397 -1.7269 -0.6155
  591MOL0     H77988   5.305   8.694   1.028 -0.2826  0.5669 -0.3038
  591MOL0     H77989   5.252   8.776   0.882  0.1058  1.1303  0.0544
  591MOL0     H77990   5.017   8.643   0.953 -0.6264 -1.3322  0.7957
  591MOL0     H77991   5.125   8.600   0.819  3.3066  4.6997 -0.7123
  591MOL0     H77992   5.149   8.496   1.108  0.4750  0.3712  0.0179
  591MOL0     H77993   5.282   8.488   1.002 -0.1348  1.0281  0.6504
  591MOL0     H77994   5.308   9.422   1.397  0.5292  1.5312  1.6284
  591MOL0     H77995   5.426   9.592   1.503  1.0329  0.4889 -0.4450
  591MOL0     H77996   5.738   9.975   1.404 -0.6598  0.6559 -0.7378
  591MOL0     H77997   5.830  10.194   1.473 -0.6546  1.3031  0.5574
  591MOL0     H77998   4.597  10.192   2.433  0.9461  1.3685  0.9604
  591MOL0     H77999   4.359  10.256   2.401  0.4325  0.0636  0.7792
  591MOL0     H78000   3.990  10.524   2.561 -3.8717 -1.4802  1.0961
  591MOL0     H78001   3.748  10.544   2.521 -1.1973 -1.8932 -0.2535
  591MOL0     H78002   3.619  10.653   2.087 -0.3785  0.4355 -0.2122
  591MOL0     H78003   3.528  10.739   2.212 -1.8399 -0.3423  1.7109
  591MOL0     H78004   3.468  10.459   2.122 -0.7754  0.6604  2.9329
  591MOL0     H78005   3.361  10.564   2.212 -0.7499 -1.9179 -0.1800
  591MOL0     H78006   3.449  10.633   1.921 -2.4643 -3.0383 -2.8623
  591MOL0     H78007   3.328  10.710   2.029 -0.1523  0.7442 -1.2584
  591MOL0     H78008   3.319  10.436   1.908  0.9321  0.9673  2.0379
  591MOL0     H78009   3.185  10.522   1.988 -0.7834 -0.2723 -0.7749
  591MOL0     H78010   3.201  10.764   1.634 -0.5083 -0.9906 -1.9083
  591MOL0     H78011   3.805  10.555   2.104 -1.0619  2.6801  0.0021
  591MOL0     H78012   4.055  10.523   2.125  0.8195 -1.0397  2.0853
  592MOL0     O78013   1.041   3.849   2.971 -0.9176  0.8925 -0.5072
  592MOL0     C78014   1.108   3.939   2.922  0.4660  0.1594  0.1994
  592MOL0     O78015   1.231   3.919   2.881 -0.0413 -0.4186 -1.0847
  592MOL0     C78016   1.303   3.811   2.916 -0.4522  0.1507 -0.8852
  592MOL0     C78017   1.263   3.681   2.892  0.3566 -0.0472 -0.4588
  592MOL0     C78018   1.342   3.576   2.937  0.1477 -0.0913  0.6147
  592MOL0     C78019   1.469   3.589   2.988 -0.1432 -0.6744  0.3160
  592MOL0     O78020   1.525   3.477   3.036 -0.6693  0.0674  0.1805
  592MOL0     C78021   1.648   3.487   3.105  0.3322  0.2098  0.2265
  592MOL0     C78022   1.704   3.344   3.112  0.1101 -0.5636 -0.1326
  592MOL0     C78023   1.844   3.339   3.172 -0.3770 -0.0308 -0.8661
  592MOL0     C78024   1.866   3.205   3.231 -0.7751  0.2749  0.2975
  592MOL0     C78025   2.018   3.185   3.264  0.1310  0.5071  0.2964
  592MOL0     C78026   2.037   3.162   3.420  0.1985 -0.0713  0.4806
  592MOL0     C78027   2.176   3.141   3.473 -0.8946 -0.2161 -0.0422
  592MOL0     C78028   2.167   3.134   3.627  0.2611  0.0646 -0.0885
  592MOL0     N78029   2.294   3.183   3.691 -0.3712  0.0711 -0.3078
  592MOL0     C78030   2.430   3.139   3.672  0.7391 -0.3509 -1.4364
  592MOL0     C78031   2.507   3.193   3.774  0.3420  1.2725 -0.1507
  592MOL0     C78032   2.653   3.180   3.778 -0.3702  0.8831  0.4794
  592MOL0     C78033   2.697   3.242   3.910 -0.1003 -0.6709  0.4628
  592MOL0     C78034   2.693   3.388   3.909 -0.3662 -0.3669  0.1566
  592MOL0     C78035   2.682   3.455   4.053 -0.5731  0.0038  0.0735
  592MOL0     O78036   2.714   3.592   4.032 -0.4068  0.5222 -0.1336
  592MOL0     C78037   2.847   3.639   4.062 -0.1297 -0.9204 -0.2996
  592MOL0     C78038   2.924   3.603   4.173 -0.1091  1.0223  0.4927
  592MOL0     C78039   3.043   3.667   4.196 -0.2559 -0.7338  0.0781
  592MOL0     C78040   3.098   3.757   4.102  0.5222  0.1335  0.5186
  592MOL0     C78041   3.232   3.818   4.118  0.3276 -0.0830  0.0171
  592MOL0     O78042   3.297   3.872   4.012 -0.3301  0.0294  0.0619
  592MOL0     C78043   3.416   3.927   4.044  0.4921 -0.0926  0.2089
  592MOL0     C78044   3.528   3.852   4.077 -1.3265 -0.4942 -0.0618
  592MOL0     C78045   3.655   3.903   4.105 -0.4023  0.7717 -0.0592
  592MOL0     C78046   3.680   4.041   4.091 -0.1038  0.1741 -1.1456
  592MOL0     O78047   3.804   4.104   4.103  0.2679 -0.2084  0.2622
  592MOL0     C78048   3.923   4.048   4.149  0.1502 -0.9760 -0.3813
  592MOL0     C78049   4.043   4.153   4.132 -0.3271  0.7191  0.4129
  592MOL0     C78050   4.059   4.203   3.986 -0.4454  0.5553  0.0744
  592MOL0     C78051   4.081   4.083   3.889  0.6291  0.5909 -0.3644
  592MOL0     C78052   4.158   4.114   3.760 -0.0698  0.5755 -0.6106
  592MOL0     C78053   4.095   4.042   3.639  0.4565  0.1862  0.3946
  592MOL0     C78054   4.205   3.995   3.537 -1.0071 -0.4805  0.7112
  592MOL0     C78055   4.157   3.925   3.415  0.4397 -0.5032  0.5774
  592MOL0    Cl78056   4.072   3.774   3.463 -0.3586  0.7689 -0.0440
  592MOL0     C78057   3.571   4.117   4.040  0.6891  0.9014 -0.8634
  592MOL0     C78058   3.444   4.059   4.017  1.0899  0.6099  0.2495
  592MOL0     O78059   3.271   3.835   4.239 -0.9328  0.2504  0.6946
  592MOL0     C78060   3.015   3.777   3.983  0.8323  0.5564 -0.1197
  592MOL0     C78061   2.890   3.725   3.973  0.4252  0.1549  0.2336
  592MOL0     N78062   2.422   3.270   3.851 -0.5930 -1.6473 -0.2925
  592MOL0     N78063   2.302   3.272   3.798  0.5310 -0.5887  0.3049
  592MOL0     C78064   1.520   3.726   2.988 -0.2675  0.3411  0.6657
  592MOL0     C78065   1.436   3.829   2.963 -0.2597  0.8627 -1.1416
  592MOL0     C78066   1.027   4.069   2.892 -0.1570  0.8408 -0.1986
  592MOL0     C78067   0.906   4.080   2.957  0.0270  0.0317  0.0076
  592MOL0     C78068   0.836   4.208   2.936  0.4868  0.9581  0.9167
  592MOL0     C78069   0.892   4.304   2.850 -0.0254 -0.2945 -0.2320
  592MOL0     O78070   0.836   4.419   2.812  0.0931  0.5112  0.8762
  592MOL0     C78071   0.725   4.478   2.883 -0.9610  0.6948  0.5902
  592MOL0     C78072   0.693   4.604   2.808 -1.1054  0.4756 -0.4067
  592MOL0     C78073   0.602   4.705   2.885 -0.2305 -0.7580  0.8957
  592MOL0     C78074   0.586   4.814   2.773  0.2886 -0.1544  1.1741
  592MOL0     C78075   0.468   4.885   2.800 -0.2201  0.1444  0.0544
  592MOL0     C78076   0.365   4.937   2.842 -0.1382  1.0028  0.0404
  592MOL0     C78077   1.021   4.280   2.786  0.2355  0.3245 -0.9386
  592MOL0     C78078   1.084   4.162   2.806 -0.7576  0.1170 -0.0077
  592MOL0     H78079   1.171   3.656   2.840  0.9510 -1.6637 -0.7739
  592MOL0     H78080   1.299   3.479   2.915  2.5295 -0.6404 -2.1847
  592MOL0     H78081   1.645   3.549   3.195  0.5027  0.9015 -0.2370
  592MOL0     H78082   1.712   3.537   3.032 -1.3285  0.3039 -1.2396
  592MOL0     H78083   1.709   3.304   3.010 -0.1270  1.1125 -0.8534
  592MOL0     H78084   1.630   3.283   3.165 -0.3653  0.4663  0.4203
  592MOL0     H78085   1.874   3.421   3.238 -0.2843  0.5642 -1.6368
  592MOL0     H78086   1.909   3.340   3.084  2.1567 -1.0520  0.8615
  592MOL0     H78087   1.800   3.196   3.317 -1.0465 -2.4684 -0.0904
  592MOL0     H78088   1.833   3.130   3.158 -0.4935 -0.6616  1.1079
  592MOL0     H78089   2.074   3.272   3.228  2.2155 -0.4222  1.1028
  592MOL0     H78090   2.052   3.096   3.210  0.6917  0.8578  0.0557
  592MOL0     H78091   1.978   3.074   3.445 -3.9654  1.3697 -3.0561
  592MOL0     H78092   1.998   3.255   3.462  0.7588  0.1420  0.5327
  592MOL0     H78093   2.220   3.045   3.444 -0.1597 -0.0173  0.4049
  592MOL0     H78094   2.240   3.226   3.447 -0.0270 -0.3263  1.6054
  592MOL0     H78095   2.150   3.032   3.662  2.2108 -0.5906 -0.9129
  592MOL0     H78096   2.084   3.198   3.660  0.0821  0.4684 -1.2657
  592MOL0     H78097   2.477   3.065   3.608  1.3507 -3.0708  1.8589
  592MOL0     H78098   2.704   3.229   3.694  1.4969 -1.9543 -0.1734
  592MOL0     H78099   2.690   3.077   3.788 -2.5667  0.0061  0.2385
  592MOL0     H78100   2.803   3.217   3.906  0.6005  2.2034 -0.8988
  592MOL0     H78101   2.644   3.199   3.996  0.5483  1.4724  2.0078
  592MOL0     H78102   2.790   3.421   3.869 -1.0375 -0.2208 -1.3976
  592MOL0     H78103   2.611   3.425   3.847 -0.7406 -1.8059 -0.2458
  592MOL0     H78104   2.748   3.414   4.130 -1.1526  2.0241  1.7421
  592MOL0     H78105   2.581   3.450   4.095 -1.1805 -0.3263 -1.3849
  592MOL0     H78106   2.893   3.535   4.252  1.6752  1.0749  1.2876
  592MOL0     H78107   3.096   3.634   4.285  1.2440 -2.2005 -1.2638
  592MOL0     H78108   3.524   3.744   4.091  2.5810 -0.4643  3.2792
  592MOL0     H78109   3.737   3.843   4.141 -0.4962 -0.5848 -1.9500
  592MOL0     H78110   3.954   3.962   4.088  1.4375  0.7625 -2.3238
  592MOL0     H78111   3.910   4.027   4.255 -1.5162 -1.4411 -0.6505
  592MOL0     H78112   4.123   4.085   4.163  0.2478  0.1829 -2.0256
  592MOL0     H78113   4.031   4.239   4.198 -2.9934  0.4602  0.3998
  592MOL0     H78114   4.153   4.259   3.985 -0.0035 -0.1048  1.6129
  592MOL0     H78115   3.980   4.273   3.958 -0.3093  0.2701 -1.0701
  592MOL0     H78116   4.136   4.004   3.940 -1.0020 -1.2967 -1.3894
  592MOL0     H78117   3.980   4.049   3.864 -0.1799 -0.0905  3.2702
  592MOL0     H78118   4.262   4.085   3.773 -0.7085 -0.3966  4.1082
  592MOL0     H78119   4.149   4.220   3.734 -0.6841  0.1182 -2.4158
  592MOL0     H78120   4.019   4.107   3.594  3.0676  3.2427 -0.0140
  592MOL0     H78121   4.052   3.947   3.671 -0.8076  0.4126 -0.5663
  592MOL0     H78122   4.267   4.082   3.516  1.3495 -1.4320  3.0829
  592MOL0     H78123   4.277   3.931   3.590  1.5187  0.7249 -1.1129
  592MOL0     H78124   4.246   3.900   3.357  1.4169 -0.3024  1.9330
  592MOL0     H78125   4.089   3.989   3.358 -3.4768 -5.4821 -1.0709
  592MOL0     H78126   3.581   4.223   4.019 -0.0736  1.5429  1.6702
  592MOL0     H78127   3.365   4.127   3.985  1.4355  1.1356  0.4871
  592MOL0     H78128   3.054   3.851   3.914  4.2330 -2.0227 -1.2936
  592MOL0     H78129   2.824   3.740   3.888  2.8890  0.7583 -1.7004
  592MOL0     H78130   1.626   3.738   3.007  0.1029  0.2038 -1.1538
  592MOL0     H78131   1.492   3.920   2.981 -2.4832  2.2942 -1.0554
  592MOL0     H78132   0.880   3.997   3.023 -0.6298  0.2995  0.0920
  592MOL0     H78133   0.739   4.207   2.986 -0.1751 -0.8697 -0.3227
  592MOL0     H78134   0.766   4.498   2.983  1.2634 -1.3159  0.1684
  592MOL0     H78135   0.634   4.420   2.896 -1.2550  1.2560  1.1185
  592MOL0     H78136   0.788   4.646   2.774 -2.1693  0.3981 -3.8901
  592MOL0     H78137   0.647   4.557   2.721  1.1588 -0.4418 -1.1857
  592MOL0     H78138   0.626   4.739   2.986  2.0061  0.2186  0.1044
  592MOL0     H78139   0.501   4.665   2.899 -1.2116  0.8735 -0.9534
  592MOL0     H78140   0.668   4.885   2.766 -0.7458  1.6405  4.8250
  592MOL0     H78141   0.573   4.768   2.675 -1.8678  2.3141  0.1892
  592MOL0     H78142   0.276   4.971   2.891 -0.0796  1.5697 -0.2464
  592MOL0     H78143   1.059   4.362   2.726  0.5965 -1.3172 -3.0888
  592MOL0     H78144   1.181   4.144   2.760 -1.2384 -0.2506 -0.9013
  593MOL0     O78145   7.887   7.459   8.622 -0.9579  0.6953  0.3313
  593MOL0     C78146   7.938   7.466   8.504  0.0327 -0.7873  0.0381
  593MOL0     O78147   8.070   7.492   8.476  0.5187  1.0995  0.8222
  593MOL0     C78148   8.146   7.557   8.563  0.4095 -0.1321 -0.0233
  593MOL0     C78149   8.114   7.654   8.652  0.3064  0.3224  0.7873
  593MOL0     C78150   8.209   7.710   8.742  0.3217  0.3265  0.2486
  593MOL0     C78151   8.347   7.656   8.741 -0.2333 -0.5862 -0.1357
  593MOL0     O78152   8.446   7.689   8.827 -0.5740  0.1378  0.1671
  593MOL0     C78153   8.400   7.769   8.942 -0.2363 -0.5479  0.2473
  593MOL0     C78154   8.524   7.789   9.027  0.5102 -0.0201  0.0944
  593MOL0     C78155   8.617   7.908   8.985 -1.0625  0.0055  0.2579
  593MOL0     C78156   8.760   7.898   9.042  0.2100  0.2194  0.3074
  593MOL0     C78157   8.845   8.026   9.044  0.8829 -0.9790  0.2480
  593MOL0     C78158   8.808   8.128   9.152 -0.4374  0.7240 -0.4487
  593MOL0     C78159   8.804   8.062   9.294  0.6322  0.8706  0.5334
  593MOL0     C78160   8.780   8.151   9.413  0.0233 -0.4713  0.8825
  593MOL0     N78161   8.635   8.185   9.395  0.3491  0.5116  0.7543
  593MOL0     C78162   8.532   8.103   9.442 -0.4807  0.9106  0.5586
  593MOL0     C78163   8.419   8.157   9.386 -0.0487 -0.3957  0.2049
  593MOL0     C78164   8.275   8.127   9.399 -0.6657  0.5060 -0.5660
  593MOL0     C78165   8.271   7.972   9.361  0.1481 -0.7664  0.5289
  593MOL0     C78166   8.137   7.909   9.378 -1.6038  0.4502  0.2878
  593MOL0     C78167   8.033   7.958   9.283  0.0090 -0.1633  0.8210
  593MOL0     O78168   8.081   7.912   9.154 -0.0182 -0.0936 -0.4702
  593MOL0     C78169   7.988   7.896   9.057 -0.7093  0.0998  0.7583
  593MOL0     C78170   7.915   7.995   8.998  0.2020 -0.4250  0.1140
  593MOL0     C78171   7.833   7.968   8.889 -0.5979  0.4607 -0.3727
  593MOL0     C78172   7.816   7.836   8.846  0.3566 -0.7086  0.8463
  593MOL0     C78173   7.724   7.811   8.729  0.1797 -0.5300  0.4526
  593MOL0     O78174   7.665   7.929   8.674 -0.0879  0.2357  0.3371
  593MOL0     C78175   7.605   7.918   8.548 -0.0188  0.5170 -0.0819
  593MOL0     C78176   7.686   7.914   8.439 -0.5513  0.9232  0.3750
  593MOL0     C78177   7.635   7.894   8.314 -0.2844  0.5302 -0.7448
  593MOL0     C78178   7.502   7.872   8.293  0.3437 -0.0910 -0.7525
  593MOL0     O78179   7.474   7.862   8.156 -0.6150 -0.0014 -0.1078
  593MOL0     C78180   7.342   7.914   8.123 -0.2915  0.4810  1.1236
  593MOL0     C78181   7.329   7.966   7.978  0.0531  1.0160 -0.0840
  593MOL0     C78182   7.329   7.843   7.881  0.2652 -0.3138 -0.6037
  593MOL0     C78183   7.310   7.885   7.729 -0.2264 -0.5734 -0.2198
  593MOL0     C78184   7.345   7.759   7.650 -0.5878  0.3609 -0.1981
  593MOL0     C78185   7.373   7.794   7.511 -0.2802 -0.0237  0.8572
  593MOL0     C78186   7.431   7.685   7.420  0.0617 -0.8257 -0.1180
  593MOL0     C78187   7.325   7.597   7.357 -0.1683 -0.4107  0.2748
  593MOL0    Cl78188   7.203   7.696   7.281  0.0934 -0.2110  0.2544
  593MOL0     C78189   7.412   7.870   8.404 -0.0538  0.6040  0.5324
  593MOL0     C78190   7.468   7.896   8.530  0.1436  0.4147 -1.4453
  593MOL0     O78191   7.704   7.694   8.698  0.2109 -0.5808 -0.0067
  593MOL0     C78192   7.892   7.735   8.908  0.0708  0.5783  0.3724
  593MOL0     C78193   7.973   7.763   9.015  0.0785 -0.2840  0.5832
  593MOL0     N78194   8.454   8.248   9.293  0.3919  0.7695  0.0774
  593MOL0     N78195   8.579   8.279   9.314  0.3398  1.1466  0.0003
  593MOL0     C78196   8.373   7.557   8.651 -0.3804 -0.4951  1.3875
  593MOL0     C78197   8.275   7.502   8.567  0.2404  0.8738 -0.2092
  593MOL0     C78198   7.845   7.449   8.391 -0.3703  0.1137  0.3204
  593MOL0     C78199   7.895   7.405   8.264  0.4633  0.7836  0.8047
  593MOL0     C78200   7.811   7.389   8.157 -0.4238 -0.0337  0.2447
  593MOL0     C78201   7.676   7.414   8.165 -0.1975 -1.1737 -0.6690
  593MOL0     O78202   7.597   7.389   8.053  0.1727  0.2415 -0.7537
  593MOL0     C78203   7.452   7.387   8.077 -0.2476  0.0411  0.5450
  593MOL0     C78204   7.378   7.397   7.947  0.3632  0.6961  0.5946
  593MOL0     C78205   7.440   7.325   7.828 -0.1675 -0.3961 -0.0998
  593MOL0     C78206   7.336   7.280   7.724  1.3115 -0.6908 -0.7414
  593MOL0     C78207   7.403   7.201   7.627  0.4606 -0.0760 -1.0040
  593MOL0     C78208   7.461   7.136   7.549  0.6355 -0.3422 -0.0718
  593MOL0     C78209   7.628   7.468   8.288  0.4337  0.5889 -0.0550
  593MOL0     C78210   7.712   7.487   8.398  0.9994  0.2482 -0.1301
  593MOL0     H78211   8.014   7.694   8.659  0.4351  1.1140 -1.3635
  593MOL0     H78212   8.172   7.792   8.804  1.3853  0.8532  0.1987
  593MOL0     H78213   8.338   7.702   9.002  2.6568 -0.9275  3.1459
  593MOL0     H78214   8.362   7.868   8.917 -0.0913 -0.5040  0.2008
  593MOL0     H78215   8.588   7.701   9.035  0.2016 -0.1049  2.1149
  593MOL0     H78216   8.496   7.802   9.132  3.8225  1.8687  0.8775
  593MOL0     H78217   8.561   7.996   9.017 -0.6175  0.9407 -1.4504
  593MOL0     H78218   8.626   7.904   8.876 -1.6665 -1.6710  0.2415
  593MOL0     H78219   8.765   7.849   9.139  0.7701 -2.9365 -1.1780
  593MOL0     H78220   8.814   7.828   8.977  2.5629  0.3211  2.0212
  593MOL0     H78221   8.825   8.079   8.950 -1.7869 -1.6271  0.3775
  593MOL0     H78222   8.949   7.992   9.052  1.7134  0.9909 -1.2277
  593MOL0     H78223   8.706   8.148   9.117 -1.3829  0.7471  2.1473
  593MOL0     H78224   8.867   8.219   9.138  1.4832 -0.4566 -0.4217
  593MOL0     H78225   8.736   7.977   9.285  0.7896  0.6734  1.1806
  593MOL0     H78226   8.905   8.021   9.305  0.2108 -0.2743  0.2541
  593MOL0     H78227   8.847   8.236   9.398  1.5089 -1.4767  1.5528
  593MOL0     H78228   8.792   8.107   9.513  0.3823 -2.6588 -0.0648
  593MOL0     H78229   8.536   8.015   9.506  0.7272  1.7512  1.6892
  593MOL0     H78230   8.210   8.191   9.339 -0.9483 -1.6181 -2.7177
  593MOL0     H78231   8.234   8.134   9.500 -2.4530 -2.9654 -0.8661
  593MOL0     H78232   8.344   7.924   9.426  3.1504  1.3787 -0.9979
  593MOL0     H78233   8.309   7.961   9.259 -3.6234 -1.0467 -1.0222
  593MOL0     H78234   8.145   7.800   9.368  0.4779  0.7042 -1.6232
  593MOL0     H78235   8.102   7.940   9.477  1.8269 -0.9761  2.1259
  593MOL0     H78236   8.020   8.066   9.285  0.9846  0.1375 -2.7236
  593MOL0     H78237   7.940   7.906   9.307 -0.8772  1.7480  1.7683
  593MOL0     H78238   7.929   8.094   9.041  3.1204 -0.0647 -1.3878
  593MOL0     H78239   7.777   8.053   8.851 -3.2997 -0.6708  0.7885
  593MOL0     H78240   7.790   7.895   8.466  1.2919 -1.0981 -6.2715
  593MOL0     H78241   7.711   7.912   8.239  0.4662 -1.0712 -0.4201
  593MOL0     H78242   7.326   8.009   8.174 -2.6985  3.3631 -4.1713
  593MOL0     H78243   7.265   7.840   8.149  1.6758 -2.3047 -0.3741
  593MOL0     H78244   7.414   8.032   7.958 -0.9015  2.0515 -0.8592
  593MOL0     H78245   7.240   8.029   7.981 -0.1613  0.6680  1.9320
  593MOL0     H78246   7.252   7.770   7.910  3.0838 -3.4592 -0.4841
  593MOL0     H78247   7.427   7.796   7.894  1.0859  1.8272  1.7233
  593MOL0     H78248   7.208   7.915   7.706 -0.7976 -0.3120  2.4319
  593MOL0     H78249   7.380   7.968   7.710 -0.5933 -0.4502 -1.0794
  593MOL0     H78250   7.259   7.692   7.652 -0.9119  0.6529 -2.3585
  593MOL0     H78251   7.426   7.703   7.698 -1.8786 -1.6917 -0.3011
  593MOL0     H78252   7.437   7.882   7.506  0.6549 -0.7390 -1.8798
  593MOL0     H78253   7.285   7.829   7.456  0.0524 -0.2353  0.1733
  593MOL0     H78254   7.469   7.748   7.339 -4.5878  0.0387 -1.9683
  593MOL0     H78255   7.513   7.624   7.458 -0.2664 -2.9037 -2.5116
  593MOL0     H78256   7.274   7.553   7.443  2.6801 -1.8594  1.3737
  593MOL0     H78257   7.373   7.535   7.281  0.7517  0.7070 -0.0781
  593MOL0     H78258   7.310   7.840   8.382 -0.1297  2.9045 -3.0567
  593MOL0     H78259   7.410   7.896   8.622  0.2029  1.1683 -1.4017
  593MOL0     H78260   7.893   7.637   8.861  5.4633  0.2817  0.4731
  593MOL0     H78261   8.039   7.690   9.061 -0.0576 -1.9571 -1.6670
  593MOL0     H78262   8.469   7.505   8.652  0.3558  0.6424 -1.3872
  593MOL0     H78263   8.311   7.418   8.507 -1.7254 -1.2763  1.4137
  593MOL0     H78264   7.994   7.367   8.244 -0.2006  0.4309 -2.3320
  593MOL0     H78265   7.845   7.331   8.071 -1.9724  0.4822 -0.7662
  593MOL0     H78266   7.414   7.474   8.131 -2.8439  0.2927 -1.4908
  593MOL0     H78267   7.427   7.289   8.120 -1.8411 -0.7277 -1.9273
  593MOL0     H78268   7.275   7.367   7.966  0.3203  0.2074 -0.3659
  593MOL0     H78269   7.356   7.503   7.928 -0.6443  0.6762  1.5737
  593MOL0     H78270   7.488   7.238   7.872 -0.5886  0.0052  1.2053
  593MOL0     H78271   7.516   7.389   7.782 -0.2768  1.5994  2.2849
  593MOL0     H78272   7.260   7.218   7.773 -0.1670  1.7019  0.1449
  593MOL0     H78273   7.277   7.360   7.679  1.5963  0.1163  0.2901
  593MOL0     H78274   7.502   7.073   7.472 -1.6767  0.0650 -1.7672
  593MOL0     H78275   7.524   7.496   8.301  0.4461 -0.1506  2.1126
  593MOL0     H78276   7.667   7.526   8.489 -1.5719 -2.5574 -0.0167
  594MOL0     O78277   7.872   3.403   7.465  0.2133 -0.0028  0.5025
  594MOL0     C78278   7.844   3.450   7.356 -0.5558 -0.3383 -0.0905
  594MOL0     O78279   7.736   3.421   7.286  0.1049 -0.3167  0.0300
  594MOL0     C78280   7.635   3.340   7.326  0.5433  0.0835  0.3580
  594MOL0     C78281   7.662   3.228   7.407  0.6613 -0.9192  0.1565
  594MOL0     C78282   7.550   3.149   7.439  0.1252  0.2279 -1.0556
  594MOL0     C78283   7.416   3.187   7.396  1.2607  0.7164  0.2830
  594MOL0     O78284   7.302   3.101   7.393  0.0363 -0.7380 -0.9920
  594MOL0     C78285   7.336   2.971   7.344  0.2524 -0.3356 -0.1031
  594MOL0     C78286   7.197   2.902   7.322 -0.9288  0.1884 -0.3273
  594MOL0     C78287   7.110   2.988   7.225  0.6425 -0.5318 -1.1412
  594MOL0     C78288   7.171   2.991   7.086 -0.0566 -0.9832  0.2679
  594MOL0     C78289   7.060   3.044   6.990  0.0888  0.9880 -0.4214
  594MOL0     C78290   7.127   3.053   6.856 -0.5358  0.1880  0.2236
  594MOL0     C78291   7.032   3.077   6.738 -0.2086  0.0958 -0.2777
  594MOL0     C78292   7.100   3.056   6.603 -0.4190  0.4821 -0.3374
  594MOL0     N78293   7.229   3.128   6.590 -0.5056 -0.2604  0.2297
  594MOL0     C78294   7.223   3.260   6.575  0.1072 -0.8120 -0.1298
  594MOL0     C78295   7.344   3.295   6.528 -1.2610 -0.3101  0.1961
  594MOL0     C78296   7.390   3.419   6.460 -1.1256 -0.6461 -0.4958
  594MOL0     C78297   7.522   3.461   6.521 -0.0332 -1.1902 -0.1474
  594MOL0     C78298   7.573   3.588   6.461  0.1798 -1.1516 -0.3852
  594MOL0     C78299   7.724   3.599   6.439 -0.1701  1.1580  1.1050
  594MOL0     O78300   7.773   3.731   6.413 -0.4095  0.4660 -0.7492
  594MOL0     C78301   7.888   3.735   6.340  0.0351  0.6962  1.0148
  594MOL0     C78302   7.927   3.858   6.291 -0.7255  0.4895  0.0943
  594MOL0     C78303   8.046   3.873   6.223 -0.4719 -0.8209  0.4753
  594MOL0     C78304   8.126   3.758   6.197 -0.1050  0.4405 -0.2152
  594MOL0     C78305   8.259   3.778   6.137 -0.9835 -0.3695 -0.7766
  594MOL0     O78306   8.305   3.677   6.058  0.9931  0.0326 -0.6184
  594MOL0     C78307   8.423   3.672   5.996 -0.0732  0.4997  1.0670
  594MOL0     C78308   8.510   3.574   6.031 -0.2907 -0.2851 -0.9639
  594MOL0     C78309   8.638   3.559   5.975 -0.8914  0.1832  0.4254
  594MOL0     C78310   8.669   3.640   5.865  0.2379 -0.7793  0.1686
  594MOL0     O78311   8.778   3.620   5.796  1.1976 -0.2254  0.1977
  594MOL0     C78312   8.767   3.503   5.713  0.0011  0.4874  0.7024
  594MOL0     C78313   8.653   3.513   5.614 -0.2865 -1.0407  0.5645
  594MOL0     C78314   8.673   3.406   5.503  0.6827 -0.2685 -0.7787
  594MOL0     C78315   8.548   3.389   5.420 -1.2832 -0.4116 -0.9828
  594MOL0     C78316   8.565   3.266   5.332  0.1225  0.2233  0.0218
  594MOL0     C78317   8.449   3.248   5.236 -0.8355  0.5009  0.4867
  594MOL0     C78318   8.316   3.247   5.322 -0.2974 -0.1685  0.1114
  594MOL0     C78319   8.182   3.239   5.238 -0.1850 -0.7945  0.7185
  594MOL0    Cl78320   8.173   3.087   5.152 -0.4424 -0.1671  0.3813
  594MOL0     C78321   8.582   3.749   5.826 -0.4817  0.8944  0.3293
  594MOL0     C78322   8.459   3.769   5.895 -0.0548 -0.1227 -0.5855
  594MOL0     O78323   8.323   3.880   6.158  0.1105  0.1556 -0.3583
  594MOL0     C78324   8.090   3.635   6.249 -0.0041  0.3623  0.7508
  594MOL0     C78325   7.973   3.616   6.313 -0.4238 -0.8981  0.3297
  594MOL0     N78326   7.420   3.183   6.521 -0.6814  1.5257 -0.4788
  594MOL0     N78327   7.353   3.080   6.555 -0.0627  0.3330  0.8774
  594MOL0     C78328   7.398   3.305   7.325 -0.7786  0.2505 -0.6359
  594MOL0     C78329   7.509   3.384   7.285  0.4606  0.1692 -0.5864
  594MOL0     C78330   7.953   3.523   7.291  0.6660 -0.1091  1.1060
  594MOL0     C78331   7.937   3.561   7.162  0.6425 -1.2126 -0.4302
  594MOL0     C78332   8.044   3.629   7.093  0.2657  0.4057  0.8468
  594MOL0     C78333   8.166   3.648   7.151 -0.1280  0.6040 -0.4896
  594MOL0     O78334   8.263   3.694   7.064 -0.6750 -0.1664 -0.3945
  594MOL0     C78335   8.394   3.681   7.110  0.3140  0.4174 -0.7301
  594MOL0     C78336   8.463   3.782   7.022 -0.8230 -0.4692 -0.0697
  594MOL0     C78337   8.463   3.920   7.083  0.1611  0.6858 -0.2902
  594MOL0     C78338   8.553   4.019   7.010 -0.1315  0.0489 -0.1053
  594MOL0     C78339   8.557   4.129   7.109  0.1055 -1.0235  0.1785
  594MOL0     C78340   8.597   4.234   7.157 -0.9960 -0.3674  0.2702
  594MOL0     C78341   8.183   3.609   7.281 -0.1860 -0.2556  0.6318
  594MOL0     C78342   8.080   3.547   7.349 -0.0944  0.1683  1.1839
  594MOL0     H78343   7.762   3.196   7.435  1.1731  1.6820  1.6486
  594MOL0     H78344   7.568   3.056   7.492 -0.7990  0.7978  0.3232
  594MOL0     H78345   7.420   2.916   7.386  0.5838  0.7323  0.6954
  594MOL0     H78346   7.367   2.999   7.243 -2.8404  0.1656 -1.0106
  594MOL0     H78347   7.145   2.884   7.417 -0.3466  0.8216  0.1211
  594MOL0     H78348   7.223   2.805   7.278 -1.3671 -0.2529  0.3505
  594MOL0     H78349   7.101   3.091   7.263  1.4435 -1.3021  1.3600
  594MOL0     H78350   7.012   2.943   7.243  0.5435  0.1997  0.3148
  594MOL0     H78351   7.250   3.065   7.076 -2.2774  1.3682 -1.1215
  594MOL0     H78352   7.222   2.899   7.055  1.2620 -0.1011 -0.2617
  594MOL0     H78353   7.013   3.137   7.021  1.8226  1.5485  0.6584
  594MOL0     H78354   6.983   2.966   6.983  0.6742  0.4648 -1.2440
  594MOL0     H78355   7.178   2.959   6.833 -2.0166 -0.2625 -1.4123
  594MOL0     H78356   7.203   3.132   6.861 -2.6829  2.3736  0.5515
  594MOL0     H78357   6.943   3.014   6.745 -2.3818  3.1290  2.5844
  594MOL0     H78358   7.002   3.182   6.730  0.7566  0.2404 -3.6252
  594MOL0     H78359   7.032   3.094   6.526  2.4053  2.0681 -2.2702
  594MOL0     H78360   7.124   2.954   6.571  1.8952  1.5877 -2.6002
  594MOL0     H78361   7.141   3.328   6.596  2.1423  1.5324  0.7103
  594MOL0     H78362   7.329   3.504   6.490  1.8451  1.6009 -0.3527
  594MOL0     H78363   7.401   3.409   6.351 -1.7231 -0.4966 -0.5743
  594MOL0     H78364   7.593   3.378   6.510 -1.5950 -2.2530 -4.8689
  594MOL0     H78365   7.516   3.479   6.628 -0.6301  0.8396 -0.4919
  594MOL0     H78366   7.522   3.625   6.372 -0.7813 -0.8317  0.2858
  594MOL0     H78367   7.550   3.667   6.533  2.3370 -0.2127 -0.6332
  594MOL0     H78368   7.730   3.550   6.341 -2.1518  4.1018 -0.6369
  594MOL0     H78369   7.782   3.553   6.520  1.7994 -0.9850 -1.3585
  594MOL0     H78370   7.867   3.946   6.313 -0.5246  0.1921  1.9468
  594MOL0     H78371   8.074   3.968   6.178 -0.3759 -0.3849  1.4353
  594MOL0     H78372   8.490   3.504   6.112  0.6159  0.9098  0.3417
  594MOL0     H78373   8.713   3.495   6.020  0.1214  0.1631 -1.2399
  594MOL0     H78374   8.738   3.417   5.774  0.0739  0.2377  0.3892
  594MOL0     H78375   8.848   3.489   5.641  0.2072 -0.0322  1.0313
  594MOL0     H78376   8.651   3.615   5.573  4.5031  1.3900  5.1133
  594MOL0     H78377   8.555   3.500   5.662 -0.2551  0.4147  1.0778
  594MOL0     H78378   8.689   3.307   5.547 -2.3231  0.1542  1.5147
  594MOL0     H78379   8.765   3.428   5.448  0.8023  0.1302 -0.4190
  594MOL0     H78380   8.462   3.391   5.489 -1.4982  2.5208 -1.2369
  594MOL0     H78381   8.529   3.476   5.356  2.9675  4.3158  3.2680
  594MOL0     H78382   8.551   3.180   5.398  0.6289  0.2078  0.1157
  594MOL0     H78383   8.662   3.261   5.282  1.4852  1.7214  2.3453
  594MOL0     H78384   8.454   3.152   5.184  1.7915  1.3786 -1.0825
  594MOL0     H78385   8.451   3.323   5.155  3.5845  0.3350  0.2219
  594MOL0     H78386   8.315   3.171   5.401 -2.6740 -1.6790 -1.2417
  594MOL0     H78387   8.313   3.348   5.365  0.4799 -0.0345 -0.1431
  594MOL0     H78388   8.187   3.324   5.170 -1.1292 -0.3930  1.1396
  594MOL0     H78389   8.087   3.240   5.292 -0.0125 -3.4742  1.2218
  594MOL0     H78390   8.613   3.824   5.755 -0.8181  0.2731 -0.4953
  594MOL0     H78391   8.402   3.859   5.872  3.5642  2.1045 -1.7081
  594MOL0     H78392   8.164   3.556   6.235 -1.3975 -0.7178 -0.9846
  594MOL0     H78393   7.965   3.519   6.362  1.6206 -1.1350  0.2803
  594MOL0     H78394   7.300   3.310   7.277 -1.8331 -0.2641  1.3321
  594MOL0     H78395   7.504   3.473   7.224  0.1166  0.9825  0.6110
  594MOL0     H78396   7.841   3.544   7.114 -0.5714  0.3653  1.2854
  594MOL0     H78397   8.023   3.664   6.992  0.9753  2.7321  1.4501
  594MOL0     H78398   8.417   3.576   7.090  1.3227  0.5042 -0.0811
  594MOL0     H78399   8.409   3.703   7.216  1.3225 -0.3642 -0.6891
  594MOL0     H78400   8.570   3.762   7.030 -0.7263 -0.0162 -0.1434
  594MOL0     H78401   8.431   3.774   6.918 -0.1515 -2.6727 -0.1442
  594MOL0     H78402   8.496   3.897   7.184 -1.4599 -0.3811  0.0342
  594MOL0     H78403   8.361   3.958   7.090  0.8441  2.4785  0.8219
  594MOL0     H78404   8.647   3.967   6.992 -1.7825 -2.4232 -2.5508
  594MOL0     H78405   8.504   4.049   6.917 -0.7624  0.3977  0.3294
  594MOL0     H78406   8.655   4.317   7.192  1.6524 -1.3163 -1.5202
  594MOL0     H78407   8.273   3.594   7.340  0.0432 -1.1161  0.0743
  594MOL0     H78408   8.101   3.512   7.450 -0.7729 -1.3456  0.8351
  595MOL0     O78409   3.802   0.575   1.746  0.5486 -0.2179  0.3565
  595MOL0     C78410   3.851   0.469   1.777  0.4197  0.7112 -0.1848
  595MOL0     O78411   3.837   0.408   1.899  0.4499  0.8456 -0.5575
  595MOL0     C78412   3.761   0.452   1.999 -0.5582  0.7370 -0.1107
  595MOL0     C78413   3.724   0.582   2.043 -0.4261  0.1477 -0.0916
  595MOL0     C78414   3.630   0.602   2.145  0.4522 -0.1769 -0.1812
  595MOL0     C78415   3.581   0.499   2.221  0.1772 -0.1982  0.0759
  595MOL0     O78416   3.488   0.512   2.316  0.3245  0.3802 -0.1649
  595MOL0     C78417   3.425   0.639   2.355  0.3732  1.1005  0.5028
  595MOL0     C78418   3.332   0.714   2.251 -0.5773  0.5632 -0.1327
  595MOL0     C78419   3.222   0.622   2.205  0.5777 -0.3958  0.0494
  595MOL0     C78420   3.238   0.544   2.075  0.3419  0.0104  1.1410
  595MOL0     C78421   3.144   0.425   2.055  1.2101 -0.6909  0.2886
  595MOL0     C78422   3.000   0.474   2.030  1.3282 -0.2132  0.4474
  595MOL0     C78423   2.919   0.347   2.031  0.1201  0.5419 -0.0485
  595MOL0     C78424   2.769   0.379   2.043 -0.2673 -0.3955 -0.4282
  595MOL0     N78425   2.707   0.335   1.928 -0.8965  0.0386  0.4656
  595MOL0     C78426   2.714   0.390   1.810 -0.1593  0.1442 -0.6826
  595MOL0     C78427   2.644   0.304   1.728  0.2804  0.5935  0.6420
  595MOL0     C78428   2.644   0.305   1.579  1.2030 -0.4153 -0.1352
  595MOL0     C78429   2.531   0.379   1.512  0.1991  0.0410 -0.0258
  595MOL0     C78430   2.399   0.303   1.522 -0.5734 -0.1404  0.2052
  595MOL0     C78431   2.283   0.352   1.449  0.6818  0.1445  0.4670
  595MOL0     O78432   2.216   0.455   1.522  0.1885  0.2351  0.0759
  595MOL0     C78433   2.107   0.516   1.472 -0.8300  0.1513 -0.5573
  595MOL0     C78434   2.066   0.526   1.344  0.2366 -0.1645  0.3753
  595MOL0     C78435   1.952   0.598   1.296  0.1186 -0.1413  0.1926
  595MOL0     C78436   1.885   0.680   1.387 -0.7187  0.0237 -0.8905
  595MOL0     C78437   1.776   0.764   1.360 -0.0846 -0.0044 -0.8717
  595MOL0     O78438   1.757   0.874   1.442  0.4674 -0.1360 -0.3265
  595MOL0     C78439   1.644   0.950   1.435 -0.7891  1.5909 -0.2449
  595MOL0     C78440   1.633   1.061   1.353 -0.9193  1.2289 -0.8419
  595MOL0     C78441   1.517   1.134   1.369 -0.5857  0.5797 -0.7899
  595MOL0     C78442   1.413   1.108   1.466 -0.8200  0.2611 -0.0416
  595MOL0     O78443   1.309   1.192   1.489  0.4781 -0.6436  0.3683
  595MOL0     C78444   1.245   1.234   1.372  0.5972  0.3873 -0.2759
  595MOL0     C78445   1.108   1.300   1.392  0.2986 -0.8914  0.0129
  595MOL0     C78446   1.001   1.198   1.391  0.2676  0.9070 -0.2630
  595MOL0     C78447   0.867   1.252   1.437 -0.2131 -0.0458 -0.6594
  595MOL0     C78448   0.762   1.138   1.473 -0.0547  0.5626 -0.4607
  595MOL0     C78449   0.693   1.083   1.358 -0.2468  0.2953 -0.7188
  595MOL0     C78450   0.634   0.937   1.370  0.3198  0.2871 -0.2022
  595MOL0     C78451   0.522   0.941   1.477  0.2476  0.6622 -0.1368
  595MOL0    Cl78452   0.395   0.811   1.439  0.5173 -0.3778  0.2779
  595MOL0     C78453   1.421   0.986   1.539 -0.2832 -0.2180  0.0954
  595MOL0     C78454   1.539   0.915   1.525  0.2177 -0.5191 -1.2013
  595MOL0     O78455   1.718   0.744   1.257  0.1785 -0.2738 -0.3043
  595MOL0     C78456   1.920   0.670   1.529 -0.3185 -0.2419  0.1718
  595MOL0     C78457   2.035   0.592   1.564  0.2329  0.1066  0.6903
  595MOL0     N78458   2.579   0.214   1.809  0.1197  0.6948 -0.1608
  595MOL0     N78459   2.622   0.235   1.928 -0.1960  0.0116  1.0733
  595MOL0     C78460   3.623   0.373   2.185 -0.8346  0.0090  1.0114
  595MOL0     C78461   3.717   0.348   2.070  0.4999 -0.3663 -0.6846
  595MOL0     C78462   3.978   0.422   1.711  1.4511  0.1393  0.1493
  595MOL0     C78463   4.066   0.338   1.779  0.2030 -0.0056  0.4261
  595MOL0     C78464   4.189   0.315   1.723  0.4279  0.6540  0.5125
  595MOL0     C78465   4.238   0.362   1.603  0.3691  0.2532  0.2580
  595MOL0     O78466   4.356   0.324   1.543  0.1284  0.4425  0.2956
  595MOL0     C78467   4.485   0.316   1.608 -0.4724 -0.1180 -1.0016
  595MOL0     C78468   4.540   0.450   1.652  0.2033  0.0580  0.3652
  595MOL0     C78469   4.517   0.569   1.548 -0.1669 -0.6920  0.3797
  595MOL0     C78470   4.543   0.705   1.621 -0.4443  0.2912  0.4078
  595MOL0     C78471   4.522   0.817   1.534  0.5691  0.3696  0.5913
  595MOL0     C78472   4.500   0.917   1.472 -0.2924  0.3579 -0.8954
  595MOL0     C78473   4.148   0.436   1.532 -0.0444 -0.1925 -0.4760
  595MOL0     C78474   4.017   0.468   1.581 -0.6017  1.1640 -0.0167
  595MOL0     H78475   3.765   0.661   1.981 -0.5985 -0.6276 -1.2076
  595MOL0     H78476   3.608   0.708   2.159 -0.7264  0.1574 -3.6389
  595MOL0     H78477   3.508   0.702   2.390  1.9232 -1.8609  2.5911
  595MOL0     H78478   3.374   0.626   2.450  0.7952  0.9169  0.7089
  595MOL0     H78479   3.383   0.749   2.160  0.8693  0.6078  0.6670
  595MOL0     H78480   3.291   0.801   2.302  2.5461  1.1878  1.5652
  595MOL0     H78481   3.147   0.695   2.171 -0.6456 -1.3237  0.6868
  595MOL0     H78482   3.181   0.558   2.283 -2.6844 -0.6643 -1.7195
  595MOL0     H78483   3.234   0.612   1.989 -2.2426 -0.3532  0.8993
  595MOL0     H78484   3.341   0.507   2.075  0.7062  0.9450 -0.3518
  595MOL0     H78485   3.137   0.373   2.151 -2.7618 -0.2444  0.4018
  595MOL0     H78486   3.179   0.358   1.975 -0.0063 -1.2541  0.2087
  595MOL0     H78487   2.980   0.530   1.938 -2.2038 -1.6482  0.1752
  595MOL0     H78488   2.965   0.538   2.112 -0.5435 -2.3559  1.4318
  595MOL0     H78489   2.941   0.280   1.947 -0.3880 -2.3595  1.9676
  595MOL0     H78490   2.948   0.295   2.123 -0.3188 -2.0978 -1.3097
  595MOL0     H78491   2.751   0.484   2.065 -0.3418 -0.3731 -0.5989
  595MOL0     H78492   2.721   0.320   2.122 -2.0124  0.0457 -1.1274
  595MOL0     H78493   2.771   0.481   1.792  2.2344 -0.8554  1.1850
  595MOL0     H78494   2.643   0.203   1.540  1.5252 -1.0864  1.5488
  595MOL0     H78495   2.738   0.354   1.551  0.9223  3.6825  4.6626
  595MOL0     H78496   2.559   0.382   1.406 -2.8686 -2.7214 -1.0973
  595MOL0     H78497   2.525   0.478   1.556 -2.9171 -0.4867  1.0481
  595MOL0     H78498   2.415   0.197   1.500  0.9780  0.5063 -2.1171
  595MOL0     H78499   2.371   0.295   1.628 -1.8685  3.2631  0.2333
  595MOL0     H78500   2.217   0.269   1.422 -0.6668  2.1479 -3.0314
  595MOL0     H78501   2.314   0.383   1.349 -0.1099  1.8196  0.7058
  595MOL0     H78502   2.119   0.473   1.266  0.2109  0.9222 -0.3961
  595MOL0     H78503   1.940   0.601   1.188 -3.3731 -0.4570  0.4656
  595MOL0     H78504   1.727   1.085   1.305  0.7087 -0.1273  1.4412
  595MOL0     H78505   1.512   1.227   1.313  2.8575  1.2249 -0.2429
  595MOL0     H78506   1.233   1.153   1.300  0.5854  0.3479 -0.2298
  595MOL0     H78507   1.310   1.297   1.311 -0.4095  0.4877 -1.2765
  595MOL0     H78508   1.100   1.363   1.303  3.7039  1.6840  1.3365
  595MOL0     H78509   1.111   1.370   1.476 -1.8875 -0.8726  0.1529
  595MOL0     H78510   1.019   1.111   1.454 -4.9758  0.0918  0.6142
  595MOL0     H78511   0.984   1.156   1.292 -1.7304 -2.0171  1.1627
  595MOL0     H78512   0.879   1.312   1.528 -3.3505 -0.7775  0.3946
  595MOL0     H78513   0.824   1.304   1.351  0.6015 -1.0951 -1.7203
  595MOL0     H78514   0.689   1.179   1.544 -0.8063 -0.7383 -0.4332
  595MOL0     H78515   0.820   1.059   1.523 -0.1381  2.1772  2.3750
  595MOL0     H78516   0.759   1.101   1.273 -0.0941  1.5342 -0.3542
  595MOL0     H78517   0.607   1.148   1.338 -0.7568  1.1137  3.3308
  595MOL0     H78518   0.579   0.923   1.276 -2.3504 -2.7524  1.5937
  595MOL0     H78519   0.705   0.854   1.379  2.2666  1.7867 -1.0377
  595MOL0     H78520   0.458   1.029   1.466 -1.3174 -0.5400 -1.1576
  595MOL0     H78521   0.578   0.936   1.571  0.9225 -4.6033 -0.5078
  595MOL0     H78522   1.350   0.953   1.615  2.5939 -0.9440  2.7003
  595MOL0     H78523   1.557   0.827   1.586  0.5126 -1.0747 -2.0827
  595MOL0     H78524   1.871   0.716   1.614  1.2686  0.0469  0.9721
  595MOL0     H78525   2.072   0.593   1.666 -2.3397 -0.4294  1.7321
  595MOL0     H78526   3.585   0.286   2.238 -2.4813  1.3579  2.1645
  595MOL0     H78527   3.755   0.251   2.038 -0.3677 -0.1159 -2.5703
  595MOL0     H78528   4.049   0.287   1.873 -1.8273 -0.5679 -0.1991
  595MOL0     H78529   4.257   0.261   1.788  1.1765  5.6761  4.5785
  595MOL0     H78530   4.555   0.280   1.531  3.2272  3.0528  0.5850
  595MOL0     H78531   4.487   0.252   1.697 -0.2681 -0.9144 -1.5629
  595MOL0     H78532   4.490   0.473   1.747 -2.0853 -1.5550 -0.3381
  595MOL0     H78533   4.641   0.439   1.691  0.5084 -2.0025 -0.8972
  595MOL0     H78534   4.425   0.562   1.489  0.6997 -4.4901 -0.8112
  595MOL0     H78535   4.585   0.567   1.462 -1.6173  2.0366 -0.9353
  595MOL0     H78536   4.477   0.702   1.708 -1.9647 -0.6420 -0.7222
  595MOL0     H78537   4.643   0.714   1.663 -1.0539  1.6177  1.6504
  595MOL0     H78538   4.466   1.007   1.425 -3.6461 -1.5356 -2.4298
  595MOL0     H78539   4.176   0.484   1.439  0.4648 -0.4989 -0.4822
  595MOL0     H78540   3.955   0.534   1.520 -0.9668  0.7649 -0.0812
  596MOL0     O78541   4.507  11.105   4.643  0.1671  0.0451  0.0181
  596MOL0     C78542   4.582  11.012   4.607  0.1176  0.0549  0.0336
  596MOL0     O78543   4.550  10.877   4.599 -0.3063 -0.0147 -0.2329
  596MOL0     C78544   4.426  10.839   4.576 -0.3335  0.6822  0.2870
  596MOL0     C78545   4.343  10.914   4.487 -0.0119 -0.2454 -0.3383
  596MOL0     C78546   4.217  10.870   4.442  0.0384  0.9026 -0.2736
  596MOL0     C78547   4.165  10.758   4.519  0.6539 -0.4152 -0.6660
  596MOL0     O78548   4.035  10.730   4.480  0.8936 -0.3178 -0.5821
  596MOL0     C78549   3.934  10.658   4.557  0.2508 -0.6692 -0.1899
  596MOL0     C78550   3.849  10.738   4.654 -0.8702 -0.2118  0.6576
  596MOL0     C78551   3.933  10.840   4.728 -0.4340  0.4311  1.4964
  596MOL0     C78552   3.836  10.945   4.770 -0.2177  0.4774 -0.6659
  596MOL0     C78553   3.889  11.051   4.857 -0.3960  0.3448 -0.1004
  596MOL0     C78554   4.019  11.120   4.821  0.1480 -0.1681  0.1860
  596MOL0     C78555   4.032  11.256   4.893 -0.7332  0.7257 -0.4657
  596MOL0     C78556   4.144  11.340   4.844 -0.6843  0.6744 -0.1076
  596MOL0     N78557   4.143  11.461   4.926 -0.2962  0.4056 -0.0730
  596MOL0     C78558   4.046  11.561   4.923  0.7704  0.1714 -0.2013
  596MOL0     C78559   4.087  11.662   5.006 -0.3295  0.3058 -0.3100
  596MOL0     C78560   4.017  11.788   5.026 -0.8840  1.0953  0.6990
  596MOL0     C78561   3.954  11.801   5.167  0.3957 -0.6466 -0.6312
  596MOL0     C78562   3.967  11.950   5.213 -0.3147  0.2815 -0.4543
  596MOL0     C78563   3.842  12.039   5.202 -0.2025 -0.3962  0.5927
  596MOL0     O78564   3.752  12.002   5.306  0.3801 -0.0444 -0.6148
  596MOL0     C78565   3.729  12.088   5.413 -0.4649  0.2846  0.1333
  596MOL0     C78566   3.612  12.073   5.475  0.3737  0.7284 -0.0483
  596MOL0     C78567   3.582  12.168   5.575  0.4668  0.1168 -0.2103
  596MOL0     C78568   3.675  12.254   5.635 -0.4335  0.3454  0.8262
  596MOL0     C78569   3.647  12.348   5.743  0.8161  1.0492  0.4124
  596MOL0     O78570   3.756  12.418   5.791  0.2827 -0.8968 -1.3694
  596MOL0     C78571   3.733  12.534   5.863  0.7350  0.4809  0.5001
  596MOL0     C78572   3.736  12.659   5.798  0.0632  0.1540  0.2565
  596MOL0     C78573   3.712  12.779   5.867 -0.5837  0.5647 -0.4497
  596MOL0     C78574   3.699  12.774   6.005 -0.3010  0.6702 -0.0151
  596MOL0     O78575   3.676  12.900   6.062 -0.9117  0.0611 -0.0942
  596MOL0     C78576   3.721  12.920   6.202 -0.2062 -0.0253 -0.0973
  596MOL0     C78577   3.611  12.894   6.303 -0.2742  0.0936  0.3889
  596MOL0     C78578   3.532  13.031   6.317 -0.0760  0.3089 -0.1216
  596MOL0     C78579   3.404  13.000   6.392  0.3481 -0.6092 -0.2105
  596MOL0     C78580   3.319  13.126   6.391 -0.1569  1.4107  0.1210
  596MOL0     C78581   3.202  13.102   6.488  1.0169 -1.0332 -0.8413
  596MOL0     C78582   3.104  13.219   6.504  0.0500 -0.5788  0.4954
  596MOL0     C78583   3.002  13.189   6.615  0.2437  0.4848  0.0925
  596MOL0    Cl78584   2.901  13.048   6.562  0.4092  0.2358 -0.2009
  596MOL0     C78585   3.704  12.645   6.071  0.6596  0.3479 -0.6510
  596MOL0     C78586   3.726  12.528   6.004  0.2216 -1.3187  0.3301
  596MOL0     O78587   3.531  12.383   5.762  0.4904  0.5329  0.4726
  596MOL0     C78588   3.806  12.248   5.583  0.4298  0.1204 -0.1218
  596MOL0     C78589   3.824  12.175   5.467 -0.5102 -1.1550  0.9824
  596MOL0     N78590   4.201  11.621   5.057 -0.9980 -0.0222 -0.6643
  596MOL0     N78591   4.235  11.508   5.009  0.2966  0.1733  0.3628
  596MOL0     C78592   4.240  10.685   4.609 -0.6604 -0.5607 -0.6805
  596MOL0     C78593   4.373  10.719   4.636 -0.5714 -0.0708  0.2191
  596MOL0     C78594   4.713  11.039   4.570  0.5142 -0.0404 -0.0883
  596MOL0     C78595   4.802  10.939   4.525  0.3093  0.2083 -0.0045
  596MOL0     C78596   4.932  10.972   4.487 -0.2605  0.3544 -0.4262
  596MOL0     C78597   4.972  11.104   4.493 -0.7424 -0.0447  0.3781
  596MOL0     O78598   5.106  11.143   4.477 -0.6719 -0.4706  0.1842
  596MOL0     C78599   5.175  11.079   4.362 -0.4574 -0.2855 -0.0942
  596MOL0     C78600   5.277  11.166   4.296  0.0264 -0.1441  0.4926
  596MOL0     C78601   5.229  11.262   4.194  1.1787  0.3567  0.3629
  596MOL0     C78602   5.127  11.369   4.232 -0.4375  0.0601 -0.6261
  596MOL0     C78603   5.189  11.438   4.344  0.2205 -1.0795  0.2424
  596MOL0     C78604   5.233  11.522   4.429 -0.9410  0.5006  0.8437
  596MOL0     C78605   4.888  11.204   4.537 -0.5158 -0.1937 -0.1442
  596MOL0     C78606   4.760  11.168   4.580 -0.4646  0.3148 -0.5514
  596MOL0     H78607   4.386  11.006   4.448  0.3055  0.1805  0.9833
  596MOL0     H78608   4.151  10.904   4.362 -1.4636 -1.7289 -0.2734
  596MOL0     H78609   3.980  10.588   4.627  0.1903 -0.5393 -0.0169
  596MOL0     H78610   3.859  10.607   4.496 -0.5085  0.7364 -0.4652
  596MOL0     H78611   3.812  10.676   4.735  3.7396 -3.6888  0.5434
  596MOL0     H78612   3.776  10.792   4.594  1.6869  4.3499  1.1510
  596MOL0     H78613   4.005  10.894   4.666 -0.6279 -0.9455  0.0160
  596MOL0     H78614   3.984  10.799   4.816  0.5481 -1.6079  0.0632
  596MOL0     H78615   3.793  10.990   4.680 -2.3901  1.4202  0.7257
  596MOL0     H78616   3.744  10.905   4.814  1.6804 -2.9755  0.5207
  596MOL0     H78617   3.911  11.001   4.952 -1.0443 -1.0949 -0.6653
  596MOL0     H78618   3.810  11.125   4.872  1.4124  1.9784  1.8226
  596MOL0     H78619   4.010  11.145   4.715  3.4211 -1.0725 -0.4190
  596MOL0     H78620   4.115  11.068   4.830  1.6490  2.5106  0.9255
  596MOL0     H78621   3.936  11.308   4.891  0.1407  2.4382  0.3792
  596MOL0     H78622   4.055  11.239   4.999  0.2299 -3.6478 -1.1868
  596MOL0     H78623   4.140  11.356   4.735 -2.0074  1.0314 -0.0182
  596MOL0     H78624   4.242  11.293   4.855 -0.2768  1.7036  0.8623
  596MOL0     H78625   3.952  11.555   4.869  0.6457 -1.2486  0.1509
  596MOL0     H78626   3.930  11.802   4.960 -1.1094  5.5427  1.6252
  596MOL0     H78627   4.081  11.875   5.009 -2.1321  1.6827 -1.4807
  596MOL0     H78628   4.020  11.750   5.238 -0.3085 -1.6049 -0.6435
  596MOL0     H78629   3.852  11.761   5.165  0.6259 -1.2365 -2.1343
  596MOL0     H78630   4.002  11.942   5.316 -1.0559  4.1106  0.2505
  596MOL0     H78631   4.055  12.003   5.173 -0.5641  1.7090  0.8139
  596MOL0     H78632   3.795  12.032   5.103  2.8141 -1.6991 -0.8810
  596MOL0     H78633   3.878  12.142   5.212 -0.0170 -0.4337  0.3301
  596MOL0     H78634   3.549  11.991   5.444  1.0649 -0.0720  0.6177
  596MOL0     H78635   3.482  12.162   5.618  0.6259 -0.0416  0.1381
  596MOL0     H78636   3.746  12.670   5.691  0.6525  0.5238  0.3400
  596MOL0     H78637   3.702  12.874   5.815 -0.4127  0.4189 -0.7570
  596MOL0     H78638   3.760  13.022   6.205 -1.4835  0.4669  0.1907
  596MOL0     H78639   3.799  12.844   6.219  2.0384  0.9472 -4.4245
  596MOL0     H78640   3.651  12.867   6.402  2.0144  1.1903 -0.1622
  596MOL0     H78641   3.544  12.814   6.274 -0.9221  0.9677 -0.5765
  596MOL0     H78642   3.505  13.063   6.216 -0.3482  1.7947  0.3867
  596MOL0     H78643   3.595  13.111   6.359  1.5395 -0.2855 -1.3032
  596MOL0     H78644   3.338  12.926   6.346 -3.2916  1.0510  1.9093
  596MOL0     H78645   3.433  12.969   6.493  4.1913  0.7540 -0.7361
  596MOL0     H78646   3.307  13.157   6.287 -0.2178  2.8426  0.5294
  596MOL0     H78647   3.376  13.208   6.437 -0.1711  2.3528 -1.4639
  596MOL0     H78648   3.232  13.075   6.589 -1.7022 -2.4073 -0.3052
  596MOL0     H78649   3.137  13.022   6.451 -5.9240  3.6745 -0.8992
  596MOL0     H78650   3.151  13.316   6.519  2.0405 -0.8075 -3.0997
  596MOL0     H78651   3.067  13.249   6.405 -0.1596  1.3783  1.1304
  596MOL0     H78652   2.922  13.264   6.624 -0.2989  0.0030 -0.5942
  596MOL0     H78653   3.053  13.174   6.710 -1.3201 -0.7200  0.7832
  596MOL0     H78654   3.704  12.653   6.180 -0.2700  0.7480 -0.6738
  596MOL0     H78655   3.760  12.440   6.059  3.6345 -1.5864 -1.8992
  596MOL0     H78656   3.880  12.310   5.633  0.7435 -2.1029  2.4174
  596MOL0     H78657   3.920  12.187   5.420 -2.1694 -1.0497 -2.7264
  596MOL0     H78658   4.200  10.595   4.656 -1.5197 -0.0353 -0.3827
  596MOL0     H78659   4.437  10.671   4.709 -0.0844  1.2642  0.6889
  596MOL0     H78660   4.783  10.832   4.521  2.1839 -0.2570  1.7127
  596MOL0     H78661   4.994  10.899   4.436 -2.3072 -1.9438  0.1892
  596MOL0     H78662   5.112  11.039   4.281  2.1804 -1.7706 -1.5362
  596MOL0     H78663   5.222  10.992   4.408  0.0683  0.3170  0.5210
  596MOL0     H78664   5.332  11.223   4.372 -1.0624 -0.6011  1.6692
  596MOL0     H78665   5.341  11.095   4.242 -2.0736  0.3914 -2.9691
  596MOL0     H78666   5.190  11.210   4.106  1.4288  0.7301  0.0268
  596MOL0     H78667   5.319  11.318   4.164  0.1916  1.8554  0.1123
  596MOL0     H78668   5.108  11.431   4.144  1.0558 -0.3176 -1.2533
  596MOL0     H78669   5.032  11.325   4.263  1.7371 -2.3430  3.4003
  596MOL0     H78670   5.266  11.585   4.509  1.8261 -3.0931  2.8111
  596MOL0     H78671   4.912  11.309   4.541  2.0826 -0.7243 -0.1189
  596MOL0     H78672   4.691  11.245   4.615 -1.7471 -0.7752 -0.5702
  597MOL0     O78673   1.856   2.932   7.785  1.1932  0.0331 -0.0817
  597MOL0     C78674   1.752   2.995   7.763  0.1042  0.0876 -0.1162
  597MOL0     O78675   1.625   2.943   7.767 -0.3362 -0.5574  0.0327
  597MOL0     C78676   1.629   2.807   7.755  0.7066  1.1041  1.1454
  597MOL0     C78677   1.610   2.721   7.858 -0.3186 -0.5787 -0.3073
  597MOL0     C78678   1.599   2.581   7.843 -0.7449  0.4328 -0.2125
  597MOL0     C78679   1.596   2.521   7.715  0.9638  0.1783 -0.2943
  597MOL0     O78680   1.595   2.387   7.698 -0.3451  0.3518 -0.2206
  597MOL0     C78681   1.545   2.285   7.796  0.0315 -0.2917  1.0688
  597MOL0     C78682   1.529   2.155   7.711 -0.0421  0.0723 -0.6286
  597MOL0     C78683   1.660   2.098   7.657  0.9516 -0.2852  0.7738
  597MOL0     C78684   1.637   1.999   7.541  0.0613 -0.2619 -0.4437
  597MOL0     C78685   1.728   1.878   7.551  0.5665  0.7162 -0.6833
  597MOL0     C78686   1.708   1.758   7.454 -1.2463 -0.7383  0.1896
  597MOL0     C78687   1.812   1.642   7.469  0.5486 -0.6436 -0.7232
  597MOL0     C78688   1.784   1.525   7.370 -0.1584  0.1185  0.5851
  597MOL0     N78689   1.823   1.551   7.230  0.2910 -1.1549 -0.6731
  597MOL0     C78690   1.732   1.594   7.133 -0.2386 -0.3881  0.7085
  597MOL0     C78691   1.789   1.573   7.013  0.4677 -0.5418 -0.9649
  597MOL0     C78692   1.711   1.593   6.885 -0.6175 -0.2862  0.1496
  597MOL0     C78693   1.736   1.480   6.785  1.0889  0.8343  0.2704
  597MOL0     C78694   1.837   1.513   6.672 -0.0389  0.0220  0.3694
  597MOL0     C78695   1.892   1.389   6.601 -0.1039  0.1237  1.4493
  597MOL0     O78696   1.787   1.307   6.551 -0.2662  0.1451  0.4085
  597MOL0     C78697   1.821   1.195   6.479  0.2411  1.1930  0.2157
  597MOL0     C78698   1.727   1.109   6.425 -0.3349 -0.0149  0.0117
  597MOL0     C78699   1.765   0.987   6.357  0.4261 -0.8980 -0.1988
  597MOL0     C78700   1.901   0.947   6.349 -0.8913  1.3305 -0.8267
  597MOL0     C78701   1.939   0.809   6.295 -0.1350 -0.3058  0.4018
  597MOL0     O78702   2.070   0.764   6.306  0.0747 -0.3582  0.3170
  597MOL0     C78703   2.108   0.646   6.248  0.7332 -0.1119 -0.3286
  597MOL0     C78704   2.224   0.664   6.157  1.4461 -0.2170  0.4293
  597MOL0     C78705   2.260   0.553   6.070 -0.6916  0.2428 -0.1967
  597MOL0     C78706   2.175   0.440   6.060 -1.0886  0.3526 -0.6447
  597MOL0     O78707   2.202   0.341   5.972 -0.1599  0.6959 -0.7639
  597MOL0     C78708   2.184   0.377   5.835  0.1570 -0.7578  0.7087
  597MOL0     C78709   2.154   0.245   5.762  0.1494  0.1897  0.1841
  597MOL0     C78710   2.007   0.202   5.774 -0.7958 -0.0342  0.1587
  597MOL0     C78711   1.970   0.088   5.675  0.0500 -0.0794  0.5260
  597MOL0     C78712   2.009  -0.049   5.743  0.9138 -0.8144 -1.5239
  597MOL0     C78713   1.971  -0.176   5.656  0.1290  0.1185  0.0204
  597MOL0     C78714   1.821  -0.204   5.671  0.0689 -0.2766  0.0580
  597MOL0     C78715   1.779  -0.309   5.572  0.2607  0.9751  1.2255
  597MOL0    Cl78716   1.855  -0.470   5.585 -0.2407  0.5440  0.1379
  597MOL0     C78717   2.067   0.430   6.141 -0.4160 -0.3792  0.5343
  597MOL0     C78718   2.032   0.526   6.233  0.1484 -0.5820  0.4849
  597MOL0     O78719   1.850   0.755   6.236 -0.4545 -0.6063 -0.0833
  597MOL0     C78720   1.992   1.034   6.396  0.4089  0.5087  0.3786
  597MOL0     C78721   1.959   1.154   6.460  0.4634 -0.0004 -1.1359
  597MOL0     N78722   1.919   1.530   7.035 -0.2056 -0.2459  1.0960
  597MOL0     N78723   1.935   1.511   7.164  0.8368 -0.3041  0.9528
  597MOL0     C78724   1.623   2.610   7.615  0.0997  0.4901  0.6720
  597MOL0     C78725   1.639   2.743   7.630  0.6369 -0.4539  0.7737
  597MOL0     C78726   1.772   3.143   7.735 -1.3171  0.4529 -0.0248
  597MOL0     C78727   1.671   3.228   7.683 -0.1393  0.5640  2.0297
  597MOL0     C78728   1.693   3.365   7.651 -0.0218  0.7917  0.3138
  597MOL0     C78729   1.824   3.414   7.669 -1.3105  0.2222  0.2042
  597MOL0     O78730   1.850   3.542   7.620  0.8952  0.9819 -0.0791
  597MOL0     C78731   1.968   3.612   7.657  0.0386 -0.9268 -0.3473
  597MOL0     C78732   1.979   3.651   7.805  0.1160 -0.4023 -0.4497
  597MOL0     C78733   2.093   3.753   7.812 -0.0065  0.5445  1.3831
  597MOL0     C78734   2.113   3.794   7.953  0.2184  0.2465  0.0763
  597MOL0     C78735   2.237   3.863   7.980  0.2870 -0.1006  0.7881
  597MOL0     C78736   2.332   3.937   8.015  0.1105 -0.0232 -0.2610
  597MOL0     C78737   1.922   3.332   7.740  0.5625  0.6824  1.1158
  597MOL0     C78738   1.893   3.202   7.778  0.2911  0.2478  0.2332
  597MOL0     H78739   1.610   2.777   7.951 -3.3273 -0.0108 -0.5641
  597MOL0     H78740   1.567   2.528   7.932 -3.1006  3.2165  0.7826
  597MOL0     H78741   1.448   2.299   7.844 -2.0138 -2.5772 -1.9889
  597MOL0     H78742   1.626   2.257   7.864  1.4297 -1.4199 -0.9454
  597MOL0     H78743   1.459   2.173   7.629 -0.9425  0.5815  0.2386
  597MOL0     H78744   1.478   2.082   7.775  1.3038 -0.4836 -0.1632
  597MOL0     H78745   1.723   2.059   7.737 -0.2659  0.6176  2.2143
  597MOL0     H78746   1.715   2.184   7.618  0.5758 -0.1828  0.4590
  597MOL0     H78747   1.532   1.968   7.542 -0.5381  1.6588  1.1841
  597MOL0     H78748   1.651   2.060   7.451  0.5207 -1.8586 -1.5036
  597MOL0     H78749   1.719   1.835   7.651  1.1391  1.5629 -0.2540
  597MOL0     H78750   1.826   1.924   7.540  0.4964  1.5786  1.8080
  597MOL0     H78751   1.720   1.806   7.357 -2.3821  1.2527  0.9914
  597MOL0     H78752   1.610   1.709   7.454 -1.3120 -0.6444 -0.9381
  597MOL0     H78753   1.914   1.681   7.463  0.4697 -0.3067  0.0758
  597MOL0     H78754   1.799   1.608   7.571  1.3052 -1.1016 -0.7696
  597MOL0     H78755   1.676   1.504   7.372 -0.3395  0.9834  0.2870
  597MOL0     H78756   1.842   1.435   7.392 -1.5287 -0.1585  3.6025
  597MOL0     H78757   1.630   1.625   7.152  0.4914  3.4393 -0.7229
  597MOL0     H78758   1.745   1.687   6.839  2.4526 -1.3059  0.0641
  597MOL0     H78759   1.603   1.601   6.896 -0.4151  0.7184  1.5904
  597MOL0     H78760   1.639   1.456   6.742  0.8107 -4.0093  2.9398
  597MOL0     H78761   1.759   1.384   6.833 -0.8063  0.2105 -0.0043
  597MOL0     H78762   1.772   1.582   6.618 -0.2053 -1.2991 -1.2159
  597MOL0     H78763   1.929   1.553   6.716 -0.3477  1.1172  0.0467
  597MOL0     H78764   1.962   1.344   6.672 -0.7008 -1.8597  0.8414
  597MOL0     H78765   1.943   1.413   6.507  1.0676 -3.5971  0.9966
  597MOL0     H78766   1.622   1.127   6.449 -0.2435 -1.4069  1.6154
  597MOL0     H78767   1.681   0.926   6.323 -1.6517  0.6375  1.8618
  597MOL0     H78768   2.295   0.745   6.152  3.5564 -1.9975  0.2551
  597MOL0     H78769   2.353   0.554   6.014 -1.4605 -1.0343 -1.5701
  597MOL0     H78770   2.279   0.415   5.798 -0.1694 -1.5351 -1.0494
  597MOL0     H78771   2.104   0.451   5.823  0.2747 -0.7134  0.1631
  597MOL0     H78772   2.227   0.168   5.787 -1.2952 -1.4053 -0.2522
  597MOL0     H78773   2.172   0.265   5.656 -0.4786 -0.2564 -0.0142
  597MOL0     H78774   1.948   0.290   5.749  2.8268  2.8816  1.0770
  597MOL0     H78775   1.981   0.175   5.877 -1.6054  0.1238 -0.0000
  597MOL0     H78776   1.861   0.098   5.669  0.1274 -0.0039 -1.6782
  597MOL0     H78777   2.010   0.090   5.573 -2.6368  2.8070 -0.6320
  597MOL0     H78778   1.951  -0.052   5.836 -0.2159 -4.9742 -2.1469
  597MOL0     H78779   2.116  -0.049   5.765  0.4327 -0.5579  1.2501
  597MOL0     H78780   2.035  -0.259   5.687  0.9697  0.8521  0.2705
  597MOL0     H78781   2.004  -0.152   5.555  1.4857  1.0363  0.6458
  597MOL0     H78782   1.809  -0.254   5.767  0.0731 -1.2784 -0.4585
  597MOL0     H78783   1.754  -0.118   5.656  2.3855  1.6236 -0.0494
  597MOL0     H78784   1.797  -0.272   5.470 -1.4604 -0.5752  0.2896
  597MOL0     H78785   1.670  -0.316   5.583 -0.1676  3.4775 -0.4056
  597MOL0     H78786   2.007   0.341   6.124 -0.0258 -0.6233  0.4263
  597MOL0     H78787   1.944   0.506   6.294 -0.0473 -2.1786 -0.2691
  597MOL0     H78788   2.094   0.998   6.406  0.2000 -0.2932 -0.2753
  597MOL0     H78789   2.035   1.204   6.519 -1.3753  1.3512  0.1956
  597MOL0     H78790   1.634   2.563   7.518 -0.1405  2.0550 -0.1461
  597MOL0     H78791   1.652   2.811   7.547 -1.6431 -1.0835 -0.1627
  597MOL0     H78792   1.579   3.176   7.661  1.0731  0.0326 -3.2260
  597MOL0     H78793   1.631   3.424   7.585 -0.1539 -0.4813 -0.7399
  597MOL0     H78794   1.983   3.702   7.597  0.2212  2.1049  3.8585
  597MOL0     H78795   2.062   3.560   7.637  1.0752  0.8773 -0.2843
  597MOL0     H78796   1.888   3.701   7.839  1.7481  1.2987  1.7367
  597MOL0     H78797   1.978   3.565   7.872 -0.3646  1.2425  1.7937
  597MOL0     H78798   2.064   3.829   7.739 -4.4274 -0.7319  1.5252
  597MOL0     H78799   2.181   3.704   7.771 -2.2675 -2.0276 -0.7771
  597MOL0     H78800   2.028   3.859   7.976  1.6367  2.6943 -1.1475
  597MOL0     H78801   2.120   3.709   8.022 -1.1085 -0.6459 -0.8366
  597MOL0     H78802   2.403   4.004   8.059 -3.3548  2.3204  2.2864
  597MOL0     H78803   2.027   3.358   7.731  1.5006 -2.9205 -0.1258
  597MOL0     H78804   1.967   3.141   7.829  0.7910  0.4517 -0.2459
  598MOL0     O78805   7.256   8.734  10.581 -0.1310  0.3304  0.5135
  598MOL0     C78806   7.163   8.658  10.585  0.6391  0.1430 -0.5466
  598MOL0     O78807   7.032   8.700  10.602 -0.3954 -1.0087 -0.4347
  598MOL0     C78808   7.004   8.827  10.643  0.9963 -0.5583  0.2407
  598MOL0     C78809   6.902   8.887  10.562 -0.7597 -0.5660 -0.9874
  598MOL0     C78810   6.846   9.015  10.598  0.2670  0.4399  0.5849
  598MOL0     C78811   6.890   9.073  10.715  0.2738 -0.7317 -0.0171
  598MOL0     O78812   6.845   9.199  10.760  1.1415 -0.2210  0.5206
  598MOL0     C78813   6.733   9.269  10.702 -0.5575  0.2144  0.1986
  598MOL0     C78814   6.595   9.207  10.727 -0.6660 -0.2577  0.2452
  598MOL0     C78815   6.480   9.303  10.694 -0.0780 -0.2432  0.9898
  598MOL0     C78816   6.341   9.243  10.713 -0.1576  0.7753  0.5440
  598MOL0     C78817   6.305   9.213  10.861 -0.2914 -1.0400  0.1429
  598MOL0     C78818   6.317   9.339  10.965  0.8514  0.3278 -0.3117
  598MOL0     C78819   6.289   9.283  11.101 -0.1201  0.4944  0.8373
  598MOL0     C78820   6.291   9.403  11.206 -0.0807 -0.4964  0.2300
  598MOL0     N78821   6.339   9.342  11.330 -0.0438 -0.0607 -0.3722
  598MOL0     C78822   6.277   9.268  11.427 -0.3070 -0.7787  0.1069
  598MOL0     C78823   6.381   9.205  11.492  0.6010 -0.3071 -0.4430
  598MOL0     C78824   6.354   9.099  11.584 -0.8689  0.6129 -1.2454
  598MOL0     C78825   6.407   8.957  11.530  0.3722  0.1650  0.0433
  598MOL0     C78826   6.334   8.910  11.398  0.3074 -0.0222 -0.6474
  598MOL0     C78827   6.221   8.804  11.427 -0.4369 -0.1240 -0.2651
  598MOL0     O78828   6.124   8.792  11.318  0.7588 -0.5322 -0.9090
  598MOL0     C78829   6.061   8.674  11.297  0.3512 -0.1372 -1.3076
  598MOL0     C78830   6.060   8.568  11.384 -0.1789 -0.3140 -0.9906
  598MOL0     C78831   6.017   8.444  11.344  0.7927  0.4505  0.4070
  598MOL0     C78832   5.962   8.421  11.219  0.6930  0.4392  0.2702
  598MOL0     C78833   5.949   8.285  11.167 -0.3671  0.5449  0.7496
  598MOL0     O78834   5.995   8.267  11.033  0.3484  0.5925 -0.0752
  598MOL0     C78835   5.966   8.138  10.983 -0.8176 -0.5795 -0.5843
  598MOL0     C78836   5.850   8.066  11.006  0.2009  0.1479 -0.0736
  598MOL0     C78837   5.826   7.947  10.934 -1.2117 -0.7581  0.0640
  598MOL0     C78838   5.926   7.899  10.844  0.0856  0.4418 -0.6866
  598MOL0     O78839   5.906   7.787  10.768 -0.2632 -0.0312  0.0351
  598MOL0     C78840   5.764   7.762  10.735 -0.2347 -0.0823 -0.5661
  598MOL0     C78841   5.754   7.678  10.605 -0.0186  0.2437  0.2027
  598MOL0     C78842   5.721   7.534  10.646  0.5832  0.9053  0.0972
  598MOL0     C78843   5.679   7.456  10.512 -0.7150 -0.2840 -0.3334
  598MOL0     C78844   5.631   7.329  10.555 -0.2185  1.4448  0.6130
  598MOL0     C78845   5.589   7.243  10.430 -0.0874 -0.1500 -0.5316
  598MOL0     C78846   5.529   7.111  10.476  0.2978 -0.7131  0.5667
  598MOL0     C78847   5.498   7.010  10.370  0.1844  0.2624 -0.5468
  598MOL0    Cl78848   5.394   7.088  10.258  0.1732  0.0513 -0.0519
  598MOL0     C78849   6.038   7.978  10.821  0.4587 -0.7764 -0.0781
  598MOL0     C78850   6.053   8.096  10.890 -0.5810 -0.7347 -0.6513
  598MOL0     O78851   5.920   8.197  11.248 -0.4024 -0.1411  0.0744
  598MOL0     C78852   5.933   8.536  11.142 -0.4576 -0.1755 -1.0419
  598MOL0     C78853   5.985   8.660  11.181 -0.1383 -0.2060  0.3357
  598MOL0     N78854   6.503   9.242  11.439  1.2826  0.0314  0.0319
  598MOL0     N78855   6.481   9.323  11.340 -0.3730 -0.1243 -0.3529
  598MOL0     C78856   6.999   9.012  10.786  1.4736  0.6887  0.1274
  598MOL0     C78857   7.064   8.897  10.751  0.5711 -0.1814  0.1437
  598MOL0     C78858   7.175   8.519  10.540  0.2589  1.1718  0.0993
  598MOL0     C78859   7.304   8.475  10.505 -0.3662  0.7576 -0.0605
  598MOL0     C78860   7.314   8.339  10.461 -0.3748  1.0660  0.0170
  598MOL0     C78861   7.202   8.250  10.453 -0.3478  1.5232 -0.6259
  598MOL0     O78862   7.223   8.120  10.396  0.1475  0.1084 -0.9190
  598MOL0     C78863   7.112   8.030  10.403  0.9851  0.3421 -0.1552
  598MOL0     C78864   7.161   7.908  10.317 -0.2423  0.0832 -1.3487
  598MOL0     C78865   7.175   7.944  10.163 -1.1666 -0.3025 -0.5337
  598MOL0     C78866   7.040   7.963  10.085 -0.8869  0.2930  0.3537
  598MOL0     C78867   6.997   8.103  10.095 -1.0083 -0.1298 -1.1780
  598MOL0     C78868   6.955   8.217  10.105  0.4518  0.2734 -0.2496
  598MOL0     C78869   7.085   8.302  10.499 -0.7951  0.0552  0.2432
  598MOL0     C78870   7.069   8.426  10.542 -0.2060 -0.0215  0.1628
  598MOL0     H78871   6.871   8.838  10.471  0.6074  2.2076 -3.1307
  598MOL0     H78872   6.770   9.063  10.537 -1.0339 -3.0435 -0.7807
  598MOL0     H78873   6.747   9.268  10.594 -2.5244  1.7702 -0.1305
  598MOL0     H78874   6.738   9.373  10.738 -0.7326 -0.0070  0.8766
  598MOL0     H78875   6.584   9.187  10.834  1.3430 -0.6443  0.4119
  598MOL0     H78876   6.574   9.111  10.678  2.0079 -0.1339 -1.2969
  598MOL0     H78877   6.494   9.351  10.597  2.6426 -1.9836  0.4012
  598MOL0     H78878   6.489   9.388  10.763  1.7157 -0.0890  0.6105
  598MOL0     H78879   6.269   9.312  10.670  0.9670  1.2508 -0.6369
  598MOL0     H78880   6.327   9.163  10.639 -1.2090 -0.2164  1.7583
  598MOL0     H78881   6.377   9.141  10.901  1.0166  1.8228  3.3680
  598MOL0     H78882   6.201   9.179  10.858 -2.1744  3.8803 -0.3039
  598MOL0     H78883   6.254   9.427  10.951 -0.9351 -0.4864  1.9812
  598MOL0     H78884   6.421   9.372  10.956  1.7678 -2.2988 -0.3134
  598MOL0     H78885   6.194   9.229  11.098  0.4833 -0.7959  2.9278
  598MOL0     H78886   6.364   9.206  11.123 -2.0512 -1.6011  0.4867
  598MOL0     H78887   6.193   9.451  11.205 -0.2929 -0.8471 -2.0336
  598MOL0     H78888   6.341   9.497  11.182  1.0390 -0.6628  1.7338
  598MOL0     H78889   6.173   9.249  11.452 -0.5786  0.4597  0.0013
  598MOL0     H78890   6.248   9.086  11.604 -0.5518 -0.6007 -0.1928
  598MOL0     H78891   6.409   9.129  11.674 -0.3924 -2.0690 -0.5308
  598MOL0     H78892   6.373   8.889  11.609 -4.8248 -0.3829 -2.2503
  598MOL0     H78893   6.513   8.968  11.508  0.7929  1.1948  2.2690
  598MOL0     H78894   6.301   8.991  11.334  0.8959  0.7083 -0.0554
  598MOL0     H78895   6.417   8.863  11.344 -0.0721 -0.8780 -0.4973
  598MOL0     H78896   6.166   8.841  11.513  0.1611  0.5828 -0.1796
  598MOL0     H78897   6.272   8.707  11.438  0.1136  0.1990  0.0619
  598MOL0     H78898   6.085   8.591  11.487  0.6982 -0.3587 -1.1862
  598MOL0     H78899   6.019   8.355  11.405  0.8944  0.9843  1.2094
  598MOL0     H78900   5.770   8.105  11.069 -0.4825 -1.6585  0.2519
  598MOL0     H78901   5.736   7.889  10.951 -0.7593 -2.7120 -3.2934
  598MOL0     H78902   5.710   7.856  10.716  0.0502  1.0594  3.3088
  598MOL0     H78903   5.707   7.719  10.818  1.1642  1.9226  1.5491
  598MOL0     H78904   5.846   7.672  10.546  0.9796  3.4112  1.2477
  598MOL0     H78905   5.680   7.716  10.534  1.6037  1.8984 -0.6716
  598MOL0     H78906   5.631   7.539  10.707  2.9001  2.8708  3.7044
  598MOL0     H78907   5.796   7.485  10.710  0.8143  2.4203  1.0309
  598MOL0     H78908   5.601   7.507  10.455 -1.0275 -0.1782  0.1714
  598MOL0     H78909   5.759   7.438  10.440 -1.3771 -2.1072 -0.6813
  598MOL0     H78910   5.545   7.331  10.622 -0.0459 -0.4912  0.9289
  598MOL0     H78911   5.708   7.267  10.601  0.0705  2.0694  0.9779
  598MOL0     H78912   5.677   7.224  10.367  0.2790  0.5228 -0.2306
  598MOL0     H78913   5.515   7.295  10.369 -0.3807 -1.9476 -1.7975
  598MOL0     H78914   5.597   7.067  10.549 -1.7327 -1.7105  1.9397
  598MOL0     H78915   5.437   7.116  10.534  0.5540 -2.9139  1.2594
  598MOL0     H78916   5.434   6.935  10.418 -1.8129  0.0840 -3.2690
  598MOL0     H78917   5.573   6.955  10.313  0.1355  0.7432 -1.0878
  598MOL0     H78918   6.102   7.949  10.738  0.0294 -1.7439 -0.0918
  598MOL0     H78919   6.147   8.145  10.867 -1.0177 -0.5824 -2.2347
  598MOL0     H78920   5.874   8.523  11.051 -2.8019 -0.0303  0.3814
  598MOL0     H78921   5.958   8.737  11.109 -3.6470 -1.5134  0.1052
  598MOL0     H78922   7.022   9.066  10.877 -0.0411 -0.9983  1.5936
  598MOL0     H78923   7.143   8.852  10.811  1.0976  0.6915  0.1238
  598MOL0     H78924   7.389   8.541  10.520 -0.1559  0.1301  1.7530
  598MOL0     H78925   7.409   8.294  10.436 -0.7862 -0.6304  1.3642
  598MOL0     H78926   7.016   8.069  10.367  2.3240  1.0896 -3.2076
  598MOL0     H78927   7.094   8.000  10.507  4.6453 -1.0393  0.2429
  598MOL0     H78928   7.259   7.880  10.359  0.1721  3.3622  0.2314
  598MOL0     H78929   7.109   7.818  10.352  0.6483  0.2087  0.4171
  598MOL0     H78930   7.226   7.866  10.106 -1.1777 -0.5183 -0.2537
  598MOL0     H78931   7.243   8.029  10.151 -2.1255  1.4661  4.2100
  598MOL0     H78932   7.060   7.947   9.979  1.0108  1.0722  0.5607
  598MOL0     H78933   6.960   7.897  10.120  0.3811 -0.7116  1.4459
  598MOL0     H78934   6.915   8.315  10.124 -1.1086 -0.0287 -1.6759
  598MOL0     H78935   6.994   8.244  10.499  0.8451 -2.7810  2.4231
  598MOL0     H78936   6.971   8.462  10.573 -0.1405  0.8873 -0.5989
  599MOL0     O78937  10.741   4.849   7.433 -0.5899  0.1135 -0.0422
  599MOL0     C78938  10.720   4.858   7.557  0.3618  0.2765  0.6831
  599MOL0     O78939  10.609   4.801   7.622 -0.4135 -0.6923  0.5541
  599MOL0     C78940  10.502   4.766   7.538 -1.1690 -0.5713 -0.0163
  599MOL0     C78941  10.511   4.689   7.418 -0.7465 -0.5135  0.8121
  599MOL0     C78942  10.388   4.653   7.349  0.3774 -0.2492 -0.1595
  599MOL0     C78943  10.265   4.710   7.398  0.3217 -0.5647 -0.0962
  599MOL0     O78944  10.148   4.674   7.326  0.0573 -0.3889 -0.3350
  599MOL0     C78945  10.025   4.760   7.320 -0.8110  1.1787  1.2767
  599MOL0     C78946   9.920   4.697   7.226 -0.8402 -0.4759  0.6272
  599MOL0     C78947   9.885   4.551   7.263  0.1715 -0.0630  0.3341
  599MOL0     C78948   9.782   4.491   7.168 -1.1742  0.0080  0.4105
  599MOL0     C78949   9.762   4.348   7.215 -0.1410  0.5379 -0.0120
  599MOL0     C78950   9.657   4.339   7.329  0.1720 -0.1492 -0.0662
  599MOL0     C78951   9.655   4.195   7.385 -0.1265 -1.0844 -0.0230
  599MOL0     C78952   9.594   4.192   7.523  0.7408  0.3186  0.4517
  599MOL0     N78953   9.686   4.250   7.633 -0.8187 -0.5502 -0.5419
  599MOL0     C78954   9.716   4.379   7.674  0.5406  0.1091  0.0877
  599MOL0     C78955   9.822   4.366   7.755  0.7423 -0.2102 -1.0691
  599MOL0     C78956   9.888   4.480   7.811 -0.1511 -0.3903 -0.2499
  599MOL0     C78957   9.970   4.547   7.702  0.6179  0.0719  0.5352
  599MOL0     C78958  10.031   4.668   7.763 -0.5742  0.1811 -1.1706
  599MOL0     C78959   9.942   4.793   7.750  0.7220  0.0727  0.4895
  599MOL0     O78960  10.001   4.911   7.812  0.3264 -0.5255 -0.4132
  599MOL0     C78961   9.949   5.039   7.797  0.6805 -0.0930  0.3852
  599MOL0     C78962   9.858   5.074   7.700 -0.3498 -0.2385 -0.2763
  599MOL0     C78963   9.807   5.202   7.695  0.7094  0.0869 -0.0794
  599MOL0     C78964   9.859   5.315   7.774 -0.2351 -0.2206 -0.0580
  599MOL0     C78965   9.809   5.455   7.759 -0.2882  0.5885 -0.6060
  599MOL0     O78966   9.823   5.536   7.869  0.5596  0.3438  0.6869
  599MOL0     C78967   9.753   5.660   7.870 -0.4925 -0.1738  0.4360
  599MOL0     C78968   9.621   5.680   7.813 -0.1326 -0.5395 -0.1747
  599MOL0     C78969   9.563   5.802   7.823  0.4089  0.2827  1.0295
  599MOL0     C78970   9.620   5.915   7.880  0.1121 -0.2669 -0.2684
  599MOL0     O78971   9.556   6.039   7.876 -0.7058  0.3127  0.1949
  599MOL0     C78972   9.610   6.133   7.784 -0.2530  0.0227 -0.0297
  599MOL0     C78973   9.510   6.136   7.672  0.4425 -0.6665  0.3314
  599MOL0     C78974   9.369   6.168   7.738  0.5110 -0.3728  0.5007
  599MOL0     C78975   9.268   6.188   7.625  1.0576  0.8989  0.2526
  599MOL0     C78976   9.123   6.140   7.669 -0.3039 -0.3819  0.0022
  599MOL0     C78977   9.027   6.138   7.550  0.1134  0.1319 -0.1011
  599MOL0     C78978   8.900   6.062   7.563  0.6790 -0.1879  0.3639
  599MOL0     C78979   8.929   5.916   7.539 -0.0493  0.9406 -0.9421
  599MOL0    Cl78980   9.015   5.881   7.390 -0.1171  0.2430  0.2561
  599MOL0     C78981   9.757   5.902   7.921 -0.0173 -0.0185  0.2159
  599MOL0     C78982   9.823   5.778   7.922  0.5189 -0.2280 -0.0621
  599MOL0     O78983   9.767   5.485   7.648  0.1529 -0.6890  0.5735
  599MOL0     C78984   9.951   5.277   7.877 -0.3136 -0.1492 -0.2224
  599MOL0     C78985   9.993   5.139   7.880  0.2319  0.5298  0.3732
  599MOL0     N78986   9.854   4.235   7.766 -0.3395  0.3110  0.8917
  599MOL0     N78987   9.769   4.164   7.694 -0.5628 -0.8903  0.1588
  599MOL0     C78988  10.267   4.784   7.514  0.4733  0.7424  0.5704
  599MOL0     C78989  10.380   4.819   7.577 -0.3121  0.3032 -0.1253
  599MOL0     C78990  10.840   4.867   7.637 -0.1708  0.0924  0.3091
  599MOL0     C78991  10.948   4.955   7.597 -0.4574  1.3270  0.2269
  599MOL0     C78992  11.059   4.965   7.675  0.6684  0.2717 -0.4249
  599MOL0     C78993  11.065   4.898   7.803  0.7958  0.4720  1.0728
  599MOL0     O78994  11.170   4.909   7.880 -0.0629 -0.3985  1.1817
  599MOL0     C78995  11.168   4.889   8.025 -0.4428  0.1789  0.2604
  599MOL0     C78996  11.242   4.762   8.071  0.1301  0.3821  0.4504
  599MOL0     C78997  11.389   4.762   8.029 -0.6647 -0.3076 -0.6787
  599MOL0     C78998  11.474   4.645   8.090  0.0295 -1.1316 -0.6749
  599MOL0     C78999  11.616   4.661   8.050  0.6679 -0.2524 -0.7045
  599MOL0     C79000  11.727   4.673   8.014  0.6281  0.0191 -0.2415
  599MOL0     C79001  10.963   4.821   7.844  0.6295  0.2540  0.5615
  599MOL0     C79002  10.847   4.814   7.761 -0.2785 -0.6491 -0.4099
  599MOL0     H79003  10.612   4.658   7.395  0.0246  0.9603  2.0106
  599MOL0     H79004  10.390   4.582   7.266  1.8691 -0.9892  0.4686
  599MOL0     H79005  10.058   4.859   7.289 -0.0283 -0.0184 -2.2642
  599MOL0     H79006   9.975   4.756   7.417 -3.2975  3.2025  0.1756
  599MOL0     H79007   9.958   4.706   7.124  2.2974 -1.8014  1.5547
  599MOL0     H79008   9.825   4.752   7.224  0.1036  1.1997  0.8608
  599MOL0     H79009   9.862   4.554   7.370  0.5304  1.5942  0.3960
  599MOL0     H79010   9.980   4.499   7.259  0.1550 -0.0984  0.4228
  599MOL0     H79011   9.684   4.538   7.172 -0.7391  0.9672  5.4287
  599MOL0     H79012   9.816   4.505   7.064 -1.5180  1.3283  0.4658
  599MOL0     H79013   9.853   4.294   7.240 -1.5436 -1.8967  0.1745
  599MOL0     H79014   9.717   4.301   7.127 -2.0676  0.2796  1.0461
  599MOL0     H79015   9.564   4.354   7.275 -0.4515 -0.1228  0.9895
  599MOL0     H79016   9.663   4.414   7.409 -1.4164  0.7414 -0.7356
  599MOL0     H79017   9.606   4.134   7.309  2.3794 -1.2763 -1.6058
  599MOL0     H79018   9.756   4.153   7.386 -1.6637 -5.3553 -1.1308
  599MOL0     H79019   9.566   4.092   7.556 -0.2852  0.3511 -0.2853
  599MOL0     H79020   9.512   4.265   7.524  3.4998  3.6667  0.9164
  599MOL0     H79021   9.665   4.473   7.652 -1.9780 -0.6638  2.1458
  599MOL0     H79022   9.951   4.439   7.891  0.6191  0.5413 -0.3555
  599MOL0     H79023   9.821   4.549   7.862  1.3570  1.4855 -0.6733
  599MOL0     H79024   9.908   4.574   7.617  1.2574  0.8300  0.3001
  599MOL0     H79025  10.040   4.476   7.656  2.0290 -0.2397  2.9571
  599MOL0     H79026  10.056   4.649   7.868  2.1794 -0.0151 -1.7924
  599MOL0     H79027  10.118   4.714   7.716 -0.0437  2.5346  1.7710
  599MOL0     H79028   9.850   4.779   7.807 -1.6533  4.8224 -1.6006
  599MOL0     H79029   9.936   4.803   7.641  2.9853 -0.5533  0.2555
  599MOL0     H79030   9.813   4.999   7.636  4.8540 -3.2452 -1.0115
  599MOL0     H79031   9.734   5.235   7.622  3.2311  0.1102 -2.7705
  599MOL0     H79032   9.564   5.601   7.764 -0.4338 -0.4400  0.0099
  599MOL0     H79033   9.463   5.809   7.780  1.0249 -3.9641 -1.5963
  599MOL0     H79034   9.710   6.102   7.751  0.5837  2.8769 -0.4689
  599MOL0     H79035   9.619   6.230   7.835 -0.9780 -0.2266  0.5786
  599MOL0     H79036   9.516   6.037   7.625  1.0872 -1.1482  1.3956
  599MOL0     H79037   9.538   6.213   7.600  0.3634  0.6186  1.6418
  599MOL0     H79038   9.377   6.257   7.800 -1.0288  0.2565 -0.1739
  599MOL0     H79039   9.349   6.074   7.792  3.0124 -0.7894  0.8612
  599MOL0     H79040   9.276   6.288   7.580  0.5808  0.9727  0.3328
  599MOL0     H79041   9.291   6.111   7.551 -1.6041  0.9175 -0.6851
  599MOL0     H79042   9.087   6.216   7.738  2.1811  0.6482  0.2605
  599MOL0     H79043   9.136   6.037   7.704 -2.7551 -0.4191  0.9760
  599MOL0     H79044   9.076   6.112   7.456  1.5841 -0.0580  0.6806
  599MOL0     H79045   9.005   6.244   7.534 -2.3735 -0.0460  1.5837
  599MOL0     H79046   8.858   6.076   7.663  2.2114 -2.3528  1.4113
  599MOL0     H79047   8.827   6.086   7.486 -0.4756 -3.2291  0.3820
  599MOL0     H79048   8.840   5.858   7.513  1.4520 -0.5718 -3.0062
  599MOL0     H79049   8.994   5.881   7.619 -0.4963 -0.2011 -1.0583
  599MOL0     H79050   9.802   5.991   7.964  1.1535  0.1350 -1.2363
  599MOL0     H79051   9.917   5.772   7.976 -0.5709 -0.8026  1.8837
  599MOL0     H79052   9.991   5.334   7.961  2.8975 -1.8015 -0.4735
  599MOL0     H79053  10.062   5.126   7.963 -1.0832 -0.7162  1.3045
  599MOL0     H79054  10.167   4.813   7.547 -0.2442 -0.8398 -0.1206
  599MOL0     H79055  10.370   4.874   7.670  0.0367 -1.5342  1.0714
  599MOL0     H79056  10.957   4.996   7.496 -3.2264 -1.3705 -1.2776
  599MOL0     H79057  11.153   5.008   7.644  0.6583 -0.6056 -1.7407
  599MOL0     H79058  11.062   4.883   8.052 -0.9596  1.6775 -1.2358
  599MOL0     H79059  11.208   4.978   8.074  2.4288 -0.7386 -0.2148
  599MOL0     H79060  11.244   4.756   8.180 -0.6251 -0.2777  0.4345
  599MOL0     H79061  11.192   4.671   8.036 -0.8057  0.8458  0.5553
  599MOL0     H79062  11.417   4.867   8.046 -0.2021 -0.9068  3.3499
  599MOL0     H79063  11.382   4.753   7.920  0.8850 -0.1759 -0.8011
  599MOL0     H79064  11.464   4.655   8.199 -0.5811  1.0426 -0.8712
  599MOL0     H79065  11.448   4.543   8.060 -1.9543 -0.1283 -2.6060
  599MOL0     H79066  11.824   4.692   7.973  1.6378 -2.6417  0.7025
  599MOL0     H79067  10.964   4.759   7.933  0.6777  0.7817  0.9360
  599MOL0     H79068  10.772   4.754   7.811  2.5402 -0.7287  4.3141
  600MOL0     O79069   3.105   1.018   4.961 -0.0834  0.8645  0.1298
  600MOL0     C79070   3.057   1.093   4.875  0.2500  1.2195  0.1938
  600MOL0     O79071   3.063   1.233   4.880  0.2180  0.7584  0.3817
  600MOL0     C79072   3.124   1.282   4.995 -0.7074  0.5418  0.0979
  600MOL0     C79073   3.048   1.288   5.116 -0.9583 -0.5169  0.2224
  600MOL0     C79074   3.113   1.337   5.233  0.9852 -0.3777 -0.5305
  600MOL0     C79075   3.254   1.361   5.239 -0.9470  0.0543  0.3400
  600MOL0     O79076   3.318   1.376   5.356 -0.4313  1.3390 -0.6148
  600MOL0     C79077   3.395   1.259   5.407 -0.2483 -0.1455 -0.6989
  600MOL0     C79078   3.493   1.310   5.518 -0.3888  0.2780  1.3723
  600MOL0     C79079   3.595   1.413   5.464  0.3453 -0.9666 -0.4744
  600MOL0     C79080   3.677   1.390   5.339  0.4759 -0.6125  0.5060
  600MOL0     C79081   3.787   1.490   5.298  0.1173 -0.2063 -0.9615
  600MOL0     C79082   3.734   1.633   5.278  0.2409 -0.2618  0.8146
  600MOL0     C79083   3.665   1.668   5.143 -0.1641  0.7940 -0.3646
  600MOL0     C79084   3.666   1.813   5.086  0.0436  0.3390  0.4269
  600MOL0     N79085   3.801   1.863   5.091 -0.4452 -0.6052  0.3725
  600MOL0     C79086   3.852   1.950   5.189  0.0989 -0.1101 -0.5873
  600MOL0     C79087   3.987   1.961   5.154  0.8317  0.4616 -0.6370
  600MOL0     C79088   4.106   2.025   5.220  0.2577  0.4806  0.0219
  600MOL0     C79089   4.071   2.099   5.349 -0.5697 -0.3630 -1.2374
  600MOL0     C79090   4.175   2.209   5.402 -0.5167  1.1061  0.4068
  600MOL0     C79091   4.146   2.250   5.551 -0.7758 -0.4643  0.4592
  600MOL0     O79092   4.015   2.314   5.535 -0.6742  0.0831 -1.0848
  600MOL0     C79093   3.957   2.294   5.660 -0.2852 -0.0607 -0.0550
  600MOL0     C79094   3.861   2.195   5.680 -0.9559 -0.7231  0.1845
  600MOL0     C79095   3.802   2.154   5.799 -1.0682  0.4507 -0.3689
  600MOL0     C79096   3.857   2.206   5.917  0.2399  0.3304 -0.8984
  600MOL0     C79097   3.812   2.173   6.057  0.2286 -0.3426  0.0631
  600MOL0     O79098   3.748   2.057   6.073  0.6841  0.1831 -0.8966
  600MOL0     C79099   3.689   2.024   6.196 -0.1676 -0.8152  0.3830
  600MOL0     C79100   3.779   2.009   6.306  0.2711  0.1170  0.0507
  600MOL0     C79101   3.728   1.969   6.429 -0.2983 -0.3748  0.1828
  600MOL0     C79102   3.590   1.950   6.453 -0.3994  0.0689  0.4373
  600MOL0     O79103   3.525   1.908   6.565 -0.1334 -0.6941 -1.2281
  600MOL0     C79104   3.601   1.839   6.656  0.8389  0.3509 -0.4862
  600MOL0     C79105   3.522   1.795   6.781  0.7322  0.1406 -0.0985
  600MOL0     C79106   3.601   1.700   6.875 -0.5954 -0.2376 -0.4063
  600MOL0     C79107   3.538   1.688   7.013  0.1987 -0.1474 -0.4577
  600MOL0     C79108   3.619   1.607   7.113 -0.9832  0.4826 -0.9241
  600MOL0     C79109   3.561   1.597   7.253 -0.0296 -0.3624 -0.7555
  600MOL0     C79110   3.573   1.731   7.334 -0.5069  0.1449  0.4239
  600MOL0     C79111   3.579   1.708   7.484  0.2747  1.3867 -0.5805
  600MOL0    Cl79112   3.452   1.576   7.529 -0.1800  0.0663 -0.1669
  600MOL0     C79113   3.506   1.971   6.342 -0.4019  0.3908  0.2198
  600MOL0     C79114   3.551   1.994   6.216  0.5983 -0.7837 -0.0648
  600MOL0     O79115   3.845   2.249   6.143 -0.0481  0.1196 -0.9647
  600MOL0     C79116   3.944   2.319   5.903 -0.1848  0.1564 -0.9862
  600MOL0     C79117   3.993   2.360   5.774  0.7143 -0.4738  0.5092
  600MOL0     N79118   4.010   1.875   5.046  0.1779 -0.2652 -0.0010
  600MOL0     N79119   3.899   1.809   5.012 -0.2063 -0.0282  0.3018
  600MOL0     C79120   3.331   1.341   5.119  0.1770  0.8834 -0.0906
  600MOL0     C79121   3.257   1.318   4.998 -0.8791 -0.8013 -0.3077
  600MOL0     C79122   2.980   1.034   4.768 -0.4887 -0.4269  0.2736
  600MOL0     C79123   2.984   0.894   4.749  0.0692 -0.3916  1.1414
  600MOL0     C79124   2.920   0.823   4.642 -0.3417 -0.2127  0.3185
  600MOL0     C79125   2.850   0.897   4.548  0.6086 -0.1858  0.0111
  600MOL0     O79126   2.801   0.820   4.448  0.3576 -0.4291 -1.2198
  600MOL0     C79127   2.720   0.873   4.344  0.0134 -0.4450  0.0504
  600MOL0     C79128   2.728   0.785   4.225  1.4137 -0.1268 -0.0430
  600MOL0     C79129   2.613   0.810   4.115 -0.9512  0.9638  0.6005
  600MOL0     C79130   2.653   0.915   4.015 -0.0999 -0.1575  0.4858
  600MOL0     C79131   2.734   0.859   3.913 -0.3357  0.2314 -0.0815
  600MOL0     C79132   2.826   0.817   3.842  0.0014  0.1506 -0.1138
  600MOL0     C79133   2.845   1.037   4.564 -1.0045  0.2512 -0.0943
  600MOL0     C79134   2.905   1.112   4.673 -1.1907 -0.0312 -0.9050
  600MOL0     H79135   2.947   1.246   5.114 -1.0113 -0.4813 -2.9221
  600MOL0     H79136   3.069   1.333   5.333  0.9219 -2.9612 -0.5953
  600MOL0     H79137   3.454   1.206   5.332  2.2629 -1.7254  2.1657
  600MOL0     H79138   3.327   1.189   5.457 -1.3687  2.6102  1.9516
  600MOL0     H79139   3.556   1.220   5.522 -0.9895 -0.5864 -3.2685
  600MOL0     H79140   3.449   1.339   5.614 -1.5764  0.2001  0.8610
  600MOL0     H79141   3.664   1.443   5.544 -1.7926  1.2396  0.6715
  600MOL0     H79142   3.539   1.503   5.435  1.7266  0.1232  0.1632
  600MOL0     H79143   3.736   1.299   5.349  4.0664  1.7575  2.9901
  600MOL0     H79144   3.619   1.362   5.250  3.8303 -1.1432 -1.6706
  600MOL0     H79145   3.840   1.456   5.209 -3.3631  0.0520 -3.3516
  600MOL0     H79146   3.860   1.495   5.379  1.7714 -0.3905 -2.3792
  600MOL0     H79147   3.813   1.709   5.282 -0.6916  1.2399 -3.5010
  600MOL0     H79148   3.652   1.651   5.348 -1.0157 -1.6241 -0.2316
  600MOL0     H79149   3.716   1.604   5.070  0.3582  2.2145 -1.2853
  600MOL0     H79150   3.559   1.639   5.152 -0.0516 -0.0858 -1.6074
  600MOL0     H79151   3.605   1.878   5.150 -0.5594  0.1406  0.0581
  600MOL0     H79152   3.634   1.806   4.982  2.4624 -2.8772 -0.2246
  600MOL0     H79153   3.791   1.997   5.266  1.9798  1.3672  0.0934
  600MOL0     H79154   4.154   2.091   5.146  2.8102  1.2765  2.2362
  600MOL0     H79155   4.177   1.946   5.244 -0.0761 -0.1785 -1.0918
  600MOL0     H79156   4.040   2.026   5.423 -1.4455 -0.5460 -1.7770
  600MOL0     H79157   3.979   2.154   5.327 -1.5996 -1.3588  0.3982
  600MOL0     H79158   4.275   2.172   5.378 -0.7379  2.5750 -3.5546
  600MOL0     H79159   4.170   2.301   5.343  1.1228  0.2032 -1.2560
  600MOL0     H79160   4.222   2.316   5.592 -0.7507 -0.9930  1.2910
  600MOL0     H79161   4.149   2.161   5.615  2.1319 -0.7788  0.0200
  600MOL0     H79162   3.822   2.158   5.586 -1.1258  1.8520 -0.8189
  600MOL0     H79163   3.724   2.080   5.812 -0.9846  0.6987  2.0639
  600MOL0     H79164   3.885   2.026   6.294  0.7228  0.5166  3.6290
  600MOL0     H79165   3.799   1.937   6.505  1.7088  0.0312 -1.4256
  600MOL0     H79166   3.673   1.904   6.707 -0.3527  0.3882  1.2241
  600MOL0     H79167   3.638   1.751   6.602 -0.3192  0.4294 -1.4624
  600MOL0     H79168   3.432   1.750   6.740  0.2351  0.0773  1.0131
  600MOL0     H79169   3.493   1.881   6.841  0.8692 -0.7874  1.3543
  600MOL0     H79170   3.704   1.735   6.874 -0.3012 -1.0751 -0.8418
  600MOL0     H79171   3.597   1.603   6.823 -3.5237  0.9050 -2.5716
  600MOL0     H79172   3.532   1.792   7.047 -0.1859  0.1277 -1.3453
  600MOL0     H79173   3.437   1.646   7.011  0.7103 -1.4388 -0.1246
  600MOL0     H79174   3.719   1.652   7.115  0.1200 -1.6214  3.4040
  600MOL0     H79175   3.635   1.505   7.078 -2.1752 -1.0573  2.5749
  600MOL0     H79176   3.617   1.517   7.303 -0.3093  2.0116  3.9108
  600MOL0     H79177   3.458   1.564   7.240 -0.6148  0.1022  2.0238
  600MOL0     H79178   3.669   1.777   7.310  0.0531  0.7127  3.3197
  600MOL0     H79179   3.483   1.791   7.317 -1.3317 -1.7572 -2.6845
  600MOL0     H79180   3.558   1.793   7.549 -1.7224 -0.9886  2.1438
  600MOL0     H79181   3.667   1.662   7.529 -1.6890 -1.1029  1.0180
  600MOL0     H79182   3.399   1.978   6.363 -0.4031  3.8967 -0.3483
  600MOL0     H79183   3.484   1.997   6.131 -0.2125  0.8639  0.5890
  600MOL0     H79184   3.971   2.373   5.993 -1.8737 -0.1724 -0.2429
  600MOL0     H79185   4.056   2.448   5.767 -2.5999  2.1249  0.8328
  600MOL0     H79186   3.435   1.362   5.140 -0.1466  2.0903  0.3834
  600MOL0     H79187   3.325   1.316   4.913  2.4755 -0.1250  2.1758
  600MOL0     H79188   3.042   0.832   4.817 -0.2600 -1.4468  0.4810
  600MOL0     H79189   2.923   0.714   4.641 -3.1421 -0.3645  0.1556
  600MOL0     H79190   2.747   0.976   4.317  0.1211 -0.1859  1.1074
  600MOL0     H79191   2.617   0.888   4.377 -1.3491  0.0345 -3.8618
  600MOL0     H79192   2.828   0.789   4.180  1.4376 -0.1206  0.0093
  600MOL0     H79193   2.719   0.683   4.262  2.0954 -0.9072 -1.9119
  600MOL0     H79194   2.512   0.840   4.143 -0.4939  1.7927  1.4325
  600MOL0     H79195   2.620   0.717   4.059  1.4478  0.4462  1.6016
  600MOL0     H79196   2.569   0.969   3.972 -0.5297  0.6180  2.2198
  600MOL0     H79197   2.707   0.996   4.067 -1.2964  1.6372 -0.9416
  600MOL0     H79198   2.916   0.789   3.791 -1.0326  1.0659 -2.6037
  600MOL0     H79199   2.788   1.094   4.492 -2.9936 -3.5002 -1.8247
  600MOL0     H79200   2.888   1.219   4.670 -1.5498 -0.0558 -0.1073
  601MOL0     O79201   3.732   9.662   4.526 -0.0999 -0.4721 -0.2355
  601MOL0     C79202   3.702   9.695   4.642 -0.6732  0.2800  0.9834
  601MOL0     O79203   3.789   9.746   4.731  0.2871  0.1903  0.5770
  601MOL0     C79204   3.914   9.689   4.732  0.4394 -0.0280  0.1329
  601MOL0     C79205   4.024   9.770   4.762  0.5024  0.3307 -0.7208
  601MOL0     C79206   4.158   9.718   4.779 -0.0097  0.1346  0.5841
  601MOL0     C79207   4.166   9.574   4.770 -0.1962 -0.6012  0.6753
  601MOL0     O79208   4.296   9.520   4.783 -0.5630  0.2119 -0.6721
  601MOL0     C79209   4.321   9.389   4.726  1.0645 -0.4748  0.2670
  601MOL0     C79210   4.456   9.332   4.783  0.0253 -0.5951  0.1074
  601MOL0     C79211   4.438   9.279   4.926  0.3442 -0.0449 -0.4618
  601MOL0     C79212   4.567   9.216   4.986  0.3229 -0.7837  0.0415
  601MOL0     C79213   4.531   9.120   5.091  1.1862 -0.4298 -0.0642
  601MOL0     C79214   4.652   9.058   5.160  0.2825 -0.0938  0.4490
  601MOL0     C79215   4.608   8.963   5.274 -0.2801 -0.1405 -0.3979
  601MOL0     C79216   4.582   9.048   5.404 -0.9388  0.9252 -0.8915
  601MOL0     N79217   4.553   8.950   5.516  0.7166 -0.1291  0.0866
  601MOL0     C79218   4.427   8.923   5.552  0.0474 -0.0880 -0.0233
  601MOL0     C79219   4.435   8.789   5.604 -0.1027  0.0010  0.2971
  601MOL0     C79220   4.320   8.709   5.660  0.3797 -0.0875 -1.1609
  601MOL0     C79221   4.244   8.792   5.766 -1.2300  1.0111 -0.6523
  601MOL0     C79222   4.318   8.808   5.899  0.9541  1.2090 -0.8222
  601MOL0     C79223   4.260   8.928   5.976 -0.0237  0.8309 -0.2193
  601MOL0     O79224   4.332   8.943   6.098 -0.5634 -0.2769 -0.5383
  601MOL0     C79225   4.282   9.044   6.176 -0.0785  0.0169  0.6566
  601MOL0     C79226   4.164   9.029   6.244 -0.4502  0.5388  0.1330
  601MOL0     C79227   4.114   9.124   6.332  0.0672  0.0935  0.8311
  601MOL0     C79228   4.187   9.237   6.366 -0.0099  0.5297  0.3749
  601MOL0     C79229   4.140   9.331   6.475 -0.1090  0.4074 -0.7372
  601MOL0     O79230   4.038   9.293   6.559  0.1116  0.0532 -0.1035
  601MOL0     C79231   3.980   9.388   6.642  0.0203  0.1956 -0.5065
  601MOL0     C79232   4.049   9.496   6.710 -0.3928  0.3132 -0.2131
  601MOL0     C79233   3.974   9.593   6.771  0.2261  1.2815 -0.4095
  601MOL0     C79234   3.830   9.585   6.770 -0.7596  0.1166 -1.3296
  601MOL0     O79235   3.741   9.683   6.816  0.1483  1.0277 -0.6803
  601MOL0     C79236   3.754   9.693   6.962  0.2578  0.8910  0.8340
  601MOL0     C79237   3.675   9.809   7.015  0.0696  0.5669 -0.1025
  601MOL0     C79238   3.725   9.943   6.956  0.2881  0.8214  0.2836
  601MOL0     C79239   3.630  10.053   6.924  0.3982  1.2556 -0.3439
  601MOL0     C79240   3.490  10.018   6.861  0.4207  0.7115  0.2419
  601MOL0     C79241   3.414  10.138   6.794 -0.2584  0.5343 -0.1314
  601MOL0     C79242   3.392  10.258   6.882  0.0201  0.0789 -0.5658
  601MOL0     C79243   3.298  10.349   6.815  0.2684 -0.9899  0.3898
  601MOL0    Cl79244   3.381  10.430   6.678  0.1834 -0.2516 -0.3173
  601MOL0     C79245   3.771   9.483   6.708  0.0171 -0.3470 -1.3890
  601MOL0     C79246   3.840   9.376   6.650  0.4304  0.9240  0.4096
  601MOL0     O79247   4.222   9.420   6.500 -1.1564 -0.8792 -0.1161
  601MOL0     C79248   4.313   9.245   6.300  0.0995  0.1771  1.1341
  601MOL0     C79249   4.355   9.157   6.201  0.2455  0.0084  0.3190
  601MOL0     N79250   4.569   8.767   5.619 -0.1078 -0.0216 -0.2693
  601MOL0     N79251   4.634   8.861   5.569 -0.7011 -0.6604  0.2773
  601MOL0     C79252   4.053   9.494   4.738 -0.1679 -0.0713 -0.4298
  601MOL0     C79253   3.932   9.554   4.718  0.1199 -0.1776 -0.4857
  601MOL0     C79254   3.550   9.687   4.659 -0.8760 -0.0876  0.0469
  601MOL0     C79255   3.498   9.695   4.786 -0.0296 -0.0200  0.4166
  601MOL0     C79256   3.352   9.696   4.801 -0.9385 -0.4505  0.0950
  601MOL0     C79257   3.273   9.678   4.687  0.0702  0.3727  0.4280
  601MOL0     O79258   3.134   9.678   4.691  0.0571 -0.2727  0.1548
  601MOL0     C79259   3.086   9.591   4.797 -0.8587  0.0838  0.3482
  601MOL0     C79260   2.968   9.505   4.728 -0.2884  0.0663 -0.7062
  601MOL0     C79261   2.839   9.584   4.717  0.3729 -0.4516  0.2486
  601MOL0     C79262   2.735   9.521   4.627  0.4265 -0.1984 -0.0200
  601MOL0     C79263   2.678   9.398   4.692  0.8857  0.2352  0.4306
  601MOL0     C79264   2.654   9.285   4.730 -0.0494 -0.5826  0.0203
  601MOL0     C79265   3.332   9.656   4.561  0.2772 -0.6097  0.0994
  601MOL0     C79266   3.470   9.666   4.545  0.3768  0.9569  0.5249
  601MOL0     H79267   4.004   9.872   4.794  0.8093 -0.7027  3.2229
  601MOL0     H79268   4.245   9.776   4.805 -2.0727  3.4329  0.7007
  601MOL0     H79269   4.318   9.395   4.616 -0.5256  2.0112  0.3862
  601MOL0     H79270   4.249   9.319   4.769 -2.6762  2.0524 -1.3911
  601MOL0     H79271   4.546   9.395   4.773  0.2825 -0.8910  0.5029
  601MOL0     H79272   4.466   9.240   4.725 -1.2406 -0.0942 -0.9408
  601MOL0     H79273   4.368   9.195   4.928  1.5522 -1.1200  2.2548
  601MOL0     H79274   4.401   9.351   5.000 -1.3382 -2.6583  1.4513
  601MOL0     H79275   4.607   9.151   4.907  3.2058  0.7059  0.1518
  601MOL0     H79276   4.645   9.286   5.016  1.8217 -0.4205 -4.1274
  601MOL0     H79277   4.468   9.042   5.048 -1.0102  1.3010 -0.1964
  601MOL0     H79278   4.467   9.171   5.164  0.1838 -0.7128 -0.7210
  601MOL0     H79279   4.724   9.129   5.200  0.3663  0.2679 -0.3332
  601MOL0     H79280   4.708   9.004   5.084 -0.3797 -1.0214  0.5966
  601MOL0     H79281   4.512   8.911   5.263 -2.0135  1.8501  3.4828
  601MOL0     H79282   4.678   8.883   5.299 -1.6788 -1.0225  0.9390
  601MOL0     H79283   4.507   9.127   5.395 -2.7517 -0.8306 -2.0652
  601MOL0     H79284   4.677   9.101   5.419 -2.4791  4.2011 -1.6732
  601MOL0     H79285   4.335   8.971   5.518 -0.1930 -1.0889 -0.8634
  601MOL0     H79286   4.364   8.616   5.698  0.3668  1.5891  3.6307
  601MOL0     H79287   4.249   8.683   5.581 -2.5450  0.1047  1.2400
  601MOL0     H79288   4.149   8.740   5.782  0.8178 -3.3020 -1.1683
  601MOL0     H79289   4.235   8.892   5.723 -0.5977  0.9276 -0.9987
  601MOL0     H79290   4.320   8.719   5.962 -0.0359  0.4740 -1.7968
  601MOL0     H79291   4.424   8.825   5.880  1.7275 -4.0372 -2.7631
  601MOL0     H79292   4.153   8.910   5.984  0.0028  0.5155 -0.5532
  601MOL0     H79293   4.269   9.015   5.910  1.2318  2.0578  1.4885
  601MOL0     H79294   4.097   8.947   6.217 -0.5977  0.6654  0.1147
  601MOL0     H79295   4.012   9.108   6.367 -0.4288 -0.3640 -0.7340
  601MOL0     H79296   4.157   9.492   6.711 -0.4468 -1.6680  0.3888
  601MOL0     H79297   4.019   9.671   6.832 -1.7952  0.6976  2.0525
  601MOL0     H79298   3.858   9.709   6.993  2.5131 -1.3610 -4.3410
  601MOL0     H79299   3.720   9.602   7.012  0.0112  0.4621 -0.0866
  601MOL0     H79300   3.681   9.824   7.123  1.4977 -0.6120  0.0127
  601MOL0     H79301   3.567   9.804   6.996 -0.0493  1.4785  0.2742
  601MOL0     H79302   3.764   9.911   6.859 -2.3145 -3.7036  0.4464
  601MOL0     H79303   3.809   9.981   7.016  2.3564 -1.7687 -0.7800
  601MOL0     H79304   3.612  10.114   7.013  2.9221 -2.3491  2.9245
  601MOL0     H79305   3.678  10.122   6.853  0.4462  1.1408 -0.4230
  601MOL0     H79306   3.422   9.980   6.938  0.4928 -0.4085 -0.2217
  601MOL0     H79307   3.514   9.937   6.791  3.1833  2.0299 -0.4789
  601MOL0     H79308   3.319  10.098   6.757  1.9521 -3.8106 -1.7402
  601MOL0     H79309   3.475  10.169   6.709 -0.0522  4.0484  1.1186
  601MOL0     H79310   3.351  10.223   6.978 -1.5716 -2.5062 -2.0689
  601MOL0     H79311   3.484  10.313   6.902 -0.1716 -0.1538  1.1516
  601MOL0     H79312   3.277  10.426   6.890  0.1624 -1.3131  0.7001
  601MOL0     H79313   3.201  10.308   6.786 -1.2000 -0.7214  4.2796
  601MOL0     H79314   3.664   9.467   6.723 -0.2722  2.3206  0.0907
  601MOL0     H79315   3.795   9.284   6.614 -0.8315  2.1859 -1.4296
  601MOL0     H79316   4.379   9.327   6.325  1.1394 -0.3784  0.2912
  601MOL0     H79317   4.446   9.165   6.143 -0.8523 -1.9792 -1.8658
  601MOL0     H79318   4.055   9.386   4.747  0.4137 -0.4006 -3.3113
  601MOL0     H79319   3.852   9.486   4.689 -0.3772  0.7532 -1.3671
  601MOL0     H79320   3.557   9.706   4.876  1.4664  2.2856 -0.7362
  601MOL0     H79321   3.312   9.728   4.896 -1.0915  1.3199 -0.5262
  601MOL0     H79322   3.045   9.649   4.880 -0.6408 -1.8467  1.8506
  601MOL0     H79323   3.164   9.529   4.842  0.1727 -0.1203 -1.6246
  601MOL0     H79324   2.993   9.481   4.624  2.7265  0.1707 -0.1039
  601MOL0     H79325   2.957   9.416   4.791 -0.5530  1.1294  0.8009
  601MOL0     H79326   2.878   9.680   4.682 -0.1062 -0.1647  0.4931
  601MOL0     H79327   2.784   9.597   4.811  0.1446  1.3066 -0.0943
  601MOL0     H79328   2.649   9.585   4.605  0.7267  0.8334  1.6082
  601MOL0     H79329   2.768   9.495   4.526 -1.3372  1.1842 -1.0131
  601MOL0     H79330   2.645   9.185   4.767  0.3341 -0.6341 -0.0177
  601MOL0     H79331   3.267   9.644   4.474 -3.3128 -1.2581  2.6364
  601MOL0     H79332   3.520   9.645   4.451 -0.1954 -2.6507  0.8705
  602MOL0     O79333   7.636   9.578   5.526  0.2931 -0.4992  0.1256
  602MOL0     C79334   7.678   9.494   5.446  0.1700  0.4226 -0.7896
  602MOL0     O79335   7.784   9.413   5.472 -0.0505 -0.5203 -0.0264
  602MOL0     C79336   7.869   9.418   5.582 -0.3181 -0.0321 -0.7533
  602MOL0     C79337   8.006   9.388   5.560  0.3295 -0.0813 -0.1587
  602MOL0     C79338   8.099   9.381   5.671 -0.4434  0.1071  0.5970
  602MOL0     C79339   8.048   9.399   5.799 -0.1439  0.5980 -0.5192
  602MOL0     O79340   8.131   9.377   5.907 -0.1386  0.6355 -0.2484
  602MOL0     C79341   8.241   9.458   5.930 -0.3286  0.7632  0.9752
  602MOL0     C79342   8.281   9.435   6.075  0.2604 -1.3483  0.0378
  602MOL0     C79343   8.393   9.527   6.123 -0.5820  0.8462  0.0719
  602MOL0     C79344   8.491   9.441   6.204 -0.5412  0.1504  0.1239
  602MOL0     C79345   8.589   9.549   6.266  0.9148 -0.1092  0.1570
  602MOL0     C79346   8.705   9.591   6.175  0.1001 -0.3755  0.8219
  602MOL0     C79347   8.820   9.668   6.246 -0.7867 -0.4167  1.0092
  602MOL0     C79348   8.894   9.750   6.143 -0.9086  1.0693  0.8168
  602MOL0     N79349   9.015   9.806   6.206  0.1316 -0.1588  0.4226
  602MOL0     C79350   9.018   9.899   6.307 -0.7948  0.3923  0.5064
  602MOL0     C79351   9.156   9.913   6.344 -0.3408 -0.6658  0.4257
  602MOL0     C79352   9.203  10.012   6.446  0.5999  0.4015  0.4426
  602MOL0     C79353   9.325   9.948   6.504  0.0165  0.7054  0.0750
  602MOL0     C79354   9.362  10.021   6.633 -0.3047  0.0761 -1.0712
  602MOL0     C79355   9.472   9.933   6.693  0.8201 -1.2666 -0.8278
  602MOL0     O79356   9.541   9.996   6.806  1.0345  0.2616 -0.1879
  602MOL0     C79357   9.556   9.915   6.911 -0.6555 -0.8356  0.5190
  602MOL0     C79358   9.433   9.874   6.972  0.0732  0.5816  0.7139
  602MOL0     C79359   9.438   9.794   7.084 -0.5888  0.3679  0.0915
  602MOL0     C79360   9.562   9.737   7.135 -1.0095 -0.0044 -0.8484
  602MOL0     C79361   9.581   9.659   7.256 -0.1213  0.6273  0.1113
  602MOL0     O79362   9.705   9.592   7.272  0.2405 -1.0110 -0.3853
  602MOL0     C79363   9.754   9.536   7.387 -0.8067  0.0076 -0.2152
  602MOL0     C79364   9.698   9.532   7.512 -0.3444  0.3851  0.3811
  602MOL0     C79365   9.764   9.486   7.633 -0.3115  0.2926 -0.7734
  602MOL0     C79366   9.900   9.444   7.629  0.0846 -0.3695 -0.2956
  602MOL0     O79367   9.950   9.411   7.757 -0.6184 -0.1296  0.5001
  602MOL0     C79368  10.084   9.362   7.757  0.5659 -0.7609  0.7069
  602MOL0     C79369  10.119   9.356   7.903  0.0181  0.4990 -0.5469
  602MOL0     C79370  10.115   9.479   7.985 -0.6185 -0.8371 -0.1172
  602MOL0     C79371  10.206   9.580   7.931 -0.5984  0.2009 -0.0908
  602MOL0     C79372  10.364   9.554   7.963  0.7177  0.8616 -0.4872
  602MOL0     C79373  10.439   9.463   7.862 -0.2006 -0.7614 -0.2870
  602MOL0     C79374  10.596   9.488   7.852 -0.0325  0.4727  1.1591
  602MOL0     C79375  10.676   9.393   7.935 -0.0606  0.1533 -0.1976
  602MOL0    Cl79376  10.641   9.398   8.114  0.7322 -0.6857 -0.2347
  602MOL0     C79377   9.963   9.434   7.507  0.7510 -0.4946  0.1231
  602MOL0     C79378   9.895   9.484   7.393  0.4867  0.0282 -0.4222
  602MOL0     O79379   9.486   9.668   7.339 -0.0957  0.6462 -0.1096
  602MOL0     C79380   9.679   9.797   7.071  0.3522  0.1159 -0.0379
  602MOL0     C79381   9.670   9.881   6.962  0.4184  0.3792 -0.7085
  602MOL0     N79382   9.218   9.822   6.260 -0.2723  0.0982 -0.0007
  602MOL0     N79383   9.138   9.759   6.180  0.2862  0.3339 -0.2263
  602MOL0     C79384   7.916   9.431   5.816  0.4805  0.8496 -0.6839
  602MOL0     C79385   7.830   9.444   5.715 -0.7507 -0.1996  0.0090
  602MOL0     C79386   7.607   9.478   5.320 -0.4745  0.1681  0.7861
  602MOL0     C79387   7.663   9.405   5.211  0.4263  0.6590 -0.0211
  602MOL0     C79388   7.582   9.376   5.101 -0.4977  0.0951 -1.0377
  602MOL0     C79389   7.449   9.428   5.092 -0.3804  1.2098 -1.1059
  602MOL0     O79390   7.365   9.419   4.980  0.6113 -0.4217  0.7059
  602MOL0     C79391   7.392   9.335   4.869 -0.3434  0.8430  0.0554
  602MOL0     C79392   7.280   9.337   4.767  0.8779  0.2078  0.7912
  602MOL0     C79393   7.306   9.236   4.645 -0.9489 -0.8326 -0.2152
  602MOL0     C79394   7.186   9.207   4.560  0.2052 -0.5235 -0.1384
  602MOL0     C79395   7.134   9.337   4.509  0.7010  0.3909 -0.2543
  602MOL0     C79396   7.107   9.453   4.467 -0.0550 -0.8139 -0.2779
  602MOL0     C79397   7.404   9.510   5.193  0.1507 -0.1903  0.1112
  602MOL0     C79398   7.472   9.528   5.308  0.1451  0.0311  0.2508
  602MOL0     H79399   8.042   9.355   5.463 -1.1434 -0.1198 -0.7154
  602MOL0     H79400   8.203   9.355   5.657 -0.8937 -1.3261 -0.2965
  602MOL0     H79401   8.219   9.561   5.901 -1.2485  0.6330  1.1845
  602MOL0     H79402   8.324   9.417   5.872  1.5629  4.3450  0.8648
  602MOL0     H79403   8.305   9.328   6.079 -1.3234 -1.7319  0.2193
  602MOL0     H79404   8.205   9.469   6.146  1.0101  1.6556 -0.4637
  602MOL0     H79405   8.363   9.613   6.184  3.1695  1.2947  1.5570
  602MOL0     H79406   8.436   9.574   6.034 -4.4835  0.2217 -2.3930
  602MOL0     H79407   8.426   9.396   6.279  0.1639  0.4806  0.9469
  602MOL0     H79408   8.545   9.369   6.142 -2.2785 -1.6167  0.5621
  602MOL0     H79409   8.633   9.512   6.359  2.5764  1.5746  0.0942
  602MOL0     H79410   8.531   9.639   6.287  1.0238 -0.4002  1.9044
  602MOL0     H79411   8.666   9.626   6.079 -2.1647  1.4284  2.2680
  602MOL0     H79412   8.750   9.492   6.166 -3.7620 -2.1449 -1.4124
  602MOL0     H79413   8.773   9.737   6.317 -0.0098  2.8295 -1.4038
  602MOL0     H79414   8.890   9.603   6.298  0.7262 -2.2064 -2.8515
  602MOL0     H79415   8.838   9.832   6.097  1.1034  1.1696 -1.7312
  602MOL0     H79416   8.920   9.699   6.049  1.1291  1.8996  0.8774
  602MOL0     H79417   8.931   9.950   6.348 -4.3337 -1.5353 -3.7422
  602MOL0     H79418   9.122  10.030   6.516 -0.4724  2.4525 -1.2135
  602MOL0     H79419   9.233  10.113   6.415  0.1105 -0.0862 -1.8044
  602MOL0     H79420   9.406   9.962   6.433 -0.1041  1.4078  0.0634
  602MOL0     H79421   9.299   9.843   6.523 -0.7028  0.8608 -0.0127
  602MOL0     H79422   9.410  10.118   6.616  0.6869 -0.7110 -3.0251
  602MOL0     H79423   9.284  10.022   6.710  1.6536 -1.7241  1.1270
  602MOL0     H79424   9.556   9.911   6.626  1.9061  1.3601 -0.4724
  602MOL0     H79425   9.418   9.842   6.721 -0.2009 -1.2809 -2.7061
  602MOL0     H79426   9.332   9.897   6.939  0.0297 -0.4840  0.0469
  602MOL0     H79427   9.341   9.779   7.130  0.1905 -1.0187  1.4024
  602MOL0     H79428   9.594   9.561   7.519  0.2537  2.9457 -0.3966
  602MOL0     H79429   9.711   9.495   7.727  1.2212 -2.2281  0.4223
  602MOL0     H79430  10.152   9.433   7.709  0.1736 -0.8989 -0.0661
  602MOL0     H79431  10.079   9.264   7.710 -1.3796 -0.5540  0.3790
  602MOL0     H79432  10.223   9.321   7.900  0.6243  2.1290  0.1566
  602MOL0     H79433  10.053   9.289   7.957  0.1936  1.8247  1.4122
  602MOL0     H79434  10.144   9.466   8.089 -0.3068  0.1134 -0.0746
  602MOL0     H79435  10.011   9.511   7.974 -1.0954 -2.9731 -2.8515
  602MOL0     H79436  10.219   9.606   7.825  1.0518  0.4562  0.1546
  602MOL0     H79437  10.183   9.678   7.975 -0.6296  0.1023  0.1117
  602MOL0     H79438  10.371   9.512   8.064 -2.7572 -3.2165 -1.6022
  602MOL0     H79439  10.410   9.653   7.957  0.0547  1.2131  0.0878
  602MOL0     H79440  10.409   9.480   7.759  2.1227  0.1179 -0.8952
  602MOL0     H79441  10.411   9.361   7.889 -3.1980  0.1683  0.4764
  602MOL0     H79442  10.617   9.470   7.746 -1.2262  2.2365  0.5764
  602MOL0     H79443  10.628   9.592   7.861  1.7353  0.0544  0.1673
  602MOL0     H79444  10.781   9.413   7.909 -1.0631  2.2974 -3.0492
  602MOL0     H79445  10.651   9.290   7.907  1.2486 -1.7942  4.6724
  602MOL0     H79446  10.067   9.406   7.507  0.7446 -0.5887 -1.2373
  602MOL0     H79447   9.960   9.491   7.306 -0.2380  3.1883 -0.8413
  602MOL0     H79448   9.779   9.768   7.105 -0.8218 -2.9124  1.1762
  602MOL0     H79449   9.765   9.898   6.912  0.4921 -1.3096 -1.2142
  602MOL0     H79450   7.885   9.430   5.920 -0.1634 -0.0307 -0.8745
  602MOL0     H79451   7.723   9.449   5.736 -1.3061 -2.9666 -1.6044
  602MOL0     H79452   7.767   9.372   5.205  0.7534  1.9476 -1.9940
  602MOL0     H79453   7.614   9.319   5.015 -0.1787 -3.5209  1.2769
  602MOL0     H79454   7.419   9.237   4.911  1.4310  1.1409 -0.3230
  602MOL0     H79455   7.483   9.365   4.816 -1.4917  6.1179  0.4839
  602MOL0     H79456   7.183   9.319   4.815 -0.0116  4.2293  0.8344
  602MOL0     H79457   7.274   9.436   4.720  2.0334  0.1270  0.4425
  602MOL0     H79458   7.344   9.138   4.672 -1.0589 -1.0528 -0.8364
  602MOL0     H79459   7.379   9.269   4.570  0.0011 -2.7758 -0.1907
  602MOL0     H79460   7.206   9.145   4.472 -3.1504  0.0445 -1.4563
  602MOL0     H79461   7.118   9.146   4.620 -0.7969 -3.0549 -3.5429
  602MOL0     H79462   7.097   9.549   4.421 -0.3966 -0.1994  1.0096
  602MOL0     H79463   7.300   9.538   5.180 -0.6098 -2.4722  0.8059
  602MOL0     H79464   7.424   9.589   5.384 -3.2026 -0.4382 -1.3109
  603MOL0     O79465   5.555   6.395   6.599  0.0067 -0.0074  0.1029
  603MOL0     C79466   5.474   6.376   6.686 -0.7033 -0.1508 -0.0420
  603MOL0     O79467   5.345   6.315   6.661  0.1170 -0.0378 -0.2186
  603MOL0     C79468   5.307   6.276   6.540  0.3485  1.2074  0.0575
  603MOL0     C79469   5.213   6.175   6.531  0.3896 -0.2116 -0.2168
  603MOL0     C79470   5.148   6.157   6.412  0.0446 -0.3786  0.6251
  603MOL0     C79471   5.183   6.218   6.298  0.7685 -0.2042  0.2037
  603MOL0     O79472   5.119   6.181   6.182  0.2380  0.2012  0.7304
  603MOL0     C79473   5.119   6.281   6.072  0.1420 -1.1505 -0.1439
  603MOL0     C79474   5.047   6.236   5.952 -0.8176  0.7703  0.2285
  603MOL0     C79475   4.903   6.269   5.977  0.3739  0.4535  0.8243
  603MOL0     C79476   4.836   6.227   5.843  0.9659 -0.0060 -0.2550
  603MOL0     C79477   4.689   6.264   5.844  0.8743 -0.3428 -0.6975
  603MOL0     C79478   4.640   6.267   5.695 -0.0595 -0.0774 -0.8307
  603MOL0     C79479   4.490   6.285   5.698 -0.0997 -0.5538 -1.0788
  603MOL0     C79480   4.418   6.261   5.561 -0.3206  0.3980  0.2460
  603MOL0     N79481   4.431   6.386   5.472  0.1960  0.4557 -0.2301
  603MOL0     C79482   4.338   6.458   5.409  0.4510  0.9430 -0.4651
  603MOL0     C79483   4.397   6.556   5.343 -0.5763 -0.0194  0.0197
  603MOL0     C79484   4.320   6.669   5.264 -0.3966  0.0964  0.3067
  603MOL0     C79485   4.387   6.796   5.310  1.0585 -0.0453 -0.7621
  603MOL0     C79486   4.351   6.846   5.453 -0.3972  0.4314 -0.2708
  603MOL0     C79487   4.444   6.966   5.482 -0.5045 -0.4298 -0.3345
  603MOL0     O79488   4.397   7.021   5.606  0.5145  0.6519  0.6166
  603MOL0     C79489   4.412   6.953   5.721  0.1725  0.1395 -0.4122
  603MOL0     C79490   4.339   6.994   5.830 -0.6657 -0.1353  0.4433
  603MOL0     C79491   4.351   6.940   5.950  0.1959 -0.4261 -1.3379
  603MOL0     C79492   4.425   6.835   5.991 -0.0011 -0.2086  0.7584
  603MOL0     C79493   4.430   6.789   6.131 -0.7133 -0.6296  0.5500
  603MOL0     O79494   4.512   6.676   6.132  0.4763 -0.1808 -0.8326
  603MOL0     C79495   4.564   6.616   6.249  1.1908  0.0472  0.2151
  603MOL0     C79496   4.606   6.484   6.230  0.2052  0.2899 -0.5947
  603MOL0     C79497   4.667   6.424   6.341 -0.3333 -0.1259  0.4044
  603MOL0     C79498   4.668   6.476   6.473 -0.2080 -0.6240 -0.6584
  603MOL0     O79499   4.732   6.412   6.583  1.3177 -0.2875 -0.1287
  603MOL0     C79500   4.761   6.266   6.566  0.5755 -0.3051 -0.4446
  603MOL0     C79501   4.789   6.191   6.693 -0.5236  0.1170  0.7093
  603MOL0     C79502   4.904   6.258   6.768  0.8234 -0.0753  0.5554
  603MOL0     C79503   4.920   6.184   6.900 -0.6995 -0.4868 -0.1598
  603MOL0     C79504   5.029   6.267   6.968 -0.0280  1.1174 -0.3980
  603MOL0     C79505   5.012   6.225   7.122  0.4002 -0.2629  0.1021
  603MOL0     C79506   4.904   6.302   7.189  0.0943  0.3665  0.2070
  603MOL0     C79507   4.813   6.207   7.274  0.1590  0.6201 -0.1794
  603MOL0    Cl79508   4.910   6.092   7.374 -0.2638  0.0017  0.0306
  603MOL0     C79509   4.632   6.611   6.489  0.9472  0.2493 -0.6040
  603MOL0     C79510   4.576   6.677   6.380  0.4072  0.4079 -0.4202
  603MOL0     O79511   4.382   6.853   6.225  0.4401 -0.3057  0.1940
  603MOL0     C79512   4.503   6.783   5.881 -0.5627 -0.2898  1.4036
  603MOL0     C79513   4.501   6.848   5.743 -0.6087 -0.2134  0.1245
  603MOL0     N79514   4.528   6.537   5.355  0.8111  0.2678  0.1546
  603MOL0     N79515   4.550   6.452   5.442  0.4057  0.4509  0.1039
  603MOL0     C79516   5.292   6.301   6.299 -0.3283 -0.2465  0.1435
  603MOL0     C79517   5.351   6.339   6.422  0.0148  0.5758  0.3404
  603MOL0     C79518   5.505   6.409   6.828 -0.2006  0.1684 -0.4130
  603MOL0     C79519   5.633   6.387   6.883 -1.2851  1.1340 -0.3519
  603MOL0     C79520   5.678   6.414   7.018 -0.3242 -0.4970 -0.0199
  603MOL0     C79521   5.584   6.456   7.110 -1.1812 -1.2369 -0.4060
  603MOL0     O79522   5.638   6.492   7.236  0.3182  0.0101  0.8210
  603MOL0     C79523   5.533   6.507   7.333  0.0347 -0.6269 -0.0650
  603MOL0     C79524   5.586   6.532   7.477 -1.2221 -0.7994 -0.1694
  603MOL0     C79525   5.681   6.420   7.516 -0.4009 -0.8173 -0.4552
  603MOL0     C79526   5.729   6.429   7.668  0.3884  0.6815  0.1942
  603MOL0     C79527   5.607   6.453   7.758 -0.5596 -0.6049 -0.1804
  603MOL0     C79528   5.513   6.467   7.835  0.4283 -0.0208  0.6282
  603MOL0     C79529   5.450   6.476   7.064  0.0811 -0.5423  0.1621
  603MOL0     C79530   5.418   6.465   6.924  0.0635  0.7686 -0.8520
  603MOL0     H79531   5.192   6.111   6.617  0.9381  0.4375  0.4099
  603MOL0     H79532   5.063   6.092   6.399 -0.6323  0.2610  1.7152
  603MOL0     H79533   5.219   6.298   6.033 -0.0761 -1.3421 -0.7999
  603MOL0     H79534   5.092   6.381   6.107  2.2240  0.0850 -1.8548
  603MOL0     H79535   5.061   6.128   5.942 -0.7597  0.9310 -2.0035
  603MOL0     H79536   5.085   6.285   5.861 -0.3078 -1.3844 -0.7933
  603MOL0     H79537   4.889   6.376   5.994  0.4054  0.5292  0.4008
  603MOL0     H79538   4.847   6.214   6.052 -2.0944  1.0130 -0.4916
  603MOL0     H79539   4.881   6.277   5.757  1.3860  1.3233  0.7145
  603MOL0     H79540   4.843   6.119   5.824 -1.0882 -0.4451  1.0778
  603MOL0     H79541   4.668   6.368   5.872 -0.8169 -0.7557 -0.3003
  603MOL0     H79542   4.640   6.195   5.913  2.7305  0.9953  2.1473
  603MOL0     H79543   4.677   6.183   5.634 -0.5692  0.6969 -2.2508
  603MOL0     H79544   4.686   6.360   5.661  0.1264  1.9248  4.0688
  603MOL0     H79545   4.451   6.212   5.770  0.4600  2.6692  2.8780
  603MOL0     H79546   4.452   6.379   5.739 -2.7370 -1.3606 -1.5061
  603MOL0     H79547   4.315   6.244   5.593 -0.8856  2.7474 -0.0863
  603MOL0     H79548   4.457   6.170   5.516  0.5257  1.0810 -0.4292
  603MOL0     H79549   4.232   6.434   5.408 -0.0253  2.8601 -0.5333
  603MOL0     H79550   4.212   6.681   5.278 -0.9134  0.6248 -3.3758
  603MOL0     H79551   4.334   6.648   5.158 -1.1556 -2.3660  0.6226
  603MOL0     H79552   4.369   6.874   5.236  0.6654  0.1583 -0.4538
  603MOL0     H79553   4.495   6.776   5.308  0.5431 -3.8642  0.9001
  603MOL0     H79554   4.247   6.881   5.454 -1.3975 -1.6176 -4.9225
  603MOL0     H79555   4.373   6.766   5.523 -1.6247  0.1582 -0.1719
  603MOL0     H79556   4.428   7.049   5.413  0.0933  1.1325  1.3148
  603MOL0     H79557   4.549   6.935   5.487 -1.1410 -2.4894  2.1420
  603MOL0     H79558   4.271   7.076   5.807 -0.8222  0.0923  1.6522
  603MOL0     H79559   4.296   6.989   6.030 -2.2449  0.2047 -3.2682
  603MOL0     H79560   4.611   6.429   6.136 -1.2468  1.0639 -1.1611
  603MOL0     H79561   4.697   6.325   6.309 -1.7352 -0.4665  0.0789
  603MOL0     H79562   4.841   6.257   6.492  0.9526 -0.8442  0.0183
  603MOL0     H79563   4.665   6.228   6.530 -0.1460  0.5147  0.5520
  603MOL0     H79564   4.807   6.089   6.660 -1.7504 -0.0715  0.5626
  603MOL0     H79565   4.700   6.186   6.756 -0.1101  1.8779  1.5019
  603MOL0     H79566   4.876   6.363   6.781  1.8100  0.3346 -0.4327
  603MOL0     H79567   4.993   6.247   6.705 -0.1989 -0.7965 -0.8489
  603MOL0     H79568   4.825   6.174   6.953 -0.3899 -0.8048  0.3430
  603MOL0     H79569   4.959   6.082   6.887 -2.6040 -1.4935  1.4354
  603MOL0     H79570   5.030   6.376   6.961  0.9436  1.0104 -2.4438
  603MOL0     H79571   5.123   6.232   6.925 -0.2444 -1.6927  1.1896
  603MOL0     H79572   5.102   6.245   7.181 -0.4323  1.1495  0.9712
  603MOL0     H79573   4.986   6.120   7.136 -1.9833  0.4349  1.6852
  603MOL0     H79574   4.949   6.386   7.243 -0.4139  1.8437 -1.5419
  603MOL0     H79575   4.838   6.351   7.116 -2.5369 -1.4250  1.2138
  603MOL0     H79576   4.750   6.149   7.207 -0.8316  0.0623  1.1900
  603MOL0     H79577   4.750   6.264   7.344  0.4225  0.5312  0.1320
  603MOL0     H79578   4.645   6.661   6.584  0.6023 -1.4842  0.3947
  603MOL0     H79579   4.559   6.782   6.402  1.5732 -0.0697  3.4242
  603MOL0     H79580   4.577   6.704   5.891 -1.0936 -0.9984  0.0571
  603MOL0     H79581   4.569   6.817   5.665  0.2655  3.7144 -0.8802
  603MOL0     H79582   5.332   6.338   6.205  0.9001  2.0059  1.4628
  603MOL0     H79583   5.415   6.426   6.416  0.2540  0.3186 -1.3492
  603MOL0     H79584   5.710   6.343   6.821  0.3394  0.5628  1.9417
  603MOL0     H79585   5.776   6.395   7.061 -0.2719 -3.2398 -1.1625
  603MOL0     H79586   5.464   6.422   7.330 -0.2618 -0.5149  2.0817
  603MOL0     H79587   5.481   6.600   7.308  1.2269 -0.4730 -2.2905
  603MOL0     H79588   5.645   6.623   7.478 -2.0077 -0.0871 -3.7856
  603MOL0     H79589   5.502   6.542   7.547  1.2526  2.5736  2.6290
  603MOL0     H79590   5.771   6.426   7.454  1.0357 -3.1604  1.2349
  603MOL0     H79591   5.631   6.325   7.500 -0.0605 -1.6258  2.6221
  603MOL0     H79592   5.791   6.343   7.697 -1.7487 -0.5524  1.3519
  603MOL0     H79593   5.780   6.524   7.685 -0.9167  1.0339  2.5953
  603MOL0     H79594   5.423   6.478   7.893 -0.4677 -0.4109 -0.6459
  603MOL0     H79595   5.363   6.500   7.125  1.9402 -0.1379  2.8505
  603MOL0     H79596   5.316   6.491   6.899 -1.7613 -1.4273  3.3430
  604MOL0     O79597   1.762   9.736   9.333 -0.2480  0.6066 -0.2341
  604MOL0     C79598   1.864   9.662   9.343 -0.3546 -0.4721 -0.4506
  604MOL0     O79599   1.944   9.638   9.233 -0.1775  0.5193 -0.3884
  604MOL0     C79600   1.911   9.672   9.105 -0.4665  0.0556 -0.4083
  604MOL0     C79601   2.021   9.675   9.025 -0.4219 -0.8176 -0.8196
  604MOL0     C79602   2.011   9.717   8.889 -0.4284  0.0579  0.5543
  604MOL0     C79603   1.884   9.763   8.833 -1.0737  1.1017  0.2772
  604MOL0     O79604   1.885   9.812   8.699  0.1725 -0.2659  0.4761
  604MOL0     C79605   1.766   9.860   8.635  1.2183  0.0890 -0.6499
  604MOL0     C79606   1.660   9.757   8.604 -0.7994 -0.5002  0.0972
  604MOL0     C79607   1.722   9.632   8.536 -0.3173 -0.1016 -0.3270
  604MOL0     C79608   1.616   9.564   8.450 -0.1493  0.0829  1.2024
  604MOL0     C79609   1.683   9.442   8.377 -0.5585  0.5440 -0.5768
  604MOL0     C79610   1.582   9.375   8.280  0.6154 -0.5141  0.3453
  604MOL0     C79611   1.642   9.259   8.198  0.2400 -0.5852 -0.1041
  604MOL0     C79612   1.682   9.288   8.052 -0.4171  0.2062  0.0676
  604MOL0     N79613   1.793   9.388   8.053 -0.2119  0.5658  0.5851
  604MOL0     C79614   1.925   9.352   8.072 -1.0013 -0.1698 -0.3985
  604MOL0     C79615   1.990   9.470   8.083 -0.2526  0.8285 -0.6062
  604MOL0     C79616   2.136   9.494   8.132  0.1521 -0.2987  0.9409
  604MOL0     C79617   2.161   9.545   8.272  0.4887 -0.0976 -1.2489
  604MOL0     C79618   2.104   9.684   8.300  0.4759 -0.2458  1.5157
  604MOL0     C79619   2.180   9.768   8.408  0.2821  0.2945 -0.3808
  604MOL0     O79620   2.203   9.677   8.516 -0.8541 -0.8064 -0.0850
  604MOL0     C79621   2.282   9.724   8.622 -0.4982 -0.0229  0.9148
  604MOL0     C79622   2.314   9.860   8.632  0.1238 -0.2793  0.3370
  604MOL0     C79623   2.377   9.906   8.752  0.3816  0.1184  0.4049
  604MOL0     C79624   2.416   9.825   8.859  0.0606  0.1263  0.8736
  604MOL0     C79625   2.488   9.873   8.982 -0.5409  0.2922  0.0551
  604MOL0     O79626   2.521  10.002   8.989 -0.7801 -0.4933  0.3958
  604MOL0     C79627   2.609  10.046   9.083 -0.5365 -0.3661  0.1686
  604MOL0     C79628   2.586  10.067   9.219 -0.2141  0.4208  0.4631
  604MOL0     C79629   2.673  10.107   9.315 -0.4594 -0.8801 -0.1028
  604MOL0     C79630   2.796  10.157   9.266 -0.3190  1.0628 -0.0702
  604MOL0     O79631   2.879  10.214   9.364  1.0632 -0.4942  0.0644
  604MOL0     C79632   3.013  10.258   9.335  0.1232  0.1830  0.4048
  604MOL0     C79633   3.029  10.392   9.264  0.0896 -0.8935 -0.2194
  604MOL0     C79634   3.176  10.432   9.273 -0.7647 -0.6802  0.0672
  604MOL0     C79635   3.197  10.559   9.178 -0.0049 -0.5270 -0.9690
  604MOL0     C79636   3.142  10.700   9.225 -0.0082  0.1432  0.2426
  604MOL0     C79637   3.214  10.822   9.163  0.3147  0.4615  0.3597
  604MOL0     C79638   3.167  10.957   9.225 -0.2385 -0.3590  0.1088
  604MOL0     C79639   3.268  11.076   9.205  0.1615  0.9027  0.1213
  604MOL0    Cl79640   3.295  11.151   9.359 -0.2923 -0.2609 -0.2402
  604MOL0     C79641   2.827  10.126   9.127 -0.9532 -0.2728  0.3764
  604MOL0     C79642   2.733  10.081   9.040  0.0137 -1.6913  0.8268
  604MOL0     O79643   2.518   9.790   9.069  0.2847 -0.5818 -0.3297
  604MOL0     C79644   2.382   9.692   8.842  0.2515  1.2282 -0.3502
  604MOL0     C79645   2.316   9.637   8.731  0.1111  0.0469 -0.4073
  604MOL0     N79646   1.897   9.575   8.080 -0.3545  0.2770  0.0787
  604MOL0     N79647   1.781   9.521   8.050 -0.6723  0.3923 -0.1021
  604MOL0     C79648   1.773   9.757   8.918  0.1937  0.1813  0.1939
  604MOL0     C79649   1.791   9.713   9.049  0.4853  0.4379 -0.0279
  604MOL0     C79650   1.899   9.584   9.467 -0.3719 -0.2409 -0.2102
  604MOL0     C79651   1.995   9.481   9.487 -1.2496  0.0766 -0.5281
  604MOL0     C79652   2.001   9.419   9.615 -0.0110  0.0252 -0.5412
  604MOL0     C79653   1.905   9.444   9.714 -0.5267 -1.2295 -0.2858
  604MOL0     O79654   1.901   9.371   9.825 -0.4386  0.1050  0.3654
  604MOL0     C79655   2.024   9.370   9.905  1.1407 -0.1753  0.9092
  604MOL0     C79656   2.039   9.244   9.998 -0.2481  0.4722  0.0604
  604MOL0     C79657   1.915   9.237  10.089 -0.2251  0.2014  1.1784
  604MOL0     C79658   1.937   9.113  10.181  0.0040 -0.4512 -0.0483
  604MOL0     C79659   1.847   9.102  10.300 -0.0705 -0.5977  0.1949
  604MOL0     C79660   1.776   9.098  10.405  0.4767 -1.4209 -0.4218
  604MOL0     C79661   1.815   9.555   9.692 -0.1611  0.2879  0.2534
  604MOL0     C79662   1.819   9.619   9.576 -1.2035 -0.3739  0.3410
  604MOL0     H79663   2.117   9.643   9.065 -1.1294 -0.4477  1.3328
  604MOL0     H79664   2.099   9.723   8.826 -0.9085 -4.4344 -0.9482
  604MOL0     H79665   1.785   9.906   8.538  0.6067  2.9005  0.4580
  604MOL0     H79666   1.728   9.942   8.697  0.2949 -0.9627  0.2270
  604MOL0     H79667   1.586   9.800   8.536 -1.2044 -0.5394  0.5036
  604MOL0     H79668   1.608   9.732   8.697  3.1079  1.0279  2.9262
  604MOL0     H79669   1.762   9.559   8.607  2.8128  0.5346 -1.2636
  604MOL0     H79670   1.807   9.664   8.474  0.3675  3.3510  2.0963
  604MOL0     H79671   1.525   9.531   8.501 -2.0223 -0.8337 -2.3960
  604MOL0     H79672   1.581   9.639   8.378 -2.5389 -0.4362  1.7242
  604MOL0     H79673   1.721   9.374   8.454 -2.2647  0.6179  0.3655
  604MOL0     H79674   1.770   9.480   8.322  0.5472  1.2609  1.5662
  604MOL0     H79675   1.530   9.446   8.215 -1.5881 -2.3645 -0.0356
  604MOL0     H79676   1.499   9.331   8.335 -0.1256  0.8832  0.3644
  604MOL0     H79677   1.724   9.211   8.253  1.1286 -0.9586 -1.6899
  604MOL0     H79678   1.568   9.179   8.187  2.0061 -2.2276 -0.5685
  604MOL0     H79679   1.593   9.316   7.995 -1.1676 -1.5467  0.3295
  604MOL0     H79680   1.713   9.196   8.003 -0.4125 -0.1062  0.6550
  604MOL0     H79681   1.968   9.252   8.067  2.0053  0.9636  0.4096
  604MOL0     H79682   2.187   9.555   8.058 -0.0739 -1.6306 -0.3499
  604MOL0     H79683   2.187   9.398   8.122 -0.1998 -0.2237 -3.5725
  604MOL0     H79684   2.270   9.545   8.279  0.4738 -0.7248 -0.8819
  604MOL0     H79685   2.123   9.470   8.343  1.5394  0.2614 -0.2871
  604MOL0     H79686   2.112   9.735   8.203  2.0170 -2.2797  0.5004
  604MOL0     H79687   2.000   9.672   8.331 -0.5460  2.5522 -0.4265
  604MOL0     H79688   2.124   9.856   8.442  1.4996  1.2939 -0.8551
  604MOL0     H79689   2.274   9.797   8.360 -0.4797 -0.3998 -2.3830
  604MOL0     H79690   2.301   9.946   8.566  0.6481 -0.1952  0.3448
  604MOL0     H79691   2.386  10.013   8.759 -1.8587  0.4416 -0.7235
  604MOL0     H79692   2.486  10.041   9.252 -0.8000  1.8640 -0.1140
  604MOL0     H79693   2.651  10.091   9.420  0.1895 -2.6505 -0.1958
  604MOL0     H79694   3.062  10.186   9.269 -1.4830 -0.5997  0.0388
  604MOL0     H79695   3.054  10.260   9.437 -1.5234  1.4871  1.0709
  604MOL0     H79696   2.962  10.458   9.320  0.4245 -0.0794 -0.7629
  604MOL0     H79697   2.992  10.376   9.162 -0.2820  0.1299 -0.2619
  604MOL0     H79698   3.242  10.359   9.225  1.0296  1.1482 -0.3954
  604MOL0     H79699   3.208  10.448   9.376 -1.5148 -5.3747  1.2730
  604MOL0     H79700   3.305  10.577   9.168 -0.4651  2.1753 -2.0251
  604MOL0     H79701   3.152  10.525   9.084  2.0822 -0.6298 -1.9946
  604MOL0     H79702   3.157  10.705   9.334  0.0752  1.4158  0.1797
  604MOL0     H79703   3.033  10.705   9.216 -0.2819 -1.0959  2.1102
  604MOL0     H79704   3.199  10.839   9.056  2.2691  1.7785  0.2508
  604MOL0     H79705   3.322  10.813   9.174  0.4093  0.0938 -0.7461
  604MOL0     H79706   3.073  10.996   9.183 -0.0955  1.7311  1.5424
  604MOL0     H79707   3.149  10.944   9.332 -1.8447  0.3306 -0.0406
  604MOL0     H79708   3.232  11.147   9.130  1.6964  0.4908 -1.0457
  604MOL0     H79709   3.356  11.021   9.172  0.5787  2.8711 -2.3159
  604MOL0     H79710   2.921  10.156   9.080 -0.8239 -2.5907 -0.9963
  604MOL0     H79711   2.763  10.078   8.936 -0.1501 -0.2565  0.7188
  604MOL0     H79712   2.411   9.624   8.922 -2.5888  1.1492  0.7186
  604MOL0     H79713   2.279   9.535   8.721 -0.9240  0.6151 -3.3801
  604MOL0     H79714   1.674   9.789   8.885  0.8871  0.3295 -1.8639
  604MOL0     H79715   1.700   9.712   9.108  1.8808  1.6117  2.2702
  604MOL0     H79716   2.064   9.454   9.408 -0.6163 -3.7330  1.0940
  604MOL0     H79717   2.070   9.338   9.638 -1.9575 -1.1753  1.5658
  604MOL0     H79718   2.028   9.462   9.965  0.8685  1.5958 -1.6364
  604MOL0     H79719   2.115   9.375   9.844  1.2100 -2.3543  0.7577
  604MOL0     H79720   2.051   9.158   9.932  0.3470  2.2769 -2.3300
  604MOL0     H79721   2.122   9.262  10.067 -0.3710 -1.5179  0.7806
  604MOL0     H79722   1.824   9.229  10.029 -0.5768 -0.6535  1.8059
  604MOL0     H79723   1.903   9.327  10.151 -2.3292  1.6264 -1.1275
  604MOL0     H79724   1.938   9.024  10.118 -0.5817 -0.0605 -0.6152
  604MOL0     H79725   2.032   9.119  10.235 -0.5599  0.6730  0.8784
  604MOL0     H79726   1.712   9.084  10.490 -0.6338 -1.2913 -1.2104
  604MOL0     H79727   1.743   9.580   9.770 -0.4519 -1.8583  0.7401
  604MOL0     H79728   1.751   9.702   9.560 -0.5395 -0.2395 -2.3016
  605MOL0     O79729   8.842   8.324   7.944 -0.3371  0.3356 -0.9406
  605MOL0     C79730   8.824   8.344   7.822  0.0476 -0.7917 -0.1942
  605MOL0     O79731   8.705   8.355   7.764  0.9937  1.3227  0.9978
  605MOL0     C79732   8.588   8.325   7.828 -0.0510 -0.7161 -0.1281
  605MOL0     C79733   8.483   8.420   7.840 -1.0305 -0.5826 -0.8224
  605MOL0     C79734   8.358   8.387   7.899 -0.7122 -0.4265  0.6392
  605MOL0     C79735   8.337   8.262   7.951  0.1225  0.7324  0.5167
  605MOL0     O79736   8.216   8.241   8.013 -0.1174  0.2304  0.1846
  605MOL0     C79737   8.167   8.115   8.069 -0.6192  0.0213 -0.3440
  605MOL0     C79738   8.025   8.118   8.095  0.2945 -0.4030  0.2116
  605MOL0     C79739   7.933   8.142   7.962  0.6160 -0.1625 -0.4583
  605MOL0     C79740   7.901   8.011   7.893 -0.1732  0.2918 -0.5052
  605MOL0     C79741   7.751   8.019   7.860  0.4112  0.1134 -0.2123
  605MOL0     C79742   7.688   7.886   7.804 -0.1265 -0.5163  0.0964
  605MOL0     C79743   7.777   7.810   7.695 -0.8011 -0.2148 -0.2242
  605MOL0     C79744   7.824   7.894   7.572 -1.0148  0.2521 -0.5210
  605MOL0     N79745   7.890   7.813   7.465  0.0599 -0.0657  0.3653
  605MOL0     C79746   7.885   7.847   7.329  0.0510  0.3686  0.1339
  605MOL0     C79747   7.962   7.759   7.265 -0.0831  0.8912  0.2352
  605MOL0     C79748   8.023   7.776   7.125  0.2542 -0.0796 -0.2849
  605MOL0     C79749   8.105   7.907   7.106 -0.2408 -0.1476 -0.0565
  605MOL0     C79750   8.249   7.914   7.175  0.1407  0.7274  0.1340
  605MOL0     C79751   8.333   8.019   7.099 -0.1544 -0.0059 -0.2949
  605MOL0     O79752   8.369   7.959   6.977  0.4652 -0.8110 -0.0592
  605MOL0     C79753   8.474   8.029   6.918 -0.5323  0.2208  0.2488
  605MOL0     C79754   8.457   8.155   6.852  0.1315  0.7285  0.0640
  605MOL0     C79755   8.564   8.221   6.804  0.2895 -0.9255  0.7060
  605MOL0     C79756   8.697   8.175   6.809  0.0418  0.5064  0.6196
  605MOL0     C79757   8.811   8.251   6.754 -0.0235  0.1528  0.6020
  605MOL0     O79758   8.776   8.367   6.690  1.1912  0.2462 -0.1611
  605MOL0     C79759   8.885   8.438   6.635  0.6019  0.1860 -0.8193
  605MOL0     C79760   8.914   8.558   6.700  0.6321 -0.0686 -0.5629
  605MOL0     C79761   9.012   8.633   6.638 -0.9259  0.4100 -0.3420
  605MOL0     C79762   9.087   8.590   6.533 -0.3716  0.8175  0.3616
  605MOL0     O79763   9.191   8.664   6.487  0.0891  0.2149 -0.0633
  605MOL0     C79764   9.315   8.590   6.464  0.9609 -0.7599  0.4576
  605MOL0     C79765   9.432   8.681   6.442  0.0172  0.3728  0.1431
  605MOL0     C79766   9.564   8.595   6.445  0.2298  0.3594 -0.9645
  605MOL0     C79767   9.690   8.691   6.432  0.5548 -0.4450  0.5706
  605MOL0     C79768   9.810   8.614   6.385 -0.0575  0.0474  0.4753
  605MOL0     C79769   9.882   8.521   6.478 -0.0381  0.5652 -0.2635
  605MOL0     C79770   9.822   8.381   6.501 -0.8221  0.5216  1.1135
  605MOL0     C79771   9.780   8.303   6.378  0.5284  0.7911 -0.0852
  605MOL0    Cl79772   9.924   8.311   6.257  0.3807 -0.3810  0.1373
  605MOL0     C79773   9.043   8.477   6.467  0.7832  0.2630  0.6274
  605MOL0     C79774   8.939   8.405   6.514 -0.1625 -0.1675 -0.2062
  605MOL0     O79775   8.926   8.223   6.792  0.0684 -0.1922 -1.1730
  605MOL0     C79776   8.713   8.037   6.857  0.6617 -0.1688  0.1195
  605MOL0     C79777   8.607   7.968   6.919 -0.1280  0.7944 -0.0556
  605MOL0     N79778   8.010   7.679   7.358 -0.7990 -1.2364 -0.4618
  605MOL0     N79779   7.970   7.713   7.476  0.2542  0.6934 -0.6633
  605MOL0     C79780   8.439   8.168   7.942  0.4002 -0.3175  0.1932
  605MOL0     C79781   8.562   8.200   7.882 -0.5944 -0.3587  0.3514
  605MOL0     C79782   8.936   8.350   7.733  1.2521 -0.6716 -0.5575
  605MOL0     C79783   9.063   8.345   7.784  0.1899 -0.1754 -1.3647
  605MOL0     C79784   9.181   8.334   7.702 -0.0409 -0.0977  0.0404
  605MOL0     C79785   9.160   8.332   7.567 -0.6386 -0.5046  0.4746
  605MOL0     O79786   9.267   8.328   7.491 -0.6171 -0.0468  0.2980
  605MOL0     C79787   9.314   8.454   7.434  0.3188  0.2982 -0.4321
  605MOL0     C79788   9.384   8.558   7.530 -0.0594  0.4256  0.8190
  605MOL0     C79789   9.530   8.524   7.568 -0.0736 -0.1715 -0.2885
  605MOL0     C79790   9.617   8.629   7.644 -1.0907 -0.1287  0.1741
  605MOL0     C79791   9.733   8.564   7.716  0.1728  0.4196  0.8921
  605MOL0     C79792   9.834   8.503   7.769  0.0024 -0.0327 -0.5306
  605MOL0     C79793   9.029   8.354   7.515  0.2210  0.4836  0.3843
  605MOL0     C79794   8.913   8.357   7.598 -1.5132  0.2774 -0.3042
  605MOL0     H79795   8.494   8.521   7.800 -1.4025 -0.7824 -1.4419
  605MOL0     H79796   8.285   8.468   7.905  2.7575  2.8458  3.1909
  605MOL0     H79797   8.213   8.104   8.167 -3.1071  0.2911  0.9458
  605MOL0     H79798   8.188   8.028   8.005  1.9991 -0.3675  0.9202
  605MOL0     H79799   8.008   8.206   8.158 -0.9386  0.5588 -1.3789
  605MOL0     H79800   7.990   8.029   8.148 -1.2147  0.0960  0.1090
  605MOL0     H79801   7.983   8.213   7.896  0.7971 -1.6681 -2.0099
  605MOL0     H79802   7.842   8.189   8.001  2.6756  1.6837  2.4137
  605MOL0     H79803   7.966   7.998   7.806  1.2449  2.1156  0.2095
  605MOL0     H79804   7.912   7.931   7.968  3.0755  3.0286  2.3129
  605MOL0     H79805   7.731   8.108   7.800  1.0996  0.8632  0.6573
  605MOL0     H79806   7.696   8.037   7.952  2.0163 -0.0421  0.8107
  605MOL0     H79807   7.598   7.916   7.750  0.4760  0.0918 -0.5935
  605MOL0     H79808   7.665   7.807   7.875  1.0321 -3.0190 -2.1387
  605MOL0     H79809   7.872   7.786   7.744 -1.1715 -0.8914  0.1790
  605MOL0     H79810   7.729   7.718   7.661  2.4356 -0.5827 -4.7321
  605MOL0     H79811   7.894   7.972   7.605 -0.9966  0.1053 -0.2077
  605MOL0     H79812   7.736   7.940   7.527  1.5935  3.7620 -2.6331
  605MOL0     H79813   7.836   7.938   7.294 -0.3358  0.4573  0.8878
  605MOL0     H79814   7.940   7.770   7.054 -2.6952  0.9376  2.8068
  605MOL0     H79815   8.102   7.702   7.108  1.6082  0.9826  1.0581
  605MOL0     H79816   8.040   7.988   7.139  0.4879 -0.6608  2.9404
  605MOL0     H79817   8.126   7.925   7.000  4.3748  3.4675  1.1598
  605MOL0     H79818   8.220   7.951   7.274  0.6330 -0.9979  0.9619
  605MOL0     H79819   8.303   7.820   7.184 -0.2129  0.6834  2.2797
  605MOL0     H79820   8.416   8.036   7.169 -1.1616 -0.7792  1.1455
  605MOL0     H79821   8.282   8.114   7.086 -0.2520 -0.3209 -2.4076
  605MOL0     H79822   8.353   8.187   6.845  0.4523  1.8005 -0.0192
  605MOL0     H79823   8.529   8.301   6.739 -3.6187  0.4096  4.0457
  605MOL0     H79824   8.867   8.593   6.791  0.0031  3.4726 -2.1060
  605MOL0     H79825   9.043   8.729   6.679 -2.1999  0.4148  0.6968
  605MOL0     H79826   9.298   8.528   6.376 -0.7633 -0.3139  0.4340
  605MOL0     H79827   9.327   8.526   6.552  0.6268  1.1882  1.9715
  605MOL0     H79828   9.436   8.763   6.515  3.2746  0.6645 -0.1966
  605MOL0     H79829   9.414   8.726   6.343  0.7682  1.5320  0.5068
  605MOL0     H79830   9.560   8.528   6.359  0.3526  2.3811 -2.6176
  605MOL0     H79831   9.558   8.542   6.540  0.7866  1.0194 -0.5530
  605MOL0     H79832   9.669   8.768   6.357 -0.9594 -1.3183  0.0658
  605MOL0     H79833   9.701   8.743   6.527 -0.0553  2.8987 -1.0660
  605MOL0     H79834   9.886   8.691   6.367  1.2187 -1.0856  0.9138
  605MOL0     H79835   9.787   8.568   6.288 -0.8821  2.4198 -0.5426
  605MOL0     H79836   9.883   8.562   6.580  3.4757  0.8804 -0.3121
  605MOL0     H79837   9.987   8.507   6.451  0.2452  1.4339  0.3282
  605MOL0     H79838   9.904   8.325   6.545 -1.3500  0.5948  2.2209
  605MOL0     H79839   9.747   8.391   6.580 -1.7885  1.1761  0.1543
  605MOL0     H79840   9.691   8.355   6.342 -0.7947  0.4052  2.4392
  605MOL0     H79841   9.758   8.198   6.404 -2.6925  0.9818 -1.5501
  605MOL0     H79842   9.076   8.444   6.369  1.3575  0.0680  0.8832
  605MOL0     H79843   8.904   8.314   6.465  0.2776  0.3412 -1.4768
  605MOL0     H79844   8.810   7.990   6.865  1.1904  1.1818  2.8149
  605MOL0     H79845   8.639   7.888   6.986 -1.6027  2.1148  2.3459
  605MOL0     H79846   8.421   8.066   7.974  1.6142 -1.3927 -2.2930
  605MOL0     H79847   8.639   8.125   7.867 -0.8432 -0.3575 -1.2030
  605MOL0     H79848   9.083   8.346   7.890 -2.8013 -0.8899 -0.7224
  605MOL0     H79849   9.276   8.330   7.754 -0.0723  1.2363  0.2470
  605MOL0     H79850   9.230   8.502   7.385 -0.6875 -1.3051 -0.3663
  605MOL0     H79851   9.379   8.436   7.348  1.8566 -0.1491  0.7655
  605MOL0     H79852   9.380   8.654   7.477  4.7021  0.7617  0.6459
  605MOL0     H79853   9.320   8.574   7.617 -1.6995  0.4996 -0.3491
  605MOL0     H79854   9.587   8.500   7.477 -0.8608 -2.3445 -0.2662
  605MOL0     H79855   9.526   8.437   7.633 -0.2332  1.2944  1.7416
  605MOL0     H79856   9.656   8.710   7.581  0.0684 -0.8480 -0.0689
  605MOL0     H79857   9.551   8.664   7.724  2.0058  3.2679  1.5509
  605MOL0     H79858   9.924   8.474   7.818 -0.0262  2.3753  1.1343
  605MOL0     H79859   9.025   8.346   7.407  0.4597 -0.3654  0.4232
  605MOL0     H79860   8.817   8.363   7.548 -0.5615  0.6591 -2.1378
  606MOL0     O79861   7.073   7.847   1.988 -0.7179  0.1441 -0.2463
  606MOL0     C79862   7.177   7.837   2.058 -0.1200 -0.2687 -0.4403
  606MOL0     O79863   7.277   7.914   2.062  0.6648 -0.2072 -0.6487
  606MOL0     C79864   7.284   8.031   1.986 -0.7367  0.3970  0.2724
  606MOL0     C79865   7.412   8.068   1.958 -0.8634 -0.7458  0.0936
  606MOL0     C79866   7.441   8.178   1.868 -0.2217  0.6825 -0.3168
  606MOL0     C79867   7.334   8.251   1.814  0.5696  0.1467  0.9412
  606MOL0     O79868   7.360   8.354   1.721 -0.2890 -0.1310 -0.2432
  606MOL0     C79869   7.313   8.481   1.777 -0.3121  0.2186  0.9462
  606MOL0     C79870   7.386   8.596   1.703  0.4737  0.1999  0.5975
  606MOL0     C79871   7.536   8.588   1.718 -0.9130 -0.0498 -0.1531
  606MOL0     C79872   7.620   8.680   1.633 -0.9552 -0.9634  0.8475
  606MOL0     C79873   7.761   8.701   1.689  0.3684  0.2448 -0.6120
  606MOL0     C79874   7.848   8.772   1.597  0.0981 -0.2862 -0.4336
  606MOL0     C79875   7.927   8.893   1.666 -0.3160  0.4864 -0.1040
  606MOL0     C79876   8.002   8.842   1.786 -0.5998  0.5330 -0.2207
  606MOL0     N79877   8.149   8.868   1.782 -0.1202  0.8610  0.4316
  606MOL0     C79878   8.214   8.979   1.826  0.5644  0.1400  0.5691
  606MOL0     C79879   8.342   8.951   1.813 -0.5531  0.1847  0.7225
  606MOL0     C79880   8.441   9.043   1.866 -0.4830  0.7171  0.0655
  606MOL0     C79881   8.584   8.998   1.834  0.5666 -0.1840  0.0150
  606MOL0     C79882   8.692   9.099   1.869  0.2534  0.1985 -0.0244
  606MOL0     C79883   8.819   9.020   1.877 -0.0117 -0.7336 -0.4426
  606MOL0     O79884   8.857   8.970   1.744 -0.4587 -0.4138 -0.6468
  606MOL0     C79885   8.977   8.906   1.723  0.1063  0.2729 -0.0151
  606MOL0     C79886   9.093   8.947   1.788 -0.4932  0.1029 -0.3338
  606MOL0     C79887   9.219   8.886   1.778  0.1818  0.5807  0.4859
  606MOL0     C79888   9.226   8.779   1.686  0.1121 -0.5064  0.5351
  606MOL0     C79889   9.355   8.709   1.669 -0.1224 -0.1250  0.0540
  606MOL0     O79890   9.454   8.753   1.751 -0.4939 -1.2116  0.5643
  606MOL0     C79891   9.580   8.701   1.754  0.2944  0.4578 -0.2977
  606MOL0     C79892   9.642   8.639   1.650 -0.0355 -0.2659  0.5658
  606MOL0     C79893   9.771   8.585   1.671  0.0017 -0.4448  0.9308
  606MOL0     C79894   9.845   8.598   1.789 -0.2241  0.1793 -0.8048
  606MOL0     O79895   9.969   8.540   1.828 -0.0655 -0.1240  0.2829
  606MOL0     C79896  10.045   8.489   1.719  0.6001 -1.1765  0.6914
  606MOL0     C79897  10.192   8.457   1.759 -0.1128  0.8279  0.3862
  606MOL0     C79898  10.278   8.429   1.634  0.0893 -0.0289  0.5628
  606MOL0     C79899  10.419   8.366   1.656 -0.1327  1.0982  0.4446
  606MOL0     C79900  10.415   8.218   1.642 -0.4785 -0.7220  0.2498
  606MOL0     C79901  10.552   8.149   1.678  0.2766  1.0367 -0.0531
  606MOL0     C79902  10.659   8.178   1.583 -0.3761 -0.1044  0.7543
  606MOL0     C79903  10.780   8.076   1.586 -0.6674 -0.3890 -0.2777
  606MOL0    Cl79904  10.709   7.910   1.530 -0.0743 -0.0326  0.4170
  606MOL0     C79905   9.785   8.670   1.886  0.2071  0.2119  0.3469
  606MOL0     C79906   9.650   8.720   1.875 -0.4015  0.6229 -0.2479
  606MOL0     O79907   9.369   8.616   1.586 -0.1647 -0.4010 -0.3609
  606MOL0     C79908   9.110   8.737   1.623 -0.3194 -0.4394  0.2507
  606MOL0     C79909   8.979   8.792   1.646 -0.4443 -0.9409  0.5492
  606MOL0     N79910   8.359   8.815   1.781 -0.1832 -0.2946 -0.0536
  606MOL0     N79911   8.240   8.769   1.767  0.4886 -0.2672 -0.2360
  606MOL0     C79912   7.210   8.219   1.856 -0.0562  0.3360  0.6384
  606MOL0     C79913   7.182   8.117   1.951  0.1249  0.3332 -0.2857
  606MOL0     C79914   7.183   7.709   2.132  0.0971 -0.9584  0.3337
  606MOL0     C79915   7.306   7.682   2.200  0.5500  0.7429  0.8236
  606MOL0     C79916   7.330   7.574   2.283  0.4659  0.0144  1.0194
  606MOL0     C79917   7.234   7.468   2.281 -0.7262  0.5954  0.4212
  606MOL0     O79918   7.245   7.347   2.355  1.1449  0.2121  0.6240
  606MOL0     C79919   7.369   7.279   2.369  0.2608  0.2953  0.5563
  606MOL0     C79920   7.367   7.246   2.518 -0.1902  0.8214  0.2423
  606MOL0     C79921   7.466   7.138   2.558  0.0758  0.7781 -0.8014
  606MOL0     C79922   7.459   7.118   2.715  0.0914 -0.4207  0.0983
  606MOL0     C79923   7.532   7.008   2.767 -0.3620  0.0879 -0.0050
  606MOL0     C79924   7.599   6.915   2.811  0.3412 -0.0123 -1.0924
  606MOL0     C79925   7.118   7.486   2.206  0.2924  0.0509 -0.6626
  606MOL0     C79926   7.091   7.603   2.123 -0.7736  1.0826 -0.1211
  606MOL0     H79927   7.493   8.004   1.991 -1.3853 -2.2875 -1.4479
  606MOL0     H79928   7.543   8.199   1.837 -0.8479  2.9796 -1.0777
  606MOL0     H79929   7.345   8.490   1.882 -1.2585  0.3280  1.2308
  606MOL0     H79930   7.205   8.487   1.763  0.0288 -1.8909 -6.5607
  606MOL0     H79931   7.351   8.688   1.752  0.1732  0.2745  0.2477
  606MOL0     H79932   7.365   8.619   1.598 -1.6936  2.5686  1.4486
  606MOL0     H79933   7.563   8.484   1.698 -2.3407 -0.4114 -0.2959
  606MOL0     H79934   7.563   8.591   1.824  0.8572 -2.6635 -0.4371
  606MOL0     H79935   7.625   8.639   1.532 -1.5187  0.3957  0.2288
  606MOL0     H79936   7.560   8.772   1.638 -0.3481 -0.6036  1.5610
  606MOL0     H79937   7.805   8.606   1.721  2.7147  1.7889  1.0618
  606MOL0     H79938   7.734   8.746   1.785 -3.9205 -0.8486 -1.0875
  606MOL0     H79939   7.793   8.811   1.511 -3.1585 -1.4588  0.9492
  606MOL0     H79940   7.919   8.702   1.552  1.1808  0.8533 -0.5599
  606MOL0     H79941   8.000   8.927   1.592  0.8053  2.4024  1.7968
  606MOL0     H79942   7.852   8.971   1.683  0.9109  1.5883  0.3609
  606MOL0     H79943   7.998   8.733   1.784  0.7843  0.3806  2.0288
  606MOL0     H79944   7.964   8.883   1.880 -2.9843 -0.7830 -0.5330
  606MOL0     H79945   8.174   9.075   1.857  1.8208  1.4916 -1.7101
  606MOL0     H79946   8.427   9.023   1.972  0.5732 -0.8068 -0.0458
  606MOL0     H79947   8.419   9.144   1.829  0.7091 -0.0826 -3.1735
  606MOL0     H79948   8.596   8.984   1.726  2.4309  0.0880  0.1618
  606MOL0     H79949   8.604   8.899   1.875 -0.8941 -1.7742 -2.7741
  606MOL0     H79950   8.687   9.173   1.790  1.4650  0.9748  0.6055
  606MOL0     H79951   8.656   9.144   1.962  1.2970 -0.4022  0.6894
  606MOL0     H79952   8.820   8.933   1.942  3.5109 -2.4595 -2.5310
  606MOL0     H79953   8.896   9.084   1.920 -0.8595 -1.3618  2.2143
  606MOL0     H79954   9.079   9.038   1.846 -3.2864 -0.5791  0.2386
  606MOL0     H79955   9.309   8.925   1.824  2.3080  3.1570 -4.9108
  606MOL0     H79956   9.604   8.636   1.549  2.6599  0.4572 -0.5691
  606MOL0     H79957   9.810   8.519   1.593  1.1241 -0.0337  1.1232
  606MOL0     H79958  10.048   8.565   1.640 -6.0854  2.0890  2.9104
  606MOL0     H79959   9.995   8.396   1.688  0.7186 -1.1390  0.3817
  606MOL0     H79960  10.193   8.366   1.820 -0.0574  1.3787  1.2305
  606MOL0     H79961  10.239   8.541   1.811  1.3935  0.4982 -0.4015
  606MOL0     H79962  10.288   8.520   1.576  1.8883  0.2692  1.2696
  606MOL0     H79963  10.214   8.366   1.570  0.9434 -1.9155  1.4683
  606MOL0     H79964  10.477   8.404   1.571  1.8309  0.0847  1.2839
  606MOL0     H79965  10.457   8.404   1.751 -1.0612  2.0215  0.4666
  606MOL0     H79966  10.374   8.190   1.544 -0.9369 -1.5209  0.6591
  606MOL0     H79967  10.352   8.181   1.724 -0.0991  1.6728  1.7241
  606MOL0     H79968  10.540   8.040   1.674 -0.3504  1.1476 -2.6129
  606MOL0     H79969  10.585   8.191   1.774 -0.3086  2.4496 -0.4374
  606MOL0     H79970  10.625   8.169   1.479  1.1121 -0.3658  0.2654
  606MOL0     H79971  10.693   8.281   1.598 -0.9829  0.3001 -0.4387
  606MOL0     H79972  10.829   8.080   1.684 -0.2257  0.9915 -0.5317
  606MOL0     H79973  10.855   8.100   1.510 -0.3635 -0.5659 -0.0379
  606MOL0     H79974   9.837   8.695   1.978 -0.3546  1.3061  0.3874
  606MOL0     H79975   9.611   8.773   1.961  1.0266 -0.1183  0.8871
  606MOL0     H79976   9.105   8.643   1.569 -3.2968 -0.7235  0.8681
  606MOL0     H79977   8.891   8.736   1.618 -0.0354 -0.9217 -0.8449
  606MOL0     H79978   7.124   8.269   1.814 -0.5892 -2.1681 -1.5062
  606MOL0     H79979   7.080   8.087   1.970 -0.3570 -0.4268 -3.4959
  606MOL0     H79980   7.385   7.755   2.204  0.7998  0.7104 -1.8664
  606MOL0     H79981   7.426   7.569   2.334  1.9834 -1.3999 -1.7271
  606MOL0     H79982   7.458   7.340   2.352 -0.0201  1.5641  3.1253
  606MOL0     H79983   7.372   7.193   2.301 -0.4857  0.2629  0.5546
  606MOL0     H79984   7.380   7.335   2.581 -0.1158  1.9709 -1.3232
  606MOL0     H79985   7.265   7.211   2.536 -1.5596  4.3916  0.2504
  606MOL0     H79986   7.565   7.168   2.520 -0.5951  0.8701 -2.5540
  606MOL0     H79987   7.455   7.048   2.498  1.9791 -1.4446  1.9116
  606MOL0     H79988   7.506   7.206   2.759  0.6527 -1.9038  2.5830
  606MOL0     H79989   7.358   7.114   2.758  0.8417 -0.3663  1.9520
  606MOL0     H79990   7.675   6.845   2.839 -1.9956 -1.5556  2.1410
  606MOL0     H79991   7.038   7.412   2.218  0.1262  0.6161  3.0065
  606MOL0     H79992   7.007   7.608   2.054 -0.3123 -2.9198 -1.2359
  607MOL0     O79993   8.834   4.909   5.699 -0.0824 -0.2061  0.0819
  607MOL0     C79994   8.734   4.896   5.639 -0.3068 -0.2373 -0.3843
  607MOL0     O79995   8.686   4.971   5.546  0.1746  0.0500  0.3589
  607MOL0     C79996   8.759   5.065   5.479 -0.0153 -1.5333  0.2157
  607MOL0     C79997   8.899   5.084   5.479 -0.3047 -0.2157 -0.0591
  607MOL0     C79998   8.957   5.176   5.387  0.2340  0.1503 -0.2546
  607MOL0     C79999   8.873   5.246   5.299 -0.5475  0.2541  0.4485
  607MOL0     O80000   8.909   5.333   5.198 -0.2674  0.3111 -0.0898
  607MOL0     C80001   9.049   5.375   5.190  0.1068  0.3511  0.4106
  607MOL0     C80002   9.072   5.495   5.281 -1.2905 -0.3140 -0.1021
  607MOL0     C80003   9.061   5.635   5.230 -1.3606  0.4897 -0.3902
  607MOL0     C80004   9.089   5.737   5.331 -0.0303  0.0544  0.1959
  607MOL0     C80005   9.094   5.868   5.253 -0.0580 -0.3497 -0.6310
  607MOL0     C80006   9.088   5.995   5.346 -0.2448  1.0574 -0.0546
  607MOL0     C80007   8.955   5.992   5.426 -0.4571  0.5181  0.2691
  607MOL0     C80008   8.905   6.116   5.483 -0.1237  0.5891 -0.0804
  607MOL0     N80009   8.988   6.198   5.570 -0.1805  0.6773 -0.4816
  607MOL0     C80010   9.075   6.304   5.545  0.5794  0.2971 -0.4668
  607MOL0     C80011   9.151   6.320   5.661  1.3693 -0.1458  0.1592
  607MOL0     C80012   9.261   6.417   5.677  0.4725 -0.8198  0.1097
  607MOL0     C80013   9.237   6.565   5.658  0.8782  0.1115  0.2371
  607MOL0     C80014   9.371   6.641   5.644 -0.7198  0.6726  0.5919
  607MOL0     C80015   9.360   6.783   5.594  0.3626  0.8012 -0.4209
  607MOL0     O80016   9.270   6.858   5.683 -0.7021 -0.3829 -0.3217
  607MOL0     C80017   9.244   6.990   5.662 -0.0393  0.4151  0.3226
  607MOL0     C80018   9.336   7.076   5.602  0.0106 -0.3800  0.1763
  607MOL0     C80019   9.305   7.213   5.595 -0.1232 -0.6401  0.0083
  607MOL0     C80020   9.182   7.260   5.652 -0.4846  0.7531 -0.6586
  607MOL0     C80021   9.144   7.403   5.632 -0.1558  0.2030  0.0143
  607MOL0     O80022   9.245   7.489   5.598 -0.3263  0.6124  0.0093
  607MOL0     C80023   9.235   7.624   5.619 -0.3727 -0.4659 -0.2038
  607MOL0     C80024   9.359   7.682   5.639 -0.4938 -0.3414  0.9590
  607MOL0     C80025   9.380   7.819   5.669  1.1913 -0.3590  0.2792
  607MOL0     C80026   9.270   7.905   5.665  0.6356  0.1149 -0.3547
  607MOL0     O80027   9.274   8.047   5.682 -0.6832  0.6165  0.2520
  607MOL0     C80028   9.398   8.113   5.720  1.4001 -0.0277 -0.5286
  607MOL0     C80029   9.414   8.253   5.659  0.1771 -0.2058  0.2910
  607MOL0     C80030   9.560   8.280   5.635 -0.4974 -0.1829  0.7132
  607MOL0     C80031   9.603   8.241   5.493  0.2332  0.1438  0.8066
  607MOL0     C80032   9.558   8.349   5.390  0.2649  0.2676 -0.1820
  607MOL0     C80033   9.672   8.453   5.394  0.4146 -1.4431  1.2636
  607MOL0     C80034   9.732   8.499   5.258  0.1955 -0.1487  0.1334
  607MOL0     C80035   9.637   8.598   5.186  0.1708  0.6701  0.2045
  607MOL0    Cl80036   9.697   8.682   5.052  0.1020  0.4041 -0.1513
  607MOL0     C80037   9.141   7.851   5.622 -0.6774 -0.2642  0.0215
  607MOL0     C80038   9.123   7.708   5.610 -0.3941  0.5443  0.6649
  607MOL0     O80039   9.034   7.434   5.677 -0.1063 -0.1430 -0.3237
  607MOL0     C80040   9.088   7.174   5.712 -0.0425 -0.4022 -0.9955
  607MOL0     C80041   9.123   7.036   5.704 -0.0851  0.5960 -0.5155
  607MOL0     N80042   9.107   6.227   5.753  0.0507  0.0592  0.8446
  607MOL0     N80043   9.002   6.162   5.700 -1.1068 -0.2903  0.3804
  607MOL0     C80044   8.733   5.229   5.307  0.3306 -0.1851  0.4929
  607MOL0     C80045   8.673   5.137   5.390  0.5268  0.2231 -0.4121
  607MOL0     C80046   8.634   4.794   5.689  0.6992 -0.2816 -0.0297
  607MOL0     C80047   8.666   4.700   5.785 -0.5010  0.5814  0.3414
  607MOL0     C80048   8.576   4.610   5.834  0.6541 -0.8569  0.2480
  607MOL0     C80049   8.440   4.623   5.788  1.0343  0.4961 -0.0779
  607MOL0     O80050   8.336   4.548   5.837  0.0849  0.6240  0.2779
  607MOL0     C80051   8.348   4.488   5.966 -0.3421  0.4873 -0.7323
  607MOL0     C80052   8.233   4.416   6.029  0.3602  0.1713 -0.0192
  607MOL0     C80053   8.221   4.266   5.993  0.4249 -0.4021  0.1023
  607MOL0     C80054   8.072   4.232   5.996 -0.1474 -0.3563 -0.4285
  607MOL0     C80055   8.016   4.215   6.125 -0.3933  0.8021 -0.3587
  607MOL0     C80056   7.952   4.208   6.229 -0.4488 -0.0825  0.1503
  607MOL0     C80057   8.413   4.720   5.698 -0.1805  0.4370  0.0292
  607MOL0     C80058   8.511   4.793   5.642  0.7918  0.7063 -0.5217
  607MOL0     H80059   8.958   5.008   5.529 -2.3253 -2.8606 -1.4779
  607MOL0     H80060   9.064   5.183   5.372  0.1210  0.7217 -0.8426
  607MOL0     H80061   9.055   5.404   5.084  1.9893 -0.5559  0.2380
  607MOL0     H80062   9.121   5.295   5.205 -1.0626 -0.1978  3.7914
  607MOL0     H80063   9.174   5.484   5.321 -0.7006  1.3611 -1.0839
  607MOL0     H80064   9.005   5.481   5.366 -0.2548  0.2348  0.8359
  607MOL0     H80065   8.962   5.636   5.183 -1.5533  3.3783 -0.0486
  607MOL0     H80066   9.140   5.633   5.154 -1.8442 -2.5802 -0.9391
  607MOL0     H80067   9.007   5.719   5.402  0.7185 -1.1162  0.8137
  607MOL0     H80068   9.185   5.722   5.381  0.9524  2.4828 -0.8246
  607MOL0     H80069   9.015   5.875   5.177  1.2826  0.6942 -1.9848
  607MOL0     H80070   9.187   5.868   5.196  0.3328  3.8051 -0.2714
  607MOL0     H80071   9.095   6.083   5.281  1.2458 -0.5267 -2.1916
  607MOL0     H80072   9.173   5.979   5.414 -1.1673 -0.1623  0.8698
  607MOL0     H80073   8.880   5.957   5.355  0.2833 -1.0720  0.2350
  607MOL0     H80074   8.960   5.922   5.510  0.5842 -0.4312 -0.5555
  607MOL0     H80075   8.808   6.098   5.529  1.0101 -1.9644  1.5710
  607MOL0     H80076   8.870   6.184   5.405  0.0063 -0.8167 -1.4194
  607MOL0     H80077   9.103   6.339   5.446  4.3538 -0.9140 -0.0044
  607MOL0     H80078   9.344   6.381   5.614  1.0059 -1.0862  0.9382
  607MOL0     H80079   9.292   6.391   5.779  0.5247 -3.0031 -0.3984
  607MOL0     H80080   9.172   6.597   5.740  0.5250  0.0983 -0.0295
  607MOL0     H80081   9.184   6.569   5.562  1.6388 -5.1841 -0.7216
  607MOL0     H80082   9.421   6.643   5.741  1.8785 -0.1442 -0.6494
  607MOL0     H80083   9.434   6.573   5.587 -2.8931 -0.1905 -0.9134
  607MOL0     H80084   9.318   6.785   5.493 -5.0324  3.8867  1.4607
  607MOL0     H80085   9.451   6.843   5.603 -0.5417  2.3929 -1.4631
  607MOL0     H80086   9.426   7.046   5.549 -0.9856 -0.0168 -1.8122
  607MOL0     H80087   9.387   7.279   5.568 -1.3361  0.0750 -2.1376
  607MOL0     H80088   9.437   7.606   5.646 -0.8931 -0.7467  1.0975
  607MOL0     H80089   9.483   7.853   5.680  2.2116 -2.7727 -1.1695
  607MOL0     H80090   9.480   8.048   5.688  0.1016 -1.4457 -1.0985
  607MOL0     H80091   9.403   8.122   5.829 -2.6965 -4.1829  0.3817
  607MOL0     H80092   9.376   8.331   5.727 -0.9275  1.7833 -2.4153
  607MOL0     H80093   9.360   8.267   5.565 -2.0478  3.7611  1.8957
  607MOL0     H80094   9.624   8.225   5.705 -0.6264  0.1820  1.1199
  607MOL0     H80095   9.581   8.385   5.655 -5.4129  1.4186 -1.2155
  607MOL0     H80096   9.711   8.226   5.495  0.3508 -0.4198 -3.0676
  607MOL0     H80097   9.570   8.143   5.456  2.3621 -0.0786 -0.6514
  607MOL0     H80098   9.462   8.397   5.413  1.2059  1.0929  2.4209
  607MOL0     H80099   9.552   8.316   5.286 -0.2509 -3.5408  0.9138
  607MOL0     H80100   9.760   8.426   5.453  1.5618  0.1138  0.3387
  607MOL0     H80101   9.645   8.543   5.450  0.1685 -0.6628 -0.0719
  607MOL0     H80102   9.827   8.543   5.291  2.2403 -2.3299 -2.3894
  607MOL0     H80103   9.764   8.419   5.190  0.5640 -2.7953  3.1745
  607MOL0     H80104   9.616   8.673   5.264 -0.7414 -1.3552  2.0269
  607MOL0     H80105   9.549   8.542   5.154  1.2819 -3.0202  2.8528
  607MOL0     H80106   9.064   7.927   5.621  0.4482  0.9616  1.5248
  607MOL0     H80107   9.024   7.669   5.587 -0.6114  0.2921  1.9572
  607MOL0     H80108   8.999   7.210   5.761  1.8787  1.8081  1.1544
  607MOL0     H80109   9.062   6.964   5.758  2.2160  0.0295  1.5042
  607MOL0     H80110   8.663   5.293   5.254  0.9850  0.2165  0.0942
  607MOL0     H80111   8.565   5.124   5.394  0.5167 -0.8349 -2.6526
  607MOL0     H80112   8.763   4.696   5.834 -0.0397  4.4853  0.0408
  607MOL0     H80113   8.605   4.528   5.899  0.7288 -1.7880 -0.9141
  607MOL0     H80114   8.379   4.559   6.042 -0.7157 -1.9915  1.9033
  607MOL0     H80115   8.427   4.412   5.969 -1.9011 -1.1892  2.5573
  607MOL0     H80116   8.250   4.431   6.136 -1.9608  1.8175  0.1909
  607MOL0     H80117   8.143   4.471   6.001  2.6963  3.7102 -1.1715
  607MOL0     H80118   8.288   4.203   6.051 -1.7995 -0.3351  2.9595
  607MOL0     H80119   8.247   4.256   5.887 -2.6299 -0.0019 -0.8116
  607MOL0     H80120   8.010   4.305   5.943  0.4216 -2.0691 -3.7201
  607MOL0     H80121   8.061   4.137   5.943  2.6928 -1.2298  0.3936
  607MOL0     H80122   7.924   4.213   6.332  2.6745  1.0638  1.0733
  607MOL0     H80123   8.312   4.750   5.670 -0.1336  0.0510 -0.5802
  607MOL0     H80124   8.493   4.874   5.571  0.4281 -0.9844 -2.4606
  608MOL0     O80125  10.464   2.275   3.161  0.0989  0.8751  0.2066
  608MOL0     C80126  10.431   2.163   3.206  1.4041  1.0034  0.3522
  608MOL0     O80127  10.375   2.057   3.139  0.1775 -0.3181 -0.7913
  608MOL0     C80128  10.367   2.067   2.996 -0.8722  1.0619  0.4182
  608MOL0     C80129  10.440   1.963   2.924  0.3244  0.2409 -0.3766
  608MOL0     C80130  10.454   1.955   2.786 -0.0820  0.1822  1.5944
  608MOL0     C80131  10.392   2.054   2.716  0.2464 -0.2079 -0.0796
  608MOL0     O80132  10.389   2.070   2.579 -0.0643  0.0250 -0.3559
  608MOL0     C80133  10.518   2.088   2.513 -0.6368  0.8200  0.6286
  608MOL0     C80134  10.561   2.244   2.539 -0.5986  0.1437  0.4005
  608MOL0     C80135  10.692   2.311   2.495  0.0273  0.2152 -0.4487
  608MOL0     C80136  10.797   2.204   2.519 -1.3038 -0.0363 -0.0743
  608MOL0     C80137  10.937   2.275   2.506  0.7182  0.2128  0.0953
  608MOL0     C80138  11.040   2.158   2.501 -0.0725  0.4263  0.0803
  608MOL0     C80139  11.176   2.213   2.503 -0.9455  0.5588  0.2811
  608MOL0     C80140  11.217   2.303   2.621  0.4561  0.4484  0.1156
  608MOL0     N80141  11.369   2.310   2.619 -0.5028 -0.6762  0.4763
  608MOL0     C80142  11.432   2.414   2.553  0.2161 -1.0474 -0.8985
  608MOL0     C80143  11.566   2.407   2.595 -0.4160 -0.3319  0.3558
  608MOL0     C80144  11.663   2.513   2.547  0.8331 -0.1833 -0.6247
  608MOL0     C80145  11.740   2.565   2.663  0.7298 -0.1383  1.2066
  608MOL0     C80146  11.644   2.650   2.757 -0.0612 -0.0133 -0.0982
  608MOL0     C80147  11.715   2.683   2.887 -0.3997  0.4529  0.6082
  608MOL0     O80148  11.631   2.766   2.973 -0.3023  0.6202  0.9215
  608MOL0     C80149  11.692   2.836   3.070 -0.8416  0.2557 -0.3775
  608MOL0     C80150  11.819   2.800   3.127  0.7563  0.0774 -0.6982
  608MOL0     C80151  11.861   2.863   3.244 -0.2893  0.2486  0.1458
  608MOL0     C80152  11.806   2.972   3.295  0.6360 -0.0737 -0.5294
  608MOL0     C80153  11.866   3.045   3.407  0.1279 -0.4711 -0.0440
  608MOL0     O80154  11.793   3.146   3.469  0.5938  0.5201  0.5504
  608MOL0     C80155  11.852   3.216   3.571  0.2614 -0.3542 -0.0210
  608MOL0     C80156  11.807   3.180   3.696  1.0634 -0.2307 -0.4189
  608MOL0     C80157  11.865   3.254   3.811  0.0228 -0.5088  0.3596
  608MOL0     C80158  11.972   3.350   3.792  0.6741 -0.2234  1.1240
  608MOL0     O80159  12.017   3.418   3.900 -0.6861 -0.0029  0.3492
  608MOL0     C80160  12.162   3.405   3.919  0.9769  0.1136  0.0860
  608MOL0     C80161  12.199   3.520   4.017 -0.6842 -1.0455 -0.0129
  608MOL0     C80162  12.331   3.502   4.094  0.4456  0.0864  0.3124
  608MOL0     C80163  12.368   3.617   4.192 -0.8649 -0.6229 -0.3633
  608MOL0     C80164  12.509   3.599   4.255  0.2920 -0.0322 -0.6124
  608MOL0     C80165  12.562   3.737   4.314 -0.0292  0.8879  1.4003
  608MOL0     C80166  12.716   3.730   4.312  1.0531 -0.0880  0.1934
  608MOL0     C80167  12.780   3.839   4.399 -0.2459 -0.1861  0.9632
  608MOL0    Cl80168  12.730   3.818   4.559  0.2197 -0.0299  0.0537
  608MOL0     C80169  11.997   3.384   3.659 -0.6289  0.4542  0.5706
  608MOL0     C80170  11.946   3.317   3.554  0.6747  0.2918  0.5737
  608MOL0     O80171  11.988   3.037   3.413  0.8641  0.7246  0.5588
  608MOL0     C80172  11.679   3.017   3.237  0.2403  0.1696 -0.1405
  608MOL0     C80173  11.626   2.945   3.131  0.5583 -0.6423 -0.7377
  608MOL0     N80174  11.589   2.281   2.657  0.2001  0.3300 -0.1749
  608MOL0     N80175  11.464   2.237   2.683  0.2173  0.8513  0.2885
  608MOL0     C80176  10.320   2.156   2.779 -0.1852  0.0133 -0.8432
  608MOL0     C80177  10.307   2.165   2.915  0.0242  0.1587  0.1695
  608MOL0     C80178  10.470   2.138   3.349  0.2258  0.1370  0.5381
  608MOL0     C80179  10.434   2.007   3.410  0.4125 -0.3885  0.6599
  608MOL0     C80180  10.492   1.971   3.532  1.0054 -0.1087 -1.6679
  608MOL0     C80181  10.572   2.066   3.607  1.6603  0.3342 -0.6340
  608MOL0     O80182  10.636   2.043   3.729 -0.1556 -0.0368  0.4585
  608MOL0     C80183  10.579   2.109   3.836 -0.5071  0.7094 -0.3324
  608MOL0     C80184  10.672   2.149   3.949 -0.0640 -1.1140 -0.0737
  608MOL0     C80185  10.786   2.235   3.907  1.0238  0.7464  0.8515
  608MOL0     C80186  10.882   2.258   4.012  0.2108  0.8174  0.4627
  608MOL0     C80187  10.849   2.351   4.126 -0.1223  0.6471  0.6377
  608MOL0     C80188  10.840   2.427   4.214  0.3659 -0.1888  0.2299
  608MOL0     C80189  10.607   2.181   3.547  0.4905 -0.0111  0.4736
  608MOL0     C80190  10.566   2.211   3.413 -0.3025 -0.7457 -0.2050
  608MOL0     H80191  10.487   1.899   2.999  0.1650  1.8775  1.1758
  608MOL0     H80192  10.499   1.876   2.727 -0.1486  0.9886  0.4401
  608MOL0     H80193  10.525   2.068   2.406  0.5503  2.3328  0.4052
  608MOL0     H80194  10.583   2.012   2.558 -2.4059 -0.7985  0.5776
  608MOL0     H80195  10.564   2.250   2.649  1.3869 -0.0156  0.3890
  608MOL0     H80196  10.471   2.299   2.512 -1.6091 -1.6362 -0.0080
  608MOL0     H80197  10.699   2.397   2.561 -1.6599  1.2671 -1.5550
  608MOL0     H80198  10.699   2.358   2.396  2.9504 -2.7977 -1.8868
  608MOL0     H80199  10.791   2.154   2.616 -2.8541 -1.0108 -0.6191
  608MOL0     H80200  10.791   2.126   2.443  1.3958 -0.4720  0.0579
  608MOL0     H80201  10.957   2.345   2.588 -0.6809 -2.7513  3.2114
  608MOL0     H80202  10.940   2.329   2.411  3.1495  4.5165  2.3465
  608MOL0     H80203  11.016   2.093   2.416  1.8882 -0.7388  0.3560
  608MOL0     H80204  11.031   2.094   2.589  0.0817 -2.0041 -1.5651
  608MOL0     H80205  11.241   2.126   2.491 -1.9589 -0.2563  0.5535
  608MOL0     H80206  11.189   2.277   2.415 -0.6262 -0.4358 -0.4192
  608MOL0     H80207  11.197   2.248   2.714  0.4844  2.9299  1.6713
  608MOL0     H80208  11.169   2.401   2.626  1.8636  1.0895  1.8667
  608MOL0     H80209  11.389   2.497   2.499 -0.9257 -1.9865 -1.4585
  608MOL0     H80210  11.601   2.600   2.523 -0.9644 -0.7824  1.5669
  608MOL0     H80211  11.726   2.480   2.463  0.6080 -1.2859 -0.3787
  608MOL0     H80212  11.806   2.641   2.620 -0.6284  1.0742  1.2250
  608MOL0     H80213  11.812   2.490   2.699  1.3079  1.0074  2.5537
  608MOL0     H80214  11.611   2.742   2.708  2.1881  1.3109  0.7337
  608MOL0     H80215  11.560   2.590   2.794  0.9274 -2.1485 -1.1054
  608MOL0     H80216  11.799   2.742   2.851 -0.2567 -0.0758  0.0521
  608MOL0     H80217  11.746   2.588   2.932  0.8094 -0.6805 -2.3453
  608MOL0     H80218  11.872   2.706   3.114  2.0370  0.1450  2.9615
  608MOL0     H80219  11.948   2.816   3.288  0.8164  1.7905 -0.3249
  608MOL0     H80220  11.739   3.096   3.703 -1.2437  1.3635 -2.3328
  608MOL0     H80221  11.820   3.242   3.909 -0.8574 -0.7258 -0.0637
  608MOL0     H80222  12.217   3.410   3.825 -2.1722 -2.6010 -2.1125
  608MOL0     H80223  12.178   3.297   3.933  0.5421 -0.4502 -3.0208
  608MOL0     H80224  12.111   3.523   4.083 -2.0338 -1.3412 -1.7122
  608MOL0     H80225  12.201   3.618   3.969  2.4844 -0.8616  0.2966
  608MOL0     H80226  12.408   3.498   4.016 -0.0069  1.2471 -0.2139
  608MOL0     H80227  12.334   3.402   4.140 -1.5203 -0.3436 -0.3762
  608MOL0     H80228  12.375   3.711   4.135 -2.2173 -0.0807  0.3396
  608MOL0     H80229  12.288   3.635   4.264 -2.1019 -0.2831 -1.7674
  608MOL0     H80230  12.575   3.555   4.179 -1.2940 -0.6886 -1.6764
  608MOL0     H80231  12.500   3.529   4.338  2.6486 -1.8250 -1.7645
  608MOL0     H80232  12.508   3.756   4.407  0.3459  0.8773  1.6229
  608MOL0     H80233  12.526   3.821   4.255 -0.6561 -0.5847 -0.4134
  608MOL0     H80234  12.747   3.633   4.352  0.7597  1.5010  4.9018
  608MOL0     H80235  12.746   3.738   4.207  2.0597  1.7717  0.5758
  608MOL0     H80236  12.745   3.933   4.354 -1.4449 -1.4476 -0.9192
  608MOL0     H80237  12.889   3.845   4.390 -0.3397  1.1093  0.5477
  608MOL0     H80238  12.071   3.462   3.642  0.5792 -1.0012 -1.1735
  608MOL0     H80239  11.979   3.353   3.457 -2.2464  1.6308 -0.0524
  608MOL0     H80240  11.626   3.103   3.277  0.8383  1.9495 -2.8872
  608MOL0     H80241  11.529   2.975   3.093  0.3210  1.0235  1.0163
  608MOL0     H80242  10.282   2.231   2.710  0.8552 -2.2529 -4.1125
  608MOL0     H80243  10.254   2.240   2.973 -1.6643 -0.9874  0.2126
  608MOL0     H80244  10.353   1.952   3.364 -1.2024  0.0291  2.8641
  608MOL0     H80245  10.457   1.883   3.584 -0.8764  2.3242  1.4880
  608MOL0     H80246  10.488   2.056   3.865  0.2476 -1.3761 -1.5429
  608MOL0     H80247  10.530   2.205   3.814  0.4356  1.3346  0.2044
  608MOL0     H80248  10.614   2.217   4.012  0.6569 -1.7292  1.3005
  608MOL0     H80249  10.704   2.065   4.011 -2.1993 -2.6832 -0.9815
  608MOL0     H80250  10.746   2.332   3.877 -1.2587  0.8765  3.7441
  608MOL0     H80251  10.846   2.192   3.827  0.3893  0.2732  0.6169
  608MOL0     H80252  10.916   2.165   4.059  1.0200  1.8142  1.9034
  608MOL0     H80253  10.969   2.301   3.961  1.3372 -0.9306  0.8372
  608MOL0     H80254  10.836   2.490   4.300 -4.0191 -0.7553  0.6993
  608MOL0     H80255  10.681   2.242   3.598 -0.9222  1.6137  0.6648
  608MOL0     H80256  10.600   2.299   3.358 -4.5203  0.2190 -1.6418
  609MOL0     O80257   5.619   9.464   5.474  0.5850  0.0609  0.9977
  609MOL0     C80258   5.593   9.451   5.596  0.0045  0.0104  0.8047
  609MOL0     O80259   5.619   9.344   5.670 -0.0320  0.6598  0.1319
  609MOL0     C80260   5.690   9.245   5.609 -0.9445 -0.4326  0.1217
  609MOL0     C80261   5.623   9.124   5.584  0.8681 -0.8296 -0.2110
  609MOL0     C80262   5.688   9.014   5.521  1.0098 -0.5952  0.9635
  609MOL0     C80263   5.825   9.013   5.502  0.6703 -0.2401  0.4451
  609MOL0     O80264   5.901   8.904   5.469  0.0050 -0.0702 -0.3749
  609MOL0     C80265   5.841   8.776   5.469 -0.3882  0.2508  0.2671
  609MOL0     C80266   5.958   8.682   5.485  0.9661 -0.0946  0.8006
  609MOL0     C80267   6.060   8.676   5.372 -0.6513  0.5465 -0.1329
  609MOL0     C80268   6.007   8.641   5.229 -0.9703 -0.3198 -0.0223
  609MOL0     C80269   6.100   8.693   5.112  0.5026  0.6623 -0.2577
  609MOL0     C80270   6.080   8.842   5.084  0.9654  0.2576 -0.1693
  609MOL0     C80271   6.213   8.876   5.018  1.3259  0.2517 -0.2988
  609MOL0     C80272   6.197   9.014   4.941  0.3305  0.7678  0.5380
  609MOL0     N80273   6.307   9.042   4.855  0.3067  1.2504  0.4420
  609MOL0     C80274   6.358   9.163   4.831  0.3855 -0.2532 -1.1069
  609MOL0     C80275   6.477   9.151   4.773  0.3095 -0.2526  0.7080
  609MOL0     C80276   6.576   9.254   4.738 -0.4291 -0.3165  0.9451
  609MOL0     C80277   6.638   9.239   4.599  0.0146  0.3391  0.3632
  609MOL0     C80278   6.540   9.294   4.496  0.4786  0.3088 -0.6287
  609MOL0     C80279   6.553   9.225   4.358  0.3602  0.1907 -0.3529
  609MOL0     O80280   6.499   9.093   4.389 -0.4216 -0.6886 -0.4531
  609MOL0     C80281   6.365   9.058   4.364  0.6288  0.5564  0.9827
  609MOL0     C80282   6.305   9.088   4.236  0.5729  0.2972 -0.2008
  609MOL0     C80283   6.171   9.066   4.201 -0.2280 -0.3391 -0.4405
  609MOL0     C80284   6.091   8.991   4.291  0.1513 -0.2320  0.3819
  609MOL0     C80285   5.942   8.978   4.266 -0.0002 -0.4959  0.6893
  609MOL0     O80286   5.879   8.916   4.360  0.2382 -0.0922 -0.3580
  609MOL0     C80287   5.745   8.880   4.372 -0.7443  0.4099  0.6662
  609MOL0     C80288   5.685   8.866   4.498  0.5420  0.6724  0.4883
  609MOL0     C80289   5.565   8.798   4.508  0.6880 -0.5212 -0.3971
  609MOL0     C80290   5.489   8.753   4.394  0.1774  0.4442  0.2130
  609MOL0     O80291   5.368   8.688   4.402 -0.4072  0.4506  0.7783
  609MOL0     C80292   5.309   8.659   4.534 -0.0415 -0.4341  0.1224
  609MOL0     C80293   5.184   8.567   4.501  0.2978 -0.3661 -0.9590
  609MOL0     C80294   5.080   8.576   4.620 -0.3952  0.7435  0.1844
  609MOL0     C80295   4.979   8.453   4.616  0.0134  0.6210 -0.4062
  609MOL0     C80296   4.826   8.492   4.634 -0.0887 -0.0269  0.9664
  609MOL0     C80297   4.796   8.559   4.770 -0.8173  0.2656 -0.8994
  609MOL0     C80298   4.649   8.589   4.784 -0.5785  0.0805  0.0741
  609MOL0     C80299   4.601   8.659   4.905 -0.0039 -0.3822 -0.0094
  609MOL0    Cl80300   4.643   8.845   4.896  0.4297 -0.0076 -0.1519
  609MOL0     C80301   5.552   8.775   4.265 -0.1998 -0.2685  0.3524
  609MOL0     C80302   5.677   8.834   4.259 -0.3801  0.9177  0.3744
  609MOL0     O80303   5.893   9.036   4.171  0.1405  0.0011  0.3243
  609MOL0     C80304   6.151   8.945   4.410  0.1332 -0.1445  0.1199
  609MOL0     C80305   6.290   8.979   4.446  1.4850  0.5479  0.2518
  609MOL0     N80306   6.493   9.011   4.761 -0.2081 -1.2900 -0.7394
  609MOL0     N80307   6.394   8.947   4.802  0.0195 -0.2336  0.2057
  609MOL0     C80308   5.893   9.131   5.508 -0.6749 -0.6084  1.0389
  609MOL0     C80309   5.826   9.249   5.566  0.0636  0.5775  0.1554
  609MOL0     C80310   5.533   9.566   5.674 -0.4063  0.2045 -0.2490
  609MOL0     C80311   5.523   9.548   5.812  0.2925 -0.5282 -0.0931
  609MOL0     C80312   5.484   9.654   5.901 -0.0942  0.3653  0.1834
  609MOL0     C80313   5.468   9.778   5.852  0.2013  0.2064  0.0685
  609MOL0     O80314   5.426   9.887   5.919  0.2231  0.0318 -0.9248
  609MOL0     C80315   5.399   9.872   6.058 -0.0228  0.4478  0.0636
  609MOL0     C80316   5.377  10.005   6.127 -0.0150  0.1530  0.1308
  609MOL0     C80317   5.364   9.990   6.281  0.4675 -0.0466  1.2784
  609MOL0     C80318   5.506   9.976   6.347 -0.1812 -0.1565  0.1241
  609MOL0     C80319   5.504  10.002   6.494  0.1118 -0.5793  0.2425
  609MOL0     C80320   5.493  10.026   6.617 -0.3217 -0.3144 -0.0369
  609MOL0     C80321   5.472   9.797   5.713  0.0892  0.2582 -0.8066
  609MOL0     C80322   5.519   9.694   5.625  0.1955  0.2552  0.6240
  609MOL0     H80323   5.517   9.110   5.599  0.4986 -0.5000 -2.2678
  609MOL0     H80324   5.638   8.919   5.504 -2.3295  1.6190 -4.1098
  609MOL0     H80325   5.782   8.761   5.378 -0.2821 -3.1896  0.6369
  609MOL0     H80326   5.776   8.744   5.551  1.8458 -4.0285  0.6111
  609MOL0     H80327   5.906   8.587   5.499 -1.4295  1.0026  0.0300
  609MOL0     H80328   6.009   8.708   5.578 -1.8975 -1.3089  2.8592
  609MOL0     H80329   6.132   8.599   5.400 -0.0009  1.2419  0.1302
  609MOL0     H80330   6.123   8.766   5.376  2.1359 -1.3255  2.2683
  609MOL0     H80331   6.012   8.533   5.215  0.2980 -0.0818 -1.8574
  609MOL0     H80332   5.906   8.677   5.208  0.0771  1.9116 -1.7518
  609MOL0     H80333   6.059   8.632   5.031 -0.8015 -3.8754  3.3367
  609MOL0     H80334   6.202   8.659   5.129  0.0126 -0.5504  0.3898
  609MOL0     H80335   6.071   8.899   5.177  4.3770 -0.3285  0.6534
  609MOL0     H80336   5.995   8.865   5.019 -0.1967 -0.3582  1.0843
  609MOL0     H80337   6.291   8.873   5.094 -0.1996 -2.2606  1.2798
  609MOL0     H80338   6.235   8.798   4.945 -0.4030  0.8012 -1.4818
  609MOL0     H80339   6.171   9.091   5.014 -0.5745  1.6158 -0.6562
  609MOL0     H80340   6.103   9.006   4.887  0.0120  4.2810  0.3744
  609MOL0     H80341   6.322   9.258   4.868  0.0218 -0.7008 -0.2819
  609MOL0     H80342   6.656   9.251   4.813 -0.3596  1.1530  0.9565
  609MOL0     H80343   6.532   9.354   4.742  1.8586  0.8952 -1.1862
  609MOL0     H80344   6.641   9.132   4.576 -0.9577  0.8197 -2.3168
  609MOL0     H80345   6.733   9.293   4.602 -1.5297  3.2583  0.3721
  609MOL0     H80346   6.442   9.288   4.545  1.8562 -2.7598  2.0669
  609MOL0     H80347   6.571   9.397   4.473  1.0004  0.2284 -0.3076
  609MOL0     H80348   6.654   9.224   4.317  1.3010 -0.6616  1.8034
  609MOL0     H80349   6.480   9.274   4.293 -0.0787  0.3067  0.2097
  609MOL0     H80350   6.367   9.144   4.167 -0.1983  0.1427 -1.0331
  609MOL0     H80351   6.119   9.114   4.119  0.6484  1.7273  0.1429
  609MOL0     H80352   5.739   8.905   4.583 -0.1240 -0.1962  1.3363
  609MOL0     H80353   5.529   8.800   4.610 -1.4967  0.3249 -1.1273
  609MOL0     H80354   5.276   8.754   4.578  1.8473  0.6161 -0.6008
  609MOL0     H80355   5.378   8.620   4.608  2.3610 -1.7824 -2.6364
  609MOL0     H80356   5.222   8.466   4.487  1.9481 -0.0658  0.9213
  609MOL0     H80357   5.126   8.608   4.418 -2.6061  0.7591  1.4480
  609MOL0     H80358   5.030   8.670   4.593  3.1424  2.8667  0.3880
  609MOL0     H80359   5.125   8.581   4.720  0.9533 -2.9715 -0.0999
  609MOL0     H80360   4.984   8.400   4.520  0.2193  0.8042 -0.4981
  609MOL0     H80361   5.000   8.381   4.695 -0.9640 -0.1910 -0.8626
  609MOL0     H80362   4.771   8.398   4.639  1.2867 -0.7968  2.5042
  609MOL0     H80363   4.803   8.554   4.546  0.0456  1.1638  1.7432
  609MOL0     H80364   4.853   8.651   4.783 -0.1346 -0.1581 -0.8385
  609MOL0     H80365   4.829   8.500   4.856 -2.1969  0.0652 -0.4740
  609MOL0     H80366   4.625   8.643   4.691  0.5526  2.5587  1.1224
  609MOL0     H80367   4.603   8.490   4.777  0.9062 -0.5417 -1.8780
  609MOL0     H80368   4.650   8.617   4.993  3.2393  4.8475  1.0781
  609MOL0     H80369   4.494   8.646   4.922  0.1747 -1.8083  0.1371
  609MOL0     H80370   5.491   8.754   4.178 -1.6729  0.1341  1.2517
  609MOL0     H80371   5.727   8.832   4.163 -0.9442  0.3405  0.0873
  609MOL0     H80372   6.097   8.877   4.475 -0.1664  0.8925  0.9926
  609MOL0     H80373   6.322   8.948   4.545  0.2512  0.8612  0.7738
  609MOL0     H80374   6.001   9.121   5.501 -0.5806  0.8727 -0.1558
  609MOL0     H80375   5.901   9.326   5.578  1.5161 -0.7270 -0.2214
  609MOL0     H80376   5.555   9.456   5.860 -1.0132 -0.6125  0.6536
  609MOL0     H80377   5.470   9.627   6.006 -1.7265  1.3285  0.2430
  609MOL0     H80378   5.477   9.817   6.112  2.8745  4.2310  0.0964
  609MOL0     H80379   5.306   9.814   6.067  0.1975 -0.5860 -3.1079
  609MOL0     H80380   5.460  10.073   6.106  1.0345 -0.4019  2.1661
  609MOL0     H80381   5.282  10.046   6.091  1.0984  0.9862 -2.0272
  609MOL0     H80382   5.306   9.907   6.323  2.2999 -1.3963  1.2839
  609MOL0     H80383   5.335  10.088   6.318  0.2169 -0.4593  2.1986
  609MOL0     H80384   5.547   9.875   6.336 -3.8842 -1.7945 -0.2138
  609MOL0     H80385   5.566  10.057   6.307 -0.6103  0.7304  1.2276
  609MOL0     H80386   5.490  10.042   6.723  2.3933 -0.1108  0.0602
  609MOL0     H80387   5.455   9.893   5.665 -1.1090  0.5743  0.2110
  609MOL0     H80388   5.506   9.706   5.518  2.6287  3.4319  0.5487
  610MOL0     O80389   8.167   2.693   7.727 -0.2931 -0.6623 -0.4844
  610MOL0     C80390   8.220   2.726   7.620  0.1948 -0.2610  0.7857
  610MOL0     O80391   8.250   2.634   7.514  0.8790  0.3962 -0.1150
  610MOL0     C80392   8.178   2.513   7.508 -0.2114 -0.4316 -0.0608
  610MOL0     C80393   8.115   2.485   7.387  0.5197  0.1128 -0.0302
  610MOL0     C80394   8.051   2.362   7.382 -0.0049  0.5180 -0.3657
  610MOL0     C80395   8.026   2.276   7.488  0.4320 -0.1444  0.0147
  610MOL0     O80396   7.952   2.157   7.487 -0.3998 -0.9341 -0.3405
  610MOL0     C80397   7.920   2.087   7.368  0.9711  0.3995 -0.9534
  610MOL0     C80398   8.051   2.022   7.323  0.3630  0.5738  0.4718
  610MOL0     C80399   8.035   2.000   7.172  0.2271 -0.0074  1.1500
  610MOL0     C80400   8.151   1.927   7.105 -0.2209 -0.6709 -0.4570
  610MOL0     C80401   8.138   1.944   6.953  0.1348 -0.7317  0.4078
  610MOL0     C80402   8.033   1.851   6.898  1.0759  0.0635 -0.0962
  610MOL0     C80403   8.033   1.848   6.744  0.4354  0.9642  0.3382
  610MOL0     C80404   7.932   1.744   6.695  0.0729 -0.1703  0.3071
  610MOL0     N80405   7.924   1.743   6.547  0.0330 -0.0286 -0.5459
  610MOL0     C80406   7.834   1.809   6.472  1.0660  0.3141  0.3046
  610MOL0     C80407   7.847   1.764   6.346 -0.4232  0.1914  0.3094
  610MOL0     C80408   7.786   1.817   6.223  1.1329  0.8335 -0.1964
  610MOL0     C80409   7.894   1.873   6.137 -0.0871 -0.2967 -0.5201
  610MOL0     C80410   7.842   1.946   6.024 -0.3164 -0.5779  1.0781
  610MOL0     C80411   7.957   1.981   5.935 -0.3013 -0.0726  0.5246
  610MOL0     O80412   7.917   2.015   5.800 -0.2606  0.2299  0.7353
  610MOL0     C80413   8.013   2.078   5.720 -0.4410 -0.0203  0.1432
  610MOL0     C80414   8.154   2.070   5.756  1.1775 -0.5519  0.3450
  610MOL0     C80415   8.244   2.133   5.671 -0.4844  0.0490  0.1414
  610MOL0     C80416   8.195   2.202   5.549 -0.3123  0.2685  0.8719
  610MOL0     C80417   8.292   2.272   5.459 -0.1728  0.4302 -0.4021
  610MOL0     O80418   8.425   2.281   5.504  0.1893  0.6667 -0.3143
  610MOL0     C80419   8.520   2.353   5.439  0.2047  0.6001 -0.0686
  610MOL0     C80420   8.550   2.348   5.303  0.3556 -0.4440 -0.3889
  610MOL0     C80421   8.677   2.407   5.266 -0.2611 -0.1752 -0.2600
  610MOL0     C80422   8.749   2.482   5.358  0.2208 -0.3884  1.0770
  610MOL0     O80423   8.859   2.554   5.324  0.1371  0.2804 -0.3698
  610MOL0     C80424   8.866   2.595   5.187  0.4749 -0.0765  0.9930
  610MOL0     C80425   8.947   2.716   5.167 -0.3334  0.0965  0.3672
  610MOL0     C80426   8.917   2.822   5.271 -0.7718 -0.8395 -0.6707
  610MOL0     C80427   8.999   2.953   5.243  0.6280  0.3031  1.0907
  610MOL0     C80428   8.994   3.042   5.365 -0.3270  0.2084 -0.3398
  610MOL0     C80429   9.044   3.188   5.335  0.2702  0.4923  1.3164
  610MOL0     C80430   9.019   3.269   5.463 -0.3219 -0.8601 -0.8708
  610MOL0     C80431   9.041   3.415   5.440  0.6585 -0.3966 -0.6824
  610MOL0    Cl80432   9.208   3.448   5.398 -0.1146 -0.1077 -0.0880
  610MOL0     C80433   8.721   2.466   5.491 -0.5607 -0.2527 -1.2030
  610MOL0     C80434   8.612   2.390   5.532  0.3302 -1.2018  0.5120
  610MOL0     O80435   8.247   2.318   5.356  0.0310  0.7428  0.0630
  610MOL0     C80436   8.056   2.198   5.514 -1.4786  0.4496 -0.2415
  610MOL0     C80437   7.973   2.145   5.602  0.3370 -0.0540  0.2605
  610MOL0     N80438   7.938   1.662   6.342 -0.7737 -0.0848 -0.6633
  610MOL0     N80439   7.985   1.654   6.463 -0.4426  0.0222 -0.2359
  610MOL0     C80440   8.094   2.308   7.605  0.3202 -0.2126  0.4125
  610MOL0     C80441   8.172   2.424   7.619 -0.1248  0.3395  0.6706
  610MOL0     C80442   8.298   2.852   7.627 -0.2547  0.2216  0.2536
  610MOL0     C80443   8.357   2.895   7.504 -1.4596 -0.5562 -0.0352
  610MOL0     C80444   8.431   3.012   7.497 -0.3401  0.2207  1.0483
  610MOL0     C80445   8.450   3.094   7.607  0.3142 -0.4997 -1.3977
  610MOL0     O80446   8.509   3.214   7.592  0.1346 -1.2527 -0.1193
  610MOL0     C80447   8.556   3.278   7.707 -0.6252 -0.2599  0.3142
  610MOL0     C80448   8.676   3.372   7.678 -0.4751 -0.6691  0.6913
  610MOL0     C80449   8.627   3.488   7.595  0.1599 -0.4432  0.4282
  610MOL0     C80450   8.754   3.577   7.573  0.0163  0.4639  0.1027
  610MOL0     C80451   8.817   3.625   7.700 -0.4381 -0.9016  0.4742
  610MOL0     C80452   8.841   3.672   7.804  0.1273 -0.8395 -0.8412
  610MOL0     C80453   8.390   3.056   7.725  0.3188  0.5594 -0.7944
  610MOL0     C80454   8.325   2.926   7.740 -0.8704 -0.4181  0.5996
  610MOL0     H80455   8.107   2.556   7.305  0.2023 -1.0687 -1.0405
  610MOL0     H80456   7.996   2.338   7.292  0.8936  0.2663 -0.8600
  610MOL0     H80457   7.869   2.150   7.295  2.2348 -0.3806 -2.5479
  610MOL0     H80458   7.855   2.010   7.412 -0.0386  3.5642  3.8632
  610MOL0     H80459   8.072   1.925   7.369  0.1242 -3.1626 -5.9435
  610MOL0     H80460   8.138   2.087   7.335  2.8430 -2.4689  0.2879
  610MOL0     H80461   8.023   2.093   7.115  1.8897 -1.4498 -1.7754
  610MOL0     H80462   7.951   1.933   7.151  0.9846  0.0134 -2.7748
  610MOL0     H80463   8.248   1.976   7.120 -0.7825 -0.0745  1.4836
  610MOL0     H80464   8.162   1.821   7.129  0.0396 -0.7409 -0.8737
  610MOL0     H80465   8.231   1.913   6.904  0.7745 -0.9737  1.7229
  610MOL0     H80466   8.113   2.043   6.914 -0.2223 -0.8087  0.4403
  610MOL0     H80467   7.941   1.900   6.931  0.2773  0.9176 -3.3057
  610MOL0     H80468   8.024   1.752   6.943  0.6498 -0.1185 -0.5831
  610MOL0     H80469   8.008   1.949   6.712 -0.7668  0.5337 -0.1728
  610MOL0     H80470   8.135   1.823   6.716  0.1345 -3.5168  2.2661
  610MOL0     H80471   7.834   1.760   6.741  0.8407  1.7254  1.3816
  610MOL0     H80472   7.962   1.643   6.723 -0.6228 -0.6451 -0.5894
  610MOL0     H80473   7.785   1.900   6.508 -0.0197 -0.1257 -0.0180
  610MOL0     H80474   7.717   1.896   6.256  0.4181 -0.0576  0.5075
  610MOL0     H80475   7.728   1.735   6.179  0.5906  1.5887 -0.9355
  610MOL0     H80476   7.943   1.782   6.101 -0.3162 -0.5783 -0.1223
  610MOL0     H80477   7.972   1.930   6.189 -0.5213  0.4777 -0.7149
  610MOL0     H80478   7.775   1.873   5.979  1.6884 -1.8636  0.0055
  610MOL0     H80479   7.774   2.024   6.057  1.8059  1.0505  1.8405
  610MOL0     H80480   8.027   1.898   5.922 -1.3969 -0.9033 -0.3384
  610MOL0     H80481   8.023   2.053   5.984  2.7974 -2.3544  0.0132
  610MOL0     H80482   8.192   2.012   5.840 -0.7968 -0.5492  1.2978
  610MOL0     H80483   8.351   2.127   5.691 -0.4164  0.0168 -0.2146
  610MOL0     H80484   8.488   2.285   5.240 -0.4261  0.8032 -0.9211
  610MOL0     H80485   8.710   2.399   5.162  1.0947  1.7700 -0.0288
  610MOL0     H80486   8.774   2.633   5.141  1.0336  1.5728  1.1464
  610MOL0     H80487   8.907   2.513   5.128  0.9031  2.6201 -2.8702
  610MOL0     H80488   8.948   2.754   5.064  0.7557 -0.2445  0.2431
  610MOL0     H80489   9.053   2.695   5.185 -0.3061 -0.6415 -0.5390
  610MOL0     H80490   8.980   2.785   5.352 -0.0170  1.7112  0.0062
  610MOL0     H80491   8.817   2.833   5.314 -0.3927 -2.8294  0.8309
  610MOL0     H80492   9.104   2.927   5.223  0.9459  0.5656  2.3446
  610MOL0     H80493   8.955   3.011   5.162  3.4310  0.2981 -0.5870
  610MOL0     H80494   9.067   3.000   5.435  0.8662 -2.5638 -3.0279
  610MOL0     H80495   8.894   3.037   5.409 -0.4335  1.7449 -0.3613
  610MOL0     H80496   8.984   3.233   5.255  0.1614  1.9692  2.2006
  610MOL0     H80497   9.146   3.175   5.299 -0.9817 -0.7282 -2.2761
  610MOL0     H80498   8.923   3.241   5.507 -0.4041 -1.8491 -1.6298
  610MOL0     H80499   9.090   3.240   5.541  0.4220 -0.9234 -1.5525
  610MOL0     H80500   9.011   3.466   5.532 -0.0017 -3.0500  0.6787
  610MOL0     H80501   8.973   3.456   5.365  3.2825  4.5052 -0.8034
  610MOL0     H80502   8.782   2.503   5.573 -0.3844  2.1655 -2.3462
  610MOL0     H80503   8.590   2.372   5.636 -1.9608 -1.0854  0.1022
  610MOL0     H80504   8.026   2.243   5.420  0.0772 -0.0319 -1.0019
  610MOL0     H80505   7.866   2.147   5.583  0.5694 -0.6520 -1.2225
  610MOL0     H80506   8.089   2.240   7.690  2.1676 -0.5860  0.2609
  610MOL0     H80507   8.224   2.457   7.708 -1.7802  3.7505  0.5363
  610MOL0     H80508   8.340   2.847   7.409 -1.3745 -1.1620  0.2502
  610MOL0     H80509   8.469   3.050   7.402 -2.8452  0.9329  0.2581
  610MOL0     H80510   8.587   3.201   7.779  0.5861  1.5298  1.8261
  610MOL0     H80511   8.479   3.328   7.767  0.9039  1.6931  0.7891
  610MOL0     H80512   8.700   3.418   7.775 -0.6202 -0.7920  0.7859
  610MOL0     H80513   8.763   3.325   7.632 -0.0117  0.3292  0.5114
  610MOL0     H80514   8.552   3.551   7.644 -0.0516  0.3014 -0.7999
  610MOL0     H80515   8.591   3.459   7.495 -1.8834 -0.9761  1.2641
  610MOL0     H80516   8.830   3.525   7.515  2.6223  3.5961  0.3960
  610MOL0     H80517   8.725   3.658   7.506  2.9268 -0.8689 -3.0910
  610MOL0     H80518   8.855   3.718   7.900 -2.3746 -1.7614  0.0426
  610MOL0     H80519   8.388   3.114   7.816  0.2971  1.4961 -1.3800
  610MOL0     H80520   8.297   2.899   7.841  0.0993 -0.1610  0.9441
  611MOL0     O80521   2.085  10.795  10.494 -0.1651 -0.7149  0.2099
  611MOL0     C80522   1.967  10.782  10.511  0.2127  0.2506 -0.0851
  611MOL0     O80523   1.896  10.667  10.487 -0.0023  0.5071  0.6334
  611MOL0     C80524   1.954  10.564  10.415  1.2378 -0.4295 -0.1464
  611MOL0     C80525   2.041  10.574  10.304  0.4925  0.7113 -0.0234
  611MOL0     C80526   2.090  10.467  10.237 -0.7234  0.1826  0.3180
  611MOL0     C80527   2.074  10.334  10.276  0.8536 -0.9556  0.0471
  611MOL0     O80528   2.123  10.224  10.225  0.3798  0.3448  0.5749
  611MOL0     C80529   2.181  10.218  10.096  0.7215 -0.8880 -0.1045
  611MOL0     C80530   2.178  10.073  10.059 -0.2341  0.6979 -0.0374
  611MOL0     C80531   2.028  10.016  10.048 -0.7877  0.2240 -0.1333
  611MOL0     C80532   2.030   9.874   9.991  0.4427  0.1018 -0.6730
  611MOL0     C80533   2.045   9.881   9.838 -0.7839 -0.1748 -0.3293
  611MOL0     C80534   1.920   9.937   9.773 -0.7357 -0.1375  0.1575
  611MOL0     C80535   1.971   9.993   9.627  1.0694 -0.0206 -0.8282
  611MOL0     C80536   1.847  10.045   9.548  0.4489 -0.5616 -0.1757
  611MOL0     N80537   1.877  10.118   9.421  0.3214  0.4269 -0.3476
  611MOL0     C80538   1.953  10.062   9.324 -0.2706  1.1300 -0.1960
  611MOL0     C80539   1.954  10.140   9.219  1.7014  0.3598  0.2040
  611MOL0     C80540   2.028  10.108   9.090 -0.0760 -0.6137  0.1439
  611MOL0     C80541   2.065  10.237   9.014 -0.3691 -0.3442 -0.0986
  611MOL0     C80542   2.117  10.200   8.870 -0.9880  0.1268 -0.5778
  611MOL0     C80543   2.188  10.322   8.796  0.9023 -0.1704  0.3057
  611MOL0     O80544   2.331  10.334   8.818 -0.4403  0.2023  0.1517
  611MOL0     C80545   2.373  10.417   8.917 -1.2980  0.6844  0.4936
  611MOL0     C80546   2.517  10.414   8.940  0.4455 -0.0013 -0.0795
  611MOL0     C80547   2.568  10.474   9.052 -0.4206  0.6739  0.4421
  611MOL0     C80548   2.487  10.536   9.147 -0.5371 -0.1705 -0.9605
  611MOL0     C80549   2.556  10.595   9.273 -0.4143  0.0928 -0.7778
  611MOL0     O80550   2.691  10.596   9.266 -0.1456  0.0203  0.0070
  611MOL0     C80551   2.760  10.637   9.381 -1.2109 -0.8717 -0.3378
  611MOL0     C80552   2.768  10.568   9.509 -0.9394  0.9988  0.8742
  611MOL0     C80553   2.847  10.625   9.606  0.2460  0.7547 -1.0194
  611MOL0     C80554   2.905  10.750   9.594 -0.1408  0.9984 -0.5603
  611MOL0     O80555   2.987  10.785   9.698 -0.1452  0.5036  0.3053
  611MOL0     C80556   3.090  10.874   9.674  0.4106 -0.4250  0.0496
  611MOL0     C80557   3.047  11.023   9.709 -0.3357  0.2851 -0.6541
  611MOL0     C80558   2.977  11.039   9.841 -0.6189  0.2499 -0.8949
  611MOL0     C80559   3.039  10.948   9.951  0.3804  0.2383 -1.0164
  611MOL0     C80560   2.973  10.954  10.095  0.3224  0.0966 -0.5578
  611MOL0     C80561   2.974  11.099  10.153  0.1507 -1.1628  0.2778
  611MOL0     C80562   2.927  11.125  10.298 -0.5079 -0.4000  0.6632
  611MOL0     C80563   2.938  11.267  10.345  0.2723  0.0083 -0.2019
  611MOL0    Cl80564   2.868  11.269  10.515  0.1728  0.2506 -0.0324
  611MOL0     C80565   2.888  10.824   9.478 -0.2473  0.4967 -0.2748
  611MOL0     C80566   2.824  10.764   9.368  0.0961  0.3945 -0.4043
  611MOL0     O80567   2.486  10.666   9.352  1.1894 -0.0970 -0.0418
  611MOL0     C80568   2.353  10.551   9.118  0.6627 -0.1242  1.1009
  611MOL0     C80569   2.297  10.494   9.001 -0.7273 -0.0841 -0.7459
  611MOL0     N80570   1.879  10.247   9.254 -0.7244 -0.3812  0.1719
  611MOL0     N80571   1.835  10.244   9.376  0.1736  0.7360  0.1660
  611MOL0     C80572   1.983  10.318  10.381 -0.5017  0.1041 -0.6171
  611MOL0     C80573   1.922  10.428  10.447  0.8614  0.0077 -0.5437
  611MOL0     C80574   1.876  10.899  10.536  0.1500  0.2150 -0.8904
  611MOL0     C80575   1.928  11.001  10.616  1.1494  0.5284  0.3840
  611MOL0     C80576   1.867  11.122  10.622  0.7092 -0.2483 -0.3773
  611MOL0     C80577   1.740  11.144  10.569 -0.0910  0.8261 -0.5229
  611MOL0     O80578   1.684  11.272  10.571  1.1497 -0.0310 -0.6365
  611MOL0     C80579   1.758  11.394  10.536 -0.1431 -0.3086 -1.0236
  611MOL0     C80580   1.762  11.420  10.396  0.1319  0.2200  1.3783
  611MOL0     C80581   1.847  11.320  10.313  0.1265 -0.3076 -0.2266
  611MOL0     C80582   1.993  11.351  10.321  0.2504  0.1696 -0.5943
  611MOL0     C80583   2.074  11.258  10.243  0.0229 -0.4005 -0.1063
  611MOL0     C80584   2.141  11.165  10.202 -0.3375 -0.0060 -0.0158
  611MOL0     C80585   1.678  11.029  10.510  1.1467  0.5485  0.5508
  611MOL0     C80586   1.751  10.908  10.481  0.2812  0.1605  0.2305
  611MOL0     H80587   2.077  10.673  10.277  2.1094  0.0790 -0.2978
  611MOL0     H80588   2.152  10.489  10.151 -0.0896  3.5338  1.5028
  611MOL0     H80589   2.280  10.263  10.098 -0.4764  1.9468 -0.4421
  611MOL0     H80590   2.114  10.267  10.024  0.7912  1.5610  1.4247
  611MOL0     H80591   2.239  10.034  10.142 -0.5341  1.1426  0.3966
  611MOL0     H80592   2.234  10.045   9.969  2.3707  0.4003  1.5766
  611MOL0     H80593   1.959  10.090  10.005  1.6352  2.0880 -1.0279
  611MOL0     H80594   1.986  10.015  10.149 -2.0662  2.1713 -0.5912
  611MOL0     H80595   2.114   9.825  10.041 -1.7572 -1.5274  1.6151
  611MOL0     H80596   1.939   9.816  10.008  0.7524  0.0748  1.0169
  611MOL0     H80597   2.053   9.777   9.805 -0.2146  0.1610 -1.2805
  611MOL0     H80598   2.135   9.933   9.803 -0.5186  0.0501  0.6589
  611MOL0     H80599   1.875  10.028   9.816  0.8534  0.2020  1.2102
  611MOL0     H80600   1.849   9.855   9.763  1.3980 -2.1704  0.6195
  611MOL0     H80601   2.041  10.073   9.647 -0.6055  1.1258  0.7325
  611MOL0     H80602   2.011   9.918   9.558  0.6761  1.1184 -2.3493
  611MOL0     H80603   1.795  10.115   9.614 -1.1782 -2.4983  0.7202
  611MOL0     H80604   1.767   9.971   9.542 -0.2646 -0.0495  2.0588
  611MOL0     H80605   1.988   9.960   9.339 -0.7528  1.1949  1.6672
  611MOL0     H80606   1.971  10.041   9.026 -0.3757 -1.4965  1.3055
  611MOL0     H80607   2.116  10.044   9.102  0.8952  0.7582  0.7221
  611MOL0     H80608   2.138  10.291   9.076  0.1036 -0.4217 -0.5778
  611MOL0     H80609   1.980  10.305   9.004 -2.1596 -2.5470 -0.6024
  611MOL0     H80610   2.185  10.115   8.877  0.3093  1.2420  1.2156
  611MOL0     H80611   2.026  10.171   8.816 -2.0276 -1.2715  1.7685
  611MOL0     H80612   2.133  10.415   8.810 -3.2382 -1.6909 -3.3280
  611MOL0     H80613   2.158  10.308   8.691 -1.3408  3.0308  0.3903
  611MOL0     H80614   2.571  10.346   8.875  0.6748 -0.3306  0.4422
  611MOL0     H80615   2.677  10.471   9.058 -0.4448 -1.5652  0.6120
  611MOL0     H80616   2.716  10.474   9.526 -1.7118  1.4191  0.8899
  611MOL0     H80617   2.859  10.574   9.701 -1.7806  2.2298  0.1209
  611MOL0     H80618   3.130  10.873   9.572  0.6168  2.5376 -0.0022
  611MOL0     H80619   3.165  10.841   9.746  1.4379 -2.6637 -1.9015
  611MOL0     H80620   2.993  11.064   9.623  2.6711  2.3590 -1.7299
  611MOL0     H80621   3.138  11.084   9.715  1.1978 -1.9505  0.2372
  611MOL0     H80622   2.870  11.028   9.825 -0.8109  0.6756  0.0452
  611MOL0     H80623   2.999  11.140   9.877 -0.5945  0.3728 -1.2460
  611MOL0     H80624   3.030  10.841   9.927  1.0627 -0.3029  0.9817
  611MOL0     H80625   3.147  10.959   9.963  0.1655  1.1748  0.2030
  611MOL0     H80626   3.025  10.895  10.171  0.9536 -1.0418 -1.8394
  611MOL0     H80627   2.872  10.910  10.096 -0.8338  2.5928  0.0997
  611MOL0     H80628   2.911  11.166  10.093  2.2387  1.3902  0.7688
  611MOL0     H80629   3.075  11.137  10.138  0.5252 -2.4555 -0.5916
  611MOL0     H80630   2.823  11.092  10.308 -0.9112 -0.4966 -2.7690
  611MOL0     H80631   2.991  11.059  10.357  2.2815  1.2483 -0.3351
  611MOL0     H80632   2.868  11.318  10.278 -2.4255  1.1730  3.2052
  611MOL0     H80633   3.034  11.319  10.349 -0.2190  0.8739  0.9450
  611MOL0     H80634   2.930  10.922   9.458  0.0543  0.5097  0.3950
  611MOL0     H80635   2.803  10.814   9.274  1.3209 -0.6859 -1.2915
  611MOL0     H80636   2.292  10.616   9.180  0.4913  1.4228 -0.5866
  611MOL0     H80637   2.190  10.503   8.988 -0.6186  2.9584 -0.2049
  611MOL0     H80638   1.953  10.224  10.428 -1.9851 -0.4791 -2.6139
  611MOL0     H80639   1.864  10.423  10.539  0.1426  0.8665 -0.9305
  611MOL0     H80640   2.028  10.990  10.657  1.6171  2.0124 -0.2656
  611MOL0     H80641   1.919  11.201  10.676 -2.4758  0.3576  2.1255
  611MOL0     H80642   1.860  11.399  10.575 -0.9845  4.2719  1.4122
  611MOL0     H80643   1.705  11.478  10.582  0.4088 -1.1206  1.2101
  611MOL0     H80644   1.660  11.425  10.357  1.0142 -1.0822 -1.3851
  611MOL0     H80645   1.804  11.520  10.380  2.0942 -0.8275 -0.6548
  611MOL0     H80646   1.828  11.340  10.207  1.0169  1.5635 -0.0707
  611MOL0     H80647   1.835  11.216  10.345 -1.1120  0.0231  0.4184
  611MOL0     H80648   2.035  11.449  10.298  2.8938 -0.2765  1.6618
  611MOL0     H80649   2.024  11.348  10.426  0.7951  5.0931 -0.3918
  611MOL0     H80650   2.175  11.084  10.141  0.1741 -0.1683  0.4823
  611MOL0     H80651   1.578  11.037  10.467  0.8095  0.9864  1.3810
  611MOL0     H80652   1.702  10.831  10.422  0.9222  0.6047 -0.8976
  612MOL0     O80653  10.480   6.979   2.389 -0.3940 -0.5574 -1.3944
  612MOL0     C80654  10.465   7.058   2.301  1.1711  0.2291  0.7506
  612MOL0     O80655  10.556   7.075   2.196 -0.2498 -0.8942  0.0852
  612MOL0     C80656  10.646   6.987   2.153 -1.2620 -0.5485 -0.5503
  612MOL0     C80657  10.651   6.845   2.182 -0.0069  0.4543  0.0175
  612MOL0     C80658  10.747   6.761   2.120 -0.1576  0.1843 -0.9662
  612MOL0     C80659  10.852   6.817   2.042 -0.5360 -0.7724 -0.7920
  612MOL0     O80660  10.961   6.742   1.996  0.0817 -0.3933  0.2902
  612MOL0     C80661  10.964   6.604   2.034  0.3421  0.6449  0.8033
  612MOL0     C80662  11.094   6.535   1.982  0.5075 -0.8171  0.1552
  612MOL0     C80663  11.089   6.382   1.996 -0.4626 -0.7554  0.4212
  612MOL0     C80664  11.119   6.335   2.144 -0.6027 -0.3945 -1.0283
  612MOL0     C80665  11.090   6.190   2.167  0.0599  0.1654 -0.6577
  612MOL0     C80666  11.077   6.170   2.321 -0.6042  0.7806 -0.2683
  612MOL0     C80667  11.049   6.024   2.369  0.2827  0.1566 -0.2242
  612MOL0     C80668  11.048   6.023   2.515  0.1363 -0.3717 -0.6605
  612MOL0     N80669  11.021   5.897   2.583 -0.0269 -0.8260 -0.1828
  612MOL0     C80670  11.048   5.887   2.714  0.0011  0.0031 -0.3595
  612MOL0     C80671  11.010   5.763   2.748 -0.0791 -1.4005 -0.1090
  612MOL0     C80672  11.001   5.697   2.884 -0.6556 -0.0571  0.0416
  612MOL0     C80673  11.143   5.683   2.940 -0.2538  0.3371  0.0521
  612MOL0     C80674  11.136   5.640   3.084  0.2802  0.5358  1.5103
  612MOL0     C80675  11.223   5.526   3.128  0.1509  0.3122 -0.1959
  612MOL0     O80676  11.221   5.517   3.274  0.4436 -0.1925 -0.6326
  612MOL0     C80677  11.315   5.435   3.327 -0.1629  0.5735 -0.2088
  612MOL0     C80678  11.311   5.402   3.467 -0.9540  0.0527  1.1850
  612MOL0     C80679  11.420   5.344   3.533 -0.2323  0.3362 -0.3654
  612MOL0     C80680  11.532   5.300   3.457 -0.4735  0.5200 -0.1973
  612MOL0     C80681  11.648   5.223   3.525  0.3314 -0.4196 -0.5960
  612MOL0     O80682  11.757   5.194   3.452 -0.4279 -0.2276  0.4868
  612MOL0     C80683  11.849   5.094   3.495  0.7062  0.0545 -0.3646
  612MOL0     C80684  11.984   5.121   3.460 -0.3829 -0.5494 -0.4941
  612MOL0     C80685  12.086   5.040   3.504 -1.1104  0.4399 -0.4265
  612MOL0     C80686  12.063   4.932   3.589 -0.2151  0.1271  1.0071
  612MOL0     O80687  12.155   4.839   3.603 -0.6340  0.0300  0.3575
  612MOL0     C80688  12.271   4.872   3.680 -0.5696  0.1893  0.7354
  612MOL0     C80689  12.271   4.768   3.795 -0.4032  0.5283  0.2996
  612MOL0     C80690  12.259   4.626   3.749  0.0420  0.6653  0.2226
  612MOL0     C80691  12.312   4.535   3.857 -1.2518  0.4965  1.0933
  612MOL0     C80692  12.215   4.502   3.967 -0.5007  0.1288  1.5406
  612MOL0     C80693  12.275   4.400   4.068 -0.3650 -0.8748 -0.4434
  612MOL0     C80694  12.367   4.478   4.174 -0.7132 -0.4563  0.9589
  612MOL0     C80695  12.301   4.593   4.257  0.6104 -0.0919  0.1924
  612MOL0    Cl80696  12.409   4.638   4.384  1.0532 -0.1406  0.2309
  612MOL0     C80697  11.927   4.907   3.624 -0.4747 -0.1961 -0.3363
  612MOL0     C80698  11.820   4.984   3.571  0.8830  0.6787 -0.4619
  612MOL0     O80699  11.622   5.181   3.638 -0.6449  0.5092 -0.0346
  612MOL0     C80700  11.544   5.333   3.320  0.2598  0.4650  0.0969
  612MOL0     C80701  11.431   5.392   3.257 -0.3963  0.5726  0.2289
  612MOL0     N80702  10.956   5.711   2.628 -1.1723  0.3524  0.9193
  612MOL0     N80703  10.968   5.796   2.527  1.6142  0.3831 -0.4526
  612MOL0     C80704  10.827   6.949   1.999 -0.7397 -0.5717 -0.9708
  612MOL0     C80705  10.730   7.039   2.052 -0.4826 -0.0198 -0.1449
  612MOL0     C80706  10.343   7.136   2.301  0.5206  0.0532 -0.1197
  612MOL0     C80707  10.255   7.139   2.408 -0.6914 -0.1577 -0.3398
  612MOL0     C80708  10.153   7.226   2.407  0.8736 -0.3408  0.9286
  612MOL0     C80709  10.118   7.310   2.303 -0.7300 -0.2689  0.7123
  612MOL0     O80710  10.019   7.399   2.299 -0.5204 -1.2943  0.0741
  612MOL0     C80711  10.021   7.481   2.422 -1.1319 -0.3507 -0.8781
  612MOL0     C80712   9.916   7.591   2.411  1.1481  0.1830 -0.4514
  612MOL0     C80713   9.769   7.540   2.399  0.8618  0.5495 -0.4681
  612MOL0     C80714   9.721   7.436   2.515 -0.5200 -0.7761 -0.0493
  612MOL0     C80715   9.583   7.420   2.502 -0.4372 -0.2669  0.0452
  612MOL0     C80716   9.462   7.389   2.490 -0.0875  0.7494 -0.1513
  612MOL0     C80717  10.206   7.310   2.194  0.4204  0.3778  0.9282
  612MOL0     C80718  10.319   7.225   2.195 -0.2019  0.0445 -0.4332
  612MOL0     H80719  10.562   6.807   2.231  0.9152  1.0625  2.2822
  612MOL0     H80720  10.738   6.655   2.145 -2.7594  1.0780  2.8937
  612MOL0     H80721  10.881   6.544   1.996  0.7417  1.3176 -1.3042
  612MOL0     H80722  10.953   6.601   2.142  1.8614  2.2897  1.0474
  612MOL0     H80723  11.176   6.577   2.041 -1.9453  2.2352  1.6653
  612MOL0     H80724  11.113   6.563   1.878  0.4827  3.3386  1.0683
  612MOL0     H80725  11.152   6.344   1.915  1.0982 -1.6096  1.9934
  612MOL0     H80726  10.992   6.333   1.985 -0.9510  0.4359 -1.0037
  612MOL0     H80727  11.223   6.358   2.168 -0.8781 -0.2472  0.0536
  612MOL0     H80728  11.055   6.384   2.218  0.2208 -0.1422 -0.4672
  612MOL0     H80729  11.155   6.115   2.121  1.0931  1.7502 -1.8928
  612MOL0     H80730  10.990   6.155   2.141 -0.1520 -1.4885  2.0391
  612MOL0     H80731  10.981   6.218   2.341 -0.5536  1.1207 -0.8175
  612MOL0     H80732  11.158   6.222   2.372  1.4020 -0.4408 -2.0346
  612MOL0     H80733  10.946   6.006   2.337  0.0110 -0.1708  0.7958
  612MOL0     H80734  11.124   5.956   2.328  0.8959  1.1423 -0.7851
  612MOL0     H80735  10.969   6.093   2.543 -0.3377 -1.5505  1.1140
  612MOL0     H80736  11.137   6.064   2.564 -1.4272 -0.0621  2.1338
  612MOL0     H80737  11.096   5.965   2.771  2.3695 -2.3466  1.1219
  612MOL0     H80738  10.954   5.598   2.879 -2.1888  0.4215  2.8808
  612MOL0     H80739  10.945   5.763   2.951 -2.5208 -1.9169  0.4070
  612MOL0     H80740  11.191   5.781   2.937 -0.4508  0.4095 -1.7304
  612MOL0     H80741  11.206   5.607   2.892  1.4661  0.2467  2.2731
  612MOL0     H80742  11.157   5.724   3.152 -0.7569 -0.1300  2.7075
  612MOL0     H80743  11.031   5.611   3.100 -0.2641 -0.7422 -3.0310
  612MOL0     H80744  11.321   5.547   3.084  0.3263  1.1815  0.5608
  612MOL0     H80745  11.193   5.437   3.072 -2.2915  1.8932 -1.6271
  612MOL0     H80746  11.223   5.438   3.519 -1.5524  1.9342 -0.9415
  612MOL0     H80747  11.421   5.315   3.638  2.2623  2.6243  0.3661
  612MOL0     H80748  12.011   5.207   3.399  2.6266 -0.0973  1.2796
  612MOL0     H80749  12.189   5.062   3.477 -0.5661  1.6512  2.3283
  612MOL0     H80750  12.260   4.974   3.720 -4.2404 -1.1660  3.8329
  612MOL0     H80751  12.363   4.869   3.622 -0.2066  0.7976  1.2646
  612MOL0     H80752  12.201   4.795   3.875 -0.4602  1.0926  0.0660
  612MOL0     H80753  12.368   4.781   3.845  1.2716  3.0315 -3.1850
  612MOL0     H80754  12.302   4.609   3.649  0.9251  0.4435  0.6312
  612MOL0     H80755  12.155   4.595   3.738  0.0655  0.2938  1.0197
  612MOL0     H80756  12.329   4.439   3.807 -0.5227 -0.0116  2.2764
  612MOL0     H80757  12.407   4.574   3.895 -2.0034  1.2957  2.2013
  612MOL0     H80758  12.141   4.446   3.910  1.7115 -0.1624 -1.2411
  612MOL0     H80759  12.171   4.591   4.012 -0.3331  1.6447 -1.1205
  612MOL0     H80760  12.323   4.315   4.018 -1.1905 -2.2198  0.9806
  612MOL0     H80761  12.198   4.344   4.121 -3.2418 -0.3085 -3.6728
  612MOL0     H80762  12.401   4.398   4.241  1.9590 -1.0081 -0.8704
  612MOL0     H80763  12.451   4.515   4.114 -3.0037  0.8394 -1.6956
  612MOL0     H80764  12.203   4.576   4.301  0.6848  2.9387  1.7421
  612MOL0     H80765  12.285   4.668   4.179 -1.0203 -1.3951 -0.7999
  612MOL0     H80766  11.903   4.815   3.676 -1.6533 -0.3013 -1.0486
  612MOL0     H80767  11.722   4.953   3.604  0.8071  0.3405 -0.9899
  612MOL0     H80768  11.633   5.294   3.272  1.4007  0.7414  1.8702
  612MOL0     H80769  11.448   5.403   3.150  2.4123  2.2885  0.7337
  612MOL0     H80770  10.900   6.980   1.926 -2.1249  0.9696 -1.7407
  612MOL0     H80771  10.727   7.143   2.019  2.3899  1.0589  2.4160
  612MOL0     H80772  10.292   7.089   2.497 -0.4307  2.0736  0.8611
  612MOL0     H80773  10.087   7.238   2.492  0.8562 -3.3327  1.4465
  612MOL0     H80774  10.117   7.525   2.451 -2.0218  0.0775  1.6485
  612MOL0     H80775   9.993   7.424   2.510 -2.5484  1.2255 -0.2520
  612MOL0     H80776   9.924   7.671   2.486  2.2847 -0.0137 -0.3439
  612MOL0     H80777   9.945   7.650   2.324  2.1920  0.9094  0.3731
  612MOL0     H80778   9.755   7.488   2.304  0.4219 -0.1308 -0.0400
  612MOL0     H80779   9.704   7.627   2.394  1.0816  0.6614 -1.6828
  612MOL0     H80780   9.773   7.344   2.486 -1.1667 -0.9942 -0.5302
  612MOL0     H80781   9.743   7.470   2.617 -0.6534  6.3107 -1.8607
  612MOL0     H80782   9.368   7.340   2.476 -0.1587  0.6588  0.5837
  612MOL0     H80783  10.199   7.381   2.113  2.3063 -0.4018  0.0116
  612MOL0     H80784  10.385   7.207   2.111 -1.0325 -1.9176 -0.7118
  613MOL0     O80785   4.703   1.311   1.594 -0.5323  0.5726  0.3591
  613MOL0     C80786   4.797   1.309   1.515  0.4014 -0.5146 -0.6571
  613MOL0     O80787   4.868   1.415   1.479  1.0883 -0.6409 -0.1505
  613MOL0     C80788   4.842   1.528   1.554 -0.0958  0.4200  0.8092
  613MOL0     C80789   4.843   1.533   1.689  0.5322 -0.0444  0.1397
  613MOL0     C80790   4.793   1.649   1.758  0.5985  0.2755 -0.4924
  613MOL0     C80791   4.745   1.764   1.692 -0.1625 -0.4678 -0.0052
  613MOL0     O80792   4.698   1.863   1.767 -0.1939 -0.4396  0.2170
  613MOL0     C80793   4.733   1.997   1.730  0.7998 -0.5690 -0.4535
  613MOL0     C80794   4.649   2.099   1.811  0.7656  0.3264 -0.2980
  613MOL0     C80795   4.494   2.073   1.792  0.6056  0.3284 -0.1566
  613MOL0     C80796   4.408   2.160   1.878  0.0514 -0.5437  0.5399
  613MOL0     C80797   4.427   2.133   2.024  0.5399  0.7518 -0.4297
  613MOL0     C80798   4.306   2.169   2.110 -0.5478  0.2224 -0.9892
  613MOL0     C80799   4.287   2.323   2.115 -0.1686  0.3608  0.6445
  613MOL0     C80800   4.145   2.352   2.186  0.3225  0.1864 -0.5344
  613MOL0     N80801   4.147   2.331   2.328 -0.9041  0.7035 -0.1665
  613MOL0     C80802   4.046   2.259   2.388  0.2914 -0.1822  0.8205
  613MOL0     C80803   4.062   2.277   2.519 -0.8461 -0.6160  0.4831
  613MOL0     C80804   3.971   2.213   2.620 -0.1425 -0.2217 -0.1185
  613MOL0     C80805   3.825   2.229   2.595  0.9931  0.2358 -0.0507
  613MOL0     C80806   3.755   2.176   2.717  0.4061 -0.5065 -0.7902
  613MOL0     C80807   3.765   2.027   2.728 -0.0986  0.6652  0.8079
  613MOL0     O80808   3.746   1.979   2.599  0.0398  0.0455  0.7594
  613MOL0     C80809   3.775   1.843   2.564 -0.0124  0.0187  0.0696
  613MOL0     C80810   3.842   1.747   2.643 -0.8155  0.5363  0.0755
  613MOL0     C80811   3.854   1.611   2.610 -0.0723 -0.4713 -0.2149
  613MOL0     C80812   3.786   1.558   2.494  0.0968 -1.3865  0.3354
  613MOL0     C80813   3.809   1.420   2.461  0.1940  0.8893  0.4097
  613MOL0     O80814   3.855   1.343   2.569  0.2343  0.4409 -0.0902
  613MOL0     C80815   3.859   1.204   2.550  0.1511 -0.7318 -0.4863
  613MOL0     C80816   3.968   1.132   2.606 -0.1809 -0.0086  0.6880
  613MOL0     C80817   3.981   1.001   2.580 -0.7117  0.0188  0.6726
  613MOL0     C80818   3.878   0.938   2.508 -0.4819 -0.0773 -0.6634
  613MOL0     O80819   3.908   0.802   2.493 -0.1450  0.1277  0.0644
  613MOL0     C80820   3.804   0.715   2.449  0.9536  0.4037 -0.6166
  613MOL0     C80821   3.826   0.572   2.490 -1.2671  0.2590  0.7990
  613MOL0     C80822   3.918   0.508   2.382 -0.2419  0.2402 -0.9261
  613MOL0     C80823   3.976   0.374   2.441  0.1745 -0.3892 -0.2573
  613MOL0     C80824   4.006   0.267   2.334  0.5076  1.1101 -1.0610
  613MOL0     C80825   4.147   0.296   2.261  0.1794  0.0093 -1.0496
  613MOL0     C80826   4.173   0.185   2.155 -0.4387  0.2636  0.0444
  613MOL0     C80827   4.317   0.182   2.105 -0.1835  0.8440  0.3182
  613MOL0    Cl80828   4.337   0.349   2.036 -0.2204 -0.5702  0.1691
  613MOL0     C80829   3.764   1.002   2.466  0.6425 -0.3716  0.3363
  613MOL0     C80830   3.752   1.137   2.488  1.6054 -0.3292 -0.6877
  613MOL0     O80831   3.797   1.386   2.343  0.8917  0.0706 -0.5435
  613MOL0     C80832   3.716   1.656   2.416 -0.3046  0.3063 -0.0199
  613MOL0     C80833   3.715   1.797   2.451  0.2215 -0.0324 -0.0171
  613MOL0     N80834   4.165   2.364   2.538 -0.3672  0.0322 -0.8423
  613MOL0     N80835   4.208   2.407   2.423 -0.8615  0.1234  0.1862
  613MOL0     C80836   4.758   1.761   1.556  0.0563 -0.2988  0.3991
  613MOL0     C80837   4.803   1.645   1.491  0.3400 -0.7351  0.2369
  613MOL0     C80838   4.837   1.177   1.462 -0.3569  0.0705 -0.4326
  613MOL0     C80839   4.794   1.058   1.515 -0.3035 -0.3211 -0.3965
  613MOL0     C80840   4.833   0.930   1.467 -0.8566 -0.2506 -0.0117
  613MOL0     C80841   4.917   0.929   1.354 -0.4334  0.4160 -0.0214
  613MOL0     O80842   4.965   0.819   1.296  0.0324  1.5075  0.3537
  613MOL0     C80843   4.925   0.692   1.354 -0.2143  0.4745  0.3415
  613MOL0     C80844   4.979   0.569   1.283 -0.2203  0.4158 -0.8010
  613MOL0     C80845   5.135   0.584   1.251  1.2988 -0.8159  0.1557
  613MOL0     C80846   5.199   0.475   1.165 -0.0097 -0.0362  0.0840
  613MOL0     C80847   5.167   0.339   1.199  0.9662  0.2180  0.1273
  613MOL0     C80848   5.139   0.224   1.225  0.9261  0.0383 -0.2426
  613MOL0     C80849   4.971   1.050   1.304 -0.6493  0.0083 -0.7737
  613MOL0     C80850   4.932   1.176   1.357 -0.9430  0.8189  0.7791
  613MOL0     H80851   4.875   1.447   1.746 -2.8307 -1.4687  0.1026
  613MOL0     H80852   4.780   1.652   1.866  0.3904  0.5597 -0.5243
  613MOL0     H80853   4.709   2.006   1.624 -1.5046 -0.2156  0.0540
  613MOL0     H80854   4.842   2.000   1.744  0.7032 -0.2922  0.3183
  613MOL0     H80855   4.677   2.202   1.787  2.2315 -0.3102 -1.5066
  613MOL0     H80856   4.675   2.081   1.916 -0.7026  1.3096  0.2536
  613MOL0     H80857   4.480   1.970   1.824  1.0704 -0.1319 -1.3877
  613MOL0     H80858   4.447   2.079   1.693 -3.0957 -0.3032  1.3994
  613MOL0     H80859   4.426   2.265   1.852  2.7094 -0.9901  0.2850
  613MOL0     H80860   4.304   2.141   1.848 -0.5140  2.0813  0.5958
  613MOL0     H80861   4.516   2.184   2.061  0.5725 -0.0656  0.6706
  613MOL0     H80862   4.445   2.026   2.039 -0.3680  1.0338  3.9383
  613MOL0     H80863   4.324   2.136   2.213 -0.9704  3.5331  0.2649
  613MOL0     H80864   4.216   2.123   2.069 -1.5318  1.2004 -0.0166
  613MOL0     H80865   4.376   2.362   2.166  1.4236 -1.0531 -0.9055
  613MOL0     H80866   4.288   2.382   2.023 -0.2646  3.0747  2.2797
  613MOL0     H80867   4.071   2.286   2.142  0.1024  1.5646 -2.3303
  613MOL0     H80868   4.127   2.460   2.178 -0.3714  0.1325  0.1723
  613MOL0     H80869   3.972   2.198   2.337  1.0664  1.0697 -2.0166
  613MOL0     H80870   3.992   2.265   2.714 -2.4767 -2.2988  1.6760
  613MOL0     H80871   3.990   2.108   2.640  1.3742  0.5546  3.1360
  613MOL0     H80872   3.792   2.177   2.505  0.7511 -1.2478  0.8495
  613MOL0     H80873   3.808   2.337   2.596  0.5675  0.3429  4.6681
  613MOL0     H80874   3.796   2.236   2.799 -2.5069  1.6666 -0.7901
  613MOL0     H80875   3.649   2.195   2.702  0.9450  1.6170 -2.4766
  613MOL0     H80876   3.690   1.985   2.796  0.4853  1.0074  1.6796
  613MOL0     H80877   3.853   1.990   2.781 -2.2284 -0.0206  4.1945
  613MOL0     H80878   3.892   1.776   2.735 -3.5784  0.6242  1.6585
  613MOL0     H80879   3.911   1.549   2.679  1.7275  2.9047  1.5590
  613MOL0     H80880   4.038   1.197   2.656  1.4488 -0.9555 -0.2805
  613MOL0     H80881   4.069   0.945   2.612 -1.3574 -1.2981  0.2193
  613MOL0     H80882   3.766   0.734   2.348 -0.7523  4.8481  0.5958
  613MOL0     H80883   3.713   0.738   2.505  0.6261  1.7439 -1.6292
  613MOL0     H80884   3.739   0.508   2.506 -0.4386 -1.0045  0.4101
  613MOL0     H80885   3.883   0.576   2.583  3.8059 -1.6434 -1.8479
  613MOL0     H80886   3.995   0.578   2.349 -2.4376  2.2223 -2.0658
  613MOL0     H80887   3.856   0.480   2.297  0.2465 -0.2408 -1.1338
  613MOL0     H80888   4.070   0.390   2.494  1.2507 -0.9523 -1.9193
  613MOL0     H80889   3.896   0.343   2.510 -2.5108  1.9606 -2.0617
  613MOL0     H80890   3.924   0.257   2.262 -0.2962  0.1803 -0.0530
  613MOL0     H80891   4.022   0.176   2.393  0.7190  2.2318  0.6951
  613MOL0     H80892   4.230   0.287   2.331 -0.4085  1.5451 -0.1031
  613MOL0     H80893   4.133   0.396   2.218  0.0518 -0.4542 -2.1348
  613MOL0     H80894   4.154   0.091   2.208 -1.2505  0.3006 -0.1702
  613MOL0     H80895   4.104   0.190   2.070  1.6654  2.2091 -1.6790
  613MOL0     H80896   4.328   0.121   2.015  0.1639 -0.3628  1.1402
  613MOL0     H80897   4.377   0.152   2.193 -1.7846  2.5914  2.0901
  613MOL0     H80898   3.686   0.953   2.409  1.4938 -0.0787 -1.1243
  613MOL0     H80899   3.672   1.190   2.437 -0.1827 -2.3137 -0.0760
  613MOL0     H80900   3.683   1.626   2.317 -3.6693  1.1642  0.7038
  613MOL0     H80901   3.669   1.871   2.386  0.0763 -0.2876 -0.2054
  613MOL0     H80902   4.730   1.842   1.490  0.4126  0.6696  1.4097
  613MOL0     H80903   4.830   1.647   1.386  0.2712  0.1950  0.2223
  613MOL0     H80904   4.707   1.067   1.580 -1.7626  0.4972 -2.3401
  613MOL0     H80905   4.796   0.843   1.521  0.4819 -0.1510  1.1228
  613MOL0     H80906   4.818   0.674   1.364  0.2343 -3.8653 -0.6182
  613MOL0     H80907   4.942   0.701   1.462 -0.2190  0.2155  0.3639
  613MOL0     H80908   4.968   0.476   1.340  1.1463  0.9061  0.3258
  613MOL0     H80909   4.921   0.550   1.193 -1.9638 -1.8170  0.6806
  613MOL0     H80910   5.190   0.603   1.344 -3.2334  3.2259  2.4559
  613MOL0     H80911   5.147   0.673   1.188  1.3550 -0.9471 -0.0192
  613MOL0     H80912   5.159   0.487   1.063  0.7773  2.0893 -0.0273
  613MOL0     H80913   5.307   0.486   1.166  0.0142 -0.3194  0.4307
  613MOL0     H80914   5.124   0.118   1.238 -1.9264 -0.1361 -3.5278
  613MOL0     H80915   5.044   1.052   1.224 -0.1835  0.8008 -0.3392
  613MOL0     H80916   4.975   1.274   1.338 -2.6378  1.3607 -0.4195
  614MOL0     O80917   3.990   6.034   5.937  0.5147  0.4170 -0.9183
  614MOL0     C80918   3.891   5.984   5.994 -0.3599 -1.1492 -0.4239
  614MOL0     O80919   3.895   5.890   6.093 -0.6477 -0.6363  0.7761
  614MOL0     C80920   4.016   5.815   6.116  0.4153 -0.6894  1.0296
  614MOL0     C80921   4.098   5.777   6.015 -0.6648  0.0810 -0.7517
  614MOL0     C80922   4.227   5.722   6.046 -0.4494  0.0311 -0.2858
  614MOL0     C80923   4.263   5.706   6.179  0.4869  1.0760 -0.0613
  614MOL0     O80924   4.372   5.651   6.215  0.3697 -0.8558  0.0147
  614MOL0     C80925   4.484   5.741   6.181 -0.0501 -0.0006  0.0350
  614MOL0     C80926   4.616   5.673   6.231  0.0057 -0.4161  0.6423
  614MOL0     C80927   4.751   5.751   6.216  0.6586  0.1184  0.0445
  614MOL0     C80928   4.770   5.806   6.072  0.1706 -0.5412  0.2062
  614MOL0     C80929   4.754   5.701   5.960 -0.4123 -0.4385 -0.0807
  614MOL0     C80930   4.759   5.761   5.817 -0.6036  0.2831  0.3645
  614MOL0     C80931   4.758   5.664   5.699  0.6657 -0.3425  0.2570
  614MOL0     C80932   4.729   5.741   5.570 -0.5230  0.6437  0.2364
  614MOL0     N80933   4.593   5.794   5.574  0.2487  0.7990  0.9334
  614MOL0     C80934   4.472   5.723   5.587  0.6452 -0.5259  0.0377
  614MOL0     C80935   4.370   5.799   5.543  0.5881  0.4407 -0.3791
  614MOL0     C80936   4.226   5.760   5.528  0.1273  0.2455  0.6660
  614MOL0     C80937   4.189   5.694   5.398  0.5941 -0.3384  0.7807
  614MOL0     C80938   4.042   5.669   5.397 -0.7875 -1.1818 -0.5300
  614MOL0     C80939   3.951   5.797   5.379  0.3957  0.6514  0.4057
  614MOL0     O80940   3.874   5.819   5.492  0.6388  0.0432  0.4419
  614MOL0     C80941   3.785   5.917   5.487  1.0505 -1.4623  0.3663
  614MOL0     C80942   3.691   5.915   5.584 -0.3984  0.0607  0.7932
  614MOL0     C80943   3.580   5.996   5.572 -0.2688  0.2962 -0.0678
  614MOL0     C80944   3.568   6.091   5.477  0.7013 -0.1835  0.6478
  614MOL0     C80945   3.448   6.189   5.446 -0.6180 -0.2676 -1.2174
  614MOL0     O80946   3.449   6.279   5.342 -0.2717  0.2146 -0.2733
  614MOL0     C80947   3.342   6.360   5.335  0.5490 -0.6128 -0.4634
  614MOL0     C80948   3.331   6.474   5.400 -0.0192  0.1977 -0.4494
  614MOL0     C80949   3.224   6.566   5.397  0.0902 -0.5931  0.5035
  614MOL0     C80950   3.114   6.533   5.321 -1.1269  0.4540  0.4936
  614MOL0     O80951   3.002   6.613   5.302  0.5265 -0.0243 -0.2924
  614MOL0     C80952   2.881   6.567   5.352 -0.1929 -0.5105  0.4209
  614MOL0     C80953   2.767   6.575   5.245  0.4624 -0.1948 -0.2123
  614MOL0     C80954   2.628   6.556   5.311  0.6737  0.4743  1.0275
  614MOL0     C80955   2.514   6.625   5.230 -0.3139 -0.3147 -0.6841
  614MOL0     C80956   2.512   6.596   5.077 -0.8157 -1.1803 -0.3502
  614MOL0     C80957   2.441   6.465   5.053 -0.8956 -0.7957 -0.2362
  614MOL0     C80958   2.409   6.441   4.903  0.7657 -0.3009 -0.0760
  614MOL0     C80959   2.522   6.385   4.821  0.2418 -0.4344 -0.1103
  614MOL0    Cl80960   2.476   6.392   4.657 -0.1420  0.7238  0.3096
  614MOL0     C80961   3.118   6.407   5.252 -0.0993 -0.5725 -0.4716
  614MOL0     C80962   3.234   6.327   5.258  0.6725  1.6597 -0.4712
  614MOL0     O80963   3.372   6.180   5.539  0.4034  0.3144  0.0057
  614MOL0     C80964   3.676   6.107   5.388 -0.5087  0.2914 -0.4759
  614MOL0     C80965   3.784   6.014   5.390  0.4260 -0.4875  0.0881
  614MOL0     N80966   4.432   5.911   5.500 -0.2994 -0.1186 -0.3298
  614MOL0     N80967   4.563   5.914   5.520  0.5010  0.8215 -1.0071
  614MOL0     C80968   4.172   5.736   6.282  0.1698 -0.4612 -0.0461
  614MOL0     C80969   4.052   5.790   6.247  0.6754 -0.0149  1.1345
  614MOL0     C80970   3.759   6.047   5.966  0.9917  0.2526  0.0985
  614MOL0     C80971   3.753   6.151   5.869 -0.5934  1.1700  0.0501
  614MOL0     C80972   3.630   6.202   5.837 -0.0077  0.6141 -0.9669
  614MOL0     C80973   3.516   6.160   5.901  0.0655  0.2182  0.4274
  614MOL0     O80974   3.397   6.211   5.847 -0.3429  0.0824  0.4030
  614MOL0     C80975   3.270   6.158   5.889 -0.0909  0.1454  0.9407
  614MOL0     C80976   3.163   6.222   5.805 -0.6742  1.0692  0.6968
  614MOL0     C80977   3.166   6.373   5.808 -0.2165  0.1759  0.7402
  614MOL0     C80978   3.077   6.452   5.712  0.2999  0.2779  0.1450
  614MOL0     C80979   2.933   6.458   5.750 -0.1747  0.8490  0.3025
  614MOL0     C80980   2.818   6.458   5.775  0.5128  0.3603  0.3070
  614MOL0     C80981   3.516   6.046   5.983  0.6010 -0.3005 -0.0865
  614MOL0     C80982   3.638   5.983   6.023 -0.8897 -0.6182  0.7726
  614MOL0     H80983   4.068   5.789   5.911  2.6775  1.6496 -1.7127
  614MOL0     H80984   4.293   5.705   5.962  2.4540  3.9017  0.8984
  614MOL0     H80985   4.479   5.838   6.232 -1.2510  2.0538 -3.6252
  614MOL0     H80986   4.492   5.763   6.074  0.5791 -0.7395 -0.0743
  614MOL0     H80987   4.619   5.577   6.180  2.3679 -0.8282  1.4675
  614MOL0     H80988   4.615   5.636   6.334  1.2835  1.2932  1.3145
  614MOL0     H80989   4.835   5.687   6.242 -0.8663 -0.7108  3.3953
  614MOL0     H80990   4.766   5.831   6.289  0.6224  0.2629 -0.1049
  614MOL0     H80991   4.692   5.877   6.043  1.2348  0.3094 -0.6667
  614MOL0     H80992   4.865   5.860   6.065  0.7826 -1.5747  0.2501
  614MOL0     H80993   4.661   5.645   5.975 -0.6859 -0.2605 -1.0248
  614MOL0     H80994   4.841   5.635   5.960  1.8890  2.4155 -0.2668
  614MOL0     H80995   4.850   5.820   5.801 -0.5208 -0.0779 -0.6100
  614MOL0     H80996   4.679   5.834   5.805 -0.0947  1.2773  2.6149
  614MOL0     H80997   4.857   5.619   5.686  1.5317  1.2240  1.0766
  614MOL0     H80998   4.686   5.585   5.724 -1.7393  2.4754  3.0754
  614MOL0     H80999   4.748   5.670   5.489  1.2480 -1.1377  2.0634
  614MOL0     H81000   4.810   5.815   5.561 -0.2660  0.3330 -0.0266
  614MOL0     H81001   4.448   5.627   5.629 -0.9404  0.0906  0.6162
  614MOL0     H81002   4.167   5.851   5.538 -0.4808  0.0034 -0.5887
  614MOL0     H81003   4.207   5.696   5.615  1.9258  0.8311  1.5550
  614MOL0     H81004   4.235   5.596   5.385 -0.8136 -0.8834 -0.4381
  614MOL0     H81005   4.215   5.753   5.310 -0.5764 -2.1885 -0.8938
  614MOL0     H81006   4.023   5.602   5.312 -1.3089  0.2441 -1.5925
  614MOL0     H81007   4.014   5.610   5.485  2.4592  0.2343  1.6407
  614MOL0     H81008   3.887   5.801   5.290  0.1552  1.6332  0.6026
  614MOL0     H81009   4.030   5.873   5.368  0.5180  0.4742  0.0079
  614MOL0     H81010   3.692   5.833   5.654 -0.7197 -1.3759 -0.8307
  614MOL0     H81011   3.509   5.983   5.653 -0.5518 -2.9606 -0.6953
  614MOL0     H81012   3.413   6.513   5.461 -1.0250  3.7009 -1.1158
  614MOL0     H81013   3.207   6.658   5.453 -1.6620  0.5193 -1.6772
  614MOL0     H81014   2.861   6.633   5.437  3.9543 -0.4504  1.5788
  614MOL0     H81015   2.889   6.467   5.396  0.9240 -0.2125  0.9475
  614MOL0     H81016   2.792   6.500   5.170 -1.8649 -2.2067  0.8853
  614MOL0     H81017   2.768   6.670   5.190 -0.9020 -1.0042 -1.6974
  614MOL0     H81018   2.622   6.600   5.411 -1.5912 -0.3569  1.3360
  614MOL0     H81019   2.597   6.452   5.321 -1.0079  0.6405 -1.4905
  614MOL0     H81020   2.418   6.596   5.273  1.1683 -2.4041  1.4806
  614MOL0     H81021   2.522   6.734   5.233 -0.9098 -0.2637  2.2710
  614MOL0     H81022   2.616   6.589   5.041  0.3863  0.2762  2.5290
  614MOL0     H81023   2.465   6.681   5.027  0.9713 -1.5405 -2.8465
  614MOL0     H81024   2.346   6.467   5.106 -3.2233 -1.0110 -4.0457
  614MOL0     H81025   2.495   6.387   5.107  1.2678  0.4587 -0.4724
  614MOL0     H81026   2.317   6.382   4.895 -0.7412  1.9565 -0.1731
  614MOL0     H81027   2.384   6.540   4.864 -0.5902 -1.3200 -2.0007
  614MOL0     H81028   2.545   6.285   4.857  0.4751 -0.0022  0.9960
  614MOL0     H81029   2.615   6.443   4.824  0.0922 -0.0844 -1.4783
  614MOL0     H81030   3.034   6.379   5.189  0.7411 -3.0059 -0.6102
  614MOL0     H81031   3.235   6.232   5.206 -0.9902  1.5223 -0.3178
  614MOL0     H81032   3.700   6.179   5.311 -0.3250  1.1063  0.3234
  614MOL0     H81033   3.858   6.017   5.310 -1.4987 -2.8437 -1.9566
  614MOL0     H81034   4.192   5.715   6.386  2.0782  1.6749  0.1112
  614MOL0     H81035   3.991   5.826   6.329  1.6315  1.3056  1.2985
  614MOL0     H81036   3.841   6.193   5.820  1.4927 -2.5773  0.2031
  614MOL0     H81037   3.631   6.272   5.754 -0.6109  1.9486  0.1148
  614MOL0     H81038   3.247   6.181   5.993 -2.5571  3.2382 -0.1245
  614MOL0     H81039   3.262   6.049   5.884 -0.2400  0.1451  1.1652
  614MOL0     H81040   3.187   6.190   5.703 -2.0309 -0.4248  0.8053
  614MOL0     H81041   3.071   6.180   5.847 -0.2217  0.6107  1.2611
  614MOL0     H81042   3.270   6.400   5.790 -0.4488  1.4520  1.2457
  614MOL0     H81043   3.157   6.417   5.908  2.7726  3.2270 -0.1557
  614MOL0     H81044   3.117   6.552   5.731  1.4046 -0.6834  3.7150
  614MOL0     H81045   3.104   6.436   5.607 -0.7188  3.7661 -0.7708
  614MOL0     H81046   2.712   6.443   5.786  0.3575 -0.3369 -1.7448
  614MOL0     H81047   3.418   6.014   6.017 -0.3174 -0.5340 -2.7174
  614MOL0     H81048   3.655   5.898   6.089  1.4946 -1.8920 -1.3014
  615MOL0     O81049   8.236   0.501  10.422  0.0614 -0.4420  0.2519
  615MOL0     C81050   8.343   0.513  10.366  0.0233 -0.0639 -0.4021
  615MOL0     O81051   8.436   0.610  10.392  0.5142  0.5970  0.1082
  615MOL0     C81052   8.397   0.727  10.455  0.7768  0.2892  0.0793
  615MOL0     C81053   8.327   0.731  10.578 -0.2976  0.0006  1.0107
  615MOL0     C81054   8.296   0.853  10.629  0.9558 -0.5297 -0.0767
  615MOL0     C81055   8.345   0.974  10.574  0.6305  0.9028  0.1901
  615MOL0     O81056   8.325   1.099  10.631 -0.3612 -0.5823 -0.3407
  615MOL0     C81057   8.202   1.131  10.692  0.2393 -0.8399  0.2775
  615MOL0     C81058   8.193   1.284  10.691 -0.0390 -0.4934  0.0731
  615MOL0     C81059   8.058   1.341  10.717  0.5346  0.1991 -0.4347
  615MOL0     C81060   8.061   1.485  10.779  0.8941 -0.8648  0.1909
  615MOL0     C81061   7.919   1.550  10.774 -0.7867 -0.2115  0.0863
  615MOL0     C81062   7.808   1.493  10.866  0.3966  0.1514 -0.1200
  615MOL0     C81063   7.831   1.499  11.027  0.7183  0.7901  0.7918
  615MOL0     C81064   7.861   1.643  11.075  0.0476  0.4477 -0.2152
  615MOL0     N81065   7.749   1.735  11.057 -0.0115  0.1936 -0.2195
  615MOL0     C81066   7.730   1.836  10.961 -0.1317  0.1115 -0.0570
  615MOL0     C81067   7.625   1.904  10.991  0.0665  0.1853  0.3210
  615MOL0     C81068   7.566   2.031  10.927 -0.7634  1.5530 -1.1919
  615MOL0     C81069   7.668   2.149  10.926 -0.8590 -0.4806 -0.9614
  615MOL0     C81070   7.605   2.282  10.896  0.2005  0.4080 -0.6655
  615MOL0     C81071   7.717   2.380  10.873 -0.7204 -0.1951 -0.6149
  615MOL0     O81072   7.756   2.443  10.997  0.3433  0.3401 -0.5702
  615MOL0     C81073   7.687   2.553  11.033 -1.0198 -0.3887 -0.3536
  615MOL0     C81074   7.555   2.589  11.013  0.2906 -0.0777  0.1179
  615MOL0     C81075   7.498   2.700  11.070  0.7311  0.8364 -0.0287
  615MOL0     C81076   7.576   2.791  11.143  0.5686 -1.0286  0.0556
  615MOL0     C81077   7.522   2.913  11.205 -0.3233  0.2475 -0.2711
  615MOL0     O81078   7.616   2.982  11.280 -0.5294 -0.1067 -0.3106
  615MOL0     C81079   7.572   3.075  11.371  0.0022  0.4181 -0.0368
  615MOL0     C81080   7.589   3.043  11.509 -1.0278 -0.4261 -0.0965
  615MOL0     C81081   7.539   3.128  11.603  0.0518 -0.3917  0.6023
  615MOL0     C81082   7.479   3.248  11.571  0.3403 -0.1824  0.1297
  615MOL0     O81083   7.440   3.331  11.671  0.1520 -0.2342  0.0390
  615MOL0     C81084   7.303   3.394  11.670  0.1218  0.2837 -0.2968
  615MOL0     C81085   7.245   3.422  11.805  0.6607 -0.3355  0.2425
  615MOL0     C81086   7.244   3.316  11.901 -0.2578  0.0748  0.1629
  615MOL0     C81087   7.150   3.201  11.858  0.1357  0.4777  0.7144
  615MOL0     C81088   7.132   3.092  11.958 -0.4830  0.2493  0.4795
  615MOL0     C81089   7.233   2.979  11.943 -0.8420  0.0554  0.2006
  615MOL0     C81090   7.348   2.982  12.044 -0.3384 -0.4048  0.5460
  615MOL0     C81091   7.428   2.849  12.016 -0.6913  0.2750  1.0743
  615MOL0    Cl81092   7.497   2.865  11.854  0.3011 -0.1422 -0.4578
  615MOL0     C81093   7.470   3.283  11.438 -0.3698  0.2606 -0.6940
  615MOL0     C81094   7.518   3.199  11.339  0.2380  0.5389 -0.2417
  615MOL0     O81095   7.415   2.949  11.184  0.1206 -0.4997  0.3050
  615MOL0     C81096   7.707   2.751  11.170  0.3308 -0.0706 -0.2608
  615MOL0     C81097   7.762   2.639  11.106  0.3473  0.2382 -1.8121
  615MOL0     N81098   7.571   1.841  11.104  1.2194 -0.1378 -0.0021
  615MOL0     N81099   7.648   1.747  11.145 -0.6175 -0.9241  0.4529
  615MOL0     C81100   8.416   0.970  10.456 -0.1580  0.7458  0.3871
  615MOL0     C81101   8.442   0.841  10.390  0.0448 -0.7471 -0.0648
  615MOL0     C81102   8.373   0.420  10.265  0.4738 -0.0392 -0.5998
  615MOL0     C81103   8.300   0.300  10.257  0.3489  0.2101  0.4466
  615MOL0     C81104   8.316   0.209  10.149 -1.2058 -0.5499  0.1335
  615MOL0     C81105   8.421   0.229  10.050 -0.1599 -0.4302  0.5811
  615MOL0     O81106   8.423   0.150   9.940  0.0075  0.0411  0.4817
  615MOL0     C81107   8.551   0.140   9.872  0.3312  0.7281  0.1685
  615MOL0     C81108   8.581   0.023   9.773  0.5578 -0.1239  0.4522
  615MOL0     C81109   8.556  -0.117   9.828 -0.6398 -0.1555  0.6436
  615MOL0     C81110   8.647  -0.134   9.954 -0.8978  0.9853 -1.3714
  615MOL0     C81111   8.785  -0.102   9.930  0.0825  0.7492 -0.1378
  615MOL0     C81112   8.901  -0.083   9.901 -0.2035  0.4049 -0.0646
  615MOL0     C81113   8.500   0.341  10.068 -0.5865  0.2110  0.6319
  615MOL0     C81114   8.472   0.429  10.176 -1.0334  0.7119  0.7410
  615MOL0     H81115   8.295   0.641  10.628  2.0239 -2.4136 -1.5307
  615MOL0     H81116   8.237   0.855  10.720  0.8866 -1.3655 -0.0983
  615MOL0     H81117   8.215   1.086  10.791  1.4746 -2.1703 -0.4484
  615MOL0     H81118   8.117   1.104  10.628  0.3121  2.5130 -1.4034
  615MOL0     H81119   8.232   1.312  10.593 -0.5948  1.6788  0.4235
  615MOL0     H81120   8.271   1.314  10.762 -0.2170 -2.1688  1.0476
  615MOL0     H81121   8.008   1.277  10.791 -2.5817  3.4424  0.5103
  615MOL0     H81122   8.003   1.337  10.623 -2.4010 -2.1950  1.2076
  615MOL0     H81123   8.093   1.475  10.884  0.9940  0.3551  0.2897
  615MOL0     H81124   8.133   1.550  10.730  0.6495 -2.0026 -1.7796
  615MOL0     H81125   7.890   1.528  10.670 -1.2978 -3.0459  0.7372
  615MOL0     H81126   7.926   1.656  10.800 -2.7297 -0.1665  0.5781
  615MOL0     H81127   7.786   1.390  10.836  0.4170 -0.4793  1.9090
  615MOL0     H81128   7.720   1.550  10.837 -1.4488 -1.6776  1.6062
  615MOL0     H81129   7.743   1.464  11.081 -2.6511 -1.6548 -5.2467
  615MOL0     H81130   7.919   1.437  11.047 -1.6132 -2.8522  0.8197
  615MOL0     H81131   7.953   1.669  11.023 -0.2565 -2.3076 -2.3582
  615MOL0     H81132   7.884   1.663  11.180  1.1613  3.4193 -0.9285
  615MOL0     H81133   7.789   1.865  10.875 -1.5553  1.4762 -0.6110
  615MOL0     H81134   7.482   2.071  10.984 -1.2408  2.8385 -2.6923
  615MOL0     H81135   7.528   2.013  10.826  0.7234 -3.0588 -1.1688
  615MOL0     H81136   7.738   2.120  10.847 -1.2067 -3.6968 -0.2188
  615MOL0     H81137   7.710   2.152  11.027 -0.0684 -0.8437 -1.2713
  615MOL0     H81138   7.544   2.278  10.805 -3.3886  2.5684  1.4011
  615MOL0     H81139   7.525   2.313  10.964 -2.5592 -1.5428 -2.7798
  615MOL0     H81140   7.702   2.457  10.796 -2.7853  1.5581  1.4012
  615MOL0     H81141   7.810   2.335  10.836 -0.2191 -1.4820  2.0037
  615MOL0     H81142   7.488   2.519  10.963 -2.7210  3.1711 -0.8261
  615MOL0     H81143   7.393   2.716  11.046  0.1816 -2.4558 -0.3384
  615MOL0     H81144   7.634   2.947  11.531 -0.3962 -0.5033 -1.6124
  615MOL0     H81145   7.542   3.088  11.703 -0.0039 -2.9916 -0.3661
  615MOL0     H81146   7.231   3.335  11.611 -0.6742 -0.4664  1.3654
  615MOL0     H81147   7.310   3.492  11.622 -2.0829 -0.4369 -2.2906
  615MOL0     H81148   7.143   3.458  11.790  0.8620 -0.7501 -2.6248
  615MOL0     H81149   7.288   3.509  11.855 -0.0567  1.2961 -1.8622
  615MOL0     H81150   7.201   3.366  11.988 -1.4409 -1.2157  0.3542
  615MOL0     H81151   7.348   3.282  11.908  0.8050  3.0720  0.4424
  615MOL0     H81152   7.051   3.243  11.837 -1.1850 -3.3727 -1.8568
  615MOL0     H81153   7.174   3.154  11.762 -0.9410 -1.9584  1.5522
  615MOL0     H81154   7.031   3.056  11.935 -0.5121 -0.7971  2.1430
  615MOL0     H81155   7.130   3.129  12.061 -1.7320  4.7273 -0.9115
  615MOL0     H81156   7.268   2.964  11.840  0.3726 -2.1794  0.8697
  615MOL0     H81157   7.176   2.891  11.971  0.5094 -0.3314  1.8869
  615MOL0     H81158   7.414   3.069  12.033 -1.1620 -0.0530 -2.2138
  615MOL0     H81159   7.313   2.986  12.148 -0.3072  0.1463  0.5387
  615MOL0     H81160   7.362   2.762  12.024 -2.1033  1.3495  1.5758
  615MOL0     H81161   7.509   2.839  12.089  0.4543 -2.0736 -0.4101
  615MOL0     H81162   7.437   3.383  11.411  0.3281  0.2181 -1.7808
  615MOL0     H81163   7.510   3.226  11.234 -0.2448 -0.0567 -0.3630
  615MOL0     H81164   7.781   2.814  11.219 -0.4244 -1.2120  2.5757
  615MOL0     H81165   7.868   2.623  11.122  0.4610  3.4211  2.5500
  615MOL0     H81166   8.460   1.057  10.409  4.5019 -0.6510  1.6067
  615MOL0     H81167   8.503   0.832  10.300 -2.0230  1.0702 -1.7606
  615MOL0     H81168   8.228   0.273  10.333  0.3554 -4.5742 -0.8983
  615MOL0     H81169   8.245   0.129  10.128 -0.6816 -0.8497 -0.5435
  615MOL0     H81170   8.628   0.141   9.950 -1.3219 -1.1722  1.9793
  615MOL0     H81171   8.563   0.227   9.808 -1.1746 -0.4126 -1.7911
  615MOL0     H81172   8.526   0.037   9.680  2.6494  1.0770 -0.6749
  615MOL0     H81173   8.687   0.036   9.752  0.2336 -2.0090 -3.1927
  615MOL0     H81174   8.590  -0.191   9.755  0.1995  0.1741  0.6826
  615MOL0     H81175   8.449  -0.130   9.842 -0.4387 -0.7181  1.8252
  615MOL0     H81176   8.615  -0.068  10.036  1.0000  1.9059 -1.3000
  615MOL0     H81177   8.639  -0.237   9.988 -1.1107  1.4835  0.1539
  615MOL0     H81178   9.002  -0.090   9.867 -0.8447 -0.1227 -1.9478
  615MOL0     H81179   8.572   0.368   9.992 -1.0200 -0.1444  0.0797
  615MOL0     H81180   8.532   0.519  10.176 -0.4590  0.4213  3.9428
  616MOL0     O81181   2.693   7.307   7.945 -1.1867  0.2855  0.2977
  616MOL0     C81182   2.739   7.205   7.898 -0.0905  1.1508 -0.3539
  616MOL0     O81183   2.872   7.173   7.878  0.8492  0.5131  0.5648
  616MOL0     C81184   2.976   7.263   7.903  0.0950  0.0777  0.8628
  616MOL0     C81185   2.982   7.398   7.931  0.5318 -0.2989 -0.0229
  616MOL0     C81186   3.105   7.467   7.960 -0.3687 -0.1770  0.7092
  616MOL0     C81187   3.225   7.403   7.940  0.4379 -0.4895 -0.1173
  616MOL0     O81188   3.336   7.478   7.937 -0.7572  0.5435  1.4152
  616MOL0     C81189   3.461   7.410   7.970 -0.4209  0.6626 -0.3611
  616MOL0     C81190   3.559   7.526   7.963 -0.1417  0.8027  0.0553
  616MOL0     C81191   3.688   7.466   8.004 -0.1870  0.6059  0.1511
  616MOL0     C81192   3.797   7.568   7.977  0.4509 -0.9556  0.4765
  616MOL0     C81193   3.947   7.515   7.995  0.2907  0.4626 -0.3734
  616MOL0     C81194   3.962   7.435   8.129 -1.2502  1.2131 -0.0417
  616MOL0     C81195   4.110   7.418   8.161  0.1975  0.4060  0.6355
  616MOL0     C81196   4.115   7.322   8.284  0.2554  1.0823 -0.8129
  616MOL0     N81197   4.253   7.297   8.327  0.5753 -0.0730 -0.5200
  616MOL0     C81198   4.353   7.275   8.235 -1.1804  0.9519 -1.0972
  616MOL0     C81199   4.462   7.300   8.309 -0.2145 -0.3659 -0.2001
  616MOL0     C81200   4.601   7.292   8.264  0.6480  1.1386  0.6783
  616MOL0     C81201   4.667   7.189   8.352  0.2891  0.4761  1.5438
  616MOL0     C81202   4.626   7.042   8.324  0.5062  0.0045  0.2698
  616MOL0     C81203   4.654   6.985   8.194 -0.0529 -0.2851 -0.5558
  616MOL0     O81204   4.531   6.997   8.109  0.2100 -0.0896 -0.0607
  616MOL0     C81205   4.545   7.016   7.975  0.1862  1.4371  0.6989
  616MOL0     C81206   4.424   7.019   7.899  0.6224 -0.0566  0.1619
  616MOL0     C81207   4.435   7.024   7.758 -0.8700 -0.0805 -0.4197
  616MOL0     C81208   4.564   7.022   7.695 -0.3191  0.5881  0.1016
  616MOL0     C81209   4.569   7.022   7.545 -0.2854 -0.3040  0.4583
  616MOL0     O81210   4.678   6.966   7.491 -0.1198 -0.4007  0.6419
  616MOL0     C81211   4.700   6.967   7.354  0.6595  0.7261 -0.4693
  616MOL0     C81212   4.646   7.053   7.259  0.5707  0.6356 -0.2295
  616MOL0     C81213   4.677   7.036   7.123 -0.0138  0.0392  0.2788
  616MOL0     C81214   4.754   6.934   7.066 -0.0836 -0.3700 -0.0403
  616MOL0     O81215   4.786   6.927   6.936 -0.1783  0.0085  0.5064
  616MOL0     C81216   4.716   7.013   6.841 -0.3007 -0.2667 -0.7489
  616MOL0     C81217   4.767   6.974   6.703  0.2020 -0.2006 -0.7111
  616MOL0     C81218   4.694   7.066   6.604  1.3533  0.0228 -0.0522
  616MOL0     C81219   4.756   7.048   6.470 -0.7785 -0.1239  0.9545
  616MOL0     C81220   4.667   7.108   6.354 -0.8772  0.1732  0.1845
  616MOL0     C81221   4.746   7.123   6.224 -0.1323 -0.2000  0.2566
  616MOL0     C81222   4.641   7.167   6.112  0.4762 -0.4817 -0.3816
  616MOL0     C81223   4.602   7.316   6.121 -0.1416 -0.7154 -0.4149
  616MOL0    Cl81224   4.511   7.382   5.985 -0.7155 -0.1837  0.0852
  616MOL0     C81225   4.801   6.837   7.163 -0.9026 -0.5936  0.0058
  616MOL0     C81226   4.777   6.856   7.303  0.4431 -0.0978  0.2820
  616MOL0     O81227   4.462   7.045   7.482 -0.4648 -0.1302  0.4859
  616MOL0     C81228   4.676   6.997   7.767 -0.7243  0.1240 -0.0690
  616MOL0     C81229   4.673   7.012   7.903  0.2973  0.4646 -0.8902
  616MOL0     N81230   4.433   7.340   8.442  0.4465  0.0746 -0.3770
  616MOL0     N81231   4.302   7.344   8.449  0.7972  0.4812 -0.7641
  616MOL0     C81232   3.224   7.273   7.908  0.5287 -0.4363 -0.3126
  616MOL0     C81233   3.103   7.208   7.883  0.3258  0.0316  0.4245
  616MOL0     C81234   2.640   7.115   7.834 -0.5367  0.2149  0.3285
  616MOL0     C81235   2.662   6.980   7.799 -0.6788 -0.3619 -0.4016
  616MOL0     C81236   2.567   6.898   7.734 -0.8402 -0.5023 -0.4242
  616MOL0     C81237   2.453   6.955   7.686 -0.0534  0.1651 -0.8257
  616MOL0     O81238   2.370   6.874   7.613 -0.2978 -0.2450 -0.6629
  616MOL0     C81239   2.243   6.919   7.579  0.5197  0.1011  0.2955
  616MOL0     C81240   2.181   6.813   7.487  0.7272 -0.8333 -0.6221
  616MOL0     C81241   2.032   6.847   7.462  0.5579 -0.2149  0.4837
  616MOL0     C81242   1.982   6.754   7.364  0.0989  0.3653  0.1743
  616MOL0     C81243   1.847   6.796   7.314 -0.1304 -0.5182 -0.0133
  616MOL0     C81244   1.739   6.835   7.275  0.0676  0.5018  0.1669
  616MOL0     C81245   2.428   7.093   7.720 -0.6280  0.0079 -0.0111
  616MOL0     C81246   2.515   7.169   7.792 -0.4427  0.7174  0.1077
  616MOL0     H81247   2.899   7.462   7.958 -0.0426 -1.9658  2.4795
  616MOL0     H81248   3.098   7.568   8.000 -3.3546 -1.0029  2.5828
  616MOL0     H81249   3.487   7.339   7.891 -0.4664 -2.1014  1.9516
  616MOL0     H81250   3.458   7.349   8.060  0.3853  0.5172 -0.4267
  616MOL0     H81251   3.535   7.598   8.041  0.8519 -2.5455  3.8015
  616MOL0     H81252   3.564   7.568   7.862  0.9053 -0.3316 -0.3930
  616MOL0     H81253   3.719   7.381   7.943  3.4218  2.2469 -0.5412
  616MOL0     H81254   3.694   7.433   8.108  5.3563 -0.7616 -0.3126
  616MOL0     H81255   3.791   7.601   7.873  1.2097 -1.7703  0.1711
  616MOL0     H81256   3.778   7.648   8.050 -1.4086 -2.0487  1.2689
  616MOL0     H81257   4.020   7.596   7.990  0.0060  0.6752 -1.6285
  616MOL0     H81258   3.970   7.452   7.908 -4.0996 -1.9170 -0.1137
  616MOL0     H81259   3.934   7.334   8.098  1.8319  0.7914 -1.8968
  616MOL0     H81260   3.930   7.471   8.227  1.6822 -0.1157  1.5372
  616MOL0     H81261   4.157   7.368   8.075 -0.5255  1.7625 -0.6077
  616MOL0     H81262   4.166   7.510   8.177  2.6353 -1.1669  1.6459
  616MOL0     H81263   4.065   7.232   8.245 -0.6353  0.1943  2.1329
  616MOL0     H81264   4.063   7.369   8.368  1.9148  1.4916  0.0099
  616MOL0     H81265   4.349   7.234   8.135 -2.2025  0.5972 -0.9183
  616MOL0     H81266   4.655   7.383   8.290  1.6680  0.1579  2.2213
  616MOL0     H81267   4.612   7.267   8.159  2.7402  1.0995  0.8678
  616MOL0     H81268   4.652   7.211   8.458 -0.5614 -0.6119  1.6659
  616MOL0     H81269   4.774   7.181   8.328 -0.2307 -2.4410 -0.2560
  616MOL0     H81270   4.681   6.970   8.386  2.2296 -0.6943 -1.9273
  616MOL0     H81271   4.517   7.033   8.334  0.3528  0.0970 -1.0822
  616MOL0     H81272   4.679   6.879   8.192  0.8201 -0.2026  2.0775
  616MOL0     H81273   4.742   7.041   8.161  1.2444 -0.0803  2.8066
  616MOL0     H81274   4.325   7.022   7.943 -0.4983 -2.5924 -1.9524
  616MOL0     H81275   4.348   7.027   7.692 -2.0140 -1.6739  0.9457
  616MOL0     H81276   4.597   7.144   7.291  4.7035  2.0058  3.2097
  616MOL0     H81277   4.627   7.104   7.055  1.0847 -0.5732 -1.1917
  616MOL0     H81278   4.741   7.118   6.858 -1.4273  0.3220 -2.4844
  616MOL0     H81279   4.610   6.992   6.857  0.5713 -3.7297  1.8808
  616MOL0     H81280   4.728   6.872   6.694  0.0580 -0.2525  0.4268
  616MOL0     H81281   4.876   6.971   6.693  0.4154 -1.6954  1.4584
  616MOL0     H81282   4.714   7.170   6.629  2.2464  0.9626 -3.9818
  616MOL0     H81283   4.585   7.055   6.608  1.1765  1.8720  2.3491
  616MOL0     H81284   4.853   7.098   6.478 -1.3852  1.3322 -0.2970
  616MOL0     H81285   4.771   6.942   6.444 -0.7036  0.6108 -2.4270
  616MOL0     H81286   4.626   7.204   6.386 -1.5859 -1.2785  4.2600
  616MOL0     H81287   4.588   7.034   6.338 -1.6135  1.0842 -0.5094
  616MOL0     H81288   4.794   7.026   6.203 -0.9731 -1.1127  2.3281
  616MOL0     H81289   4.813   7.208   6.241  1.0449 -1.3316  1.5283
  616MOL0     H81290   4.679   7.154   6.011 -0.6166  0.6426 -0.9747
  616MOL0     H81291   4.546   7.113   6.109  0.0061  0.3682 -1.2505
  616MOL0     H81292   4.689   7.380   6.136  1.7499 -2.8399 -1.6186
  616MOL0     H81293   4.543   7.325   6.212 -0.5099 -1.7381 -0.5298
  616MOL0     H81294   4.850   6.748   7.124  1.8569  0.3487  1.1079
  616MOL0     H81295   4.807   6.779   7.373 -2.6982  0.1548  2.1012
  616MOL0     H81296   4.764   6.969   7.709 -2.6963 -0.8974 -2.8030
  616MOL0     H81297   4.766   6.996   7.956  0.2729 -0.9157 -1.2088
  616MOL0     H81298   3.311   7.212   7.885  1.0199 -0.4400  1.3976
  616MOL0     H81299   3.109   7.108   7.840  1.2709  0.3934 -0.3144
  616MOL0     H81300   2.749   6.919   7.823  0.9619 -0.3234 -5.1597
  616MOL0     H81301   2.607   6.798   7.722  3.1890  0.5652  2.0784
  616MOL0     H81302   2.248   7.012   7.521 -3.2776  0.4351  0.2704
  616MOL0     H81303   2.178   6.924   7.667  2.5704  0.7963  1.8366
  616MOL0     H81304   2.238   6.822   7.393  1.2158 -1.4626 -0.3911
  616MOL0     H81305   2.196   6.720   7.543 -0.9080 -1.1249 -0.6410
  616MOL0     H81306   2.001   6.947   7.431 -0.1045 -0.0167  1.7096
  616MOL0     H81307   1.982   6.839   7.559 -2.1009 -1.9924 -0.9090
  616MOL0     H81308   2.056   6.739   7.285 -0.7165 -2.4589 -0.1951
  616MOL0     H81309   1.971   6.655   7.411 -0.9617  0.6490  0.5463
  616MOL0     H81310   1.647   6.882   7.246 -0.2054  0.8080  1.4488
  616MOL0     H81311   2.334   7.139   7.691  0.9072  2.0230 -2.1543
  616MOL0     H81312   2.480   7.265   7.829 -0.9785  0.0464  1.4080
  617MOL0     O81313  10.564   2.218   8.362  0.5497  0.0947 -0.4698
  617MOL0     C81314  10.657   2.289   8.319 -0.3152  0.2011  0.3191
  617MOL0     O81315  10.678   2.424   8.335  0.3651  0.1574 -0.3355
  617MOL0     C81316  10.594   2.498   8.420  0.1490 -0.8832 -0.1022
  617MOL0     C81317  10.597   2.640   8.389 -1.7140  0.1650  0.6111
  617MOL0     C81318  10.514   2.728   8.454  0.5933 -0.1479 -0.0669
  617MOL0     C81319  10.422   2.682   8.542  0.0699 -0.9229  0.2035
  617MOL0     O81320  10.340   2.776   8.593  1.3930 -0.0929 -0.3947
  617MOL0     C81321  10.217   2.729   8.656 -0.4678 -0.8064 -0.2665
  617MOL0     C81322  10.123   2.831   8.651  0.8633  0.6855 -0.1477
  617MOL0     C81323  10.012   2.815   8.756 -0.0523 -0.5539 -0.8246
  617MOL0     C81324   9.925   2.944   8.773 -0.0685 -0.1323  0.2987
  617MOL0     C81325   9.808   2.916   8.873 -0.4287 -0.0160  0.6963
  617MOL0     C81326   9.703   3.035   8.867 -0.6713  0.0604  0.9525
  617MOL0     C81327   9.598   3.025   8.975  0.7988  0.0204  0.6454
  617MOL0     C81328   9.514   3.146   9.006  0.6395 -0.0631  1.0587
  617MOL0     N81329   9.445   3.193   8.881 -0.2702  0.0640  0.0432
  617MOL0     C81330   9.497   3.257   8.776  0.6026 -0.0466  0.2537
  617MOL0     C81331   9.403   3.256   8.684  0.2019 -0.1591 -0.9344
  617MOL0     C81332   9.395   3.331   8.559  0.3121  0.5018 -0.1608
  617MOL0     C81333   9.523   3.396   8.502  0.5804  0.2892 -0.1116
  617MOL0     C81334   9.503   3.465   8.365  0.2094  0.2312  0.1987
  617MOL0     C81335   9.407   3.581   8.374 -0.3133 -0.4091  0.2874
  617MOL0     O81336   9.459   3.692   8.447  0.0665  0.2937 -0.3689
  617MOL0     C81337   9.385   3.794   8.501  0.7170 -0.2791  0.8354
  617MOL0     C81338   9.239   3.787   8.499 -0.5435  0.0500 -0.2555
  617MOL0     C81339   9.170   3.886   8.571  0.6250  0.5339  0.5832
  617MOL0     C81340   9.237   3.995   8.631  0.0060 -0.9351  0.7389
  617MOL0     C81341   9.154   4.101   8.691 -0.2344 -0.6718 -0.5637
  617MOL0     O81342   9.019   4.093   8.673  0.2720 -0.6200  0.3120
  617MOL0     C81343   8.935   4.189   8.726  0.1553  0.6478 -0.2272
  617MOL0     C81344   8.956   4.260   8.850  0.1376 -0.6686 -0.5259
  617MOL0     C81345   8.863   4.356   8.890 -0.4679 -0.6765  0.7110
  617MOL0     C81346   8.751   4.390   8.810  0.8859  0.0610 -0.2124
  617MOL0     O81347   8.640   4.472   8.830 -0.2100 -0.5084 -0.0426
  617MOL0     C81348   8.637   4.539   8.957 -1.0707 -0.2369 -0.5119
  617MOL0     C81349   8.488   4.556   9.009  0.5989  0.2116 -0.2052
  617MOL0     C81350   8.483   4.593   9.167  0.7112  0.5700  0.3170
  617MOL0     C81351   8.553   4.720   9.194 -0.0598 -0.4880 -0.0691
  617MOL0     C81352   8.617   4.730   9.330 -0.4824  0.3219 -0.0896
  617MOL0     C81353   8.520   4.702   9.445 -0.2427 -0.0095  0.3731
  617MOL0     C81354   8.578   4.739   9.575  0.0816  1.1453 -0.1631
  617MOL0     C81355   8.549   4.629   9.685  0.8655 -1.4266  0.2327
  617MOL0    Cl81356   8.374   4.596   9.683 -0.1034  0.0461  0.1731
  617MOL0     C81357   8.741   4.324   8.684  0.2476  0.1329  0.5142
  617MOL0     C81358   8.827   4.229   8.649  1.0681  0.2021  0.3762
  617MOL0     O81359   9.212   4.197   8.743  0.3966  0.5104 -0.2154
  617MOL0     C81360   9.378   3.991   8.631  0.1449  0.1189  0.1585
  617MOL0     C81361   9.446   3.899   8.556  0.5664  0.0229 -0.0545
  617MOL0     N81362   9.287   3.208   8.740  0.6975 -0.1384 -0.3593
  617MOL0     N81363   9.317   3.174   8.861  0.9657 -1.2864  0.6440
  617MOL0     C81364  10.420   2.550   8.571  0.3611  0.9681  0.4199
  617MOL0     C81365  10.511   2.459   8.517 -0.2788  0.3449 -0.6894
  617MOL0     C81366  10.771   2.211   8.286 -0.7571  1.2206  0.1118
  617MOL0     C81367  10.904   2.275   8.251  0.1528 -0.4982 -0.1903
  617MOL0     C81368  11.010   2.204   8.206 -0.2854 -0.5943 -0.2189
  617MOL0     C81369  11.011   2.061   8.208 -0.0709  0.9242 -0.4173
  617MOL0     O81370  11.126   1.997   8.166 -0.5208  0.4189 -0.2114
  617MOL0     C81371  11.139   1.850   8.181 -0.1671 -0.2784  0.7214
  617MOL0     C81372  11.127   1.776   8.040  0.8925  0.0403  0.2979
  617MOL0     C81373  11.254   1.743   7.981  0.8388 -0.0577 -1.4039
  617MOL0     C81374  11.348   1.851   7.966  0.4445 -0.4425  0.4548
  617MOL0     C81375  11.472   1.773   7.922  0.1947 -1.4507  0.1156
  617MOL0     C81376  11.565   1.707   7.884  0.4402  0.0770 -0.1661
  617MOL0     C81377  10.888   1.997   8.241 -0.0299  0.0564  0.6580
  617MOL0     C81378  10.774   2.072   8.278 -0.2584 -0.1779  0.4222
  617MOL0     H81379  10.662   2.681   8.313 -1.4225  0.5464  1.0579
  617MOL0     H81380  10.531   2.835   8.456  0.4842 -0.0709 -1.7333
  617MOL0     H81381  10.236   2.708   8.761 -4.7376  1.5761  1.2304
  617MOL0     H81382  10.175   2.636   8.617  1.7947 -2.2975  0.6414
  617MOL0     H81383  10.079   2.828   8.551 -0.5847  2.7537  0.3652
  617MOL0     H81384  10.162   2.933   8.663  1.9408  0.1166  1.6038
  617MOL0     H81385  10.058   2.802   8.854  0.5486  0.8616 -0.8989
  617MOL0     H81386   9.946   2.729   8.742 -1.2449 -0.1631  1.7541
  617MOL0     H81387   9.989   3.026   8.810  0.2820 -1.3831  2.6363
  617MOL0     H81388   9.888   2.972   8.673  0.6527  1.5939  0.4680
  617MOL0     H81389   9.858   2.908   8.969 -0.3300  3.6010  1.0976
  617MOL0     H81390   9.754   2.825   8.845 -0.0212  0.2284 -1.0389
  617MOL0     H81391   9.653   3.052   8.771 -3.8525  1.7775  2.7470
  617MOL0     H81392   9.764   3.123   8.891 -0.4975 -0.1237  1.1869
  617MOL0     H81393   9.523   2.951   8.943  0.5484 -0.8633  3.1175
  617MOL0     H81394   9.635   2.983   9.068  2.4189 -0.1037 -0.0196
  617MOL0     H81395   9.586   3.216   9.049  0.9736  1.6942 -2.0648
  617MOL0     H81396   9.433   3.128   9.078 -1.9850 -2.3151 -2.1757
  617MOL0     H81397   9.585   3.318   8.760 -0.8115  1.3727 -3.0451
  617MOL0     H81398   9.318   3.407   8.575 -1.2479 -1.3528  1.9122
  617MOL0     H81399   9.348   3.257   8.493  1.7938 -0.0839 -0.5952
  617MOL0     H81400   9.592   3.313   8.482 -1.1806 -1.6715  1.5330
  617MOL0     H81401   9.575   3.468   8.566  0.2192  2.4340 -2.0514
  617MOL0     H81402   9.604   3.500   8.341 -0.0352  1.3471  0.7128
  617MOL0     H81403   9.461   3.399   8.289  0.0029  1.2634 -0.5934
  617MOL0     H81404   9.318   3.524   8.405 -0.3598 -1.9074 -2.3267
  617MOL0     H81405   9.395   3.624   8.274  2.1917  1.6104  0.7850
  617MOL0     H81406   9.195   3.708   8.438  2.8091 -1.2585 -1.2195
  617MOL0     H81407   9.063   3.869   8.563  0.8359  0.0976 -2.3425
  617MOL0     H81408   9.032   4.227   8.919  0.2722 -2.4676 -1.4885
  617MOL0     H81409   8.892   4.419   8.974  0.0992  2.8927 -1.9132
  617MOL0     H81410   8.680   4.639   8.944  2.3681 -1.3377  1.0345
  617MOL0     H81411   8.702   4.499   9.036  1.3579  0.8507 -1.8263
  617MOL0     H81412   8.431   4.464   8.992  0.8261  0.0537 -0.1227
  617MOL0     H81413   8.432   4.639   8.966 -1.6615 -0.9265  0.3604
  617MOL0     H81414   8.531   4.514   9.226  1.7332  0.3885 -0.7072
  617MOL0     H81415   8.392   4.590   9.227  1.3546  1.6438  1.3901
  617MOL0     H81416   8.636   4.744   9.127 -0.2941  2.2988  0.5594
  617MOL0     H81417   8.481   4.800   9.177  0.0962  0.2972  2.6021
  617MOL0     H81418   8.656   4.831   9.344  2.2758 -0.5933 -0.5120
  617MOL0     H81419   8.698   4.659   9.349  1.5558  1.7498 -2.8732
  617MOL0     H81420   8.486   4.598   9.445 -4.5410  1.1808 -0.6482
  617MOL0     H81421   8.435   4.768   9.426  2.0095  3.4866  1.5208
  617MOL0     H81422   8.687   4.748   9.567  0.0526  0.9919 -0.6964
  617MOL0     H81423   8.543   4.837   9.608  1.5827  1.6404  0.0333
  617MOL0     H81424   8.581   4.652   9.787 -0.2996 -1.7047  0.6825
  617MOL0     H81425   8.599   4.539   9.649  2.2371 -0.8060  0.5252
  617MOL0     H81426   8.653   4.350   8.626  1.6057  2.3918 -0.6912
  617MOL0     H81427   8.826   4.190   8.547 -0.3185  0.9695  0.0681
  617MOL0     H81428   9.425   4.079   8.673  0.9577 -0.2805  0.1150
  617MOL0     H81429   9.553   3.898   8.543  0.7855 -0.5673  1.6115
  617MOL0     H81430  10.346   2.514   8.642 -1.8630  0.9866 -1.7528
  617MOL0     H81431  10.504   2.362   8.563 -2.1916  1.0821  0.6776
  617MOL0     H81432  10.908   2.384   8.251 -0.0695 -0.4803  1.1865
  617MOL0     H81433  11.100   2.255   8.173 -1.0787  0.4837 -0.7821
  617MOL0     H81434  11.066   1.804   8.248 -2.4776 -0.7899 -1.9163
  617MOL0     H81435  11.237   1.834   8.226 -0.4683 -1.7799  0.8697
  617MOL0     H81436  11.068   1.684   8.051 -0.1046 -0.4280 -5.4577
  617MOL0     H81437  11.071   1.835   7.967  2.0795 -0.3614 -0.9859
  617MOL0     H81438  11.235   1.679   7.894 -2.1727  1.8126 -2.2878
  617MOL0     H81439  11.289   1.682   8.064 -3.4761 -0.0123  0.7285
  617MOL0     H81440  11.304   1.924   7.897 -1.5414 -3.5252 -1.8152
  617MOL0     H81441  11.370   1.898   8.062  0.5299 -0.1623  0.3003
  617MOL0     H81442  11.654   1.649   7.869  0.8054  0.8750 -1.2406
  617MOL0     H81443  10.887   1.890   8.254 -0.7076  0.2075  2.1383
  617MOL0     H81444  10.692   2.009   8.310 -1.0404  1.1129  1.0424
  618MOL0     O81445   3.025   1.937   0.194  0.2193  1.5348  0.4709
  618MOL0     C81446   3.073   1.932   0.300  0.5604 -0.4615  0.0577
  618MOL0     O81447   3.089   1.829   0.383  1.2793 -0.4670 -0.5743
  618MOL0     C81448   3.071   1.707   0.333 -0.1435  0.2719 -0.7858
  618MOL0     C81449   3.181   1.646   0.276  0.4523 -0.6668  0.7484
  618MOL0     C81450   3.177   1.526   0.216 -0.9809 -0.1027 -0.4724
  618MOL0     C81451   3.055   1.461   0.227  0.4566  0.3600 -0.0867
  618MOL0     O81452   3.042   1.333   0.203 -0.2074  0.9965  1.0067
  618MOL0     C81453   3.125   1.272   0.098 -1.1997  0.4506 -0.9538
  618MOL0     C81454   3.084   1.128   0.044  0.9823  0.0390 -0.8255
  618MOL0     C81455   3.141   1.108  -0.092 -0.3111  0.2608 -0.1971
  618MOL0     C81456   3.165   0.968  -0.143  0.5564 -0.0823 -0.5645
  618MOL0     C81457   3.212   0.946  -0.281 -0.4219  0.1086  0.6760
  618MOL0     C81458   3.241   0.796  -0.307  0.0791 -0.7829  0.7573
  618MOL0     C81459   3.204   0.768  -0.463  0.3209 -1.0006 -1.1172
  618MOL0     C81460   3.217   0.615  -0.487 -0.3117  0.1866  0.2318
  618MOL0     N81461   3.225   0.585  -0.630  0.6321  0.1807  0.1253
  618MOL0     C81462   3.343   0.580  -0.693 -0.5927  0.2126 -0.0041
  618MOL0     C81463   3.319   0.524  -0.806  1.1307 -0.6414  0.3791
  618MOL0     C81464   3.411   0.514  -0.929  0.7950  1.1988 -0.3004
  618MOL0     C81465   3.507   0.631  -0.939 -0.4188 -0.4425 -0.5086
  618MOL0     C81466   3.579   0.609  -1.080 -0.0814 -0.0661  0.2497
  618MOL0     C81467   3.639   0.746  -1.119  0.5971 -0.4387 -0.5694
  618MOL0     O81468   3.679   0.746  -1.258 -0.1428  0.2686 -0.0901
  618MOL0     C81469   3.799   0.683  -1.300  0.1977  0.0213  0.4862
  618MOL0     C81470   3.829   0.694  -1.436  0.2798  0.8783  0.4260
  618MOL0     C81471   3.923   0.603  -1.491  0.2481  0.7369  1.1434
  618MOL0     C81472   4.017   0.532  -1.409  0.4682 -0.1537  0.3038
  618MOL0     C81473   4.128   0.449  -1.476 -0.4322 -0.0407 -0.8048
  618MOL0     O81474   4.236   0.438  -1.396  0.0345 -0.4813  0.3075
  618MOL0     C81475   4.353   0.397  -1.446 -0.1398 -0.0745  1.3982
  618MOL0     C81476   4.455   0.356  -1.366  0.6529 -0.8170 -0.1872
  618MOL0     C81477   4.587   0.344  -1.400 -0.6618 -0.0167  0.8928
  618MOL0     C81478   4.629   0.356  -1.532 -1.3456  0.0159 -0.8976
  618MOL0     O81479   4.761   0.354  -1.571  0.1553 -0.5062 -0.4884
  618MOL0     C81480   4.805   0.479  -1.632  0.5716 -0.4357  0.1916
  618MOL0     C81481   4.836   0.471  -1.786  0.2103  0.5960 -0.2055
  618MOL0     C81482   4.809   0.597  -1.865  0.1788  0.2715 -1.1593
  618MOL0     C81483   4.892   0.714  -1.800  0.5369  1.0279  0.2658
  618MOL0     C81484   4.885   0.842  -1.879 -0.2766  0.2163 -0.5165
  618MOL0     C81485   4.931   0.825  -2.021 -0.3760 -0.3454  1.1997
  618MOL0     C81486   5.005   0.952  -2.068  0.5578  0.8722 -1.0872
  618MOL0     C81487   4.921   1.084  -2.064  0.2012  0.5636 -0.2629
  618MOL0    Cl81488   4.747   1.059  -2.097  0.2533 -0.0033 -0.0788
  618MOL0     C81489   4.530   0.376  -1.633  0.2368  0.2363 -0.0246
  618MOL0     C81490   4.397   0.409  -1.586 -0.4043  0.2966  0.2884
  618MOL0     O81491   4.102   0.386  -1.565  0.6818  0.2317  0.1526
  618MOL0     C81492   4.003   0.545  -1.264  0.4371 -1.2538  0.3029
  618MOL0     C81493   3.886   0.606  -1.217  0.0824  0.0664 -0.2962
  618MOL0     N81494   3.184   0.500  -0.819 -0.2047  0.6206  0.1518
  618MOL0     N81495   3.130   0.528  -0.709  0.6393  0.8941 -0.9424
  618MOL0     C81496   2.933   1.522   0.268  0.7364  0.7029 -0.1792
  618MOL0     C81497   2.947   1.645   0.327 -0.7623  0.5253 -0.7538
  618MOL0     C81498   3.142   2.061   0.339 -1.0004  0.1882 -0.6563
  618MOL0     C81499   3.131   2.182   0.263  0.0484 -0.8257  0.5979
  618MOL0     C81500   3.191   2.299   0.308  0.5004 -0.3808  0.1894
  618MOL0     C81501   3.274   2.305   0.423  0.4285  0.3418 -0.0366
  618MOL0     O81502   3.341   2.417   0.435  0.6109 -0.7741 -0.1726
  618MOL0     C81503   3.427   2.434   0.549  0.2405  1.1304  0.1664
  618MOL0     C81504   3.480   2.572   0.574 -0.8363 -0.0427 -0.1719
  618MOL0     C81505   3.581   2.625   0.470 -0.0795 -0.5969 -1.0061
  618MOL0     C81506   3.583   2.779   0.477  0.4327  0.6871  0.1559
  618MOL0     C81507   3.687   2.825   0.388  0.0016 -0.1040  0.0406
  618MOL0     C81508   3.769   2.868   0.313  0.5385  0.4725  1.0749
  618MOL0     C81509   3.293   2.184   0.491  0.0916 -0.6469  0.1756
  618MOL0     C81510   3.223   2.071   0.454  0.9978  0.4745  0.0234
  618MOL0     H81511   3.271   1.707   0.273 -2.6439  4.6470  1.8600
  618MOL0     H81512   3.259   1.483   0.160 -1.7679 -1.5768 -0.5446
  618MOL0     H81513   3.226   1.278   0.138 -2.0488  0.4170  1.3553
  618MOL0     H81514   3.135   1.344   0.016 -0.9936  1.8938  0.2826
  618MOL0     H81515   2.976   1.116   0.036  1.3044 -2.9829 -1.9584
  618MOL0     H81516   3.115   1.047   0.111  1.0886  0.0259 -0.8901
  618MOL0     H81517   3.237   1.160  -0.105  0.0831 -0.5197 -0.4955
  618MOL0     H81518   3.069   1.157  -0.158 -3.1007  1.1065  3.1453
  618MOL0     H81519   3.232   0.923  -0.068 -4.4906 -1.3833  3.7762
  618MOL0     H81520   3.076   0.906  -0.132  1.1070 -0.5464  1.7918
  618MOL0     H81521   3.295   1.013  -0.307 -1.0548  0.7020  0.1538
  618MOL0     H81522   3.130   0.976  -0.347  0.1867  1.4471  0.5134
  618MOL0     H81523   3.179   0.727  -0.249  1.1690 -3.4759 -1.0318
  618MOL0     H81524   3.349   0.780  -0.301  0.3601  0.1240 -1.1126
  618MOL0     H81525   3.103   0.802  -0.483  0.7449  1.6890  0.7964
  618MOL0     H81526   3.262   0.828  -0.533  0.8317 -1.3929 -1.0431
  618MOL0     H81527   3.124   0.574  -0.447 -0.6850  3.9396  3.9110
  618MOL0     H81528   3.300   0.575  -0.428 -3.0657 -2.1706  2.8594
  618MOL0     H81529   3.437   0.618  -0.655 -0.2410 -0.5072 -0.1302
  618MOL0     H81530   3.344   0.507  -1.015  0.2014 -1.5547  0.2843
  618MOL0     H81531   3.450   0.412  -0.922  1.6759  1.5400 -0.1430
  618MOL0     H81532   3.576   0.630  -0.854  0.9844  0.4611 -1.5848
  618MOL0     H81533   3.452   0.725  -0.948  0.2346 -0.2845 -4.7609
  618MOL0     H81534   3.661   0.539  -1.059  0.2127  0.8232  2.4081
  618MOL0     H81535   3.505   0.576  -1.153  1.3519 -0.9028 -0.8971
  618MOL0     H81536   3.727   0.766  -1.056 -1.1633  0.6485  1.7179
  618MOL0     H81537   3.573   0.829  -1.091 -0.6727 -1.6535  0.1715
  618MOL0     H81538   3.763   0.762  -1.489 -0.9634  2.4349  3.6887
  618MOL0     H81539   3.932   0.590  -1.598  1.0901  1.2079  1.1500
  618MOL0     H81540   4.438   0.325  -1.263  2.0232 -0.3298  0.2059
  618MOL0     H81541   4.670   0.327  -1.332  1.9801 -3.7846 -2.6987
  618MOL0     H81542   4.905   0.499  -1.593  1.8408  1.0848 -3.3692
  618MOL0     H81543   4.743   0.568  -1.618  0.5531 -0.7319  2.1875
  618MOL0     H81544   4.766   0.398  -1.828  1.1516 -0.6335  0.3033
  618MOL0     H81545   4.941   0.442  -1.803  0.4225  0.5004  1.1602
  618MOL0     H81546   4.703   0.623  -1.852 -0.1312 -1.3533 -0.1494
  618MOL0     H81547   4.834   0.569  -1.968  0.2498 -0.2457 -1.0031
  618MOL0     H81548   4.853   0.737  -1.701  0.6015 -0.8211  0.7462
  618MOL0     H81549   4.996   0.681  -1.792  0.2117 -0.1307 -0.1614
  618MOL0     H81550   4.934   0.922  -1.824  0.0817 -1.6765  2.1221
  618MOL0     H81551   4.783   0.883  -1.881  0.8001  3.0681 -1.2886
  618MOL0     H81552   4.849   0.802  -2.089 -1.5829  1.3561  2.0291
  618MOL0     H81553   4.995   0.737  -2.034  0.8832  0.7655 -0.5336
  618MOL0     H81554   5.092   0.975  -2.005 -1.7988  0.8488  2.4481
  618MOL0     H81555   5.044   0.937  -2.169  0.0715 -0.9502 -1.0371
  618MOL0     H81556   4.954   1.170  -2.122  0.1256  1.9262  1.6242
  618MOL0     H81557   4.924   1.107  -1.957  2.6295 -1.4383  0.2272
  618MOL0     H81558   4.545   0.396  -1.739 -3.4287  2.1284 -0.3455
  618MOL0     H81559   4.324   0.436  -1.662 -2.3315 -1.3724  1.4396
  618MOL0     H81560   4.071   0.504  -1.190  2.3502  1.0413 -0.0784
  618MOL0     H81561   3.882   0.613  -1.108  0.7509 -3.9581  0.1580
  618MOL0     H81562   2.844   1.460   0.263  0.4427  1.0428  0.7187
  618MOL0     H81563   2.871   1.702   0.380  2.2006  3.5324  0.6205
  618MOL0     H81564   3.059   2.169   0.183  0.7886  0.0401 -0.2240
  618MOL0     H81565   3.174   2.394   0.257  1.4841  0.7978  1.9369
  618MOL0     H81566   3.505   2.360   0.529 -1.0268  0.7069 -4.1544
  618MOL0     H81567   3.361   2.413   0.634  1.4071  3.3572  1.7321
  618MOL0     H81568   3.394   2.637   0.591  0.6264  1.4986  1.8392
  618MOL0     H81569   3.527   2.568   0.673  0.6833 -0.9639 -0.8886
  618MOL0     H81570   3.547   2.597   0.369  0.4165  2.4040 -2.1098
  618MOL0     H81571   3.676   2.585   0.505 -0.6991 -2.2766 -1.1583
  618MOL0     H81572   3.482   2.809   0.448  0.6631  1.5038  0.1904
  618MOL0     H81573   3.595   2.824   0.576 -2.2288  0.6688  0.5566
  618MOL0     H81574   3.848   2.896   0.247  0.2838 -0.7154  0.2463
  618MOL0     H81575   3.344   2.180   0.586  0.8328  1.7948 -0.0346
  618MOL0     H81576   3.223   1.985   0.519  2.1799  1.7939  1.8757
  619MOL0     O81577   5.811   5.948   6.208 -0.4856  0.5795 -0.4395
  619MOL0     C81578   5.697   5.981   6.232 -0.7875 -0.3477 -0.3129
  619MOL0     O81579   5.653   6.021   6.352 -0.8407 -0.9039  0.0907
  619MOL0     C81580   5.733   6.035   6.463 -0.4701 -0.1908 -1.4601
  619MOL0     C81581   5.870   5.989   6.483  0.7662  0.4720 -0.1253
  619MOL0     C81582   5.929   5.986   6.614  0.2249  0.1027  0.0645
  619MOL0     C81583   5.859   6.035   6.725 -0.0519 -0.3470  0.1814
  619MOL0     O81584   5.897   6.023   6.849 -0.0659 -0.0939  0.5414
  619MOL0     C81585   6.029   6.061   6.892 -0.2827 -0.1412 -0.1628
  619MOL0     C81586   6.011   6.130   7.030  0.2169  0.6599 -0.7123
  619MOL0     C81587   5.967   6.039   7.143 -0.6934  0.1886 -0.1103
  619MOL0     C81588   5.932   6.116   7.272 -1.2693  0.4262 -0.7043
  619MOL0     C81589   5.894   6.021   7.384 -0.2175 -0.1430 -0.5762
  619MOL0     C81590   5.886   6.103   7.520  0.3999 -0.3866 -1.5471
  619MOL0     C81591   5.833   6.013   7.636 -0.7725  0.0443  0.2968
  619MOL0     C81592   5.876   6.046   7.787  0.4371  0.6888  0.2756
  619MOL0     N81593   6.004   5.992   7.821  1.0635 -0.1223 -0.5582
  619MOL0     C81594   6.086   5.898   7.751  0.2985 -0.1625 -0.7222
  619MOL0     C81595   6.206   5.905   7.813  0.3764  0.5971 -0.0102
  619MOL0     C81596   6.321   5.818   7.767 -0.6467  0.3921  0.1021
  619MOL0     C81597   6.433   5.796   7.867 -0.4382  0.2072  0.3019
  619MOL0     C81598   6.519   5.682   7.830 -0.1693  1.0877 -0.7940
  619MOL0     C81599   6.548   5.599   7.955  0.1143  0.3640  0.0455
  619MOL0     O81600   6.613   5.471   7.918  0.0763 -0.0651 -0.1683
  619MOL0     C81601   6.626   5.365   8.008  0.1994  0.3739  0.5197
  619MOL0     C81602   6.649   5.237   7.968 -0.1937 -0.4846  0.1813
  619MOL0     C81603   6.678   5.130   8.047  0.0754  0.1662  0.1636
  619MOL0     C81604   6.661   5.146   8.189 -0.7366  0.3816 -0.1639
  619MOL0     C81605   6.689   5.030   8.286  0.7224 -0.1402  0.1718
  619MOL0     O81606   6.712   4.896   8.237 -0.0113 -0.7158 -0.1229
  619MOL0     C81607   6.719   4.795   8.332  0.0492  0.4769  0.4980
  619MOL0     C81608   6.821   4.792   8.431  1.0268 -0.9527  1.3610
  619MOL0     C81609   6.835   4.691   8.522 -0.4044  0.0464 -0.4792
  619MOL0     C81610   6.728   4.597   8.533  0.5144  0.2987 -0.6756
  619MOL0     O81611   6.718   4.487   8.624  0.2443 -0.8655  0.2325
  619MOL0     C81612   6.785   4.496   8.747  0.2867 -0.8192 -0.5011
  619MOL0     C81613   6.707   4.437   8.870  0.1510 -0.0485  0.0961
  619MOL0     C81614   6.573   4.497   8.909 -0.1529 -0.8181 -0.1127
  619MOL0     C81615   6.517   4.430   9.036  0.3532  0.4865 -0.8698
  619MOL0     C81616   6.375   4.489   9.062  1.2361  0.1624 -0.1510
  619MOL0     C81617   6.383   4.599   9.166  0.1465 -0.0478 -0.4993
  619MOL0     C81618   6.361   4.532   9.309  0.9476  0.0759 -0.4014
  619MOL0     C81619   6.371   4.634   9.412 -0.6490 -0.8804 -0.3678
  619MOL0    Cl81620   6.307   4.545   9.560  0.0966 -0.0575  0.2081
  619MOL0     C81621   6.622   4.598   8.442  0.1602  0.5572  0.9202
  619MOL0     C81622   6.618   4.698   8.346  0.3402  0.7825  0.4573
  619MOL0     O81623   6.677   5.055   8.409  0.1419 -0.9107  0.0216
  619MOL0     C81624   6.623   5.273   8.238  0.4263 -0.0586 -0.5819
  619MOL0     C81625   6.609   5.379   8.150 -0.9040 -0.8294  0.6291
  619MOL0     N81626   6.199   5.990   7.919  0.4439 -0.8270  0.5557
  619MOL0     N81627   6.082   6.041   7.927  0.0014 -0.5899 -0.5723
  619MOL0     C81628   5.736   6.097   6.698  0.1439 -0.4823  0.5300
  619MOL0     C81629   5.668   6.094   6.574  0.2607 -0.8956 -0.3710
  619MOL0     C81630   5.589   5.969   6.132  0.3293 -0.6254 -0.8986
  619MOL0     C81631   5.448   6.008   6.152  0.1287 -0.0007  0.1712
  619MOL0     C81632   5.366   5.983   6.039 -0.0287  0.0193  0.0061
  619MOL0     C81633   5.413   5.932   5.921  0.2288 -0.2818  0.5526
  619MOL0     O81634   5.325   5.914   5.817  0.7468 -0.3367  0.3984
  619MOL0     C81635   5.230   5.809   5.846  0.5622 -0.6236  0.8719
  619MOL0     C81636   5.194   5.727   5.724  0.7428 -1.0487 -0.3305
  619MOL0     C81637   5.301   5.696   5.622  0.3559  0.3659  0.2183
  619MOL0     C81638   5.394   5.605   5.685  0.0017 -0.0365  0.8269
  619MOL0     C81639   5.523   5.596   5.614  0.1235 -0.2391  1.2186
  619MOL0     C81640   5.621   5.572   5.548  0.1190  0.6274 -0.5439
  619MOL0     C81641   5.549   5.904   5.900  0.3118  0.3916 -0.3960
  619MOL0     C81642   5.634   5.925   6.010 -0.4559  1.1674 -0.7770
  619MOL0     H81643   5.927   5.927   6.414  0.0972 -0.5326  0.1970
  619MOL0     H81644   6.023   5.931   6.617  1.4641  2.1244  0.4725
  619MOL0     H81645   6.091   6.121   6.824  0.7402 -0.1294  0.7458
  619MOL0     H81646   6.090   5.975   6.922 -1.9304 -0.4214  2.8272
  619MOL0     H81647   5.943   6.215   7.023 -2.2923 -1.1841 -0.0880
  619MOL0     H81648   6.109   6.165   7.065  0.5931 -1.1519  0.1665
  619MOL0     H81649   6.047   5.968   7.165 -3.1329 -2.3680  1.0619
  619MOL0     H81650   5.878   5.985   7.109 -1.1407 -0.2779  1.7193
  619MOL0     H81651   6.016   6.183   7.293 -2.8584  2.6986 -1.2778
  619MOL0     H81652   5.852   6.188   7.253 -2.1581 -0.2316  0.4251
  619MOL0     H81653   5.969   5.944   7.405 -0.2099 -0.5252 -1.9385
  619MOL0     H81654   5.794   5.980   7.370 -1.5835  2.5774  0.5497
  619MOL0     H81655   5.826   6.194   7.509 -0.2958 -0.8739 -1.8814
  619MOL0     H81656   5.984   6.142   7.550 -0.1741 -2.3858  4.0049
  619MOL0     H81657   5.724   6.022   7.642 -0.6390  0.8680  2.6277
  619MOL0     H81658   5.850   5.910   7.604 -1.1222  0.7189 -2.3490
  619MOL0     H81659   5.819   6.010   7.873  0.7586 -1.8316 -0.4766
  619MOL0     H81660   5.894   6.154   7.784  2.7049  0.3570 -2.3526
  619MOL0     H81661   6.071   5.838   7.662 -0.8201  0.4405 -0.9702
  619MOL0     H81662   6.361   5.875   7.683 -0.1265  1.1457  0.8516
  619MOL0     H81663   6.283   5.721   7.734  3.5762 -1.3497 -0.2154
  619MOL0     H81664   6.372   5.777   7.955 -0.5752  0.2044  0.2072
  619MOL0     H81665   6.498   5.883   7.881 -1.9964  1.9170 -2.1758
  619MOL0     H81666   6.471   5.617   7.755 -0.4156 -1.2054  1.2217
  619MOL0     H81667   6.616   5.711   7.788  0.9796 -0.1499  0.8936
  619MOL0     H81668   6.453   5.565   7.997  0.0250  0.1679 -0.3139
  619MOL0     H81669   6.611   5.651   8.028  2.4032 -2.2841  0.0886
  619MOL0     H81670   6.649   5.213   7.862 -0.0837 -0.1412  0.1019
  619MOL0     H81671   6.712   5.039   8.000  0.7336  0.4264  0.1305
  619MOL0     H81672   6.900   4.865   8.445  0.4464  0.1851 -0.8440
  619MOL0     H81673   6.926   4.674   8.579 -0.8645  1.6355  0.8170
  619MOL0     H81674   6.811   4.602   8.758  0.3587 -0.6833 -1.7632
  619MOL0     H81675   6.883   4.449   8.737  0.6982  0.2942 -2.0730
  619MOL0     H81676   6.776   4.428   8.954 -1.7049 -0.1528  1.6681
  619MOL0     H81677   6.691   4.331   8.847 -0.4981  0.3159 -1.2575
  619MOL0     H81678   6.510   4.478   8.822  3.7790 -0.2303 -3.4075
  619MOL0     H81679   6.594   4.603   8.925  0.0111 -1.0644  1.3884
  619MOL0     H81680   6.523   4.321   9.026  3.0393  0.5208 -0.3610
  619MOL0     H81681   6.587   4.452   9.117  0.6590  0.0849 -1.0193
  619MOL0     H81682   6.320   4.403   9.102  0.7322  1.0267  1.0780
  619MOL0     H81683   6.326   4.526   8.971 -0.2662  1.6553  1.1871
  619MOL0     H81684   6.305   4.670   9.137  0.5922 -0.4554 -2.9215
  619MOL0     H81685   6.481   4.647   9.156  1.4890 -2.5869 -0.2532
  619MOL0     H81686   6.262   4.485   9.308 -0.8105  3.4323 -3.1658
  619MOL0     H81687   6.429   4.447   9.319 -1.1431 -1.7037 -0.5578
  619MOL0     H81688   6.313   4.722   9.384 -0.6379 -1.0751 -1.0110
  619MOL0     H81689   6.478   4.659   9.415 -1.0351  1.0017 -1.2415
  619MOL0     H81690   6.548   4.519   8.448  0.4472  0.0141 -1.6555
  619MOL0     H81691   6.532   4.683   8.283  0.5708 -5.3558  0.9571
  619MOL0     H81692   6.622   5.280   8.346 -0.9820  2.7350 -0.7034
  619MOL0     H81693   6.583   5.479   8.182  1.3665 -0.0211  0.1439
  619MOL0     H81694   5.690   6.135   6.789  3.3523  0.9767  1.6794
  619MOL0     H81695   5.566   6.132   6.566  0.8925  0.6219 -1.5864
  619MOL0     H81696   5.404   6.044   6.244 -0.4217  1.2770 -0.5755
  619MOL0     H81697   5.263   6.015   6.052 -0.6112 -2.7327  4.2105
  619MOL0     H81698   5.148   5.866   5.889  1.9811  2.3404 -0.0581
  619MOL0     H81699   5.265   5.750   5.931 -0.9216  1.6903  3.2503
  619MOL0     H81700   5.139   5.637   5.752 -0.5047 -0.4813 -0.8523
  619MOL0     H81701   5.125   5.790   5.666  0.1020  0.0972  1.5782
  619MOL0     H81702   5.357   5.788   5.600 -1.2496  0.7895 -2.5056
  619MOL0     H81703   5.259   5.663   5.527  1.8802 -2.0359  0.2735
  619MOL0     H81704   5.409   5.657   5.780 -0.4032  2.0635 -0.1795
  619MOL0     H81705   5.341   5.514   5.713  0.2355 -0.6085 -0.4962
  619MOL0     H81706   5.710   5.535   5.502  1.3766  0.1133  2.1257
  619MOL0     H81707   5.571   5.861   5.803 -1.9916 -2.5770  0.2462
  619MOL0     H81708   5.738   5.898   5.999 -0.3705  1.2059 -0.0771
  620MOL0     O81709   8.690   0.212   0.041 -0.2459 -0.5261 -0.3951
  620MOL0     C81710   8.807   0.239   0.067 -0.6607 -0.4410 -0.3505
  620MOL0     O81711   8.855   0.348   0.149  0.2564 -0.1706  0.1193
  620MOL0     C81712   8.761   0.441   0.186  0.3176  1.7359  0.4608
  620MOL0     C81713   8.664   0.431   0.289 -0.6533  0.5298  0.0356
  620MOL0     C81714   8.570   0.529   0.302 -1.4804 -0.0688  0.1084
  620MOL0     C81715   8.575   0.643   0.221 -0.6123 -0.3929  0.6088
  620MOL0     O81716   8.494   0.758   0.233  0.5670  0.0174 -0.3617
  620MOL0     C81717   8.359   0.765   0.173 -0.0449  1.1949  0.0594
  620MOL0     C81718   8.315   0.907   0.195 -0.1706 -0.4412  0.4764
  620MOL0     C81719   8.181   0.924   0.109  0.3101  0.5041  0.0708
  620MOL0     C81720   8.078   1.029   0.171  1.0336  0.6657  0.3444
  620MOL0     C81721   7.945   1.033   0.115 -1.0841 -1.8748  0.4325
  620MOL0     C81722   7.861   0.919   0.160  0.0601  0.3830 -0.1397
  620MOL0     C81723   7.706   0.940   0.102  0.3523 -0.1226 -0.3789
  620MOL0     C81724   7.651   1.078   0.122  0.1053  1.0291 -0.0424
  620MOL0     N81725   7.639   1.102   0.263 -0.2400 -0.3822  0.1784
  620MOL0     C81726   7.554   1.036   0.350 -0.1546 -0.5234  0.3936
  620MOL0     C81727   7.579   1.082   0.471  0.0761 -0.2276 -0.1642
  620MOL0     C81728   7.512   1.031   0.593 -0.1206  0.0885  0.5893
  620MOL0     C81729   7.547   0.883   0.601  0.0826 -0.6908  0.5474
  620MOL0     C81730   7.497   0.836   0.734 -1.1174  0.2190  0.8487
  620MOL0     C81731   7.461   0.692   0.731  0.3990  0.6211 -0.6528
  620MOL0     O81732   7.451   0.653   0.864  0.7208 -0.2053  0.3286
  620MOL0     C81733   7.462   0.523   0.909 -0.5394  0.0398  0.1516
  620MOL0     C81734   7.520   0.417   0.831  0.8963  0.6863  0.1903
  620MOL0     C81735   7.513   0.278   0.873 -0.2177 -0.3098  0.2488
  620MOL0     C81736   7.454   0.249   0.999 -0.5817  0.2978  0.0896
  620MOL0     C81737   7.466   0.109   1.044  0.2862 -0.7542  0.3814
  620MOL0     O81738   7.431   0.079   1.168  0.4943 -0.2237  0.3976
  620MOL0     C81739   7.440  -0.041   1.223 -0.4341  0.1619  0.2889
  620MOL0     C81740   7.440  -0.046   1.363  0.0629  0.1415 -0.3472
  620MOL0     C81741   7.448  -0.170   1.422  0.6051  0.6648  0.2181
  620MOL0     C81742   7.453  -0.292   1.349  0.5555  0.7926 -0.2832
  620MOL0     O81743   7.467  -0.405   1.425  0.4753  0.2927 -0.4004
  620MOL0     C81744   7.558  -0.499   1.371 -0.9379  0.8869 -0.0796
  620MOL0     C81745   7.701  -0.446   1.400  0.2737 -0.2991  1.2638
  620MOL0     C81746   7.812  -0.505   1.307  0.0885 -0.5415 -0.1231
  620MOL0     C81747   7.946  -0.448   1.347 -0.1949  0.0541  0.6481
  620MOL0     C81748   8.067  -0.489   1.262 -1.0028  0.2778 -0.2817
  620MOL0     C81749   8.198  -0.452   1.333  0.0963 -0.3354 -0.3017
  620MOL0     C81750   8.322  -0.514   1.272  0.0732  1.2963  0.0425
  620MOL0     C81751   8.346  -0.503   1.124  0.2019 -0.3171  0.5277
  620MOL0    Cl81752   8.253  -0.644   1.056 -0.1007  0.3463  0.0290
  620MOL0     C81753   7.436  -0.293   1.213 -0.0121 -0.4239 -0.4842
  620MOL0     C81754   7.433  -0.162   1.153  0.0684  0.1971  0.2533
  620MOL0     O81755   7.530   0.032   0.969  0.1554  0.3041  0.4220
  620MOL0     C81756   7.390   0.344   1.072  0.0941 -0.7543 -0.6738
  620MOL0     C81757   7.395   0.480   1.033 -0.6527 -0.4213  0.1337
  620MOL0     N81758   7.687   1.172   0.459  0.1711  0.5981 -0.1340
  620MOL0     N81759   7.723   1.177   0.334  0.0321 -0.3298 -0.0411
  620MOL0     C81760   8.663   0.650   0.113 -0.7045 -0.3082 -0.1533
  620MOL0     C81761   8.758   0.550   0.100  0.6109 -0.3473  0.2293
  620MOL0     C81762   8.918   0.167  -0.001 -1.0953 -0.3537  0.1615
  620MOL0     C81763   9.052   0.177   0.031 -0.2176 -0.2619 -0.2936
  620MOL0     C81764   9.153   0.123  -0.043 -1.0214  0.2665 -0.4273
  620MOL0     C81765   9.117   0.048  -0.159 -0.2045  0.1623 -0.3262
  620MOL0     O81766   9.212   0.002  -0.251  0.1298  0.3357 -0.4792
  620MOL0     C81767   9.208  -0.138  -0.275  0.5775  0.2710  0.5001
  620MOL0     C81768   9.325  -0.155  -0.381  0.1386  0.5594  0.1039
  620MOL0     C81769   9.327  -0.300  -0.429 -0.2899  0.6510  0.6698
  620MOL0     C81770   9.459  -0.331  -0.491  0.4643  0.6101 -0.4614
  620MOL0     C81771   9.480  -0.475  -0.499  0.2838 -0.2785 -0.0084
  620MOL0     C81772   9.488  -0.597  -0.501  0.5457 -0.6452  0.3675
  620MOL0     C81773   8.983   0.034  -0.196  0.1119  0.1294 -0.3323
  620MOL0     C81774   8.888   0.083  -0.110  0.4567 -0.5327  0.1397
  620MOL0     H81775   8.664   0.345   0.355  3.2794  1.4030  1.4475
  620MOL0     H81776   8.489   0.520   0.373 -0.1702  0.0121  1.6752
  620MOL0     H81777   8.306   0.686   0.228 -3.1947  2.1738 -1.3293
  620MOL0     H81778   8.359   0.733   0.068  1.5668  2.1943 -0.2681
  620MOL0     H81779   8.389   0.975   0.151 -0.9935 -1.2662 -2.4131
  620MOL0     H81780   8.305   0.919   0.303 -2.1977  0.9388  0.2004
  620MOL0     H81781   8.140   0.822   0.107  1.2864  0.0634  1.4232
  620MOL0     H81782   8.209   0.964   0.012  0.6533  2.7133  1.0334
  620MOL0     H81783   8.063   1.009   0.278  0.9500  0.4265  0.2875
  620MOL0     H81784   8.114   1.132   0.160  0.2455  0.7940 -1.3804
  620MOL0     H81785   7.941   1.037   0.006  0.1653 -0.7644  0.3978
  620MOL0     H81786   7.897   1.129   0.136 -3.0164 -2.4137 -1.1816
  620MOL0     H81787   7.863   0.902   0.268  1.7489  3.3506  0.4129
  620MOL0     H81788   7.903   0.829   0.113 -1.1954  0.0070 -0.5793
  620MOL0     H81789   7.726   0.929  -0.005 -2.2935  1.9866 -1.1945
  620MOL0     H81790   7.642   0.861   0.141  1.4190 -0.3937  0.9064
  620MOL0     H81791   7.548   1.097   0.092 -0.8617 -1.5915  1.2947
  620MOL0     H81792   7.706   1.153   0.065 -0.3950  1.4325 -0.0012
  620MOL0     H81793   7.476   0.968   0.317 -0.7142  0.1518  0.3030
  620MOL0     H81794   7.407   1.057   0.576  0.2658  0.7162 -1.0375
  620MOL0     H81795   7.558   1.076   0.681 -1.9326 -2.1105  2.8035
  620MOL0     H81796   7.655   0.874   0.587  0.4404  2.6128  0.3416
  620MOL0     H81797   7.497   0.821   0.526  1.1229 -1.6106  0.5954
  620MOL0     H81798   7.589   0.840   0.793  0.6425  0.8202 -1.7844
  620MOL0     H81799   7.408   0.890   0.766 -2.1636 -0.6966 -0.3672
  620MOL0     H81800   7.544   0.648   0.674 -0.2959  3.1156 -3.9557
  620MOL0     H81801   7.362   0.674   0.687  0.6265  1.4969 -1.5834
  620MOL0     H81802   7.565   0.430   0.733 -0.0685 -1.0451 -0.5125
  620MOL0     H81803   7.554   0.215   0.795  3.1099  1.2238  0.5838
  620MOL0     H81804   7.410   0.040   1.421 -0.8384  0.0843 -0.7116
  620MOL0     H81805   7.436  -0.179   1.529 -0.7017  0.3567  0.0592
  620MOL0     H81806   7.537  -0.528   1.268 -0.4023 -0.5196  0.1844
  620MOL0     H81807   7.547  -0.592   1.427  3.1392  0.1742 -0.1278
  620MOL0     H81808   7.717  -0.474   1.505 -1.2555  2.4377  2.3256
  620MOL0     H81809   7.706  -0.337   1.398 -0.2230 -0.2639  1.7011
  620MOL0     H81810   7.801  -0.504   1.199  0.9913  3.7495 -0.3469
  620MOL0     H81811   7.811  -0.612   1.327 -1.5475 -0.2056  1.8845
  620MOL0     H81812   7.931  -0.340   1.344 -0.2469  0.1994  3.4156
  620MOL0     H81813   7.959  -0.469   1.453 -1.4054  0.0320  0.8130
  620MOL0     H81814   8.060  -0.433   1.168  0.7861 -0.3647 -0.8396
  620MOL0     H81815   8.067  -0.597   1.248  0.7620  0.0611  1.0244
  620MOL0     H81816   8.196  -0.472   1.441  0.1462  3.4627  0.5459
  620MOL0     H81817   8.200  -0.342   1.330  2.1455 -0.2162  2.0076
  620MOL0     H81818   8.404  -0.463   1.324 -0.8953  0.9877  1.9635
  620MOL0     H81819   8.334  -0.621   1.292  1.2754  1.4760  0.3612
  620MOL0     H81820   8.453  -0.508   1.101  0.2249  1.4876  0.0605
  620MOL0     H81821   8.302  -0.408   1.092  2.5188  1.2471  1.7311
  620MOL0     H81822   7.424  -0.379   1.148 -0.7897 -0.2939 -0.5217
  620MOL0     H81823   7.427  -0.161   1.044  1.2193  0.6231  0.1788
  620MOL0     H81824   7.329   0.336   1.161 -0.1103 -2.1851 -0.9166
  620MOL0     H81825   7.333   0.552   1.085 -1.1091 -0.7507  0.0519
  620MOL0     H81826   8.671   0.739   0.051 -1.1817 -0.5138 -0.5202
  620MOL0     H81827   8.833   0.555   0.022 -1.2709  0.6687 -1.6195
  620MOL0     H81828   9.083   0.245   0.109  0.5518  0.9214 -1.5740
  620MOL0     H81829   9.250   0.145  -0.000 -0.3945 -3.4223  0.3411
  620MOL0     H81830   9.111  -0.177  -0.309  1.4066 -2.6808  1.2011
  620MOL0     H81831   9.235  -0.200  -0.189 -1.7601  0.5519  1.4934
  620MOL0     H81832   9.315  -0.079  -0.459  3.3706  2.6146  1.4613
  620MOL0     H81833   9.417  -0.138  -0.324  1.0296 -3.0477  0.0005
  620MOL0     H81834   9.242  -0.331  -0.490  1.6429 -0.3582 -1.6653
  620MOL0     H81835   9.323  -0.354  -0.334  0.6353  1.7304  1.3462
  620MOL0     H81836   9.462  -0.285  -0.590  0.5486  0.6637 -0.4324
  620MOL0     H81837   9.546  -0.302  -0.432 -0.8633 -0.8779  2.4661
  620MOL0     H81838   9.489  -0.705  -0.504  2.2483 -0.6628  0.5524
  620MOL0     H81839   8.954  -0.026  -0.282  1.2292 -0.4560 -0.3126
  620MOL0     H81840   8.784   0.086  -0.141 -0.0158  2.8278  1.5785
  621MOL0     O81841   0.503   4.077   9.280  0.4524 -0.3220  0.1736
  621MOL0     C81842   0.554   3.981   9.331  0.1967 -0.5320 -0.1961
  621MOL0     O81843   0.652   3.993   9.434  0.3113 -0.2922 -0.0753
  621MOL0     C81844   0.742   4.094   9.446  0.4539 -0.5544 -0.2645
  621MOL0     C81845   0.783   4.169   9.336  0.4866 -0.0344 -0.6722
  621MOL0     C81846   0.849   4.292   9.365 -0.7618 -0.3851  0.2015
  621MOL0     C81847   0.908   4.327   9.489 -0.6874  0.3486  0.6687
  621MOL0     O81848   0.982   4.442   9.498 -0.2135 -0.3591  0.9028
  621MOL0     C81849   0.981   4.546   9.596  0.6375  1.1891  0.2752
  621MOL0     C81850   1.078   4.641   9.545 -0.4942 -0.1533  0.3545
  621MOL0     C81851   1.040   4.703   9.403  0.4878 -0.2542  0.0647
  621MOL0     C81852   1.143   4.826   9.378  0.3825  0.8659 -0.3820
  621MOL0     C81853   1.126   4.887   9.238 -0.3336  0.4783 -0.9020
  621MOL0     C81854   1.232   4.980   9.194 -0.6274  0.2107 -0.1790
  621MOL0     C81855   1.215   5.024   9.047 -0.2243 -0.3522 -0.3848
  621MOL0     C81856   1.318   4.964   8.948  0.3676  0.3195  0.2738
  621MOL0     N81857   1.324   4.818   8.944 -0.1088  0.1530  0.6118
  621MOL0     C81858   1.445   4.747   8.952 -0.2131 -0.4860  0.4602
  621MOL0     C81859   1.408   4.620   8.949 -0.4634 -0.4471  0.2865
  621MOL0     C81860   1.502   4.514   8.943  0.0040 -0.7159 -0.3429
  621MOL0     C81861   1.441   4.380   8.916 -0.0690 -0.0308 -0.4876
  621MOL0     C81862   1.547   4.268   8.910  0.6553 -0.7878 -0.0479
  621MOL0     C81863   1.491   4.128   8.928 -0.4551  0.3401 -0.0786
  621MOL0     O81864   1.391   4.104   8.834  0.1378  0.3173  0.4707
  621MOL0     C81865   1.316   3.990   8.851  0.8439 -0.3700  0.7142
  621MOL0     C81866   1.318   3.900   8.963  0.1183  0.0354  0.3929
  621MOL0     C81867   1.215   3.812   8.976 -0.2822  0.7675 -0.4432
  621MOL0     C81868   1.119   3.791   8.869 -0.2619 -0.5893  0.5026
  621MOL0     C81869   1.013   3.690   8.880 -0.4254 -0.4831  0.0320
  621MOL0     O81870   1.026   3.603   8.974 -0.2926 -0.1928  0.1412
  621MOL0     C81871   0.937   3.496   8.978  0.0588 -0.0330 -0.4025
  621MOL0     C81872   0.941   3.411   8.874 -0.4431 -0.2961 -0.8556
  621MOL0     C81873   0.871   3.294   8.898  0.1713 -0.2651 -0.0693
  621MOL0     C81874   0.789   3.267   9.005 -0.1890 -0.0969  0.1327
  621MOL0     O81875   0.732   3.141   9.013 -0.5692 -0.3337  0.0992
  621MOL0     C81876   0.695   3.093   9.142 -0.5903 -0.8126  0.4256
  621MOL0     C81877   0.810   3.048   9.226  0.1665  0.5218  0.0869
  621MOL0     C81878   0.770   2.993   9.367  1.1705  0.0454 -0.8344
  621MOL0     C81879   0.883   2.988   9.460 -0.6947  0.2199  0.4063
  621MOL0     C81880   0.934   3.121   9.519  0.0950  0.6290 -0.2610
  621MOL0     C81881   1.016   3.110   9.644 -0.3469 -0.8353 -0.4673
  621MOL0     C81882   1.120   2.998   9.634 -0.1622 -0.6295  0.2212
  621MOL0     C81883   1.184   2.970   9.776 -0.5734 -0.1998  0.3038
  621MOL0    Cl81884   1.054   2.911   9.882 -0.4304 -0.0888  0.4282
  621MOL0     C81885   0.771   3.371   9.102  0.8006 -0.1920  0.2565
  621MOL0     C81886   0.849   3.481   9.091  0.0477  0.3928 -0.2389
  621MOL0     O81887   0.915   3.711   8.811  0.5988  0.3143 -0.5040
  621MOL0     C81888   1.119   3.876   8.762  0.1039 -0.3502 -0.9966
  621MOL0     C81889   1.210   3.980   8.759 -1.1291  0.3086  0.5777
  621MOL0     N81890   1.272   4.607   8.944  0.4271 -0.5332 -0.3308
  621MOL0     N81891   1.222   4.726   8.932 -0.0152 -0.6282 -0.1483
  621MOL0     C81892   0.886   4.237   9.590  0.0426 -0.0651  0.9464
  621MOL0     C81893   0.802   4.124   9.570 -0.2079  0.1988 -0.7547
  621MOL0     C81894   0.519   3.851   9.277 -0.7200 -0.8510 -0.2289
  621MOL0     C81895   0.447   3.844   9.158  0.3653  0.2825 -1.0936
  621MOL0     C81896   0.413   3.719   9.096 -0.3788 -0.1917  0.6641
  621MOL0     C81897   0.461   3.599   9.152  0.2229 -0.6443 -0.5919
  621MOL0     O81898   0.449   3.481   9.091 -0.7566  0.1584  0.2637
  621MOL0     C81899   0.376   3.464   8.971 -0.1754  0.1564  0.2936
  621MOL0     C81900   0.404   3.336   8.900 -0.6648  0.7161 -0.5213
  621MOL0     C81901   0.358   3.203   8.976 -0.0243 -0.6657  0.0565
  621MOL0     C81902   0.326   3.084   8.884 -0.6742  0.0455  0.6618
  621MOL0     C81903   0.282   2.969   8.959  0.3821  0.1956 -0.4106
  621MOL0     C81904   0.271   2.866   9.015 -0.2404  0.5007 -1.2153
  621MOL0     C81905   0.536   3.608   9.274 -0.0984  0.0404  0.5073
  621MOL0     C81906   0.544   3.728   9.349  0.3180 -0.6477 -0.6919
  621MOL0     H81907   0.766   4.146   9.231 -3.2831 -1.2580  0.0682
  621MOL0     H81908   0.870   4.366   9.288 -2.6699  0.5518  0.5168
  621MOL0     H81909   1.018   4.506   9.691  2.2258  0.7861 -0.4764
  621MOL0     H81910   0.879   4.581   9.615 -0.1785 -0.6209 -0.5660
  621MOL0     H81911   1.170   4.583   9.530 -0.7339 -1.1065  2.1962
  621MOL0     H81912   1.097   4.723   9.614  2.2269  0.4580 -0.9863
  621MOL0     H81913   0.943   4.753   9.405  0.7920  0.3835 -0.9739
  621MOL0     H81914   1.045   4.630   9.322  0.2626 -0.8441  0.5653
  621MOL0     H81915   1.111   4.902   9.450 -0.6767 -1.1655  1.3824
  621MOL0     H81916   1.245   4.787   9.387  0.9289  1.5807 -2.7039
  621MOL0     H81917   1.026   4.931   9.230 -1.1643 -0.9983  0.6415
  621MOL0     H81918   1.121   4.800   9.172  1.2594 -0.3688  0.0279
  621MOL0     H81919   1.330   4.934   9.209 -0.1028  1.1576 -0.5708
  621MOL0     H81920   1.226   5.070   9.257  0.3922  1.7959 -2.2231
  621MOL0     H81921   1.113   5.006   9.013 -1.0809  0.1678  1.7699
  621MOL0     H81922   1.239   5.130   9.045  4.7075 -1.2484 -1.6416
  621MOL0     H81923   1.412   5.006   8.984  0.2260 -0.0144  1.0310
  621MOL0     H81924   1.310   4.998   8.844 -2.5343 -4.2104 -1.2433
  621MOL0     H81925   1.543   4.793   8.951  0.9926 -2.8561  1.0410
  621MOL0     H81926   1.557   4.511   9.037 -2.5278  0.6716  1.2835
  621MOL0     H81927   1.570   4.528   8.858 -1.2583 -1.5568 -1.5326
  621MOL0     H81928   1.389   4.372   8.821 -0.7274  0.3837 -0.1662
  621MOL0     H81929   1.360   4.367   8.989  1.2998 -2.4002  0.7528
  621MOL0     H81930   1.595   4.276   8.813 -0.4659  0.6810 -0.5179
  621MOL0     H81931   1.628   4.281   8.982  1.3721 -2.4501 -0.5008
  621MOL0     H81932   1.440   4.138   9.024 -3.0752  3.0508 -1.5791
  621MOL0     H81933   1.562   4.045   8.939 -1.9042 -1.0103 -0.6027
  621MOL0     H81934   1.396   3.915   9.037 -1.0520  0.8349  1.5153
  621MOL0     H81935   1.220   3.749   9.065  2.1658 -0.5231 -1.4041
  621MOL0     H81936   1.013   3.424   8.794  2.5006 -1.3728  1.4127
  621MOL0     H81937   0.875   3.216   8.822 -1.9562  1.3565 -1.9901
  621MOL0     H81938   0.646   2.999   9.116 -0.5504 -0.5521 -0.6420
  621MOL0     H81939   0.635   3.161   9.204  0.4181 -0.3635  0.9344
  621MOL0     H81940   0.883   3.129   9.236 -1.0431  1.5232  1.1155
  621MOL0     H81941   0.857   2.966   9.171 -1.6404 -0.1791 -0.4785
  621MOL0     H81942   0.725   2.893   9.359 -2.1202  0.4049  5.9034
  621MOL0     H81943   0.689   3.058   9.404  3.0673  1.5785  0.8564
  621MOL0     H81944   0.846   2.935   9.549 -2.1209  1.1983  0.4421
  621MOL0     H81945   0.964   2.933   9.412  0.9217  0.5891  2.5446
  621MOL0     H81946   0.849   3.188   9.537 -0.7708  0.1785 -2.3622
  621MOL0     H81947   0.989   3.180   9.446  1.9057 -1.3318 -0.5780
  621MOL0     H81948   0.950   3.091   9.730 -1.0416 -1.2497 -1.0761
  621MOL0     H81949   1.081   3.195   9.665  0.9554 -1.5156 -1.6269
  621MOL0     H81950   1.079   2.902   9.600  1.7091 -0.8135 -1.7486
  621MOL0     H81951   1.197   3.023   9.560 -2.7753  1.3042 -2.0504
  621MOL0     H81952   1.238   3.060   9.809 -1.5842  1.5336 -2.4212
  621MOL0     H81953   1.254   2.887   9.763 -2.7047 -1.6379 -3.6057
  621MOL0     H81954   0.693   3.357   9.176 -0.8562 -0.5477 -1.4820
  621MOL0     H81955   0.842   3.556   9.170  2.9030 -2.1012  2.6788
  621MOL0     H81956   1.042   3.861   8.687 -1.3754 -2.8592  0.8844
  621MOL0     H81957   1.217   4.050   8.677  2.6218  2.8416  2.6884
  621MOL0     H81958   0.940   4.260   9.682  0.9023  2.8598 -0.1588
  621MOL0     H81959   0.777   4.064   9.657 -3.1467  1.3885 -0.6939
  621MOL0     H81960   0.390   3.930   9.124  0.4487  1.4483  1.4842
  621MOL0     H81961   0.341   3.711   9.015  1.2699 -2.4460 -0.7164
  621MOL0     H81962   0.403   3.540   8.897  1.7073 -0.5832  0.1682
  621MOL0     H81963   0.267   3.475   8.975 -0.3371  0.5023 -2.6962
  621MOL0     H81964   0.363   3.341   8.798  0.4649 -2.0217 -1.2085
  621MOL0     H81965   0.512   3.321   8.889 -0.7420 -0.4031  0.1795
  621MOL0     H81966   0.265   3.224   9.031 -0.1570 -1.8821  0.3198
  621MOL0     H81967   0.436   3.164   9.042  1.1792  2.5797  0.7479
  621MOL0     H81968   0.257   3.107   8.802  0.2272 -1.3641 -0.5346
  621MOL0     H81969   0.417   3.060   8.828 -2.1747  1.6612 -2.7305
  621MOL0     H81970   0.247   2.772   9.062 -0.8049  1.6510  0.9269
  621MOL0     H81971   0.566   3.518   9.327 -2.0320 -1.2406 -0.4880
  621MOL0     H81972   0.586   3.735   9.448 -1.6474 -2.9027  0.3970
  622MOL0     O81973   2.353  10.841   3.810  0.3238  0.6557 -0.2997
  622MOL0     C81974   2.240  10.788   3.810  0.1240  1.1487  0.1420
  622MOL0     O81975   2.153  10.785   3.920 -0.0918  0.5960  0.0125
  622MOL0     C81976   2.190  10.842   4.034 -0.4592  0.6576  0.5035
  622MOL0     C81977   2.226  10.977   4.033 -0.3800 -0.0515 -0.7191
  622MOL0     C81978   2.254  11.047   4.155  0.9851  0.4500  0.2132
  622MOL0     C81979   2.256  10.973   4.275  1.1749  0.6252 -0.7185
  622MOL0     O81980   2.289  11.018   4.404 -0.1664 -0.3616  1.3058
  622MOL0     C81981   2.297  11.160   4.441  0.1909  0.4047  0.2750
  622MOL0     C81982   2.376  11.182   4.575 -0.3319  0.7822 -0.4475
  622MOL0     C81983   2.533  11.172   4.560 -0.1658 -0.6611 -0.5536
  622MOL0     C81984   2.582  11.051   4.475  0.3355  0.1015 -0.6584
  622MOL0     C81985   2.732  11.030   4.504  0.6725 -0.6108 -0.4341
  622MOL0     C81986   2.773  10.918   4.410 -0.1164  0.7200 -0.5802
  622MOL0     C81987   2.913  10.863   4.434 -0.5168  0.0737 -0.1552
  622MOL0     C81988   2.927  10.749   4.334 -0.5311  0.7189  0.6768
  622MOL0     N81989   2.917  10.789   4.192 -0.3021 -0.5803  0.6498
  622MOL0     C81990   3.015  10.853   4.121 -0.0882  0.4351  0.3450
  622MOL0     C81991   2.989  10.849   3.988 -0.1239  0.6052 -0.1620
  622MOL0     C81992   3.061  10.909   3.873  0.3174  0.0527 -0.1240
  622MOL0     C81993   3.022  11.054   3.862 -0.9537 -0.0206 -0.0116
  622MOL0     C81994   3.087  11.126   3.744  1.0166 -0.7198  1.0865
  622MOL0     C81995   3.065  11.277   3.749  0.4343 -0.4571  0.1356
  622MOL0     O81996   3.126  11.332   3.872 -0.0912 -0.8164 -0.6495
  622MOL0     C81997   3.142  11.469   3.899 -0.3391 -0.5788 -0.9388
  622MOL0     C81998   3.187  11.507   4.030  0.5353  0.4218  0.1956
  622MOL0     C81999   3.203  11.643   4.073 -0.2185 -0.6121 -0.1269
  622MOL0     C82000   3.156  11.747   3.981  0.1764  1.3566 -0.5823
  622MOL0     C82001   3.169  11.891   4.017  0.2507 -0.3729 -0.1612
  622MOL0     O82002   3.228  11.920   4.140 -0.1359 -0.3661  0.4399
  622MOL0     C82003   3.241  12.051   4.170  0.8637  0.0995  0.2592
  622MOL0     C82004   3.130  12.122   4.208  0.1629  1.7079 -1.2016
  622MOL0     C82005   3.131  12.256   4.248 -1.0382  0.0291  0.6946
  622MOL0     C82006   3.253  12.320   4.255 -0.5055  0.6432  0.4744
  622MOL0     O82007   3.276  12.454   4.273 -0.1159  0.7773  0.1412
  622MOL0     C82008   3.179  12.526   4.357 -0.3291  0.6220  0.0322
  622MOL0     C82009   3.227  12.667   4.359  0.2755  0.4831  0.2062
  622MOL0     C82010   3.129  12.753   4.452 -0.5182  0.2311 -0.8823
  622MOL0     C82011   3.191  12.887   4.481 -0.3189 -0.2620 -0.1705
  622MOL0     C82012   3.104  12.981   4.565  1.2287  0.6864  0.5764
  622MOL0     C82013   3.133  13.129   4.560 -0.2016  0.0034 -0.3922
  622MOL0     C82014   3.252  13.161   4.641 -0.4526  0.2477  0.1710
  622MOL0     C82015   3.346  13.272   4.597  0.9448  0.6079 -0.2887
  622MOL0    Cl82016   3.512  13.221   4.634 -0.1057  0.2592 -0.0381
  622MOL0     C82017   3.370  12.247   4.220  0.9499 -1.2431  0.6229
  622MOL0     C82018   3.364  12.114   4.179 -0.1548  0.1738  0.0669
  622MOL0     O82019   3.127  11.979   3.940 -0.4757 -0.5513  0.1791
  622MOL0     C82020   3.116  11.712   3.851 -0.0868  0.5965 -0.1452
  622MOL0     C82021   3.103  11.576   3.812  0.4832 -0.3734 -0.9946
  622MOL0     N82022   2.879  10.761   3.981 -0.4098 -0.4806  0.3418
  622MOL0     N82023   2.839  10.727   4.102 -0.1036  0.0181  0.0325
  622MOL0     C82024   2.219  10.840   4.277  0.9878 -0.8721  0.1747
  622MOL0     C82025   2.186  10.773   4.157 -0.0342 -0.0734  0.5635
  622MOL0     C82026   2.176  10.727   3.686  0.0868  0.0728 -0.3823
  622MOL0     C82027   2.041  10.671   3.693 -0.0177  0.3333 -0.3403
  622MOL0     C82028   1.993  10.604   3.581  0.2271  0.7684 -0.3014
  622MOL0     C82029   2.063  10.598   3.461 -1.2734 -0.2706  0.3975
  622MOL0     O82030   1.998  10.518   3.368  0.0722 -0.1064  0.0887
  622MOL0     C82031   2.048  10.509   3.237 -0.2056  0.1233 -0.0988
  622MOL0     C82032   1.932  10.469   3.131 -0.6820 -0.0232 -0.1679
  622MOL0     C82033   1.793  10.528   3.181  0.9803  0.7512  0.6627
  622MOL0     C82034   1.680  10.474   3.092 -0.3433  0.8898  0.6142
  622MOL0     C82035   1.690  10.531   2.959 -1.1619  0.3251  0.0563
  622MOL0     C82036   1.720  10.574   2.849 -0.3654 -0.0996 -0.1643
  622MOL0     C82037   2.193  10.653   3.453 -0.3296 -0.3525  0.1020
  622MOL0     C82038   2.245  10.717   3.565  0.6771  0.2847 -0.8210
  622MOL0     H82039   2.222  11.039   3.943 -0.9407 -1.1494 -1.4802
  622MOL0     H82040   2.260  11.154   4.134 -0.0699  0.1814 -1.7105
  622MOL0     H82041   2.194  11.198   4.439 -0.9863 -2.5032  0.8694
  622MOL0     H82042   2.343  11.210   4.355  3.0566  0.5131  1.7451
  622MOL0     H82043   2.331  11.106   4.640  1.1907 -1.8056 -2.2525
  622MOL0     H82044   2.362  11.288   4.599 -3.7109  0.9991 -2.8503
  622MOL0     H82045   2.575  11.158   4.660 -2.2532  0.7920  0.6094
  622MOL0     H82046   2.580  11.264   4.523 -3.0118  0.8508 -0.7292
  622MOL0     H82047   2.535  10.960   4.515  2.4452 -0.1284  1.5487
  622MOL0     H82048   2.569  11.061   4.367 -1.1103  1.3961 -0.3786
  622MOL0     H82049   2.749  11.001   4.608 -0.2167  0.1064 -0.0814
  622MOL0     H82050   2.786  11.124   4.493 -0.2777  0.0615  0.5994
  622MOL0     H82051   2.755  10.948   4.307 -2.3238 -0.2519 -0.5468
  622MOL0     H82052   2.713  10.831   4.439  0.2484  0.3182 -1.0161
  622MOL0     H82053   2.990  10.933   4.401  1.0326 -0.7488  1.5365
  622MOL0     H82054   2.944  10.827   4.532 -1.4446 -3.6256 -1.0473
  622MOL0     H82055   2.849  10.673   4.344  0.2050 -0.4235 -1.7378
  622MOL0     H82056   3.022  10.698   4.351  0.0200  1.6743  0.5551
  622MOL0     H82057   3.103  10.909   4.148  1.6991 -2.5514  1.2106
  622MOL0     H82058   3.031  10.864   3.778  0.6891 -0.9788  0.2320
  622MOL0     H82059   3.168  10.896   3.895  0.3290  0.1865 -0.0978
  622MOL0     H82060   3.033  11.109   3.956  2.3110 -0.5195 -0.0047
  622MOL0     H82061   2.917  11.046   3.830 -1.2739  0.8222  0.7617
  622MOL0     H82062   3.194  11.105   3.748  1.1437 -0.2448  0.2871
  622MOL0     H82063   3.045  11.080   3.654  0.5911  1.3954  0.1408
  622MOL0     H82064   2.959  11.302   3.748  0.6693  0.5671 -0.6709
  622MOL0     H82065   3.110  11.316   3.657  0.2902  0.1261  0.3056
  622MOL0     H82066   3.225  11.421   4.084 -1.9311 -0.3384  0.8576
  622MOL0     H82067   3.262  11.662   4.162 -1.7505 -1.9658  1.2430
  622MOL0     H82068   3.040  12.062   4.216  2.1254 -1.4046 -0.5323
  622MOL0     H82069   3.035  12.301   4.269 -0.6323  1.2406  0.0043
  622MOL0     H82070   3.175  12.481   4.457 -2.0366  2.4648  0.8731
  622MOL0     H82071   3.078  12.522   4.316 -0.3177  0.6501  0.0024
  622MOL0     H82072   3.239  12.695   4.254 -1.3573 -0.0556 -0.1535
  622MOL0     H82073   3.325  12.664   4.408  1.3309  0.1274 -1.8210
  622MOL0     H82074   3.122  12.698   4.547 -1.3085  0.6783 -0.6728
  622MOL0     H82075   3.027  12.763   4.414 -1.8317  1.4018  2.5460
  622MOL0     H82076   3.287  12.859   4.527  0.2145 -0.6613 -1.4922
  622MOL0     H82077   3.211  12.934   4.384 -2.2119 -1.0496 -0.9945
  622MOL0     H82078   3.101  12.932   4.663 -1.9695 -3.1226 -1.1543
  622MOL0     H82079   3.003  12.960   4.528  0.6859 -1.8870  3.1323
  622MOL0     H82080   3.048  13.193   4.585  1.3735  3.0397 -2.1128
  622MOL0     H82081   3.163  13.158   4.458  1.7687 -0.6474 -0.0238
  622MOL0     H82082   3.224  13.176   4.746 -0.2360 -2.4791  0.7007
  622MOL0     H82083   3.317  13.073   4.639 -1.4957 -0.5887  1.2604
  622MOL0     H82084   3.322  13.372   4.635 -0.9227 -0.5307  1.7902
  622MOL0     H82085   3.337  13.278   4.489 -1.3002 -1.9080 -0.3387
  622MOL0     H82086   3.463  12.303   4.211  0.7439 -1.0682 -0.6703
  622MOL0     H82087   3.456  12.068   4.143  0.1550  1.4329 -0.8390
  622MOL0     H82088   3.085  11.791   3.783 -1.6589  0.0436 -0.1060
  622MOL0     H82089   3.060  11.545   3.718 -3.6052  0.5769  0.3494
  622MOL0     H82090   2.202  10.806   4.379 -0.3108  4.0579  1.8897
  622MOL0     H82091   2.150  10.671   4.153 -1.4180  0.3755  0.8672
  622MOL0     H82092   1.986  10.669   3.787 -0.3124 -3.4795 -0.4733
  622MOL0     H82093   1.887  10.579   3.581  0.4794 -0.9943 -3.5477
  622MOL0     H82094   2.133  10.440   3.242 -0.6786 -0.4283  0.6829
  622MOL0     H82095   2.086  10.608   3.210  0.6796 -0.9348 -3.0977
  622MOL0     H82096   1.965  10.509   3.035  1.6389  0.2385  0.6548
  622MOL0     H82097   1.923  10.362   3.111 -1.8992 -0.2354  1.3255
  622MOL0     H82098   1.797  10.636   3.198  2.1827  0.6065  1.4693
  622MOL0     H82099   1.764  10.491   3.279 -2.6019  0.2544 -0.4434
  622MOL0     H82100   1.681  10.365   3.085  2.9633  0.9595 -2.4980
  622MOL0     H82101   1.582  10.506   3.129  0.3580  0.9934  2.5312
  622MOL0     H82102   1.733  10.624   2.756  0.9771 -0.0308  0.0363
  622MOL0     H82103   2.249  10.641   3.361  0.8285  2.6396  0.2975
  622MOL0     H82104   2.343  10.762   3.558  1.0983 -0.7440 -2.0000
  623MOL0     O82105   2.942   6.123   4.687  0.5882  0.3460  0.5235
  623MOL0     C82106   2.989   6.165   4.584 -0.3452  0.1889  0.0264
  623MOL0     O82107   3.006   6.292   4.543  0.3769  0.0696  0.1347
  623MOL0     C82108   2.959   6.389   4.629  0.2371 -0.2070  0.5829
  623MOL0     C82109   2.861   6.483   4.577 -0.4116 -0.3529  0.1750
  623MOL0     C82110   2.833   6.600   4.648  0.1924  0.1473 -0.5516
  623MOL0     C82111   2.868   6.611   4.781  0.4669 -0.5323  1.0823
  623MOL0     O82112   2.824   6.717   4.857  0.1614 -0.9586 -0.3143
  623MOL0     C82113   2.900   6.782   4.957  0.7159 -0.5179  0.8652
  623MOL0     C82114   2.826   6.916   4.996  0.4968 -0.1312  0.3895
  623MOL0     C82115   2.884   6.966   5.126  0.7616  0.4090 -1.4602
  623MOL0     C82116   3.033   6.976   5.148  0.7741  0.1484 -0.1363
  623MOL0     C82117   3.046   7.048   5.281 -0.4793  0.4744 -0.4090
  623MOL0     C82118   3.190   7.057   5.306  0.2006  0.0243  0.0506
  623MOL0     C82119   3.267   6.928   5.354 -0.2902 -0.5526 -0.2576
  623MOL0     C82120   3.421   6.954   5.361  0.0868 -0.7133 -0.3189
  623MOL0     N82121   3.499   6.862   5.449 -0.0859 -0.5846 -0.0990
  623MOL0     C82122   3.465   6.838   5.576  0.3795  0.1282 -0.0732
  623MOL0     C82123   3.539   6.739   5.621 -0.5765 -1.1253 -0.5770
  623MOL0     C82124   3.493   6.692   5.750  0.2502 -0.1863 -0.4579
  623MOL0     C82125   3.602   6.603   5.825 -1.0359 -0.3430 -0.3438
  623MOL0     C82126   3.554   6.546   5.951  0.4804  0.2594 -0.0092
  623MOL0     C82127   3.659   6.483   6.043  0.1020 -0.4083 -0.1361
  623MOL0     O82128   3.590   6.439   6.157  0.9853 -0.1249 -0.1521
  623MOL0     C82129   3.666   6.376   6.246 -0.4155  0.0580 -0.0571
  623MOL0     C82130   3.803   6.404   6.269 -1.0665 -0.3205 -0.7413
  623MOL0     C82131   3.869   6.329   6.364 -0.4323 -0.5283 -0.7350
  623MOL0     C82132   3.815   6.219   6.431  0.0490  0.1807 -0.6847
  623MOL0     C82133   3.894   6.143   6.530  0.4140  0.8343 -1.4750
  623MOL0     O82134   3.850   6.014   6.586  0.1226 -0.2326 -0.4172
  623MOL0     C82135   3.932   5.926   6.646 -0.4911 -0.2059 -0.8580
  623MOL0     C82136   4.050   5.958   6.715  0.5220 -0.7124  0.4738
  623MOL0     C82137   4.135   5.859   6.755 -0.2938 -0.2252 -0.2646
  623MOL0     C82138   4.111   5.723   6.741 -0.1678 -0.8886  1.1325
  623MOL0     O82139   4.216   5.639   6.773  1.1500 -0.5987 -0.1903
  623MOL0     C82140   4.236   5.512   6.708  1.3286 -0.2789 -0.4202
  623MOL0     C82141   4.388   5.493   6.710  0.0093 -1.1044  0.5329
  623MOL0     C82142   4.426   5.349   6.697 -0.4621  0.2169  0.6085
  623MOL0     C82143   4.580   5.319   6.678  1.3056 -0.0241  0.6348
  623MOL0     C82144   4.612   5.175   6.708 -0.7612  0.5996  0.8188
  623MOL0     C82145   4.763   5.155   6.710 -0.6430  0.2676 -0.2004
  623MOL0     C82146   4.808   5.010   6.711 -0.3788  0.7840  0.0912
  623MOL0     C82147   4.947   4.992   6.767  0.9698 -0.0803 -0.7789
  623MOL0    Cl82148   4.968   4.817   6.806  0.0289 -0.5216  0.4098
  623MOL0     C82149   3.986   5.689   6.683  0.0738  0.0876 -0.8384
  623MOL0     C82150   3.897   5.791   6.632 -0.0852 -0.0734  0.3025
  623MOL0     O82151   4.001   6.198   6.555  0.2993 -0.6350  0.4410
  623MOL0     C82152   3.686   6.180   6.401  0.1596 -0.3613  0.3554
  623MOL0     C82153   3.619   6.258   6.310 -0.4460  0.3624  0.4107
  623MOL0     N82154   3.601   6.687   5.507  0.6501  0.3304  0.1028
  623MOL0     N82155   3.564   6.759   5.400  0.1527 -0.2480 -0.4073
  623MOL0     C82156   2.953   6.512   4.842  0.6697  0.2254  0.7229
  623MOL0     C82157   3.010   6.409   4.760  0.4038 -0.4724 -0.3783
  623MOL0     C82158   3.037   6.072   4.479  0.5874  0.3183 -1.0869
  623MOL0     C82159   3.088   5.953   4.531 -0.7089  0.1632 -0.2805
  623MOL0     C82160   3.139   5.858   4.438  0.2312  0.0586  0.5844
  623MOL0     C82161   3.134   5.869   4.294  0.7314  0.4764 -0.9930
  623MOL0     O82162   3.174   5.772   4.207  0.0595  0.5507  0.1460
  623MOL0     C82163   3.222   5.641   4.242 -0.5246  0.4328 -0.1694
  623MOL0     C82164   3.281   5.567   4.115  0.2531 -0.0013 -0.1982
  623MOL0     C82165   3.383   5.652   4.040  0.6124  0.0565 -0.1406
  623MOL0     C82166   3.378   5.612   3.891 -1.2466  0.1888  0.4333
  623MOL0     C82167   3.263   5.649   3.812 -0.2617  0.8407 -0.0842
  623MOL0     C82168   3.166   5.680   3.749  0.2766  0.3143  0.6198
  623MOL0     C82169   3.092   5.998   4.256 -0.5472 -0.3370 -0.0310
  623MOL0     C82170   3.046   6.090   4.342 -0.2271 -0.4245  0.2064
  623MOL0     H82171   2.817   6.473   4.479 -1.2696 -1.0460  0.6201
  623MOL0     H82172   2.762   6.670   4.603 -2.7676 -1.6006  1.0686
  623MOL0     H82173   2.997   6.799   4.909  0.6337 -0.5118  0.7020
  623MOL0     H82174   2.904   6.718   5.045 -2.4209 -2.2961 -0.1052
  623MOL0     H82175   2.718   6.900   5.005  0.1969  0.3856 -1.8435
  623MOL0     H82176   2.849   6.983   4.913  0.8006 -2.0522 -1.1471
  623MOL0     H82177   2.841   6.900   5.202  0.0659  1.5588 -0.8367
  623MOL0     H82178   2.850   7.066   5.153  5.2454  0.7280  5.6212
  623MOL0     H82179   3.073   6.875   5.160 -1.5516 -0.7193  0.8748
  623MOL0     H82180   3.093   7.030   5.074 -0.1945  1.7062  0.1699
  623MOL0     H82181   2.992   7.002   5.364 -0.6152  1.6359  0.1680
  623MOL0     H82182   2.997   7.145   5.265 -0.6201  0.0258 -3.2779
  623MOL0     H82183   3.209   7.131   5.384 -1.7992 -0.1097  0.7071
  623MOL0     H82184   3.235   7.101   5.217 -0.5253  2.2456  0.7276
  623MOL0     H82185   3.231   6.921   5.457 -1.7913  4.0046 -0.2422
  623MOL0     H82186   3.249   6.840   5.291 -1.7020  0.0541 -0.7396
  623MOL0     H82187   3.435   7.054   5.404 -2.1211  0.1656 -1.4740
  623MOL0     H82188   3.462   6.947   5.260 -0.7117 -0.8152 -0.6390
  623MOL0     H82189   3.393   6.900   5.628  0.6642 -0.6499  1.3153
  623MOL0     H82190   3.398   6.638   5.738  0.8831 -1.2846 -0.6052
  623MOL0     H82191   3.483   6.769   5.827  0.6745 -0.6178  0.0401
  623MOL0     H82192   3.682   6.673   5.848  0.2187 -0.6032 -3.3383
  623MOL0     H82193   3.636   6.518   5.764 -2.2135 -0.3605 -1.0234
  623MOL0     H82194   3.506   6.625   6.010 -0.1203 -1.5361  2.0470
  623MOL0     H82195   3.475   6.473   5.929  2.8299 -2.4188 -0.1803
  623MOL0     H82196   3.744   6.550   6.055  0.3375 -0.2459 -2.2668
  623MOL0     H82197   3.709   6.394   6.004  2.6876  1.6295 -1.8139
  623MOL0     H82198   3.846   6.486   6.212 -1.7327  0.0082 -0.7801
  623MOL0     H82199   3.966   6.358   6.403 -1.8330 -0.0875  2.7690
  623MOL0     H82200   4.060   6.063   6.742  1.2064 -0.7069  0.2273
  623MOL0     H82201   4.218   5.900   6.812 -1.8966 -1.9449  3.6392
  623MOL0     H82202   4.204   5.511   6.604 -0.8211  3.5495  0.0240
  623MOL0     H82203   4.185   5.436   6.769 -0.9056  2.0634  0.8020
  623MOL0     H82204   4.433   5.541   6.798 -1.9779  3.8510 -0.8104
  623MOL0     H82205   4.422   5.553   6.625 -0.5194 -0.9755  0.4083
  623MOL0     H82206   4.367   5.294   6.624 -1.1497  0.3605  1.0505
  623MOL0     H82207   4.401   5.300   6.792 -0.1249  1.8442  1.5893
  623MOL0     H82208   4.614   5.347   6.578  2.6192  1.0979  1.3560
  623MOL0     H82209   4.633   5.391   6.741  1.8315  1.0452 -0.9529
  623MOL0     H82210   4.589   5.109   6.624  1.8899  2.2240 -1.3852
  623MOL0     H82211   4.571   5.135   6.801 -3.3604 -0.2575 -0.6101
  623MOL0     H82212   4.796   5.207   6.801 -1.7789 -3.0782  2.3640
  623MOL0     H82213   4.813   5.208   6.629  1.5706 -2.7505 -1.0083
  623MOL0     H82214   4.732   4.962   6.773  1.9614 -0.7046  2.0036
  623MOL0     H82215   4.796   4.962   6.614  2.8524 -4.0219  1.6808
  623MOL0     H82216   4.966   5.062   6.849 -1.4212  0.0798 -0.2875
  623MOL0     H82217   5.020   5.003   6.686  3.2017 -0.1508  1.0961
  623MOL0     H82218   3.941   5.591   6.678 -3.8305  1.7275 -1.4200
  623MOL0     H82219   3.809   5.758   6.577  1.5827 -1.7608 -1.5469
  623MOL0     H82220   3.636   6.091   6.437  0.4720 -0.8505 -0.3893
  623MOL0     H82221   3.512   6.244   6.298 -1.0823  1.3984  3.7380
  623MOL0     H82222   2.984   6.519   4.946  2.7792 -0.9998  0.2329
  623MOL0     H82223   3.090   6.350   4.803  0.3627  0.6797  1.4304
  623MOL0     H82224   3.085   5.933   4.638  1.4428  4.6544  0.8609
  623MOL0     H82225   3.188   5.775   4.486 -1.1056 -0.3629  1.2853
  623MOL0     H82226   3.129   5.597   4.278 -0.4884  0.9995  0.6477
  623MOL0     H82227   3.301   5.650   4.318 -1.9408 -0.7510  1.5232
  623MOL0     H82228   3.323   5.471   4.145 -1.8837 -0.8329  0.3032
  623MOL0     H82229   3.195   5.549   4.050 -0.7575  0.1455  1.0617
  623MOL0     H82230   3.484   5.637   4.079  1.8426  0.4990 -2.8834
  623MOL0     H82231   3.356   5.757   4.053 -0.5735  0.1043 -2.4370
  623MOL0     H82232   3.460   5.654   3.833 -1.6986  2.3353  1.2489
  623MOL0     H82233   3.406   5.507   3.900 -5.0382 -1.1460 -1.0717
  623MOL0     H82234   3.078   5.700   3.693  0.7310  1.0514  0.1605
  623MOL0     H82235   3.082   6.016   4.150  1.0539  1.1665  0.0144
  623MOL0     H82236   3.021   6.188   4.305 -2.0232 -0.0329  2.2426
  624MOL0     O82237  10.310  10.666   8.752  0.4590 -0.2412  0.1880
  624MOL0     C82238  10.213  10.664   8.827  0.5632 -0.6165 -0.0562
  624MOL0     O82239  10.156  10.777   8.870  0.2830  0.0385 -0.2210
  624MOL0     C82240  10.194  10.900   8.819 -0.1472 -0.2247  1.0496
  624MOL0     C82241  10.324  10.953   8.845 -0.8135 -0.5396  0.4719
  624MOL0     C82242  10.349  11.085   8.810 -0.2923 -1.1645 -0.5216
  624MOL0     C82243  10.257  11.168   8.747  0.7104  0.3231  0.7247
  624MOL0     O82244  10.300  11.283   8.693  0.0652 -0.2489 -0.2807
  624MOL0     C82245  10.209  11.370   8.623 -0.2299  0.2144  0.4327
  624MOL0     C82246  10.098  11.437   8.705 -0.0644 -0.0289  0.0776
  624MOL0     C82247  10.165  11.542   8.805  0.0197  0.2744 -0.0056
  624MOL0     C82248  10.176  11.678   8.732  0.1812  0.2901  0.1214
  624MOL0     C82249  10.257  11.781   8.809 -0.8764  0.2857 -0.0439
  624MOL0     C82250  10.197  11.817   8.945 -0.3151 -1.1639  0.0730
  624MOL0     C82251  10.257  11.946   8.986 -0.1576 -0.1378  0.4127
  624MOL0     C82252  10.406  11.939   9.036  0.4500  0.0885  0.8293
  624MOL0     N82253  10.480  12.061   9.050 -0.4077 -0.6184 -0.5430
  624MOL0     C82254  10.614  12.071   9.066 -0.4514 -0.1007 -0.7987
  624MOL0     C82255  10.641  12.203   9.085 -0.2971  0.3778 -0.1747
  624MOL0     C82256  10.773  12.252   9.111  0.2600  0.8196 -0.2915
  624MOL0     C82257  10.886  12.214   9.005 -0.0846 -0.1403  0.2278
  624MOL0     C82258  10.873  12.288   8.863  0.4902 -0.3522  0.4255
  624MOL0     C82259  10.781  12.211   8.766  0.8493 -0.4330 -0.5099
  624MOL0     O82260  10.825  12.075   8.754 -0.3460  0.2799 -0.4946
  624MOL0     C82261  10.932  12.046   8.672 -0.2739  0.8043  0.0292
  624MOL0     C82262  10.977  11.915   8.667  0.0642  0.0488 -0.1530
  624MOL0     C82263  11.069  11.874   8.573  0.4563 -1.1084 -0.1768
  624MOL0     C82264  11.137  11.969   8.493 -0.1315  0.2904 -1.2143
  624MOL0     C82265  11.261  11.922   8.415  0.0584  0.4580  0.1481
  624MOL0     O82266  11.317  12.015   8.328  0.1016 -0.0565  0.3144
  624MOL0     C82267  11.421  11.987   8.239 -0.1068  0.0765 -0.9360
  624MOL0     C82268  11.541  11.931   8.286  0.4518  0.6398 -0.7581
  624MOL0     C82269  11.633  11.881   8.197 -0.4478  0.8246 -0.2685
  624MOL0     C82270  11.617  11.904   8.061 -0.7292  0.8917  0.8465
  624MOL0     O82271  11.712  11.865   7.971  0.2961 -0.1202 -0.2225
  624MOL0     C82272  11.816  11.780   8.011  1.0968  1.0944 -0.1540
  624MOL0     C82273  11.894  11.749   7.882  0.7050  0.2460  0.2310
  624MOL0     C82274  11.802  11.688   7.767  0.2267 -0.2891  0.3615
  624MOL0     C82275  11.886  11.660   7.645 -0.1488 -0.3113  0.1870
  624MOL0     C82276  11.921  11.786   7.576 -0.0682  0.3653  0.7788
  624MOL0     C82277  11.982  11.757   7.434 -0.0407  0.2322 -0.2542
  624MOL0     C82278  12.131  11.739   7.439 -0.4590 -0.6631  0.6968
  624MOL0     C82279  12.183  11.681   7.295  0.2894 -1.4577 -0.8551
  624MOL0    Cl82280  12.359  11.678   7.307  0.1195 -0.4232  0.4602
  624MOL0     C82281  11.503  11.977   8.016  0.6425  0.1351  0.5246
  624MOL0     C82282  11.399  12.016   8.101 -0.0268  0.6655 -0.4874
  624MOL0     O82283  11.296  11.801   8.420  0.2646  0.4802 -0.6977
  624MOL0     C82284  11.087  12.101   8.488  0.4455 -0.1673  0.3169
  624MOL0     C82285  10.985  12.137   8.580  0.3135  0.1005 -0.3321
  624MOL0     N82286  10.524  12.269   9.091 -0.2163 -0.4183  0.4180
  624MOL0     N82287  10.424  12.185   9.063 -1.1996 -0.6638  0.5150
  624MOL0     C82288  10.130  11.107   8.718  0.4862 -0.6623 -0.0303
  624MOL0     C82289  10.094  10.985   8.755  0.5529  1.1170 -0.1568
  624MOL0     C82290  10.172  10.542   8.876  0.6809 -0.4695  0.1048
  624MOL0     C82291  10.053  10.533   8.950  0.2369 -0.8681  0.0487
  624MOL0     C82292   9.999  10.409   9.009 -0.1485 -1.0430  0.2038
  624MOL0     C82293  10.063  10.289   8.979 -0.2724  0.5523  0.2967
  624MOL0     O82294   9.999  10.167   9.021 -0.6594 -0.5047 -0.1557
  624MOL0     C82295  10.032  10.049   8.949  0.8431 -0.2350 -0.5244
  624MOL0     C82296   9.947  10.047   8.817 -0.8481 -0.3862  0.8020
  624MOL0     C82297   9.952   9.916   8.744 -0.6495  0.2799  0.1758
  624MOL0     C82298  10.093   9.888   8.682 -0.2593  0.7690 -0.0521
  624MOL0     C82299  10.106   9.743   8.650 -0.4515  0.3353 -0.1469
  624MOL0     C82300  10.118   9.639   8.589 -0.1058  0.4904  0.1055
  624MOL0     C82301  10.170  10.293   8.893 -0.3659  0.1123  0.1269
  624MOL0     C82302  10.230  10.415   8.848 -0.4651  0.0302  0.3896
  624MOL0     H82303  10.392  10.880   8.887 -0.1533 -1.4644 -1.9827
  624MOL0     H82304  10.449  11.124   8.827 -0.8760  0.0946  0.1795
  624MOL0     H82305  10.153  11.307   8.553 -1.8762 -0.1309  1.9950
  624MOL0     H82306  10.254  11.447   8.559 -1.5115  0.3890 -0.2917
  624MOL0     H82307  10.035  11.366   8.758 -1.9471  1.3767 -0.1485
  624MOL0     H82308  10.024  11.489   8.643 -1.4931 -0.6036  1.2472
  624MOL0     H82309  10.261  11.501   8.837 -1.2789 -0.9189  2.6544
  624MOL0     H82310  10.104  11.536   8.895  1.2907 -2.4396  0.7703
  624MOL0     H82311  10.191  11.666   8.624 -2.5445 -0.8440 -0.2127
  624MOL0     H82312  10.074  11.717   8.734  0.5134  1.8004 -3.8498
  624MOL0     H82313  10.262  11.873   8.750 -1.0896  1.4014  1.6190
  624MOL0     H82314  10.354  11.732   8.826 -3.1858 -4.1038  2.0169
  624MOL0     H82315  10.214  11.744   9.025  1.1170  0.7061  1.5748
  624MOL0     H82316  10.090  11.839   8.934  0.6614  4.8520 -1.0658
  624MOL0     H82317  10.255  12.017   8.904 -2.2084 -1.3985 -0.6984
  624MOL0     H82318  10.206  11.989   9.072 -1.1510 -1.7475  0.6631
  624MOL0     H82319  10.469  11.888   8.963  0.1161  0.5806  0.1946
  624MOL0     H82320  10.403  11.869   9.121 -3.2577 -3.0417 -1.5136
  624MOL0     H82321  10.684  11.989   9.060 -1.1057 -0.6858 -0.5179
  624MOL0     H82322  10.810  12.208   9.205  3.1670  1.1138 -1.2048
  624MOL0     H82323  10.778  12.359   9.131 -1.4527  0.4065  3.1443
  624MOL0     H82324  10.875  12.106   8.993 -0.7259 -0.8803  5.1759
  624MOL0     H82325  10.984  12.246   9.041 -1.7411  2.4012  2.9722
  624MOL0     H82326  10.846  12.393   8.869  1.0955  0.1075 -3.0971
  624MOL0     H82327  10.977  12.281   8.829 -0.0411 -2.0313 -1.0101
  624MOL0     H82328  10.771  12.262   8.670 -1.0699 -4.8094 -2.9534
  624MOL0     H82329  10.678  12.206   8.803  0.1518 -1.7355 -2.4774
  624MOL0     H82330  10.938  11.844   8.740  0.3751  1.0610  1.0322
  624MOL0     H82331  11.097  11.770   8.559  0.5715 -1.1114  0.0732
  624MOL0     H82332  11.551  11.906   8.391  0.1802  0.5914 -0.7433
  624MOL0     H82333  11.706  11.817   8.245 -0.6112  1.2185  0.5230
  624MOL0     H82334  11.768  11.688   8.045 -0.7442  2.2383  0.4843
  624MOL0     H82335  11.867  11.823   8.098  3.5768 -0.9967 -0.4527
  624MOL0     H82336  11.979  11.682   7.894  1.0602  0.3161 -1.4999
  624MOL0     H82337  11.946  11.843   7.862  2.0834 -0.5374  0.0571
  624MOL0     H82338  11.714  11.746   7.737 -0.6474 -0.7728  1.8654
  624MOL0     H82339  11.759  11.593   7.801  3.4409 -2.5992 -1.4584
  624MOL0     H82340  11.975  11.604   7.675 -0.4140  0.4339  2.5888
  624MOL0     H82341  11.824  11.594   7.584  2.0272 -1.1332 -1.2464
  624MOL0     H82342  11.986  11.851   7.636  0.2441  1.8479 -1.0938
  624MOL0     H82343  11.829  11.842   7.556  0.4595  1.4054  1.2242
  624MOL0     H82344  11.967  11.839   7.363 -0.3997  0.1635 -0.2644
  624MOL0     H82345  11.947  11.663   7.390  2.3560 -1.0619  0.4607
  624MOL0     H82346  12.174  11.834   7.472 -2.2979  0.2135  0.6904
  624MOL0     H82347  12.156  11.681   7.528  1.2299 -0.2435  0.5360
  624MOL0     H82348  12.159  11.755   7.217 -1.5569 -0.2849  0.7303
  624MOL0     H82349  12.152  11.581   7.265  1.8825 -1.6876 -1.9020
  624MOL0     H82350  11.510  11.996   7.909  1.7147  0.7319  0.6975
  624MOL0     H82351  11.311  12.075   8.076  0.6459  2.1685  0.5281
  624MOL0     H82352  11.118  12.179   8.420 -1.8615 -1.4031 -2.3361
  624MOL0     H82353  10.958  12.242   8.574 -3.7201 -0.5343  2.6962
  624MOL0     H82354  10.044  11.152   8.671 -1.7882 -1.3214  3.1447
  624MOL0     H82355   9.990  10.957   8.748  0.5013  1.4761 -0.8301
  624MOL0     H82356   9.998  10.625   8.960 -1.2178 -1.3823 -2.4033
  624MOL0     H82357   9.913  10.425   9.072  1.4860  3.2053  1.7550
  624MOL0     H82358  10.014   9.955   9.002 -0.0668  0.9046  1.2728
  624MOL0     H82359  10.139  10.043   8.927  1.3306  1.3508  1.2494
  624MOL0     H82360   9.839  10.061   8.832 -0.3983  0.5476  3.7262
  624MOL0     H82361   9.961  10.131   8.748  2.0001 -1.8285 -0.5280
  624MOL0     H82362   9.889   9.923   8.655  0.4266  0.4333 -0.6012
  624MOL0     H82363   9.914   9.839   8.812 -0.3733  1.6597  1.9779
  624MOL0     H82364  10.105   9.932   8.582 -2.9324 -2.6364 -2.1044
  624MOL0     H82365  10.173   9.929   8.744 -0.7614  2.1432 -0.2796
  624MOL0     H82366  10.142   9.550   8.535 -0.8733  0.1761  0.2701
  624MOL0     H82367  10.212  10.202   8.852 -1.9228 -0.1504 -1.0038
  624MOL0     H82368  10.318  10.419   8.784 -1.1665  0.2838 -0.5963
  625MOL0     O82369   9.815   2.791   6.165 -0.1974 -0.0361  0.1142
  625MOL0     C82370   9.800   2.669   6.157  0.3627  0.8725 -0.1945
  625MOL0     O82371   9.892   2.575   6.142 -0.8373  0.7457 -0.4327
  625MOL0     C82372  10.024   2.621   6.117 -0.5712  0.5596  0.3373
  625MOL0     C82373  10.093   2.564   6.003  0.2990  0.2020 -1.2144
  625MOL0     C82374  10.226   2.594   5.990 -0.1292 -0.0965 -0.3086
  625MOL0     C82375  10.298   2.682   6.070 -0.2881  0.4051 -0.9351
  625MOL0     O82376  10.430   2.729   6.047  0.8158  0.8144  1.3876
  625MOL0     C82377  10.478   2.726   5.913 -0.4202 -0.3427  0.0074
  625MOL0     C82378  10.569   2.613   5.876 -0.0298  0.8167 -0.7210
  625MOL0     C82379  10.712   2.629   5.957 -0.5797 -1.2317  0.4486
  625MOL0     C82380  10.805   2.714   5.859  1.2607 -0.4676  0.0176
  625MOL0     C82381  10.953   2.743   5.886 -0.3922 -0.4449 -0.6079
  625MOL0     C82382  11.059   2.692   5.789 -0.5174 -0.5094  0.8514
  625MOL0     C82383  11.098   2.544   5.803  0.2352  0.5783  0.0278
  625MOL0     C82384  11.170   2.515   5.929 -0.0266 -0.0913  0.5233
  625MOL0     N82385  11.221   2.380   5.926 -0.8787  0.5624 -0.0472
  625MOL0     C82386  11.162   2.258   5.973  0.6443 -0.2402  0.7346
  625MOL0     C82387  11.253   2.169   5.925  0.0205 -0.4031  0.7387
  625MOL0     C82388  11.263   2.015   5.913  0.4745  0.3470 -0.5846
  625MOL0     C82389  11.136   1.944   5.966 -0.3606  0.1716 -0.2232
  625MOL0     C82390  11.164   1.793   5.968  1.0178  0.1473 -0.3802
  625MOL0     C82391  11.026   1.735   5.989  0.1901  0.1354  0.3007
  625MOL0     O82392  11.037   1.633   6.088 -0.1439  0.2761  0.4341
  625MOL0     C82393  10.927   1.556   6.088 -0.7213  0.2355 -0.1132
  625MOL0     C82394  10.942   1.423   6.042 -0.3332 -0.1711  0.2106
  625MOL0     C82395  10.835   1.332   6.049 -0.3655 -0.4945 -1.1329
  625MOL0     C82396  10.715   1.370   6.107  0.0067  0.3119 -0.0265
  625MOL0     C82397  10.608   1.272   6.116  0.4001  1.0400  0.1030
  625MOL0     O82398  10.602   1.173   6.029  0.7885  0.3344 -0.3282
  625MOL0     C82399  10.497   1.079   6.036  0.7758  0.3447 -0.9097
  625MOL0     C82400  10.398   1.078   5.926  0.7704  0.2084  0.0895
  625MOL0     C82401  10.283   0.993   5.921 -0.5609  1.0791 -0.7333
  625MOL0     C82402  10.276   0.888   6.017  0.4223 -0.6303 -1.5162
  625MOL0     O82403  10.164   0.814   6.022  0.2818 -0.2237 -0.3483
  625MOL0     C82404  10.147   0.710   5.934  0.3804  0.0558  0.1425
  625MOL0     C82405  10.259   0.600   5.937 -0.0112  0.0787 -0.5652
  625MOL0     C82406  10.259   0.535   6.077  0.4439 -0.4629  0.1760
  625MOL0     C82407  10.381   0.441   6.086 -1.4017  0.9006  0.1106
  625MOL0     C82408  10.361   0.344   6.194 -0.0074 -0.0527 -0.7735
  625MOL0     C82409  10.467   0.231   6.212  1.2127  0.4776  0.0934
  625MOL0     C82410  10.607   0.261   6.241 -0.7900  0.1842  0.0570
  625MOL0     C82411  10.685   0.134   6.273 -0.1901  0.0103 -0.1621
  625MOL0    Cl82412  10.859   0.182   6.291  0.3050 -0.0126 -0.4570
  625MOL0     C82413  10.375   0.873   6.115 -0.4633  0.6489 -0.0847
  625MOL0     C82414  10.494   0.963   6.118  0.2018  0.4852  1.1859
  625MOL0     O82415  10.532   1.278   6.212  0.3498  0.5558 -0.6517
  625MOL0     C82416  10.707   1.495   6.159  0.1291  0.3302  0.3711
  625MOL0     C82417  10.805   1.597   6.141 -1.1890 -0.1048 -0.3401
  625MOL0     N82418  11.363   2.249   5.886  0.8341  0.6589  0.1216
  625MOL0     N82419  11.345   2.374   5.887  0.2193 -0.0663  0.2621
  625MOL0     C82420  10.231   2.729   6.177  0.2138  0.4837 -0.8206
  625MOL0     C82421  10.100   2.700   6.205  0.6157 -0.7399 -0.2684
  625MOL0     C82422   9.660   2.629   6.167  0.5073  0.0146 -0.4506
  625MOL0     C82423   9.550   2.710   6.178  0.5623  0.5854 -0.9063
  625MOL0     C82424   9.417   2.647   6.193 -0.0877  0.3041  0.3373
  625MOL0     C82425   9.396   2.511   6.207 -0.5340  0.9191  0.2314
  625MOL0     O82426   9.270   2.457   6.214  0.2586 -0.2542 -0.1575
  625MOL0     C82427   9.199   2.478   6.340  0.3432  0.9719  0.3213
  625MOL0     C82428   9.053   2.431   6.337 -0.0844  0.3032 -0.3861
  625MOL0     C82429   8.991   2.411   6.474  0.1191  1.1690 -1.1931
  625MOL0     C82430   8.840   2.364   6.440  0.2373 -0.3752 -0.3641
  625MOL0     C82431   8.771   2.283   6.539 -0.5296  0.3704  0.0168
  625MOL0     C82432   8.695   2.211   6.595 -0.2675  0.2284  0.3926
  625MOL0     C82433   9.512   2.433   6.200  0.6293 -0.6466  0.1488
  625MOL0     C82434   9.636   2.492   6.177  0.0249 -0.7079 -0.4353
  625MOL0     H82435  10.036   2.494   5.942  1.5124 -0.5967 -1.4771
  625MOL0     H82436  10.279   2.559   5.902 -2.1894  3.7710 -3.4230
  625MOL0     H82437  10.528   2.820   5.889 -0.2594 -0.7083 -1.1064
  625MOL0     H82438  10.398   2.726   5.838  1.0892 -3.5791 -1.7822
  625MOL0     H82439  10.582   2.609   5.768 -2.0355  1.1808 -1.0035
  625MOL0     H82440  10.522   2.522   5.913  1.4543  0.7711  1.2522
  625MOL0     H82441  10.760   2.535   5.984  0.4557 -0.4126  1.6131
  625MOL0     H82442  10.713   2.688   6.049 -0.2572 -1.1559  0.3982
  625MOL0     H82443  10.813   2.667   5.761 -0.7968  0.2443 -0.5538
  625MOL0     H82444  10.749   2.806   5.842 -0.6702 -1.7582 -0.9588
  625MOL0     H82445  10.976   2.712   5.989 -2.3878  1.2761  0.4499
  625MOL0     H82446  10.963   2.852   5.878 -0.0786 -0.5066 -1.0312
  625MOL0     H82447  11.145   2.759   5.789 -1.1562  0.3233  0.2857
  625MOL0     H82448  11.014   2.708   5.690  0.1244 -1.4429  0.3882
  625MOL0     H82449  11.003   2.490   5.800  0.6916 -0.2379 -0.2622
  625MOL0     H82450  11.159   2.520   5.716  0.3955  4.2637 -1.0477
  625MOL0     H82451  11.097   2.528   6.009 -1.9249  1.6169 -1.3850
  625MOL0     H82452  11.248   2.591   5.940  0.0064 -0.2004  1.0744
  625MOL0     H82453  11.065   2.230   6.012  0.8092 -0.8732  0.6942
  625MOL0     H82454  11.350   1.988   5.974 -0.5650  0.3219  0.9621
  625MOL0     H82455  11.281   1.996   5.807  1.7929 -0.0582 -0.3012
  625MOL0     H82456  11.048   1.972   5.906  1.0329  2.2695 -1.4227
  625MOL0     H82457  11.115   1.973   6.070 -0.1298 -1.9190  0.4395
  625MOL0     H82458  11.218   1.762   5.879 -0.5667 -3.1673 -0.3334
  625MOL0     H82459  11.226   1.773   6.056  2.3139 -0.1915 -1.3399
  625MOL0     H82460  10.976   1.702   5.898 -2.4204 -0.4028  1.8366
  625MOL0     H82461  10.958   1.815   6.018 -0.2049 -0.7538  1.9363
  625MOL0     H82462  11.040   1.387   6.011 -0.8448 -1.7700  0.3750
  625MOL0     H82463  10.853   1.233   6.009 -1.7156 -1.6034  0.8340
  625MOL0     H82464  10.406   1.160   5.856  3.4940  1.8162  2.0692
  625MOL0     H82465  10.206   1.009   5.846 -0.8055 -1.3375 -1.0684
  625MOL0     H82466  10.129   0.755   5.836 -2.2749 -0.1985  0.4368
  625MOL0     H82467  10.050   0.665   5.957 -0.2374  1.7337  1.0085
  625MOL0     H82468  10.361   0.638   5.923  1.0142 -2.4305 -0.3992
  625MOL0     H82469  10.228   0.525   5.864 -4.0852 -1.3548  2.2465
  625MOL0     H82470  10.179   0.461   6.086  0.3373 -0.0885  2.9461
  625MOL0     H82471  10.254   0.606   6.160 -2.6249  1.1854 -1.2551
  625MOL0     H82472  10.383   0.390   5.989  0.1339 -0.4454  0.7996
  625MOL0     H82473  10.470   0.499   6.113 -0.1851 -1.3836  1.3371
  625MOL0     H82474  10.258   0.306   6.196 -0.1377  0.3224  0.5750
  625MOL0     H82475  10.357   0.391   6.293 -0.9391  3.4443 -2.3456
  625MOL0     H82476  10.470   0.165   6.125 -0.9822 -1.4151  1.3346
  625MOL0     H82477  10.432   0.162   6.290  0.7687 -0.4970 -0.9477
  625MOL0     H82478  10.657   0.307   6.156  1.5121 -1.0040  0.6669
  625MOL0     H82479  10.600   0.326   6.328 -3.2862 -0.9533  0.8059
  625MOL0     H82480  10.681   0.063   6.190 -1.1324  2.4454 -2.3156
  625MOL0     H82481  10.652   0.094   6.370 -0.9239 -1.3085 -0.9118
  625MOL0     H82482  10.371   0.794   6.189 -4.7607  1.4858  0.8804
  625MOL0     H82483  10.575   0.957   6.190  1.3415 -0.8203 -0.1455
  625MOL0     H82484  10.611   1.516   6.206 -0.1947 -1.3246  0.5046
  625MOL0     H82485  10.799   1.689   6.197  0.8776 -2.5072  4.4115
  625MOL0     H82486  10.279   2.807   6.235  1.1512 -1.7993  1.6587
  625MOL0     H82487  10.045   2.747   6.286 -1.1398  0.8900 -2.2976
  625MOL0     H82488   9.570   2.817   6.172 -3.1326  1.4444 -0.2271
  625MOL0     H82489   9.331   2.711   6.206 -2.2419 -1.8786 -2.0328
  625MOL0     H82490   9.206   2.584   6.368  1.1802  0.4277  2.3784
  625MOL0     H82491   9.264   2.426   6.410  0.3799 -0.2418 -0.5960
  625MOL0     H82492   8.996   2.508   6.285  1.7633  0.2168 -2.7187
  625MOL0     H82493   9.059   2.333   6.289  0.4590 -1.0293  2.2172
  625MOL0     H82494   9.002   2.504   6.530 -0.2088  0.5289 -0.0471
  625MOL0     H82495   9.046   2.330   6.524  1.2173  1.2507 -2.2167
  625MOL0     H82496   8.786   2.455   6.411  1.6773  0.4030 -0.7379
  625MOL0     H82497   8.827   2.308   6.347 -4.6528 -0.9474  0.3825
  625MOL0     H82498   8.633   2.129   6.624  0.5529 -0.5259  0.0812
  625MOL0     H82499   9.512   2.324   6.201  1.4305 -0.6499  0.8925
  625MOL0     H82500   9.707   2.411   6.181 -1.6423 -2.1782  0.5606
  626MOL0     O82501   8.171   9.423   3.291  0.0239 -0.2525  0.8871
  626MOL0     C82502   8.204   9.460   3.401  0.0276 -1.0201 -0.1182
  626MOL0     O82503   8.124   9.515   3.495 -0.4317 -0.4514 -0.5313
  626MOL0     C82504   8.001   9.542   3.468  0.3770 -0.7490  1.0574
  626MOL0     C82505   7.914   9.507   3.564 -0.1304  0.1844 -0.6082
  626MOL0     C82506   7.773   9.553   3.549 -0.5375  0.3319  0.1395
  626MOL0     C82507   7.732   9.617   3.435 -0.7416  0.3042 -0.9490
  626MOL0     O82508   7.609   9.667   3.413  1.0414 -0.6153  0.3240
  626MOL0     C82509   7.512   9.573   3.453 -0.0946 -0.1419 -1.0845
  626MOL0     C82510   7.393   9.566   3.354  0.4575 -0.3184  0.4971
  626MOL0     C82511   7.292   9.460   3.384 -0.0750  0.6140 -0.1703
  626MOL0     C82512   7.189   9.448   3.274  0.7975 -0.4899  0.2064
  626MOL0     C82513   7.065   9.360   3.296 -0.4505 -0.4870  0.1935
  626MOL0     C82514   7.001   9.348   3.158  0.2816  0.8647 -0.4748
  626MOL0     C82515   6.864   9.273   3.167 -0.0490 -0.3643 -0.1786
  626MOL0     C82516   6.824   9.246   3.024 -0.4228 -0.3357  1.2402
  626MOL0     N82517   6.683   9.211   3.021  0.2278 -1.1072  0.1961
  626MOL0     C82518   6.639   9.084   3.050 -0.9117 -0.6887 -0.8554
  626MOL0     C82519   6.516   9.097   3.096  0.4005  0.3403 -0.4240
  626MOL0     C82520   6.444   8.982   3.162 -0.2282  0.8728 -0.3290
  626MOL0     C82521   6.522   8.913   3.277 -0.5717  0.5504 -0.2341
  626MOL0     C82522   6.466   8.780   3.317  0.0257 -0.2819  0.3659
  626MOL0     C82523   6.311   8.779   3.351  0.5306 -0.7450 -0.0475
  626MOL0     O82524   6.299   8.872   3.463 -0.0372 -0.0111  0.7574
  626MOL0     C82525   6.222   8.824   3.570  0.1323  0.3071  0.2094
  626MOL0     C82526   6.126   8.723   3.559 -0.2820 -0.0055 -0.4955
  626MOL0     C82527   6.070   8.659   3.675 -0.5334 -0.5453 -0.4687
  626MOL0     C82528   6.114   8.701   3.804 -0.4786 -0.1608 -0.8479
  626MOL0     C82529   6.049   8.635   3.924 -0.0462 -0.2172  0.1044
  626MOL0     O82530   6.064   8.703   4.036 -0.2699 -1.0590  0.2387
  626MOL0     C82531   6.024   8.647   4.159 -0.2889 -0.5182 -0.0231
  626MOL0     C82532   5.898   8.619   4.176  0.7536  0.7682 -1.0108
  626MOL0     C82533   5.849   8.551   4.284  0.1912  0.1443  0.0205
  626MOL0     C82534   5.935   8.529   4.396  0.2792  0.3372  0.4945
  626MOL0     O82535   5.890   8.474   4.517 -0.1200 -0.3974  0.7718
  626MOL0     C82536   5.756   8.438   4.518 -0.5359  0.4744  0.2965
  626MOL0     C82537   5.749   8.362   4.652  0.1739 -0.7752 -0.3373
  626MOL0     C82538   5.729   8.445   4.777 -0.2313 -0.5655 -0.1576
  626MOL0     C82539   5.713   8.359   4.906  0.3532  0.1775 -0.0640
  626MOL0     C82540   5.693   8.466   5.025  0.1763  0.4484  0.8430
  626MOL0     C82541   5.640   8.393   5.154 -1.2239 -0.7446  0.9192
  626MOL0     C82542   5.625   8.486   5.279  0.1788 -1.5073  0.3384
  626MOL0     C82543   5.522   8.429   5.383 -0.1785  0.3800  1.1725
  626MOL0    Cl82544   5.545   8.528   5.520  0.0438 -0.0223 -0.3080
  626MOL0     C82545   6.068   8.567   4.379  0.1924  0.2998 -0.6203
  626MOL0     C82546   6.116   8.617   4.257  0.2420 -0.1985  0.0916
  626MOL0     O82547   5.992   8.528   3.909 -0.2304  0.3390  0.2290
  626MOL0     C82548   6.219   8.804   3.810  0.1675  0.2088  0.6557
  626MOL0     C82549   6.270   8.860   3.696 -0.6965  0.0855  0.1241
  626MOL0     N82550   6.474   9.225   3.099 -0.6897 -0.0375 -0.0055
  626MOL0     N82551   6.573   9.298   3.049  0.5963 -0.5409  0.4885
  626MOL0     C82552   7.835   9.654   3.345  0.5524  0.2493 -0.4163
  626MOL0     C82553   7.970   9.621   3.355 -0.0249  1.0987 -0.4313
  626MOL0     C82554   8.355   9.444   3.431 -0.3203 -0.5655 -0.1147
  626MOL0     C82555   8.446   9.381   3.345  1.0893  0.6474  0.2040
  626MOL0     C82556   8.577   9.352   3.380  0.4224 -0.0886  0.9669
  626MOL0     C82557   8.613   9.392   3.509 -1.2532  0.2875  0.8266
  626MOL0     O82558   8.741   9.377   3.561 -0.4969  0.1798 -0.0773
  626MOL0     C82559   8.837   9.289   3.508  0.3187  0.4502  1.1071
  626MOL0     C82560   8.929   9.233   3.612 -0.7139 -1.5958  0.1005
  626MOL0     C82561   9.033   9.136   3.548  1.4793 -0.4000 -0.8662
  626MOL0     C82562   9.117   9.188   3.435  0.1044  1.1098  0.2406
  626MOL0     C82563   9.215   9.284   3.478 -0.0930 -0.5541  0.9724
  626MOL0     C82564   9.297   9.373   3.503  0.4544 -0.9775  0.9981
  626MOL0     C82565   8.528   9.450   3.595  0.1871 -0.4449 -0.3853
  626MOL0     C82566   8.401   9.471   3.562  0.9249 -0.1981  0.4000
  626MOL0     H82567   7.952   9.468   3.658 -0.3635 -1.0264 -1.0048
  626MOL0     H82568   7.703   9.542   3.631 -0.1451  0.8309  0.5498
  626MOL0     H82569   7.471   9.606   3.549 -0.4660  3.5413 -2.3566
  626MOL0     H82570   7.541   9.471   3.480 -1.7980  0.1506  2.4091
  626MOL0     H82571   7.439   9.541   3.259  1.4209  1.0907  0.5703
  626MOL0     H82572   7.350   9.666   3.345 -0.5580 -0.8943 -1.4568
  626MOL0     H82573   7.258   9.493   3.482  4.6168  1.6820  1.3527
  626MOL0     H82574   7.343   9.365   3.404  0.3009  0.9542  0.5129
  626MOL0     H82575   7.165   9.553   3.256  0.1690 -0.0402  3.0812
  626MOL0     H82576   7.242   9.414   3.185  1.1391 -1.2827  0.6982
  626MOL0     H82577   7.001   9.405   3.373 -0.2970 -0.9485  0.5947
  626MOL0     H82578   7.084   9.261   3.339 -0.1136 -1.8668 -2.8689
  626MOL0     H82579   7.063   9.296   3.085 -0.2273  1.0250 -1.0214
  626MOL0     H82580   6.984   9.450   3.122 -0.8123  0.1052 -2.2360
  626MOL0     H82581   6.867   9.186   3.232 -2.5639  1.3816  2.5410
  626MOL0     H82582   6.797   9.341   3.220 -1.0582  0.6137 -2.5335
  626MOL0     H82583   6.889   9.166   2.988 -1.1239 -0.8564  1.1190
  626MOL0     H82584   6.831   9.326   2.951 -3.6922 -0.5284  0.5627
  626MOL0     H82585   6.693   8.989   3.052  1.4287  0.4436 -3.1213
  626MOL0     H82586   6.410   8.911   3.086  1.9275 -1.9331  1.1319
  626MOL0     H82587   6.347   9.008   3.206  0.2071 -2.2029  2.8577
  626MOL0     H82588   6.507   8.974   3.367 -4.3329 -0.2957 -0.1342
  626MOL0     H82589   6.622   8.897   3.236 -0.2611  2.0923 -0.1350
  626MOL0     H82590   6.491   8.720   3.229 -0.3932  1.5638 -1.0836
  626MOL0     H82591   6.524   8.730   3.394 -0.3758 -2.1923 -0.5120
  626MOL0     H82592   6.279   8.677   3.376 -0.0642 -0.6639 -0.4439
  626MOL0     H82593   6.251   8.816   3.267 -1.5995 -0.8838  1.3425
  626MOL0     H82594   6.109   8.673   3.464  1.2293 -3.5733  0.9475
  626MOL0     H82595   5.998   8.577   3.672 -1.9640  0.6780 -2.4419
  626MOL0     H82596   5.828   8.629   4.093  1.1201 -2.9299 -1.9535
  626MOL0     H82597   5.748   8.515   4.268 -0.1413  1.9817 -2.6381
  626MOL0     H82598   5.729   8.363   4.443  0.9908 -0.1045  0.2765
  626MOL0     H82599   5.699   8.530   4.508 -2.1358 -0.5885 -0.8113
  626MOL0     H82600   5.839   8.303   4.669  0.9884  0.4205 -0.4192
  626MOL0     H82601   5.663   8.295   4.641 -2.6286  2.5891 -0.8914
  626MOL0     H82602   5.642   8.509   4.762  2.1919  3.3802  1.0800
  626MOL0     H82603   5.818   8.508   4.781  0.2311 -0.9091 -2.9113
  626MOL0     H82604   5.623   8.298   4.907 -0.9950  2.0415  2.1562
  626MOL0     H82605   5.795   8.289   4.926 -0.1697 -0.5320 -0.3806
  626MOL0     H82606   5.637   8.555   4.996  1.1841  1.0591  0.7086
  626MOL0     H82607   5.793   8.502   5.054 -0.1432 -1.1412  4.4541
  626MOL0     H82608   5.710   8.312   5.177  1.3032  0.8295 -0.7242
  626MOL0     H82609   5.541   8.363   5.119  0.2359 -1.5303 -3.0449
  626MOL0     H82610   5.713   8.497   5.343 -1.2400 -2.4788  2.5839
  626MOL0     H82611   5.606   8.591   5.252 -1.1536 -1.3437  1.7887
  626MOL0     H82612   5.537   8.323   5.404 -2.1954 -0.2238 -0.1180
  626MOL0     H82613   5.419   8.444   5.349  0.1419  1.9900  0.8005
  626MOL0     H82614   6.138   8.543   4.457  0.3222  1.3560 -0.4016
  626MOL0     H82615   6.218   8.650   4.246  0.6434 -1.9625 -2.1599
  626MOL0     H82616   6.276   8.820   3.901 -0.1794  0.6688  0.7994
  626MOL0     H82617   6.357   8.921   3.720  0.4732 -1.8721  1.0835
  626MOL0     H82618   7.805   9.711   3.257  1.7323  2.1358  0.3313
  626MOL0     H82619   8.036   9.650   3.274  0.3509 -1.1740 -1.0118
  626MOL0     H82620   8.414   9.351   3.246 -2.2353 -2.3152  1.9515
  626MOL0     H82621   8.648   9.310   3.310  1.2476  1.3473  0.8900
  626MOL0     H82622   8.888   9.342   3.427 -2.2636 -1.9082 -2.4207
  626MOL0     H82623   8.785   9.214   3.447 -1.0150  1.7042  0.6456
  626MOL0     H82624   8.974   9.315   3.669 -1.5443 -0.5638 -0.7007
  626MOL0     H82625   8.858   9.186   3.682 -0.8427 -0.1793  0.9606
  626MOL0     H82626   8.974   9.049   3.516  1.3798 -2.0126  3.0600
  626MOL0     H82627   9.102   9.111   3.629  0.9719  3.1504  0.8399
  626MOL0     H82628   9.169   9.103   3.391  0.6514 -0.2071  3.2124
  626MOL0     H82629   9.052   9.234   3.360 -0.1603 -1.3735 -1.1631
  626MOL0     H82630   9.381   9.439   3.505 -0.6348  0.4335  2.1197
  626MOL0     H82631   8.557   9.473   3.697 -1.7692  1.7944 -0.2553
  626MOL0     H82632   8.330   9.512   3.634  1.2201 -3.4490  2.7713
  627MOL0     O82633   7.583   5.689   7.011 -0.2505 -0.1786 -0.2228
  627MOL0     C82634   7.594   5.734   6.901 -0.4536 -0.1610  0.7931
  627MOL0     O82635   7.501   5.732   6.803 -0.1449  0.2655  0.0147
  627MOL0     C82636   7.366   5.699   6.810 -0.6632  0.4218 -0.1470
  627MOL0     C82637   7.313   5.643   6.694  0.6034 -0.5380 -0.1889
  627MOL0     C82638   7.168   5.625   6.678 -0.0817  1.0859 -0.1925
  627MOL0     C82639   7.098   5.624   6.797 -0.0063  0.1997  0.5803
  627MOL0     O82640   6.971   5.583   6.805  0.2546  0.0175  0.0608
  627MOL0     C82641   6.921   5.486   6.710  1.3235 -0.2559 -0.3390
  627MOL0     C82642   6.802   5.417   6.783  0.0428 -0.4302  0.0898
  627MOL0     C82643   6.734   5.314   6.694  0.2389  0.7870 -0.1270
  627MOL0     C82644   6.624   5.235   6.771 -1.1495 -0.7272 -0.5163
  627MOL0     C82645   6.513   5.323   6.813 -0.2980  0.3801 -0.2616
  627MOL0     C82646   6.435   5.393   6.695  0.0083 -0.6699 -0.0625
  627MOL0     C82647   6.327   5.303   6.644  0.1680 -0.9683  0.1643
  627MOL0     C82648   6.200   5.333   6.728 -0.1606  0.5277  0.3037
  627MOL0     N82649   6.095   5.239   6.695  0.1808  0.3165  0.3892
  627MOL0     C82650   5.995   5.253   6.605  0.8535 -0.8517 -0.8032
  627MOL0     C82651   5.923   5.141   6.616  0.3462 -0.0885 -0.5505
  627MOL0     C82652   5.800   5.097   6.542 -0.4144 -0.3787  0.6133
  627MOL0     C82653   5.794   4.946   6.510  0.6488  0.2507  0.7600
  627MOL0     C82654   5.655   4.888   6.524 -0.6699 -0.6359  0.8653
  627MOL0     C82655   5.655   4.736   6.494  0.7324 -0.1430 -0.0839
  627MOL0     O82656   5.727   4.700   6.377  0.7524 -0.2852  0.4376
  627MOL0     C82657   5.748   4.559   6.367 -0.7471  0.6463  1.5858
  627MOL0     C82658   5.880   4.516   6.361 -0.2588  0.7357 -0.7488
  627MOL0     C82659   5.912   4.384   6.337 -0.2755 -0.5830  0.3115
  627MOL0     C82660   5.813   4.293   6.325  0.6441  0.1859  0.4550
  627MOL0     C82661   5.846   4.152   6.305  1.1289  0.3023 -0.2291
  627MOL0     O82662   5.750   4.064   6.339  0.4783  0.8867  0.9662
  627MOL0     C82663   5.766   3.932   6.324 -0.6118 -0.3609  0.8078
  627MOL0     C82664   5.691   3.851   6.412 -0.6404  0.0156  0.1510
  627MOL0     C82665   5.687   3.710   6.392  0.5763 -0.1331  0.2046
  627MOL0     C82666   5.770   3.644   6.296  0.0861 -0.4702 -0.5044
  627MOL0     O82667   5.766   3.510   6.300  0.7956 -0.1071  0.5117
  627MOL0     C82668   5.809   3.426   6.199 -0.1214 -0.3227 -0.2523
  627MOL0     C82669   5.964   3.434   6.187  0.2611  0.4395 -0.6350
  627MOL0     C82670   6.010   3.342   6.073  0.0986 -0.1859  0.5640
  627MOL0     C82671   6.152   3.352   6.034  0.0002 -0.2290  0.1685
  627MOL0     C82672   6.177   3.279   5.894 -0.8027  0.4870 -0.4247
  627MOL0     C82673   6.316   3.256   5.858  0.2910 -0.2412  0.6446
  627MOL0     C82674   6.392   3.153   5.951 -0.4374  0.1431 -0.8379
  627MOL0     C82675   6.535   3.137   5.901 -0.2724  0.2278  0.0359
  627MOL0    Cl82676   6.551   3.016   5.755 -0.0124  0.6325  0.4623
  627MOL0     C82677   5.840   3.728   6.204 -0.1801 -0.0155  0.0601
  627MOL0     C82678   5.835   3.864   6.219 -0.1013  0.0037  0.0675
  627MOL0     O82679   5.957   4.124   6.274 -0.1550 -0.3012 -1.4258
  627MOL0     C82680   5.681   4.339   6.344  0.7284 -0.0324 -0.0304
  627MOL0     C82681   5.648   4.474   6.371 -0.1325  0.4512  0.0035
  627MOL0     N82682   5.978   5.062   6.716 -0.0600 -1.0308 -0.6917
  627MOL0     N82683   6.091   5.118   6.747  0.5089  0.0807  0.7526
  627MOL0     C82684   7.157   5.669   6.922 -0.1012 -1.0336 -0.0438
  627MOL0     C82685   7.295   5.693   6.931  0.2015 -0.0510 -0.6680
  627MOL0     C82686   7.721   5.806   6.875  0.3268  0.2469  0.0179
  627MOL0     C82687   7.827   5.808   6.973  0.3068  0.2072 -0.2950
  627MOL0     C82688   7.952   5.868   6.950  0.0003  0.1559  0.1415
  627MOL0     C82689   7.982   5.921   6.829 -0.6434 -0.0370  0.4998
  627MOL0     O82690   8.108   5.972   6.810 -1.2234  0.0736 -0.9722
  627MOL0     C82691   8.160   6.016   6.678 -0.2783 -0.0829  0.1646
  627MOL0     C82692   8.171   5.885   6.596 -1.1199  1.0970 -0.1843
  627MOL0     C82693   8.289   5.889   6.486  0.7036  0.2715 -0.8349
  627MOL0     C82694   8.234   5.931   6.352  0.3070 -0.1798  0.0486
  627MOL0     C82695   8.154   5.831   6.283  0.4271  0.4273 -0.2548
  627MOL0     C82696   8.080   5.762   6.213  1.1106 -0.2617  0.2041
  627MOL0     C82697   7.880   5.931   6.730 -1.0362  0.9427 -0.7287
  627MOL0     C82698   7.751   5.868   6.750 -0.4927  0.3036  0.2196
  627MOL0     H82699   7.372   5.640   6.603 -2.5321 -0.0327 -2.3975
  627MOL0     H82700   7.128   5.579   6.589  0.2827 -0.6840  0.5135
  627MOL0     H82701   6.992   5.405   6.689 -0.3080 -1.7382 -0.3252
  627MOL0     H82702   6.893   5.547   6.624 -1.3116  0.7098  1.1183
  627MOL0     H82703   6.734   5.485   6.834 -2.7053 -3.0625  0.2175
  627MOL0     H82704   6.851   5.362   6.864 -0.1962  1.6642  1.7208
  627MOL0     H82705   6.809   5.243   6.660 -0.0646  0.9936 -1.2995
  627MOL0     H82706   6.698   5.356   6.599  1.9023 -1.7910 -2.0607
  627MOL0     H82707   6.575   5.158   6.710 -1.2980 -2.7526  2.0182
  627MOL0     H82708   6.668   5.184   6.857 -1.4215  0.8828  0.6355
  627MOL0     H82709   6.551   5.390   6.891  1.2760 -1.3756  0.5519
  627MOL0     H82710   6.438   5.266   6.869 -0.3327  1.0201  0.3658
  627MOL0     H82711   6.502   5.416   6.612 -2.4206 -0.0989 -1.9778
  627MOL0     H82712   6.392   5.490   6.721  1.4604 -0.1995  0.7262
  627MOL0     H82713   6.288   5.307   6.542 -1.3027 -0.8493  0.7069
  627MOL0     H82714   6.353   5.199   6.663 -0.5816 -1.8895 -3.1413
  627MOL0     H82715   6.151   5.430   6.720 -1.8458 -0.4326 -2.1642
  627MOL0     H82716   6.221   5.336   6.836  0.9799 -1.7472  0.2162
  627MOL0     H82717   5.991   5.337   6.536  3.9060 -0.5639 -0.7881
  627MOL0     H82718   5.797   5.140   6.442 -1.2892 -1.1805  0.2794
  627MOL0     H82719   5.716   5.130   6.603 -1.5822 -0.9962 -0.6085
  627MOL0     H82720   5.850   4.877   6.573 -0.5507 -0.5880  0.9367
  627MOL0     H82721   5.846   4.927   6.415  0.2309  1.4484  0.2587
  627MOL0     H82722   5.608   4.909   6.620 -0.5257  3.2829  0.2491
  627MOL0     H82723   5.590   4.939   6.452 -1.3273 -0.7296  1.3871
  627MOL0     H82724   5.548   4.727   6.477  0.6328  1.5942 -0.5956
  627MOL0     H82725   5.687   4.674   6.578 -3.1399 -1.4198  0.6477
  627MOL0     H82726   5.953   4.594   6.345 -1.3048  1.8764 -0.0847
  627MOL0     H82727   6.015   4.353   6.327 -0.1175 -1.1061  2.8766
  627MOL0     H82728   5.631   3.906   6.484  2.2627  2.1331  1.1447
  627MOL0     H82729   5.606   3.660   6.443  1.0168  0.7568  1.8235
  627MOL0     H82730   5.750   3.441   6.109  1.3766 -1.1558 -1.4121
  627MOL0     H82731   5.777   3.325   6.227  0.1563  0.0060  1.3762
  627MOL0     H82732   6.008   3.399   6.280  2.7771  0.8364 -1.6001
  627MOL0     H82733   5.990   3.540   6.180  0.9201  0.3553  0.3790
  627MOL0     H82734   5.960   3.372   5.981  0.8778 -0.8334 -0.0784
  627MOL0     H82735   5.979   3.238   6.079  1.3980 -0.5014  4.0682
  627MOL0     H82736   6.177   3.454   6.002 -2.4491 -0.1275 -1.7582
  627MOL0     H82737   6.209   3.301   6.111  0.0508 -2.3591 -1.1988
  627MOL0     H82738   6.142   3.334   5.806  3.9397 -1.1952 -3.8506
  627MOL0     H82739   6.130   3.181   5.906 -0.0380  0.3463  1.8447
  627MOL0     H82740   6.367   3.353   5.849 -0.8444  0.1750 -2.5926
  627MOL0     H82741   6.305   3.216   5.757 -0.6060 -0.9087  1.0018
  627MOL0     H82742   6.403   3.199   6.050 -2.9500  2.0051 -1.3061
  627MOL0     H82743   6.336   3.059   5.962  0.2019  0.0982  4.1705
  627MOL0     H82744   6.602   3.111   5.983  2.0347  1.8119 -1.2389
  627MOL0     H82745   6.579   3.233   5.873 -0.1969  0.3966  0.7178
  627MOL0     H82746   5.895   3.704   6.114  2.2374  2.9934  0.5633
  627MOL0     H82747   5.886   3.924   6.144  0.0062  0.3898  0.4523
  627MOL0     H82748   5.600   4.269   6.327 -0.0030  0.9974 -0.9612
  627MOL0     H82749   5.544   4.500   6.385 -0.0773  2.0955 -2.2109
  627MOL0     H82750   7.097   5.671   7.012 -1.0998  0.7740 -0.6927
  627MOL0     H82751   7.343   5.712   7.026 -2.2506  2.2291  0.2398
  627MOL0     H82752   7.799   5.776   7.073  3.2073 -1.3028  0.1642
  627MOL0     H82753   8.022   5.849   7.032 -2.0285 -2.2406  1.4679
  627MOL0     H82754   8.259   6.062   6.675  0.9100 -2.5629 -1.2182
  627MOL0     H82755   8.088   6.090   6.641  1.6400  3.5468  2.9798
  627MOL0     H82756   8.201   5.808   6.667 -0.9730  0.4084 -0.9817
  627MOL0     H82757   8.072   5.860   6.557 -1.4571 -1.4479  2.0799
  627MOL0     H82758   8.339   5.793   6.494  1.2264  0.6909  1.6511
  627MOL0     H82759   8.363   5.962   6.520  1.1012 -1.0784  1.3896
  627MOL0     H82760   8.168   6.018   6.357  0.1982 -0.3252  1.5762
  627MOL0     H82761   8.314   5.962   6.284 -0.1668  1.6120  0.2670
  627MOL0     H82762   8.015   5.699   6.156 -1.3781  1.7437  0.6394
  627MOL0     H82763   7.909   5.970   6.633  2.9066 -0.5883 -0.3435
  627MOL0     H82764   7.672   5.858   6.675 -1.7745  1.3817  1.3745
  628MOL0     O82765   7.525   9.470   8.424  0.7816 -1.2142  0.7341
  628MOL0     C82766   7.436   9.474   8.514  0.8383 -0.5668  0.1734
  628MOL0     O82767   7.389   9.582   8.583  0.4660 -0.0560  0.3230
  628MOL0     C82768   7.460   9.697   8.593 -0.1655 -1.0465  0.1389
  628MOL0     C82769   7.606   9.703   8.615  0.4250  0.7342 -1.1600
  628MOL0     C82770   7.667   9.826   8.646 -1.4076 -0.7026  0.0989
  628MOL0     C82771   7.594   9.940   8.670  0.1812 -0.0992  0.6209
  628MOL0     O82772   7.653  10.063   8.693 -0.4950 -1.1009 -0.3342
  628MOL0     C82773   7.633  10.152   8.575  0.8775 -0.7619  1.7365
  628MOL0     C82774   7.735  10.096   8.458  0.6341  0.1989 -0.4371
  628MOL0     C82775   7.747  10.182   8.329  0.8554 -0.0653  0.5219
  628MOL0     C82776   7.607  10.210   8.265  0.0688 -0.4041 -0.6203
  628MOL0     C82777   7.593  10.325   8.167 -0.2796 -0.0231  0.1944
  628MOL0     C82778   7.616  10.455   8.235 -0.5251  0.0488  0.4650
  628MOL0     C82779   7.629  10.569   8.137  1.1955 -0.0954  0.1677
  628MOL0     C82780   7.489  10.610   8.072 -0.5248  0.9804 -0.0668
  628MOL0     N82781   7.500  10.667   7.933  0.0878  0.9437  0.8440
  628MOL0     C82782   7.429  10.768   7.883 -0.5482  0.2102 -0.0388
  628MOL0     C82783   7.450  10.775   7.756  1.4620 -0.5797  0.7497
  628MOL0     C82784   7.405  10.869   7.652  1.0202 -0.5649  0.6595
  628MOL0     C82785   7.257  10.871   7.618  0.7280  0.7186  0.2179
  628MOL0     C82786   7.216  10.752   7.533  0.0890 -0.4567 -0.5069
  628MOL0     C82787   7.072  10.755   7.480 -0.2545 -1.4070  0.1408
  628MOL0     O82788   6.980  10.847   7.549 -0.5652 -0.1216 -0.1915
  628MOL0     C82789   6.860  10.853   7.494 -0.5329 -0.4179 -0.3552
  628MOL0     C82790   6.824  10.956   7.416  0.2649  0.0079  0.0402
  628MOL0     C82791   6.701  10.967   7.354  0.1254  0.0160  0.2563
  628MOL0     C82792   6.610  10.862   7.366  0.2824  0.3460  0.1929
  628MOL0     C82793   6.475  10.864   7.318  0.9060  0.6040 -0.0446
  628MOL0     O82794   6.431  10.965   7.243  0.6771  0.5366 -0.1193
  628MOL0     C82795   6.298  10.970   7.197 -0.6718 -0.3827 -0.9814
  628MOL0     C82796   6.270  10.925   7.069  0.7899 -0.8209 -0.3443
  628MOL0     C82797   6.144  10.930   7.021  0.4305 -0.8249  0.1638
  628MOL0     C82798   6.047  11.000   7.095 -0.1902  0.8635 -0.7656
  628MOL0     O82799   5.919  11.011   7.029 -0.1794  0.4659 -0.5366
  628MOL0     C82800   5.817  11.076   7.105  0.2898  0.3713 -1.3409
  628MOL0     C82801   5.677  11.019   7.053  0.0061 -0.5497  0.2092
  628MOL0     C82802   5.638  11.060   6.912  0.0440 -0.9225 -0.0129
  628MOL0     C82803   5.536  10.966   6.840 -0.4895  1.1862  0.4980
  628MOL0     C82804   5.464  11.036   6.721 -0.2570 -0.8525  0.3843
  628MOL0     C82805   5.349  10.940   6.672 -0.9169 -0.4340 -0.3251
  628MOL0     C82806   5.293  11.018   6.548  0.0214 -1.1302 -0.3133
  628MOL0     C82807   5.176  10.944   6.495 -0.0313  0.3047  0.5723
  628MOL0    Cl82808   5.049  10.927   6.619 -0.1147 -0.2673  0.1478
  628MOL0     C82809   6.081  11.050   7.214 -0.3860  0.0275 -0.0631
  628MOL0     C82810   6.204  11.045   7.264 -1.5139  0.1750 -2.1797
  628MOL0     O82811   6.401  10.768   7.345 -0.0604  0.0251  0.0240
  628MOL0     C82812   6.643  10.747   7.443  0.6710 -0.2427 -0.3789
  628MOL0     C82813   6.763  10.741   7.504 -0.8658 -0.0890  0.6006
  628MOL0     N82814   7.529  10.673   7.716  0.2038 -0.5076  0.4879
  628MOL0     N82815   7.564  10.613   7.827  0.0085 -0.3435  0.0828
  628MOL0     C82816   7.453   9.938   8.661 -0.1294  0.5242 -0.6736
  628MOL0     C82817   7.393   9.816   8.623  0.3126 -0.1626  0.0249
  628MOL0     C82818   7.371   9.351   8.536  0.3417 -0.9461  0.1917
  628MOL0     C82819   7.377   9.253   8.431 -0.1236  0.5117 -0.1831
  628MOL0     C82820   7.312   9.135   8.459  0.7543  0.2761 -0.2091
  628MOL0     C82821   7.227   9.120   8.565 -0.2942  0.6108 -0.0174
  628MOL0     O82822   7.151   9.004   8.573 -0.2154 -0.0708 -0.8068
  628MOL0     C82823   7.081   8.971   8.458  0.3683 -0.2192 -0.2923
  628MOL0     C82824   6.938   8.917   8.500  0.4398  0.4193 -0.5918
  628MOL0     C82825   6.906   8.839   8.635  0.1188 -0.5073  0.4244
  628MOL0     C82826   6.971   8.703   8.640 -0.6034 -0.4954  0.5438
  628MOL0     C82827   6.928   8.600   8.545 -0.5852 -0.3333 -0.3429
  628MOL0     C82828   6.882   8.520   8.478  0.0663  0.3916  0.9711
  628MOL0     C82829   7.228   9.213   8.671  0.8253 -0.1950 -0.5060
  628MOL0     C82830   7.286   9.343   8.652  0.2967 -0.4764  0.2534
  628MOL0     H82831   7.667   9.616   8.592  0.1786  0.1779  0.2107
  628MOL0     H82832   7.775   9.834   8.656 -1.7441  1.7157  3.2674
  628MOL0     H82833   7.647  10.257   8.602  1.1923  0.2449 -1.8768
  628MOL0     H82834   7.530  10.150   8.539  1.1755 -1.0772  0.8883
  628MOL0     H82835   7.704   9.998   8.422  0.5415  0.1800 -0.3074
  628MOL0     H82836   7.839  10.086   8.492 -0.1815 -0.7142  1.9882
  628MOL0     H82837   7.816  10.135   8.259  0.2399 -2.1992  1.2883
  628MOL0     H82838   7.797  10.273   8.364  1.6848 -0.0464 -0.6587
  628MOL0     H82839   7.572  10.115   8.222 -1.3275 -1.1032  1.9023
  628MOL0     H82840   7.537  10.239   8.343 -0.3767  1.9645 -1.7869
  628MOL0     H82841   7.492  10.332   8.125 -1.0236 -0.6016  1.8182
  628MOL0     H82842   7.674  10.306   8.095  2.5420 -1.1306  3.3896
  628MOL0     H82843   7.708  10.453   8.295 -0.4183  0.5882  0.3258
  628MOL0     H82844   7.542  10.490   8.307  0.5864 -0.9948  2.1809
  628MOL0     H82845   7.678  10.656   8.181 -0.4458  1.8305 -1.5698
  628MOL0     H82846   7.699  10.536   8.059  0.0781  1.4787 -1.5862
  628MOL0     H82847   7.431  10.661   8.150 -0.8774 -2.6629  2.3153
  628MOL0     H82848   7.435  10.517   8.054 -2.3317  1.9935 -0.1415
  628MOL0     H82849   7.362  10.831   7.940 -2.5718  0.7096 -2.7763
  628MOL0     H82850   7.474  10.867   7.566 -0.0167  0.8952 -0.2610
  628MOL0     H82851   7.412  10.967   7.700 -2.8220  0.1860 -0.0009
  628MOL0     H82852   7.237  10.957   7.554  0.4380 -1.6247 -3.1066
  628MOL0     H82853   7.185  10.871   7.700 -0.3567  3.5126 -0.6318
  628MOL0     H82854   7.287  10.747   7.450  3.3546 -1.3731  2.1394
  628MOL0     H82855   7.218  10.656   7.585 -1.0684  0.2900  0.9899
  628MOL0     H82856   7.028  10.655   7.477 -4.5235  0.1283  2.3878
  628MOL0     H82857   7.085  10.791   7.378 -0.4893 -2.7056 -0.3614
  628MOL0     H82858   6.905  11.026   7.397  1.3365 -0.8145  1.4172
  628MOL0     H82859   6.690  11.063   7.305 -1.0989  0.4568  1.3350
  628MOL0     H82860   6.352  10.883   7.011  0.6984 -0.5993 -0.6306
  628MOL0     H82861   6.110  10.888   6.927 -0.9926  0.6154 -0.0004
  628MOL0     H82862   5.843  11.181   7.094 -0.5504  0.9247  1.1699
  628MOL0     H82863   5.825  11.057   7.213 -1.2031  2.4323 -0.8118
  628MOL0     H82864   5.595  11.058   7.114  3.0541  4.3177  1.8028
  628MOL0     H82865   5.683  10.910   7.061  0.9613 -0.5125  0.1950
  628MOL0     H82866   5.728  11.054   6.849  0.7124 -3.1180  1.0608
  628MOL0     H82867   5.594  11.160   6.924 -2.2189 -2.0302  1.7248
  628MOL0     H82868   5.581  10.872   6.808 -0.9681  0.8223  0.8823
  628MOL0     H82869   5.460  10.945   6.915  2.2929 -1.2430  2.8878
  628MOL0     H82870   5.544  11.054   6.649  0.0611  0.9465  1.1375
  628MOL0     H82871   5.416  11.131   6.743  2.1122  0.6785 -0.6933
  628MOL0     H82872   5.271  10.942   6.749 -0.7563 -2.6724 -0.0263
  628MOL0     H82873   5.380  10.841   6.638  0.1563 -0.5913  1.0452
  628MOL0     H82874   5.247  11.114   6.572 -0.4684 -1.4799  0.1920
  628MOL0     H82875   5.366  11.046   6.472 -1.4506 -3.1981 -2.6512
  628MOL0     H82876   5.197  10.842   6.463 -2.1231 -0.2592  0.8007
  628MOL0     H82877   5.138  10.996   6.406  0.4876  0.1833  0.2748
  628MOL0     H82878   6.012  11.094   7.286  1.8286 -0.6364  2.6808
  628MOL0     H82879   6.237  11.084   7.360 -0.4991 -1.0630 -2.0035
  628MOL0     H82880   6.573  10.669   7.472  0.0287  0.7268  0.7215
  628MOL0     H82881   6.790  10.656   7.566 -2.1273 -2.5087 -1.9521
  628MOL0     H82882   7.398  10.029   8.683  2.1030  2.2776 -1.9071
  628MOL0     H82883   7.287   9.802   8.604  0.2556  0.9996 -0.6363
  628MOL0     H82884   7.438   9.268   8.343  1.4776 -0.0739  0.7800
  628MOL0     H82885   7.310   9.054   8.387 -0.3470  0.8554 -0.8655
  628MOL0     H82886   7.146   8.903   8.403  1.2025 -2.7743  3.4783
  628MOL0     H82887   7.070   9.066   8.405 -1.4606  0.0398  0.4773
  628MOL0     H82888   6.864   8.996   8.486 -1.1644 -1.1991 -1.7597
  628MOL0     H82889   6.892   8.862   8.417 -0.8331 -2.4932  1.8668
  628MOL0     H82890   6.798   8.832   8.648 -0.0986  0.1088 -0.8191
  628MOL0     H82891   6.943   8.906   8.713 -0.6445  0.9143 -0.3825
  628MOL0     H82892   7.079   8.708   8.623 -0.8695  2.4029 -0.8734
  628MOL0     H82893   6.945   8.668   8.741  0.9495  2.4704  2.1025
  628MOL0     H82894   6.832   8.441   8.428 -0.1862 -1.1174  3.4544
  628MOL0     H82895   7.160   9.208   8.756  0.3702 -1.4560 -0.9162
  628MOL0     H82896   7.274   9.424   8.722 -0.8051 -1.5029  1.2876
  629MOL0     O82897  10.697   3.224   1.232  0.4139  0.2257 -0.0703
  629MOL0     C82898  10.794   3.235   1.160  0.2364  0.5620  0.7213
  629MOL0     O82899  10.906   3.153   1.164 -0.4638  0.5258  0.1938
  629MOL0     C82900  10.926   3.043   1.237  0.0150 -0.6287  0.1488
  629MOL0     C82901  10.842   2.986   1.325 -0.5628  0.5608 -0.4885
  629MOL0     C82902  10.893   2.870   1.397 -0.2444 -0.4550  0.0898
  629MOL0     C82903  11.022   2.821   1.381 -0.5002  0.0708 -0.3970
  629MOL0     O82904  11.051   2.708   1.451  0.7819 -0.1315  0.1033
  629MOL0     C82905  11.188   2.673   1.478  0.3701  0.2105 -0.2420
  629MOL0     C82906  11.190   2.531   1.533 -0.5707  0.1011 -0.0040
  629MOL0     C82907  11.316   2.478   1.611 -0.8183  0.3941 -0.3747
  629MOL0     C82908  11.299   2.334   1.639  0.2234  0.4907 -0.0547
  629MOL0     C82909  11.401   2.263   1.730  0.2414  0.0727 -0.3279
  629MOL0     C82910  11.542   2.307   1.692  0.6946 -0.2180 -0.6065
  629MOL0     C82911  11.592   2.253   1.554  0.0188 -0.4318 -1.1145
  629MOL0     C82912  11.741   2.298   1.522 -0.1366  0.1870 -0.2084
  629MOL0     N82913  11.778   2.245   1.391  0.0582 -0.3613 -1.0114
  629MOL0     C82914  11.766   2.310   1.271  0.6810  1.0403 -0.3247
  629MOL0     C82915  11.817   2.221   1.185 -0.1250 -0.3646 -1.1498
  629MOL0     C82916  11.847   2.234   1.042  0.1615 -0.3318  0.1526
  629MOL0     C82917  11.996   2.266   1.013  0.1927 -0.1095  0.4600
  629MOL0     C82918  12.095   2.161   1.057 -0.2338 -0.2441 -0.8516
  629MOL0     C82919  12.239   2.215   1.045 -0.8121 -0.3223  0.1910
  629MOL0     O82920  12.275   2.324   1.136 -0.0100 -0.7040 -0.2855
  629MOL0     C82921  12.232   2.310   1.265 -0.3159  0.7259 -0.1957
  629MOL0     C82922  12.139   2.402   1.314 -0.8133 -0.2689 -0.0129
  629MOL0     C82923  12.091   2.403   1.440  0.0657  0.7467  0.2164
  629MOL0     C82924  12.122   2.293   1.531  0.6165 -0.7732  0.0460
  629MOL0     C82925  12.053   2.289   1.658  0.3999 -0.7928 -0.0855
  629MOL0     O82926  11.984   2.405   1.699  0.1933  0.0548 -0.5574
  629MOL0     C82927  11.902   2.398   1.809  0.0697 -0.8075 -0.6295
  629MOL0     C82928  11.820   2.512   1.814 -0.6685  0.7267 -0.3017
  629MOL0     C82929  11.719   2.517   1.915 -0.2344  1.0134 -0.1124
  629MOL0     C82930  11.693   2.412   2.004 -0.3326  0.0885 -0.5602
  629MOL0     O82931  11.582   2.427   2.087  0.0919 -0.2428  0.3576
  629MOL0     C82932  11.568   2.347   2.206  0.3830 -0.9386 -0.8816
  629MOL0     C82933  11.508   2.212   2.166 -0.5739  0.2881  0.3252
  629MOL0     C82934  11.478   2.137   2.297 -0.2892 -0.1696 -0.2338
  629MOL0     C82935  11.546   1.997   2.309 -0.0334  0.1409  0.7726
  629MOL0     C82936  11.694   2.002   2.298  0.8728  0.0182 -0.3059
  629MOL0     C82937  11.770   2.093   2.402  0.8638  0.4386 -0.4035
  629MOL0     C82938  11.919   2.102   2.357 -0.4238 -0.6712  1.1696
  629MOL0     C82939  12.006   2.181   2.450 -0.1921  0.6097  0.4171
  629MOL0    Cl82940  11.965   2.164   2.630  0.0957  0.2426 -0.1608
  629MOL0     C82941  11.781   2.308   2.004 -0.1818  0.5861 -1.2751
  629MOL0     C82942  11.888   2.298   1.912 -0.3861 -0.2859 -0.6774
  629MOL0     O82943  12.036   2.173   1.693  1.0876 -0.2511 -0.4652
  629MOL0     C82944  12.215   2.205   1.482 -0.1373 -0.4170 -0.1199
  629MOL0     C82945  12.275   2.207   1.351  0.3404 -0.0958 -0.3168
  629MOL0     N82946  11.836   2.104   1.254  0.4840 -0.5688  0.2978
  629MOL0     N82947  11.814   2.113   1.385  0.5347  0.2744  1.5192
  629MOL0     C82948  11.109   2.890   1.298 -0.9282 -0.7496  0.3187
  629MOL0     C82949  11.059   3.001   1.227 -1.0023  0.6718 -0.1492
  629MOL0     C82950  10.801   3.342   1.059  0.4985 -0.1789  0.7885
  629MOL0     C82951  10.924   3.381   0.997  0.3947 -0.1938  0.4451
  629MOL0     C82952  10.932   3.474   0.887  0.3855  0.1977  0.0020
  629MOL0     C82953  10.816   3.543   0.848 -0.3065  0.9899  0.0465
  629MOL0     O82954  10.820   3.644   0.755  0.0722 -0.5223 -0.5914
  629MOL0     C82955  10.846   3.597   0.628  0.5725 -0.1149  0.1719
  629MOL0     C82956  10.988   3.642   0.571  0.9785 -0.2265  0.6385
  629MOL0     C82957  10.997   3.792   0.564  0.3055  0.5607 -1.0658
  629MOL0     C82958  11.148   3.822   0.531  0.4684  0.0474 -0.0284
  629MOL0     C82959  11.185   3.790   0.390  0.1188 -0.5458 -0.0575
  629MOL0     C82960  11.202   3.781   0.269  0.3196  0.3384  0.5961
  629MOL0     C82961  10.705   3.506   0.922  0.4406  1.0127  1.2128
  629MOL0     C82962  10.695   3.411   1.025 -0.1907 -0.5553  0.5601
  629MOL0     H82963  10.740   3.002   1.357 -0.4650 -2.5017  1.8270
  629MOL0     H82964  10.829   2.822   1.470  1.6671 -1.5615  1.1292
  629MOL0     H82965  11.231   2.742   1.551  1.6768 -1.4369  0.6149
  629MOL0     H82966  11.246   2.674   1.385  2.3438  0.4165  0.9351
  629MOL0     H82967  11.180   2.473   1.442  0.3473  2.4156 -1.6790
  629MOL0     H82968  11.103   2.511   1.596 -0.0732 -1.1027  0.3189
  629MOL0     H82969  11.324   2.520   1.712 -2.5469 -0.3835  0.1225
  629MOL0     H82970  11.399   2.496   1.542 -2.3305  0.4447 -2.2524
  629MOL0     H82971  11.197   2.308   1.669 -0.0480 -2.0737 -2.7187
  629MOL0     H82972  11.288   2.278   1.546  0.2179  0.5026 -0.0625
  629MOL0     H82973  11.407   2.156   1.706  3.6662  0.5281 -2.1446
  629MOL0     H82974  11.378   2.267   1.837  1.4694 -3.3069  0.2166
  629MOL0     H82975  11.613   2.278   1.770  0.4028  1.3937  0.3028
  629MOL0     H82976  11.544   2.417   1.694  1.1446 -0.2341 -0.1525
  629MOL0     H82977  11.585   2.144   1.565 -2.0901 -0.1661  1.0218
  629MOL0     H82978  11.521   2.281   1.476 -2.3091  0.0265  1.0282
  629MOL0     H82979  11.812   2.240   1.583  2.5679  3.5241  0.1157
  629MOL0     H82980  11.753   2.405   1.539 -2.3997  0.9954 -2.9267
  629MOL0     H82981  11.732   2.412   1.256 -2.3264  0.5628  2.1672
  629MOL0     H82982  11.788   2.315   0.996  3.3211  2.8181  1.1695
  629MOL0     H82983  11.833   2.138   0.993  0.6039 -2.1877  3.3823
  629MOL0     H82984  12.027   2.353   1.071 -0.0899  2.0384 -2.3856
  629MOL0     H82985  12.017   2.294   0.910  0.4539 -2.6880 -0.2662
  629MOL0     H82986  12.067   2.119   1.154 -0.4257  0.3662 -0.6383
  629MOL0     H82987  12.088   2.076   0.989  0.7302 -1.5082  0.5715
  629MOL0     H82988  12.243   2.248   0.941 -2.4657 -2.1932 -0.5301
  629MOL0     H82989  12.309   2.130   1.053 -0.7324 -0.5134 -1.9764
  629MOL0     H82990  12.114   2.486   1.250  0.1001 -0.7184 -0.9956
  629MOL0     H82991  12.028   2.488   1.461  1.4777  2.4349 -1.9662
  629MOL0     H82992  11.831   2.588   1.737 -1.1391 -0.9551 -2.1235
  629MOL0     H82993  11.649   2.600   1.918  0.6159  1.7195  1.8257
  629MOL0     H82994  11.496   2.401   2.268  2.1368  2.1460 -1.3861
  629MOL0     H82995  11.660   2.341   2.264  0.7824  0.5278 -1.3172
  629MOL0     H82996  11.564   2.157   2.090 -2.4122  1.5087 -2.0426
  629MOL0     H82997  11.416   2.237   2.113 -1.2085  0.2879  1.3955
  629MOL0     H82998  11.369   2.144   2.302 -0.4790 -1.7218 -1.7114
  629MOL0     H82999  11.515   2.198   2.381 -2.0103  4.2441 -2.3328
  629MOL0     H83000  11.518   1.967   2.410  0.0768  1.0998  1.0890
  629MOL0     H83001  11.489   1.927   2.247 -2.2113 -0.6661  3.4917
  629MOL0     H83002  11.711   2.050   2.201 -1.8449  0.2784 -0.7393
  629MOL0     H83003  11.731   1.899   2.301 -1.8103 -1.0055  2.4104
  629MOL0     H83004  11.757   2.053   2.503  1.3672  0.1069 -0.4680
  629MOL0     H83005  11.724   2.192   2.414 -2.9914 -1.3234  0.9429
  629MOL0     H83006  11.961   2.002   2.347 -1.2084 -0.8677 -0.6502
  629MOL0     H83007  11.916   2.159   2.263 -4.5550  1.6218  2.4489
  629MOL0     H83008  11.995   2.289   2.435 -0.7513  0.8403  2.2309
  629MOL0     H83009  12.110   2.153   2.430 -0.6953  0.0980 -1.7468
  629MOL0     H83010  11.769   2.226   2.074 -1.2692  1.7085 -0.1099
  629MOL0     H83011  11.961   2.219   1.923 -1.5252 -1.0495  2.9891
  629MOL0     H83012  12.227   2.119   1.548 -4.5092 -2.1524 -1.2504
  629MOL0     H83013  12.351   2.135   1.322 -1.7295 -3.8683  2.5905
  629MOL0     H83014  11.212   2.867   1.273 -0.7246 -0.1407  0.5860
  629MOL0     H83015  11.122   3.061   1.163  0.4998  1.9337  2.3701
  629MOL0     H83016  11.007   3.324   1.037  0.0977 -0.6471  0.4235
  629MOL0     H83017  11.023   3.497   0.833  2.0269 -0.6854  2.2229
  629MOL0     H83018  10.753   3.625   0.578 -1.4271 -2.3794  2.3747
  629MOL0     H83019  10.831   3.489   0.623 -3.7176  0.1102  2.9410
  629MOL0     H83020  11.067   3.602   0.635  1.5144  1.4453  1.0770
  629MOL0     H83021  11.009   3.592   0.475  1.2012 -1.7050  1.4319
  629MOL0     H83022  10.977   3.845   0.658  1.8511  2.8522 -1.9393
  629MOL0     H83023  10.919   3.826   0.495 -1.1050 -0.4359 -0.0433
  629MOL0     H83024  11.164   3.930   0.538  0.7850  0.1929 -2.3253
  629MOL0     H83025  11.212   3.776   0.607  0.2636  0.8993  0.6759
  629MOL0     H83026  11.199   3.767   0.163 -4.4249  1.4565  0.3746
  629MOL0     H83027  10.617   3.559   0.885 -1.3836 -1.2373  2.0972
  629MOL0     H83028  10.600   3.389   1.071 -0.2762 -3.9593 -0.9964
  630MOL0     O83029   8.983  10.100   9.188  0.0010 -1.6631  0.1412
  630MOL0     C83030   8.951  10.031   9.089  1.1224  0.3561 -0.0484
  630MOL0     O83031   8.863  10.072   8.991  0.2764 -0.2747  0.0730
  630MOL0     C83032   8.779  10.179   9.009 -0.4595  0.6021 -0.1815
  630MOL0     C83033   8.647  10.158   9.003  0.5216 -0.2806 -0.1921
  630MOL0     C83034   8.556  10.261   9.008  0.5151 -0.1901  0.3277
  630MOL0     C83035   8.605  10.385   9.028 -0.2856 -0.1279 -0.0119
  630MOL0     O83036   8.512  10.484   9.052 -0.0550  0.5224  0.0407
  630MOL0     C83037   8.542  10.616   9.003  0.2020 -0.0195  0.8131
  630MOL0     C83038   8.427  10.708   9.020  0.0405  0.2330  0.6743
  630MOL0     C83039   8.327  10.710   8.901 -0.7300 -0.3269  0.2831
  630MOL0     C83040   8.208  10.802   8.933  0.0052 -0.2363 -0.6503
  630MOL0     C83041   8.100  10.796   8.823  1.0933 -0.7044  0.0579
  630MOL0     C83042   8.010  10.912   8.807 -0.2898 -0.7855  0.6435
  630MOL0     C83043   7.939  10.957   8.937  0.0372  0.3989 -0.2133
  630MOL0     C83044   7.815  10.872   8.981 -0.0672 -0.3001  0.4232
  630MOL0     N83045   7.860  10.740   9.047  0.0298 -0.3697  1.1695
  630MOL0     C83046   7.901  10.725   9.178  0.4427 -0.6117 -0.7301
  630MOL0     C83047   7.924  10.597   9.198  0.5721  0.9492  0.3942
  630MOL0     C83048   8.000  10.524   9.309 -0.7502  1.0022  0.4599
  630MOL0     C83049   8.152  10.515   9.284  0.0176 -0.1955 -0.0582
  630MOL0     C83050   8.212  10.442   9.402  0.2076 -0.1120  0.4940
  630MOL0     C83051   8.241  10.300   9.395 -0.4110  0.8121  0.0252
  630MOL0     O83052   8.108  10.225   9.411 -0.3257  0.4813 -0.3528
  630MOL0     C83053   8.112  10.096   9.386  0.6268  0.8573 -0.6190
  630MOL0     C83054   8.228  10.011   9.394  0.2104 -1.0769 -0.0298
  630MOL0     C83055   8.219   9.882   9.346 -0.0727 -0.0407 -0.4195
  630MOL0     C83056   8.098   9.829   9.293  1.2061  0.1716 -0.0138
  630MOL0     C83057   8.070   9.683   9.267  0.2248  0.1937 -0.5370
  630MOL0     O83058   8.173   9.624   9.209 -0.0030 -0.6670 -0.8495
  630MOL0     C83059   8.178   9.487   9.192 -0.0360 -0.8170 -0.0176
  630MOL0     C83060   8.073   9.397   9.172  0.5337  0.0884  0.4678
  630MOL0     C83061   8.101   9.259   9.149 -0.1325  0.4534  0.4984
  630MOL0     C83062   8.234   9.213   9.148  1.0775  0.3515  0.9321
  630MOL0     O83063   8.252   9.082   9.130  0.5047 -0.2575 -0.4532
  630MOL0     C83064   8.336   9.052   9.015 -0.3880 -0.0361  0.5840
  630MOL0     C83065   8.323   8.908   8.983 -0.2176 -0.3674 -0.1396
  630MOL0     C83066   8.427   8.851   8.889 -0.7161  0.2449  0.4657
  630MOL0     C83067   8.404   8.715   8.839  0.2132  0.0406 -0.2416
  630MOL0     C83068   8.534   8.643   8.792 -0.9290  0.1350 -0.1931
  630MOL0     C83069   8.510   8.495   8.773  0.7379  0.2454  0.4023
  630MOL0     C83070   8.620   8.409   8.831 -0.1700  0.0918 -0.4451
  630MOL0     C83071   8.585   8.266   8.853  0.2415  0.9556 -0.3100
  630MOL0    Cl83072   8.537   8.190   8.695 -0.2479  0.0994  0.2674
  630MOL0     C83073   8.338   9.305   9.176 -0.3034  0.8326  0.0786
  630MOL0     C83074   8.306   9.437   9.194  0.1660 -0.3984 -0.4239
  630MOL0     O83075   7.958   9.639   9.294  0.3234 -0.4034 -1.1102
  630MOL0     C83076   7.983   9.908   9.300  0.7649  0.7136  0.3703
  630MOL0     C83077   7.988  10.040   9.329 -0.5974 -0.2646  1.2938
  630MOL0     N83078   7.889  10.531   9.077 -0.1141  0.4055  0.0529
  630MOL0     N83079   7.846  10.620   8.993  0.1722  0.0414 -1.0031
  630MOL0     C83080   8.747  10.413   9.016 -0.8324  0.4348 -0.2537
  630MOL0     C83081   8.832  10.309   9.019 -0.2182  0.9906  0.8748
  630MOL0     C83082   9.010   9.900   9.090  0.7921 -0.4777  0.7881
  630MOL0     C83083   8.940   9.802   9.019  0.4266  0.1151 -0.3575
  630MOL0     C83084   8.974   9.674   9.034 -1.3471  0.2842  1.1171
  630MOL0     C83085   9.090   9.634   9.111  0.8313  0.2073  0.0101
  630MOL0     O83086   9.123   9.505   9.115 -0.1030  0.3109 -0.8075
  630MOL0     C83087   9.068   9.432   9.222 -0.0974  0.0681 -0.4763
  630MOL0     C83088   9.077   9.282   9.196  0.5148 -0.5443 -0.4005
  630MOL0     C83089   8.966   9.243   9.098 -0.3193 -0.6757 -0.4316
  630MOL0     C83090   8.932   9.096   9.065  0.1725 -0.0912 -1.3416
  630MOL0     C83091   8.827   9.086   8.965 -0.2027 -1.1455 -1.1327
  630MOL0     C83092   8.744   9.065   8.881 -0.2973  0.3269  0.2096
  630MOL0     C83093   9.159   9.736   9.179  0.1751  0.5991 -0.5117
  630MOL0     C83094   9.116   9.867   9.171  0.1292 -0.2646 -0.2883
  630MOL0     H83095   8.615  10.055   9.010  3.4422 -1.2035  1.1607
  630MOL0     H83096   8.449  10.263   9.025  0.4149  0.7782 -0.3409
  630MOL0     H83097   8.575  10.607   8.899  1.6187  0.5136  1.2001
  630MOL0     H83098   8.624  10.654   9.064  1.0015  0.0707 -0.2819
  630MOL0     H83099   8.467  10.806   9.046 -1.5726  1.1916 -0.3410
  630MOL0     H83100   8.378  10.667   9.109  1.4335 -0.5246  1.1332
  630MOL0     H83101   8.293  10.608   8.882  2.6059 -1.6182  0.5274
  630MOL0     H83102   8.385  10.743   8.815  2.0889 -2.8452  1.0405
  630MOL0     H83103   8.161  10.783   9.031  2.1689  0.2777  0.5551
  630MOL0     H83104   8.239  10.904   8.955 -0.8323  0.2151 -1.5257
  630MOL0     H83105   8.039  10.706   8.828 -0.0803  0.0717 -0.0318
  630MOL0     H83106   8.155  10.788   8.728  0.0503  1.4090 -0.7929
  630MOL0     H83107   7.926  10.905   8.736  1.1344 -1.8165 -1.0218
  630MOL0     H83108   8.075  10.995   8.780  0.6183 -0.4477  3.5634
  630MOL0     H83109   8.008  10.954   9.022  1.3727  1.8092 -1.1853
  630MOL0     H83110   7.898  11.055   8.911  1.0390  0.7623 -0.5044
  630MOL0     H83111   7.766  10.862   8.884  0.1727  1.2933  0.1237
  630MOL0     H83112   7.742  10.915   9.051  0.2294 -1.4677  1.4990
  630MOL0     H83113   7.907  10.808   9.247 -2.2299 -0.1670 -0.9121
  630MOL0     H83114   7.967  10.422   9.331  0.1219  0.3637 -1.0661
  630MOL0     H83115   7.988  10.576   9.405 -1.8812 -2.2646  2.2303
  630MOL0     H83116   8.203  10.611   9.271 -2.1167  0.7921 -1.6619
  630MOL0     H83117   8.169  10.457   9.193 -1.5935  1.3999 -1.4376
  630MOL0     H83118   8.310  10.488   9.413  0.9664 -1.8897  1.5152
  630MOL0     H83119   8.162  10.463   9.497 -0.7600  0.4569 -0.1241
  630MOL0     H83120   8.312  10.273   9.474  0.0640 -0.9738 -0.9735
  630MOL0     H83121   8.283  10.272   9.299  1.6619 -0.2919  1.1756
  630MOL0     H83122   8.315  10.049   9.447  0.7103 -2.1299 -0.0917
  630MOL0     H83123   8.302   9.812   9.351 -0.2792 -0.3243 -0.8838
  630MOL0     H83124   7.967   9.420   9.179  0.8222  1.5716  0.3197
  630MOL0     H83125   8.033   9.179   9.121  1.5153  0.5306 -4.9594
  630MOL0     H83126   8.439   9.085   9.027 -0.3141 -0.6949  1.9732
  630MOL0     H83127   8.286   9.092   8.926 -0.4735  2.3083  1.5959
  630MOL0     H83128   8.222   8.879   8.954  0.4383 -2.1678 -0.7683
  630MOL0     H83129   8.335   8.858   9.080  2.4316 -1.2079 -0.8055
  630MOL0     H83130   8.516   8.855   8.953 -0.2596  1.9571 -0.2270
  630MOL0     H83131   8.432   8.920   8.804 -1.9587  2.5932  2.1873
  630MOL0     H83132   8.347   8.650   8.905  1.9451 -0.2365  1.0464
  630MOL0     H83133   8.348   8.725   8.746  1.0813 -2.1848 -1.0859
  630MOL0     H83134   8.615   8.654   8.865 -1.5454 -2.3942  0.9824
  630MOL0     H83135   8.568   8.692   8.700 -1.9812  4.7366  1.6326
  630MOL0     H83136   8.496   8.476   8.666 -0.8112 -0.2825  0.6672
  630MOL0     H83137   8.420   8.462   8.825  0.4853 -0.9265 -0.7226
  630MOL0     H83138   8.712   8.410   8.772 -1.0614  2.5907 -1.9425
  630MOL0     H83139   8.644   8.452   8.929  3.0560  0.3135 -1.2188
  630MOL0     H83140   8.498   8.267   8.920  0.4172  3.8313 -0.0016
  630MOL0     H83141   8.673   8.219   8.896 -1.9933 -2.4719  0.9522
  630MOL0     H83142   8.439   9.267   9.182 -0.8523 -0.5748  0.9175
  630MOL0     H83143   8.381   9.515   9.189  1.8916 -2.0399 -1.3263
  630MOL0     H83144   7.889   9.861   9.271 -0.2796  1.7718  1.8668
  630MOL0     H83145   7.895  10.096   9.324 -0.1772  0.5427  2.1547
  630MOL0     H83146   8.791  10.513   9.015  1.2188 -0.4186 -1.1697
  630MOL0     H83147   8.940  10.322   9.021 -0.1762  0.5286  1.8630
  630MOL0     H83148   8.853   9.821   8.958 -1.7772 -1.0994  2.2196
  630MOL0     H83149   8.919   9.600   8.977 -1.1332 -1.5563  3.2077
  630MOL0     H83150   8.965   9.465   9.238 -0.5352 -1.7173  0.6519
  630MOL0     H83151   9.124   9.464   9.310 -1.1931  0.9020 -0.0499
  630MOL0     H83152   9.180   9.260   9.166  1.0057  3.0481 -1.8762
  630MOL0     H83153   9.051   9.242   9.294  0.5929  0.4301  0.0243
  630MOL0     H83154   8.993   9.296   9.007 -2.4868  0.4178 -0.4980
  630MOL0     H83155   8.870   9.286   9.128  0.2856 -1.7221  3.5826
  630MOL0     H83156   9.013   9.034   9.024 -0.7960 -1.5874 -1.0858
  630MOL0     H83157   8.889   9.043   9.150 -1.0701  0.2335 -1.7450
  630MOL0     H83158   8.672   9.045   8.804 -0.2451  0.4627  0.1247
  630MOL0     H83159   9.242   9.710   9.244  0.2035  1.7271 -0.0797
  630MOL0     H83160   9.165   9.942   9.233 -2.8256  1.3495  0.2899
  631MOL0     O83161   4.970   0.629   0.732  0.9893  0.4636  0.3069
  631MOL0     C83162   4.855   0.597   0.705 -0.4570 -0.6374  0.5408
  631MOL0     O83163   4.803   0.471   0.693  0.5024  0.1653  0.0611
  631MOL0     C83164   4.891   0.368   0.700 -0.5933  1.5100  0.1342
  631MOL0     C83165   4.934   0.315   0.823 -0.0811 -0.2084 -0.3370
  631MOL0     C83166   5.017   0.208   0.832 -0.2242 -0.3607 -1.0859
  631MOL0     C83167   5.073   0.150   0.718  0.6995  0.4351  0.6045
  631MOL0     O83168   5.160   0.043   0.733 -0.7734 -0.3047 -0.4757
  631MOL0     C83169   5.300   0.066   0.729 -0.7468  0.0433 -0.7074
  631MOL0     C83170   5.362  -0.069   0.763  0.1951 -0.3531  0.9130
  631MOL0     C83171   5.490  -0.102   0.683 -0.1707 -0.3803 -0.3980
  631MOL0     C83172   5.535  -0.244   0.712  0.6447  0.4494 -0.1178
  631MOL0     C83173   5.636  -0.286   0.601  0.9253 -0.9278  0.3509
  631MOL0     C83174   5.688  -0.428   0.616  0.0665  1.1574  0.7004
  631MOL0     C83175   5.782  -0.453   0.495  1.1570  0.0315 -0.4984
  631MOL0     C83176   5.850  -0.590   0.497  0.1625  0.0812 -0.4755
  631MOL0     N83177   5.926  -0.621   0.376 -0.0083  0.2280 -0.0245
  631MOL0     C83178   5.966  -0.749   0.332 -0.0721 -0.3784  0.1240
  631MOL0     C83179   6.052  -0.730   0.242  0.2209 -0.6037 -0.3552
  631MOL0     C83180   6.131  -0.829   0.167  0.8631  0.1657 -0.5312
  631MOL0     C83181   6.272  -0.823   0.206  0.6435 -0.0631  0.1120
  631MOL0     C83182   6.300  -0.840   0.352  0.0700  0.2797 -0.3739
  631MOL0     C83183   6.285  -0.976   0.419 -0.1908 -0.1465  0.7900
  631MOL0     O83184   6.159  -1.037   0.388 -0.3877  0.2560 -0.9437
  631MOL0     C83185   6.105  -1.142   0.460 -0.2020 -0.1009 -0.2737
  631MOL0     C83186   6.177  -1.241   0.529 -0.7055  0.3247 -0.6679
  631MOL0     C83187   6.113  -1.353   0.589 -0.3832 -0.0709  0.8172
  631MOL0     C83188   5.966  -1.357   0.567  0.0932  0.6500  0.4574
  631MOL0     C83189   5.888  -1.482   0.598 -0.1487 -0.9926  0.1603
  631MOL0     O83190   5.962  -1.586   0.636  0.2695 -0.3537 -0.2767
  631MOL0     C83191   5.900  -1.709   0.674  0.7963  0.4124  0.0755
  631MOL0     C83192   5.785  -1.725   0.757 -0.1694 -0.5751  0.0577
  631MOL0     C83193   5.724  -1.844   0.768 -0.0393 -0.3936  0.0634
  631MOL0     C83194   5.767  -1.952   0.692  0.7950 -0.6578  0.2126
  631MOL0     O83195   5.691  -2.062   0.684 -0.6912  0.5182 -0.4799
  631MOL0     C83196   5.677  -2.123   0.812 -0.3699  0.5696 -0.6192
  631MOL0     C83197   5.574  -2.238   0.797 -0.4309 -0.1707 -0.2442
  631MOL0     C83198   5.608  -2.340   0.679  0.1279 -0.0203  0.5006
  631MOL0     C83199   5.498  -2.449   0.665 -0.1804  0.6411  1.0012
  631MOL0     C83200   5.571  -2.543   0.571  0.3703 -0.0933 -0.1719
  631MOL0     C83201   5.489  -2.680   0.557 -0.8854  0.0184  0.4275
  631MOL0     C83202   5.365  -2.684   0.467  0.1265  0.3993  0.3746
  631MOL0     C83203   5.254  -2.754   0.548  0.2296 -0.5548  0.3178
  631MOL0    Cl83204   5.297  -2.925   0.563 -0.2498  0.2062 -0.0689
  631MOL0     C83205   5.891  -1.944   0.628  0.8876  0.2431 -0.1095
  631MOL0     C83206   5.954  -1.822   0.615  0.5489 -0.1231  0.7133
  631MOL0     O83207   5.763  -1.484   0.575 -0.5578  0.1284  0.6569
  631MOL0     C83208   5.897  -1.256   0.498 -0.5244  0.4605 -0.7181
  631MOL0     C83209   5.966  -1.146   0.447 -0.1734  0.0240 -0.2109
  631MOL0     N83210   6.065  -0.591   0.219  0.1553  0.0644  0.1228
  631MOL0     N83211   5.999  -0.524   0.311 -0.1679 -0.0713  0.1180
  631MOL0     C83212   5.026   0.181   0.586  0.5557  0.6592 -0.9336
  631MOL0     C83213   4.940   0.294   0.588  0.6102 -0.6045  0.1756
  631MOL0     C83214   4.760   0.714   0.696  0.4318 -0.1270 -0.4404
  631MOL0     C83215   4.638   0.699   0.623 -0.0730 -0.3692 -0.0706
  631MOL0     C83216   4.555   0.808   0.596  0.5174  0.3807  0.0796
  631MOL0     C83217   4.561   0.929   0.670 -0.6489 -0.1468 -0.1164
  631MOL0     O83218   4.466   1.022   0.656 -0.1818 -0.2536  0.3882
  631MOL0     C83219   4.418   1.105   0.763 -0.6618 -0.5391  0.0453
  631MOL0     C83220   4.332   1.210   0.690  0.5741 -0.3120  0.3034
  631MOL0     C83221   4.279   1.305   0.794  0.6251  1.2228  0.2399
  631MOL0     C83222   4.387   1.405   0.834  0.2164 -0.7179  0.3161
  631MOL0     C83223   4.335   1.533   0.876  0.5400 -0.2782 -0.5210
  631MOL0     C83224   4.290   1.635   0.915  0.4104 -0.0153 -0.9798
  631MOL0     C83225   4.680   0.951   0.744  0.3995  0.2352  0.2775
  631MOL0     C83226   4.771   0.841   0.756 -0.0925 -0.5178  0.3150
  631MOL0     H83227   4.890   0.374   0.904 -1.1076 -0.0090 -1.0156
  631MOL0     H83228   5.041   0.181   0.935  3.0466 -0.4909 -1.7595
  631MOL0     H83229   5.321   0.147   0.800  0.3172 -2.4157  2.0133
  631MOL0     H83230   5.317   0.096   0.626  2.4081  0.0481 -0.2727
  631MOL0     H83231   5.289  -0.145   0.734  0.7004 -0.2776 -0.6098
  631MOL0     H83232   5.378  -0.070   0.872  0.0831 -0.5310  0.9290
  631MOL0     H83233   5.572  -0.037   0.715 -0.8050  0.4002 -0.3282
  631MOL0     H83234   5.479  -0.087   0.575  2.9018  0.8996 -0.6165
  631MOL0     H83235   5.590  -0.253   0.807  2.8076  1.0545 -1.2346
  631MOL0     H83236   5.447  -0.306   0.726 -1.0522  2.4580 -1.3619
  631MOL0     H83237   5.720  -0.216   0.596  0.9687 -1.0411 -0.7287
  631MOL0     H83238   5.572  -0.272   0.513  1.3336 -1.5508 -0.0471
  631MOL0     H83239   5.605  -0.498   0.613  1.0604 -0.1404 -3.4028
  631MOL0     H83240   5.746  -0.439   0.708 -0.3189 -2.9291  0.6320
  631MOL0     H83241   5.713  -0.451   0.410  0.7225 -1.3120 -0.1997
  631MOL0     H83242   5.852  -0.368   0.490  0.0971  1.2838  3.1712
  631MOL0     H83243   5.776  -0.670   0.512 -0.2824  0.4819 -0.5012
  631MOL0     H83244   5.906  -0.584   0.591 -0.3371  0.1454 -0.1741
  631MOL0     H83245   5.941  -0.851   0.358  5.1451 -1.9876 -0.1187
  631MOL0     H83246   6.104  -0.806   0.063 -0.4853  1.2297  0.0076
  631MOL0     H83247   6.085  -0.928   0.177  0.2342  0.7066  3.9134
  631MOL0     H83248   6.329  -0.738   0.167  2.3205 -1.6604 -1.0720
  631MOL0     H83249   6.326  -0.901   0.152  0.1053 -1.0271  0.9249
  631MOL0     H83250   6.408  -0.828   0.363 -0.0528  3.5876 -1.6386
  631MOL0     H83251   6.247  -0.769   0.416 -0.2743 -0.7459  0.5091
  631MOL0     H83252   6.306  -0.973   0.526  1.4838  2.7547  0.4622
  631MOL0     H83253   6.364  -1.042   0.381 -2.6624 -3.2776  0.6550
  631MOL0     H83254   6.285  -1.234   0.526 -0.4369 -2.7741 -2.8995
  631MOL0     H83255   6.177  -1.425   0.641 -0.6473  0.0775  1.3553
  631MOL0     H83256   5.739  -1.642   0.811 -0.3802 -3.0116  4.0086
  631MOL0     H83257   5.630  -1.849   0.823  0.4613 -2.5027  0.8428
  631MOL0     H83258   5.640  -2.053   0.888 -1.1156  1.2799 -1.6066
  631MOL0     H83259   5.767  -2.170   0.853 -1.9289 -1.7386  0.3359
  631MOL0     H83260   5.470  -2.206   0.785 -1.4643 -1.7971  3.1229
  631MOL0     H83261   5.556  -2.304   0.882 -0.7767 -0.3778 -0.4718
  631MOL0     H83262   5.707  -2.386   0.696 -0.3801 -1.1917  0.4037
  631MOL0     H83263   5.615  -2.272   0.594 -4.1134  2.9516  2.2261
  631MOL0     H83264   5.474  -2.498   0.759  2.0610  1.2560  1.9532
  631MOL0     H83265   5.399  -2.419   0.627 -0.1954  3.1114  2.7959
  631MOL0     H83266   5.667  -2.562   0.619 -0.5978  0.9508  2.4009
  631MOL0     H83267   5.580  -2.505   0.469 -1.0802 -0.5011 -0.4788
  631MOL0     H83268   5.467  -2.715   0.659 -0.5855 -2.1064 -0.1886
  631MOL0     H83269   5.560  -2.748   0.510  2.4991  3.2137  0.5343
  631MOL0     H83270   5.349  -2.577   0.449  5.7301  1.3233 -0.8270
  631MOL0     H83271   5.385  -2.733   0.372  2.8686  0.5952  0.7826
  631MOL0     H83272   5.159  -2.749   0.495  0.8404 -2.0556 -0.9938
  631MOL0     H83273   5.231  -2.712   0.647  0.5261 -3.0344  1.5199
  631MOL0     H83274   5.937  -2.029   0.579  2.9323  2.0405 -1.4920
  631MOL0     H83275   6.044  -1.809   0.556 -0.2968 -1.4479 -0.9526
  631MOL0     H83276   5.790  -1.263   0.487 -0.5632  0.6449 -0.4675
  631MOL0     H83277   5.920  -1.077   0.376 -0.4033 -1.4811 -1.5583
  631MOL0     H83278   5.058   0.134   0.494 -0.7737 -1.1002 -0.5452
  631MOL0     H83279   4.886   0.335   0.503  0.3365  2.2866  1.6064
  631MOL0     H83280   4.607   0.607   0.574 -4.6488 -0.0491  1.6969
  631MOL0     H83281   4.466   0.787   0.538  0.3001  2.6599 -0.5124
  631MOL0     H83282   4.501   1.157   0.812  1.1932 -5.4827  2.8400
  631MOL0     H83283   4.371   1.051   0.845  3.7924 -0.8409  2.7535
  631MOL0     H83284   4.384   1.257   0.606 -0.2541  1.7476  0.8648
  631MOL0     H83285   4.244   1.169   0.639  0.8118 -0.9730  0.4160
  631MOL0     H83286   4.230   1.259   0.881 -1.1538  1.7226 -0.4619
  631MOL0     H83287   4.190   1.353   0.753 -0.2469  0.0352  0.6816
  631MOL0     H83288   4.461   1.366   0.904  1.0414  2.5630  1.4264
  631MOL0     H83289   4.449   1.420   0.745 -0.0787 -1.4720 -0.0254
  631MOL0     H83290   4.240   1.718   0.959  1.2181  0.8408 -1.6247
  631MOL0     H83291   4.703   1.040   0.801  0.9149 -1.7209  3.3313
  631MOL0     H83292   4.858   0.859   0.818 -0.0899  0.0203  0.1589
  632MOL0     O83293   6.211   3.455   9.034 -0.6375  1.0346 -0.4420
  632MOL0     C83294   6.219   3.449   9.160  1.0816 -0.6433  0.5168
  632MOL0     O83295   6.194   3.563   9.235  0.5431  0.1099 -0.2023
  632MOL0     C83296   6.169   3.678   9.182 -0.8255 -0.0187  0.3751
  632MOL0     C83297   6.250   3.781   9.217  0.1004  0.0534 -0.5966
  632MOL0     C83298   6.202   3.908   9.183 -0.5390 -0.2855 -0.4540
  632MOL0     C83299   6.083   3.944   9.120 -0.0058  0.3380 -0.3729
  632MOL0     O83300   6.061   4.075   9.093  0.3313  0.6446 -0.9154
  632MOL0     C83301   5.930   4.120   9.109  0.4311 -0.1371  0.7117
  632MOL0     C83302   5.936   4.264   9.139  0.9778  0.0550  1.2959
  632MOL0     C83303   6.042   4.293   9.250 -0.8062 -0.8553  0.8244
  632MOL0     C83304   6.045   4.197   9.369 -0.0146 -0.2511  0.2258
  632MOL0     C83305   6.129   4.253   9.492  0.0556 -0.2937  1.0384
  632MOL0     C83306   6.172   4.135   9.581 -1.2721  0.3155  0.1525
  632MOL0     C83307   6.312   4.159   9.640  0.0492 -0.7491  0.1681
  632MOL0     C83308   6.332   4.066   9.763 -1.0034 -0.0386 -0.6918
  632MOL0     N83309   6.394   3.945   9.715  0.2230 -0.1615  0.1123
  632MOL0     C83310   6.526   3.911   9.748  0.5893 -0.2979  0.6328
  632MOL0     C83311   6.553   3.797   9.682 -0.3351 -0.5027 -0.0451
  632MOL0     C83312   6.682   3.720   9.707 -0.4696  0.3083  0.1838
  632MOL0     C83313   6.784   3.762   9.603  0.6372  0.6325  0.3527
  632MOL0     C83314   6.908   3.674   9.629 -0.1090 -0.3578  0.7098
  632MOL0     C83315   7.008   3.678   9.514  0.3209 -0.7177 -0.9254
  632MOL0     O83316   7.124   3.612   9.565 -0.7010 -0.7378  0.1447
  632MOL0     C83317   7.242   3.626   9.504 -0.4219 -0.5555  0.0523
  632MOL0     C83318   7.350   3.573   9.570  0.1257  0.7191  1.2531
  632MOL0     C83319   7.476   3.568   9.514 -0.0845  1.0997 -0.2616
  632MOL0     C83320   7.504   3.638   9.401  1.1610  0.5688 -0.2306
  632MOL0     C83321   7.644   3.642   9.340  0.7716  0.3630  0.2459
  632MOL0     O83322   7.744   3.613   9.432 -0.5274 -1.3498  0.5361
  632MOL0     C83323   7.882   3.588   9.405  0.6377  0.2278  0.2833
  632MOL0     C83324   7.944   3.573   9.277 -1.0606  0.6182 -0.6885
  632MOL0     C83325   8.084   3.547   9.278  0.6607 -0.0086  0.5867
  632MOL0     C83326   8.152   3.497   9.393  1.3275  0.2259  0.8185
  632MOL0     O83327   8.282   3.450   9.371 -0.0804 -0.3216  0.7686
  632MOL0     C83328   8.356   3.425   9.502 -0.7254  0.4544  0.6830
  632MOL0     C83329   8.346   3.280   9.536  0.1601  0.3436  0.9258
  632MOL0     C83330   8.437   3.227   9.652  0.0840 -0.7214  0.7214
  632MOL0     C83331   8.439   3.075   9.654 -0.5299  0.1472 -0.2462
  632MOL0     C83332   8.554   3.020   9.746  0.3634  0.7140  0.0180
  632MOL0     C83333   8.586   2.874   9.725 -0.2143 -0.3016 -0.1239
  632MOL0     C83334   8.493   2.775   9.783 -0.9605 -0.2061 -0.9567
  632MOL0     C83335   8.539   2.629   9.739 -0.2016  0.2590 -1.3838
  632MOL0    Cl83336   8.455   2.507   9.852  0.1736  0.1507 -0.2548
  632MOL0     C83337   8.073   3.481   9.507 -0.0882 -0.0843 -0.2551
  632MOL0     C83338   7.949   3.538   9.515  0.9461 -0.4457  0.2795
  632MOL0     O83339   7.657   3.695   9.229 -0.1661 -0.3354 -0.5648
  632MOL0     C83340   7.396   3.700   9.331  0.1775 -0.1798 -0.0094
  632MOL0     C83341   7.266   3.693   9.380  0.6227  0.3159 -0.6299
  632MOL0     N83342   6.434   3.762   9.611  0.2277  0.1519 -0.1769
  632MOL0     N83343   6.348   3.858   9.622  0.0984  0.0027 -0.3948
  632MOL0     C83344   6.007   3.835   9.074 -0.0981 -0.4082 -0.8444
  632MOL0     C83345   6.052   3.698   9.108 -0.3829  0.2088  0.0215
  632MOL0     C83346   6.258   3.317   9.217 -0.1522 -0.0309  0.3866
  632MOL0     C83347   6.364   3.251   9.161  0.1800  0.2111 -0.3370
  632MOL0     C83348   6.416   3.133   9.211 -0.6154  0.1805 -0.1755
  632MOL0     C83349   6.351   3.068   9.318 -0.6048  0.2788  0.6894
  632MOL0     O83350   6.402   2.948   9.365 -0.6975 -1.0866 -0.4549
  632MOL0     C83351   6.329   2.867   9.458  0.6508  0.0296  0.9067
  632MOL0     C83352   6.391   2.721   9.471 -0.0959  0.9062  0.8118
  632MOL0     C83353   6.430   2.644   9.333 -0.6715 -0.1159 -0.3811
  632MOL0     C83354   6.316   2.587   9.251  0.9977 -0.4181 -0.6601
  632MOL0     C83355   6.250   2.699   9.186 -0.2791  0.4108 -0.4590
  632MOL0     C83356   6.193   2.802   9.150  0.4699  0.2329  0.4170
  632MOL0     C83357   6.233   3.129   9.368 -0.1556  0.2540  0.0248
  632MOL0     C83358   6.184   3.252   9.316 -0.7544 -0.2304  0.4413
  632MOL0     H83359   6.339   3.746   9.270 -1.9439 -1.2676  2.2300
  632MOL0     H83360   6.266   3.995   9.182 -2.0849  0.9811 -3.3813
  632MOL0     H83361   5.882   4.072   9.195 -3.9364 -2.9018 -2.8444
  632MOL0     H83362   5.865   4.092   9.026  0.4526 -0.2653  0.7364
  632MOL0     H83363   5.832   4.288   9.165  1.5359  1.7108  2.1649
  632MOL0     H83364   5.965   4.324   9.052  0.5806 -1.6828 -0.0784
  632MOL0     H83365   6.031   4.399   9.274  0.0068 -0.6962  0.5160
  632MOL0     H83366   6.144   4.280   9.213 -0.1613  2.4255  1.1905
  632MOL0     H83367   5.941   4.173   9.391 -1.4676  2.4668 -2.7706
  632MOL0     H83368   6.106   4.118   9.326  2.8075  1.4844  0.7349
  632MOL0     H83369   6.069   4.327   9.545 -2.5330 -1.4700 -0.0773
  632MOL0     H83370   6.222   4.301   9.460 -0.9918  0.4155 -1.1673
  632MOL0     H83371   6.172   4.041   9.525  0.2595  0.0706  0.5358
  632MOL0     H83372   6.097   4.125   9.660  0.9506 -0.2490  2.2949
  632MOL0     H83373   6.382   4.141   9.557 -1.0493  1.8118 -1.4292
  632MOL0     H83374   6.327   4.261   9.677 -1.0557 -0.9458  1.2084
  632MOL0     H83375   6.256   4.039   9.837  3.5938 -0.8880  4.4115
  632MOL0     H83376   6.402   4.123   9.825 -1.1259  0.5124 -1.0561
  632MOL0     H83377   6.586   3.968   9.817  2.6504  0.7261 -1.8504
  632MOL0     H83378   6.667   3.612   9.714  1.7777  0.0258  1.8688
  632MOL0     H83379   6.731   3.749   9.800 -2.2083  2.8237  0.4074
  632MOL0     H83380   6.802   3.868   9.624  1.1393  0.8423 -1.0328
  632MOL0     H83381   6.738   3.746   9.505  1.3166 -0.1678  0.1588
  632MOL0     H83382   6.958   3.716   9.717  3.3765 -2.0334 -0.2810
  632MOL0     H83383   6.879   3.570   9.645 -0.3889 -0.4860 -0.5070
  632MOL0     H83384   7.037   3.779   9.482 -3.1395  1.0929  1.0282
  632MOL0     H83385   6.963   3.622   9.432  0.9728 -1.5031 -0.7578
  632MOL0     H83386   7.337   3.523   9.666  0.3781 -1.0499  0.4143
  632MOL0     H83387   7.557   3.520   9.569 -0.4896 -0.6613 -1.1534
  632MOL0     H83388   7.893   3.611   9.190  1.6225  1.4390 -2.0319
  632MOL0     H83389   8.142   3.531   9.189 -0.0562 -5.4986  0.7688
  632MOL0     H83390   8.337   3.501   9.578 -4.5241  1.3753 -0.9495
  632MOL0     H83391   8.460   3.454   9.486 -0.1884 -1.4213  0.5712
  632MOL0     H83392   8.383   3.242   9.439 -0.0333  2.8911 -0.2121
  632MOL0     H83393   8.242   3.251   9.553  0.2340 -0.4968  0.0931
  632MOL0     H83394   8.416   3.274   9.748  1.0778  2.1391 -0.3573
  632MOL0     H83395   8.538   3.263   9.629 -0.3690  1.5445  2.0790
  632MOL0     H83396   8.346   3.034   9.694 -0.8255 -0.9060 -1.8846
  632MOL0     H83397   8.449   3.040   9.551  0.4331  0.6128 -0.3250
  632MOL0     H83398   8.542   3.028   9.855  0.5926 -1.3216  0.2482
  632MOL0     H83399   8.649   3.068   9.723  1.5061 -0.1687  2.4867
  632MOL0     H83400   8.684   2.858   9.771 -0.0246  0.6912 -0.1767
  632MOL0     H83401   8.588   2.849   9.619  2.1439 -0.1015 -0.1612
  632MOL0     H83402   8.497   2.791   9.891 -0.6195  1.4852 -1.1868
  632MOL0     H83403   8.388   2.795   9.762 -1.2449 -1.2848 -0.6230
  632MOL0     H83404   8.646   2.614   9.721  0.3117  0.1141  1.2824
  632MOL0     H83405   8.493   2.616   9.641 -4.0511  0.6642  0.1989
  632MOL0     H83406   8.117   3.440   9.597 -0.7710 -0.0317  0.1013
  632MOL0     H83407   7.902   3.547   9.612  2.5002  4.1930  0.8510
  632MOL0     H83408   7.416   3.756   9.240  1.0019 -1.2673 -0.5256
  632MOL0     H83409   7.187   3.755   9.339  2.2468  2.7495 -0.2867
  632MOL0     H83410   5.905   3.828   9.037 -0.3081 -1.9920 -0.0941
  632MOL0     H83411   5.992   3.612   9.081  0.7835 -1.2919  1.9635
  632MOL0     H83412   6.398   3.288   9.064  1.6692 -0.3617 -0.0703
  632MOL0     H83413   6.505   3.078   9.180  2.2626  2.8805  2.5141
  632MOL0     H83414   6.228   2.867   9.416  0.6882 -0.0007  0.8153
  632MOL0     H83415   6.330   2.911   9.557 -2.5037  4.1938 -0.6201
  632MOL0     H83416   6.480   2.716   9.534  0.4768  0.0462 -0.0275
  632MOL0     H83417   6.318   2.656   9.519 -0.6617 -0.6134 -1.9001
  632MOL0     H83418   6.502   2.568   9.366  1.6412  2.1209  0.1153
  632MOL0     H83419   6.482   2.718   9.272 -1.4221  0.7283 -0.0278
  632MOL0     H83420   6.361   2.521   9.175  2.8340 -0.3470  0.2950
  632MOL0     H83421   6.249   2.520   9.307  1.0809 -0.7904 -1.0022
  632MOL0     H83422   6.132   2.886   9.123 -0.2857 -0.7805 -1.1765
  632MOL0     H83423   6.193   3.081   9.457 -0.5349  1.1650  0.3618
  632MOL0     H83424   6.102   3.315   9.348  0.3383  0.7841  1.3351
  633MOL0     O83425  11.422   7.535   6.647  1.1289 -0.3398  0.2560
  633MOL0     C83426  11.327   7.614   6.665  1.4033  0.4039  0.4229
  633MOL0     O83427  11.287   7.710   6.579 -0.5233 -0.8628  0.3557
  633MOL0     C83428  11.360   7.733   6.462  0.0314 -0.3019  0.3921
  633MOL0     C83429  11.435   7.852   6.463  0.4816 -0.0077 -0.0305
  633MOL0     C83430  11.501   7.891   6.344  0.0713  0.7571  0.6336
  633MOL0     C83431  11.510   7.804   6.230  0.2995  1.0188 -0.2294
  633MOL0     O83432  11.588   7.855   6.128 -0.2976  0.7460 -0.2486
  633MOL0     C83433  11.670   7.751   6.059 -0.7697 -0.6451 -0.2910
  633MOL0     C83434  11.751   7.653   6.149 -1.3780  0.0543  1.1828
  633MOL0     C83435  11.836   7.745   6.241  0.3835 -0.6595 -0.2975
  633MOL0     C83436  11.952   7.669   6.315  0.6940 -0.5458 -0.5936
  633MOL0     C83437  11.893   7.577   6.428 -0.7098  0.9557  0.2431
  633MOL0     C83438  11.843   7.661   6.539  0.6696  0.3248  0.1029
  633MOL0     C83439  11.843   7.551   6.655 -0.2165  0.5876 -0.1701
  633MOL0     C83440  11.782   7.596   6.787  0.1651  0.5606 -0.4941
  633MOL0     N83441  11.775   7.500   6.896 -0.2570  0.0409 -0.0699
  633MOL0     C83442  11.828   7.524   7.017 -0.5848  0.4168  0.0467
  633MOL0     C83443  11.799   7.407   7.085 -0.8789 -1.0346  0.3134
  633MOL0     C83444  11.840   7.357   7.222  0.6070  1.3933 -0.4209
  633MOL0     C83445  11.983   7.298   7.219  1.1698 -0.2595 -0.2378
  633MOL0     C83446  11.999   7.197   7.107 -0.5569 -0.3569  0.2004
  633MOL0     C83447  12.143   7.146   7.094 -0.0040 -0.1788 -0.0260
  633MOL0     O83448  12.147   7.036   7.008  0.1620  0.1226 -0.4865
  633MOL0     C83449  12.270   6.982   6.988 -0.2460 -0.2273 -0.4975
  633MOL0     C83450  12.280   6.851   6.936  0.6772 -0.7508  0.2374
  633MOL0     C83451  12.410   6.785   6.947 -0.2250  0.3493  0.4729
  633MOL0     C83452  12.523   6.851   6.979 -1.0270  0.1313  0.4814
  633MOL0     C83453  12.654   6.795   6.964  0.1255 -0.5959 -0.4367
  633MOL0     O83454  12.657   6.656   6.937 -0.5976  0.2181 -0.8053
  633MOL0     C83455  12.788   6.607   6.907  0.4038  0.6662 -0.1677
  633MOL0     C83456  12.805   6.538   6.785  0.1774  0.0054  0.0185
  633MOL0     C83457  12.929   6.502   6.736  0.6911 -0.7427 -0.1299
  633MOL0     C83458  13.043   6.532   6.800  0.9590 -0.5004  0.4457
  633MOL0     O83459  13.164   6.501   6.762 -0.3540  0.0278 -0.3212
  633MOL0     C83460  13.176   6.452   6.628 -0.2404 -0.3000 -0.7902
  633MOL0     C83461  13.321   6.495   6.595  0.1975 -0.2000  0.7143
  633MOL0     C83462  13.371   6.431   6.472 -0.1308  0.4328 -1.0041
  633MOL0     C83463  13.291   6.450   6.343 -0.7092  0.0587 -0.4612
  633MOL0     C83464  13.298   6.590   6.305 -0.3300 -1.2733  1.1713
  633MOL0     C83465  13.211   6.622   6.189  0.4891 -0.4838  0.3682
  633MOL0     C83466  13.066   6.655   6.228 -0.5952  0.9477  0.0961
  633MOL0     C83467  12.977   6.686   6.105 -0.7266  0.3998 -1.1000
  633MOL0    Cl83468  12.809   6.672   6.157 -0.1275  0.2290  0.2086
  633MOL0     C83469  13.021   6.582   6.923  0.0248  1.1574 -0.1863
  633MOL0     C83470  12.907   6.624   6.979  0.5738  0.4561 -0.6772
  633MOL0     O83471  12.753   6.869   7.001 -0.2676  0.3524 -0.0681
  633MOL0     C83472  12.514   6.984   7.010  0.2614 -0.4800 -0.7225
  633MOL0     C83473  12.388   7.046   7.024 -1.2894  0.2791 -0.0210
  633MOL0     N83474  11.722   7.325   7.010  0.0761 -0.8715  0.1726
  633MOL0     N83475  11.706   7.381   6.902  0.3799  0.5146  0.3168
  633MOL0     C83476  11.442   7.677   6.235 -0.6081 -0.7656  0.2207
  633MOL0     C83477  11.363   7.651   6.351 -0.2885 -0.4506  0.7359
  633MOL0     C83478  11.241   7.610   6.788 -0.5598  1.0429 -0.0906
  633MOL0     C83479  11.121   7.681   6.809 -0.1359 -0.4584  0.7780
  633MOL0     C83480  11.036   7.661   6.917  0.5697  0.4822 -0.7416
  633MOL0     C83481  11.064   7.571   7.019  0.1339  0.5651 -0.4302
  633MOL0     O83482  10.977   7.556   7.122 -0.0023  0.0787 -0.0029
  633MOL0     C83483  11.037   7.494   7.238 -0.7311  0.2713  0.0604
  633MOL0     C83484  10.945   7.514   7.360  0.7751  1.2082 -0.0024
  633MOL0     C83485  10.799   7.484   7.334  0.1266  0.1767  0.0166
  633MOL0     C83486  10.716   7.483   7.462 -0.0372 -0.2296  0.7847
  633MOL0     C83487  10.711   7.347   7.513  0.7018  0.3342 -0.0060
  633MOL0     C83488  10.688   7.234   7.545 -0.3412  0.3073  0.2878
  633MOL0     C83489  11.171   7.485   6.990 -0.8169 -0.2990 -0.0447
  633MOL0     C83490  11.256   7.498   6.885  0.1324 -0.0909 -0.6666
  633MOL0     H83491  11.414   7.916   6.548 -1.2616 -0.7418  0.1345
  633MOL0     H83492  11.545   7.988   6.327 -2.5848  1.8000 -0.8603
  633MOL0     H83493  11.739   7.806   5.995 -1.7063 -0.6835 -1.3595
  633MOL0     H83494  11.610   7.682   5.999 -1.5516 -1.1084  0.9809
  633MOL0     H83495  11.810   7.580   6.092 -0.7023  1.2598  0.2881
  633MOL0     H83496  11.692   7.590   6.216 -1.0371 -0.5255  0.9424
  633MOL0     H83497  11.766   7.801   6.304 -0.7874  2.0707 -3.7175
  633MOL0     H83498  11.874   7.832   6.188  0.0826  0.4819  1.2776
  633MOL0     H83499  12.012   7.618   6.239 -1.4509 -1.2452 -1.8902
  633MOL0     H83500  12.022   7.743   6.354  0.9227 -1.4810  0.8531
  633MOL0     H83501  11.968   7.502   6.452 -1.9858 -1.3299 -2.2610
  633MOL0     H83502  11.811   7.517   6.388  0.5654 -0.3831 -0.4773
  633MOL0     H83503  11.740   7.694   6.525  0.2008 -1.5305 -1.2173
  633MOL0     H83504  11.914   7.740   6.566  2.2122 -0.6214 -0.9502
  633MOL0     H83505  11.783   7.467   6.618  2.7988 -1.3950 -0.9086
  633MOL0     H83506  11.942   7.512   6.678 -0.2689  1.4021  1.5771
  633MOL0     H83507  11.679   7.613   6.751 -0.6892 -2.6110  0.1897
  633MOL0     H83508  11.828   7.693   6.807 -0.5455  1.2980 -2.1909
  633MOL0     H83509  11.876   7.617   7.045 -2.6019  0.8689  2.3452
  633MOL0     H83510  11.763   7.289   7.258 -1.4156  4.1052  0.7040
  633MOL0     H83511  11.839   7.438   7.296  0.1222  2.6105 -1.7248
  633MOL0     H83512  12.000   7.261   7.321 -1.0129 -0.6385  0.0342
  633MOL0     H83513  12.053   7.381   7.205  1.9335 -1.0039 -0.9294
  633MOL0     H83514  11.938   7.110   7.135 -2.8034  1.4354  1.1949
  633MOL0     H83515  11.962   7.225   7.008  2.1350 -1.3199 -1.1904
  633MOL0     H83516  12.170   7.124   7.198 -2.6829  3.1137  1.5501
  633MOL0     H83517  12.204   7.228   7.055 -1.6264 -0.4874 -3.5338
  633MOL0     H83518  12.201   6.783   6.905  1.4697 -1.8576  0.5666
  633MOL0     H83519  12.416   6.685   6.907 -2.3663  0.2628  0.2251
  633MOL0     H83520  12.717   6.527   6.721 -1.2393  2.0345  1.4917
  633MOL0     H83521  12.921   6.447   6.642  3.2558 -1.8022  0.1882
  633MOL0     H83522  13.101   6.497   6.562 -0.2453  0.7784 -0.0860
  633MOL0     H83523  13.157   6.345   6.623  0.8770 -0.6972  1.7687
  633MOL0     H83524  13.393   6.467   6.672 -0.1638 -3.0706  0.1160
  633MOL0     H83525  13.327   6.604   6.597  4.1849 -0.2873  2.4037
  633MOL0     H83526  13.376   6.324   6.496  1.9348  0.5283 -0.8219
  633MOL0     H83527  13.473   6.468   6.459  0.7869 -0.5991  2.2717
  633MOL0     H83528  13.328   6.392   6.258 -0.8193  0.0049 -0.4730
  633MOL0     H83529  13.185   6.429   6.362 -0.3250  0.3425  2.4544
  633MOL0     H83530  13.402   6.616   6.284  0.1723 -4.4091 -0.6987
  633MOL0     H83531  13.268   6.662   6.382  0.8466 -1.6550  2.0124
  633MOL0     H83532  13.190   6.537   6.123 -2.9999  1.9718 -2.0466
  633MOL0     H83533  13.254   6.704   6.132  0.2671 -0.6401 -0.0288
  633MOL0     H83534  13.027   6.565   6.276 -0.4224  0.1279 -1.2540
  633MOL0     H83535  13.062   6.735   6.302 -0.4064  1.3675 -0.3362
  633MOL0     H83536  12.997   6.622   6.018 -2.3200 -2.4033  0.4488
  633MOL0     H83537  13.003   6.791   6.089 -0.7927  0.8643  1.4768
  633MOL0     H83538  13.119   6.589   6.970  0.8390 -4.2963 -0.4297
  633MOL0     H83539  12.902   6.675   7.074  0.8073  3.0800 -1.9807
  633MOL0     H83540  12.597   7.052   7.024  1.8115 -2.1241 -1.4404
  633MOL0     H83541  12.391   7.147   7.065  0.7096  2.0700 -3.9790
  633MOL0     H83542  11.449   7.607   6.152  1.5284  0.5729 -0.8137
  633MOL0     H83543  11.308   7.558   6.349  0.9594 -1.3866 -4.1479
  633MOL0     H83544  11.081   7.740   6.727 -0.7599 -0.2552  1.2161
  633MOL0     H83545  10.943   7.717   6.914  0.2598  0.4643  3.1542
  633MOL0     H83546  11.134   7.541   7.262  0.4702  0.3220 -4.0840
  633MOL0     H83547  11.048   7.386   7.225  1.6926  0.1039  2.4532
  633MOL0     H83548  10.981   7.441   7.433  3.5267  1.7329 -0.7390
  633MOL0     H83549  10.940   7.615   7.401 -2.8993 -0.3249  4.1298
  633MOL0     H83550  10.788   7.387   7.284 -0.3030 -0.2757  0.9656
  633MOL0     H83551  10.761   7.564   7.270  1.8844  2.8908  2.1340
  633MOL0     H83552  10.759   7.549   7.538  2.0362  1.3990 -1.6763
  633MOL0     H83553  10.618   7.516   7.426  0.0000 -1.2589 -0.3286
  633MOL0     H83554  10.685   7.127   7.555  0.2186  0.4427  2.4958
  633MOL0     H83555  11.196   7.404   7.058  0.6227 -0.2085 -0.4268
  633MOL0     H83556  11.332   7.427   6.852  0.8009 -0.2386  1.1011
  634MOL0     O83557  10.504  11.143   3.724 -0.4153 -0.4778 -0.1938
  634MOL0     C83558  10.565  11.036   3.732 -0.2927 -0.0012  0.0097
  634MOL0     O83559  10.667  11.003   3.826  0.7404 -0.0408 -0.3896
  634MOL0     C83560  10.708  11.093   3.911 -0.1600  0.4663  0.0680
  634MOL0     C83561  10.729  11.237   3.895 -0.6240  0.6602 -0.2961
  634MOL0     C83562  10.739  11.316   4.008  0.3429 -1.3835  0.0351
  634MOL0     C83563  10.749  11.262   4.127  0.7968  0.8430 -0.7471
  634MOL0     O83564  10.741  11.356   4.231 -0.4412 -0.0778  0.2849
  634MOL0     C83565  10.736  11.326   4.371  0.4900  0.7500 -0.1706
  634MOL0     C83566  10.870  11.277   4.427  0.7627 -0.3148  0.5860
  634MOL0     C83567  10.885  11.255   4.580  0.0637 -0.2422 -1.4931
  634MOL0     C83568  11.034  11.293   4.627  0.4723  0.5209 -0.3818
  634MOL0     C83569  11.144  11.183   4.590  0.3516 -0.0569 -0.3103
  634MOL0     C83570  11.121  11.046   4.658 -0.5965 -0.0222 -0.5045
  634MOL0     C83571  11.225  10.941   4.631  0.5830 -0.4672 -0.1511
  634MOL0     C83572  11.177  10.797   4.675 -0.7465 -0.4611 -0.2174
  634MOL0     N83573  11.282  10.705   4.630 -0.1186  0.2885 -0.2749
  634MOL0     C83574  11.288  10.632   4.514 -0.1376 -0.5938  0.0602
  634MOL0     C83575  11.388  10.549   4.522  0.9648  0.2816  0.2110
  634MOL0     C83576  11.434  10.466   4.412  0.4593  0.6496 -0.7482
  634MOL0     C83577  11.350  10.336   4.397 -0.6069  0.2654 -0.0884
  634MOL0     C83578  11.429  10.237   4.320 -0.0598 -0.8212  0.3893
  634MOL0     C83579  11.348  10.108   4.286 -0.0419 -0.3184  0.0961
  634MOL0     O83580  11.344  10.025   4.404 -0.7932  0.3654  0.7263
  634MOL0     C83581  11.229   9.948   4.423 -0.1103 -0.3820 -0.4158
  634MOL0     C83582  11.128   9.993   4.514 -0.7267  0.4097 -0.7516
  634MOL0     C83583  11.013   9.914   4.533 -0.8835  0.7006 -0.8312
  634MOL0     C83584  10.987   9.794   4.454 -0.4751  0.6536 -0.4694
  634MOL0     C83585  10.881   9.688   4.489  0.2174 -0.2038  0.0418
  634MOL0     O83586  10.869   9.584   4.406 -0.4038  0.3559  0.0417
  634MOL0     C83587  10.797   9.475   4.419  0.1822  0.9400  0.3539
  634MOL0     C83588  10.831   9.373   4.330  0.9798  0.0879 -0.2360
  634MOL0     C83589  10.748   9.258   4.315 -0.6917  0.5980  0.0069
  634MOL0     C83590  10.640   9.245   4.394  0.0700  0.0877  0.5413
  634MOL0     O83591  10.543   9.154   4.367  0.2851  0.5252 -0.1017
  634MOL0     C83592  10.565   9.026   4.426 -0.2863 -0.3241  1.0151
  634MOL0     C83593  10.488   8.921   4.368 -0.1147 -0.1393  0.1365
  634MOL0     C83594  10.345   8.905   4.430 -0.6630 -0.2727 -1.3634
  634MOL0     C83595  10.338   8.890   4.578  0.3113 -0.3820 -0.0894
  634MOL0     C83596  10.400   8.754   4.617  0.2907 -0.8167 -0.3413
  634MOL0     C83597  10.318   8.626   4.578 -0.4039 -0.9625 -0.2428
  634MOL0     C83598  10.391   8.499   4.630 -0.2852  0.3050  0.5787
  634MOL0     C83599  10.483   8.435   4.530  0.5837  0.3467 -0.3188
  634MOL0    Cl83600  10.621   8.535   4.493 -0.2689 -0.5080 -0.1820
  634MOL0     C83601  10.603   9.347   4.481 -0.1672 -0.5404 -0.9040
  634MOL0     C83602  10.686   9.461   4.495 -0.9580  0.0994 -0.8969
  634MOL0     O83603  10.833   9.698   4.598 -0.5970  0.3391 -0.2054
  634MOL0     C83604  11.076   9.767   4.353  0.0433  0.2803  0.5019
  634MOL0     C83605  11.199   9.836   4.347  0.5295 -2.0503  1.2081
  634MOL0     N83606  11.425  10.549   4.654  0.5343 -0.1427  0.4087
  634MOL0     N83607  11.368  10.638   4.716 -0.1543 -0.2599  0.0941
  634MOL0     C83608  10.748  11.126   4.147  0.0013  0.3231 -0.9021
  634MOL0     C83609  10.722  11.038   4.043 -0.0236 -0.0240  0.3294
  634MOL0     C83610  10.535  10.942   3.619 -1.6398  0.0153 -0.4143
  634MOL0     C83611  10.586  10.813   3.615 -0.3047  0.7620  0.2845
  634MOL0     C83612  10.558  10.726   3.504 -0.1370 -0.8220  0.3665
  634MOL0     C83613  10.478  10.765   3.397 -0.6227 -0.1256 -1.0365
  634MOL0     O83614  10.467  10.664   3.311  0.0901  0.1793 -0.3970
  634MOL0     C83615  10.377  10.685   3.201  0.0150 -0.0592  0.0482
  634MOL0     C83616  10.421  10.604   3.083 -0.7584  0.4118 -0.1732
  634MOL0     C83617  10.331  10.620   2.956 -0.6381  0.2858 -1.0001
  634MOL0     C83618  10.376  10.516   2.850 -0.1472 -0.0022 -0.0761
  634MOL0     C83619  10.283  10.533   2.741  0.1150  0.8324 -0.2026
  634MOL0     C83620  10.189  10.533   2.657 -0.2798 -0.5653  1.1898
  634MOL0     C83621  10.419  10.896   3.395 -0.3093 -0.6667 -0.1424
  634MOL0     C83622  10.452  10.977   3.509 -0.0636 -0.6040  1.1649
  634MOL0     H83623  10.729  11.286   3.799  0.9257  0.4218 -0.4425
  634MOL0     H83624  10.726  11.423   3.997 -1.7063 -1.2694  2.7738
  634MOL0     H83625  10.659  11.255   4.400  0.6637  0.7314  0.2602
  634MOL0     H83626  10.713  11.426   4.410  0.2869 -0.0443  1.8886
  634MOL0     H83627  10.952  11.340   4.392  2.4127 -3.1956 -1.1627
  634MOL0     H83628  10.883  11.179   4.379 -4.3385 -1.0019 -0.0571
  634MOL0     H83629  10.867  11.154   4.617 -0.8755  1.8182  4.9878
  634MOL0     H83630  10.814  11.322   4.628  1.0055 -1.4104  1.7928
  634MOL0     H83631  11.066  11.381   4.570  1.3544 -0.1733 -0.9764
  634MOL0     H83632  11.042  11.324   4.732 -1.1999  3.2397 -0.9577
  634MOL0     H83633  11.236  11.228   4.627 -1.7111  3.1976  1.3623
  634MOL0     H83634  11.150  11.166   4.482 -2.4174 -0.5387 -0.4665
  634MOL0     H83635  11.027  10.997   4.630  0.1987 -1.9946  0.0955
  634MOL0     H83636  11.117  11.060   4.766 -1.3787 -1.5423 -0.3024
  634MOL0     H83637  11.250  10.934   4.525 -0.5699  0.0906 -0.4721
  634MOL0     H83638  11.311  10.970   4.693 -0.6096 -0.7380  1.7148
  634MOL0     H83639  11.081  10.764   4.635 -0.3500 -0.4271 -1.2397
  634MOL0     H83640  11.176  10.793   4.784  4.0258  1.3899  0.1686
  634MOL0     H83641  11.231  10.647   4.423 -1.0616 -2.4261  0.2856
  634MOL0     H83642  11.537  10.437   4.433  0.3301  0.0200 -0.9548
  634MOL0     H83643  11.432  10.529   4.322 -1.8289  4.9832  1.9686
  634MOL0     H83644  11.251  10.358   4.354 -1.5605  1.5011  2.5633
  634MOL0     H83645  11.324  10.289   4.492 -0.0589  0.6130  0.2326
  634MOL0     H83646  11.479  10.285   4.236 -1.3764  0.9871  0.5758
  634MOL0     H83647  11.506  10.197   4.386 -0.8876 -2.1039  0.6246
  634MOL0     H83648  11.401  10.059   4.204  0.7305  2.7350 -1.3747
  634MOL0     H83649  11.242  10.129   4.269 -0.0004 -0.7640 -0.7439
  634MOL0     H83650  11.142  10.082   4.573 -4.0439  1.2141 -0.9853
  634MOL0     H83651  10.949   9.958   4.609 -0.7465 -0.4022 -0.0695
  634MOL0     H83652  10.907   9.374   4.253  1.5995  1.8529  0.3501
  634MOL0     H83653  10.764   9.180   4.242  0.4956 -3.1120  3.8276
  634MOL0     H83654  10.555   9.032   4.534 -2.2360  0.0583  0.8479
  634MOL0     H83655  10.671   9.002   4.416 -0.2932 -0.6071  1.5977
  634MOL0     H83656  10.544   8.827   4.366  0.3904  0.1579  0.2922
  634MOL0     H83657  10.477   8.948   4.262 -3.9767 -0.6592  0.2290
  634MOL0     H83658  10.300   8.816   4.385 -1.2724  0.7699 -2.8985
  634MOL0     H83659  10.281   8.989   4.402 -0.4227  0.5118  0.2983
  634MOL0     H83660  10.399   8.958   4.638 -2.3499  0.7042  1.5891
  634MOL0     H83661  10.234   8.908   4.608  0.8523  3.5668  0.0007
  634MOL0     H83662  10.405   8.760   4.726 -3.5500  4.4667 -0.0488
  634MOL0     H83663  10.503   8.742   4.583  0.0137 -2.3358 -0.6957
  634MOL0     H83664  10.307   8.614   4.470 -6.2681 -0.2684  0.0079
  634MOL0     H83665  10.218   8.637   4.620  0.6211 -0.3756  2.1995
  634MOL0     H83666  10.434   8.501   4.730  2.9577 -2.9049 -0.5555
  634MOL0     H83667  10.308   8.431   4.652  0.8482 -0.9997  0.9244
  634MOL0     H83668  10.434   8.396   4.440  1.8775  2.3336 -1.9790
  634MOL0     H83669  10.539   8.354   4.577  0.4501 -1.6835 -3.3118
  634MOL0     H83670  10.521   9.351   4.552 -1.5279 -0.7724 -2.4022
  634MOL0     H83671  10.657   9.547   4.553  3.4842  1.9120 -0.9591
  634MOL0     H83672  11.060   9.693   4.275  3.4380 -2.5129  2.1838
  634MOL0     H83673  11.269   9.814   4.267 -0.3875 -1.0089  0.0770
  634MOL0     H83674  10.753  11.098   4.252  2.2518 -0.4038 -1.1546
  634MOL0     H83675  10.712  10.931   4.057 -2.3135  0.4362  3.1998
  634MOL0     H83676  10.641  10.773   3.700  0.3204 -0.2038 -0.5545
  634MOL0     H83677  10.608  10.630   3.507  6.1310  1.9635  2.1029
  634MOL0     H83678  10.391  10.789   3.172 -0.8475  0.1323  0.2786
  634MOL0     H83679  10.271  10.666   3.221 -0.7845  0.4860 -3.1375
  634MOL0     H83680  10.525  10.629   3.063  0.6723  0.8514  5.9763
  634MOL0     H83681  10.424  10.498   3.111  2.8331  0.1717 -1.0556
  634MOL0     H83682  10.337  10.723   2.920  0.7854  1.3222  1.8539
  634MOL0     H83683  10.232  10.602   2.997 -0.3228  1.3861  0.2923
  634MOL0     H83684  10.476  10.556   2.833  0.5249 -0.6268  2.0401
  634MOL0     H83685  10.380  10.412   2.883 -1.0491  0.1837  0.6460
  634MOL0     H83686  10.121  10.531   2.574  2.1267 -1.3642 -0.8697
  634MOL0     H83687  10.341  10.921   3.323 -1.9236 -3.2846  0.5402
  634MOL0     H83688  10.402  11.074   3.515 -0.1497 -0.7243  2.8901
  635MOL0     O83689   1.541   4.974   6.971  0.2394 -0.5676 -0.8378
  635MOL0     C83690   1.654   4.929   6.988  1.1801  0.0495  0.8634
  635MOL0     O83691   1.691   4.845   7.084  0.4839 -0.1436 -0.0576
  635MOL0     C83692   1.592   4.794   7.175 -0.2069 -0.4393 -0.0317
  635MOL0     C83693   1.461   4.746   7.144  0.1346  0.7571  0.8168
  635MOL0     C83694   1.378   4.711   7.244  0.5004 -0.7546  1.2796
  635MOL0     C83695   1.411   4.714   7.378 -0.5219 -0.3075 -0.1957
  635MOL0     O83696   1.320   4.676   7.470  0.5584 -0.3648  0.5385
  635MOL0     C83697   1.365   4.620   7.600 -0.1859  0.5522 -0.7106
  635MOL0     C83698   1.277   4.502   7.639 -0.9580  0.5313  0.2952
  635MOL0     C83699   1.145   4.525   7.700  0.5200  0.1846  0.5286
  635MOL0     C83700   1.075   4.394   7.745 -0.4940  0.2455  1.1658
  635MOL0     C83701   0.989   4.433   7.862 -0.8776 -0.0937  0.4454
  635MOL0     C83702   0.916   4.303   7.917 -0.3747 -0.6814 -0.2637
  635MOL0     C83703   0.828   4.230   7.822  0.3898  0.1347 -0.8020
  635MOL0     C83704   0.751   4.114   7.892 -0.3481  0.5608 -0.2674
  635MOL0     N83705   0.668   4.026   7.807  0.5874  0.3530  0.4553
  635MOL0     C83706   0.715   3.952   7.695  0.0673  0.0447  0.4355
  635MOL0     C83707   0.612   3.867   7.667 -0.0882 -0.2411  0.2072
  635MOL0     C83708   0.604   3.777   7.541  0.3329 -0.7192  0.3027
  635MOL0     C83709   0.669   3.631   7.565 -0.0218  0.5350  0.4775
  635MOL0     C83710   0.643   3.569   7.704  0.4441 -0.6808 -0.0623
  635MOL0     C83711   0.497   3.548   7.723  0.3118 -0.1743  0.1165
  635MOL0     O83712   0.440   3.463   7.615 -0.1523  0.9208  0.2302
  635MOL0     C83713   0.309   3.471   7.585  0.2232  0.4030  0.7417
  635MOL0     C83714   0.275   3.425   7.464 -0.1091  0.2115  0.1603
  635MOL0     C83715   0.145   3.402   7.426 -0.2580 -0.5710 -0.6186
  635MOL0     C83716   0.035   3.437   7.513  0.7243  0.3399 -0.3002
  635MOL0     C83717  -0.107   3.427   7.471 -0.3623 -0.0042  0.1040
  635MOL0     O83718  -0.212   3.456   7.566 -1.3052 -0.0012  0.3468
  635MOL0     C83719  -0.341   3.451   7.532 -0.4365  1.4934  0.1951
  635MOL0     C83720  -0.404   3.353   7.452 -0.5299 -0.9352  0.9406
  635MOL0     C83721  -0.539   3.349   7.430 -0.7269  0.6340  0.2744
  635MOL0     C83722  -0.621   3.445   7.474  0.0302  0.2766  0.0077
  635MOL0     O83723  -0.751   3.455   7.446  0.3352  0.9260 -0.1014
  635MOL0     C83724  -0.824   3.347   7.375  0.1602 -0.7395  0.0815
  635MOL0     C83725  -0.966   3.354   7.416  0.4331  0.1242 -0.3089
  635MOL0     C83726  -1.057   3.278   7.321  0.8561  0.2130 -0.0001
  635MOL0     C83727  -1.180   3.231   7.395  0.3267 -0.8709  0.0304
  635MOL0     C83728  -1.283   3.161   7.310 -0.3536 -0.5876 -0.1837
  635MOL0     C83729  -1.426   3.152   7.354  0.1294  0.3228  0.0023
  635MOL0     C83730  -1.532   3.092   7.273 -0.5269  0.0645 -0.0510
  635MOL0     C83731  -1.525   2.946   7.250  0.1509  0.4800  0.5459
  635MOL0    Cl83732  -1.626   2.871   7.120  0.1783  0.1045  0.7069
  635MOL0     C83733  -0.561   3.549   7.551  0.2235 -0.0151  0.1853
  635MOL0     C83734  -0.425   3.548   7.582 -0.6854  0.6156 -0.7214
  635MOL0     O83735  -0.127   3.414   7.348 -0.1574 -0.2704  0.2329
  635MOL0     C83736   0.071   3.492   7.636 -0.7679 -0.2174 -0.1393
  635MOL0     C83737   0.204   3.517   7.665  0.2332  0.1105  0.2370
  635MOL0     N83738   0.511   3.899   7.762  0.5329 -0.0053 -0.6671
  635MOL0     N83739   0.545   3.987   7.846  0.9882 -0.4434  0.3374
  635MOL0     C83740   1.535   4.776   7.409 -0.1690  0.8374  0.7621
  635MOL0     C83741   1.628   4.806   7.306  0.9257 -0.7746  1.2803
  635MOL0     C83742   1.748   4.960   6.886 -0.0609  0.0871  0.7490
  635MOL0     C83743   1.856   4.870   6.870  0.1923 -0.1851  0.0011
  635MOL0     C83744   1.952   4.895   6.770  0.6513  0.5459 -0.6541
  635MOL0     C83745   1.941   5.003   6.687 -0.0313 -0.2382  0.0750
  635MOL0     O83746   2.034   5.037   6.593 -0.0376 -0.0420  0.7586
  635MOL0     C83747   2.136   4.939   6.561  0.2651  0.3685 -0.6996
  635MOL0     C83748   2.239   5.006   6.481  1.0415  0.6756 -0.3547
  635MOL0     C83749   2.313   5.121   6.554  1.5367  0.0922  0.0228
  635MOL0     C83750   2.429   5.174   6.470 -0.8666 -0.1521  0.9927
  635MOL0     C83751   2.511   5.282   6.535 -0.1416  0.2141  0.1067
  635MOL0     C83752   2.577   5.375   6.578  0.4424  0.1388 -0.3269
  635MOL0     C83753   1.834   5.097   6.700  0.2944  0.9047 -1.0501
  635MOL0     C83754   1.734   5.076   6.800  0.7627 -0.1428  0.1829
  635MOL0     H83755   1.448   4.736   7.037 -1.0845  1.9044  0.8319
  635MOL0     H83756   1.279   4.668   7.232  1.9984 -4.5777  1.5128
  635MOL0     H83757   1.364   4.693   7.681  2.2488 -0.1278  0.0358
  635MOL0     H83758   1.466   4.577   7.592 -0.4404  0.0223 -1.1337
  635MOL0     H83759   1.331   4.456   7.721  0.3628  1.6491  0.0929
  635MOL0     H83760   1.268   4.431   7.556  2.7526  0.3386 -0.1330
  635MOL0     H83761   1.074   4.577   7.636  1.0703  1.6354  1.0594
  635MOL0     H83762   1.170   4.587   7.787 -2.1203  2.3972 -0.1479
  635MOL0     H83763   1.017   4.349   7.664 -1.6011  0.3898  1.8665
  635MOL0     H83764   1.143   4.314   7.778 -2.0684 -0.3831  3.0905
  635MOL0     H83765   0.915   4.505   7.828  0.3993 -0.0564 -2.5247
  635MOL0     H83766   1.045   4.477   7.944 -1.3306 -0.5331  1.0020
  635MOL0     H83767   0.856   4.331   8.004  3.0571 -2.6553  3.0823
  635MOL0     H83768   0.985   4.229   7.960 -1.7464 -0.5623  2.3595
  635MOL0     H83769   0.754   4.302   7.786  1.3293  1.0361 -0.9916
  635MOL0     H83770   0.879   4.196   7.732 -1.3005 -3.2769 -0.6266
  635MOL0     H83771   0.683   4.155   7.967 -2.8315  1.3743 -2.7898
  635MOL0     H83772   0.827   4.049   7.938 -2.0522 -3.2274 -2.4043
  635MOL0     H83773   0.809   3.976   7.646  0.4438  1.2458  1.6955
  635MOL0     H83774   0.664   3.822   7.461  1.7182 -1.2953  0.9890
  635MOL0     H83775   0.507   3.766   7.491  0.7099 -2.0928 -0.1546
  635MOL0     H83776   0.777   3.648   7.558  0.0145  0.9200  1.7034
  635MOL0     H83777   0.660   3.554   7.487 -0.4592 -2.0186  2.8704
  635MOL0     H83778   0.692   3.472   7.719 -1.7690 -1.6942  1.1622
  635MOL0     H83779   0.673   3.638   7.783  0.6145  0.5370 -1.1625
  635MOL0     H83780   0.441   3.641   7.713 -1.6675 -1.4987 -2.7675
  635MOL0     H83781   0.461   3.525   7.823 -4.4810 -0.4851 -1.4167
  635MOL0     H83782   0.339   3.400   7.380  0.8356  1.6999  0.4066
  635MOL0     H83783   0.121   3.374   7.324 -2.6838 -2.0170  0.2769
  635MOL0     H83784  -0.337   3.285   7.400 -0.9373  0.3232 -1.3666
  635MOL0     H83785  -0.577   3.287   7.348  2.6117 -1.7497  0.3216
  635MOL0     H83786  -0.777   3.252   7.402 -0.0155 -0.2107  2.5384
  635MOL0     H83787  -0.815   3.375   7.270 -2.9388  1.7241  0.2846
  635MOL0     H83788  -0.990   3.459   7.432  0.6819 -0.2078  2.9564
  635MOL0     H83789  -0.975   3.314   7.517 -2.5023 -0.7310 -0.8107
  635MOL0     H83790  -1.007   3.194   7.273 -1.7030 -2.5169  1.7064
  635MOL0     H83791  -1.076   3.346   7.237  0.2513  0.5296  0.3806
  635MOL0     H83792  -1.164   3.157   7.474 -3.7552  1.0067  2.9423
  635MOL0     H83793  -1.231   3.311   7.450 -1.0187 -1.3888 -0.4295
  635MOL0     H83794  -1.239   3.061   7.311  1.7618  0.2944 -0.4017
  635MOL0     H83795  -1.269   3.208   7.212  0.0287  0.7567  0.4942
  635MOL0     H83796  -1.460   3.253   7.380 -3.3703 -0.2704 -1.6798
  635MOL0     H83797  -1.426   3.107   7.454 -0.6947  3.7765  1.7415
  635MOL0     H83798  -1.629   3.111   7.319 -1.9260  1.8417 -3.3508
  635MOL0     H83799  -1.524   3.133   7.172  1.5419  1.8941  0.7847
  635MOL0     H83800  -1.533   2.885   7.340 -0.6537  0.3347  0.3805
  635MOL0     H83801  -1.421   2.938   7.216 -0.5477 -3.2446 -1.1963
  635MOL0     H83802  -0.623   3.634   7.577  0.9523  0.5551  0.0888
  635MOL0     H83803  -0.370   3.619   7.643 -0.7386 -1.3005  1.6912
  635MOL0     H83804  -0.009   3.526   7.700 -1.9746 -0.8049 -1.2789
  635MOL0     H83805   0.227   3.540   7.769  1.0012 -1.4924  0.4542
  635MOL0     H83806   1.563   4.797   7.512 -0.7727 -0.3213  1.1696
  635MOL0     H83807   1.728   4.847   7.319  1.5855  0.2267 -4.4077
  635MOL0     H83808   1.845   4.773   6.918 -2.1646 -0.3155 -0.6743
  635MOL0     H83809   2.026   4.816   6.758  1.1581  0.7411  0.9137
  635MOL0     H83810   2.089   4.855   6.508 -0.8312  0.8164 -0.4691
  635MOL0     H83811   2.191   4.897   6.645  0.3280 -1.7367 -1.7207
  635MOL0     H83812   2.303   4.924   6.447 -2.3361 -0.0369 -6.3329
  635MOL0     H83813   2.190   5.044   6.391 -0.4761 -0.2419  0.0569
  635MOL0     H83814   2.361   5.066   6.635  0.2670 -1.0016  0.0744
  635MOL0     H83815   2.241   5.188   6.602  2.8852 -0.0853  2.4515
  635MOL0     H83816   2.502   5.094   6.450 -1.4793 -0.1012 -1.9470
  635MOL0     H83817   2.403   5.205   6.368  1.3465 -0.5695  0.2246
  635MOL0     H83818   2.630   5.455   6.626  2.5425  0.0547 -2.3616
  635MOL0     H83819   1.835   5.175   6.625  1.5449 -0.3005 -2.3259
  635MOL0     H83820   1.662   5.153   6.823  0.1289 -1.3714  2.6536
  636MOL0     O83821   6.586   6.969   5.817  1.1472  0.6827  1.7558
  636MOL0     C83822   6.685   6.939   5.881  0.4712 -0.0818  0.0580
  636MOL0     O83823   6.753   6.825   5.864  0.2914  0.7645  0.0837
  636MOL0     C83824   6.722   6.743   5.753  0.5241  0.5666 -0.4592
  636MOL0     C83825   6.664   6.620   5.776 -0.0397 -0.4795 -0.3119
  636MOL0     C83826   6.621   6.552   5.663  0.7543 -0.0726  0.3959
  636MOL0     C83827   6.620   6.604   5.530  0.2757 -0.6229 -0.3735
  636MOL0     O83828   6.577   6.519   5.430 -0.4743  0.4732  0.2284
  636MOL0     C83829   6.531   6.581   5.301  0.0610 -0.1517 -0.4797
  636MOL0     C83830   6.391   6.635   5.326  0.2363 -0.0245  0.1567
  636MOL0     C83831   6.305   6.596   5.195 -1.0238  0.2141  0.5499
  636MOL0     C83832   6.169   6.667   5.194  0.0200 -1.2795 -0.9035
  636MOL0     C83833   6.099   6.626   5.065  0.0897  0.7667 -0.2296
  636MOL0     C83834   5.975   6.707   5.049 -0.1305  0.0941 -0.5062
  636MOL0     C83835   5.867   6.641   4.963  0.5151 -0.7121 -0.0407
  636MOL0     C83836   5.762   6.748   4.910 -0.5722 -0.4626  0.4496
  636MOL0     N83837   5.719   6.694   4.777  0.6687 -0.4056  1.0712
  636MOL0     C83838   5.729   6.572   4.723 -0.4866 -0.3713  0.0822
  636MOL0     C83839   5.685   6.581   4.603 -0.0205 -0.3486  0.0364
  636MOL0     C83840   5.694   6.463   4.503  0.0268 -0.0379  0.2153
  636MOL0     C83841   5.766   6.485   4.381 -0.8111  0.0379  0.3704
  636MOL0     C83842   5.911   6.432   4.392  0.1433  0.6341  0.1341
  636MOL0     C83843   6.001   6.458   4.273 -0.6295  0.1959 -0.2842
  636MOL0     O83844   5.924   6.462   4.154  0.3901  0.5326  0.0339
  636MOL0     C83845   5.949   6.380   4.054 -0.3701  0.4707 -0.5562
  636MOL0     C83846   5.840   6.345   3.983 -0.6713 -0.2012 -0.0993
  636MOL0     C83847   5.844   6.254   3.871 -0.3001 -0.6590  0.4114
  636MOL0     C83848   5.967   6.189   3.847  0.8040 -0.3450 -0.8278
  636MOL0     C83849   5.991   6.099   3.741  0.8041  0.0956 -0.0177
  636MOL0     O83850   6.088   6.140   3.658  0.3300 -0.0797  0.1960
  636MOL0     C83851   6.140   6.073   3.550  0.4191  0.5159  0.3888
  636MOL0     C83852   6.155   6.140   3.429  1.6029 -0.2399  0.2187
  636MOL0     C83853   6.203   6.081   3.315  0.3840  0.4745 -0.0899
  636MOL0     C83854   6.240   5.940   3.323 -0.0464  0.6544  0.9230
  636MOL0     O83855   6.293   5.865   3.218  0.0384 -0.4545 -0.6658
  636MOL0     C83856   6.317   5.944   3.102 -0.2801 -0.4707  0.2477
  636MOL0     C83857   6.389   5.856   2.984  0.8219 -0.2141  0.2432
  636MOL0     C83858   6.527   5.798   3.014  0.2811 -0.5507  0.9936
  636MOL0     C83859   6.569   5.707   2.901  0.2726 -0.0437  0.2238
  636MOL0     C83860   6.703   5.652   2.915  0.3781 -0.1812 -1.0102
  636MOL0     C83861   6.745   5.561   2.795  0.6793 -0.3424 -0.4453
  636MOL0     C83862   6.901   5.547   2.777 -0.0196 -0.7875  0.1798
  636MOL0     C83863   6.956   5.418   2.709 -0.4082 -0.3011 -0.4176
  636MOL0    Cl83864   6.939   5.271   2.809 -0.0235 -0.1861  0.2676
  636MOL0     C83865   6.232   5.878   3.444  0.9267  0.2798  0.3139
  636MOL0     C83866   6.174   5.940   3.558  0.1221  0.1852 -0.6800
  636MOL0     O83867   5.921   5.995   3.725 -0.9796 -0.6557 -0.9614
  636MOL0     C83868   6.082   6.219   3.920  0.5635  0.1941 -1.1908
  636MOL0     C83869   6.070   6.312   4.024  0.1983 -0.3298 -0.3821
  636MOL0     N83870   5.631   6.703   4.584 -0.9469 -0.7028  0.1161
  636MOL0     N83871   5.667   6.780   4.687  0.1589  0.0166  0.1736
  636MOL0     C83872   6.677   6.730   5.510  0.0974 -0.1800  0.4423
  636MOL0     C83873   6.726   6.796   5.621 -0.0728 -0.0361 -0.1512
  636MOL0     C83874   6.708   7.016   6.005  0.9626  0.7309 -0.2704
  636MOL0     C83875   6.802   6.972   6.095 -0.5418 -0.3196  1.0913
  636MOL0     C83876   6.825   7.048   6.210  0.2524  0.4119  0.6346
  636MOL0     C83877   6.759   7.166   6.238 -0.1101 -0.0687  0.3672
  636MOL0     O83878   6.780   7.248   6.344 -0.2679  0.3906 -0.2738
  636MOL0     C83879   6.841   7.181   6.455  0.1473 -0.2876  1.0671
  636MOL0     C83880   6.868   7.292   6.558 -0.6190 -0.4119 -0.1426
  636MOL0     C83881   6.932   7.245   6.687  0.5774  0.6400 -1.0109
  636MOL0     C83882   7.049   7.144   6.664  0.8668 -0.2107 -0.7322
  636MOL0     C83883   7.166   7.201   6.604 -0.3163 -0.4633  0.5195
  636MOL0     C83884   7.247   7.235   6.525  0.0117  0.6382 -0.7059
  636MOL0     C83885   6.668   7.211   6.142 -0.9446  0.3631 -1.0984
  636MOL0     C83886   6.647   7.142   6.025 -0.2760 -0.0771 -0.1659
  636MOL0     H83887   6.652   6.579   5.876 -1.7719 -0.3771 -0.4435
  636MOL0     H83888   6.575   6.455   5.678  1.8894 -1.0084 -1.7138
  636MOL0     H83889   6.532   6.490   5.241  0.4233 -0.5782  0.1578
  636MOL0     H83890   6.603   6.644   5.248  1.1674 -4.0381 -4.1133
  636MOL0     H83891   6.395   6.744   5.338  0.4255  0.4352 -3.2136
  636MOL0     H83892   6.338   6.583   5.406 -0.3321 -1.0520 -0.8564
  636MOL0     H83893   6.290   6.488   5.188  1.5747 -0.1075 -1.8177
  636MOL0     H83894   6.362   6.621   5.105  0.7118 -1.6468  1.0558
  636MOL0     H83895   6.104   6.647   5.280 -0.3352  1.5250 -0.4314
  636MOL0     H83896   6.178   6.776   5.191 -0.5094 -1.2324 -0.9827
  636MOL0     H83897   6.059   6.524   5.071 -0.9693  1.2089  0.9033
  636MOL0     H83898   6.160   6.648   4.977  0.3199  1.8920  0.1859
  636MOL0     H83899   6.002   6.802   5.002  1.5801  0.4096  0.9874
  636MOL0     H83900   5.934   6.725   5.150  1.0726 -0.4993  0.1037
  636MOL0     H83901   5.923   6.604   4.876  1.1362 -2.7345  1.1461
  636MOL0     H83902   5.823   6.548   5.000  1.6549 -1.5480 -0.6856
  636MOL0     H83903   5.806   6.845   4.884 -2.4446  0.0295 -1.1440
  636MOL0     H83904   5.678   6.753   4.980 -0.4583 -3.1902  0.8581
  636MOL0     H83905   5.767   6.487   4.779 -2.2334  0.9051  3.4835
  636MOL0     H83906   5.587   6.443   4.487 -0.9108  1.0858  4.0673
  636MOL0     H83907   5.727   6.368   4.546 -0.3863 -0.4452 -0.3480
  636MOL0     H83908   5.767   6.592   4.358 -0.5158  0.4948  2.3434
  636MOL0     H83909   5.720   6.443   4.290  0.0574 -0.1066 -0.0118
  636MOL0     H83910   5.965   6.470   4.479  3.2465 -0.6310 -1.1065
  636MOL0     H83911   5.901   6.325   4.411 -2.3628  0.6745 -0.6237
  636MOL0     H83912   6.089   6.394   4.269 -0.4995  0.4207 -0.9873
  636MOL0     H83913   6.037   6.560   4.285 -2.6332  0.8370  0.7506
  636MOL0     H83914   5.747   6.399   3.992  0.2344  1.0602  2.5675
  636MOL0     H83915   5.762   6.226   3.806 -0.6652 -1.2849  1.1263
  636MOL0     H83916   6.126   6.244   3.417  0.6021 -0.4815  0.4867
  636MOL0     H83917   6.218   6.145   3.228  2.8865  0.3940  0.1945
  636MOL0     H83918   6.382   6.029   3.124 -1.6107  0.0868  2.4889
  636MOL0     H83919   6.231   5.978   3.043  0.2887 -3.4782 -2.5851
  636MOL0     H83920   6.388   5.905   2.886  0.6866 -0.1587  0.2716
  636MOL0     H83921   6.325   5.768   2.971  0.0107  0.3285  0.4278
  636MOL0     H83922   6.529   5.731   3.101  0.8191  1.1552  2.3431
  636MOL0     H83923   6.591   5.885   3.028 -0.4326  0.2200 -0.3473
  636MOL0     H83924   6.500   5.623   2.893  1.1293 -0.8121  0.7413
  636MOL0     H83925   6.567   5.769   2.811  0.2130 -0.4215 -0.0392
  636MOL0     H83926   6.700   5.598   3.010  2.3731  0.2811 -0.6326
  636MOL0     H83927   6.773   5.736   2.926  1.3617 -1.0391 -0.4706
  636MOL0     H83928   6.690   5.579   2.702 -0.7733  0.9111  0.6100
  636MOL0     H83929   6.713   5.459   2.818 -0.8076  0.3846  0.8535
  636MOL0     H83930   6.941   5.626   2.714  1.1371 -0.7408  0.9401
  636MOL0     H83931   6.934   5.565   2.880 -2.7325  0.6663  0.8827
  636MOL0     H83932   7.061   5.446   2.692 -0.5339  0.1324 -0.4981
  636MOL0     H83933   6.920   5.399   2.608  1.3188  1.1061 -1.3580
  636MOL0     H83934   6.259   5.776   3.472 -1.8359  0.2518  3.6365
  636MOL0     H83935   6.165   5.897   3.657  1.8841 -0.6436 -0.8341
  636MOL0     H83936   6.176   6.165   3.911 -0.9282 -2.2667 -3.0369
  636MOL0     H83937   6.166   6.320   4.074  1.8492  1.3878 -3.5083
  636MOL0     H83938   6.684   6.773   5.411  3.1534 -3.1243 -0.8378
  636MOL0     H83939   6.770   6.894   5.604 -0.4239  1.2520  4.8364
  636MOL0     H83940   6.861   6.881   6.089  1.6984  0.8336  3.6358
  636MOL0     H83941   6.896   6.999   6.275 -2.6551 -2.0908  2.1568
  636MOL0     H83942   6.936   7.139   6.423 -0.4837 -0.4622 -0.7169
  636MOL0     H83943   6.782   7.095   6.488  1.4876 -1.5234  0.3669
  636MOL0     H83944   6.951   7.338   6.504  1.1773 -2.5502  0.6405
  636MOL0     H83945   6.785   7.358   6.584  1.4073  2.2541 -0.0666
  636MOL0     H83946   6.865   7.190   6.753  3.6636  0.1704  1.9818
  636MOL0     H83947   6.974   7.335   6.734  0.5294  1.0169 -1.6816
  636MOL0     H83948   7.087   7.118   6.763 -4.4077  0.0328  1.7087
  636MOL0     H83949   7.006   7.056   6.616  1.1797  0.0619 -1.5355
  636MOL0     H83950   7.318   7.258   6.448  0.9173 -0.9931 -0.4207
  636MOL0     H83951   6.622   7.306   6.164  1.9979  1.5174  0.5691
  636MOL0     H83952   6.572   7.187   5.961  0.9069 -0.9913 -2.2663
  637MOL0     O83953   6.339   6.569   7.825  0.0286 -0.3471 -0.5421
  637MOL0     C83954   6.314   6.453   7.855 -1.0810  0.1067 -1.3760
  637MOL0     O83955   6.201   6.387   7.823 -0.0966  1.2176 -0.7012
  637MOL0     C83956   6.136   6.445   7.722  0.6586 -1.0360  0.4697
  637MOL0     C83957   6.070   6.571   7.735  0.1168 -0.0431  0.3179
  637MOL0     C83958   6.032   6.627   7.612  0.6365 -0.3289 -0.7038
  637MOL0     C83959   6.021   6.562   7.491  0.6630  0.2736 -0.5547
  637MOL0     O83960   5.961   6.622   7.385 -0.2540  0.5423  0.4042
  637MOL0     C83961   5.908   6.751   7.382  0.2728 -0.0926 -0.4085
  637MOL0     C83962   5.868   6.782   7.240  0.2231 -0.4307  0.1383
  637MOL0     C83963   5.754   6.885   7.224  0.9099 -0.9169  0.3956
  637MOL0     C83964   5.730   6.923   7.071 -0.3081 -0.3920 -0.0753
  637MOL0     C83965   5.698   6.812   6.972 -0.4066 -0.5946 -0.4719
  637MOL0     C83966   5.689   6.869   6.829  0.4193 -0.0820  0.0265
  637MOL0     C83967   5.664   6.757   6.723 -0.5356  0.2225 -0.2789
  637MOL0     C83968   5.545   6.784   6.631  0.9413 -0.3862 -0.0942
  637MOL0     N83969   5.423   6.767   6.704 -0.4242 -0.0756  0.2896
  637MOL0     C83970   5.300   6.770   6.642  0.3491  0.3719  0.3883
  637MOL0     C83971   5.207   6.751   6.740  0.0651 -0.0473  0.3284
  637MOL0     C83972   5.055   6.743   6.721  0.0408  0.5390  0.3551
  637MOL0     C83973   5.015   6.596   6.680  0.2698  0.6440  0.4426
  637MOL0     C83974   5.044   6.541   6.535  0.5481  0.6154 -0.1435
  637MOL0     C83975   4.988   6.634   6.426 -0.9524 -0.1655  0.2729
  637MOL0     O83976   5.089   6.717   6.368 -0.1467 -0.2116 -0.3525
  637MOL0     C83977   5.045   6.795   6.268 -0.2883  0.7049  0.5577
  637MOL0     C83978   4.973   6.747   6.150 -0.0854  0.0154 -0.1327
  637MOL0     C83979   4.956   6.830   6.045 -0.1463  0.2976  0.1386
  637MOL0     C83980   5.019   6.964   6.049  0.2843  0.2610  0.1503
  637MOL0     C83981   4.986   7.058   5.936 -0.4956  0.6967 -0.3160
  637MOL0     O83982   4.909   7.016   5.830  0.3094  0.9975  0.1959
  637MOL0     C83983   4.898   7.104   5.725  0.3967 -0.1365  0.3391
  637MOL0     C83984   4.791   7.194   5.711 -0.0984  0.2507  0.6830
  637MOL0     C83985   4.799   7.286   5.598 -1.0028 -0.0963 -0.7493
  637MOL0     C83986   4.914   7.292   5.504  0.0486  0.9861  0.6414
  637MOL0     O83987   4.912   7.370   5.397  0.1266 -0.8798  0.1222
  637MOL0     C83988   4.987   7.334   5.278  0.2755 -0.6001  1.1385
  637MOL0     C83989   5.099   7.442   5.263 -0.2341  0.4163 -0.0282
  637MOL0     C83990   5.141   7.428   5.114 -0.3847 -0.1848  0.5972
  637MOL0     C83991   5.239   7.311   5.103  0.8632 -0.0254 -0.8257
  637MOL0     C83992   5.286   7.277   4.960  0.3248  0.3103 -0.4152
  637MOL0     C83993   5.366   7.388   4.908  0.3175 -0.2653 -0.5441
  637MOL0     C83994   5.460   7.353   4.793 -0.0243  0.4768 -0.1621
  637MOL0     C83995   5.561   7.248   4.828 -0.1194  0.3005 -0.4611
  637MOL0    Cl83996   5.670   7.211   4.687  0.6157  0.2206 -0.0197
  637MOL0     C83997   5.019   7.209   5.537 -0.3060 -0.1830 -0.2519
  637MOL0     C83998   5.003   7.110   5.634 -0.8132  0.6835  0.0945
  637MOL0     O83999   5.055   7.164   5.942 -1.2161  0.1288 -0.0939
  637MOL0     C84000   5.067   7.006   6.175 -0.7225 -0.4279  0.3809
  637MOL0     C84001   5.089   6.925   6.279 -0.7616 -0.1110 -0.4480
  637MOL0     N84002   5.272   6.735   6.854  0.0884 -0.2217 -0.2367
  637MOL0     N84003   5.401   6.743   6.836 -0.3565 -0.6819 -0.1110
  637MOL0     C84004   6.086   6.439   7.481  0.0815  0.1753 -1.3882
  637MOL0     C84005   6.141   6.379   7.597  0.2448 -0.4660 -0.5678
  637MOL0     C84006   6.417   6.383   7.935  1.0049  0.6419 -0.9637
  637MOL0     C84007   6.418   6.236   7.930  0.6466 -0.1988  0.2848
  637MOL0     C84008   6.522   6.171   7.994  0.1011  0.1906 -1.6521
  637MOL0     C84009   6.613   6.238   8.075  0.0989 -0.3461  0.8117
  637MOL0     O84010   6.710   6.157   8.126  0.2601  0.0165 -0.4926
  637MOL0     C84011   6.741   6.164   8.267 -0.5859 -0.0735 -0.0678
  637MOL0     C84012   6.879   6.236   8.267 -0.0806  1.1822  0.4140
  637MOL0     C84013   6.985   6.134   8.230  0.1204 -0.6446  0.3642
  637MOL0     C84014   6.997   5.998   8.297  0.7272  0.2629  0.3778
  637MOL0     C84015   7.017   6.004   8.438  0.3075 -0.4942 -0.6795
  637MOL0     C84016   7.024   6.001   8.565  0.0728 -0.9497  0.3710
  637MOL0     C84017   6.612   6.376   8.078  0.3765  0.2313  0.0953
  637MOL0     C84018   6.514   6.452   8.009  0.2271 -0.1418 -0.2306
  637MOL0     H84019   6.048   6.617   7.831  4.3812  0.3317  1.2846
  637MOL0     H84020   6.002   6.730   7.628 -0.1446 -0.6952  0.2953
  637MOL0     H84021   5.989   6.821   7.404  0.3382 -0.9907  2.6452
  637MOL0     H84022   5.825   6.754   7.453 -0.1485 -2.6033 -0.6897
  637MOL0     H84023   5.824   6.690   7.199 -1.7181  0.3737  0.3059
  637MOL0     H84024   5.954   6.821   7.186 -0.4873  0.4479 -0.3884
  637MOL0     H84025   5.778   6.976   7.280  2.3766 -1.2261  0.3286
  637MOL0     H84026   5.660   6.847   7.264 -0.0221  0.0237 -0.8330
  637MOL0     H84027   5.649   6.995   7.060 -1.7456 -2.0614 -1.1005
  637MOL0     H84028   5.823   6.966   7.032 -1.0240  2.3501  1.0790
  637MOL0     H84029   5.606   6.762   7.001 -0.2262 -0.2341  0.7837
  637MOL0     H84030   5.771   6.733   6.989 -0.6592 -0.7384 -0.0529
  637MOL0     H84031   5.784   6.915   6.802  3.9035 -5.8344  0.7498
  637MOL0     H84032   5.605   6.939   6.831  0.4448  0.1273  4.3114
  637MOL0     H84033   5.754   6.745   6.662  0.7026 -0.5821  1.5942
  637MOL0     H84034   5.660   6.658   6.769 -1.4898  0.5590  0.3909
  637MOL0     H84035   5.545   6.713   6.547  0.0652 -2.4944  1.5896
  637MOL0     H84036   5.548   6.891   6.608  0.4667 -0.0219  1.4450
  637MOL0     H84037   5.280   6.789   6.537 -2.3256  0.8921  0.9158
  637MOL0     H84038   5.022   6.813   6.644 -1.9604 -0.4165  0.2812
  637MOL0     H84039   5.004   6.769   6.814 -0.2898  1.3777 -0.0503
  637MOL0     H84040   4.909   6.578   6.699  0.4570  2.0867  3.4789
  637MOL0     H84041   5.073   6.521   6.735 -0.7132 -0.5013 -0.0392
  637MOL0     H84042   5.152   6.526   6.524  0.5588 -1.4660  2.1109
  637MOL0     H84043   5.003   6.440   6.525  1.6699 -0.2098  2.6884
  637MOL0     H84044   4.901   6.691   6.460  0.7056  1.8948  1.3101
  637MOL0     H84045   4.958   6.566   6.345 -1.1451  2.8177 -2.3698
  637MOL0     H84046   4.965   6.639   6.137 -1.6280 -0.1563  1.7375
  637MOL0     H84047   4.904   6.795   5.956 -0.6869 -0.3969  0.7166
  637MOL0     H84048   4.700   7.183   5.769 -0.0231 -1.5063  0.5479
  637MOL0     H84049   4.710   7.348   5.593 -0.7826  0.2942 -0.0225
  637MOL0     H84050   4.915   7.340   5.196  1.1715  0.0485  0.3813
  637MOL0     H84051   5.023   7.230   5.275 -0.7257 -0.9355 -0.5014
  637MOL0     H84052   5.178   7.406   5.329 -0.1497  2.7213  1.2388
  637MOL0     H84053   5.086   7.547   5.292  0.7646  0.8119 -0.9470
  637MOL0     H84054   5.192   7.517   5.074  1.7830 -0.8254  1.7754
  637MOL0     H84055   5.049   7.410   5.058 -2.0569 -3.1570  3.8983
  637MOL0     H84056   5.322   7.317   5.174  1.5323  2.4512 -1.6767
  637MOL0     H84057   5.190   7.219   5.133  0.4544  0.8101  1.2094
  637MOL0     H84058   5.205   7.269   4.887 -1.0904  0.0083  1.1210
  637MOL0     H84059   5.334   7.180   4.965 -0.7820 -0.1950  1.2511
  637MOL0     H84060   5.426   7.429   4.989 -2.5279  0.2336  1.4522
  637MOL0     H84061   5.295   7.468   4.885  0.6286  1.0516  2.5512
  637MOL0     H84062   5.407   7.311   4.707  3.2041 -3.7678 -0.4225
  637MOL0     H84063   5.517   7.445   4.775 -2.9966  2.4876  0.1538
  637MOL0     H84064   5.507   7.158   4.859 -1.0075  0.6674 -0.9087
  637MOL0     H84065   5.620   7.276   4.916  0.0027 -1.9895  0.2606
  637MOL0     H84066   5.115   7.211   5.486 -0.1147  1.8818  0.1036
  637MOL0     H84067   5.088   7.046   5.656 -0.0214  0.9821 -1.9006
  637MOL0     H84068   5.088   7.113   6.179 -1.7961 -0.2424  2.1670
  637MOL0     H84069   5.137   6.964   6.368  0.7440 -0.2171 -1.1790
  637MOL0     H84070   6.094   6.383   7.389 -1.3058 -0.2141 -1.2862
  637MOL0     H84071   6.198   6.287   7.587  1.9495  0.4324  0.3982
  637MOL0     H84072   6.348   6.186   7.865  1.6358  2.4907 -3.1672
  637MOL0     H84073   6.531   6.063   7.991 -0.5489  0.1480 -2.3088
  637MOL0     H84074   6.735   6.071   8.324 -0.6386 -0.3104 -0.4534
  637MOL0     H84075   6.666   6.226   8.318  0.0261  2.8303 -2.4096
  637MOL0     H84076   6.882   6.330   8.212  1.4020  0.1365 -1.4022
  637MOL0     H84077   6.911   6.270   8.366  1.4247  4.4357 -1.0428
  637MOL0     H84078   7.083   6.182   8.239  2.7612 -5.1937 -0.3516
  637MOL0     H84079   6.978   6.114   8.122  0.0101 -1.2748  0.4862
  637MOL0     H84080   6.903   5.946   8.277 -0.0091  1.7136 -0.1303
  637MOL0     H84081   7.078   5.942   8.248  2.0812  1.3939  1.2463
  637MOL0     H84082   7.024   6.034   8.667 -5.3351  1.0073  0.1018
  637MOL0     H84083   6.674   6.447   8.131  0.5361 -0.0700  0.3135
  637MOL0     H84084   6.537   6.557   7.995  0.9480 -0.2627  0.0216
  638MOL0     O84085   2.514   3.834   2.110 -0.3110 -0.6501 -1.0042
  638MOL0     C84086   2.403   3.775   2.111 -0.6032  0.1717  1.0430
  638MOL0     O84087   2.279   3.833   2.101  0.1225  0.7553 -0.6998
  638MOL0     C84088   2.263   3.971   2.091 -0.2751  0.3682  0.0372
  638MOL0     C84089   2.213   4.038   1.988  0.5809  0.1027  0.1572
  638MOL0     C84090   2.222   4.181   1.977 -0.1310  0.0506 -0.3494
  638MOL0     C84091   2.256   4.261   2.079 -0.1505  0.1992 -0.3407
  638MOL0     O84092   2.234   4.395   2.096  0.3656 -0.5679 -0.4177
  638MOL0     C84093   2.136   4.458   2.014  0.7142  0.1012  0.7983
  638MOL0     C84094   2.101   4.584   2.075  0.5063 -0.7222 -0.3750
  638MOL0     C84095   2.015   4.670   1.983  0.8111 -0.2473  0.1284
  638MOL0     C84096   1.993   4.811   2.032 -0.1759 -0.2357 -0.0685
  638MOL0     C84097   1.878   4.889   1.959 -0.4689  0.5415  0.5998
  638MOL0     C84098   1.832   5.010   2.045  0.1214  0.1288 -0.3131
  638MOL0     C84099   1.685   5.041   2.028  0.5070 -0.5676 -0.7885
  638MOL0     C84100   1.654   5.093   1.888  0.0952  0.1700 -0.4086
  638MOL0     N84101   1.633   5.238   1.903 -0.2280 -0.6810 -0.5298
  638MOL0     C84102   1.515   5.291   1.932  0.7534  0.6307  0.4095
  638MOL0     C84103   1.558   5.419   1.945  0.4598  0.0977  0.9921
  638MOL0     C84104   1.478   5.518   2.026  0.0620 -0.8739 -0.7498
  638MOL0     C84105   1.486   5.656   1.963 -0.0501 -0.3627  0.4513
  638MOL0     C84106   1.378   5.766   2.016 -0.4755  0.2066 -0.5409
  638MOL0     C84107   1.278   5.811   1.904  0.6109 -0.7884  0.5444
  638MOL0     O84108   1.194   5.700   1.866 -0.0994  0.1075 -0.9899
  638MOL0     C84109   1.157   5.711   1.735  0.3045  0.0751 -0.0807
  638MOL0     C84110   1.189   5.612   1.637  0.8669  0.6336  0.0669
  638MOL0     C84111   1.169   5.618   1.499  0.3039 -0.2617 -0.6234
  638MOL0     C84112   1.099   5.737   1.463 -0.1579  0.1042  0.1322
  638MOL0     C84113   1.054   5.754   1.319  0.2576  0.4512 -0.4953
  638MOL0     O84114   1.052   5.873   1.265  0.2836 -0.4124  0.3343
  638MOL0     C84115   1.029   5.881   1.132 -0.1053  0.2059  0.9643
  638MOL0     C84116   0.957   5.989   1.096  0.4891 -0.1989 -0.2360
  638MOL0     C84117   0.926   6.026   0.964 -0.9073 -1.2325  0.0068
  638MOL0     C84118   0.975   5.940   0.864 -0.9825  0.5737 -0.4182
  638MOL0     O84119   0.962   5.951   0.725 -0.0857 -0.1983  0.5860
  638MOL0     C84120   0.964   6.084   0.677 -0.2271  0.1156  0.4404
  638MOL0     C84121   1.021   6.102   0.536  0.2677 -0.2252 -0.8704
  638MOL0     C84122   1.045   6.256   0.515 -1.3301  0.8974  0.8684
  638MOL0     C84123   1.136   6.279   0.391 -0.5390 -0.2940 -0.2396
  638MOL0     C84124   1.057   6.319   0.264 -0.0440 -0.1267 -0.2297
  638MOL0     C84125   0.931   6.233   0.230 -0.0653  0.2592  0.4505
  638MOL0     C84126   0.887   6.259   0.084  0.1813  0.2536 -0.4812
  638MOL0     C84127   0.770   6.171   0.041  0.0984  0.2150  0.0475
  638MOL0    Cl84128   0.684   6.264  -0.094 -0.4856  0.3677  0.0172
  638MOL0     C84129   1.025   5.816   0.897  0.0525  0.3796 -1.0406
  638MOL0     C84130   1.058   5.781   1.026  0.1728 -0.1187 -0.1395
  638MOL0     O84131   1.002   5.651   1.264 -0.5644  0.6324  0.8886
  638MOL0     C84132   1.048   5.835   1.550 -0.7118  0.8610 -0.0002
  638MOL0     C84133   1.080   5.826   1.694 -0.0144  0.0286  0.5226
  638MOL0     N84134   1.689   5.440   1.906 -0.6008  0.2603 -0.2082
  638MOL0     N84135   1.736   5.324   1.886  0.5169  0.3279 -0.2264
  638MOL0     C84136   2.321   4.188   2.185 -0.1444  0.6671  0.3832
  638MOL0     C84137   2.339   4.050   2.181  0.6038  0.8291  0.3080
  638MOL0     C84138   2.398   3.630   2.100  0.4715 -0.1072  0.2159
  638MOL0     C84139   2.515   3.552   2.109  0.4606  0.3737 -0.2203
  638MOL0     C84140   2.514   3.416   2.110 -0.0074 -0.5142  1.1066
  638MOL0     C84141   2.385   3.360   2.089 -0.1413  0.8577  0.4437
  638MOL0     O84142   2.371   3.227   2.067 -0.6828  0.3575 -0.7058
  638MOL0     C84143   2.491   3.140   2.049  0.1387 -0.0708  0.0465
  638MOL0     C84144   2.551   3.170   1.909  0.7474 -1.0230  1.6306
  638MOL0     C84145   2.628   3.053   1.880 -0.9908 -0.0374  0.5324
  638MOL0     C84146   2.732   3.084   1.773 -0.5128 -0.9376  1.0505
  638MOL0     C84147   2.813   2.965   1.749  0.1218  0.2875 -0.5854
  638MOL0     C84148   2.894   2.877   1.720 -0.5865 -1.6347 -0.3039
  638MOL0     C84149   2.272   3.440   2.064  0.5381  0.2235  0.4370
  638MOL0     C84150   2.270   3.575   2.071  0.3070  0.2217 -0.4600
  638MOL0     H84151   2.161   3.991   1.905 -0.0805  0.6363  0.2610
  638MOL0     H84152   2.183   4.228   1.887  1.6498 -1.3766 -1.9530
  638MOL0     H84153   2.055   4.386   2.000 -1.5272  2.5064  0.7619
  638MOL0     H84154   2.181   4.487   1.919  0.6776 -2.1851  0.0224
  638MOL0     H84155   2.194   4.639   2.091 -0.2639 -0.0255  2.1867
  638MOL0     H84156   2.041   4.561   2.164 -0.0824 -0.3993 -0.6841
  638MOL0     H84157   1.915   4.629   1.969  0.4226  1.1449 -1.5325
  638MOL0     H84158   2.063   4.674   1.885  0.5080 -2.8946 -0.1977
  638MOL0     H84159   1.972   4.811   2.139  1.4359 -1.1957  0.2708
  638MOL0     H84160   2.088   4.866   2.029  0.9145 -1.8092  2.6894
  638MOL0     H84161   1.799   4.819   1.928  1.8044 -1.4852 -1.0105
  638MOL0     H84162   1.921   4.927   1.866 -0.1440 -1.8894 -0.3435
  638MOL0     H84163   1.895   5.095   2.019  0.1105 -0.7687 -3.7840
  638MOL0     H84164   1.844   4.991   2.152  2.5354  0.9494 -0.3870
  638MOL0     H84165   1.615   4.959   2.046 -0.1910 -0.1220 -1.4263
  638MOL0     H84166   1.661   5.116   2.104  2.5979 -3.2209  2.8400
  638MOL0     H84167   1.566   5.032   1.867  0.0553  0.2993 -0.6114
  638MOL0     H84168   1.746   5.068   1.834  0.7392 -0.9832  1.1337
  638MOL0     H84169   1.414   5.262   1.957  1.0072  0.4307  1.2467
  638MOL0     H84170   1.505   5.520   2.132 -3.0553  0.4211  0.1281
  638MOL0     H84171   1.373   5.488   2.029 -0.2680  0.2749  1.7574
  638MOL0     H84172   1.457   5.632   1.860 -1.5162 -1.1168  1.0205
  638MOL0     H84173   1.587   5.697   1.954  0.0097 -0.6981 -0.5851
  638MOL0     H84174   1.328   5.720   2.101  0.4174  0.4622  0.1372
  638MOL0     H84175   1.419   5.852   2.071 -1.3794  0.2701  0.0576
  638MOL0     H84176   1.335   5.843   1.816 -1.5962 -0.4929 -0.8357
  638MOL0     H84177   1.214   5.890   1.943 -1.5660 -0.3726 -3.3303
  638MOL0     H84178   1.241   5.531   1.688  0.3502  0.3197  0.1099
  638MOL0     H84179   1.195   5.541   1.427 -1.0902  2.0884 -3.8961
  638MOL0     H84180   0.925   6.061   1.171 -0.3689 -0.3947 -0.3965
  638MOL0     H84181   0.857   6.107   0.944 -1.7551 -2.7162 -3.9312
  638MOL0     H84182   1.038   6.128   0.744  1.1411 -2.3182  0.6490
  638MOL0     H84183   0.866   6.129   0.696 -0.5279 -0.1814 -0.3280
  638MOL0     H84184   0.951   6.060   0.463 -1.6869 -1.2610  1.4959
  638MOL0     H84185   1.112   6.042   0.532  0.9053  0.7478 -1.9525
  638MOL0     H84186   1.094   6.299   0.603  0.1691  1.2948 -0.1156
  638MOL0     H84187   0.952   6.312   0.499 -2.6503 -1.6248 -0.7645
  638MOL0     H84188   1.206   6.357   0.421  1.1390 -0.6845 -2.8831
  638MOL0     H84189   1.193   6.186   0.378 -0.8081 -0.9456  2.4796
  638MOL0     H84190   1.124   6.305   0.179 -1.5302  1.1509 -1.6788
  638MOL0     H84191   1.025   6.422   0.251 -2.1766 -0.8020 -0.7965
  638MOL0     H84192   0.846   6.268   0.288  0.3031 -0.6474  1.5543
  638MOL0     H84193   0.954   6.127   0.244 -1.7728 -0.0355  1.2134
  638MOL0     H84194   0.845   6.359   0.092  1.1612  0.6165  0.3590
  638MOL0     H84195   0.979   6.250   0.025  0.3820  1.4602 -0.3640
  638MOL0     H84196   0.699   6.168   0.124 -0.4100  4.1750 -0.0812
  638MOL0     H84197   0.804   6.068   0.022  0.0033  0.4179 -1.3678
  638MOL0     H84198   1.051   5.738   0.826  1.0886  0.8799 -1.2291
  638MOL0     H84199   1.105   5.684   1.041 -1.3183 -0.7871  0.4684
  638MOL0     H84200   0.985   5.918   1.519 -0.6052  0.2337 -2.0044
  638MOL0     H84201   1.039   5.905   1.756 -1.6176 -3.2173  3.9849
  638MOL0     H84202   2.331   4.244   2.277 -5.0581  2.6324  0.0262
  638MOL0     H84203   2.382   4.014   2.274  0.2714 -1.6466 -0.4363
  638MOL0     H84204   2.603   3.612   2.132 -0.6742  1.6020  1.1100
  638MOL0     H84205   2.614   3.373   2.119  0.2574  0.5398  4.3287
  638MOL0     H84206   2.443   3.042   2.035 -0.4064  0.6201 -4.9703
  638MOL0     H84207   2.563   3.141   2.130  2.3760 -2.0012 -1.7755
  638MOL0     H84208   2.466   3.189   1.843  2.4976  0.7113 -0.2839
  638MOL0     H84209   2.611   3.262   1.911  0.3973 -0.6870 -0.5708
  638MOL0     H84210   2.571   2.971   1.834  0.5284 -2.1875  2.2322
  638MOL0     H84211   2.683   3.013   1.966  2.9953 -1.7323 -2.4934
  638MOL0     H84212   2.678   3.108   1.681 -1.2802 -0.3376  1.6469
  638MOL0     H84213   2.810   3.155   1.801  0.7299 -2.2239  1.0019
  638MOL0     H84214   2.952   2.796   1.682 -0.7539 -2.1188  0.4428
  638MOL0     H84215   2.184   3.386   2.028  1.1459 -0.3923 -0.1528
  638MOL0     H84216   2.181   3.637   2.064  0.0497 -0.0113  0.5307
  639MOL0     O84217   8.829   7.182   9.044 -0.7111  0.0007  0.0755
  639MOL0     C84218   8.857   7.252   9.143  0.9571 -0.5613 -0.9925
  639MOL0     O84219   8.868   7.389   9.146 -0.5414  0.3006  0.3084
  639MOL0     C84220   8.890   7.447   9.019  1.0648  0.3723 -0.0229
  639MOL0     C84221   8.781   7.472   8.932 -0.2288 -0.7269  1.0199
  639MOL0     C84222   8.803   7.546   8.810  0.4228  0.9139  0.5473
  639MOL0     C84223   8.926   7.608   8.794  0.0755  0.6001  0.0339
  639MOL0     O84224   8.933   7.692   8.681  0.6856  0.1929 -0.7063
  639MOL0     C84225   8.963   7.829   8.721  0.5962  0.7148 -0.2680
  639MOL0     C84226   9.061   7.885   8.619  0.1111 -1.3097  0.4630
  639MOL0     C84227   9.107   8.025   8.658  0.1285 -0.2081 -0.0086
  639MOL0     C84228   9.209   8.084   8.551  0.5297 -0.0230 -0.2357
  639MOL0     C84229   9.122   8.159   8.455 -0.2526 -0.2824  0.9257
  639MOL0     C84230   9.215   8.243   8.369 -0.1061  0.0892  0.7730
  639MOL0     C84231   9.147   8.339   8.266 -0.1198  0.5663  0.6453
  639MOL0     C84232   9.067   8.456   8.324 -0.1570  0.5661  0.6808
  639MOL0     N84233   8.935   8.423   8.387 -0.1156  0.1376  0.0026
  639MOL0     C84234   8.821   8.388   8.317  0.1666 -0.4043 -0.4817
  639MOL0     C84235   8.722   8.385   8.405  0.2426  0.2226 -0.5075
  639MOL0     C84236   8.579   8.337   8.386  1.1272  0.3232 -0.4396
  639MOL0     C84237   8.504   8.419   8.274 -0.7154 -1.0967 -0.8288
  639MOL0     C84238   8.477   8.559   8.328 -0.6888  0.9895  1.1606
  639MOL0     C84239   8.475   8.660   8.209 -0.1408 -0.5200 -0.0082
  639MOL0     O84240   8.600   8.661   8.133 -0.5108  0.1245  0.1669
  639MOL0     C84241   8.620   8.744   8.022 -0.8795 -0.1280 -0.3073
  639MOL0     C84242   8.529   8.847   7.980  0.9190 -0.2669 -0.3167
  639MOL0     C84243   8.567   8.924   7.865 -0.1289 -1.3323  0.3632
  639MOL0     C84244   8.686   8.908   7.794 -1.1829  0.1750  0.1639
  639MOL0     C84245   8.722   8.998   7.677 -0.2193 -1.5984 -0.5856
  639MOL0     O84246   8.833   8.973   7.600  0.3691  0.1728  0.0276
  639MOL0     C84247   8.865   9.072   7.510 -0.1853 -0.5223 -0.3255
  639MOL0     C84248   8.829   9.045   7.379  0.1074 -0.0819 -0.3328
  639MOL0     C84249   8.872   9.129   7.282 -0.0395  0.0927  0.6787
  639MOL0     C84250   8.932   9.252   7.312  0.1358  0.4609  0.2862
  639MOL0     O84251   8.966   9.341   7.214 -0.1102  0.5380 -0.5574
  639MOL0     C84252   9.018   9.470   7.244 -0.6695 -0.0539 -0.7425
  639MOL0     C84253   8.986   9.564   7.122 -0.5653  1.1148  0.4960
  639MOL0     C84254   9.041   9.702   7.160  1.0101  1.1101  0.7149
  639MOL0     C84255   8.999   9.804   7.053 -0.2350 -0.3932  0.2431
  639MOL0     C84256   9.021   9.951   7.117 -0.2889  0.1062 -0.3657
  639MOL0     C84257   8.935  10.050   7.031 -0.3162 -0.0724  0.8325
  639MOL0     C84258   8.789  10.059   7.058  0.2820 -0.0941 -1.0030
  639MOL0     C84259   8.723  10.136   6.942 -0.4545 -0.0939 -0.4169
  639MOL0    Cl84260   8.793  10.307   6.962 -0.4769  0.4485  0.0376
  639MOL0     C84261   8.972   9.281   7.446 -0.0330 -0.4553 -0.4461
  639MOL0     C84262   8.936   9.188   7.548 -0.0771  0.3209  0.0699
  639MOL0     O84263   8.649   9.094   7.658 -0.0337  0.1967 -0.1581
  639MOL0     C84264   8.759   8.793   7.827 -0.3969 -0.3160  0.5506
  639MOL0     C84265   8.731   8.717   7.941 -0.6801  0.5658 -0.1494
  639MOL0     N84266   8.769   8.434   8.525  0.4085  0.3713  0.3861
  639MOL0     N84267   8.895   8.441   8.513 -0.0242 -0.4934  0.0005
  639MOL0     C84268   9.035   7.580   8.877  0.8782 -1.0154  0.6322
  639MOL0     C84269   9.014   7.502   8.990 -0.4895  0.1702 -0.3077
  639MOL0     C84270   8.919   7.180   9.267  0.2969  0.5689  0.8887
  639MOL0     C84271   8.946   7.041   9.268  0.4648 -0.3493  0.2316
  639MOL0     C84272   9.018   6.988   9.381 -0.5184 -0.1652 -0.0754
  639MOL0     C84273   9.048   7.063   9.490 -0.6630  0.3912  0.2472
  639MOL0     O84274   9.136   7.017   9.584  0.3600 -0.1699  0.7903
  639MOL0     C84275   9.159   7.080   9.714 -0.0265  0.1289  0.4499
  639MOL0     C84276   9.271   7.006   9.793  0.7242  0.2054 -0.6185
  639MOL0     C84277   9.253   7.044   9.942  1.6373 -0.8605  0.4367
  639MOL0     C84278   9.308   6.931  10.020  1.0568  0.4877 -0.1493
  639MOL0     C84279   9.289   6.966  10.156 -0.0276 -0.2439 -0.8825
  639MOL0     C84280   9.283   6.995  10.282  0.1421 -0.2715 -0.8322
  639MOL0     C84281   9.014   7.198   9.489  0.7251  0.2136 -0.2769
  639MOL0     C84282   8.949   7.258   9.378  0.7463  0.8456 -0.4621
  639MOL0     H84283   8.687   7.429   8.966 -0.3056 -0.0559  1.6620
  639MOL0     H84284   8.712   7.569   8.757  0.1481  0.4037  0.7938
  639MOL0     H84285   9.016   7.824   8.817  1.0685  1.8544 -0.4518
  639MOL0     H84286   8.873   7.891   8.726 -2.4837 -3.2731 -1.3528
  639MOL0     H84287   9.018   7.882   8.518  3.5767 -3.0963 -1.1315
  639MOL0     H84288   9.140   7.811   8.605  0.1770 -1.3188  0.8558
  639MOL0     H84289   9.148   8.029   8.759 -3.5143  0.4919  1.5993
  639MOL0     H84290   9.010   8.076   8.662 -0.2266 -0.8396 -0.3648
  639MOL0     H84291   9.282   8.138   8.612 -0.7686 -2.0794  3.4121
  639MOL0     H84292   9.248   8.000   8.494 -2.6176 -1.3781 -0.6397
  639MOL0     H84293   9.056   8.222   8.515 -0.7762 -1.0039  1.1163
  639MOL0     H84294   9.056   8.089   8.403 -1.2649 -0.6185  2.5793
  639MOL0     H84295   9.286   8.178   8.316  0.2044  2.0544 -1.3636
  639MOL0     H84296   9.274   8.307   8.435 -0.9598  1.6644  0.0724
  639MOL0     H84297   9.224   8.369   8.195  0.5196 -2.5840 -0.1196
  639MOL0     H84298   9.077   8.280   8.206 -0.9836  2.2596 -0.0743
  639MOL0     H84299   9.039   8.525   8.244  0.2083 -0.9483 -0.8064
  639MOL0     H84300   9.120   8.515   8.400 -0.2373 -2.3558  3.2006
  639MOL0     H84301   8.819   8.375   8.210  1.8503  2.7296 -1.0084
  639MOL0     H84302   8.516   8.348   8.474  1.4273  2.2274 -0.4040
  639MOL0     H84303   8.578   8.231   8.359  0.5025  0.2304 -0.0768
  639MOL0     H84304   8.410   8.373   8.241 -1.8748 -1.2978  2.3964
  639MOL0     H84305   8.563   8.432   8.183 -1.3382 -0.6099 -1.1689
  639MOL0     H84306   8.375   8.568   8.365 -0.0222  1.8242  2.9242
  639MOL0     H84307   8.547   8.587   8.407  0.8140 -2.8217  1.3907
  639MOL0     H84308   8.466   8.755   8.264 -2.1022 -0.5955 -0.1282
  639MOL0     H84309   8.388   8.656   8.143 -1.1836 -0.9728  1.3534
  639MOL0     H84310   8.434   8.867   8.028  1.1378 -0.7917  0.3421
  639MOL0     H84311   8.492   8.993   7.827  0.9647  0.0619  0.6591
  639MOL0     H84312   8.770   8.959   7.350  1.2935 -1.2247  0.5240
  639MOL0     H84313   8.860   9.107   7.177  1.0165 -3.2155  1.1304
  639MOL0     H84314   9.125   9.468   7.266 -0.2414  1.8297 -2.3260
  639MOL0     H84315   8.972   9.520   7.329  2.0394  2.5403 -0.6388
  639MOL0     H84316   8.881   9.564   7.090 -0.3764  3.7579 -0.3125
  639MOL0     H84317   9.045   9.517   7.043 -0.5246  1.6621  0.2011
  639MOL0     H84318   9.150   9.700   7.170  0.9992 -2.0618  1.4525
  639MOL0     H84319   8.999   9.728   7.258  0.2207  3.2490 -0.1500
  639MOL0     H84320   9.066   9.797   6.967  1.2623  1.6916  1.1720
  639MOL0     H84321   8.895   9.799   7.021 -0.8995  1.2812  1.9988
  639MOL0     H84322   9.129   9.966   7.107  0.2243 -0.5063  3.1729
  639MOL0     H84323   9.003   9.948   7.225  1.1749 -2.2431 -0.1258
  639MOL0     H84324   8.954  10.018   6.928  2.2842  0.2785  1.1313
  639MOL0     H84325   8.971  10.154   7.036 -0.7847  0.3927 -2.7207
  639MOL0     H84326   8.738   9.963   7.074  0.3933 -0.0221 -0.1298
  639MOL0     H84327   8.774  10.114   7.152  2.0188  0.1266 -0.8191
  639MOL0     H84328   8.614  10.130   6.945 -0.4182 -2.3578 -1.1295
  639MOL0     H84329   8.741  10.101   6.839  1.1387  1.1176 -0.5726
  639MOL0     H84330   9.026   9.370   7.477 -1.0712  0.1507 -0.3253
  639MOL0     H84331   8.951   9.202   7.655 -3.2897  0.2300  0.6422
  639MOL0     H84332   8.832   8.772   7.749 -1.4041 -0.6952 -0.2988
  639MOL0     H84333   8.789   8.627   7.959  1.2417  1.0783 -3.0828
  639MOL0     H84334   9.135   7.620   8.863  0.9006 -1.3472 -0.2417
  639MOL0     H84335   9.092   7.488   9.063  1.9054  5.5778 -1.3564
  639MOL0     H84336   8.933   6.982   9.178  4.5027  0.9529 -1.4239
  639MOL0     H84337   9.069   6.893   9.364 -0.7796 -0.5520  1.1932
  639MOL0     H84338   9.067   7.077   9.772  0.1633 -1.6823  0.7280
  639MOL0     H84339   9.202   7.179   9.697  2.3811 -0.8513  0.4404
  639MOL0     H84340   9.256   6.899   9.771  0.4376  0.4001 -1.3949
  639MOL0     H84341   9.367   7.037   9.750  1.6337 -3.0904 -1.2554
  639MOL0     H84342   9.148   7.055   9.969  0.9683 -3.2058 -0.9406
  639MOL0     H84343   9.294   7.146   9.941 -0.0036 -0.1678 -1.2258
  639MOL0     H84344   9.261   6.834   9.998 -2.2737  1.6057  1.2958
  639MOL0     H84345   9.417   6.931  10.012  1.0184  2.5100 -1.3843
  639MOL0     H84346   9.296   6.998  10.388  1.5490  0.3331 -0.9988
  639MOL0     H84347   9.042   7.259   9.574  1.0264  0.1867 -0.3560
  639MOL0     H84348   8.927   7.364   9.388 -1.0117  0.4322  0.4446
  640MOL0     O84349   1.819   2.544  10.670 -0.4853  0.4516 -0.1590
  640MOL0     C84350   1.816   2.420  10.695 -0.6567  0.5579  0.3220
  640MOL0     O84351   1.871   2.364  10.805 -0.0721 -0.5278 -0.7012
  640MOL0     C84352   1.919   2.450  10.904 -0.4820  0.5365 -0.5490
  640MOL0     C84353   1.842   2.459  11.021  0.0524  0.0694 -0.2002
  640MOL0     C84354   1.883   2.538  11.133 -0.2284  0.6048  0.1673
  640MOL0     C84355   1.988   2.630  11.117 -0.1537 -0.4087 -0.6404
  640MOL0     O84356   2.020   2.715  11.212 -0.0775 -0.2278 -0.1244
  640MOL0     C84357   2.020   2.671  11.353 -0.8563  0.2534  1.0096
  640MOL0     C84358   2.084   2.764  11.460 -0.7772 -0.0261  0.7736
  640MOL0     C84359   1.982   2.858  11.530  0.4364 -0.0222  0.0620
  640MOL0     C84360   1.948   2.969  11.438 -0.6389  0.3141  0.6774
  640MOL0     C84361   1.867   3.088  11.513  0.0338  0.4776 -0.1023
  640MOL0     C84362   1.848   3.217  11.423 -0.1087 -0.3323 -1.2290
  640MOL0     C84363   1.789   3.325  11.519  0.0625 -0.5241 -0.1705
  640MOL0     C84364   1.764   3.457  11.441  0.2610 -0.1754 -0.4087
  640MOL0     N84365   1.891   3.527  11.404  0.6662  0.3547  0.4168
  640MOL0     C84366   1.940   3.552  11.281  0.5637  0.1332 -0.2774
  640MOL0     C84367   2.067   3.587  11.307 -0.5286  0.4360 -0.7517
  640MOL0     C84368   2.173   3.624  11.209  0.4999 -0.6245  0.6132
  640MOL0     C84369   2.133   3.587  11.063 -0.2076  0.2360 -0.0373
  640MOL0     C84370   2.218   3.663  10.954 -0.3624  0.4690 -0.1098
  640MOL0     C84371   2.343   3.584  10.905  0.0431  0.6922  0.2137
  640MOL0     O84372   2.428   3.576  11.013 -0.0019 -0.1420  0.2739
  640MOL0     C84373   2.553   3.632  11.015 -0.2871  0.2249  0.9695
  640MOL0     C84374   2.659   3.566  11.078  0.5000 -0.7977  0.2572
  640MOL0     C84375   2.786   3.626  11.093  0.1993 -0.2741  0.2468
  640MOL0     C84376   2.810   3.757  11.048  0.4371  0.9639  1.1350
  640MOL0     C84377   2.938   3.838  11.074 -0.4329  0.3633 -0.7240
  640MOL0     O84378   3.018   3.797  11.174  1.2271  0.1387  0.1282
  640MOL0     C84379   3.132   3.845  11.216 -0.7654  0.3860 -0.6802
  640MOL0     C84380   3.191   3.762  11.309  0.0159  0.0668  0.0806
  640MOL0     C84381   3.326   3.784  11.352  0.9128  0.2612  0.5616
  640MOL0     C84382   3.400   3.888  11.292 -0.2812 -0.3093  0.0467
  640MOL0     O84383   3.527   3.921  11.342 -0.2788  0.2444  0.3719
  640MOL0     C84384   3.618   3.815  11.329 -0.1462  0.3732  0.3626
  640MOL0     C84385   3.763   3.842  11.362 -0.0758 -0.5618 -0.9162
  640MOL0     C84386   3.843   3.712  11.340  0.4067 -0.2436 -0.6597
  640MOL0     C84387   3.987   3.737  11.374 -0.0769  0.5381  0.0466
  640MOL0     C84388   4.079   3.602  11.370 -0.3305 -0.7917  0.7987
  640MOL0     C84389   4.226   3.634  11.394  0.0706  0.2330 -0.3205
  640MOL0     C84390   4.258   3.681  11.537 -0.4088  0.4647 -0.3088
  640MOL0     C84391   4.406   3.682  11.553  0.6422 -0.9739  0.3784
  640MOL0    Cl84392   4.445   3.772  11.705  0.2109 -0.1883  0.2853
  640MOL0     C84393   3.338   3.976  11.204  0.3172 -0.6630 -0.4241
  640MOL0     C84394   3.204   3.957  11.166 -0.2059  0.7381 -0.3685
  640MOL0     O84395   2.958   3.938  11.008 -0.7952 -0.2056  0.8740
  640MOL0     C84396   2.705   3.825  10.982  0.4066  0.2176 -1.1019
  640MOL0     C84397   2.579   3.762  10.968 -0.0889 -0.3936  0.0100
  640MOL0     N84398   2.081   3.601  11.439 -0.0853 -0.3129  0.4005
  640MOL0     N84399   1.982   3.574  11.498  0.5428  0.3530  0.4245
  640MOL0     C84400   2.067   2.609  11.004 -0.5797  0.3290  0.8430
  640MOL0     C84401   2.040   2.516  10.902  0.1196 -0.0382  0.2398
  640MOL0     C84402   1.768   2.320  10.591  1.0143 -0.1787  1.2511
  640MOL0     C84403   1.737   2.373  10.467 -0.3010  0.5789 -0.0728
  640MOL0     C84404   1.680   2.293  10.372  0.5717 -0.0826 -0.5223
  640MOL0     C84405   1.654   2.157  10.393  0.5751  0.2834  0.2093
  640MOL0     O84406   1.593   2.090  10.294  0.3497  0.0456 -0.3653
  640MOL0     C84407   1.592   1.950  10.295  0.0115 -0.1209  0.4781
  640MOL0     C84408   1.540   1.902  10.165 -0.0100 -0.6510  0.6667
  640MOL0     C84409   1.538   1.757  10.139 -0.5099 -0.5835  0.0097
  640MOL0     C84410   1.411   1.691  10.164  0.1368 -0.1294 -0.6370
  640MOL0     C84411   1.379   1.670  10.309 -0.1975 -0.2117 -0.4305
  640MOL0     C84412   1.346   1.646  10.425  0.0103  0.4012  0.5132
  640MOL0     C84413   1.691   2.108  10.516 -0.6232  0.3095 -0.7985
  640MOL0     C84414   1.753   2.184  10.615 -0.3204 -0.6849 -0.7372
  640MOL0     H84415   1.751   2.399  11.027  1.2644 -1.6686  2.9469
  640MOL0     H84416   1.804   2.550  11.207 -1.8498  0.8712 -1.5070
  640MOL0     H84417   2.077   2.578  11.355 -1.9263 -0.4497  3.4387
  640MOL0     H84418   1.922   2.636  11.387  0.1971 -1.6256  2.3112
  640MOL0     H84419   2.171   2.824  11.434 -2.7505  2.4277 -0.6809
  640MOL0     H84420   2.118   2.691  11.534  1.5374  0.8103  0.5969
  640MOL0     H84421   2.025   2.878  11.628 -1.9520 -2.5696  1.7911
  640MOL0     H84422   1.893   2.802  11.562  1.9217 -0.3271  4.2738
  640MOL0     H84423   2.036   3.029  11.414 -2.9860  3.6214 -0.3349
  640MOL0     H84424   1.885   2.933  11.356 -1.1890  0.8161  0.8756
  640MOL0     H84425   1.943   3.103  11.591  2.6446  0.6929 -2.5433
  640MOL0     H84426   1.775   3.037  11.544  1.6737 -0.9058  2.9387
  640MOL0     H84427   1.791   3.191  11.334  0.1937 -1.9404 -0.9847
  640MOL0     H84428   1.945   3.252  11.386  0.3348  0.6561  0.7109
  640MOL0     H84429   1.695   3.305  11.571 -0.0668  1.8982  0.6523
  640MOL0     H84430   1.867   3.358  11.589 -0.3178  2.4002 -1.0126
  640MOL0     H84431   1.715   3.530  11.506  3.6826 -0.3385  2.6275
  640MOL0     H84432   1.700   3.433  11.356 -1.1313  0.3413  0.4561
  640MOL0     H84433   1.893   3.535  11.185  2.3525 -1.7224 -0.9032
  640MOL0     H84434   2.269   3.579  11.238  1.8788  0.5896 -1.7501
  640MOL0     H84435   2.171   3.733  11.207 -3.7880 -0.5565  0.0323
  640MOL0     H84436   2.034   3.633  11.055 -0.6445 -0.6646  0.1744
  640MOL0     H84437   2.111   3.481  11.049 -0.5396 -0.3791  3.9608
  640MOL0     H84438   2.159   3.682  10.864  0.6836  1.2359 -0.6449
  640MOL0     H84439   2.235   3.763  10.994 -0.5846  0.6642 -0.4964
  640MOL0     H84440   2.386   3.635  10.818  4.2296 -0.1503  1.5884
  640MOL0     H84441   2.313   3.483  10.877 -0.1072  0.5874  0.7420
  640MOL0     H84442   2.635   3.472  11.126 -1.6557  0.1905  1.2731
  640MOL0     H84443   2.872   3.575  11.136  0.7961 -0.1508 -0.7612
  640MOL0     H84444   3.129   3.691  11.362  0.2838  1.0722  1.8312
  640MOL0     H84445   3.373   3.729  11.433  1.0687 -1.3244 -0.5539
  640MOL0     H84446   3.614   3.762  11.233  0.6492 -1.7994  1.4397
  640MOL0     H84447   3.575   3.749  11.405 -1.4290  2.3243  1.4075
  640MOL0     H84448   3.763   3.878  11.466  3.4001 -1.2760 -0.5373
  640MOL0     H84449   3.787   3.926  11.296  1.0221 -0.6329 -0.6339
  640MOL0     H84450   3.829   3.697  11.232  1.5607  4.0591 -1.6160
  640MOL0     H84451   3.792   3.633  11.395  0.7121  0.2959  0.4252
  640MOL0     H84452   4.039   3.809  11.309  1.6082 -0.5027  0.1984
  640MOL0     H84453   3.995   3.790  11.469 -0.2601  1.9463 -0.6841
  640MOL0     H84454   4.069   3.560  11.269 -1.4631 -0.7041  0.8714
  640MOL0     H84455   4.046   3.524  11.439 -1.0013  1.0581  2.6736
  640MOL0     H84456   4.262   3.722  11.339  2.1992  0.9636  2.0291
  640MOL0     H84457   4.282   3.545  11.364  1.0344 -0.1316  2.2466
  640MOL0     H84458   4.211   3.780  11.546  0.0815  0.6072  0.7544
  640MOL0     H84459   4.213   3.605  11.600  1.7319 -1.0415 -0.5041
  640MOL0     H84460   4.447   3.728  11.463  2.7600 -5.0567 -0.9977
  640MOL0     H84461   4.442   3.579  11.565 -0.0560 -1.5011 -1.6229
  640MOL0     H84462   3.395   4.061  11.167 -1.2081 -0.1288 -1.6153
  640MOL0     H84463   3.167   4.037  11.101 -2.1896 -0.3580 -0.6569
  640MOL0     H84464   2.718   3.924  10.940 -0.3332  2.1254  2.7091
  640MOL0     H84465   2.502   3.810  10.908 -0.6638 -0.5948  0.5667
  640MOL0     H84466   2.159   2.660  10.975  1.0413 -2.5862  0.4636
  640MOL0     H84467   2.092   2.511  10.807  3.0872 -0.2080  1.7280
  640MOL0     H84468   1.748   2.478  10.439  2.1613  0.1406 -1.0229
  640MOL0     H84469   1.669   2.339  10.274 -0.4681 -0.9278 -0.8196
  640MOL0     H84470   1.536   1.902  10.375 -1.2424 -0.5764 -0.6387
  640MOL0     H84471   1.696   1.918  10.303  0.3707 -0.1755 -3.0482
  640MOL0     H84472   1.440   1.946  10.154  0.7198  1.1987  1.0328
  640MOL0     H84473   1.603   1.956  10.093 -0.5884 -1.5286 -0.5336
  640MOL0     H84474   1.630   1.717  10.183 -0.4381 -1.0924 -0.5955
  640MOL0     H84475   1.550   1.739  10.032  1.2425  1.7711 -0.2742
  640MOL0     H84476   1.334   1.748  10.111  2.0099  0.8870 -2.4316
  640MOL0     H84477   1.416   1.589  10.125 -1.0774  0.0254 -1.2638
  640MOL0     H84478   1.328   1.623  10.528 -1.8884  0.4475  0.2247
  640MOL0     H84479   1.666   2.004  10.533  0.2702  0.5494  2.7894
  640MOL0     H84480   1.785   2.148  10.713 -3.3156 -0.5603  0.3878
  641MOL0     O84481   1.787   2.048   0.101 -0.3250 -0.4905  0.0134
  641MOL0     C84482   1.769   2.016  -0.018  0.0654  0.0015  0.4144
  641MOL0     O84483   1.654   2.044  -0.093 -0.5266 -0.5577 -0.0053
  641MOL0     C84484   1.571   2.142  -0.031  1.0932 -0.7980 -0.2488
  641MOL0     C84485   1.597   2.273  -0.062 -0.0816 -0.3047  0.1551
  641MOL0     C84486   1.512   2.374  -0.020  0.3316  0.5602  0.2611
  641MOL0     C84487   1.407   2.345   0.076 -0.2718  1.5970 -1.0553
  641MOL0     O84488   1.314   2.436   0.135  0.3024  0.3707  0.0889
  641MOL0     C84489   1.333   2.575   0.113  0.3098 -0.4289  0.1659
  641MOL0     C84490   1.444   2.638   0.206  0.5467 -0.0470  0.0520
  641MOL0     C84491   1.442   2.789   0.176  0.1316  0.0714  0.7069
  641MOL0     C84492   1.490   2.819   0.033  0.0846 -0.9052  1.7635
  641MOL0     C84493   1.488   2.972   0.020  0.7678 -0.8161  0.1719
  641MOL0     C84494   1.527   3.016  -0.120 -0.0459  0.8718 -0.0166
  641MOL0     C84495   1.476   3.158  -0.154  0.4495  0.7401  0.4435
  641MOL0     C84496   1.518   3.203  -0.293 -0.3277  0.5126  0.0135
  641MOL0     N84497   1.664   3.191  -0.315 -0.1000  0.2101 -0.1511
  641MOL0     C84498   1.714   3.078  -0.363  0.4212  0.5910 -0.5329
  641MOL0     C84499   1.840   3.111  -0.384 -0.1981  0.1499  0.6438
  641MOL0     C84500   1.936   3.001  -0.411 -0.2764 -0.5977  0.4868
  641MOL0     C84501   1.927   2.957  -0.563  0.0841  0.6794  0.3958
  641MOL0     C84502   2.066   2.964  -0.638  0.1312 -0.2442  0.9570
  641MOL0     C84503   2.079   2.937  -0.787 -0.0157 -0.7057  0.1925
  641MOL0     O84504   2.215   2.966  -0.819  0.1202  0.2512  0.1591
  641MOL0     C84505   2.258   2.932  -0.941 -0.0434  0.0271 -0.7221
  641MOL0     C84506   2.204   2.823  -1.015 -0.0634 -0.4747  0.2234
  641MOL0     C84507   2.276   2.772  -1.122 -0.1499 -0.1037  0.0725
  641MOL0     C84508   2.402   2.821  -1.157 -0.3227 -0.3738 -0.0596
  641MOL0     C84509   2.471   2.766  -1.266 -0.7099  0.6523 -0.3121
  641MOL0     O84510   2.465   2.629  -1.271  0.0962  0.2718 -0.0534
  641MOL0     C84511   2.518   2.551  -1.372  0.0356 -0.7269  0.9583
  641MOL0     C84512   2.437   2.443  -1.410 -0.0644  0.0105  0.5655
  641MOL0     C84513   2.472   2.363  -1.516 -0.2600  0.1124 -0.5689
  641MOL0     C84514   2.596   2.379  -1.578  0.2843 -0.4044 -0.3622
  641MOL0     O84515   2.639   2.288  -1.674 -0.1727 -0.3008 -0.7075
  641MOL0     C84516   2.565   2.280  -1.793 -0.4078 -0.5764 -0.7891
  641MOL0     C84517   2.642   2.326  -1.912  0.4730 -0.4792  0.2984
  641MOL0     C84518   2.782   2.263  -1.927  0.0739 -0.2351  0.9600
  641MOL0     C84519   2.837   2.305  -2.061  0.2881 -0.6522  0.4180
  641MOL0     C84520   2.957   2.226  -2.111  0.9029 -0.0137  0.0081
  641MOL0     C84521   2.988   2.289  -2.246 -0.6615  0.4790  0.3809
  641MOL0     C84522   3.075   2.188  -2.320  0.7686 -0.1622 -1.0109
  641MOL0     C84523   3.170   2.236  -2.432  0.4161  0.2304 -0.1075
  641MOL0    Cl84524   3.091   2.275  -2.575  0.8153  0.1507 -0.2912
  641MOL0     C84525   2.682   2.479  -1.541  0.1594  0.8810  0.0690
  641MOL0     C84526   2.638   2.564  -1.436 -0.6166 -0.2766  0.5955
  641MOL0     O84527   2.503   2.839  -1.366 -0.0290  0.4326 -0.3685
  641MOL0     C84528   2.444   2.939  -1.091 -0.7831  0.2429 -0.2706
  641MOL0     C84529   2.375   2.986  -0.981  0.2077 -0.3529 -0.3470
  641MOL0     N84530   1.871   3.243  -0.368  0.9713 -0.0420  0.1130
  641MOL0     N84531   1.754   3.294  -0.338  0.2345  0.4443  0.1197
  641MOL0     C84532   1.384   2.209   0.111  0.0816 -0.2261 -0.1525
  641MOL0     C84533   1.474   2.114   0.058  0.6173  0.6733 -0.0059
  641MOL0     C84534   1.870   1.923  -0.081  0.7144 -0.2072  0.3297
  641MOL0     C84535   1.990   1.900  -0.024 -0.4283  0.5402  0.5865
  641MOL0     C84536   2.064   1.789  -0.074  0.4800 -1.9458  0.2948
  641MOL0     C84537   2.029   1.720  -0.197 -0.0406 -0.8482 -0.1052
  641MOL0     O84538   2.105   1.627  -0.263 -0.3261  0.0487  0.2295
  641MOL0     C84539   2.227   1.590  -0.196 -0.6729  0.0637  0.7071
  641MOL0     C84540   2.341   1.694  -0.235 -0.7217  0.3627 -0.2927
  641MOL0     C84541   2.475   1.667  -0.154 -1.7136  0.1359 -0.0057
  641MOL0     C84542   2.575   1.790  -0.155 -0.4754 -0.7480  0.1782
  641MOL0     C84543   2.670   1.769  -0.052 -0.0914  0.4531 -0.1051
  641MOL0     C84544   2.747   1.727   0.031 -0.8605 -0.7739 -0.6102
  641MOL0     C84545   1.907   1.760  -0.248 -0.3441 -1.1831  0.4144
  641MOL0     C84546   1.823   1.853  -0.192 -0.0360  0.0798 -0.7486
  641MOL0     H84547   1.683   2.290  -0.126  0.0835 -0.5591  0.3067
  641MOL0     H84548   1.550   2.471  -0.050  1.1675  0.2729  0.3602
  641MOL0     H84549   1.237   2.626   0.119 -1.0632 -2.9951  1.5348
  641MOL0     H84550   1.360   2.584   0.007  0.4706 -1.1125  0.1435
  641MOL0     H84551   1.541   2.593   0.189 -0.0510 -1.9616  1.3697
  641MOL0     H84552   1.416   2.613   0.309 -0.6823  0.5139 -0.1239
  641MOL0     H84553   1.509   2.828   0.253  2.7256 -2.5814  0.0036
  641MOL0     H84554   1.345   2.828   0.207  0.0159 -1.5642  2.6497
  641MOL0     H84555   1.591   2.787   0.006 -0.2660 -1.9196  1.5932
  641MOL0     H84556   1.420   2.784  -0.043  0.4455  1.0901  0.4505
  641MOL0     H84557   1.561   3.022   0.084 -1.9424  4.9102 -0.5097
  641MOL0     H84558   1.389   3.015   0.039  1.4858  0.4128  1.3121
  641MOL0     H84559   1.478   2.941  -0.181 -1.6760  2.5712 -0.8935
  641MOL0     H84560   1.635   3.002  -0.132 -0.4565 -0.4051 -3.3241
  641MOL0     H84561   1.368   3.157  -0.136  0.3156 -4.2945  0.6719
  641MOL0     H84562   1.528   3.224  -0.083 -0.1597 -0.4843  2.1140
  641MOL0     H84563   1.475   3.298  -0.322 -0.9687  0.5204  0.9508
  641MOL0     H84564   1.464   3.138  -0.362 -0.0871  0.2833  0.0375
  641MOL0     H84565   1.660   2.984  -0.366  3.5643 -1.3497  0.0742
  641MOL0     H84566   1.932   2.915  -0.344  4.2308 -0.6629  0.9691
  641MOL0     H84567   2.032   3.049  -0.394 -0.4822  0.6796 -1.6147
  641MOL0     H84568   1.853   3.010  -0.624  1.6774  2.9586  0.3193
  641MOL0     H84569   1.892   2.853  -0.565  2.2117 -0.1430  1.9679
  641MOL0     H84570   2.083   3.071  -0.623 -1.2851  0.0117  0.8825
  641MOL0     H84571   2.138   2.897  -0.590 -2.2678 -3.7716  0.0069
  641MOL0     H84572   2.007   2.992  -0.849  0.2963 -1.1789 -0.6116
  641MOL0     H84573   2.051   2.832  -0.799 -1.5246 -0.1585 -1.6741
  641MOL0     H84574   2.111   2.774  -0.984 -0.4004  0.9910  1.6644
  641MOL0     H84575   2.245   2.693  -1.190 -0.5170 -2.4146  2.7035
  641MOL0     H84576   2.345   2.408  -1.362 -0.3557 -2.4325 -1.5421
  641MOL0     H84577   2.396   2.288  -1.537 -1.0907  0.1117  2.0372
  641MOL0     H84578   2.466   2.326  -1.797 -1.0597 -1.8472 -0.0760
  641MOL0     H84579   2.534   2.176  -1.807  0.4140 -1.2642  1.9268
  641MOL0     H84580   2.645   2.435  -1.923 -1.5964 -0.4899 -0.8961
  641MOL0     H84581   2.572   2.289  -1.988  0.0689 -1.5909  1.1729
  641MOL0     H84582   2.774   2.154  -1.921  2.4739 -0.5427 -0.1760
  641MOL0     H84583   2.840   2.306  -1.845  1.5993  0.5024 -0.4542
  641MOL0     H84584   2.760   2.292  -2.138  1.2966  0.7122 -0.8739
  641MOL0     H84585   2.851   2.413  -2.066 -0.4802 -0.5484  0.4647
  641MOL0     H84586   2.932   2.120  -2.116  1.0015 -0.2320  2.5767
  641MOL0     H84587   3.049   2.240  -2.053  3.0074  0.4460 -3.1504
  641MOL0     H84588   3.041   2.384  -2.242 -0.0867  0.1696  0.1984
  641MOL0     H84589   2.895   2.307  -2.300 -0.5052  2.1368  0.5978
  641MOL0     H84590   3.135   2.142  -2.241  0.5946  3.4715  1.4705
  641MOL0     H84591   3.005   2.112  -2.357 -0.0863 -1.9948  3.6744
  641MOL0     H84592   3.226   2.146  -2.461 -1.1219 -1.3723  1.6801
  641MOL0     H84593   3.241   2.314  -2.404  1.0296  0.1277 -1.2847
  641MOL0     H84594   2.779   2.496  -1.589  1.0722  1.2618  1.9600
  641MOL0     H84595   2.707   2.639  -1.399  0.9673 -1.8303  0.9537
  641MOL0     H84596   2.527   2.988  -1.140 -1.0482 -1.1604 -2.2506
  641MOL0     H84597   2.419   3.068  -0.925 -0.3447  1.9282 -3.0134
  641MOL0     H84598   1.307   2.186   0.183  0.7574 -0.9112  0.3759
  641MOL0     H84599   1.454   2.011   0.087  3.4423 -0.2752 -1.0100
  641MOL0     H84600   2.032   1.955   0.060  0.0571 -0.8417  1.2778
  641MOL0     H84601   2.163   1.784  -0.030  0.1567  2.1011  1.8451
  641MOL0     H84602   2.256   1.492  -0.235  0.0381  0.6969 -0.3916
  641MOL0     H84603   2.216   1.579  -0.087  1.4710  1.7422  1.1496
  641MOL0     H84604   2.357   1.698  -0.343  0.7624  1.3734 -0.0652
  641MOL0     H84605   2.307   1.796  -0.217 -0.5820  0.0563  2.0245
  641MOL0     H84606   2.527   1.584  -0.202 -1.4242  1.2127 -1.5963
  641MOL0     H84607   2.456   1.642  -0.049  2.4134 -1.5839  0.5225
  641MOL0     H84608   2.630   1.798  -0.249  0.3615  1.0766  0.7734
  641MOL0     H84609   2.526   1.886  -0.134  1.7817  0.5883 -0.3158
  641MOL0     H84610   2.810   1.689   0.109 -2.7292  2.7955  3.0403
  641MOL0     H84611   1.886   1.713  -0.344 -0.4472  0.1981 -0.2707
  641MOL0     H84612   1.728   1.870  -0.242 -0.3354  1.9322  0.3592
  642MOL0     O84613  10.777   8.128  10.497 -0.1687  0.3615 -0.3414
  642MOL0     C84614  10.870   8.125  10.582 -0.2635  0.7041 -0.4167
  642MOL0     O84615  10.868   8.188  10.704  0.4415  0.4564  0.4464
  642MOL0     C84616  10.747   8.232  10.755  0.4591 -0.0210  0.0539
  642MOL0     C84617  10.666   8.156  10.836 -0.7975 -0.7559 -1.6417
  642MOL0     C84618  10.534   8.191  10.859 -0.9288 -0.1930  0.8732
  642MOL0     C84619  10.478   8.305  10.798  0.0432  0.1252 -0.4711
  642MOL0     O84620  10.343   8.333  10.835 -0.7087  0.4707 -0.2639
  642MOL0     C84621  10.282   8.429  10.755  0.4584 -0.7205 -0.4090
  642MOL0     C84622  10.133   8.437  10.776 -1.2982 -0.6435 -0.9975
  642MOL0     C84623  10.103   8.492  10.918 -1.0959  1.0134 -0.5982
  642MOL0     C84624  10.075   8.649  10.946  0.1398 -0.7394 -0.7877
  642MOL0     C84625  10.185   8.743  10.896  1.4659 -0.7907 -0.9566
  642MOL0     C84626  10.179   8.878  10.964 -0.3118  0.2189  0.3578
  642MOL0     C84627  10.038   8.945  10.928 -0.1177 -0.3705  0.3643
  642MOL0     C84628  10.017   8.998  10.782  0.2075  0.2687 -0.4701
  642MOL0     N84629  10.123   9.066  10.721 -0.1208  0.9264  0.0151
  642MOL0     C84630  10.157   9.196  10.754  1.2802 -0.2083  0.8157
  642MOL0     C84631  10.255   9.210  10.666  0.1816 -0.3267 -0.4897
  642MOL0     C84632  10.336   9.344  10.650  0.1019  0.7976  0.3443
  642MOL0     C84633  10.234   9.444  10.600  1.3277 -0.2796 -0.5351
  642MOL0     C84634  10.188   9.438  10.455  0.3936  0.3745 -0.6038
  642MOL0     C84635  10.070   9.537  10.435  0.0756 -0.3921 -0.2978
  642MOL0     O84636  10.119   9.671  10.465 -1.0410  0.2170 -0.7730
  642MOL0     C84637  10.116   9.761  10.363 -0.0741  0.3537 -0.5211
  642MOL0     C84638   9.997   9.813  10.312  0.8490 -0.6761  0.2076
  642MOL0     C84639  10.000   9.893  10.201  0.4324  0.4663 -0.3588
  642MOL0     C84640  10.117   9.915  10.129 -0.2620  0.2037 -1.1792
  642MOL0     C84641  10.117   9.984  10.006 -1.5232  0.3887  0.0247
  642MOL0     O84642  10.008  10.067   9.996  0.2215  0.3880 -0.5901
  642MOL0     C84643   9.996  10.149   9.890 -0.3653 -0.1171  0.1115
  642MOL0     C84644   9.957  10.100   9.759  0.1180 -0.1192 -0.2885
  642MOL0     C84645   9.954  10.189   9.643 -0.2622  0.7443  0.5673
  642MOL0     C84646   9.993  10.322   9.661  0.5387  0.4185 -0.3468
  642MOL0     O84647  10.005  10.399   9.543 -0.3891 -0.4023 -0.5222
  642MOL0     C84648   9.994  10.539   9.547  0.2405  1.0575  0.0772
  642MOL0     C84649  10.028  10.595   9.407  1.2735 -0.1536  0.5190
  642MOL0     C84650  10.033  10.741   9.410 -0.0259 -0.7025  0.3466
  642MOL0     C84651  10.063  10.798   9.273 -0.3914  0.4209  0.8944
  642MOL0     C84652  10.077  10.950   9.274 -0.1016 -0.2123  1.0905
  642MOL0     C84653  10.136  11.007   9.136  0.4065 -0.4332  0.2396
  642MOL0     C84654  10.112  11.164   9.117  0.0199 -0.2323  0.7979
  642MOL0     C84655  10.179  11.248   9.226  0.1828  0.6125 -0.3626
  642MOL0    Cl84656  10.157  11.413   9.165 -0.2112 -0.0620 -0.3171
  642MOL0     C84657   9.997  10.372   9.788 -0.3011  0.2243 -0.0016
  642MOL0     C84658  10.014  10.290   9.902  0.5472  0.6232 -0.8050
  642MOL0     O84659  10.220   9.983   9.939 -0.2359 -0.2662  0.6200
  642MOL0     C84660  10.234   9.870  10.193 -1.4625  0.6150  0.7892
  642MOL0     C84661  10.229   9.788  10.308  0.2318  0.7378  0.9463
  642MOL0     N84662  10.294   9.088  10.604 -0.3234 -0.5128  1.2069
  642MOL0     N84663  10.215   8.997  10.645  0.7505  0.2232  0.3607
  642MOL0     C84664  10.561   8.385  10.710 -0.5931  0.1765  0.2152
  642MOL0     C84665  10.695   8.348  10.689 -0.0972  0.7701  0.3016
  642MOL0     C84666  10.980   8.034  10.559 -0.4504 -0.2888 -0.1714
  642MOL0     C84667  11.064   7.998  10.665 -0.1409  0.3133 -0.3738
  642MOL0     C84668  11.153   7.895  10.644  0.5221  0.0396  0.0655
  642MOL0     C84669  11.179   7.836  10.522  0.6154  0.1487 -0.7339
  642MOL0     O84670  11.270   7.734  10.509  0.1681 -0.2205  0.0368
  642MOL0     C84671  11.380   7.704  10.591  0.7385 -0.0804 -0.6171
  642MOL0     C84672  11.486   7.815  10.591 -0.2314 -0.1744 -0.8058
  642MOL0     C84673  11.597   7.787  10.689 -0.7074 -0.2447  0.1986
  642MOL0     C84674  11.562   7.750  10.833 -0.9611 -0.1976  0.2967
  642MOL0     C84675  11.461   7.831  10.895 -0.3384 -0.8750 -0.5370
  642MOL0     C84676  11.371   7.883  10.949  0.0113 -0.0734 -0.4926
  642MOL0     C84677  11.091   7.864  10.420 -0.7748  0.2983 -0.2323
  642MOL0     C84678  10.997   7.966  10.435  0.0341 -0.1500 -0.3420
  642MOL0     H84679  10.706   8.061  10.869 -2.2375 -0.8300  0.0403
  642MOL0     H84680  10.479   8.113  10.911  1.5321 -3.7052 -1.3669
  642MOL0     H84681  10.303   8.416  10.648  3.8586  3.2800 -0.5338
  642MOL0     H84682  10.317   8.528  10.785 -1.4576 -0.7129  2.1046
  642MOL0     H84683  10.092   8.338  10.752  0.3135 -1.7596  0.5569
  642MOL0     H84684  10.090   8.513  10.710  0.0697  1.9262  0.8898
  642MOL0     H84685  10.178   8.455  10.988 -1.7390 -2.7768 -1.6808
  642MOL0     H84686  10.011   8.441  10.946  1.3523 -3.4743  0.1496
  642MOL0     H84687   9.985   8.673  10.889  1.4329  0.5998 -2.3441
  642MOL0     H84688  10.054   8.671  11.051  2.1809 -0.6366 -0.3660
  642MOL0     H84689  10.172   8.747  10.787  1.5305  0.1351 -0.9343
  642MOL0     H84690  10.283   8.696  10.913  2.2119  0.5243 -1.4753
  642MOL0     H84691  10.266   8.941  10.942 -0.4836  0.0685 -0.7930
  642MOL0     H84692  10.177   8.857  11.072  1.9341 -0.6972  0.2786
  642MOL0     H84693   9.949   8.892  10.963 -0.8793  3.1187  4.7119
  642MOL0     H84694  10.038   9.033  10.994 -1.0850  0.3830 -0.5888
  642MOL0     H84695   9.922   9.051  10.772  0.6616  0.7583 -3.2376
  642MOL0     H84696  10.001   8.904  10.728 -0.5390 -1.1406  2.0529
  642MOL0     H84697  10.113   9.275  10.815 -1.2343  1.3941 -2.7346
  642MOL0     H84698  10.424   9.344  10.585  0.6805 -0.5921  1.0719
  642MOL0     H84699  10.366   9.375  10.750  0.5688  0.3261  0.3601
  642MOL0     H84700  10.278   9.544  10.613 -0.8070  0.9637 -2.1807
  642MOL0     H84701  10.147   9.447  10.666  2.0300 -4.0157  0.7736
  642MOL0     H84702  10.260   9.457  10.376  1.4016 -1.3609 -0.1482
  642MOL0     H84703  10.143   9.341  10.436 -1.4862  0.7131  1.5923
  642MOL0     H84704   9.996   9.514  10.512  0.1431 -0.3340 -0.2147
  642MOL0     H84705  10.036   9.526  10.332  0.8032  2.6987 -0.9620
  642MOL0     H84706   9.901   9.788  10.355  0.1544 -1.4916 -1.7534
  642MOL0     H84707   9.900   9.925  10.174 -0.5391 -2.2850 -0.2671
  642MOL0     H84708   9.936   9.994   9.763 -0.6344  0.0499  1.3112
  642MOL0     H84709   9.942  10.164   9.538  0.2589  0.1347  0.6463
  642MOL0     H84710  10.058  10.590   9.620  2.4130 -0.3605 -0.7275
  642MOL0     H84711   9.895  10.574   9.576  0.7145  0.4636  2.7458
  642MOL0     H84712   9.966  10.555   9.326 -1.7645  1.5326  1.8510
  642MOL0     H84713  10.130  10.564   9.383  1.9058  3.0626 -1.6003
  642MOL0     H84714  10.105  10.774   9.486 -0.1791  0.7998 -0.1280
  642MOL0     H84715   9.939  10.786   9.443 -0.5086 -0.9864 -0.6049
  642MOL0     H84716  10.144  10.750   9.218 -0.2845  1.3002  0.2700
  642MOL0     H84717   9.981  10.790   9.202  2.2002  2.9009 -2.7373
  642MOL0     H84718  10.150  10.978   9.350  1.2065  3.4645 -1.2866
  642MOL0     H84719   9.981  10.995   9.300 -0.7742  0.9109 -2.7315
  642MOL0     H84720  10.076  10.956   9.061 -0.6850  0.0914  0.7315
  642MOL0     H84721  10.244  10.994   9.148  0.1758  0.0064  4.4814
  642MOL0     H84722  10.153  11.200   9.022 -2.9557 -2.2154 -1.4481
  642MOL0     H84723  10.007  11.193   9.127 -0.2057  0.1939 -2.0763
  642MOL0     H84724  10.282  11.210   9.231 -0.1878 -0.6251 -1.5556
  642MOL0     H84725  10.142  11.241   9.329 -2.4040 -1.1058 -1.3059
  642MOL0     H84726  10.020  10.475   9.812  1.3084 -0.2992  0.8854
  642MOL0     H84727  10.059  10.336   9.990 -4.1686  1.0590  1.7429
  642MOL0     H84728  10.325   9.897  10.141 -3.6075 -0.1839 -3.9517
  642MOL0     H84729  10.323   9.744  10.339  0.7974 -0.7154 -2.3464
  642MOL0     H84730  10.544   8.482  10.664  1.4970  0.1634 -0.7147
  642MOL0     H84731  10.753   8.411  10.622  0.6501  0.2385  0.4356
  642MOL0     H84732  11.050   8.024  10.770 -0.7867 -1.5633  0.0499
  642MOL0     H84733  11.212   7.859  10.728  1.8811 -0.2155 -0.9523
  642MOL0     H84734  11.427   7.613  10.552  1.6008  0.8230 -1.7740
  642MOL0     H84735  11.348   7.686  10.694  0.0666  1.8999 -0.4509
  642MOL0     H84736  11.526   7.842  10.493 -0.4647  2.1794 -0.3077
  642MOL0     H84737  11.432   7.901  10.632 -1.4895  0.0995 -2.8833
  642MOL0     H84738  11.662   7.874  10.706  2.3240 -2.9046  3.8584
  642MOL0     H84739  11.659   7.705  10.654 -1.2281 -1.2389  1.5238
  642MOL0     H84740  11.537   7.644  10.831 -2.2147  0.0207 -3.1443
  642MOL0     H84741  11.653   7.761  10.892 -0.2673  1.0961 -0.9412
  642MOL0     H84742  11.280   7.919  10.992 -0.0857  2.8693 -2.8771
  642MOL0     H84743  11.093   7.811  10.325 -2.2318  1.7911 -1.1327
  642MOL0     H84744  10.925   7.993  10.358 -1.2396  1.5314  1.3191
  643MOL0     O84745   5.626   4.645   2.485  0.2015  0.6589 -0.7679
  643MOL0     C84746   5.702   4.743   2.486  1.2234  0.4647 -0.3331
  643MOL0     O84747   5.766   4.796   2.593  0.5514 -0.8303 -0.3424
  643MOL0     C84748   5.703   4.787   2.721 -0.8715  0.4095  0.5218
  643MOL0     C84749   5.571   4.823   2.727 -0.0390 -0.0209  0.3249
  643MOL0     C84750   5.510   4.838   2.855 -0.1232 -1.0030 -0.0051
  643MOL0     C84751   5.592   4.822   2.973 -0.7309  0.5435  0.2981
  643MOL0     O84752   5.521   4.848   3.080  0.2974 -0.0216 -0.3676
  643MOL0     C84753   5.571   4.781   3.195 -0.5657  0.0564  0.1520
  643MOL0     C84754   5.452   4.781   3.290  0.2107  0.4219 -0.2811
  643MOL0     C84755   5.423   4.898   3.378  0.7619  0.4378  0.2506
  643MOL0     C84756   5.394   5.042   3.326  0.1706  0.4483  1.0870
  643MOL0     C84757   5.523   5.129   3.295 -0.3548  0.2198 -0.6898
  643MOL0     C84758   5.490   5.254   3.221  0.1616  0.5944  0.3247
  643MOL0     C84759   5.597   5.353   3.196 -0.3975 -0.9554  0.6671
  643MOL0     C84760   5.711   5.315   3.092 -0.6130  0.0381  1.3261
  643MOL0     N84761   5.831   5.415   3.082 -0.5982 -0.2889 -0.0161
  643MOL0     C84762   5.885   5.497   3.183 -0.1045 -0.8409 -0.5167
  643MOL0     C84763   6.013   5.508   3.139  0.8957 -0.7530  1.1538
  643MOL0     C84764   6.113   5.591   3.211  0.2727 -0.0260 -0.1491
  643MOL0     C84765   6.213   5.511   3.290 -0.0715 -0.1521 -0.3960
  643MOL0     C84766   6.280   5.412   3.196 -0.6848  0.5737  1.5586
  643MOL0     C84767   6.417   5.362   3.253  0.5231 -0.2305  0.2698
  643MOL0     O84768   6.475   5.274   3.156 -0.6671 -0.2183  0.0757
  643MOL0     C84769   6.600   5.229   3.179  0.7475  0.1333 -0.4203
  643MOL0     C84770   6.711   5.267   3.109  0.6236 -1.1627 -0.4804
  643MOL0     C84771   6.838   5.245   3.165 -0.1207 -0.0579  0.3062
  643MOL0     C84772   6.865   5.173   3.281  0.4498  0.1017 -0.5486
  643MOL0     C84773   6.998   5.137   3.324 -0.4095  0.1018  0.2042
  643MOL0     O84774   7.097   5.177   3.250  0.2859 -0.7542  0.1310
  643MOL0     C84775   7.216   5.114   3.258 -0.6947  1.0047  0.4951
  643MOL0     C84776   7.325   5.195   3.260 -0.3657 -0.0924  0.1209
  643MOL0     C84777   7.454   5.146   3.270 -0.4086 -0.1169 -0.8058
  643MOL0     C84778   7.480   5.008   3.264 -0.2149 -0.1023 -0.0731
  643MOL0     O84779   7.611   4.968   3.264 -0.2570 -0.0367  0.4064
  643MOL0     C84780   7.644   4.853   3.336 -0.8431  0.9880 -0.6459
  643MOL0     C84781   7.685   4.887   3.477 -0.0125  0.3412  0.6482
  643MOL0     C84782   7.665   4.769   3.574  0.9874 -0.3780  0.5279
  643MOL0     C84783   7.685   4.814   3.724 -0.2703  0.7613  0.4253
  643MOL0     C84784   7.688   4.702   3.825  0.3143  0.1471 -0.5373
  643MOL0     C84785   7.552   4.634   3.828  0.6774  0.0230 -0.3136
  643MOL0     C84786   7.529   4.554   3.955 -0.0262  0.4602 -0.1611
  643MOL0     C84787   7.391   4.493   3.957 -0.8109  0.6659  0.0749
  643MOL0    Cl84788   7.384   4.411   4.124  0.1256  0.1345 -0.2932
  643MOL0     C84789   7.372   4.922   3.253  0.1675 -0.4992  1.0413
  643MOL0     C84790   7.237   4.976   3.255 -0.3378 -0.1872 -0.0351
  643MOL0     O84791   7.013   5.085   3.431 -0.3552  1.1801 -0.3467
  643MOL0     C84792   6.745   5.121   3.345 -1.0095 -0.6011 -0.4988
  643MOL0     C84793   6.611   5.149   3.296  0.3941 -0.1577 -0.0860
  643MOL0     N84794   6.034   5.448   3.014  0.1489  0.1594  0.4314
  643MOL0     N84795   5.915   5.401   2.981 -0.7339  0.2552 -0.4963
  643MOL0     C84796   5.727   4.793   2.960  0.7666  0.6634 -0.5509
  643MOL0     C84797   5.778   4.769   2.837 -0.1787 -0.2565  0.0296
  643MOL0     C84798   5.739   4.790   2.353 -0.1656 -0.0504 -0.7434
  643MOL0     C84799   5.730   4.705   2.242 -0.4145 -0.0844  0.1194
  643MOL0     C84800   5.768   4.752   2.112 -0.1745  0.3545 -0.4315
  643MOL0     C84801   5.798   4.887   2.095  0.6241  0.5583 -0.0927
  643MOL0     O84802   5.817   4.933   1.971  0.5140  0.4367 -0.9038
  643MOL0     C84803   5.700   4.989   1.910  0.2386  0.1594 -0.0611
  643MOL0     C84804   5.738   5.000   1.761 -0.5951 -0.5360  0.0809
  643MOL0     C84805   5.608   5.047   1.687 -0.6587 -0.4104  0.9502
  643MOL0     C84806   5.622   5.054   1.537 -0.2070  0.7631  0.0537
  643MOL0     C84807   5.670   4.917   1.487 -0.2662 -0.9214 -0.8098
  643MOL0     C84808   5.715   4.816   1.452  0.4881  0.9045 -0.7322
  643MOL0     C84809   5.798   4.969   2.207 -0.5500 -1.1337  0.5838
  643MOL0     C84810   5.773   4.923   2.334 -0.1642 -0.2210 -1.2132
  643MOL0     H84811   5.521   4.839   2.632 -0.2473 -1.9292  0.0812
  643MOL0     H84812   5.409   4.877   2.862 -0.1195 -0.4784 -2.1023
  643MOL0     H84813   5.661   4.834   3.230  1.1315 -1.6973 -1.3728
  643MOL0     H84814   5.608   4.682   3.169  0.3459  0.6843 -0.9869
  643MOL0     H84815   5.463   4.697   3.360 -0.5318  1.2436  0.8493
  643MOL0     H84816   5.369   4.750   3.227  1.5281  0.0296 -1.9044
  643MOL0     H84817   5.512   4.921   3.437 -0.0066  1.4155  1.0705
  643MOL0     H84818   5.334   4.885   3.441 -1.3637  2.4256 -2.0872
  643MOL0     H84819   5.336   5.038   3.234  4.7824  2.8974 -2.3384
  643MOL0     H84820   5.333   5.094   3.401  1.1645 -2.1017  3.8562
  643MOL0     H84821   5.581   5.071   3.222 -1.0274 -1.6362  0.1735
  643MOL0     H84822   5.583   5.156   3.382  1.8688 -0.2938 -1.9737
  643MOL0     H84823   5.410   5.300   3.280 -0.5472 -0.2436  0.0467
  643MOL0     H84824   5.454   5.228   3.121  3.3609  1.3198 -1.1359
  643MOL0     H84825   5.538   5.439   3.163 -0.3985 -1.0575  0.4024
  643MOL0     H84826   5.648   5.375   3.291  0.4789  2.2521 -0.4169
  643MOL0     H84827   5.655   5.322   2.998  0.1563  0.5673  0.8982
  643MOL0     H84828   5.743   5.211   3.107 -2.0611 -0.3195  2.1628
  643MOL0     H84829   5.851   5.524   3.282  2.0183  0.7023 -0.1385
  643MOL0     H84830   6.049   5.658   3.269 -3.3159 -0.7874 -2.8516
  643MOL0     H84831   6.158   5.666   3.145 -0.2287  1.7598  1.4548
  643MOL0     H84832   6.166   5.466   3.378 -2.8492  5.0360  1.1894
  643MOL0     H84833   6.279   5.581   3.341 -0.2765  1.1845 -1.8938
  643MOL0     H84834   6.216   5.325   3.179  1.1267 -0.4953 -0.2383
  643MOL0     H84835   6.290   5.457   3.097 -1.5322 -4.4754 -1.1341
  643MOL0     H84836   6.391   5.299   3.338 -1.3774 -0.4072 -0.3950
  643MOL0     H84837   6.489   5.441   3.276  0.2956  0.2838 -0.7297
  643MOL0     H84838   6.700   5.304   3.008  0.1037 -2.7886 -1.0593
  643MOL0     H84839   6.918   5.285   3.103  1.3208 -2.3550  0.5621
  643MOL0     H84840   7.312   5.303   3.257 -0.5357 -0.1238 -2.8579
  643MOL0     H84841   7.540   5.213   3.268 -1.8630  1.8343 -1.8038
  643MOL0     H84842   7.725   4.797   3.290 -2.7947 -2.6411 -0.0594
  643MOL0     H84843   7.574   4.769   3.326  1.7018 -1.1797 -1.5043
  643MOL0     H84844   7.605   4.953   3.511  0.7109  1.3310  0.4595
  643MOL0     H84845   7.785   4.929   3.485 -0.4582  1.6909 -0.5598
  643MOL0     H84846   7.737   4.690   3.554  2.8755  1.7166 -1.6200
  643MOL0     H84847   7.561   4.737   3.581  0.8973 -0.1878  0.0893
  643MOL0     H84848   7.781   4.864   3.737  0.0522  0.6442 -1.3267
  643MOL0     H84849   7.610   4.888   3.755  0.0869  0.5236  1.9625
  643MOL0     H84850   7.701   4.746   3.924 -1.1533  0.8795 -0.6490
  643MOL0     H84851   7.769   4.631   3.807 -0.5240 -1.2186  0.8456
  643MOL0     H84852   7.534   4.564   3.746  0.9901  1.6270 -1.8048
  643MOL0     H84853   7.478   4.714   3.815  1.2096  0.1924 -2.6413
  643MOL0     H84854   7.599   4.471   3.947 -0.0504  0.3807  0.3721
  643MOL0     H84855   7.542   4.624   4.038 -1.3116 -0.3714  0.7917
  643MOL0     H84856   7.394   4.422   3.874  2.6826  0.1274  0.4853
  643MOL0     H84857   7.314   4.568   3.936 -1.3592 -0.7277 -3.4280
  643MOL0     H84858   7.382   4.815   3.235 -0.2509 -0.3306 -0.3169
  643MOL0     H84859   7.148   4.915   3.245 -0.7547  0.5711 -1.2086
  643MOL0     H84860   6.767   5.046   3.420  1.0299 -0.7645 -1.2130
  643MOL0     H84861   6.531   5.104   3.353 -0.7446  0.4625 -1.1380
  643MOL0     H84862   5.793   4.797   3.046 -1.9273  2.1988  1.6196
  643MOL0     H84863   5.880   4.736   2.819  0.3988 -0.1979  2.7304
  643MOL0     H84864   5.709   4.600   2.261  0.5655 -0.0302  1.6516
  643MOL0     H84865   5.770   4.678   2.032  0.8947 -3.0347  2.5076
  643MOL0     H84866   5.671   5.088   1.947 -1.7766 -0.4228  0.0312
  643MOL0     H84867   5.611   4.926   1.900  0.0770  0.5209 -1.0876
  643MOL0     H84868   5.815   5.076   1.742 -0.0886 -1.6614 -2.7883
  643MOL0     H84869   5.784   4.907   1.726 -0.0943  0.7227 -2.9079
  643MOL0     H84870   5.572   5.143   1.724  2.1748  1.7970 -1.5168
  643MOL0     H84871   5.528   4.974   1.704  1.1535 -2.3782  1.4581
  643MOL0     H84872   5.526   5.088   1.497  0.2076  0.0532 -1.6430
  643MOL0     H84873   5.714   5.111   1.518  2.4651 -3.5764 -1.5782
  643MOL0     H84874   5.751   4.728   1.402 -4.7552 -2.2422  0.2675
  643MOL0     H84875   5.806   5.071   2.172  0.5811 -2.2119 -2.6948
  643MOL0     H84876   5.777   4.983   2.425  1.8022 -1.9867 -0.0356
  644MOL0     O84877   7.296   0.097   7.399 -0.0906 -0.4816 -0.1939
  644MOL0     C84878   7.210   0.022   7.349  0.3938  0.2022  0.8322
  644MOL0     O84879   7.102   0.070   7.295  0.5525  0.2547  0.5826
  644MOL0     C84880   7.081   0.205   7.275 -0.5115  0.5565 -0.0794
  644MOL0     C84881   7.130   0.313   7.348 -0.0083 -0.4395 -0.1148
  644MOL0     C84882   7.087   0.448   7.325  0.0209  0.2384  0.6837
  644MOL0     C84883   7.010   0.476   7.209 -0.6517  0.4605  0.7292
  644MOL0     O84884   6.976   0.601   7.165 -0.0450 -0.3381 -0.3289
  644MOL0     C84885   6.985   0.707   7.264 -0.4502  0.6702 -0.6834
  644MOL0     C84886   6.975   0.843   7.201 -0.0694  0.6594  0.0931
  644MOL0     C84887   7.007   0.950   7.312 -0.2896 -0.3015  0.1329
  644MOL0     C84888   7.015   1.093   7.255 -0.4345  0.3710 -0.7656
  644MOL0     C84889   7.046   1.200   7.359 -0.2987  0.2122 -0.2568
  644MOL0     C84890   7.005   1.336   7.310 -0.6143  0.7548 -0.0461
  644MOL0     C84891   7.010   1.424   7.429 -0.5434  0.3166 -1.1914
  644MOL0     C84892   6.967   1.568   7.411 -0.6680  0.6467 -0.2910
  644MOL0     N84893   6.828   1.573   7.355  0.2383 -0.1843  0.4805
  644MOL0     C84894   6.706   1.524   7.401 -0.0342 -0.0562 -0.4550
  644MOL0     C84895   6.613   1.561   7.310 -0.2111 -0.8748  0.4931
  644MOL0     C84896   6.462   1.542   7.317  0.1918  0.2007 -0.0677
  644MOL0     C84897   6.415   1.400   7.306  0.5613  0.4963 -0.0709
  644MOL0     C84898   6.409   1.356   7.154 -0.3955  0.3429 -0.6054
  644MOL0     C84899   6.368   1.214   7.126  0.4932 -0.9864 -0.5782
  644MOL0     O84900   6.463   1.117   7.180 -0.2044 -0.2573 -0.3817
  644MOL0     C84901   6.565   1.088   7.091 -0.8668  0.5084  0.1243
  644MOL0     C84902   6.676   1.165   7.068  0.3490 -0.1064  0.7049
  644MOL0     C84903   6.793   1.129   7.003 -0.0297  0.5888  0.1531
  644MOL0     C84904   6.786   1.012   6.929  0.0930  0.2604  0.0380
  644MOL0     C84905   6.904   0.974   6.850 -1.7908  0.6024 -0.4524
  644MOL0     O84906   6.905   0.856   6.786 -0.7825 -0.9123  0.1125
  644MOL0     C84907   7.029   0.801   6.746 -0.0350 -0.8015  0.2017
  644MOL0     C84908   7.084   0.812   6.616  0.4891 -0.7030 -0.5476
  644MOL0     C84909   7.214   0.772   6.585  0.6713 -0.2014 -0.5665
  644MOL0     C84910   7.285   0.709   6.691  0.0325  0.0062  0.5663
  644MOL0     O84911   7.421   0.687   6.665  0.0537  0.3303  0.5472
  644MOL0     C84912   7.500   0.652   6.776 -0.3850 -0.4343 -0.5366
  644MOL0     C84913   7.639   0.615   6.711 -0.3887  0.7554  0.5497
  644MOL0     C84914   7.738   0.582   6.820  0.9482  0.4233  0.0472
  644MOL0     C84915   7.872   0.523   6.763 -0.1347 -0.1267  0.4816
  644MOL0     C84916   7.984   0.491   6.856 -0.3948 -0.4294  0.7385
  644MOL0     C84917   7.977   0.345   6.899  0.2630  0.1539 -0.5121
  644MOL0     C84918   8.109   0.296   6.965  0.0120  0.0250 -0.5666
  644MOL0     C84919   8.096   0.166   7.034 -0.4667 -0.5722 -0.3728
  644MOL0    Cl84920   8.082   0.026   6.928 -0.3220  0.2499  0.2390
  644MOL0     C84921   7.226   0.680   6.815  0.3264  0.4040 -0.4656
  644MOL0     C84922   7.090   0.721   6.840 -0.1043 -0.3096  0.0634
  644MOL0     O84923   6.998   1.059   6.860 -0.5666 -0.5457  0.0357
  644MOL0     C84924   6.667   0.933   6.928  0.0317  0.3362 -0.1655
  644MOL0     C84925   6.558   0.965   7.015 -0.9646 -0.2089  0.1207
  644MOL0     N84926   6.684   1.606   7.197  0.2657 -0.0780  0.1114
  644MOL0     N84927   6.812   1.618   7.229  0.4309  0.1316  0.4897
  644MOL0     C84928   6.976   0.367   7.128  0.9705  0.2144  0.0389
  644MOL0     C84929   7.010   0.233   7.155 -0.0351  0.1766 -0.7828
  644MOL0     C84930   7.233  -0.121   7.327 -0.8451  0.9018  0.1584
  644MOL0     C84931   7.369  -0.152   7.351 -0.6133 -0.8294  0.4973
  644MOL0     C84932   7.416  -0.283   7.321 -0.1184  0.1602  0.5425
  644MOL0     C84933   7.318  -0.383   7.287  0.4559 -1.1209 -0.3407
  644MOL0     O84934   7.348  -0.511   7.258 -0.7349  0.1100  0.0522
  644MOL0     C84935   7.412  -0.527   7.132 -0.7479  0.4207  0.2367
  644MOL0     C84936   7.426  -0.676   7.110 -0.0582  0.8342 -0.6633
  644MOL0     C84937   7.514  -0.718   6.991  0.2224  0.4243  0.6979
  644MOL0     C84938   7.473  -0.857   6.943 -0.2496  0.2247 -0.7777
  644MOL0     C84939   7.340  -0.858   6.873  0.1073 -0.1985 -0.9533
  644MOL0     C84940   7.244  -0.847   6.801 -0.3605  0.7991 -0.5279
  644MOL0     C84941   7.182  -0.345   7.284 -0.2514 -0.2806 -0.7077
  644MOL0     C84942   7.139  -0.215   7.303  0.6976  0.3907  0.6576
  644MOL0     H84943   7.198   0.295   7.431 -0.1073  0.4074  0.1544
  644MOL0     H84944   7.147   0.517   7.383 -0.7509 -1.3452  3.5481
  644MOL0     H84945   7.079   0.703   7.319  0.4609  0.5099 -2.1843
  644MOL0     H84946   6.894   0.689   7.321  1.4059  0.6639  2.5237
  644MOL0     H84947   6.878   0.859   7.153 -0.0346 -1.6254 -0.8578
  644MOL0     H84948   7.047   0.841   7.119  0.1161 -1.0363  0.2619
  644MOL0     H84949   7.105   0.935   7.358 -0.1903 -0.9419 -0.2798
  644MOL0     H84950   6.945   0.941   7.402  0.8845 -1.0082  0.8910
  644MOL0     H84951   7.094   1.100   7.180 -0.6977 -0.6536 -1.1668
  644MOL0     H84952   6.924   1.113   7.197 -3.1599 -0.5694  2.8616
  644MOL0     H84953   7.151   1.198   7.389 -0.7688  1.2927  1.6325
  644MOL0     H84954   6.982   1.173   7.444  0.7086  0.0839  0.4771
  644MOL0     H84955   6.901   1.336   7.278 -1.8097  0.0045  3.4446
  644MOL0     H84956   7.072   1.378   7.235  1.7995  1.0223  2.1196
  644MOL0     H84957   6.952   1.380   7.510  1.8906 -1.5273 -0.3388
  644MOL0     H84958   7.112   1.428   7.468 -1.1441  1.2397  0.4044
  644MOL0     H84959   7.039   1.616   7.344  2.2854  1.4777  3.1677
  644MOL0     H84960   6.973   1.632   7.500 -4.6682 -0.4064  0.9195
  644MOL0     H84961   6.689   1.472   7.495  1.2858  0.2869 -0.0077
  644MOL0     H84962   6.415   1.622   7.260  0.3168  2.4819  2.8202
  644MOL0     H84963   6.442   1.577   7.418  1.0893  0.5964 -0.0163
  644MOL0     H84964   6.308   1.407   7.328  0.3184 -0.7872 -0.7641
  644MOL0     H84965   6.458   1.330   7.377 -0.5190  0.0617  0.1640
  644MOL0     H84966   6.328   1.408   7.103 -1.3781 -0.7470 -0.1904
  644MOL0     H84967   6.506   1.377   7.108 -0.0699  1.6751  0.6335
  644MOL0     H84968   6.358   1.188   7.021  4.6319  2.2770 -2.0616
  644MOL0     H84969   6.274   1.202   7.182 -1.3607  0.2641 -3.2152
  644MOL0     H84970   6.683   1.262   7.117 -0.1720  1.9784 -2.9838
  644MOL0     H84971   6.867   1.208   6.996 -1.2431  1.6112 -2.3822
  644MOL0     H84972   7.033   0.877   6.545  0.1418  2.1691  2.1134
  644MOL0     H84973   7.260   0.802   6.491 -4.8767 -0.6375 -3.8472
  644MOL0     H84974   7.461   0.576   6.843 -1.9531 -0.0725 -1.0020
  644MOL0     H84975   7.516   0.739   6.841 -0.1975  0.3358 -1.5904
  644MOL0     H84976   7.668   0.688   6.635  1.4744 -0.6872 -0.1998
  644MOL0     H84977   7.612   0.527   6.652 -2.3717 -0.2069  2.7428
  644MOL0     H84978   7.685   0.509   6.882  2.2743 -1.3414 -0.8061
  644MOL0     H84979   7.762   0.661   6.892 -1.6930  0.3454  1.1293
  644MOL0     H84980   7.846   0.436   6.702 -1.1365  1.2003 -1.0473
  644MOL0     H84981   7.913   0.594   6.691 -1.1027 -0.4619 -0.4344
  644MOL0     H84982   7.985   0.562   6.939  1.0164 -0.0477  0.4308
  644MOL0     H84983   8.083   0.504   6.811  1.0174  2.3595  4.1139
  644MOL0     H84984   7.973   0.281   6.811  4.0657  0.4461 -1.0739
  644MOL0     H84985   7.903   0.345   6.980  1.2625  1.4615  0.4448
  644MOL0     H84986   8.199   0.285   6.904  0.7004 -3.2220  0.8092
  644MOL0     H84987   8.138   0.370   7.041  1.3277  0.0761 -1.0887
  644MOL0     H84988   8.006   0.169   7.095 -0.6933  1.2233 -0.7460
  644MOL0     H84989   8.183   0.152   7.100 -0.7608 -1.7609 -0.2244
  644MOL0     H84990   7.273   0.614   6.887 -1.8090 -1.7999 -0.9537
  644MOL0     H84991   7.036   0.688   6.928  2.5104 -3.0885  0.8027
  644MOL0     H84992   6.655   0.835   6.882  0.2062  0.2043  0.0660
  644MOL0     H84993   6.468   0.904   7.015 -0.6654 -0.6620 -0.0598
  644MOL0     H84994   6.912   0.396   7.045  0.8968  0.4642  0.1802
  644MOL0     H84995   6.969   0.149   7.101 -2.6037  0.6844  0.2172
  644MOL0     H84996   7.447  -0.082   7.378  1.4486 -2.9524  0.4052
  644MOL0     H84997   7.515  -0.324   7.338 -1.2043 -3.3981 -0.8205
  644MOL0     H84998   7.516  -0.493   7.131 -0.3314 -0.7909 -0.9290
  644MOL0     H84999   7.354  -0.475   7.057  0.0132  3.3632  1.5519
  644MOL0     H85000   7.470  -0.722   7.199  0.3021  0.7455 -0.8851
  644MOL0     H85001   7.320  -0.698   7.096 -0.5269  2.1466  0.6510
  644MOL0     H85002   7.620  -0.709   7.018  0.5508 -1.4827  0.1564
  644MOL0     H85003   7.509  -0.655   6.901  0.9633  1.2689  1.2299
  644MOL0     H85004   7.539  -0.896   6.864 -0.6083  2.7973 -2.4772
  644MOL0     H85005   7.483  -0.919   7.032  1.7806 -0.5740 -1.4899
  644MOL0     H85006   7.147  -0.853   6.754  0.7437 -1.8928 -2.7232
  644MOL0     H85007   7.108  -0.423   7.269 -0.1519 -0.2436 -1.4384
  644MOL0     H85008   7.033  -0.195   7.295  0.3694 -1.1306  0.9764
  645MOL0     O85009   6.425   0.760   2.803  0.4025  0.0716 -0.5914
  645MOL0     C85010   6.491   0.840   2.870  0.7017  0.2266 -0.1734
  645MOL0     O85011   6.460   0.889   3.000 -0.3747 -0.2968 -0.5885
  645MOL0     C85012   6.327   0.887   3.027 -0.2886 -0.6210 -0.7462
  645MOL0     C85013   6.257   0.771   3.048  1.3235  0.3442 -0.3305
  645MOL0     C85014   6.130   0.771   3.107  0.0458  0.1405 -0.0928
  645MOL0     C85015   6.070   0.892   3.142  0.2956 -0.0020 -0.1562
  645MOL0     O85016   5.942   0.901   3.199 -0.2434 -0.1642  0.5451
  645MOL0     C85017   5.837   0.854   3.116  0.0338  0.1583 -0.1334
  645MOL0     C85018   5.718   0.823   3.204 -0.1168  0.2551 -0.1860
  645MOL0     C85019   5.595   0.757   3.132 -0.6425  0.1918  0.0416
  645MOL0     C85020   5.480   0.760   3.231  1.4348  0.3478 -0.4641
  645MOL0     C85021   5.360   0.688   3.170 -0.1977  0.6877  0.7813
  645MOL0     C85022   5.244   0.680   3.272 -0.9062  0.3484 -0.2118
  645MOL0     C85023   5.165   0.818   3.267  0.1446 -0.3779 -0.7015
  645MOL0     C85024   5.071   0.825   3.391  0.5594 -0.2825 -0.3682
  645MOL0     N85025   4.993   0.953   3.389  0.5783 -0.3888  0.7548
  645MOL0     C85026   5.002   1.066   3.314 -0.3385 -0.0175  0.0519
  645MOL0     C85027   4.893   1.139   3.341  0.3845 -0.2705 -0.4189
  645MOL0     C85028   4.840   1.266   3.282  0.7967 -0.7040  0.0957
  645MOL0     C85029   4.764   1.248   3.150 -0.6407  0.2828  0.2879
  645MOL0     C85030   4.648   1.160   3.160  0.3524 -0.2974  0.1051
  645MOL0     C85031   4.549   1.202   3.268 -0.3264  0.3267  0.6109
  645MOL0     O85032   4.436   1.123   3.235  0.2191  0.3727 -0.3095
  645MOL0     C85033   4.414   1.005   3.307  0.5447  0.6084 -0.3401
  645MOL0     C85034   4.516   0.930   3.371  0.1882  0.0318 -0.2333
  645MOL0     C85035   4.491   0.813   3.439  0.1715 -0.3366 -0.6555
  645MOL0     C85036   4.362   0.755   3.443 -0.1817  0.4064 -0.6119
  645MOL0     C85037   4.330   0.643   3.531 -0.3153  0.1756 -0.9572
  645MOL0     O85038   4.195   0.605   3.543  0.1555 -0.4628 -0.2127
  645MOL0     C85039   4.171   0.516   3.644  0.0904  0.0978  0.8715
  645MOL0     C85040   4.196   0.555   3.776  1.2765 -0.1496  0.3595
  645MOL0     C85041   4.154   0.477   3.881  0.6330 -0.1806 -0.0696
  645MOL0     C85042   4.106   0.346   3.862  0.3249 -0.1735  0.2224
  645MOL0     O85043   4.041   0.278   3.964 -0.7653  0.0834 -0.1829
  645MOL0     C85044   4.068   0.307   4.104  0.2154 -0.0263  0.3298
  645MOL0     C85045   3.979   0.209   4.185 -0.0553 -0.8403  0.6902
  645MOL0     C85046   3.964   0.225   4.334  0.6129  0.2019  0.7808
  645MOL0     C85047   3.891   0.357   4.363 -0.0202  1.4733 -0.4974
  645MOL0     C85048   3.872   0.370   4.512  1.1499 -0.1050  0.9183
  645MOL0     C85049   3.829   0.508   4.545 -0.4360  0.6715  0.0537
  645MOL0     C85050   3.771   0.504   4.691 -0.2382  0.9078  0.5363
  645MOL0     C85051   3.747   0.645   4.723  0.5699 -1.2196 -0.0531
  645MOL0    Cl85052   3.651   0.668   4.868  0.5969  0.3950 -0.3976
  645MOL0     C85053   4.082   0.302   3.731  0.0006  0.3465  0.4955
  645MOL0     C85054   4.115   0.388   3.623  0.5694 -0.1825 -0.0852
  645MOL0     O85055   4.427   0.595   3.601 -0.6402  0.2025 -0.6013
  645MOL0     C85056   4.265   0.824   3.370  0.8475  0.0474 -0.5173
  645MOL0     C85057   4.284   0.946   3.304 -0.8699 -0.3003  0.6902
  645MOL0     N85058   4.819   1.078   3.447  0.3513 -0.3304  0.0970
  645MOL0     N85059   4.876   0.967   3.466 -0.8422  0.6234  0.2724
  645MOL0     C85060   6.147   1.013   3.120  0.9161 -0.5374  0.4209
  645MOL0     C85061   6.273   1.009   3.063  0.7786 -0.0970 -0.1412
  645MOL0     C85062   6.621   0.875   2.823 -0.0075  0.6495  0.1360
  645MOL0     C85063   6.732   0.917   2.907 -0.2493  0.3667 -0.9236
  645MOL0     C85064   6.849   0.959   2.856 -0.2116  0.0974  0.4968
  645MOL0     C85065   6.885   0.950   2.718 -0.4238 -0.8185 -0.1620
  645MOL0     O85066   7.012   0.997   2.688 -0.4414 -0.4919 -0.5445
  645MOL0     C85067   7.062   0.970   2.564 -1.0139  1.3988  0.0453
  645MOL0     C85068   7.224   0.976   2.552 -0.3581 -0.6488 -1.4306
  645MOL0     C85069   7.282   1.109   2.627  1.1889  1.1493  0.1331
  645MOL0     C85070   7.431   1.121   2.607  0.4999  0.2458 -0.5755
  645MOL0     C85071   7.478   1.251   2.674  0.5265  0.5684  0.7858
  645MOL0     C85072   7.522   1.340   2.750  0.0957  0.0559  0.7765
  645MOL0     C85073   6.787   0.893   2.644  0.1969  1.3340 -0.9763
  645MOL0     C85074   6.652   0.866   2.689 -0.3392  0.3601  0.4785
  645MOL0     H85075   6.297   0.680   3.005  0.8907  0.9625 -2.1745
  645MOL0     H85076   6.069   0.685   3.132 -2.1836  2.0271  1.4219
  645MOL0     H85077   5.864   0.753   3.082 -1.4858 -1.0514  2.0481
  645MOL0     H85078   5.818   0.932   3.042  2.5681  2.3115  1.2802
  645MOL0     H85079   5.689   0.919   3.247  2.6340  0.2007  2.1234
  645MOL0     H85080   5.758   0.757   3.282  2.2934 -0.3160 -1.8021
  645MOL0     H85081   5.619   0.655   3.103  2.7379  0.6451  0.8615
  645MOL0     H85082   5.563   0.814   3.044 -0.8937 -1.4057 -0.9335
  645MOL0     H85083   5.523   0.717   3.322 -0.3182  0.4046  0.4267
  645MOL0     H85084   5.442   0.859   3.258 -1.8330 -0.6591 -0.9043
  645MOL0     H85085   5.382   0.594   3.119 -1.7599  0.4346  0.5354
  645MOL0     H85086   5.317   0.743   3.086 -1.3240 -1.4001 -0.0765
  645MOL0     H85087   5.282   0.662   3.373 -0.2605 -3.5586 -0.9935
  645MOL0     H85088   5.172   0.603   3.244 -1.5161 -0.2563  2.7277
  645MOL0     H85089   5.228   0.906   3.277  0.9794 -1.2163  2.9138
  645MOL0     H85090   5.106   0.819   3.175 -0.0089 -0.7207 -0.6080
  645MOL0     H85091   5.117   0.788   3.483  4.3161 -1.8469 -2.5898
  645MOL0     H85092   4.990   0.756   3.365  0.3692 -0.4278  0.5837
  645MOL0     H85093   5.081   1.090   3.244  1.8916 -0.8059  2.1630
  645MOL0     H85094   4.924   1.332   3.261  1.1902 -1.4894 -0.8999
  645MOL0     H85095   4.767   1.314   3.347 -0.4522  0.6549 -2.1864
  645MOL0     H85096   4.830   1.196   3.080 -0.3323  0.2105  0.6314
  645MOL0     H85097   4.734   1.340   3.099 -3.4796 -2.1252 -2.9155
  645MOL0     H85098   4.598   1.168   3.062  3.9343  3.0667 -1.6972
  645MOL0     H85099   4.696   1.064   3.181  2.5396  0.3525 -1.5497
  645MOL0     H85100   4.517   1.307   3.268  0.2311  0.5236  1.9434
  645MOL0     H85101   4.594   1.175   3.364 -1.6365  1.0111  1.4495
  645MOL0     H85102   4.617   0.969   3.369  1.7661 -3.6813 -0.5856
  645MOL0     H85103   4.571   0.752   3.480  1.3533 -1.6710 -4.4301
  645MOL0     H85104   4.242   0.653   3.778  2.0887 -0.5337  2.2038
  645MOL0     H85105   4.150   0.514   3.983  0.7868 -1.1362  0.2928
  645MOL0     H85106   4.055   0.412   4.134  2.4944  0.4617 -0.2160
  645MOL0     H85107   4.166   0.281   4.144 -0.0764  1.5329  2.1918
  645MOL0     H85108   4.038   0.117   4.172  3.0123  1.3308 -2.5110
  645MOL0     H85109   3.880   0.200   4.141 -0.9393  1.2035  2.1169
  645MOL0     H85110   4.060   0.239   4.384  0.1340  1.2733  1.4220
  645MOL0     H85111   3.916   0.133   4.369  1.1294 -0.2479  0.3239
  645MOL0     H85112   3.947   0.444   4.329  1.6365  1.2629  1.5012
  645MOL0     H85113   3.793   0.366   4.314 -1.5205 -1.1862  1.6902
  645MOL0     H85114   3.968   0.367   4.563  1.3170  3.9135  1.1119
  645MOL0     H85115   3.805   0.297   4.558  1.7501 -0.5398  1.1130
  645MOL0     H85116   3.737   0.523   4.487 -1.3850 -1.6582  0.8695
  645MOL0     H85117   3.900   0.591   4.536 -1.5759  2.5353  5.0268
  645MOL0     H85118   3.684   0.439   4.681  2.0774 -2.4143  0.4098
  645MOL0     H85119   3.833   0.449   4.763 -0.6441 -2.4676 -1.4721
  645MOL0     H85120   3.696   0.702   4.645  2.2569 -0.7346 -0.8603
  645MOL0     H85121   3.841   0.699   4.710 -0.5207 -0.0986 -4.8731
  645MOL0     H85122   4.044   0.202   3.713  2.1932 -0.7222  1.4114
  645MOL0     H85123   4.119   0.345   3.523  1.6961  1.7096 -0.9077
  645MOL0     H85124   4.170   0.773   3.365  0.5218  0.5672  0.1745
  645MOL0     H85125   4.194   0.984   3.258 -0.8431  0.7182  1.4443
  645MOL0     H85126   6.090   1.102   3.146  1.1441  0.2294 -1.5471
  645MOL0     H85127   6.337   1.097   3.054  1.0923 -0.4754 -2.2518
  645MOL0     H85128   6.725   0.911   3.015 -1.1555  1.0827 -0.9241
  645MOL0     H85129   6.936   0.992   2.913  0.6138 -0.1339 -0.5797
  645MOL0     H85130   7.020   1.035   2.488 -0.9199  0.7747 -0.5500
  645MOL0     H85131   7.034   0.867   2.541 -0.8184  1.2635  0.4045
  645MOL0     H85132   7.267   0.887   2.600  0.7506  0.0175 -1.1317
  645MOL0     H85133   7.247   0.976   2.445 -1.4945 -1.4176 -1.6957
  645MOL0     H85134   7.245   1.109   2.730 -0.5034  2.0089 -0.4341
  645MOL0     H85135   7.232   1.191   2.574 -3.9127 -2.1213 -0.8110
  645MOL0     H85136   7.480   1.031   2.645  2.1359  0.3616 -2.2447
  645MOL0     H85137   7.462   1.122   2.502 -5.4378 -1.2125 -2.7429
  645MOL0     H85138   7.543   1.420   2.818  1.8805 -0.9859  1.5146
  645MOL0     H85139   6.807   0.883   2.538  1.3670  0.2235 -0.6598
  645MOL0     H85140   6.579   0.838   2.614  2.3180 -0.5820 -1.9495
  646MOL0     O85141   6.369   6.024   9.824  0.4247  0.8540 -0.4052
  646MOL0     C85142   6.269   6.066   9.887 -0.0977 -0.5725 -0.4449
  646MOL0     O85143   6.238   6.046  10.019  0.0680 -0.4428 -0.2322
  646MOL0     C85144   6.311   5.945  10.075 -0.0574  0.2382  0.0463
  646MOL0     C85145   6.399   5.982  10.178 -0.9998  0.4259  0.1083
  646MOL0     C85146   6.475   5.891  10.248 -0.0763 -0.8222  0.1790
  646MOL0     C85147   6.468   5.757  10.207 -0.5089  0.2841  0.4806
  646MOL0     O85148   6.555   5.666  10.260  0.2781 -0.2801 -0.9008
  646MOL0     C85149   6.507   5.608  10.374 -0.5991 -0.8804  0.4375
  646MOL0     C85150   6.525   5.456  10.375 -0.2634  0.1865  0.0692
  646MOL0     C85151   6.473   5.401  10.503 -0.9321 -0.2263 -0.2208
  646MOL0     C85152   6.464   5.243  10.497  0.4186  0.1228  0.2067
  646MOL0     C85153   6.608   5.173  10.469  0.2755 -0.5989 -0.2698
  646MOL0     C85154   6.626   5.021  10.504  0.1726 -0.7521  1.1756
  646MOL0     C85155   6.497   4.938  10.486  0.2915  0.7903  0.0316
  646MOL0     C85156   6.534   4.789  10.524 -0.6492 -0.7324  0.7793
  646MOL0     N85157   6.656   4.740  10.463 -0.5776  0.2730 -0.7159
  646MOL0     C85158   6.768   4.759  10.518 -1.1650  0.9370 -0.0125
  646MOL0     C85159   6.857   4.675  10.457 -1.0116  0.0911 -0.3369
  646MOL0     C85160   7.001   4.645  10.479 -0.5831  0.4468 -0.4507
  646MOL0     C85161   7.083   4.770  10.443  0.9038  1.0150 -0.1704
  646MOL0     C85162   7.229   4.723  10.415 -0.4414  0.4707  1.1487
  646MOL0     C85163   7.307   4.663  10.519 -0.1730 -0.3017 -0.3100
  646MOL0     O85164   7.446   4.665  10.478  0.3516  0.5603  0.1832
  646MOL0     C85165   7.532   4.629  10.573  0.0487 -0.3869  0.8124
  646MOL0     C85166   7.509   4.513  10.645  1.0569  1.2678  0.2397
  646MOL0     C85167   7.607   4.466  10.733 -1.0965  0.6208 -0.2984
  646MOL0     C85168   7.739   4.536  10.735 -0.4382  0.0060 -0.2265
  646MOL0     C85169   7.844   4.495  10.829  0.1227  0.1506  0.1268
  646MOL0     O85170   7.802   4.391  10.913 -0.2646 -0.5632 -0.7623
  646MOL0     C85171   7.887   4.328  10.998 -1.1692 -0.2268  0.2396
  646MOL0     C85172   7.968   4.400  11.082 -0.0620 -0.1867 -0.3372
  646MOL0     C85173   8.046   4.327  11.180 -0.8544 -0.6931  0.1464
  646MOL0     C85174   8.051   4.182  11.190  0.3332  0.1230  0.6023
  646MOL0     O85175   8.148   4.129  11.275 -0.0175  0.4288 -0.9954
  646MOL0     C85176   8.107   4.014  11.349 -0.3994 -0.4590 -0.1315
  646MOL0     C85177   8.220   3.949  11.422 -0.4317 -0.4188  0.6257
  646MOL0     C85178   8.179   3.813  11.474 -0.5196  0.8198  0.1134
  646MOL0     C85179   8.299   3.757  11.554  0.5661 -0.6667  0.4459
  646MOL0     C85180   8.257   3.618  11.612 -0.3591 -0.0174 -0.6552
  646MOL0     C85181   8.387   3.540  11.621  0.1826  0.2527  0.3225
  646MOL0     C85182   8.457   3.564  11.756  0.7837  0.0137  0.3683
  646MOL0     C85183   8.604   3.529  11.738 -0.3524 -0.3271  0.2150
  646MOL0    Cl85184   8.614   3.367  11.665  0.0676  0.0166  0.4025
  646MOL0     C85185   7.935   4.122  11.124  0.2715  0.1659  0.7960
  646MOL0     C85186   7.857   4.191  11.042 -0.1159 -1.1273 -0.4744
  646MOL0     O85187   7.954   4.547  10.825 -0.1944 -0.2532  0.1255
  646MOL0     C85188   7.768   4.643  10.649 -0.7048  0.6820 -0.0437
  646MOL0     C85189   7.661   4.678  10.571 -0.0654 -0.4653 -0.0790
  646MOL0     N85190   6.786   4.610  10.358  0.1556  0.3249  0.1424
  646MOL0     N85191   6.663   4.636  10.368  0.2995  0.6594 -0.2263
  646MOL0     C85192   6.387   5.714  10.091 -0.4244 -0.6141 -1.2101
  646MOL0     C85193   6.297   5.813  10.043  0.2073  0.2109  0.2959
  646MOL0     C85194   6.166   6.152   9.820 -0.3613 -0.5187 -0.0924
  646MOL0     C85195   6.052   6.198   9.888 -0.1337  0.3631 -0.3518
  646MOL0     C85196   5.950   6.267   9.830 -0.2436  0.5972  0.4544
  646MOL0     C85197   5.964   6.313   9.698 -0.7252  0.0237  0.2997
  646MOL0     O85198   5.864   6.383   9.639  0.5560 -0.0254  0.8155
  646MOL0     C85199   5.875   6.418   9.503 -0.1990 -0.6057 -0.4909
  646MOL0     C85200   5.750   6.474   9.448  0.1668 -0.3271  0.2784
  646MOL0     C85201   5.626   6.383   9.437 -0.3366  0.2416 -0.7339
  646MOL0     C85202   5.521   6.441   9.337  0.3588 -0.3740 -0.2269
  646MOL0     C85203   5.577   6.422   9.200 -0.6090 -0.2094  0.0265
  646MOL0     C85204   5.628   6.418   9.087 -0.3879  0.2339  0.5736
  646MOL0     C85205   6.077   6.261   9.624  0.0795 -0.0764 -0.4808
  646MOL0     C85206   6.177   6.183   9.688 -0.3840 -0.0305  0.5370
  646MOL0     H85207   6.410   6.087  10.201  2.8379 -0.2177  2.0327
  646MOL0     H85208   6.546   5.938  10.315 -2.1799  2.6857  0.2304
  646MOL0     H85209   6.400   5.623  10.391 -0.4871 -1.3366  1.7053
  646MOL0     H85210   6.556   5.657  10.459 -0.4178  0.2115 -0.2746
  646MOL0     H85211   6.631   5.438  10.359 -0.1950 -1.6465  2.1016
  646MOL0     H85212   6.463   5.424  10.291  0.1779 -0.3602 -0.0558
  646MOL0     H85213   6.376   5.442  10.532 -1.1324 -0.8369 -0.0085
  646MOL0     H85214   6.548   5.424  10.579 -0.5841 -1.1114 -0.2869
  646MOL0     H85215   6.422   5.211  10.593 -1.3322  0.7615 -0.3215
  646MOL0     H85216   6.391   5.209  10.424 -3.5259  1.5906  3.1303
  646MOL0     H85217   6.683   5.238  10.514 -1.9920  2.8712 -1.1704
  646MOL0     H85218   6.630   5.197  10.364 -2.0193  0.9026 -0.4723
  646MOL0     H85219   6.654   5.002  10.609  3.1835 -3.4380  0.0520
  646MOL0     H85220   6.706   4.986  10.438 -0.2989 -0.6748  0.5577
  646MOL0     H85221   6.410   4.977  10.540  0.4247  1.0399  0.0662
  646MOL0     H85222   6.471   4.941  10.380  4.2067 -0.2281 -1.1136
  646MOL0     H85223   6.451   4.722  10.497  0.7374 -1.4421 -2.1290
  646MOL0     H85224   6.542   4.800  10.633 -4.0292  2.1903  0.9199
  646MOL0     H85225   6.785   4.826  10.602  3.3760  0.0242  0.0444
  646MOL0     H85226   7.024   4.549  10.432 -3.2597 -0.0714 -0.8865
  646MOL0     H85227   7.002   4.621  10.586 -2.2651  0.5864 -0.3758
  646MOL0     H85228   7.071   4.840  10.526  1.2045  0.3339  0.4490
  646MOL0     H85229   7.049   4.815  10.348  2.0031  1.4339 -0.3809
  646MOL0     H85230   7.206   4.645  10.342 -0.6158  0.1915  1.4981
  646MOL0     H85231   7.290   4.801  10.368 -2.5426  0.9787 -0.9339
  646MOL0     H85232   7.262   4.568  10.550 -3.4822  1.3656  0.4956
  646MOL0     H85233   7.292   4.721  10.610 -0.4246 -0.6035 -0.1583
  646MOL0     H85234   7.415   4.459  10.639  1.0408  1.4509 -4.0655
  646MOL0     H85235   7.611   4.361  10.759 -0.1760  0.7412  0.0861
  646MOL0     H85236   7.959   4.506  11.063  0.6048  0.0784  0.7159
  646MOL0     H85237   8.095   4.393  11.251 -2.9432  2.1316 -0.8640
  646MOL0     H85238   8.055   3.945  11.282  1.3234 -3.8544  1.7343
  646MOL0     H85239   8.035   4.058  11.419  1.2097  3.9722 -0.9543
  646MOL0     H85240   8.240   4.028  11.494  0.5748  1.2792 -1.4286
  646MOL0     H85241   8.314   3.950  11.366  0.2778  0.3099  1.7930
  646MOL0     H85242   8.152   3.745  11.393 -5.4277  2.8997 -0.4124
  646MOL0     H85243   8.084   3.819  11.529 -2.5836 -0.5923 -2.9932
  646MOL0     H85244   8.381   3.743  11.483 -0.3630 -0.8665 -0.6286
  646MOL0     H85245   8.336   3.821  11.634 -1.3049  0.7393  0.2620
  646MOL0     H85246   8.197   3.567  11.536 -0.5846 -0.3249 -0.2684
  646MOL0     H85247   8.199   3.634  11.703 -3.4702  0.3752 -2.5458
  646MOL0     H85248   8.454   3.559  11.536 -0.6936 -2.7007 -1.2021
  646MOL0     H85249   8.360   3.434  11.613  1.7617 -0.0446 -2.0612
  646MOL0     H85250   8.452   3.668  11.792  3.6646  0.4633 -0.3375
  646MOL0     H85251   8.413   3.498  11.831  1.6675 -1.6558 -0.5378
  646MOL0     H85252   8.664   3.530  11.829 -0.8529  1.8604  0.5837
  646MOL0     H85253   8.645   3.600  11.666 -3.6385 -0.0475 -1.5995
  646MOL0     H85254   7.918   4.015  11.122  1.2173 -0.0048 -1.3036
  646MOL0     H85255   7.773   4.138  10.998 -0.0702  0.2054 -2.3032
  646MOL0     H85256   7.859   4.702  10.642 -0.3479 -0.0676 -3.6843
  646MOL0     H85257   7.667   4.760  10.501 -0.4272 -2.1052 -2.1422
  646MOL0     H85258   6.395   5.609  10.062  0.3542 -0.6558 -0.8719
  646MOL0     H85259   6.227   5.801   9.961  2.4305  2.4119 -2.1118
  646MOL0     H85260   6.027   6.168   9.989 -0.3591  3.0471  0.4516
  646MOL0     H85261   5.863   6.291   9.890  0.2554 -0.4525  1.6275
  646MOL0     H85262   5.897   6.328   9.445  0.8214 -0.9612  0.4295
  646MOL0     H85263   5.952   6.495   9.495 -2.7409  2.3913  1.3059
  646MOL0     H85264   5.740   6.557   9.519  0.8603  1.7308 -1.8916
  646MOL0     H85265   5.779   6.519   9.353 -0.3285  2.8759  1.4892
  646MOL0     H85266   5.580   6.381   9.536 -2.4280  1.1557 -1.6326
  646MOL0     H85267   5.656   6.281   9.412  1.8260 -0.1284  2.7135
  646MOL0     H85268   5.422   6.393   9.338  0.7281 -1.1765  0.9816
  646MOL0     H85269   5.508   6.546   9.362  1.2688  0.0171 -1.3212
  646MOL0     H85270   5.677   6.391   8.996 -2.3124 -0.2505 -0.3501
  646MOL0     H85271   6.109   6.287   9.524  1.8602  1.4034  0.4031
  646MOL0     H85272   6.259   6.146   9.627 -0.0047  1.5776  0.0062
  647MOL0     O85273   5.040   1.969   1.954  0.3339  0.5173 -0.2925
  647MOL0     C85274   5.058   2.093   1.941 -0.9892  0.2700 -0.5612
  647MOL0     O85275   5.023   2.184   2.030 -0.5021  0.1235  0.6116
  647MOL0     C85276   4.939   2.143   2.130  0.5073  0.9978 -0.2051
  647MOL0     C85277   4.997   2.069   2.229  0.1973  0.7350 -0.4192
  647MOL0     C85278   4.924   2.035   2.337  0.1574 -0.1648 -0.8625
  647MOL0     C85279   4.799   2.088   2.360  1.0723  0.5498  0.4370
  647MOL0     O85280   4.738   2.035   2.477  0.3645  0.5067 -0.2381
  647MOL0     C85281   4.600   2.048   2.504 -0.0763 -0.5672 -0.0872
  647MOL0     C85282   4.527   1.920   2.450  0.3048 -0.2501  0.1462
  647MOL0     C85283   4.579   1.861   2.315 -0.1663  0.0561  0.3292
  647MOL0     C85284   4.494   1.735   2.284 -0.2525  1.0428 -0.3395
  647MOL0     C85285   4.535   1.682   2.151  0.7155 -0.6866  0.8342
  647MOL0     C85286   4.439   1.580   2.094  0.1360  0.1581 -0.6054
  647MOL0     C85287   4.458   1.546   1.942  0.3366  0.6743 -0.0978
  647MOL0     C85288   4.428   1.676   1.866  0.5816 -0.4532  0.6141
  647MOL0     N85289   4.403   1.659   1.718 -0.2201 -0.0879 -0.8276
  647MOL0     C85290   4.452   1.571   1.635  0.1843  0.6414  0.8729
  647MOL0     C85291   4.427   1.614   1.509 -1.1553  0.2237  0.3390
  647MOL0     C85292   4.459   1.530   1.389 -0.4242 -0.4357  0.4166
  647MOL0     C85293   4.341   1.443   1.354 -1.0187 -0.1525  0.3554
  647MOL0     C85294   4.364   1.365   1.232 -0.5656  0.4345 -0.3909
  647MOL0     C85295   4.486   1.269   1.232  0.4475 -0.4445  0.4415
  647MOL0     O85296   4.496   1.211   1.108 -0.9228  0.1249  0.6771
  647MOL0     C85297   4.529   1.076   1.109 -0.5632  0.8061  0.1054
  647MOL0     C85298   4.425   0.985   1.121 -0.5327 -0.0491  0.5216
  647MOL0     C85299   4.446   0.844   1.118 -0.5104  0.5376 -0.2398
  647MOL0     C85300   4.575   0.807   1.096 -0.4288  0.8049 -0.1479
  647MOL0     C85301   4.606   0.659   1.097  0.2591 -0.2986  0.2800
  647MOL0     O85302   4.499   0.572   1.097  0.5802 -0.0423  0.1485
  647MOL0     C85303   4.524   0.437   1.095 -0.0116 -0.6354  1.1652
  647MOL0     C85304   4.463   0.355   1.195 -0.2601 -1.1660 -0.4797
  647MOL0     C85305   4.493   0.222   1.214 -0.5442 -0.3149  0.0904
  647MOL0     C85306   4.584   0.163   1.122  0.4946 -0.1447 -0.2065
  647MOL0     O85307   4.634   0.036   1.142 -0.0429  0.5942 -0.5393
  647MOL0     C85308   4.544  -0.053   1.212  0.0502 -0.1692 -0.3340
  647MOL0     C85309   4.581  -0.203   1.192 -0.3099  0.7723 -0.0739
  647MOL0     C85310   4.516  -0.302   1.286  1.0918  0.0205 -0.5168
  647MOL0     C85311   4.599  -0.422   1.293  0.9349 -1.0989 -0.5883
  647MOL0     C85312   4.531  -0.535   1.366 -0.4356  0.8891  0.5693
  647MOL0     C85313   4.466  -0.501   1.508 -0.7885  0.1845 -0.3079
  647MOL0     C85314   4.570  -0.461   1.605  0.2814 -0.6080 -0.5062
  647MOL0     C85315   4.515  -0.446   1.743 -0.5649 -0.5038  0.0496
  647MOL0    Cl85316   4.625  -0.370   1.856  0.3959  0.3588  0.0811
  647MOL0     C85317   4.628   0.223   1.009  0.2728 -0.3937  0.3259
  647MOL0     C85318   4.605   0.368   1.002 -1.0181  0.5238  0.0235
  647MOL0     O85319   4.728   0.621   1.105  0.4029  0.0942 -0.0365
  647MOL0     C85320   4.691   0.893   1.086 -0.5882 -0.4841 -0.4991
  647MOL0     C85321   4.662   1.030   1.092  0.0611  0.1915 -0.1071
  647MOL0     N85322   4.344   1.724   1.522 -0.7400 -0.9640 -0.4561
  647MOL0     N85323   4.342   1.760   1.650 -0.0819  0.0972  0.4187
  647MOL0     C85324   4.744   2.164   2.254  1.3736 -0.3483  0.3566
  647MOL0     C85325   4.812   2.189   2.132  0.0563 -0.4947 -0.0897
  647MOL0     C85326   5.144   2.144   1.835 -0.7029  0.7143  0.2862
  647MOL0     C85327   5.182   2.281   1.831  0.5359 -0.8268  0.3226
  647MOL0     C85328   5.244   2.334   1.719 -0.0796  0.4268  0.2584
  647MOL0     C85329   5.286   2.247   1.621 -0.1788  0.7746 -0.2666
  647MOL0     O85330   5.347   2.307   1.511  0.1614  0.2158  0.1881
  647MOL0     C85331   5.410   2.234   1.407 -0.0950  0.7291  0.1112
  647MOL0     C85332   5.473   2.336   1.313 -0.3682  0.1520 -0.5713
  647MOL0     C85333   5.597   2.425   1.347 -0.5580 -0.4217  1.4121
  647MOL0     C85334   5.640   2.460   1.486 -0.1661 -0.6359 -0.5324
  647MOL0     C85335   5.687   2.346   1.573  0.2167 -0.0825  0.4470
  647MOL0     C85336   5.735   2.256   1.643 -0.0355 -0.1059 -0.6564
  647MOL0     C85337   5.275   2.104   1.634 -0.1345  0.0919  0.2621
  647MOL0     C85338   5.194   2.053   1.736  0.2350 -0.6591  0.4776
  647MOL0     H85339   5.100   2.034   2.220  0.0432  0.0783  0.3036
  647MOL0     H85340   4.971   1.971   2.411 -0.0370  0.5964 -0.0599
  647MOL0     H85341   4.553   2.135   2.457  1.2047 -0.0521 -0.4574
  647MOL0     H85342   4.590   2.065   2.612 -0.3931 -1.2562 -0.0021
  647MOL0     H85343   4.426   1.954   2.428 -0.3009 -2.5807 -0.9283
  647MOL0     H85344   4.521   1.841   2.526 -3.3860  1.3156  1.7101
  647MOL0     H85345   4.686   1.843   2.326  0.5548  1.9638 -2.5818
  647MOL0     H85346   4.568   1.928   2.229  0.7236  1.7747  1.4929
  647MOL0     H85347   4.506   1.662   2.364  2.6266  0.9249 -0.7649
  647MOL0     H85348   4.391   1.771   2.275 -2.0395 -3.3519  0.1040
  647MOL0     H85349   4.633   1.633   2.158 -0.6206 -3.5788  0.9736
  647MOL0     H85350   4.534   1.771   2.087 -1.4369  0.1276  1.9142
  647MOL0     H85351   4.336   1.610   2.119  0.8090  1.6759  0.5584
  647MOL0     H85352   4.452   1.486   2.148  0.7287  0.6104  0.0696
  647MOL0     H85353   4.555   1.501   1.918 -1.2331 -3.3155  0.2319
  647MOL0     H85354   4.382   1.469   1.924  0.6550  0.4301 -0.4209
  647MOL0     H85355   4.498   1.757   1.892 -1.7135  1.0634  2.4135
  647MOL0     H85356   4.341   1.721   1.913  1.4674 -0.0672  1.9395
  647MOL0     H85357   4.496   1.473   1.649  0.7517  0.3429 -2.2513
  647MOL0     H85358   4.553   1.478   1.408  1.1195  1.6005 -1.1158
  647MOL0     H85359   4.484   1.589   1.300  2.7938 -2.8027 -0.4118
  647MOL0     H85360   4.257   1.511   1.337 -0.5781  0.0997 -0.9935
  647MOL0     H85361   4.329   1.372   1.436 -1.2364 -1.0461 -0.4281
  647MOL0     H85362   4.276   1.303   1.214 -0.3451 -0.0877  0.2987
  647MOL0     H85363   4.364   1.427   1.141 -0.7954  0.7024 -0.2078
  647MOL0     H85364   4.469   1.206   1.320 -0.0751  0.2496  0.8471
  647MOL0     H85365   4.578   1.328   1.234  1.1074 -1.1989 -2.5499
  647MOL0     H85366   4.328   1.032   1.131 -0.9351 -0.5238 -0.8798
  647MOL0     H85367   4.369   0.770   1.099  1.2253 -2.0920  2.1519
  647MOL0     H85368   4.391   0.416   1.250 -0.6370 -3.4628  1.7819
  647MOL0     H85369   4.456   0.169   1.301 -0.3981  2.2642  1.8129
  647MOL0     H85370   4.437  -0.039   1.196 -1.4667 -4.1888  4.1566
  647MOL0     H85371   4.566  -0.031   1.317  0.6786  0.0864 -0.5173
  647MOL0     H85372   4.690  -0.203   1.200 -0.4244  0.3740  1.8823
  647MOL0     H85373   4.559  -0.243   1.093 -1.1378  0.7462  0.1181
  647MOL0     H85374   4.413  -0.311   1.252  0.8079 -0.3014  0.3991
  647MOL0     H85375   4.505  -0.262   1.387 -3.6409  0.9873 -1.1984
  647MOL0     H85376   4.630  -0.454   1.193 -0.6283  1.8885 -2.1499
  647MOL0     H85377   4.695  -0.404   1.342  2.1361 -1.7026 -2.5943
  647MOL0     H85378   4.599  -0.620   1.360 -1.1545  0.3988 -1.7639
  647MOL0     H85379   4.447  -0.561   1.301 -0.1952 -2.6201  1.4589
  647MOL0     H85380   4.419  -0.596   1.534  3.3223 -1.5404  1.6664
  647MOL0     H85381   4.394  -0.420   1.492 -1.7358 -0.7139 -0.7589
  647MOL0     H85382   4.645  -0.540   1.596  1.4120  0.4098 -0.2754
  647MOL0     H85383   4.621  -0.371   1.571  2.3701 -0.7747  1.8804
  647MOL0     H85384   4.478  -0.544   1.774 -2.6958  0.2329 -0.0008
  647MOL0     H85385   4.424  -0.386   1.748  0.1190  0.4650  2.5172
  647MOL0     H85386   4.690   0.175   0.934 -0.2897 -0.9892  0.2340
  647MOL0     H85387   4.644   0.428   0.920  0.7775 -0.8013 -0.1779
  647MOL0     H85388   4.793   0.854   1.082 -1.3467 -2.5585 -0.9188
  647MOL0     H85389   4.745   1.099   1.093  1.4674 -1.4230  1.4750
  647MOL0     H85390   4.643   2.201   2.270  1.4062 -0.3572  0.5831
  647MOL0     H85391   4.768   2.251   2.054  0.4780 -2.9183 -2.4144
  647MOL0     H85392   5.154   2.341   1.916  2.0041  1.2265 -0.5679
  647MOL0     H85393   5.244   2.441   1.700 -1.1117  0.2426 -0.9291
  647MOL0     H85394   5.333   2.168   1.366 -0.4863 -0.5840  2.7261
  647MOL0     H85395   5.487   2.175   1.457 -0.7992 -1.4580 -1.2598
  647MOL0     H85396   5.497   2.287   1.218  0.5151 -1.2243  0.3208
  647MOL0     H85397   5.391   2.406   1.293  0.4752  0.8044 -1.8393
  647MOL0     H85398   5.585   2.520   1.294 -0.7223 -0.0715  2.0605
  647MOL0     H85399   5.679   2.371   1.299 -2.8598 -1.3800 -1.8076
  647MOL0     H85400   5.719   2.535   1.479  1.4267 -2.3940 -3.0153
  647MOL0     H85401   5.553   2.495   1.542 -1.9050 -1.6484 -2.4552
  647MOL0     H85402   5.778   2.184   1.711 -0.0459  0.2149 -0.3116
  647MOL0     H85403   5.321   2.034   1.566 -0.9100  1.7237 -2.0390
  647MOL0     H85404   5.180   1.947   1.751  0.4008 -0.4952  1.9106
  648MOL0     O85405   1.371   2.440   3.992 -0.1440  0.0578  0.1613
  648MOL0     C85406   1.402   2.526   4.066 -0.3538  1.1055 -0.5772
  648MOL0     O85407   1.400   2.659   4.042 -1.4752 -0.1043  0.4930
  648MOL0     C85408   1.389   2.698   3.909  0.9910 -0.8305  0.8290
  648MOL0     C85409   1.489   2.662   3.810 -0.0641 -0.3918 -1.0739
  648MOL0     C85410   1.486   2.715   3.686  0.2375 -0.9459 -0.3217
  648MOL0     C85411   1.381   2.797   3.640  0.2739 -0.3688  0.9908
  648MOL0     O85412   1.396   2.853   3.519 -0.7774  0.6306 -0.2791
  648MOL0     C85413   1.309   2.965   3.483 -0.3025  0.1277  0.3654
  648MOL0     C85414   1.343   3.011   3.340  0.3976  0.2330  0.3625
  648MOL0     C85415   1.262   3.128   3.286  0.9155 -0.2861 -0.0720
  648MOL0     C85416   1.282   3.265   3.330  0.2877 -0.3631 -0.7193
  648MOL0     C85417   1.196   3.380   3.269  0.1983  0.4501 -0.6900
  648MOL0     C85418   1.230   3.531   3.318  0.1181 -0.4185 -0.6862
  648MOL0     C85419   1.165   3.642   3.241 -0.2643 -0.2590  0.4335
  648MOL0     C85420   1.037   3.699   3.309  0.1407 -0.6397 -0.5558
  648MOL0     N85421   0.929   3.597   3.323  0.4644 -0.0051 -0.2543
  648MOL0     C85422   0.837   3.572   3.219  0.3708  1.0259 -0.7321
  648MOL0     C85423   0.759   3.474   3.265  0.1984  0.8446 -0.0701
  648MOL0     C85424   0.642   3.448   3.173 -0.0136  0.1031  0.1443
  648MOL0     C85425   0.657   3.305   3.122 -0.7821  0.5336 -0.6574
  648MOL0     C85426   0.542   3.270   3.035  0.4036  0.1437 -1.1251
  648MOL0     C85427   0.546   3.138   2.965  0.8633  0.9391  0.5499
  648MOL0     O85428   0.645   3.139   2.865 -0.0386  0.1053  0.6778
  648MOL0     C85429   0.684   3.023   2.810  0.0027 -0.4263  0.2982
  648MOL0     C85430   0.630   2.890   2.842 -0.8736 -0.2754  0.7729
  648MOL0     C85431   0.681   2.775   2.777  0.5140  0.3436 -0.3448
  648MOL0     C85432   0.794   2.789   2.698 -0.3975  0.9752 -0.3559
  648MOL0     C85433   0.856   2.670   2.638  0.2560  1.4756  0.2213
  648MOL0     O85434   0.791   2.555   2.655  0.5540 -0.7148  0.5691
  648MOL0     C85435   0.853   2.442   2.618  0.2744  0.3561 -0.1848
  648MOL0     C85436   0.888   2.350   2.712 -1.0964 -0.7321 -0.8972
  648MOL0     C85437   0.924   2.216   2.680  0.2840 -0.4203  0.7878
  648MOL0     C85438   0.942   2.177   2.543  0.4352 -0.9070  0.8367
  648MOL0     O85439   0.974   2.048   2.502 -0.9064 -0.1407  0.2079
  648MOL0     C85440   1.080   1.974   2.573 -0.5860 -0.2837 -0.4170
  648MOL0     C85441   1.155   1.886   2.476 -1.2172 -0.5073 -0.2642
  648MOL0     C85442   1.253   1.784   2.546  0.6038 -0.2794 -0.1409
  648MOL0     C85443   1.352   1.738   2.442  0.8439 -0.3499 -0.0082
  648MOL0     C85444   1.450   1.642   2.497  0.0706  0.2595  0.3519
  648MOL0     C85445   1.440   1.593   2.638  1.2856  1.1036 -0.2271
  648MOL0     C85446   1.560   1.508   2.669 -0.0049 -0.6276  0.1180
  648MOL0     C85447   1.678   1.602   2.710  0.1799  0.1970  0.0198
  648MOL0    Cl85448   1.647   1.698   2.862  0.2193 -0.1020 -0.0664
  648MOL0     C85449   0.912   2.280   2.450 -0.7499 -0.1610  0.3489
  648MOL0     C85450   0.867   2.410   2.479  0.5830 -0.0675 -0.6130
  648MOL0     O85451   0.964   2.686   2.572  0.3086  0.3572  1.5638
  648MOL0     C85452   0.850   2.915   2.663  0.3194  0.1123  0.1712
  648MOL0     C85453   0.791   3.029   2.720  0.7406 -0.3738 -0.2310
  648MOL0     N85454   0.810   3.430   3.390 -0.6451 -0.1775  0.1591
  648MOL0     N85455   0.910   3.503   3.418 -0.3375 -0.6861  0.0413
  648MOL0     C85456   1.276   2.831   3.731  0.4717  0.5611 -0.3078
  648MOL0     C85457   1.285   2.787   3.863 -0.3624  0.1979 -0.2157
  648MOL0     C85458   1.460   2.482   4.192  0.1028  0.0700 -0.4240
  648MOL0     C85459   1.466   2.567   4.314  0.1830  0.8275 -0.6491
  648MOL0     C85460   1.500   2.510   4.434 -0.0066 -0.4094  0.1370
  648MOL0     C85461   1.556   2.378   4.439  0.6714  0.4577  0.1215
  648MOL0     O85462   1.607   2.319   4.553  0.5037 -0.2069  0.8624
  648MOL0     C85463   1.607   2.385   4.682 -0.5555 -0.5255 -0.4693
  648MOL0     C85464   1.699   2.326   4.784 -0.4623 -0.3008  0.4060
  648MOL0     C85465   1.720   2.415   4.908 -0.1493 -0.0313 -0.0204
  648MOL0     C85466   1.806   2.333   5.011 -0.1279 -0.2079  0.5611
  648MOL0     C85467   1.734   2.233   5.092  0.9203  0.3975 -0.3952
  648MOL0     C85468   1.678   2.151   5.161 -0.5233 -0.3920 -0.3870
  648MOL0     C85469   1.569   2.309   4.318 -0.3198  0.8777 -0.0793
  648MOL0     C85470   1.525   2.361   4.196  0.4193  0.2427  0.3396
  648MOL0     H85471   1.580   2.611   3.841 -1.0465 -1.3936  0.2358
  648MOL0     H85472   1.576   2.717   3.625  1.0808  1.5731  0.8460
  648MOL0     H85473   1.321   3.049   3.551  2.4635 -2.0504  2.8236
  648MOL0     H85474   1.205   2.930   3.487  0.1338 -1.1006  2.0707
  648MOL0     H85475   1.324   2.928   3.272  1.8605  0.9183 -0.9449
  648MOL0     H85476   1.449   3.036   3.336  0.4507 -0.1211 -0.9948
  648MOL0     H85477   1.156   3.104   3.304  0.8810 -0.7528 -0.8800
  648MOL0     H85478   1.280   3.132   3.178  1.3955  2.1117  0.0362
  648MOL0     H85479   1.268   3.271   3.438  0.7552 -0.6160 -0.6414
  648MOL0     H85480   1.386   3.289   3.305  0.8602 -2.5145 -0.5979
  648MOL0     H85481   1.089   3.360   3.275  0.6181 -2.0446 -0.5879
  648MOL0     H85482   1.197   3.371   3.160 -1.3630  2.1819 -0.8982
  648MOL0     H85483   1.336   3.551   3.301  0.0953  2.1318  1.5398
  648MOL0     H85484   1.206   3.535   3.425 -0.9112 -2.0475 -0.8089
  648MOL0     H85485   1.238   3.722   3.225 -2.2423  2.2691  2.8029
  648MOL0     H85486   1.133   3.609   3.142 -0.5017  1.0607  0.0537
  648MOL0     H85487   0.998   3.777   3.244  3.1865  2.3561  0.8929
  648MOL0     H85488   1.059   3.750   3.404 -2.1960 -1.6240  0.6021
  648MOL0     H85489   0.820   3.630   3.129  1.2912  2.4616 -0.0187
  648MOL0     H85490   0.645   3.524   3.093 -0.8227  0.9972  0.9301
  648MOL0     H85491   0.554   3.454   3.237 -2.3990  1.1343 -2.9559
  648MOL0     H85492   0.648   3.244   3.212 -2.0749 -0.5983 -1.5168
  648MOL0     H85493   0.753   3.293   3.072 -0.2589  2.4718 -0.2063
  648MOL0     H85494   0.453   3.258   3.098  1.6819 -1.4919  0.4598
  648MOL0     H85495   0.522   3.353   2.966 -0.0578  0.9994 -0.0060
  648MOL0     H85496   0.446   3.127   2.922  0.6269 -0.8337  1.4724
  648MOL0     H85497   0.564   3.054   3.032  1.5420  0.6357  0.0006
  648MOL0     H85498   0.536   2.876   2.893 -1.8494  0.7333 -0.6472
  648MOL0     H85499   0.636   2.677   2.791 -3.0800  2.1244  2.1091
  648MOL0     H85500   0.866   2.370   2.816  3.1322 -2.3097  0.5478
  648MOL0     H85501   0.941   2.143   2.758  1.7167  0.7695  1.6411
  648MOL0     H85502   1.034   1.913   2.651  2.5207  0.7092  2.4238
  648MOL0     H85503   1.138   2.050   2.626 -0.1816  1.1173 -2.7273
  648MOL0     H85504   1.213   1.944   2.403 -1.3469  2.3160  1.7056
  648MOL0     H85505   1.077   1.830   2.425 -0.5699 -0.6910 -1.0679
  648MOL0     H85506   1.198   1.711   2.606  0.4284  0.6976  0.9381
  648MOL0     H85507   1.316   1.847   2.610  0.7832  0.2227 -0.8019
  648MOL0     H85508   1.301   1.689   2.358  0.1874  1.6704 -0.8453
  648MOL0     H85509   1.399   1.831   2.408 -3.9112  4.2084  4.1344
  648MOL0     H85510   1.543   1.701   2.495  0.8295 -0.8199  1.9368
  648MOL0     H85511   1.455   1.556   2.429 -0.3244 -2.8935  3.9980
  648MOL0     H85512   1.349   1.532   2.634  0.7913  1.8631 -0.8826
  648MOL0     H85513   1.422   1.674   2.710 -1.0808  0.0555  0.4790
  648MOL0     H85514   1.515   1.431   2.733 -1.7917 -1.5513 -2.0933
  648MOL0     H85515   1.596   1.463   2.576  0.5489  3.1967 -1.7356
  648MOL0     H85516   1.725   1.669   2.638 -0.9833  1.2531  0.2138
  648MOL0     H85517   1.760   1.538   2.743  0.4657 -0.2393 -1.4741
  648MOL0     H85518   0.913   2.241   2.349 -1.0066  0.9621 -0.1037
  648MOL0     H85519   0.843   2.479   2.399 -0.9240  0.1840  0.0228
  648MOL0     H85520   0.937   2.918   2.599 -1.2763 -0.3888 -2.1262
  648MOL0     H85521   0.831   3.129   2.704  0.5745 -0.4807 -1.3827
  648MOL0     H85522   1.204   2.904   3.697  1.2927  0.6743 -1.9296
  648MOL0     H85523   1.220   2.818   3.944  1.9976  2.3949  0.9959
  648MOL0     H85524   1.434   2.670   4.309 -2.4912  0.0613 -0.9409
  648MOL0     H85525   1.505   2.570   4.524  2.4235 -0.7343  0.2803
  648MOL0     H85526   1.503   2.396   4.715 -0.9597 -0.7272 -1.6272
  648MOL0     H85527   1.651   2.484   4.670  0.3400 -0.6954  1.2300
  648MOL0     H85528   1.676   2.226   4.823  2.6900 -1.4906 -0.4503
  648MOL0     H85529   1.795   2.311   4.734 -0.9009 -0.0051 -0.5600
  648MOL0     H85530   1.629   2.460   4.950  1.0213  1.2726  1.2727
  648MOL0     H85531   1.765   2.510   4.876 -0.7875  0.1547 -0.3818
  648MOL0     H85532   1.899   2.311   4.958  0.5591  0.6696  1.3780
  648MOL0     H85533   1.848   2.394   5.092  1.3786  3.8482 -2.9122
  648MOL0     H85534   1.618   2.093   5.227 -0.5151 -0.5431 -0.5126
  648MOL0     H85535   1.603   2.208   4.340  2.1937  1.6062 -0.2928
  648MOL0     H85536   1.535   2.293   4.112 -1.5070  2.7110 -2.1117
  649MOL0     O85537   4.667   9.978   8.101 -0.2094 -0.1575  1.4808
  649MOL0     C85538   4.597  10.052   8.029 -0.6869  0.1787 -1.1686
  649MOL0     O85539   4.619  10.181   8.004 -0.0985  0.7099 -0.1373
  649MOL0     C85540   4.734  10.245   8.041 -0.1228  0.3138  0.4804
  649MOL0     C85541   4.763  10.269   8.176  0.1053  0.1512 -0.9735
  649MOL0     C85542   4.881  10.337   8.205  0.1217 -0.5290 -0.5050
  649MOL0     C85543   4.966  10.387   8.108  0.1794  0.9364  0.9746
  649MOL0     O85544   5.073  10.464   8.135 -1.2275 -0.1760 -0.7999
  649MOL0     C85545   5.149  10.536   8.050  0.2573 -0.4224  0.5768
  649MOL0     C85546   5.234  10.626   8.139 -0.1547  0.0278  0.2873
  649MOL0     C85547   5.286  10.745   8.050 -0.0141 -0.8357 -0.6130
  649MOL0     C85548   5.372  10.842   8.128  0.8262  0.1042 -0.1925
  649MOL0     C85549   5.428  10.958   8.044 -0.7409  1.3880  0.4863
  649MOL0     C85550   5.480  11.058   8.151 -0.8831  0.1677 -0.0587
  649MOL0     C85551   5.511  11.195   8.099 -0.8544  0.6238  0.3446
  649MOL0     C85552   5.587  11.288   8.194 -0.1935 -0.3781  0.1997
  649MOL0     N85553   5.507  11.354   8.297  0.3966  0.0416  0.8117
  649MOL0     C85554   5.396  11.423   8.268  0.3806 -0.3953  0.5641
  649MOL0     C85555   5.342  11.447   8.390 -0.3055 -0.6774 -0.3623
  649MOL0     C85556   5.218  11.521   8.418  0.1416  1.3534 -0.1045
  649MOL0     C85557   5.127  11.454   8.527 -0.5752  0.2112 -0.1974
  649MOL0     C85558   5.130  11.530   8.654  0.8023  0.1970 -0.2203
  649MOL0     C85559   5.051  11.470   8.769  0.5250 -1.0510 -0.4135
  649MOL0     O85560   4.932  11.404   8.737 -0.0045 -0.4748  0.2475
  649MOL0     C85561   4.826  11.496   8.755 -0.1052  0.3751  0.1888
  649MOL0     C85562   4.760  11.538   8.641  0.7049  0.8176 -0.4661
  649MOL0     C85563   4.652  11.632   8.658 -0.5919 -0.1522  0.5424
  649MOL0     C85564   4.616  11.680   8.786 -1.4258  0.0121  0.4410
  649MOL0     C85565   4.524  11.787   8.785 -0.8352 -0.2112 -0.1358
  649MOL0     O85566   4.488  11.816   8.914 -0.4490 -0.7442  0.3478
  649MOL0     C85567   4.408  11.922   8.940  0.5278  0.4361 -0.7325
  649MOL0     C85568   4.294  11.888   9.014 -0.7128  0.5810 -0.4671
  649MOL0     C85569   4.201  11.990   9.063 -0.3720  0.4445 -0.3031
  649MOL0     C85570   4.224  12.123   9.027  0.5686 -0.7993  0.2548
  649MOL0     O85571   4.137  12.222   9.069  0.6135 -0.0197  0.6196
  649MOL0     C85572   4.071  12.200   9.196  0.2822  0.3477  0.0773
  649MOL0     C85573   4.018  12.328   9.256 -0.2823 -0.0825 -0.1920
  649MOL0     C85574   4.140  12.381   9.333  0.8231 -1.4206  0.2528
  649MOL0     C85575   4.116  12.525   9.397 -0.0479  0.1593 -0.1328
  649MOL0     C85576   4.086  12.650   9.305 -0.0578  0.5679  1.8399
  649MOL0     C85577   4.227  12.705   9.242 -0.6087  1.0966  0.1102
  649MOL0     C85578   4.212  12.821   9.153 -0.5851  0.1225  0.0767
  649MOL0     C85579   4.331  12.901   9.124 -0.0016  0.4757 -0.3764
  649MOL0    Cl85580   4.424  12.799   9.019 -0.4442  0.0298 -0.1089
  649MOL0     C85581   4.339  12.153   8.947 -0.0197 -0.7301 -0.1654
  649MOL0     C85582   4.429  12.058   8.911  0.0272  0.7731  0.7791
  649MOL0     O85583   4.494  11.844   8.679  0.2116 -0.5192  0.0021
  649MOL0     C85584   4.669  11.612   8.903 -1.1741  0.2639 -0.4930
  649MOL0     C85585   4.768  11.518   8.876 -0.2405 -0.4211 -0.3179
  649MOL0     N85586   5.410  11.367   8.485 -0.2502  0.7177  0.3930
  649MOL0     N85587   5.510  11.312   8.427  0.7309 -0.2186  1.0709
  649MOL0     C85588   4.944  10.357   7.980 -0.5540  0.4633  0.3321
  649MOL0     C85589   4.823  10.288   7.940 -1.2300 -0.3596 -0.4595
  649MOL0     C85590   4.465   9.989   7.980 -0.2998 -0.3282 -0.0067
  649MOL0     C85591   4.376  10.073   7.903  1.2818 -0.6542 -0.3609
  649MOL0     C85592   4.253  10.021   7.862  0.5023 -0.4480  0.2614
  649MOL0     C85593   4.215   9.890   7.901 -0.3821 -0.0943  0.4132
  649MOL0     O85594   4.086   9.857   7.872  0.6821 -0.7593  0.4692
  649MOL0     C85595   4.024   9.756   7.951  0.6390 -0.3675  0.7720
  649MOL0     C85596   3.903   9.716   7.872 -0.1510  0.3240 -0.0349
  649MOL0     C85597   3.782   9.819   7.868  0.4814 -0.6928  0.7527
  649MOL0     C85598   3.787   9.925   7.753  0.0684 -0.4295  1.0981
  649MOL0     C85599   3.654   9.959   7.697 -0.8382  0.1703  0.0642
  649MOL0     C85600   3.551  10.010   7.659 -0.8765 -0.0551 -0.0490
  649MOL0     C85601   4.300   9.807   7.975 -0.5002  0.6896  0.1753
  649MOL0     C85602   4.421   9.861   8.022  0.9871  0.1247 -0.2344
  649MOL0     H85603   4.706  10.243   8.264  0.4381  1.2704 -0.4132
  649MOL0     H85604   4.917  10.355   8.306  2.4722 -0.6917 -1.2395
  649MOL0     H85605   5.085  10.595   7.984 -1.2860 -1.9619  0.6469
  649MOL0     H85606   5.210  10.468   7.990 -0.2316 -0.9903  0.7184
  649MOL0     H85607   5.313  10.562   8.180 -1.8099 -4.5068 -2.7442
  649MOL0     H85608   5.173  10.661   8.223 -3.6967 -0.4244 -1.9259
  649MOL0     H85609   5.203  10.812   8.026  4.3113  4.6472 -2.4528
  649MOL0     H85610   5.342  10.714   7.961  1.3276  3.0336 -1.3113
  649MOL0     H85611   5.314  10.898   8.202  1.1426  1.7761 -1.1405
  649MOL0     H85612   5.459  10.790   8.168  1.3834  1.8414  0.9959
  649MOL0     H85613   5.368  11.011   7.970  2.7447  1.2274 -2.7575
  649MOL0     H85614   5.512  10.921   7.985 -0.4089  1.2905  1.0092
  649MOL0     H85615   5.572  11.007   8.181 -2.6355 -3.5530 -0.5160
  649MOL0     H85616   5.412  11.064   8.236  0.5839 -1.4418  1.3015
  649MOL0     H85617   5.576  11.178   8.013  2.6189  4.3086  1.9244
  649MOL0     H85618   5.427  11.258   8.069  0.1811  2.7418  1.6531
  649MOL0     H85619   5.632  11.357   8.121 -2.3081  0.3343 -0.5269
  649MOL0     H85620   5.658  11.223   8.245 -2.5037 -0.5152  3.5414
  649MOL0     H85621   5.362  11.453   8.170 -0.7469 -1.1942  0.6924
  649MOL0     H85622   5.165  11.518   8.322  1.8945 -1.1625 -1.1014
  649MOL0     H85623   5.233  11.626   8.442  0.8679  1.1608  0.3089
  649MOL0     H85624   5.149  11.348   8.544 -0.2076  0.4758  1.1193
  649MOL0     H85625   5.027  11.451   8.483 -0.2866  1.3840 -0.9929
  649MOL0     H85626   5.232  11.548   8.690  0.8007  0.1662 -0.1989
  649MOL0     H85627   5.081  11.625   8.631 -2.1741 -1.0930  0.3621
  649MOL0     H85628   5.037  11.538   8.854  0.0240 -1.5305 -0.1046
  649MOL0     H85629   5.119  11.393   8.807  2.2219  2.5321  4.7927
  649MOL0     H85630   4.785  11.497   8.544  1.5808 -0.0483  0.0999
  649MOL0     H85631   4.614  11.678   8.567 -0.1722 -0.8133  0.0265
  649MOL0     H85632   4.280  11.784   9.044  1.1213 -0.2123 -2.0842
  649MOL0     H85633   4.115  11.943   9.109  1.1748 -0.6767  1.6196
  649MOL0     H85634   4.140  12.154   9.266 -3.5069 -2.4159  2.3752
  649MOL0     H85635   3.982  12.137   9.185 -0.3165  1.3579 -1.1421
  649MOL0     H85636   3.928  12.322   9.317  0.4597 -1.6665  0.8152
  649MOL0     H85637   3.999  12.391   9.168  1.9808  1.6329  0.4390
  649MOL0     H85638   4.227  12.378   9.267 -0.4103 -0.5989 -1.4662
  649MOL0     H85639   4.161  12.313   9.417  3.9677  0.8957  1.5582
  649MOL0     H85640   4.023  12.523   9.453 -1.1515 -0.3751 -1.9190
  649MOL0     H85641   4.209  12.545   9.452  0.2728  1.0597 -0.9723
  649MOL0     H85642   4.026  12.724   9.358  1.0076  0.5465  3.1292
  649MOL0     H85643   4.023  12.609   9.226 -0.7784 -1.4283  3.3611
  649MOL0     H85644   4.278  12.626   9.185 -1.6512  0.0311  0.6079
  649MOL0     H85645   4.289  12.734   9.327 -0.6051  0.4490  0.3348
  649MOL0     H85646   4.158  12.787   9.064 -0.6076 -1.6490  0.7325
  649MOL0     H85647   4.143  12.885   9.209  2.0306  2.5640  0.7952
  649MOL0     H85648   4.380  12.940   9.214 -1.2506 -0.6584  0.8465
  649MOL0     H85649   4.304  12.984   9.058  0.9932  0.8398 -0.3346
  649MOL0     H85650   4.356  12.259   8.936 -4.9732  0.5517  1.6741
  649MOL0     H85651   4.523  12.080   8.861 -0.2294  1.1578  0.4615
  649MOL0     H85652   4.654  11.630   9.009  2.7793  0.4277  0.1891
  649MOL0     H85653   4.810  11.461   8.958 -1.1306 -2.5566 -1.2400
  649MOL0     H85654   5.009  10.366   7.893  0.1060 -0.4338  0.7147
  649MOL0     H85655   4.812  10.257   7.837 -0.6143 -0.0216 -0.6335
  649MOL0     H85656   4.390  10.181   7.896 -3.4910  0.2743  0.9256
  649MOL0     H85657   4.170  10.070   7.812  1.4460  1.4254  0.4534
  649MOL0     H85658   3.994   9.790   8.050  2.7061 -0.0241  1.3302
  649MOL0     H85659   4.085   9.665   7.963  4.8342  2.2266  1.3336
  649MOL0     H85660   3.917   9.696   7.765 -1.5801 -1.3803  0.0553
  649MOL0     H85661   3.856   9.634   7.928 -1.7450  1.9760  1.1563
  649MOL0     H85662   3.804   9.889   7.949  2.8546 -2.1801  1.4799
  649MOL0     H85663   3.684   9.773   7.884 -0.1120  0.4444  0.4918
  649MOL0     H85664   3.837  10.016   7.788 -1.9346  1.1654  0.0644
  649MOL0     H85665   3.836   9.889   7.662 -3.0341 -3.5114  0.4184
  649MOL0     H85666   3.448  10.036   7.644 -1.2585 -0.8937  0.9787
  649MOL0     H85667   4.267   9.706   7.997  2.5481 -0.6107 -0.6797
  649MOL0     H85668   4.482   9.797   8.083 -1.6761 -2.8318 -0.4380
  650MOL0     O85669   1.067  10.709  11.314  0.0769 -0.3997  0.5904
  650MOL0     C85670   0.979  10.640  11.258  0.9260 -0.4607 -0.4389
  650MOL0     O85671   0.924  10.661  11.135  0.9123  0.6402 -0.6415
  650MOL0     C85672   0.971  10.772  11.064  0.1155  0.4355  0.5306
  650MOL0     C85673   0.996  10.902  11.100 -0.5102  0.8117  0.2473
  650MOL0     C85674   1.033  11.007  11.024  0.1357 -0.5948 -0.0678
  650MOL0     C85675   1.042  10.987  10.889 -0.7966  0.1961  0.5289
  650MOL0     O85676   1.082  11.094  10.808 -0.0963  0.6851 -0.0988
  650MOL0     C85677   1.107  11.060  10.674 -0.3996  0.1066  0.0437
  650MOL0     C85678   1.143  11.188  10.606 -0.2109  0.9727 -0.3939
  650MOL0     C85679   1.255  11.168  10.502  0.1552 -0.8555 -0.4734
  650MOL0     C85680   1.254  11.300  10.424  0.6399  0.6810 -0.0198
  650MOL0     C85681   1.369  11.283  10.330  0.3955 -0.5551  1.1107
  650MOL0     C85682   1.381  11.398  10.230  0.1781 -0.0290  0.1272
  650MOL0     C85683   1.493  11.371  10.130 -0.0778 -0.6761  0.1310
  650MOL0     C85684   1.504  11.498  10.040  0.3558 -0.0636 -0.0483
  650MOL0     N85685   1.576  11.607  10.117  0.3998 -0.2641  0.9723
  650MOL0     C85686   1.714  11.629  10.119  0.0488 -0.7005 -0.3254
  650MOL0     C85687   1.722  11.750  10.186 -0.7848  0.2697 -0.7212
  650MOL0     C85688   1.848  11.824  10.206 -0.6147  0.6442 -0.1503
  650MOL0     C85689   1.882  11.928  10.102  0.0449  0.9338  0.0281
  650MOL0     C85690   1.781  12.045  10.105 -0.5598  0.0426 -0.3707
  650MOL0     C85691   1.824  12.159  10.015 -0.5772 -0.0932  0.2230
  650MOL0     O85692   1.715  12.244   9.972  1.2544 -0.4283  0.1211
  650MOL0     C85693   1.691  12.358  10.045  0.2994  0.8179 -0.7105
  650MOL0     C85694   1.714  12.364  10.184 -0.6053 -0.2678  0.1985
  650MOL0     C85695   1.688  12.484  10.253 -0.7621 -0.1376  0.6004
  650MOL0     C85696   1.646  12.604  10.195  0.1126  0.9075  0.6812
  650MOL0     C85697   1.616  12.715  10.266 -0.2175 -0.2225 -0.8039
  650MOL0     O85698   1.713  12.754  10.347  0.2548  0.1706 -0.1680
  650MOL0     C85699   1.688  12.862  10.422  0.1141  0.2413  0.0365
  650MOL0     C85700   1.782  12.963  10.400 -0.8105  0.1199  0.5491
  650MOL0     C85701   1.777  13.084  10.469  0.3311 -0.9304  0.0308
  650MOL0     C85702   1.682  13.087  10.571  0.5708 -1.0104 -0.5163
  650MOL0     O85703   1.672  13.209  10.643 -1.4414 -0.3426  0.1660
  650MOL0     C85704   1.705  13.186  10.778 -0.0527  0.5207  0.5753
  650MOL0     C85705   1.719  13.318  10.852  1.1240 -0.7081  0.4673
  650MOL0     C85706   1.585  13.402  10.855  0.3629  0.0008 -1.0651
  650MOL0     C85707   1.620  13.521  10.959  0.0657 -0.3943 -0.8654
  650MOL0     C85708   1.493  13.620  10.966 -0.3668 -0.6651 -0.0794
  650MOL0     C85709   1.492  13.710  10.836 -0.4666 -0.1166 -0.7991
  650MOL0     C85710   1.361  13.797  10.830 -0.6483 -0.3756 -0.2183
  650MOL0     C85711   1.297  13.806  10.690 -0.8065 -0.4741 -0.0846
  650MOL0    Cl85712   1.189  13.948  10.671  0.4075 -0.3682  0.1965
  650MOL0     C85713   1.589  12.983  10.598  0.7078 -0.2300  0.0467
  650MOL0     C85714   1.595  12.866  10.527 -0.4073 -0.5674  0.7380
  650MOL0     O85715   1.506  12.770  10.256 -1.2991  0.1714 -0.4620
  650MOL0     C85716   1.628  12.594  10.051 -0.8825 -0.4350  0.4040
  650MOL0     C85717   1.660  12.472   9.981 -0.8836 -0.5336 -0.1504
  650MOL0     N85718   1.596  11.790  10.224 -0.3518 -0.3482  0.3728
  650MOL0     N85719   1.510  11.708  10.182 -0.4501  0.5798  0.7357
  650MOL0     C85720   1.004  10.859  10.837  0.2888  0.4157  0.6034
  650MOL0     C85721   0.978  10.750  10.926 -0.7040  0.0732 -0.0106
  650MOL0     C85722   0.924  10.529  11.342 -0.1520  0.0348  0.2779
  650MOL0     C85723   0.962  10.510  11.472  0.2598  0.9490  0.0900
  650MOL0     C85724   0.911  10.412  11.557 -0.1787 -0.0706 -0.3966
  650MOL0     C85725   0.815  10.317  11.505 -0.2720 -0.2002  0.2476
  650MOL0     O85726   0.752  10.212  11.570 -0.1046  0.4382 -0.0183
  650MOL0     C85727   0.789  10.209  11.711 -0.8644 -0.2385 -0.4250
  650MOL0     C85728   0.716  10.100  11.788 -0.7445  0.3521 -0.1956
  650MOL0     C85729   0.564  10.095  11.773 -0.6613 -0.2800 -0.2482
  650MOL0     C85730   0.485  10.018  11.880 -0.1639  0.9832 -1.3032
  650MOL0     C85731   0.342   9.997  11.848  0.2994  0.4133 -0.2919
  650MOL0     C85732   0.237   9.952  11.842 -0.4914  0.0085 -0.2788
  650MOL0     C85733   0.781  10.331  11.372 -0.3871 -0.0680  0.3386
  650MOL0     C85734   0.833  10.438  11.291  1.2272 -0.1671  0.3741
  650MOL0     H85735   0.988  10.924  11.206 -0.9790  2.0438 -0.0190
  650MOL0     H85736   1.053  11.096  11.082  0.3477 -0.9739  0.4542
  650MOL0     H85737   1.018  11.012  10.632 -2.3457 -0.0125  3.8545
  650MOL0     H85738   1.180  10.979  10.669  0.8182  1.2154 -2.7924
  650MOL0     H85739   1.174  11.269  10.672 -0.2405  1.8459 -1.4246
  650MOL0     H85740   1.051  11.224  10.559 -1.1089 -0.2352  0.3673
  650MOL0     H85741   1.232  11.084  10.437 -3.9289  1.2918 -2.2044
  650MOL0     H85742   1.352  11.153  10.550 -0.1467  1.4829  1.0900
  650MOL0     H85743   1.157  11.316  10.375 -0.7444  1.0246  2.6762
  650MOL0     H85744   1.268  11.389  10.485 -3.7530  1.0867  0.7450
  650MOL0     H85745   1.361  11.196  10.264 -2.0356  1.5514 -1.6036
  650MOL0     H85746   1.456  11.289  10.396 -0.5457 -0.7502  2.4189
  650MOL0     H85747   1.415  11.477  10.297 -1.2557  0.3231  0.4849
  650MOL0     H85748   1.283  11.422  10.186  0.2155  0.4466  0.2965
  650MOL0     H85749   1.592  11.351  10.172  0.4192  1.1636 -0.0822
  650MOL0     H85750   1.460  11.280  10.080 -1.5229 -0.4693  0.6633
  650MOL0     H85751   1.409  11.536  10.001  0.2084  3.0571  2.9291
  650MOL0     H85752   1.559  11.478   9.947 -0.5049  2.3784 -1.1759
  650MOL0     H85753   1.792  11.561  10.086  2.9912  0.3500  3.6709
  650MOL0     H85754   1.934  11.757  10.198  0.5487  1.7815  2.0983
  650MOL0     H85755   1.848  11.868  10.306  2.3433 -0.9297  0.6741
  650MOL0     H85756   1.900  11.892  10.001 -0.1910  0.5111  0.1321
  650MOL0     H85757   1.978  11.962  10.142  0.1319 -1.3256  2.0570
  650MOL0     H85758   1.680  12.015  10.073  0.1730  0.1720 -3.0769
  650MOL0     H85759   1.775  12.075  10.210 -1.0094  0.6053 -0.5540
  650MOL0     H85760   1.863  12.116   9.922 -1.8487 -1.9857  0.5118
  650MOL0     H85761   1.901  12.228  10.050  0.2756 -0.1525 -1.4474
  650MOL0     H85762   1.736  12.273  10.238 -0.2698  0.1868  0.8448
  650MOL0     H85763   1.705  12.484  10.360  2.6482  1.0965  0.1663
  650MOL0     H85764   1.860  12.968  10.325  0.7176  0.8943  2.1076
  650MOL0     H85765   1.843  13.168  10.453  0.8338 -1.1706  0.8029
  650MOL0     H85766   1.796  13.126  10.780 -0.0111  0.4764 -1.0020
  650MOL0     H85767   1.631  13.124  10.829 -0.8809  0.4139 -0.6864
  650MOL0     H85768   1.795  13.383  10.807 -1.5987  1.1024 -1.8624
  650MOL0     H85769   1.739  13.290  10.956 -2.8267 -1.4614  1.1644
  650MOL0     H85770   1.500  13.344  10.892 -2.0704  1.8227 -3.4101
  650MOL0     H85771   1.550  13.438  10.758  2.8149  1.0174 -1.6649
  650MOL0     H85772   1.634  13.462  11.050  0.3110  1.5023  0.3877
  650MOL0     H85773   1.712  13.579  10.944  0.2665 -0.1596  1.0282
  650MOL0     H85774   1.500  13.691  11.048 -3.7089 -0.8900  0.5339
  650MOL0     H85775   1.411  13.548  10.971 -0.4795 -0.4236  3.0547
  650MOL0     H85776   1.501  13.650  10.745  1.4623 -1.1081 -0.0183
  650MOL0     H85777   1.591  13.757  10.825 -0.0944 -0.9527 -1.1149
  650MOL0     H85778   1.291  13.765  10.908 -0.9957  2.6796  0.8441
  650MOL0     H85779   1.383  13.902  10.851 -0.1790 -0.7441  1.2952
  650MOL0     H85780   1.245  13.713  10.663  0.0326 -0.7457 -0.8018
  650MOL0     H85781   1.375  13.828  10.616  2.0966 -0.1282  2.8394
  650MOL0     H85782   1.510  13.000  10.670  0.2170  1.5188 -0.8355
  650MOL0     H85783   1.523  12.785  10.534 -0.7932 -0.1157  2.9559
  650MOL0     H85784   1.598  12.685  10.001  0.0394  1.3721  2.9250
  650MOL0     H85785   1.647  12.478   9.873  1.3369 -0.1780 -0.4500
  650MOL0     H85786   1.018  10.836  10.732 -0.4283 -0.4943  0.6965
  650MOL0     H85787   0.968  10.656  10.872 -1.7679  0.5705 -0.7106
  650MOL0     H85788   1.036  10.579  11.512  0.5104  0.0833  1.1369
  650MOL0     H85789   0.929  10.415  11.664 -2.6878  3.8546  0.1459
  650MOL0     H85790   0.749  10.291  11.770 -1.5046 -2.0659  1.8516
  650MOL0     H85791   0.898  10.199  11.724 -0.7698 -1.4581 -1.8673
  650MOL0     H85792   0.747  10.003  11.749  2.3738  0.6480  1.2392
  650MOL0     H85793   0.755  10.100  11.890  1.1290 -0.7929 -0.8599
  650MOL0     H85794   0.541  10.047  11.678  0.0676  1.5546 -1.4160
  650MOL0     H85795   0.530  10.199  11.774 -0.0375 -0.0541 -1.2506
  650MOL0     H85796   0.519   9.915  11.892 -1.3192  0.7416  0.1832
  650MOL0     H85797   0.494  10.069  11.976 -0.4561 -0.0887 -0.6887
  650MOL0     H85798   0.143   9.906  11.821  0.5474 -2.2576 -0.3157
  650MOL0     H85799   0.708  10.266  11.326  0.0781  1.9508 -3.6350
  650MOL0     H85800   0.784  10.453  11.195 -0.5600 -2.0503  0.8980
  651MOL0     O85801   8.035   1.493   5.354 -0.1372 -0.1306  0.0614
  651MOL0     C85802   8.002   1.609   5.370 -1.2887 -0.6071  0.9213
  651MOL0     O85803   7.943   1.663   5.480 -0.1202 -0.1206 -0.0320
  651MOL0     C85804   7.911   1.600   5.598 -0.2600  0.8883  0.0306
  651MOL0     C85805   7.872   1.467   5.609 -0.0011  0.1888  0.4673
  651MOL0     C85806   7.841   1.409   5.733  0.2557 -0.6104 -0.1489
  651MOL0     C85807   7.834   1.487   5.842 -0.1801 -0.3701 -0.2711
  651MOL0     O85808   7.769   1.449   5.962  0.3203 -0.1342  0.1244
  651MOL0     C85809   7.757   1.308   5.994  0.0623 -0.1272 -0.6736
  651MOL0     C85810   7.728   1.286   6.141 -0.3851 -0.4232 -0.1268
  651MOL0     C85811   7.649   1.405   6.205  0.6050 -1.1011 -0.4386
  651MOL0     C85812   7.640   1.401   6.353 -0.2512 -0.1581 -0.3103
  651MOL0     C85813   7.555   1.518   6.400  0.1331 -0.6622 -0.8118
  651MOL0     C85814   7.513   1.516   6.547 -0.4621 -0.5703  0.0160
  651MOL0     C85815   7.628   1.544   6.653  1.3821  0.2072  0.2276
  651MOL0     C85816   7.585   1.545   6.799  1.0042 -0.2824  0.3261
  651MOL0     N85817   7.577   1.685   6.833  0.3790 -0.2706  1.0728
  651MOL0     C85818   7.464   1.764   6.839 -0.8749  0.3046 -0.0592
  651MOL0     C85819   7.497   1.866   6.927 -0.3496  0.3120 -0.0429
  651MOL0     C85820   7.407   1.977   6.977  0.0968 -0.2592 -0.1245
  651MOL0     C85821   7.390   1.975   7.129 -0.4982  0.2656 -0.1025
  651MOL0     C85822   7.349   1.846   7.212 -0.3215 -0.7591 -0.0515
  651MOL0     C85823   7.436   1.717   7.193  0.0409 -1.0818  0.4681
  651MOL0     O85824   7.415   1.602   7.279 -0.0662  0.1994 -0.1205
  651MOL0     C85825   7.460   1.476   7.237  0.0623 -0.2781 -0.3371
  651MOL0     C85826   7.562   1.455   7.143  0.3105 -0.1379 -0.0838
  651MOL0     C85827   7.609   1.322   7.128  0.1408 -0.5155 -0.5483
  651MOL0     C85828   7.543   1.216   7.194 -0.8807  0.8464  0.5601
  651MOL0     C85829   7.579   1.080   7.159  0.2172  0.2294 -0.5510
  651MOL0     O85830   7.520   0.980   7.227  0.2441  0.6280  0.2390
  651MOL0     C85831   7.543   0.851   7.206 -0.2102  0.4091  0.1496
  651MOL0     C85832   7.660   0.786   7.153 -0.1135 -0.6384  0.9995
  651MOL0     C85833   7.657   0.643   7.136 -0.4705  0.3792  0.4516
  651MOL0     C85834   7.539   0.562   7.152 -0.3476 -0.5990 -1.2389
  651MOL0     O85835   7.547   0.429   7.124  1.8510  0.0180 -0.4759
  651MOL0     C85836   7.426   0.348   7.106 -0.0105 -0.2138 -0.1818
  651MOL0     C85837   7.469   0.219   7.038 -0.6402  0.0398  0.1059
  651MOL0     C85838   7.519   0.253   6.893 -0.6996 -0.4370  0.8739
  651MOL0     C85839   7.571   0.130   6.797 -0.3323  0.3240  0.2992
  651MOL0     C85840   7.721   0.144   6.779 -0.2665 -0.0862  0.6606
  651MOL0     C85841   7.784   0.041   6.681 -0.6920 -0.7890  0.1764
  651MOL0     C85842   7.912   0.090   6.623 -0.7375 -0.6860  0.8017
  651MOL0     C85843   7.970   0.000   6.509 -0.3732  0.1793 -0.1761
  651MOL0    Cl85844   7.927  -0.174   6.537  0.0917 -0.4259 -0.2099
  651MOL0     C85845   7.428   0.632   7.198  0.2481 -0.2599 -0.5111
  651MOL0     C85846   7.436   0.768   7.218  0.6610  0.4047 -0.5486
  651MOL0     O85847   7.667   1.062   7.068 -0.2687  0.0707 -0.4995
  651MOL0     C85848   7.446   1.234   7.289  0.2125  1.7413  0.6986
  651MOL0     C85849   7.416   1.370   7.318 -0.2317 -0.5039 -0.1676
  651MOL0     N85850   7.633   1.841   6.958  0.6046 -0.2114 -0.4574
  651MOL0     N85851   7.677   1.739   6.903 -0.2223 -0.0162  0.2397
  651MOL0     C85852   7.859   1.628   5.834 -0.1093  0.3862 -0.0084
  651MOL0     C85853   7.898   1.680   5.715 -0.3419 -0.9227 -0.1984
  651MOL0     C85854   8.087   1.699   5.273 -0.2837 -0.0694  1.2790
  651MOL0     C85855   8.160   1.642   5.170 -0.8357  0.5682  0.2862
  651MOL0     C85856   8.236   1.717   5.078 -0.1726  0.6378  0.0848
  651MOL0     C85857   8.237   1.857   5.088  0.0468  0.1508 -0.7245
  651MOL0     O85858   8.309   1.926   4.988  0.2320  0.3625 -0.1509
  651MOL0     C85859   8.384   2.039   5.034  0.0707  0.2771 -0.1177
  651MOL0     C85860   8.516   2.041   4.959 -0.4731  0.8575 -0.0848
  651MOL0     C85861   8.584   1.905   4.953  0.4173 -0.2184  0.6465
  651MOL0     C85862   8.683   1.895   5.054  0.2170 -0.0311  0.5319
  651MOL0     C85863   8.775   1.777   5.036  0.1963  0.1409 -0.2435
  651MOL0     C85864   8.835   1.683   4.982  0.0632 -0.0323  0.5332
  651MOL0     C85865   8.174   1.914   5.208  0.6596 -0.3344  0.4451
  651MOL0     C85866   8.102   1.838   5.294  0.2820  1.1482  0.5386
  651MOL0     H85867   7.873   1.408   5.518  1.7737 -1.2835  1.3659
  651MOL0     H85868   7.819   1.304   5.750 -0.7902 -0.2212  1.0344
  651MOL0     H85869   7.849   1.251   5.976  0.2392 -2.0103  4.4692
  651MOL0     H85870   7.685   1.251   5.936  0.2527  1.6950 -2.8638
  651MOL0     H85871   7.827   1.283   6.187 -0.1634  2.5482 -0.2327
  651MOL0     H85872   7.676   1.191   6.156  1.2869 -1.4371 -0.5774
  651MOL0     H85873   7.544   1.397   6.173  0.2542 -0.2012  0.4583
  651MOL0     H85874   7.702   1.496   6.178 -1.9053  0.9056  0.9747
  651MOL0     H85875   7.602   1.304   6.386  0.0854 -0.7345 -1.5486
  651MOL0     H85876   7.735   1.413   6.405 -1.9511 -0.6009  3.1858
  651MOL0     H85877   7.461   1.538   6.347  0.0688 -1.8969 -1.2057
  651MOL0     H85878   7.618   1.606   6.385 -1.2621  0.5774  0.2304
  651MOL0     H85879   7.483   1.414   6.573 -1.8066 -0.0702  0.5133
  651MOL0     H85880   7.433   1.588   6.565 -0.8215  0.0617 -3.3301
  651MOL0     H85881   7.704   1.466   6.637  0.7360 -0.7354  1.5683
  651MOL0     H85882   7.663   1.642   6.621 -3.8129  0.9536 -4.8347
  651MOL0     H85883   7.672   1.502   6.850  0.4809  0.6411  2.0883
  651MOL0     H85884   7.489   1.496   6.817  1.1693 -0.4381  0.7892
  651MOL0     H85885   7.365   1.734   6.806 -0.6336 -0.6720  0.0613
  651MOL0     H85886   7.308   1.975   6.929 -1.1437  1.0182  2.2249
  651MOL0     H85887   7.435   2.076   6.941  1.9678 -0.4111  0.7972
  651MOL0     H85888   7.321   2.059   7.146  0.6269  1.6069 -1.7673
  651MOL0     H85889   7.488   2.006   7.166 -0.2337 -2.0722  1.3360
  651MOL0     H85890   7.347   1.860   7.321  1.4303 -4.3254  0.5976
  651MOL0     H85891   7.244   1.819   7.198 -0.3922  0.0371 -1.1649
  651MOL0     H85892   7.542   1.740   7.202  0.6019 -2.5098 -1.6599
  651MOL0     H85893   7.419   1.677   7.092  0.5037  1.2399 -0.5811
  651MOL0     H85894   7.620   1.537   7.101 -2.1930  1.2172 -1.1033
  651MOL0     H85895   7.696   1.307   7.065 -0.4906 -0.1399 -1.5520
  651MOL0     H85896   7.752   0.843   7.144  0.8940 -1.7570  3.3014
  651MOL0     H85897   7.751   0.600   7.105  0.7694  2.7683  0.7004
  651MOL0     H85898   7.354   0.401   7.042 -2.7499 -5.1223 -1.7292
  651MOL0     H85899   7.373   0.315   7.196 -4.1723 -0.3999 -2.4533
  651MOL0     H85900   7.376   0.160   7.035 -1.6543  1.6064 -2.5505
  651MOL0     H85901   7.536   0.157   7.098 -0.4296  0.3376  0.1766
  651MOL0     H85902   7.591   0.335   6.891  0.2248 -1.2350 -0.2725
  651MOL0     H85903   7.424   0.286   6.849  0.2719 -1.4014 -2.1884
  651MOL0     H85904   7.558   0.030   6.838 -1.2169 -0.4383 -1.6802
  651MOL0     H85905   7.529   0.120   6.696  1.9420  1.7397 -0.8625
  651MOL0     H85906   7.760   0.131   6.881  2.2084  1.9436  0.0688
  651MOL0     H85907   7.734   0.245   6.741 -1.7622  0.1892  0.8187
  651MOL0     H85908   7.703   0.014   6.612 -1.9383  2.3547  0.2628
  651MOL0     H85909   7.819  -0.042   6.744  1.4038  2.6080  3.9984
  651MOL0     H85910   7.894   0.189   6.579  3.9376  0.0893  0.1610
  651MOL0     H85911   7.989   0.101   6.700  0.3802  3.3371 -0.6395
  651MOL0     H85912   8.078   0.009   6.498 -0.6028 -0.1341 -3.5267
  651MOL0     H85913   7.932   0.037   6.413  1.7055 -0.6214 -1.3573
  651MOL0     H85914   7.334   0.587   7.228  0.0970  1.0124  1.1110
  651MOL0     H85915   7.349   0.814   7.264  1.6747  2.8059 -0.8840
  651MOL0     H85916   7.407   1.150   7.345  4.0295 -2.8173 -2.6436
  651MOL0     H85917   7.352   1.399   7.400 -1.7868  0.3977 -1.6440
  651MOL0     H85918   7.837   1.688   5.922 -1.3057  0.2279 -0.1750
  651MOL0     H85919   7.933   1.782   5.702  1.8851 -1.8012 -1.8279
  651MOL0     H85920   8.171   1.534   5.164 -1.9166  0.0633  4.3399
  651MOL0     H85921   8.283   1.659   4.999 -1.4200 -0.3170  0.0255
  651MOL0     H85922   8.407   2.044   5.141 -1.1257  4.9888  0.1723
  651MOL0     H85923   8.322   2.126   5.008 -2.0606 -1.7686 -2.4510
  651MOL0     H85924   8.499   2.069   4.855  2.5681 -0.4672 -1.0414
  651MOL0     H85925   8.579   2.117   5.007 -0.2947  0.8605 -0.3214
  651MOL0     H85926   8.636   1.894   4.857 -2.0028  0.1545 -0.8078
  651MOL0     H85927   8.513   1.821   4.953  0.3292 -0.1553  1.9315
  651MOL0     H85928   8.741   1.988   5.056 -3.3759  2.4485  0.3745
  651MOL0     H85929   8.624   1.890   5.146 -0.9346 -0.1022 -0.1922
  651MOL0     H85930   8.901   1.609   4.941  0.8145  1.4453 -1.0717
  651MOL0     H85931   8.190   2.018   5.234 -0.1398 -0.7437  2.7273
  651MOL0     H85932   8.049   1.889   5.373  0.8405 -0.4473  2.0039
  652MOL0     O85933   7.047  10.605   0.448 -0.7207  0.1702  0.5526
  652MOL0     C85934   6.942  10.669   0.452  0.1989 -0.3553  0.0638
  652MOL0     O85935   6.920  10.798   0.413  0.6003  0.9063 -0.9442
  652MOL0     C85936   7.010  10.870   0.353 -0.5092 -0.5701  0.2890
  652MOL0     C85937   7.002  11.010   0.384  0.0517  0.3315 -0.2822
  652MOL0     C85938   7.093  11.099   0.329  0.2225 -0.6116  0.8194
  652MOL0     C85939   7.197  11.048   0.259  0.2228 -0.2480  0.3231
  652MOL0     O85940   7.308  11.120   0.213  0.2654  0.3808 -0.5731
  652MOL0     C85941   7.290  11.263   0.204 -0.2637 -0.1350  0.5125
  652MOL0     C85942   7.374  11.324   0.091  0.0240 -0.2155  0.0847
  652MOL0     C85943   7.324  11.276  -0.043  0.2439 -0.3512 -0.6870
  652MOL0     C85944   7.347  11.369  -0.169  0.1831 -0.2464 -0.0150
  652MOL0     C85945   7.310  11.288  -0.298  0.0880 -0.7976 -0.6257
  652MOL0     C85946   7.291  11.390  -0.412 -0.3806 -0.2372 -0.2583
  652MOL0     C85947   7.429  11.443  -0.466 -0.2503 -0.2368  0.3915
  652MOL0     C85948   7.420  11.518  -0.590 -0.1676 -0.0778  0.0690
  652MOL0     N85949   7.538  11.584  -0.642  0.1798  0.5340  0.2919
  652MOL0     C85950   7.559  11.716  -0.613 -0.5040  0.0516  0.6330
  652MOL0     C85951   7.678  11.742  -0.677 -0.7339  0.2189  0.3337
  652MOL0     C85952   7.751  11.874  -0.669 -0.7221  0.4152 -0.2025
  652MOL0     C85953   7.690  11.990  -0.741 -0.0541  0.9857  1.2067
  652MOL0     C85954   7.735  12.128  -0.690 -0.6121  0.7436  0.5253
  652MOL0     C85955   7.886  12.140  -0.700  0.4297  0.2714 -0.0555
  652MOL0     O85956   7.922  12.280  -0.676  0.3131  0.1804 -0.4385
  652MOL0     C85957   7.894  12.355  -0.780 -0.6497 -0.3846  0.2849
  652MOL0     C85958   7.844  12.477  -0.739  0.5168  0.3762 -0.7324
  652MOL0     C85959   7.817  12.566  -0.843 -0.9599 -1.5139  0.1044
  652MOL0     C85960   7.852  12.553  -0.979  0.5358 -0.1965 -0.4523
  652MOL0     C85961   7.838  12.664  -1.074 -0.0092 -0.2314  0.0034
  652MOL0     O85962   7.872  12.626  -1.198 -0.1416 -0.8211  0.8366
  652MOL0     C85963   7.879  12.713  -1.309 -0.4502 -0.7717 -0.1573
  652MOL0     C85964   7.871  12.857  -1.301 -0.4420 -0.0842 -0.2759
  652MOL0     C85965   7.880  12.922  -1.419  0.3945  0.5157 -0.0118
  652MOL0     C85966   7.884  12.872  -1.552 -0.6613  0.9146  0.3373
  652MOL0     O85967   7.884  12.944  -1.671  0.4895 -0.2114 -0.3460
  652MOL0     C85968   7.776  13.034  -1.692 -0.5060 -0.6542  0.0701
  652MOL0     C85969   7.815  13.171  -1.665 -0.2836  0.4991 -0.1389
  652MOL0     C85970   7.707  13.265  -1.632  0.1221  0.5287  0.8663
  652MOL0     C85971   7.667  13.347  -1.751 -0.5306  0.9790 -0.0000
  652MOL0     C85972   7.536  13.405  -1.731  0.0087  0.0623  0.6233
  652MOL0     C85973   7.512  13.507  -1.842 -0.4247 -0.7831  0.2708
  652MOL0     C85974   7.368  13.560  -1.832  0.6866 -0.5688  0.9819
  652MOL0     C85975   7.344  13.645  -1.958 -0.5156 -0.3194  0.5488
  652MOL0    Cl85976   7.182  13.728  -1.966  0.3280  0.4656 -0.5209
  652MOL0     C85977   7.879  12.736  -1.554 -0.5455 -0.7399 -0.0684
  652MOL0     C85978   7.898  12.659  -1.439  1.3149 -0.3464  0.4599
  652MOL0     O85979   7.797  12.771  -1.035  0.6076  0.1194 -0.2293
  652MOL0     C85980   7.915  12.436  -1.015 -0.1675  0.4364 -0.3092
  652MOL0     C85981   7.946  12.340  -0.910 -0.5677 -0.2293  0.1393
  652MOL0     N85982   7.708  11.634  -0.763  0.2077 -0.0604 -0.9511
  652MOL0     N85983   7.619  11.541  -0.747 -0.3210  0.1759  0.2508
  652MOL0     C85984   7.208  10.914   0.232 -0.7945  0.0940 -0.2096
  652MOL0     C85985   7.112  10.824   0.271  0.2680 -0.2218 -0.5755
  652MOL0     C85986   6.827  10.616   0.526 -0.3981  0.1789  0.0138
  652MOL0     C85987   6.842  10.494   0.598 -0.0065 -0.7300 -0.0501
  652MOL0     C85988   6.732  10.434   0.665 -0.2645 -0.2434  0.6212
  652MOL0     C85989   6.604  10.483   0.651  1.1832  0.5419 -0.0435
  652MOL0     O85990   6.496  10.420   0.710 -0.0934  0.0309 -0.0073
  652MOL0     C85991   6.457  10.443   0.848  0.4832 -0.3158  0.5745
  652MOL0     C85992   6.495  10.314   0.924  0.4791 -0.6983 -0.3849
  652MOL0     C85993   6.440  10.180   0.877 -0.3893 -0.4481 -0.8552
  652MOL0     C85994   6.542  10.107   0.797 -0.4948  0.0984  0.4628
  652MOL0     C85995   6.487  10.007   0.704 -0.8377 -0.4382  0.0492
  652MOL0     C85996   6.448   9.923   0.622  0.5527 -0.4654 -0.2876
  652MOL0     C85997   6.589  10.603   0.581  1.1005 -0.9245 -0.6012
  652MOL0     C85998   6.701  10.668   0.514 -0.3517 -0.4311 -0.3528
  652MOL0     H85999   6.923  11.054   0.444  0.1391  0.4989 -0.2909
  652MOL0     H86000   7.069  11.204   0.340  0.0072 -0.0283 -3.4097
  652MOL0     H86001   7.304  11.319   0.298  2.4841  0.9955 -0.4764
  652MOL0     H86002   7.188  11.280   0.167  0.6615  3.4481 -0.8422
  652MOL0     H86003   7.478  11.290   0.105 -0.6011 -1.4802  2.2174
  652MOL0     H86004   7.367  11.431   0.111 -0.1135 -0.4860  1.6183
  652MOL0     H86005   7.221  11.239  -0.045 -0.2054  0.4303  2.4043
  652MOL0     H86006   7.385  11.186  -0.052 -0.4517 -1.4476  3.4879
  652MOL0     H86007   7.289  11.461  -0.159  1.1846  0.5906 -1.4986
  652MOL0     H86008   7.454  11.389  -0.171  0.5071 -1.5145  2.0007
  652MOL0     H86009   7.213  11.243  -0.275  1.2772 -3.3605 -0.2695
  652MOL0     H86010   7.392  11.217  -0.311  2.0666  1.5259 -1.5356
  652MOL0     H86011   7.233  11.474  -0.373 -0.9432 -1.4868  1.7066
  652MOL0     H86012   7.242  11.339  -0.495 -1.0313 -0.0403  0.0032
  652MOL0     H86013   7.476  11.505  -0.389  1.7592 -0.6274 -0.4533
  652MOL0     H86014   7.490  11.353  -0.483 -1.3469 -0.7608 -0.9187
  652MOL0     H86015   7.344  11.596  -0.576 -0.9706 -0.6235 -1.1152
  652MOL0     H86016   7.391  11.443  -0.664  0.0476  0.5157 -0.6363
  652MOL0     H86017   7.512  11.790  -0.548  2.2100  3.0274 -0.5559
  652MOL0     H86018   7.850  11.857  -0.712  0.2142 -0.0446  2.0426
  652MOL0     H86019   7.768  11.897  -0.564  1.1088  1.7194 -0.7386
  652MOL0     H86020   7.582  11.987  -0.723 -0.2638 -1.5656 -0.1372
  652MOL0     H86021   7.697  11.982  -0.850  0.3726  2.6351  1.0831
  652MOL0     H86022   7.684  12.188  -0.766  0.3926 -1.2475 -1.8556
  652MOL0     H86023   7.702  12.150  -0.588 -2.1428  3.3085 -0.4160
  652MOL0     H86024   7.918  12.102  -0.798  2.8467  3.4715 -0.7073
  652MOL0     H86025   7.932  12.082  -0.619 -1.5358  3.2894  3.5184
  652MOL0     H86026   7.820  12.485  -0.634 -0.9340 -0.0669 -1.0200
  652MOL0     H86027   7.776  12.663  -0.817 -0.5478 -0.9838 -1.1608
  652MOL0     H86028   7.858  12.914  -1.210  0.4459 -0.7367  0.2677
  652MOL0     H86029   7.872  13.029  -1.404  1.4927  0.3581  2.0467
  652MOL0     H86030   7.693  13.007  -1.626 -1.3480  3.4383  0.9582
  652MOL0     H86031   7.746  13.020  -1.796  1.4233 -3.0344 -0.2715
  652MOL0     H86032   7.867  13.209  -1.754 -2.2641  2.2594 -0.6223
  652MOL0     H86033   7.897  13.175  -1.593  0.3671  0.3048 -0.8526
  652MOL0     H86034   7.740  13.337  -1.555  0.0252 -1.0458  2.4389
  652MOL0     H86035   7.618  13.216  -1.592  1.2747 -2.1133  0.3822
  652MOL0     H86036   7.744  13.424  -1.760 -1.6706  2.3960  1.7545
  652MOL0     H86037   7.668  13.292  -1.845 -0.6953  0.5654  0.2347
  652MOL0     H86038   7.529  13.446  -1.630 -1.9035 -0.7194  0.8636
  652MOL0     H86039   7.453  13.334  -1.739 -0.9890  0.9801  2.2484
  652MOL0     H86040   7.515  13.451  -1.935  0.2599  1.1197 -0.9228
  652MOL0     H86041   7.584  13.589  -1.836 -0.2579 -0.9558  0.6790
  652MOL0     H86042   7.300  13.474  -1.833 -0.8129  0.5471 -0.9252
  652MOL0     H86043   7.354  13.608  -1.734  0.8666 -0.1508  0.8038
  652MOL0     H86044   7.364  13.586  -2.048  0.6420  2.0450 -0.8513
  652MOL0     H86045   7.416  13.727  -1.947 -1.0290 -0.0983  2.6445
  652MOL0     H86046   7.864  12.680  -1.646  2.6013 -0.8319 -0.6470
  652MOL0     H86047   7.906  12.552  -1.458  3.6476 -0.7441  3.0061
  652MOL0     H86048   7.955  12.412  -1.113  1.7897  0.3550  0.4679
  652MOL0     H86049   8.010  12.255  -0.932 -0.1234  0.5424 -1.7222
  652MOL0     H86050   7.288  10.890   0.163 -1.0199  1.3796 -0.9431
  652MOL0     H86051   7.128  10.719   0.250  0.9459 -0.1411 -0.5009
  652MOL0     H86052   6.942  10.452   0.610  0.4055  0.6258  1.7633
  652MOL0     H86053   6.763  10.351   0.728 -1.4703 -1.6533 -0.5548
  652MOL0     H86054   6.349  10.444   0.863  0.1166 -1.2952 -1.6237
  652MOL0     H86055   6.501  10.535   0.887  0.6512  0.0391 -0.4262
  652MOL0     H86056   6.604  10.306   0.933  0.4358  0.1774  1.2977
  652MOL0     H86057   6.462  10.330   1.027  0.4782  3.3006 -0.8511
  652MOL0     H86058   6.342  10.205   0.835 -0.2919  3.4287  0.7932
  652MOL0     H86059   6.411  10.126   0.967  1.8508  2.4757  1.8379
  652MOL0     H86060   6.598  10.180   0.739 -1.5759  0.1283 -0.5809
  652MOL0     H86061   6.613  10.044   0.851  1.0469 -0.8985 -2.5428
  652MOL0     H86062   6.419   9.832   0.573  1.7226 -0.2482 -1.4677
  652MOL0     H86063   6.499  10.657   0.555 -0.5565 -2.1966  2.0413
  652MOL0     H86064   6.684  10.759   0.458  1.6221  1.7102  2.2237
  653MOL0     O86065   8.705  10.619   0.565 -0.5408  0.6525  0.1783
  653MOL0     C86066   8.810  10.678   0.544 -0.4861 -0.4550 -1.0873
  653MOL0     O86067   8.829  10.814   0.550  0.2519 -0.5519  1.0615
  653MOL0     C86068   8.719  10.904   0.549 -0.7626 -0.5988  0.4406
  653MOL0     C86069   8.663  10.946   0.424 -0.1968  0.4438 -0.2912
  653MOL0     C86070   8.551  11.028   0.428  0.9943 -0.5720 -0.4553
  653MOL0     C86071   8.497  11.074   0.550 -0.5590 -0.1416  0.2992
  653MOL0     O86072   8.396  11.164   0.533 -0.3973  0.3333 -0.5327
  653MOL0     C86073   8.323  11.214   0.651  0.1075  1.4821  0.0927
  653MOL0     C86074   8.413  11.328   0.720 -0.0256 -0.9265  0.6791
  653MOL0     C86075   8.339  11.421   0.827  0.1776  0.7473  0.0829
  653MOL0     C86076   8.431  11.499   0.923  0.4002  0.9280  0.1665
  653MOL0     C86077   8.360  11.529   1.065 -0.3160  0.3227  0.9799
  653MOL0     C86078   8.262  11.641   1.051 -0.3837  0.0969  0.8035
  653MOL0     C86079   8.314  11.779   1.033 -0.1382 -0.1750 -0.0094
  653MOL0     C86080   8.215  11.891   1.072 -0.1978 -0.3492 -0.2635
  653MOL0     N86081   8.282  12.022   1.053 -0.0481  0.0738 -0.1094
  653MOL0     C86082   8.254  12.112   0.944 -0.0306  0.2178  0.3085
  653MOL0     C86083   8.335  12.216   0.983 -0.9001 -0.0991  0.4307
  653MOL0     C86084   8.355  12.346   0.917 -1.0733 -1.0186  0.9896
  653MOL0     C86085   8.261  12.451   0.990  0.8589  0.5805  0.6737
  653MOL0     C86086   8.258  12.584   0.908  0.1642  0.0570  0.6194
  653MOL0     C86087   8.137  12.683   0.944  0.4770  0.2110 -0.9444
  653MOL0     O86088   8.187  12.815   0.931  0.5178 -0.4314  0.1465
  653MOL0     C86089   8.239  12.877   1.052  0.6657 -0.3420 -0.6273
  653MOL0     C86090   8.265  12.818   1.173 -1.1152  0.7463  0.7258
  653MOL0     C86091   8.321  12.895   1.280 -0.3303  0.0077 -0.7239
  653MOL0     C86092   8.338  13.030   1.273  0.2468 -0.7759  0.9123
  653MOL0     C86093   8.382  13.109   1.394 -0.3612 -0.1437 -0.1147
  653MOL0     O86094   8.367  13.050   1.509 -0.3160  0.2542 -0.3235
  653MOL0     C86095   8.354  13.133   1.619  0.2630  0.8319  0.8948
  653MOL0     C86096   8.474  13.165   1.681 -0.1741  0.5213  0.6151
  653MOL0     C86097   8.471  13.249   1.796 -0.5851 -0.5233  0.5612
  653MOL0     C86098   8.349  13.292   1.836  0.4947  0.7364 -0.4831
  653MOL0     O86099   8.336  13.372   1.948 -1.3629 -0.5446 -0.0468
  653MOL0     C86100   8.246  13.347   2.057  0.1355  0.0245 -0.3896
  653MOL0     C86101   8.285  13.230   2.150 -0.0422  0.7238 -0.6865
  653MOL0     C86102   8.248  13.091   2.107  0.5548  1.0673 -0.4793
  653MOL0     C86103   8.098  13.059   2.127  0.6712 -1.0057 -0.1906
  653MOL0     C86104   8.059  12.926   2.078  0.9327 -0.1943  0.4197
  653MOL0     C86105   8.069  12.902   1.929  0.6230  0.2421  1.3244
  653MOL0     C86106   8.190  12.815   1.884 -0.1795  0.6080  0.1761
  653MOL0     C86107   8.189  12.759   1.742  0.9722  0.3585 -0.9378
  653MOL0    Cl86108   8.341  12.684   1.693  0.1731  0.1482  0.0891
  653MOL0     C86109   8.230  13.257   1.769 -0.0417  0.7086 -0.3004
  653MOL0     C86110   8.238  13.190   1.653 -0.2596  0.2728 -0.4230
  653MOL0     O86111   8.430  13.218   1.377  0.0954  0.4316  0.5352
  653MOL0     C86112   8.305  13.090   1.150  0.1692 -0.3628  0.0916
  653MOL0     C86113   8.265  13.015   1.037  0.6175  0.0920 -0.2885
  653MOL0     N86114   8.400  12.193   1.103 -0.3972 -1.1762 -0.0187
  653MOL0     N86115   8.360  12.077   1.141  0.8389  0.9639  0.0248
  653MOL0     C86116   8.544  11.025   0.666 -0.3207  0.1248  0.0048
  653MOL0     C86117   8.656  10.936   0.666  0.4239  0.1913  0.9110
  653MOL0     C86118   8.914  10.606   0.468  0.5784  0.2462  0.7678
  653MOL0     C86119   8.994  10.679   0.374 -0.1112  0.7022 -0.0258
  653MOL0     C86120   9.098  10.611   0.322 -0.0755  0.6473 -0.1738
  653MOL0     C86121   9.115  10.475   0.317 -0.1279  0.0299 -0.4322
  653MOL0     O86122   9.222  10.434   0.245 -0.0455  0.4820  0.7558
  653MOL0     C86123   9.231  10.298   0.197 -0.3702 -0.6207 -0.7708
  653MOL0     C86124   9.349  10.224   0.267 -0.5747  0.1609  0.8620
  653MOL0     C86125   9.379  10.079   0.223 -0.0872  0.2260  0.4832
  653MOL0     C86126   9.451  10.002   0.329 -0.9623 -0.7864 -0.7115
  653MOL0     C86127   9.596  10.050   0.330  0.5646  1.1182 -0.4384
  653MOL0     C86128   9.708  10.079   0.337 -0.2162 -0.9007 -0.2407
  653MOL0     C86129   9.029  10.403   0.400  0.6387 -0.5005  0.4238
  653MOL0     C86130   8.928  10.470   0.479 -0.1997  0.8831  0.7019
  653MOL0     H86131   8.707  10.914   0.331 -0.2854 -2.6975  0.6329
  653MOL0     H86132   8.525  11.067   0.331 -2.3395  0.5423  0.7241
  653MOL0     H86133   8.295  11.140   0.726 -3.8478  2.5740 -0.0768
  653MOL0     H86134   8.226  11.254   0.622 -0.0253  0.0593 -1.6015
  653MOL0     H86135   8.460  11.397   0.649  1.9067 -0.8575  1.9503
  653MOL0     H86136   8.501  11.281   0.765  1.1756 -0.0611 -0.6412
  653MOL0     H86137   8.282  11.346   0.883 -0.1555 -1.8398 -3.3986
  653MOL0     H86138   8.273  11.488   0.772  1.7853  3.1356  0.8876
  653MOL0     H86139   8.517  11.435   0.939  0.3818  1.2985  1.9562
  653MOL0     H86140   8.484  11.584   0.880  1.3220  0.8727  1.1583
  653MOL0     H86141   8.439  11.565   1.131  0.8198 -0.0191 -0.1550
  653MOL0     H86142   8.318  11.435   1.103 -0.7311 -0.5488 -1.4473
  653MOL0     H86143   8.211  11.626   1.147  1.0856 -2.1314  1.3076
  653MOL0     H86144   8.198  11.612   0.967  2.2587 -0.9855 -0.9440
  653MOL0     H86145   8.406  11.792   1.090  0.7508 -3.2054 -0.5892
  653MOL0     H86146   8.349  11.793   0.930 -0.7053 -0.8450 -0.3071
  653MOL0     H86147   8.187  11.873   1.176 -1.9807 -1.3069 -0.8517
  653MOL0     H86148   8.121  11.885   1.015 -0.3965 -1.0479  0.1210
  653MOL0     H86149   8.193  12.101   0.855  0.5205 -0.6969  0.0303
  653MOL0     H86150   8.332  12.340   0.810 -1.4043  2.0776  0.7833
  653MOL0     H86151   8.459  12.379   0.930 -0.2500 -3.0887  0.0248
  653MOL0     H86152   8.284  12.464   1.096 -1.9999  0.5354  1.3778
  653MOL0     H86153   8.160  12.409   0.985 -0.5784  3.9682 -1.5531
  653MOL0     H86154   8.352  12.637   0.930 -0.3815  0.0406  3.3040
  653MOL0     H86155   8.243  12.561   0.802 -0.4017  0.9883  0.4815
  653MOL0     H86156   8.094  12.657   1.041  1.9200 -0.1233 -0.3557
  653MOL0     H86157   8.056  12.674   0.871  0.2931 -0.2690 -0.6825
  653MOL0     H86158   8.243  12.713   1.187  0.7357  0.3937  1.3063
  653MOL0     H86159   8.348  12.846   1.373 -0.2734  0.8851 -0.2797
  653MOL0     H86160   8.565  13.131   1.634  1.3093  1.2973  2.7568
  653MOL0     H86161   8.567  13.272   1.840 -0.1538 -1.7444  0.3006
  653MOL0     H86162   8.150  13.321   2.013  0.0001  0.0604 -0.1172
  653MOL0     H86163   8.237  13.438   2.117  0.8267  0.7587 -1.3615
  653MOL0     H86164   8.242  13.260   2.246 -0.2854  1.3475 -0.9882
  653MOL0     H86165   8.393  13.241   2.165 -0.1062 -1.5009  2.3316
  653MOL0     H86166   8.302  13.011   2.160 -3.6870 -0.4393  2.0674
  653MOL0     H86167   8.271  13.088   2.000 -0.1274  0.6034 -0.6147
  653MOL0     H86168   8.079  13.056   2.235 -1.3055 -2.4500 -0.5131
  653MOL0     H86169   8.028  13.135   2.090 -0.2474  0.3153  3.7550
  653MOL0     H86170   7.954  12.908   2.103  1.0988 -2.1529 -0.1289
  653MOL0     H86171   8.120  12.844   2.117 -0.5058 -2.6012 -2.0251
  653MOL0     H86172   8.073  12.997   1.876  1.9966  1.7637  3.9288
  653MOL0     H86173   7.972  12.865   1.896  1.1719 -0.1986  0.1476
  653MOL0     H86174   8.280  12.876   1.899  0.0269  0.3629 -0.0770
  653MOL0     H86175   8.198  12.734   1.957 -2.2282  1.7105  1.7324
  653MOL0     H86176   8.156  12.836   1.672 -0.4313  0.8906  0.2570
  653MOL0     H86177   8.109  12.685   1.737 -0.3592  1.7892 -1.7576
  653MOL0     H86178   8.144  13.322   1.779 -0.5077  0.4749 -2.2903
  653MOL0     H86179   8.139  13.187   1.608 -0.7033 -4.0372  0.3761
  653MOL0     H86180   8.297  13.197   1.140 -4.3684 -0.6751 -1.5074
  653MOL0     H86181   8.253  13.068   0.943  1.1941 -0.2506 -0.5654
  653MOL0     H86182   8.500  11.040   0.764  0.8888 -1.1483  0.8030
  653MOL0     H86183   8.699  10.884   0.750 -0.5088 -0.0009  1.2853
  653MOL0     H86184   8.985  10.786   0.359  1.0484  1.1173  1.9153
  653MOL0     H86185   9.185  10.663   0.282 -1.2070  1.8527 -1.1210
  653MOL0     H86186   9.263  10.295   0.093  0.2961 -2.5537 -0.5674
  653MOL0     H86187   9.135  10.247   0.208 -1.1990  1.2138  1.2504
  653MOL0     H86188   9.445  10.271   0.247  0.4487 -1.8008  0.9446
  653MOL0     H86189   9.325  10.217   0.374 -1.2030 -0.4224  0.6915
  653MOL0     H86190   9.436  10.083   0.129 -2.1144 -1.2622 -0.8765
  653MOL0     H86191   9.284  10.027   0.211  0.8027 -0.9472 -2.0436
  653MOL0     H86192   9.412  10.011   0.430  0.3858  1.1713 -0.3000
  653MOL0     H86193   9.449   9.898   0.295  1.8466 -0.7997 -1.1326
  653MOL0     H86194   9.814  10.094   0.334 -0.1434 -0.4366  2.3334
  653MOL0     H86195   9.035  10.295   0.414 -2.0527 -0.5580  1.8326
  653MOL0     H86196   8.866  10.421   0.553  1.9791 -0.6187  1.6075
  654MOL0     O86197   8.438   8.184   2.101  0.4054  0.7765 -0.2261
  654MOL0     C86198   8.358   8.121   2.035  0.7729  0.1071  0.2741
  654MOL0     O86199   8.237   8.073   2.081 -0.2713 -0.1366 -0.1693
  654MOL0     C86200   8.179   8.125   2.190 -0.4710  0.0607 -0.2374
  654MOL0     C86201   8.191   8.248   2.249 -0.5371 -0.2484 -0.3126
  654MOL0     C86202   8.125   8.279   2.371 -0.0181 -0.4895  0.2851
  654MOL0     C86203   8.028   8.190   2.431 -0.5441  0.4439  0.1317
  654MOL0     O86204   7.982   8.223   2.558  0.7998  0.0549 -0.0184
  654MOL0     C86205   7.853   8.165   2.593 -0.7597  0.8342  0.1205
  654MOL0     C86206   7.867   8.074   2.714 -0.0229 -0.0520 -1.4305
  654MOL0     C86207   7.728   8.068   2.782  0.2443  0.2975 -0.7681
  654MOL0     C86208   7.710   7.949   2.877 -1.1010  0.0856  0.1865
  654MOL0     C86209   7.584   7.946   2.964 -0.4079  0.0275 -0.6168
  654MOL0     C86210   7.615   7.867   3.090  0.1113 -0.0522  0.1977
  654MOL0     C86211   7.485   7.851   3.171  0.6769  0.2253 -0.1907
  654MOL0     C86212   7.506   7.801   3.309 -0.0492  0.3409 -0.2187
  654MOL0     N86213   7.377   7.780   3.376 -0.2832 -0.6658  0.1537
  654MOL0     C86214   7.322   7.863   3.474  0.1551 -0.7228  1.1659
  654MOL0     C86215   7.198   7.810   3.479  0.7785 -0.0948 -0.6354
  654MOL0     C86216   7.089   7.869   3.560 -0.2073  0.3284 -0.1553
  654MOL0     C86217   6.994   7.754   3.603 -1.1579  0.1143 -0.0069
  654MOL0     C86218   6.913   7.804   3.722  0.1559  0.6634 -0.3966
  654MOL0     C86219   6.874   7.686   3.813 -1.1717 -0.4305 -0.0497
  654MOL0     O86220   6.789   7.716   3.918 -0.5340 -0.2127 -0.8709
  654MOL0     C86221   6.662   7.756   3.895  0.2231  0.3424 -0.1263
  654MOL0     C86222   6.603   7.754   3.767  0.4185  1.0286 -0.6053
  654MOL0     C86223   6.469   7.789   3.748 -0.7813 -0.1244  0.2870
  654MOL0     C86224   6.400   7.849   3.849 -1.1430 -0.4248  0.4140
  654MOL0     C86225   6.268   7.911   3.838 -0.4808  0.1574  0.6118
  654MOL0     O86226   6.205   7.976   3.942  0.2521  0.2091 -0.2568
  654MOL0     C86227   6.074   8.021   3.921  0.1993  0.7560  0.0087
  654MOL0     C86228   5.973   7.962   3.843 -1.2861 -0.0695 -0.8108
  654MOL0     C86229   5.853   8.028   3.822 -0.4087  0.9395 -0.5563
  654MOL0     C86230   5.817   8.151   3.871  0.4644 -0.1104  0.2385
  654MOL0     O86231   5.691   8.196   3.845  0.0197 -0.1095  0.7792
  654MOL0     C86232   5.657   8.336   3.850 -0.0566 -0.6341 -0.0496
  654MOL0     C86233   5.526   8.394   3.898  0.1590 -0.5373 -0.1723
  654MOL0     C86234   5.461   8.505   3.818 -0.3768  0.7022  0.0868
  654MOL0     C86235   5.546   8.636   3.828 -0.3186  0.3118 -0.4516
  654MOL0     C86236   5.475   8.761   3.775 -0.3535 -0.0598 -0.1499
  654MOL0     C86237   5.501   8.891   3.854 -0.2643 -0.9533  0.6277
  654MOL0     C86238   5.408   9.007   3.814 -0.2505  0.4669  0.7567
  654MOL0     C86239   5.480   9.142   3.855 -0.1875 -0.4811  0.0201
  654MOL0    Cl86240   5.559   9.132   4.011 -0.1049 -0.2470 -0.5184
  654MOL0     C86241   5.924   8.217   3.937  0.2809  0.4263 -0.4257
  654MOL0     C86242   6.051   8.153   3.967  1.1442  0.6863  0.3888
  654MOL0     O86243   6.228   7.908   3.725 -0.3806 -0.3645 -0.2465
  654MOL0     C86244   6.457   7.869   3.978  0.4506 -0.1012 -0.1777
  654MOL0     C86245   6.585   7.812   3.995 -0.4958  0.2486  0.2301
  654MOL0     N86246   7.185   7.699   3.397 -0.4967  0.4926  0.4456
  654MOL0     N86247   7.298   7.674   3.350  0.0641  0.4002 -0.2173
  654MOL0     C86248   8.007   8.065   2.368  0.0736 -0.1219  0.1589
  654MOL0     C86249   8.085   8.039   2.259 -0.0122 -0.3422  1.0888
  654MOL0     C86250   8.405   8.079   1.901 -0.4949  0.4480 -0.4132
  654MOL0     C86251   8.330   7.991   1.829  0.2864 -0.5793 -0.0241
  654MOL0     C86252   8.376   7.943   1.700 -0.7038  0.4141  0.3733
  654MOL0     C86253   8.503   7.971   1.653  0.0566 -0.1853  0.6857
  654MOL0     O86254   8.540   7.936   1.521  0.3634  0.3088 -0.9360
  654MOL0     C86255   8.677   7.956   1.475  0.4980  0.4012  0.1536
  654MOL0     C86256   8.675   8.087   1.392 -0.7465 -1.4207  0.5125
  654MOL0     C86257   8.731   8.062   1.249 -0.9467 -0.3882 -0.6405
  654MOL0     C86258   8.756   8.182   1.167  0.0562  0.2786  0.0039
  654MOL0     C86259   8.634   8.241   1.121  0.7914  0.4536  0.4663
  654MOL0     C86260   8.525   8.282   1.091 -0.1046  1.1088  0.4889
  654MOL0     C86261   8.581   8.063   1.724  0.6235  0.2327  0.3355
  654MOL0     C86262   8.531   8.118   1.845 -0.4858 -0.4213 -0.2803
  654MOL0     H86263   8.264   8.316   2.206  0.7774 -0.3981  1.5413
  654MOL0     H86264   8.149   8.371   2.422 -0.8774 -1.9401  3.5492
  654MOL0     H86265   7.800   8.118   2.509  0.9739  1.8263 -1.6069
  654MOL0     H86266   7.791   8.252   2.619  0.6346  2.1841 -0.9127
  654MOL0     H86267   7.937   8.131   2.776 -0.0625  0.0610 -1.4891
  654MOL0     H86268   7.904   7.977   2.682 -2.8231 -1.7582  0.0617
  654MOL0     H86269   7.644   8.071   2.712  1.8690  1.6192 -2.7448
  654MOL0     H86270   7.703   8.165   2.826 -0.9650  0.0752 -0.9152
  654MOL0     H86271   7.717   7.850   2.832  0.3443  1.3676 -2.6634
  654MOL0     H86272   7.801   7.953   2.938 -0.1129 -4.0232 -0.7141
  654MOL0     H86273   7.497   7.914   2.905 -1.3890  0.4500  0.5650
  654MOL0     H86274   7.575   8.049   2.999  5.3582  0.4410  0.6149
  654MOL0     H86275   7.682   7.932   3.147 -1.8736  1.2621  1.1593
  654MOL0     H86276   7.655   7.768   3.065  1.0250  0.7067 -1.4619
  654MOL0     H86277   7.434   7.947   3.166  1.8942  0.8814 -0.5260
  654MOL0     H86278   7.428   7.771   3.123 -2.5779  1.1106  1.8776
  654MOL0     H86279   7.576   7.867   3.360 -1.6869  2.0399 -0.0895
  654MOL0     H86280   7.560   7.705   3.302 -1.9793 -0.7322 -1.1350
  654MOL0     H86281   7.357   7.953   3.524  0.6317  0.1839 -0.7112
  654MOL0     H86282   7.024   7.934   3.502 -0.9169 -1.0063 -0.8960
  654MOL0     H86283   7.118   7.918   3.654  1.7014  2.0456 -1.5449
  654MOL0     H86284   7.062   7.674   3.631 -0.1271  0.1607 -2.1445
  654MOL0     H86285   6.925   7.717   3.526 -0.1132 -3.5680  0.6527
  654MOL0     H86286   6.973   7.877   3.776 -0.7117  1.4219 -0.4398
  654MOL0     H86287   6.824   7.864   3.705  0.2188  1.4804  1.8874
  654MOL0     H86288   6.962   7.633   3.851 -1.7349 -1.6441 -0.3806
  654MOL0     H86289   6.831   7.613   3.744  0.8770  1.6996 -3.8422
  654MOL0     H86290   6.658   7.721   3.680  1.9434  0.3102  0.5726
  654MOL0     H86291   6.430   7.772   3.648  1.2675  2.0819 -0.9775
  654MOL0     H86292   5.980   7.859   3.809  2.7252 -0.8730  1.7905
  654MOL0     H86293   5.787   7.960   3.769  0.6485  1.4734 -2.6230
  654MOL0     H86294   5.676   8.373   3.749  2.7999  2.3853  1.4267
  654MOL0     H86295   5.718   8.392   3.921  2.9233 -0.7089 -2.3577
  654MOL0     H86296   5.515   8.417   4.005 -0.7119  0.2916 -0.4244
  654MOL0     H86297   5.445   8.320   3.890 -0.4724  0.2915 -1.7519
  654MOL0     H86298   5.365   8.531   3.864 -0.1788 -1.7706  2.0991
  654MOL0     H86299   5.437   8.478   3.715 -1.4216  1.0587  0.2254
  654MOL0     H86300   5.584   8.645   3.931  0.3101  0.2476 -0.6699
  654MOL0     H86301   5.632   8.631   3.761 -0.3064 -1.1632 -0.3706
  654MOL0     H86302   5.369   8.741   3.792 -0.4698  1.2276  0.8152
  654MOL0     H86303   5.476   8.765   3.666  2.4244  1.2579 -0.1633
  654MOL0     H86304   5.603   8.925   3.836 -0.1091 -1.6810  0.0781
  654MOL0     H86305   5.493   8.866   3.960  1.4616  1.1239  1.3338
  654MOL0     H86306   5.380   9.007   3.709 -0.6908  1.2688  0.8578
  654MOL0     H86307   5.314   8.998   3.871  1.1821  0.1939  3.2406
  654MOL0     H86308   5.410   9.226   3.856 -0.7153 -0.9218  0.1964
  654MOL0     H86309   5.560   9.158   3.782 -0.1875 -1.4708 -0.2069
  654MOL0     H86310   5.904   8.319   3.967  2.3634 -0.0308  3.0968
  654MOL0     H86311   6.133   8.206   4.015  1.6668  1.0150 -0.8141
  654MOL0     H86312   6.402   7.911   4.062 -2.8602 -2.0786 -1.1939
  654MOL0     H86313   6.625   7.806   4.096 -0.3755 -1.0750  0.1194
  654MOL0     H86314   7.952   7.980   2.407  0.1760  0.0290  0.6397
  654MOL0     H86315   8.071   7.943   2.210 -3.7461 -0.3510  1.9260
  654MOL0     H86316   8.235   7.948   1.858  0.2191  0.2476  1.0189
  654MOL0     H86317   8.320   7.864   1.650 -0.8118  1.8047 -1.8471
  654MOL0     H86318   8.687   7.864   1.417  1.7262  1.6769 -1.7577
  654MOL0     H86319   8.747   7.950   1.559 -0.3605  0.1495  0.8711
  654MOL0     H86320   8.572   8.125   1.387  0.7520  3.4235  0.7540
  654MOL0     H86321   8.733   8.167   1.439 -1.3415 -0.6215 -0.0749
  654MOL0     H86322   8.676   7.980   1.201 -2.1654 -0.4979  0.8395
  654MOL0     H86323   8.828   8.023   1.280 -0.9489  0.0471 -0.0555
  654MOL0     H86324   8.815   8.246   1.234  2.1530 -2.0425  0.5465
  654MOL0     H86325   8.819   8.162   1.079 -0.8378  5.4071 -2.1523
  654MOL0     H86326   8.426   8.320   1.075 -0.0416  0.8809 -0.5180
  654MOL0     H86327   8.674   8.107   1.690 -0.1412  3.2012  1.7316
  654MOL0     H86328   8.592   8.192   1.895  0.5965  0.3727 -2.6057
  655MOL0     O86329   9.923   8.366   9.319  0.2410 -0.5994 -0.1846
  655MOL0     C86330   9.938   8.289   9.417 -0.4598  0.6310 -0.0793
  655MOL0     O86331   9.896   8.295   9.539 -0.8772  0.0996 -0.6800
  655MOL0     C86332   9.822   8.395   9.600  0.5849  0.3074 -0.3859
  655MOL0     C86333   9.806   8.397   9.745 -0.2833  0.2528 -0.2195
  655MOL0     C86334   9.723   8.477   9.821 -0.0303  0.6677  0.0837
  655MOL0     C86335   9.646   8.564   9.738  0.1928  0.4068  0.5443
  655MOL0     O86336   9.543   8.644   9.790 -0.6034 -0.2613 -0.3986
  655MOL0     C86337   9.481   8.635   9.923  0.6531 -0.1398 -0.6961
  655MOL0     C86338   9.451   8.778   9.972  0.2837  0.4054 -1.1074
  655MOL0     C86339   9.354   8.849   9.877  0.6483 -0.2975  0.4409
  655MOL0     C86340   9.206   8.824   9.866  0.0479  0.2677 -0.5990
  655MOL0     C86341   9.127   8.891   9.983 -0.2797  0.6929 -0.1497
  655MOL0     C86342   8.975   8.873   9.955  0.1320 -0.4819  0.4546
  655MOL0     C86343   8.909   8.734   9.959 -0.2410 -1.0181  0.0777
  655MOL0     C86344   8.764   8.725  10.002  0.1917  0.3341 -0.1316
  655MOL0     N86345   8.740   8.748  10.147  0.0659  0.8564 -0.7143
  655MOL0     C86346   8.748   8.650  10.237  0.1202 -0.1806 -0.1210
  655MOL0     C86347   8.704   8.699  10.355 -0.1674  0.3959 -0.7813
  655MOL0     C86348   8.679   8.622  10.477  0.3595 -0.5350  0.0084
  655MOL0     C86349   8.595   8.705  10.573 -0.7733 -0.9480  0.7847
  655MOL0     C86350   8.520   8.622  10.673  0.2617  0.0477  0.5496
  655MOL0     C86351   8.496   8.687  10.810 -0.6858  0.1545 -0.2110
  655MOL0     O86352   8.616   8.732  10.878  0.0983 -0.6229  0.0468
  655MOL0     C86353   8.606   8.796  11.001  0.4269  0.3033 -0.7459
  655MOL0     C86354   8.497   8.829  11.073 -0.7504 -0.0605  0.2282
  655MOL0     C86355   8.520   8.868  11.206  0.7151  0.9246  0.7980
  655MOL0     C86356   8.647   8.888  11.267 -0.4900 -0.5707  0.2805
  655MOL0     C86357   8.668   8.929  11.411  0.9066 -0.4402 -0.9855
  655MOL0     O86358   8.553   8.969  11.478  0.5378  0.4768  0.0862
  655MOL0     C86359   8.563   9.041  11.590 -0.4976 -0.3055 -0.8299
  655MOL0     C86360   8.543   9.181  11.588 -0.1951  0.6708  0.5646
  655MOL0     C86361   8.550   9.261  11.701  0.7240  1.2209  0.3076
  655MOL0     C86362   8.570   9.185  11.829  0.2312 -1.2088 -0.2504
  655MOL0     O86363   8.566   9.254  11.952  0.3536 -0.5920  0.1300
  655MOL0     C86364   8.440   9.331  11.971 -0.2740 -0.6680 -0.5510
  655MOL0     C86365   8.437   9.392  12.112  0.3192 -0.5809  0.4302
  655MOL0     C86366   8.552   9.489  12.120  0.8861  0.5891 -0.6192
  655MOL0     C86367   8.566   9.533  12.268 -0.3757  0.2022 -0.3041
  655MOL0     C86368   8.681   9.638  12.270  1.2843  0.5889 -0.7296
  655MOL0     C86369   8.738   9.637  12.411 -0.2003  0.2040 -0.0112
  655MOL0     C86370   8.853   9.741  12.422  0.7949  0.0466 -0.0071
  655MOL0     C86371   8.938   9.715  12.543  0.2770 -1.9871  0.0282
  655MOL0    Cl86372   9.045   9.861  12.592 -0.1479  0.3001  0.1572
  655MOL0     C86373   8.597   9.050  11.831  0.4561  0.3041  0.4238
  655MOL0     C86374   8.596   8.977  11.714  0.2274 -0.1875 -0.6596
  655MOL0     O86375   8.777   8.911  11.460 -0.0258  0.4467 -0.5919
  655MOL0     C86376   8.756   8.863  11.181  0.9309 -0.5054  0.3063
  655MOL0     C86377   8.728   8.811  11.058 -0.2954 -0.3893  0.0854
  655MOL0     N86378   8.657   8.825  10.324  0.1763  0.3518 -0.1290
  655MOL0     N86379   8.670   8.851  10.202 -1.2543 -0.0080  0.9178
  655MOL0     C86380   9.674   8.582   9.602  1.1582  0.0013  0.1440
  655MOL0     C86381   9.754   8.490   9.530  0.8651 -0.0406  0.4911
  655MOL0     C86382  10.010   8.169   9.381 -0.8636  0.0965  0.0629
  655MOL0     C86383  10.061   8.077   9.476  0.5430 -0.1130 -0.2118
  655MOL0     C86384  10.124   7.957   9.434 -0.3670 -0.7891  0.0511
  655MOL0     C86385  10.137   7.924   9.296  0.4460 -0.3393 -0.7335
  655MOL0     O86386  10.196   7.817   9.248  0.0367  0.5527  0.4687
  655MOL0     C86387  10.256   7.720   9.332  0.0756 -0.2918  0.4867
  655MOL0     C86388  10.382   7.663   9.266 -0.1817 -0.4567  0.2168
  655MOL0     C86389  10.434   7.558   9.357  0.8790 -0.6832 -0.5319
  655MOL0     C86390  10.511   7.614   9.477 -0.0312 -0.1874 -0.4251
  655MOL0     C86391  10.644   7.658   9.442  0.1945  0.6931 -0.6396
  655MOL0     C86392  10.761   7.677   9.425  0.9796  0.5043 -0.8278
  655MOL0     C86393  10.078   8.009   9.208  0.7053 -0.7417  0.1469
  655MOL0     C86394  10.019   8.126   9.246 -0.1719 -0.5559 -0.9698
  655MOL0     H86395   9.865   8.332   9.809  1.1245  0.8592 -0.8751
  655MOL0     H86396   9.729   8.470   9.929 -0.8622  0.3286  0.1131
  655MOL0     H86397   9.550   8.590   9.994  2.0411 -0.1097 -1.9833
  655MOL0     H86398   9.391   8.573   9.915  1.7831 -1.9755  0.2548
  655MOL0     H86399   9.552   8.819   9.975  1.7161 -2.8621 -0.5558
  655MOL0     H86400   9.408   8.772  10.072  0.7534 -0.4107 -0.9470
  655MOL0     H86401   9.391   8.844   9.774  0.2791  1.3849  0.1838
  655MOL0     H86402   9.371   8.956   9.892  2.8702 -0.3328 -1.2193
  655MOL0     H86403   9.152   8.855   9.776 -1.2241  1.3634  0.4879
  655MOL0     H86404   9.188   8.716   9.870 -3.7972  0.7482 -0.9024
  655MOL0     H86405   9.145   8.998   9.989 -1.8130  0.9091  2.1970
  655MOL0     H86406   9.158   8.844  10.077 -2.2344 -2.9554 -1.1277
  655MOL0     H86407   8.950   8.909   9.855 -3.2540  0.0380  1.3714
  655MOL0     H86408   8.910   8.931  10.022 -1.9796 -1.5899 -0.5362
  655MOL0     H86409   8.913   8.692   9.858 -0.0146 -0.1590 -0.2853
  655MOL0     H86410   8.967   8.673  10.028  2.0297  0.1298 -0.7217
  655MOL0     H86411   8.719   8.629   9.976 -0.9885  0.3583  1.5901
  655MOL0     H86412   8.708   8.804   9.951  0.8884 -0.7121 -2.6247
  655MOL0     H86413   8.786   8.552  10.210  0.6162 -0.3196  1.0269
  655MOL0     H86414   8.769   8.575  10.517 -1.1498 -2.0118  1.8335
  655MOL0     H86415   8.625   8.532  10.449  1.2812 -1.4169  1.0024
  655MOL0     H86416   8.513   8.754  10.519 -0.0944 -4.7597 -4.4722
  655MOL0     H86417   8.657   8.776  10.628 -4.2552  1.3543  2.1090
  655MOL0     H86418   8.420   8.609  10.632  1.0406  0.4360 -1.6274
  655MOL0     H86419   8.564   8.523  10.685 -1.3464 -0.8624 -0.7529
  655MOL0     H86420   8.443   8.613  10.871 -0.3904  0.2087  0.1136
  655MOL0     H86421   8.426   8.771  10.803 -0.0379  0.6653 -0.5937
  655MOL0     H86422   8.398   8.838  11.029  1.0065 -1.2652 -4.7009
  655MOL0     H86423   8.427   8.893  11.257 -0.3444 -0.6700 -0.2549
  655MOL0     H86424   8.528   9.218  11.487  1.2300 -2.1765 -0.8182
  655MOL0     H86425   8.523   9.366  11.700 -1.4292  0.7914 -3.0174
  655MOL0     H86426   8.367   9.252  11.952  1.4498 -2.1445 -1.4493
  655MOL0     H86427   8.421   9.413  11.902  0.6377  1.1185  1.2411
  655MOL0     H86428   8.450   9.313  12.187  2.2558 -0.2811  0.4579
  655MOL0     H86429   8.338   9.437  12.122  0.5953  0.5808 -1.6748
  655MOL0     H86430   8.529   9.559  12.039 -1.1319 -2.8176 -3.2705
  655MOL0     H86431   8.642   9.430  12.105  3.4973  4.4158 -1.5234
  655MOL0     H86432   8.473   9.583  12.298 -2.2775 -3.8044  1.2633
  655MOL0     H86433   8.580   9.449  12.337 -1.3504  0.8101  0.6633
  655MOL0     H86434   8.637   9.736  12.248 -2.0955 -0.9327 -1.3461
  655MOL0     H86435   8.762   9.615  12.200  2.6637 -3.2823  1.8093
  655MOL0     H86436   8.789   9.541  12.417 -1.1316 -0.3239 -0.4345
  655MOL0     H86437   8.670   9.636  12.497  3.2359  1.9088  3.0096
  655MOL0     H86438   8.921   9.730  12.337 -1.3924 -0.3797 -1.7812
  655MOL0     H86439   8.803   9.839  12.419  1.4263  0.3713 -3.3777
  655MOL0     H86440   9.001   9.626  12.536  1.5378 -1.1824  0.9115
  655MOL0     H86441   8.859   9.700  12.617  0.4039 -3.4339 -0.0895
  655MOL0     H86442   8.608   8.996  11.924 -2.4940 -1.7228 -0.2631
  655MOL0     H86443   8.631   8.875  11.722  1.0808  0.0361 -1.3048
  655MOL0     H86444   8.857   8.882  11.216  0.1102  0.9116  2.0394
  655MOL0     H86445   8.817   8.793  10.999  0.7317  1.0188  1.1283
  655MOL0     H86446   9.627   8.660   9.543 -0.5419 -0.8620  0.2891
  655MOL0     H86447   9.771   8.512   9.426 -3.4132  2.7359  0.1010
  655MOL0     H86448  10.046   8.097   9.582  0.5572 -2.8359  0.3866
  655MOL0     H86449  10.159   7.884   9.506 -0.7547 -1.1478 -0.1198
  655MOL0     H86450  10.194   7.631   9.339  2.4908 -1.9660  2.7510
  655MOL0     H86451  10.287   7.770   9.425  0.0678  1.9618 -0.6465
  655MOL0     H86452  10.362   7.626   9.165 -0.7220  1.6392 -0.4878
  655MOL0     H86453  10.450   7.748   9.261 -0.1069 -0.5655 -2.9162
  655MOL0     H86454  10.501   7.484   9.312  1.4854 -2.3912  2.8472
  655MOL0     H86455  10.360   7.494   9.407 -0.6128  2.8376  2.1704
  655MOL0     H86456  10.457   7.694   9.528 -1.2141 -0.4867 -1.1683
  655MOL0     H86457  10.515   7.528   9.543 -0.6137 -0.2053 -0.4116
  655MOL0     H86458  10.861   7.683   9.389  1.6684 -1.8367  0.5021
  655MOL0     H86459  10.099   8.006   9.102  0.0223  2.1962 -0.1750
  655MOL0     H86460   9.986   8.202   9.176 -1.4402 -0.8704 -0.7418
  656MOL0     O86461   9.142   5.181   2.862  0.0653  0.7684  0.3605
  656MOL0     C86462   9.032   5.216   2.902  0.2299 -0.1442 -0.4282
  656MOL0     O86463   8.934   5.132   2.932  0.9806 -0.0216 -0.5474
  656MOL0     C86464   8.961   4.996   2.924  0.5578  0.7637  0.6507
  656MOL0     C86465   8.987   4.913   3.032  0.5070 -0.7810 -0.9841
  656MOL0     C86466   9.011   4.785   3.026 -0.2224  0.2028  0.4197
  656MOL0     C86467   8.998   4.717   2.902 -0.1617 -0.2838 -0.1332
  656MOL0     O86468   9.033   4.592   2.911 -0.2659  0.9169  0.2798
  656MOL0     C86469   9.019   4.512   2.788 -0.3387 -0.4846  0.0802
  656MOL0     C86470   9.085   4.382   2.798  0.6698  0.4721 -0.4269
  656MOL0     C86471   9.063   4.287   2.678 -0.7928 -0.0502  0.4717
  656MOL0     C86472   9.152   4.325   2.553  0.7073  0.0780 -0.8219
  656MOL0     C86473   9.103   4.281   2.423  0.8316  0.5308  0.9571
  656MOL0     C86474   9.087   4.122   2.419  0.1849  1.2242 -0.4485
  656MOL0     C86475   8.982   4.094   2.308  0.0744  0.0464 -0.5835
  656MOL0     C86476   8.952   3.944   2.268 -0.0026 -0.0559 -0.2654
  656MOL0     N86477   9.071   3.911   2.196  1.0684 -0.2333 -0.5492
  656MOL0     C86478   9.182   3.826   2.221  0.4549  0.6635 -0.1034
  656MOL0     C86479   9.226   3.790   2.099 -0.3553  0.1387 -0.1724
  656MOL0     C86480   9.346   3.707   2.071  1.2412  0.5929 -0.8264
  656MOL0     C86481   9.311   3.556   2.075 -0.0861 -0.5049 -0.1430
  656MOL0     C86482   9.336   3.482   1.943 -0.9419 -0.1270  0.2185
  656MOL0     C86483   9.375   3.336   1.968  0.4493 -0.2594 -0.3927
  656MOL0     O86484   9.347   3.258   1.853 -0.1051 -0.4734 -0.3049
  656MOL0     C86485   9.369   3.127   1.857 -0.3964  0.9099 -0.3870
  656MOL0     C86486   9.382   3.040   1.970 -1.0560  0.5232  0.1866
  656MOL0     C86487   9.415   2.908   1.966  0.2182  0.5550  0.4166
  656MOL0     C86488   9.412   2.846   1.832 -0.4777 -0.5726 -0.4537
  656MOL0     C86489   9.452   2.707   1.815 -0.8389  1.0819  0.0538
  656MOL0     O86490   9.455   2.668   1.685 -0.6742  0.1487 -0.5284
  656MOL0     C86491   9.412   2.547   1.639 -0.1977 -0.0207 -0.6065
  656MOL0     C86492   9.468   2.501   1.522  0.7859  0.4864 -0.1047
  656MOL0     C86493   9.410   2.391   1.467 -0.6825  1.0849  0.5324
  656MOL0     C86494   9.309   2.307   1.519  0.5152  0.3508 -0.0548
  656MOL0     O86495   9.242   2.199   1.459 -0.0583  0.3409 -0.7761
  656MOL0     C86496   9.287   2.152   1.329 -0.9550 -0.1632 -1.0860
  656MOL0     C86497   9.218   2.009   1.306 -0.6058 -0.4686 -0.3232
  656MOL0     C86498   9.281   1.930   1.185 -0.1316  0.2284 -1.4941
  656MOL0     C86499   9.296   2.021   1.066 -0.7891 -0.3065 -0.2064
  656MOL0     C86500   9.355   1.951   0.949  0.1067  0.2101  0.2707
  656MOL0     C86501   9.408   2.049   0.841  1.7412 -0.1087  0.5454
  656MOL0     C86502   9.394   1.973   0.703 -0.7243 -0.1249  0.0479
  656MOL0     C86503   9.495   1.867   0.707 -0.0280  1.4058  0.1210
  656MOL0    Cl86504   9.660   1.938   0.684 -0.0196  0.3529 -0.0395
  656MOL0     C86505   9.264   2.346   1.649 -0.2848  0.1931 -0.5025
  656MOL0     C86506   9.321   2.459   1.709  0.3080  0.1652 -0.0792
  656MOL0     O86507   9.464   2.633   1.914 -0.1236 -0.0672 -0.0523
  656MOL0     C86508   9.409   2.931   1.719  0.7553 -0.5861  0.1776
  656MOL0     C86509   9.389   3.065   1.731 -0.1983  0.8505  0.1058
  656MOL0     N86510   9.154   3.856   2.001 -0.1748  0.3199  0.4265
  656MOL0     N86511   9.059   3.921   2.066  0.7045 -0.9163 -0.8061
  656MOL0     C86512   8.964   4.794   2.791 -0.2389  0.9722  0.2159
  656MOL0     C86513   8.941   4.930   2.806 -0.9530  0.3023  0.2487
  656MOL0     C86514   9.022   5.367   2.904  0.1329  0.2497  0.3235
  656MOL0     C86515   8.903   5.438   2.910  0.2749 -1.3473 -0.0286
  656MOL0     C86516   8.894   5.577   2.900  0.7069 -0.2038 -0.8565
  656MOL0     C86517   9.009   5.654   2.885 -0.5910 -0.2166 -0.6688
  656MOL0     O86518   9.004   5.793   2.852 -0.2889 -0.4569  0.1215
  656MOL0     C86519   8.875   5.849   2.827 -0.6360  0.6743 -0.7113
  656MOL0     C86520   8.891   5.983   2.745  1.1476 -0.1966  0.1394
  656MOL0     C86521   8.919   6.101   2.834 -0.8755 -0.2011 -1.1427
  656MOL0     C86522   8.939   6.239   2.749 -0.2443 -0.2429 -0.4115
  656MOL0     C86523   8.898   6.240   2.608 -0.0992 -0.1826 -0.9000
  656MOL0     C86524   8.865   6.239   2.499  0.0761  0.5556  0.2383
  656MOL0     C86525   9.137   5.587   2.897  0.5195  0.5900 -0.4168
  656MOL0     C86526   9.140   5.448   2.912  0.7520 -0.3647 -0.1298
  656MOL0     H86527   8.994   4.973   3.123 -2.5716 -0.1520 -1.0480
  656MOL0     H86528   9.032   4.726   3.114 -1.4155 -2.2910 -0.8678
  656MOL0     H86529   9.069   4.558   2.702  2.2951  0.1279  1.8136
  656MOL0     H86530   8.912   4.494   2.771 -1.3743  4.1466  0.1065
  656MOL0     H86531   9.049   4.331   2.887  0.0526 -0.5728 -1.2506
  656MOL0     H86532   9.194   4.391   2.807  0.7123  1.7019 -1.7783
  656MOL0     H86533   8.956   4.285   2.656 -1.2718 -2.4089  2.5152
  656MOL0     H86534   9.085   4.182   2.701  2.5409  0.0676 -1.4857
  656MOL0     H86535   9.160   4.434   2.554  2.9431 -0.0326 -1.3903
  656MOL0     H86536   9.256   4.294   2.565  1.2095  1.6693 -0.8811
  656MOL0     H86537   9.168   4.317   2.342 -2.2366  0.7581 -1.6137
  656MOL0     H86538   9.003   4.323   2.408  0.7275  0.8024  2.3313
  656MOL0     H86539   9.063   4.088   2.521  1.3871  0.0486 -0.5428
  656MOL0     H86540   9.185   4.085   2.390  0.4309 -0.1055  1.8273
  656MOL0     H86541   8.892   4.125   2.362  1.1585 -1.9092  2.5929
  656MOL0     H86542   8.996   4.153   2.217  2.2758 -1.1299 -1.0803
  656MOL0     H86543   8.864   3.932   2.205 -0.7989 -3.3820  1.2451
  656MOL0     H86544   8.937   3.883   2.357 -0.6890 -2.2138 -1.7796
  656MOL0     H86545   9.221   3.780   2.311  3.6057  0.7589 -1.2806
  656MOL0     H86546   9.424   3.732   2.142  1.2038  1.7748 -1.1916
  656MOL0     H86547   9.385   3.733   1.972  3.3730 -1.2648 -0.5540
  656MOL0     H86548   9.206   3.541   2.102 -0.0671 -2.2552 -0.8989
  656MOL0     H86549   9.361   3.503   2.156 -0.2586  1.2009  1.1411
  656MOL0     H86550   9.252   3.488   1.874  1.5339  1.6085 -2.9376
  656MOL0     H86551   9.405   3.543   1.883 -0.3159 -0.8387  0.2038
  656MOL0     H86552   9.307   3.302   2.047 -2.5351  3.8843 -0.8445
  656MOL0     H86553   9.478   3.331   2.005  0.2052  1.6623  0.6749
  656MOL0     H86554   9.396   3.090   2.065 -3.1632  1.3665  0.1107
  656MOL0     H86555   9.442   2.858   2.058 -3.3752  2.2219  2.6184
  656MOL0     H86556   9.553   2.549   1.475 -1.3621  1.9035 -2.8691
  656MOL0     H86557   9.435   2.372   1.363 -0.8172 -3.6352  1.1644
  656MOL0     H86558   9.396   2.157   1.320 -1.0475  0.2168 -2.0806
  656MOL0     H86559   9.247   2.218   1.252 -1.2054 -0.7420 -1.4560
  656MOL0     H86560   9.111   2.017   1.286 -0.3946  0.9220 -1.0313
  656MOL0     H86561   9.233   1.947   1.395  3.9732  1.2858  0.4163
  656MOL0     H86562   9.208   1.851   1.168 -0.6414  0.8078 -2.0760
  656MOL0     H86563   9.376   1.883   1.210 -2.2392 -3.6686  0.1345
  656MOL0     H86564   9.193   2.056   1.054 -1.3224 -1.7396 -0.0117
  656MOL0     H86565   9.369   2.099   1.088  1.4069 -2.0720 -0.9436
  656MOL0     H86566   9.269   1.895   0.912 -0.4319  0.6462  0.8381
  656MOL0     H86567   9.432   1.880   0.980  1.1042  0.9014 -0.5874
  656MOL0     H86568   9.514   2.071   0.855  2.8040 -2.8363 -2.2016
  656MOL0     H86569   9.343   2.137   0.837 -2.4687 -2.7935  2.7452
  656MOL0     H86570   9.294   1.929   0.704 -0.1767 -1.4344 -0.7792
  656MOL0     H86571   9.418   2.030   0.613  1.9781 -2.4518 -0.8575
  656MOL0     H86572   9.476   1.800   0.623  1.4519  1.5148 -0.3340
  656MOL0     H86573   9.489   1.810   0.801 -3.1508 -0.9307 -1.3210
  656MOL0     H86574   9.185   2.285   1.691 -2.4418  2.4087 -1.1042
  656MOL0     H86575   9.269   2.481   1.802 -3.2978 -0.8588 -1.6972
  656MOL0     H86576   9.416   2.891   1.619  1.4417 -3.8115  1.3788
  656MOL0     H86577   9.373   3.125   1.643  1.3664 -0.7859 -1.3769
  656MOL0     H86578   8.958   4.756   2.689  1.3638 -1.6109  1.0071
  656MOL0     H86579   8.903   4.980   2.717 -0.4242  0.9301  0.3704
  656MOL0     H86580   8.805   5.393   2.925  0.3800 -1.2370  1.0953
  656MOL0     H86581   8.798   5.626   2.903  0.5883 -0.3683 -1.7088
  656MOL0     H86582   8.838   5.873   2.927  1.9396  1.0023  0.2351
  656MOL0     H86583   8.821   5.776   2.765  3.1789 -1.6862 -1.5989
  656MOL0     H86584   8.980   5.971   2.681  0.1367 -2.0019 -1.0248
  656MOL0     H86585   8.800   6.000   2.687  0.5258 -2.7871  0.2301
  656MOL0     H86586   9.005   6.074   2.895 -3.1213 -1.2673  1.7704
  656MOL0     H86587   8.833   6.115   2.900 -0.2837 -0.7627 -0.2503
  656MOL0     H86588   8.878   6.308   2.810  0.0374  0.9720 -1.4638
  656MOL0     H86589   9.046   6.259   2.760  1.2489 -4.8893 -3.6467
  656MOL0     H86590   8.837   6.243   2.395 -0.1590 -0.7037  0.2448
  656MOL0     H86591   9.222   5.654   2.899  2.1361 -1.3569 -0.7854
  656MOL0     H86592   9.235   5.397   2.927  0.5666 -0.4472  0.8456
  657MOL0     O86593   5.503  10.827   3.055 -0.0270  0.7560 -0.7179
  657MOL0     C86594   5.436  10.724   3.082  0.2014  0.1148 -0.0691
  657MOL0     O86595   5.483  10.603   3.090 -1.3222 -0.0856 -0.5443
  657MOL0     C86596   5.622  10.594   3.106  1.2007  0.3335  0.2120
  657MOL0     C86597   5.687  10.632   3.219  0.1552  0.0035  0.3723
  657MOL0     C86598   5.826  10.637   3.224 -0.2747  0.2188  0.5625
  657MOL0     C86599   5.908  10.583   3.121 -0.5748 -0.7443  1.0353
  657MOL0     O86600   6.045  10.604   3.118  0.2334 -0.4253 -0.3931
  657MOL0     C86601   6.130  10.551   3.012  0.6052 -0.5725 -0.0830
  657MOL0     C86602   6.147  10.401   2.998 -0.1234  0.0074 -0.7856
  657MOL0     C86603   6.237  10.354   3.116 -0.1948 -0.1452 -0.2967
  657MOL0     C86604   6.239  10.203   3.154 -0.5940 -0.0491 -0.8683
  657MOL0     C86605   6.343  10.162   3.259 -0.7714  0.8195  0.0576
  657MOL0     C86606   6.295  10.040   3.347 -0.3973 -1.1723  0.1832
  657MOL0     C86607   6.232  10.076   3.482 -0.4927  0.5158  0.8034
  657MOL0     C86608   6.097  10.138   3.460 -0.2136  0.3551 -0.1215
  657MOL0     N86609   6.034  10.148   3.597  0.4329  0.0699  0.1381
  657MOL0     C86610   5.975  10.052   3.666 -0.3013  0.3981 -0.9255
  657MOL0     C86611   5.970  10.102   3.794 -0.1059 -0.5053  0.2316
  657MOL0     C86612   5.914  10.042   3.916  0.4187  0.1340 -0.2621
  657MOL0     C86613   5.760  10.054   3.934  1.2010  0.3224  0.1684
  657MOL0     C86614   5.684   9.941   3.868 -0.3923  0.2274  0.4229
  657MOL0     C86615   5.536   9.934   3.888  0.7653  0.1298  0.2085
  657MOL0     O86616   5.460  10.053   3.850  0.4464  0.3556  0.2480
  657MOL0     C86617   5.322  10.036   3.853 -0.4910 -0.0790 -0.0287
  657MOL0     C86618   5.254   9.918   3.885  0.2736  1.1586 -0.0804
  657MOL0     C86619   5.115   9.913   3.894 -0.8961  0.3809 -1.2391
  657MOL0     C86620   5.040  10.026   3.864 -0.6772 -0.6323 -0.6393
  657MOL0     C86621   4.891  10.013   3.852 -0.7143  0.7658  0.2155
  657MOL0     O86622   4.839   9.890   3.886 -0.6565  0.4881  0.5166
  657MOL0     C86623   4.696   9.878   3.890 -0.4440 -0.3239 -0.2830
  657MOL0     C86624   4.628   9.941   3.995  1.5009  1.2466  0.3522
  657MOL0     C86625   4.487   9.921   4.011 -0.3046  0.2628  0.0134
  657MOL0     C86626   4.421   9.831   3.922  0.3636 -0.8437 -0.2405
  657MOL0     O86627   4.289   9.803   3.936  0.2527  1.5622  0.2010
  657MOL0     C86628   4.199   9.914   3.919  0.7428 -0.4866 -0.0631
  657MOL0     C86629   4.067   9.848   3.884  0.3896  1.0807 -0.5075
  657MOL0     C86630   3.945   9.949   3.886 -0.2590  0.2065 -0.3427
  657MOL0     C86631   3.963  10.051   3.779 -0.7263 -0.2406 -0.3472
  657MOL0     C86632   3.867  10.174   3.791 -0.9368  0.6834 -0.3227
  657MOL0     C86633   3.725  10.133   3.780  0.6306 -1.0885  0.1972
  657MOL0     C86634   3.635  10.244   3.728  0.2112 -0.1373 -0.6812
  657MOL0     C86635   3.490  10.206   3.713  0.7053  0.7788  0.1854
  657MOL0    Cl86636   3.404  10.313   3.595  0.3377  0.0229 -0.1413
  657MOL0     C86637   4.492   9.760   3.830  0.7063  1.1401  0.6420
  657MOL0     C86638   4.632   9.785   3.805 -0.1657  0.5168 -0.2506
  657MOL0     O86639   4.837  10.114   3.835  0.3496  0.1788 -0.5440
  657MOL0     C86640   5.106  10.147   3.843 -0.6317  0.0748 -0.4775
  657MOL0     C86641   5.248  10.154   3.835 -0.2192  0.4734 -0.6289
  657MOL0     N86642   6.006  10.236   3.789 -0.1693  0.2472 -0.9633
  657MOL0     N86643   6.048  10.258   3.670  0.1291  0.0379  1.1189
  657MOL0     C86644   5.847  10.538   3.005  0.4793  0.2465  0.4086
  657MOL0     C86645   5.702  10.540   3.003 -0.1001 -0.6286 -0.9366
  657MOL0     C86646   5.285  10.739   3.104 -0.3892  1.4698 -0.1830
  657MOL0     C86647   5.223  10.628   3.163  0.4014 -0.3042  0.9513
  657MOL0     C86648   5.084  10.645   3.184  0.4118 -0.4893  0.3640
  657MOL0     C86649   5.014  10.759   3.146  0.0996 -0.1901  0.1193
  657MOL0     O86650   4.878  10.765   3.185  0.3484 -0.3715  0.2445
  657MOL0     C86651   4.801  10.883   3.161  0.0523  0.2816 -1.3391
  657MOL0     C86652   4.664  10.847   3.202 -0.5938  0.1175  0.5562
  657MOL0     C86653   4.576  10.968   3.199 -0.2595 -0.3254  0.1751
  657MOL0     C86654   4.429  10.956   3.257 -0.7447 -0.6161  0.4195
  657MOL0     C86655   4.370  10.826   3.213  0.6157  0.7947  1.1363
  657MOL0     C86656   4.305  10.725   3.179  0.7285 -0.1547 -0.6314
  657MOL0     C86657   5.086  10.855   3.078  0.0859  0.2357  0.2722
  657MOL0     C86658   5.220  10.852   3.061  0.3591  0.0255  0.5497
  657MOL0     H86659   5.626  10.670   3.300 -1.0491  0.6467 -0.7877
  657MOL0     H86660   5.865  10.681   3.315  1.8947 -1.0477  0.3195
  657MOL0     H86661   6.229  10.583   3.044  0.1289  2.2394 -1.1562
  657MOL0     H86662   6.119  10.601   2.916  3.0803 -1.7462 -1.0568
  657MOL0     H86663   6.184  10.381   2.897 -0.1297  0.9354 -0.9762
  657MOL0     H86664   6.053  10.344   3.001  0.7384 -1.4264 -0.0433
  657MOL0     H86665   6.201  10.414   3.200  0.8901  2.7543 -1.7766
  657MOL0     H86666   6.343  10.375   3.097 -0.5118 -0.6843 -3.1445
  657MOL0     H86667   6.138  10.167   3.175 -1.4068  0.8264 -2.9885
  657MOL0     H86668   6.269  10.146   3.065  2.5294  2.6053 -1.7014
  657MOL0     H86669   6.356  10.254   3.316  1.2280  0.4494  0.2827
  657MOL0     H86670   6.442  10.131   3.223 -1.1458 -0.3640  0.0332
  657MOL0     H86671   6.390   9.990   3.370  1.2434  0.5175 -2.4226
  657MOL0     H86672   6.235   9.969   3.289  3.3351 -2.5821 -2.3278
  657MOL0     H86673   6.221   9.979   3.531  3.0732  0.0202  0.8758
  657MOL0     H86674   6.293  10.144   3.543  2.3319  1.7881 -3.0387
  657MOL0     H86675   6.027  10.077   3.403 -2.3440  0.7617  1.8972
  657MOL0     H86676   6.109  10.234   3.410 -1.1240 -0.0059 -1.0623
  657MOL0     H86677   5.933   9.956   3.639  0.7522 -0.4656  0.3922
  657MOL0     H86678   5.959  10.076   4.010 -1.8491 -1.0901  1.3559
  657MOL0     H86679   5.954   9.940   3.924  1.8377  0.7450  1.0385
  657MOL0     H86680   5.726  10.146   3.887 -0.1986 -0.7887 -1.1022
  657MOL0     H86681   5.728  10.064   4.038 -0.3091 -1.5981 -0.0448
  657MOL0     H86682   5.710   9.949   3.762 -0.4911  2.1149  0.5098
  657MOL0     H86683   5.731   9.848   3.903 -0.9586  1.2505  4.3512
  657MOL0     H86684   5.527   9.911   3.995  2.8692 -1.5582  0.0964
  657MOL0     H86685   5.512   9.847   3.826  1.4066 -0.2652  0.5061
  657MOL0     H86686   5.313   9.831   3.912 -0.4827  1.1546  1.7037
  657MOL0     H86687   5.068   9.817   3.908  0.3751 -0.6842 -3.5992
  657MOL0     H86688   4.667  10.019   4.061 -0.9414  1.6892  1.3642
  657MOL0     H86689   4.436   9.975   4.090  0.3839  0.6308  0.2067
  657MOL0     H86690   4.228   9.975   3.833 -2.2930  1.8360  0.3881
  657MOL0     H86691   4.172   9.978   4.004  0.5965 -0.2100 -0.3182
  657MOL0     H86692   4.050   9.758   3.943  2.0216 -1.9476 -4.2510
  657MOL0     H86693   4.084   9.820   3.780 -2.6004 -1.5587 -0.4325
  657MOL0     H86694   3.943   9.998   3.984 -1.9601 -2.5706  1.1584
  657MOL0     H86695   3.855   9.888   3.874 -0.2441 -0.7824  3.2968
  657MOL0     H86696   4.070  10.071   3.771 -0.3941 -0.8868  1.7747
  657MOL0     H86697   3.948   9.993   3.687 -0.1684 -0.7838 -0.0992
  657MOL0     H86698   3.904  10.240   3.712 -1.1876  2.9517  1.3704
  657MOL0     H86699   3.877  10.213   3.892 -1.0297 -3.5289  1.5298
  657MOL0     H86700   3.700  10.097   3.880  0.4583 -4.4534 -0.9145
  657MOL0     H86701   3.699  10.047   3.717 -0.5186 -0.2260 -0.5542
  657MOL0     H86702   3.632  10.324   3.802  2.1112 -0.1982 -0.4696
  657MOL0     H86703   3.665  10.293   3.635  0.6160  1.1386  0.0991
  657MOL0     H86704   3.452  10.211   3.816  0.7109  2.0564  0.1384
  657MOL0     H86705   3.491  10.102   3.677 -1.6645  1.4581 -2.1299
  657MOL0     H86706   4.437   9.681   3.779 -2.1311  2.2731  1.7297
  657MOL0     H86707   4.684   9.716   3.739  1.0462 -0.6303  1.7845
  657MOL0     H86708   5.050  10.239   3.832  2.5899  2.4644  1.3656
  657MOL0     H86709   5.299  10.249   3.823 -1.3363  1.0721 -0.8152
  657MOL0     H86710   5.896  10.491   2.921 -1.6168 -0.7662 -0.3097
  657MOL0     H86711   5.653  10.497   2.916 -0.4891 -2.4616  0.1235
  657MOL0     H86712   5.272  10.541   3.205 -0.0765 -1.9489 -1.6760
  657MOL0     H86713   5.019  10.568   3.225 -0.8629 -0.8911 -2.1816
  657MOL0     H86714   4.779  10.912   3.058 -2.1390 -1.9716 -1.6006
  657MOL0     H86715   4.850  10.970   3.205  0.4285 -1.0358  1.0322
  657MOL0     H86716   4.618  10.768   3.142 -0.3619 -1.3649  2.2356
  657MOL0     H86717   4.660  10.808   3.304  0.5180 -1.9480 -0.1215
  657MOL0     H86718   4.582  11.017   3.101 -0.2014 -0.2952  0.1937
  657MOL0     H86719   4.622  11.043   3.263 -3.3288  0.6497  1.4452
  657MOL0     H86720   4.443  10.947   3.365 -1.5248 -1.3869  0.4622
  657MOL0     H86721   4.370  11.041   3.222  2.9949  1.1101 -2.4797
  657MOL0     H86722   4.247  10.643   3.141 -1.6440  0.9694  0.3814
  657MOL0     H86723   5.048  10.953   3.049  4.1150  2.5938  2.0135
  657MOL0     H86724   5.261  10.937   3.008 -2.1768  0.9287 -0.1476
  658MOL0     O86725   2.417   1.950   6.999  0.5643  1.1058  0.3841
  658MOL0     C86726   2.417   1.835   7.052 -0.1105 -0.6635  0.6517
  658MOL0     O86727   2.327   1.789   7.142 -0.1911  0.2492  0.0104
  658MOL0     C86728   2.235   1.875   7.191  0.0985 -0.1006 -0.2167
  658MOL0     C86729   2.091   1.855   7.185  0.8343 -0.5025  0.9026
  658MOL0     C86730   2.004   1.955   7.231  0.6699  0.2038  0.4285
  658MOL0     C86731   2.045   2.076   7.284  0.1612 -0.0741 -0.9743
  658MOL0     O86732   1.946   2.168   7.320  0.8519  0.2266  0.0927
  658MOL0     C86733   1.962   2.294   7.248 -0.6608  0.6040 -0.5688
  658MOL0     C86734   1.865   2.391   7.312 -0.6792 -0.5163 -0.9426
  658MOL0     C86735   1.721   2.371   7.265  0.5659  0.1834 -0.4002
  658MOL0     C86736   1.685   2.451   7.135  0.5952  0.3527 -0.1142
  658MOL0     C86737   1.564   2.374   7.065 -0.9952  1.1766  0.6876
  658MOL0     C86738   1.616   2.251   6.983  0.0021 -0.6634 -0.3929
  658MOL0     C86739   1.522   2.168   6.905  0.6765  0.1026  0.0474
  658MOL0     C86740   1.423   2.257   6.825  0.1299  0.4645 -0.0090
  658MOL0     N86741   1.318   2.176   6.759  0.5340 -0.3889 -0.1260
  658MOL0     C86742   1.336   2.090   6.661  0.6174 -0.7396  0.6414
  658MOL0     C86743   1.214   2.052   6.616  0.7241 -0.6907 -0.6349
  658MOL0     C86744   1.178   1.964   6.504  0.2268 -0.2998  0.7065
  658MOL0     C86745   1.253   2.006   6.378 -0.5963 -0.1825  0.5075
  658MOL0     C86746   1.217   1.939   6.250  0.1849  0.7299  0.1833
  658MOL0     C86747   1.221   1.786   6.266 -0.0033 -0.2955  0.4204
  658MOL0     O86748   1.251   1.709   6.145 -0.8767 -0.1537 -0.6001
  658MOL0     C86749   1.152   1.685   6.051  0.4584  0.1556 -0.6017
  658MOL0     C86750   1.188   1.602   5.943  0.9033  0.0767  0.0366
  658MOL0     C86751   1.101   1.562   5.845 -0.1339 -0.0406 -0.1746
  658MOL0     C86752   0.963   1.609   5.851  0.5471 -0.4432  0.5399
  658MOL0     C86753   0.876   1.573   5.741  0.6867  0.5251  0.0485
  658MOL0     O86754   0.743   1.608   5.756  0.2867  0.0499  0.1169
  658MOL0     C86755   0.656   1.540   5.670 -1.0814  0.0490  0.2299
  658MOL0     C86756   0.639   1.402   5.667 -0.5390  0.1271 -0.3945
  658MOL0     C86757   0.547   1.339   5.580 -0.0927  0.4153 -0.3215
  658MOL0     C86758   0.449   1.420   5.504 -2.0016 -0.7673 -0.2390
  658MOL0     O86759   0.360   1.352   5.421 -0.1933  0.1172 -0.5702
  658MOL0     C86760   0.241   1.433   5.402  0.9395 -0.1239 -0.0722
  658MOL0     C86761   0.127   1.332   5.389  0.1586  0.9229 -0.1150
  658MOL0     C86762   0.098   1.240   5.512  0.1476 -0.4909 -0.0610
  658MOL0     C86763  -0.019   1.149   5.484  0.7244  0.5895 -0.4242
  658MOL0     C86764  -0.040   1.051   5.596 -0.7712 -0.7225 -0.1088
  658MOL0     C86765  -0.146   0.945   5.571  0.6979 -0.0521 -0.1633
  658MOL0     C86766  -0.110   0.831   5.475  0.1853  0.4485  0.1073
  658MOL0     C86767  -0.021   0.731   5.536 -0.4221  0.6877  0.9278
  658MOL0    Cl86768  -0.096   0.639   5.680  0.1809 -0.0374 -0.5470
  658MOL0     C86769   0.462   1.563   5.519 -0.1934 -0.3287 -0.1794
  658MOL0     C86770   0.570   1.621   5.597 -0.0635 -0.2217 -0.0326
  658MOL0     O86771   0.925   1.510   5.643  0.2962 -0.6185 -0.5438
  658MOL0     C86772   0.916   1.675   5.967  0.0764  0.3834  0.3141
  658MOL0     C86773   1.013   1.716   6.061 -0.3862 -0.2151 -0.1706
  658MOL0     N86774   1.128   2.126   6.685 -0.4760  0.5242  0.9874
  658MOL0     N86775   1.192   2.208   6.766  0.0065  0.2365  0.3366
  658MOL0     C86776   2.182   2.099   7.297  1.2902  0.1682 -0.1873
  658MOL0     C86777   2.270   1.995   7.256  0.3308  0.0211  0.2844
  658MOL0     C86778   2.541   1.750   7.034  1.0962 -0.4352  0.4122
  658MOL0     C86779   2.620   1.752   6.923 -0.2489 -0.1605 -0.4347
  658MOL0     C86780   2.746   1.692   6.911  0.8089  0.3467 -0.6605
  658MOL0     C86781   2.798   1.624   7.026 -0.2745 -1.2459 -0.4000
  658MOL0     O86782   2.914   1.551   7.030  0.5286  0.3403  0.1816
  658MOL0     C86783   2.976   1.533   6.903 -0.9563 -0.0344  0.0788
  658MOL0     C86784   3.084   1.419   6.896  0.9209 -0.9312 -0.3907
  658MOL0     C86785   3.203   1.451   6.977 -0.8333  0.0442 -1.0834
  658MOL0     C86786   3.324   1.350   6.974  0.3089  0.3872 -0.3378
  658MOL0     C86787   3.389   1.381   6.843 -0.0215  0.3068  1.1168
  658MOL0     C86788   3.426   1.378   6.730  0.5680 -0.4106 -0.3224
  658MOL0     C86789   2.729   1.624   7.146  0.5464 -1.0040  0.5879
  658MOL0     C86790   2.604   1.692   7.147 -0.1101  0.8323 -0.7557
  658MOL0     H86791   2.044   1.760   7.162  0.8863 -0.4990  0.7802
  658MOL0     H86792   1.898   1.930   7.230  1.0866 -1.7102  1.3555
  658MOL0     H86793   1.943   2.294   7.140 -2.2055 -0.0305 -0.3136
  658MOL0     H86794   2.066   2.327   7.261  0.7940 -3.3199 -0.9065
  658MOL0     H86795   1.895   2.493   7.288  1.2374 -0.2990  1.8862
  658MOL0     H86796   1.869   2.376   7.420 -2.8460 -0.2956 -0.8071
  658MOL0     H86797   1.655   2.399   7.347  4.1274  3.3472  1.7052
  658MOL0     H86798   1.710   2.265   7.238  5.3176 -0.7251  0.2865
  658MOL0     H86799   1.640   2.548   7.162 -1.5808 -0.1934 -1.4909
  658MOL0     H86800   1.769   2.455   7.066  0.1864  0.9198 -0.5946
  658MOL0     H86801   1.515   2.439   6.992 -2.7634 -2.0744 -1.2860
  658MOL0     H86802   1.487   2.345   7.138  1.0367  0.3333  2.6279
  658MOL0     H86803   1.657   2.179   7.056 -1.0970 -1.4737 -0.5455
  658MOL0     H86804   1.691   2.292   6.915 -0.2637 -1.5581 -1.2483
  658MOL0     H86805   1.570   2.088   6.847  1.0097  0.7493 -0.5929
  658MOL0     H86806   1.469   2.107   6.979  2.7103 -2.8189 -0.7104
  658MOL0     H86807   1.492   2.296   6.749  0.7088  0.4093  0.4881
  658MOL0     H86808   1.383   2.341   6.883  0.5937 -0.8417  2.2840
  658MOL0     H86809   1.425   2.052   6.613 -0.2271 -0.9794 -0.8012
  658MOL0     H86810   1.069   1.968   6.492  0.1854  3.3474  1.3450
  658MOL0     H86811   1.203   1.865   6.544  0.2132  0.8457  3.8433
  658MOL0     H86812   1.362   2.001   6.390 -0.5007  2.1374  1.1508
  658MOL0     H86813   1.239   2.114   6.369  5.4018  0.8541 -0.2649
  658MOL0     H86814   1.120   1.969   6.210  1.8073  1.9342 -3.2575
  658MOL0     H86815   1.297   1.966   6.180  1.5280 -1.7699  0.6330
  658MOL0     H86816   1.124   1.767   6.312  0.7133  1.8630  3.0802
  658MOL0     H86817   1.288   1.747   6.343 -1.5206 -4.1650  0.0401
  658MOL0     H86818   1.294   1.578   5.948  2.3412  5.4357  1.7705
  658MOL0     H86819   1.139   1.508   5.758 -1.5786 -1.2100 -0.1211
  658MOL0     H86820   0.711   1.341   5.721 -0.3149 -1.1381 -2.0518
  658MOL0     H86821   0.549   1.231   5.579 -0.4207  0.4082 -0.4647
  658MOL0     H86822   0.245   1.502   5.317 -1.9226 -0.2172 -0.3918
  658MOL0     H86823   0.219   1.498   5.486  0.6334  0.2867 -0.4672
  658MOL0     H86824   0.150   1.252   5.317  1.5118 -3.1443  4.3349
  658MOL0     H86825   0.034   1.380   5.358 -1.1319 -1.0829  0.4365
  658MOL0     H86826   0.076   1.302   5.599  0.2850  0.7103 -0.8579
  658MOL0     H86827   0.189   1.183   5.533  1.9499  0.8352 -3.4898
  658MOL0     H86828  -0.110   1.207   5.471  0.3786  0.5483  1.5478
  658MOL0     H86829   0.008   1.086   5.398  1.9092  2.6010 -1.6100
  658MOL0     H86830  -0.081   1.110   5.679 -1.0384 -4.0455  2.3180
  658MOL0     H86831   0.049   1.004   5.638 -0.6290 -0.1854  0.2082
  658MOL0     H86832  -0.219   0.993   5.506 -1.2173 -3.3850 -0.7362
  658MOL0     H86833  -0.187   0.905   5.664 -0.5209 -0.7039 -0.9591
  658MOL0     H86834  -0.195   0.782   5.426  0.7229  1.8701 -2.4821
  658MOL0     H86835  -0.050   0.872   5.392  0.7410  1.7165  1.0939
  658MOL0     H86836   0.078   0.765   5.569 -0.6518 -0.6613  3.2749
  658MOL0     H86837   0.009   0.657   5.461  1.2643  1.2939  0.9461
  658MOL0     H86838   0.397   1.642   5.482  0.2061 -0.4615 -1.2067
  658MOL0     H86839   0.588   1.728   5.589 -0.1455 -0.3103 -1.6350
  658MOL0     H86840   0.815   1.714   5.975  0.3154  1.2896 -0.8258
  658MOL0     H86841   0.979   1.769   6.150  1.5675  0.1082  0.4380
  658MOL0     H86842   2.226   2.193   7.327 -0.8903  1.1509  0.1021
  658MOL0     H86843   2.378   2.006   7.265  1.0895  0.9957 -5.6956
  658MOL0     H86844   2.593   1.811   6.836  4.0626 -0.4640 -2.2315
  658MOL0     H86845   2.799   1.694   6.816  2.9847  0.0360  0.4653
  658MOL0     H86846   3.031   1.623   6.874 -2.0855  0.5190 -0.4223
  658MOL0     H86847   2.910   1.503   6.821  4.3689  3.7043 -6.5585
  658MOL0     H86848   3.039   1.322   6.923  0.5134 -0.3903  0.9909
  658MOL0     H86849   3.109   1.416   6.790 -0.6612  0.0483 -0.8329
  658MOL0     H86850   3.161   1.456   7.078  0.1721  0.4341 -0.6748
  658MOL0     H86851   3.246   1.550   6.958 -0.5170  0.2470  0.5540
  658MOL0     H86852   3.398   1.364   7.053  0.5263 -1.2544 -0.2159
  658MOL0     H86853   3.289   1.247   6.978  0.6635  0.3065  1.3356
  658MOL0     H86854   3.458   1.389   6.628  1.5922  1.3540  0.1547
  658MOL0     H86855   2.767   1.569   7.232 -1.2677 -5.1810 -1.0062
  658MOL0     H86856   2.552   1.691   7.242  0.2936  4.5717 -0.3361
  659MOL0     O86857   9.818   1.823  10.329  0.3814 -0.3759 -0.0452
  659MOL0     C86858   9.871   1.774  10.230  0.8849 -0.7362  0.1461
  659MOL0     O86859   9.800   1.720  10.125 -0.1101 -0.0460 -0.2879
  659MOL0     C86860   9.664   1.699  10.145  0.4829  0.1512 -1.1256
  659MOL0     C86861   9.571   1.796  10.177  0.1255 -0.7069 -0.0660
  659MOL0     C86862   9.443   1.773  10.221 -0.2645  0.1763  0.0246
  659MOL0     C86863   9.396   1.641  10.218  0.9564  0.1428  0.5555
  659MOL0     O86864   9.262   1.597  10.233 -0.6971  0.2262 -0.7075
  659MOL0     C86865   9.174   1.689  10.288  0.6413  0.2141  0.3711
  659MOL0     C86866   9.131   1.783  10.168  0.0499 -0.6878 -0.3980
  659MOL0     C86867   9.079   1.713  10.042 -0.5849 -0.2532 -0.5824
  659MOL0     C86868   8.930   1.662  10.056 -0.3742 -0.4992 -0.2015
  659MOL0     C86869   8.914   1.582   9.924 -0.5594 -0.0519 -0.8383
  659MOL0     C86870   8.775   1.539   9.883  0.3317  0.7386  0.1810
  659MOL0     C86871   8.703   1.665   9.813 -0.5143  0.3144  0.9788
  659MOL0     C86872   8.742   1.697   9.666  0.4346 -1.0914 -0.5892
  659MOL0     N86873   8.647   1.789   9.605 -0.1248  0.3047  0.2438
  659MOL0     C86874   8.511   1.753   9.582  0.2933 -0.1383  0.3071
  659MOL0     C86875   8.449   1.856   9.531 -0.0821 -0.6804  0.9681
  659MOL0     C86876   8.307   1.883   9.491  0.6330  0.2105 -0.5522
  659MOL0     C86877   8.273   2.035   9.511  0.3497 -0.4575  0.2338
  659MOL0     C86878   8.134   2.061   9.441 -0.1560 -0.0188 -1.7442
  659MOL0     C86879   8.029   2.013   9.546 -0.9107  0.0771  0.1632
  659MOL0     O86880   8.035   2.074   9.670  0.0894  0.1084  0.0208
  659MOL0     C86881   7.973   2.195   9.706  0.0679  0.7821  0.1195
  659MOL0     C86882   7.979   2.237   9.840  0.0141  0.6207 -0.4622
  659MOL0     C86883   7.921   2.359   9.880 -0.2163 -0.2456 -1.0572
  659MOL0     C86884   7.852   2.443   9.791  0.0792  1.1615  0.3753
  659MOL0     C86885   7.815   2.575   9.824  0.5083 -1.2081  0.2129
  659MOL0     O86886   7.848   2.619   9.943 -0.6620  0.4899 -0.1246
  659MOL0     C86887   7.796   2.732  10.014 -0.3005  0.5362 -0.4169
  659MOL0     C86888   7.666   2.758   9.995  0.0791 -0.2719  0.5542
  659MOL0     C86889   7.625   2.878  10.054 -0.7880  0.2820  0.2519
  659MOL0     C86890   7.708   2.964  10.129 -0.6185  0.2354 -0.2834
  659MOL0     O86891   7.657   3.079  10.174 -0.9431  0.4991  0.5128
  659MOL0     C86892   7.746   3.183  10.203  0.0145 -0.3681 -0.0640
  659MOL0     C86893   7.679   3.324  10.233 -0.4996  0.0579 -0.6237
  659MOL0     C86894   7.554   3.308  10.318 -0.3933  0.3337  0.2379
  659MOL0     C86895   7.421   3.292  10.241 -0.0994 -0.3375 -0.2898
  659MOL0     C86896   7.313   3.405  10.274 -0.1022  0.7251  0.3549
  659MOL0     C86897   7.270   3.414  10.422 -0.2810  0.5729 -0.1456
  659MOL0     C86898   7.155   3.510  10.445 -0.1317 -0.0006 -0.0615
  659MOL0     C86899   7.107   3.518  10.587 -0.4810 -0.1232 -0.1035
  659MOL0    Cl86900   6.939   3.597  10.583 -0.0480  0.0824 -0.0834
  659MOL0     C86901   7.839   2.926  10.153 -0.0847 -0.0175  0.0366
  659MOL0     C86902   7.879   2.808  10.097  0.1799  0.7831  0.7811
  659MOL0     O86903   7.755   2.644   9.741  0.0716  0.5728 -0.0253
  659MOL0     C86904   7.828   2.389   9.664 -0.7959  0.6657  0.3183
  659MOL0     C86905   7.896   2.274   9.619 -1.0151 -0.5090 -0.0725
  659MOL0     N86906   8.553   1.956   9.514 -0.2500  0.0120  1.1037
  659MOL0     N86907   8.666   1.915   9.557 -0.0303 -0.2909  0.0138
  659MOL0     C86908   9.495   1.543  10.189  0.5688  0.9040 -1.4269
  659MOL0     C86909   9.628   1.566  10.156 -1.0547  0.0006 -0.0932
  659MOL0     C86910  10.011   1.757  10.228  0.9200 -0.1763  0.2102
  659MOL0     C86911  10.082   1.712  10.118  0.4895  0.8793 -0.6262
  659MOL0     C86912  10.222   1.685  10.121 -0.1591  0.0788  0.5015
  659MOL0     C86913  10.301   1.720  10.235  1.0257 -0.0893 -0.6401
  659MOL0     O86914  10.426   1.687  10.224 -0.3338  0.6794 -0.1194
  659MOL0     C86915  10.532   1.760  10.280 -0.6125 -0.5193  0.1124
  659MOL0     C86916  10.577   1.681  10.400 -0.5932  1.0152  0.2614
  659MOL0     C86917  10.652   1.557  10.354 -0.6992  0.9708 -0.3893
  659MOL0     C86918  10.762   1.494  10.453  0.4007 -0.2958  0.8761
  659MOL0     C86919  10.819   1.384  10.383  0.0337  0.6170 -0.5647
  659MOL0     C86920  10.859   1.278  10.337 -0.4254  0.5927  0.1152
  659MOL0     C86921  10.231   1.784  10.347  0.7251  1.5719 -0.7623
  659MOL0     C86922  10.089   1.783  10.344 -0.8037 -0.7177  0.2065
  659MOL0     H86923   9.610   1.897  10.188 -2.3727  0.6598 -2.5217
  659MOL0     H86924   9.373   1.847  10.258  0.5973  1.5435 -0.9896
  659MOL0     H86925   9.210   1.747  10.373  0.1168  0.5128  0.3951
  659MOL0     H86926   9.085   1.636  10.322 -0.6896  0.6074 -2.2343
  659MOL0     H86927   9.209   1.855  10.143 -2.3531  1.8206 -1.2268
  659MOL0     H86928   9.044   1.838  10.206 -0.3014 -0.6044 -1.3133
  659MOL0     H86929   9.145   1.631  10.012 -2.0179 -0.7399 -2.5869
  659MOL0     H86930   9.073   1.785   9.960 -0.6521 -0.7208 -0.9888
  659MOL0     H86931   8.908   1.601  10.144 -0.9064  1.0929  0.8091
  659MOL0     H86932   8.853   1.740  10.048  2.3323  2.2244 -1.4143
  659MOL0     H86933   8.976   1.495   9.948  1.9734  2.0332  0.6222
  659MOL0     H86934   8.971   1.621   9.839  2.4351  1.7598  1.7895
  659MOL0     H86935   8.725   1.502   9.973  0.3653  2.1069  0.7907
  659MOL0     H86936   8.784   1.461   9.807 -0.1125  1.4038 -0.5708
  659MOL0     H86937   8.596   1.648   9.805 -0.9236  3.3275 -2.5364
  659MOL0     H86938   8.719   1.751   9.879 -0.0884 -1.5554  3.4863
  659MOL0     H86939   8.732   1.600   9.615 -2.5380 -1.2358  0.0590
  659MOL0     H86940   8.843   1.737   9.664 -0.0525  0.2335  0.3303
  659MOL0     H86941   8.460   1.661   9.608 -1.0386  0.9006  1.5089
  659MOL0     H86942   8.250   1.829   9.567  0.7915 -1.1315 -1.3591
  659MOL0     H86943   8.277   1.848   9.392  1.2397 -2.9474  0.2540
  659MOL0     H86944   8.347   2.096   9.457 -1.5767  2.2155  0.4357
  659MOL0     H86945   8.273   2.071   9.615  1.3636  3.0734 -0.8203
  659MOL0     H86946   8.118   2.164   9.406 -0.6829 -0.4188 -2.7356
  659MOL0     H86947   8.129   2.001   9.350 -0.9496 -2.6640 -0.0498
  659MOL0     H86948   8.052   1.907   9.560 -0.0087  0.5079  2.3770
  659MOL0     H86949   7.933   2.036   9.498 -0.8123  2.1765  0.8688
  659MOL0     H86950   8.046   2.178   9.901  0.5146  2.2379  0.6338
  659MOL0     H86951   7.946   2.382   9.983 -1.8405 -0.0040 -0.7033
  659MOL0     H86952   7.596   2.686   9.956 -2.5507  1.3379  2.0084
  659MOL0     H86953   7.521   2.904  10.036  0.2001  5.3778  0.3835
  659MOL0     H86954   7.828   3.196  10.131  1.0916 -0.8959  1.0271
  659MOL0     H86955   7.784   3.149  10.300  0.4099  0.2346 -0.0024
  659MOL0     H86956   7.653   3.389  10.149 -0.0597  1.7818  0.5191
  659MOL0     H86957   7.746   3.377  10.302 -1.9574  3.0153 -1.3195
  659MOL0     H86958   7.544   3.382  10.398 -2.5845 -0.0390  0.3760
  659MOL0     H86959   7.558   3.216  10.378 -0.8593  1.4062  1.9774
  659MOL0     H86960   7.435   3.270  10.135 -0.6398  2.5370 -1.0307
  659MOL0     H86961   7.377   3.207  10.293 -0.7687  0.5217  0.5798
  659MOL0     H86962   7.231   3.380  10.207  1.2299 -1.0786 -0.7107
  659MOL0     H86963   7.353   3.498  10.232 -1.4071  0.4706 -1.5721
  659MOL0     H86964   7.348   3.434  10.495 -1.4454  3.5659  0.4149
  659MOL0     H86965   7.222   3.316  10.428 -1.3492  0.9369 -1.8347
  659MOL0     H86966   7.176   3.613  10.415 -0.5662 -0.0264 -0.4735
  659MOL0     H86967   7.074   3.471  10.383 -1.5467  1.2457  0.9408
  659MOL0     H86968   7.160   3.587  10.654 -1.9415  0.7549  0.1958
  659MOL0     H86969   7.105   3.417  10.629 -1.1773 -0.0310  0.0993
  659MOL0     H86970   7.906   2.979  10.219  1.5615  0.1606 -1.6790
  659MOL0     H86971   7.975   2.759  10.104 -0.6801 -0.7292  4.0156
  659MOL0     H86972   7.786   2.438   9.577  3.2652 -1.9155 -3.5424
  659MOL0     H86973   7.876   2.238   9.518 -5.8199  0.7391  0.1832
  659MOL0     H86974   9.455   1.443  10.203  0.3927  1.2571  0.8674
  659MOL0     H86975   9.698   1.484  10.148 -0.5105  0.4355  0.1230
  659MOL0     H86976  10.029   1.677  10.030  1.5082 -0.5675 -0.6869
  659MOL0     H86977  10.272   1.622  10.048 -0.6900  0.0522  0.1558
  659MOL0     H86978  10.501   1.859  10.314  2.8223  0.6536  0.1770
  659MOL0     H86979  10.623   1.769  10.220  0.1275 -2.4097  0.8629
  659MOL0     H86980  10.659   1.732  10.451  0.8121 -1.4719  0.6827
  659MOL0     H86981  10.492   1.641  10.456 -0.2138 -2.2237 -1.2133
  659MOL0     H86982  10.696   1.569  10.254 -0.4064 -0.3075 -0.4201
  659MOL0     H86983  10.573   1.484  10.337  0.8994 -0.4125 -2.3308
  659MOL0     H86984  10.842   1.564  10.480 -1.7329  1.5756  2.7311
  659MOL0     H86985  10.698   1.467  10.537 -1.5661  2.3511  0.3429
  659MOL0     H86986  10.873   1.187  10.281 -1.1479  1.8142 -2.2134
  659MOL0     H86987  10.278   1.813  10.440 -0.5597  0.4362  0.2871
  659MOL0     H86988  10.035   1.809  10.435  0.8622  1.0026  0.7686
  660MOL0     O86989   8.615   9.617   0.343  1.2301 -0.0050  0.2358
  660MOL0     C86990   8.736   9.633   0.330  0.0844  0.8019 -0.0549
  660MOL0     O86991   8.820   9.548   0.258 -0.1718  0.6018 -0.0958
  660MOL0     C86992   8.784   9.490   0.136 -0.6733 -0.4062 -0.1798
  660MOL0     C86993   8.684   9.531   0.046 -0.2049  0.2448 -0.8616
  660MOL0     C86994   8.647   9.455  -0.066  0.4820 -0.1082  0.2812
  660MOL0     C86995   8.722   9.337  -0.096 -0.3975  1.0296  1.0926
  660MOL0     O86996   8.693   9.245  -0.199  0.1645  0.0511 -0.0072
  660MOL0     C86997   8.592   9.278  -0.298 -1.0891  0.0871 -0.6536
  660MOL0     C86998   8.608   9.189  -0.418  0.8304  0.2284  0.1950
  660MOL0     C86999   8.486   9.212  -0.515 -0.3483  0.6874 -0.8655
  660MOL0     C87000   8.481   9.097  -0.623 -0.4454 -0.5628 -0.2739
  660MOL0     C87001   8.363   9.128  -0.701  1.2643  0.7599  0.0473
  660MOL0     C87002   8.359   9.057  -0.835 -0.0476 -0.6243 -0.4814
  660MOL0     C87003   8.255   9.114  -0.932  0.2701  1.0267  0.0485
  660MOL0     C87004   8.294   9.255  -1.000  0.0935  0.7612  0.1679
  660MOL0     N87005   8.439   9.271  -1.018  0.0406  0.2351 -1.1660
  660MOL0     C87006   8.522   9.210  -1.112 -0.5642  0.3861 -1.7620
  660MOL0     C87007   8.647   9.251  -1.071  0.4256  0.3614  0.2187
  660MOL0     C87008   8.761   9.217  -1.171 -1.0739 -0.6277  0.5301
  660MOL0     C87009   8.864   9.340  -1.161  0.1660 -0.3093  0.2084
  660MOL0     C87010   8.817   9.454  -1.264 -0.1881  0.7336 -0.4265
  660MOL0     C87011   8.849   9.424  -1.409 -0.1238 -0.3354  0.0634
  660MOL0     O87012   8.970   9.358  -1.417 -0.8182 -0.3397 -0.9277
  660MOL0     C87013   9.000   9.287  -1.533 -0.7795 -0.2844  0.5180
  660MOL0     C87014   9.137   9.241  -1.540  1.1865  0.2298 -0.8021
  660MOL0     C87015   9.172   9.164  -1.650 -0.1676 -0.1531  0.7212
  660MOL0     C87016   9.080   9.141  -1.762 -0.8728  0.5715  0.1693
  660MOL0     C87017   9.105   9.050  -1.878 -1.3208  0.0961  0.9931
  660MOL0     O87018   9.238   9.023  -1.900 -0.1169 -0.0287 -0.4345
  660MOL0     C87019   9.278   8.952  -2.017 -0.2186  0.3126 -0.9317
  660MOL0     C87020   9.206   8.948  -2.136  1.3208  1.0046  0.5394
  660MOL0     C87021   9.251   8.858  -2.226  0.8868  0.1239 -0.1315
  660MOL0     C87022   9.373   8.788  -2.210 -0.1828 -0.3390  0.7482
  660MOL0     O87023   9.406   8.710  -2.316  0.7245 -0.2876 -1.3565
  660MOL0     C87024   9.502   8.604  -2.303  0.1468 -0.4444  0.6776
  660MOL0     C87025   9.431   8.479  -2.227 -0.0179 -0.8378 -0.3880
  660MOL0     C87026   9.320   8.408  -2.307  1.0239  0.8466 -0.5162
  660MOL0     C87027   9.244   8.292  -2.248  0.2685  0.4764 -0.6651
  660MOL0     C87028   9.202   8.175  -2.341  0.1005  0.3460 -0.1182
  660MOL0     C87029   9.316   8.084  -2.386 -0.0906 -0.1495  0.3007
  660MOL0     C87030   9.281   7.935  -2.397 -0.5238 -0.3991  0.5888
  660MOL0     C87031   9.400   7.855  -2.446 -0.0294 -0.1281  0.1083
  660MOL0    Cl87032   9.396   7.679  -2.401  0.5109 -0.0124 -0.2222
  660MOL0     C87033   9.455   8.808  -2.097  0.5431 -0.2238 -0.2749
  660MOL0     C87034   9.396   8.885  -1.995  0.2078 -1.0052  0.1211
  660MOL0     O87035   9.011   9.011  -1.944 -0.9577  0.5634  0.2615
  660MOL0     C87036   8.953   9.193  -1.758  0.5186 -0.3005 -1.1534
  660MOL0     C87037   8.919   9.272  -1.652 -0.1153 -0.0773  0.3981
  660MOL0     N87038   8.632   9.308  -0.948 -0.1525  0.1608 -0.4736
  660MOL0     N87039   8.510   9.329  -0.916  0.1250 -0.0960 -0.0173
  660MOL0     C87040   8.831   9.308  -0.009  0.1346  0.4245  0.7576
  660MOL0     C87041   8.865   9.384   0.105  0.6368 -0.0054  0.1101
  660MOL0     C87042   8.804   9.739   0.402 -0.5793  1.3389 -0.6263
  660MOL0     C87043   8.748   9.802   0.514  0.0931  0.3464  0.5523
  660MOL0     C87044   8.802   9.913   0.572  0.4637  0.9337 -0.6510
  660MOL0     C87045   8.935   9.952   0.540  0.1116  1.0717  0.1776
  660MOL0     O87046   8.996  10.044   0.621 -0.3330 -0.0169 -0.0139
  660MOL0     C87047   9.133  10.022   0.670  0.0094 -0.0118  0.3735
  660MOL0     C87048   9.137   9.897   0.767  0.5877  0.6840  0.0040
  660MOL0     C87049   9.265   9.882   0.850 -0.5632  0.4080  0.1380
  660MOL0     C87050   9.396   9.859   0.768 -0.2612  0.6501 -0.3904
  660MOL0     C87051   9.425   9.730   0.706  0.2815  0.4589 -0.9008
  660MOL0     C87052   9.419   9.629   0.641 -0.3550  0.9465 -0.5343
  660MOL0     C87053   9.004   9.868   0.444  0.1240 -0.2533  0.1257
  660MOL0     C87054   8.936   9.772   0.368 -0.2313  0.2904  0.4391
  660MOL0     H87055   8.617   9.611   0.075 -1.9803 -1.4401 -0.0633
  660MOL0     H87056   8.563   9.491  -0.124  0.1909  1.1755  1.4477
  660MOL0     H87057   8.609   9.383  -0.325  3.9331  0.0420  1.1462
  660MOL0     H87058   8.493   9.267  -0.253  0.3642 -3.5110  2.1370
  660MOL0     H87059   8.610   9.082  -0.394 -0.5449 -0.5839 -2.9560
  660MOL0     H87060   8.704   9.194  -0.470  0.0589 -1.7546 -1.5602
  660MOL0     H87061   8.489   9.311  -0.562  0.3978  1.2111  0.2610
  660MOL0     H87062   8.388   9.202  -0.466 -0.3662 -2.2883 -1.3077
  660MOL0     H87063   8.575   9.083  -0.678 -0.5130 -1.1039 -0.2488
  660MOL0     H87064   8.462   9.010  -0.559  2.7782 -0.1607  1.4642
  660MOL0     H87065   8.350   9.237  -0.706  1.3163  0.8028  0.7667
  660MOL0     H87066   8.279   9.102  -0.637  1.7793  1.3324  0.9747
  660MOL0     H87067   8.320   8.958  -0.809  0.1523 -0.2470  1.3722
  660MOL0     H87068   8.461   9.056  -0.876 -0.3810  1.0501 -1.4583
  660MOL0     H87069   8.233   9.038  -1.007 -2.5977 -1.1488  2.8377
  660MOL0     H87070   8.160   9.131  -0.881  0.0394 -1.4537  0.5646
  660MOL0     H87071   8.257   9.329  -0.928  1.7689  0.6724  1.1824
  660MOL0     H87072   8.239   9.264  -1.094  2.0410  0.5139 -1.0627
  660MOL0     H87073   8.495   9.148  -1.196  0.6758  0.7118 -2.4199
  660MOL0     H87074   8.725   9.214  -1.274  1.3574  1.8216 -0.5195
  660MOL0     H87075   8.807   9.121  -1.148  1.6888  1.0101  2.5422
  660MOL0     H87076   8.968   9.307  -1.169 -0.3875 -2.8014  2.2142
  660MOL0     H87077   8.861   9.388  -1.062  1.8657  0.5241 -0.1012
  660MOL0     H87078   8.715   9.485  -1.239 -0.3727 -1.4103  1.8212
  660MOL0     H87079   8.878   9.541  -1.240  2.0384 -0.9566  0.4065
  660MOL0     H87080   8.851   9.519  -1.463 -2.2548 -0.1704  0.2098
  660MOL0     H87081   8.766   9.365  -1.448  0.3267  0.3069 -1.9872
  660MOL0     H87082   9.205   9.273  -1.462 -0.4920 -0.0029  0.8225
  660MOL0     H87083   9.273   9.126  -1.662  0.1744  1.5751 -5.5738
  660MOL0     H87084   9.114   9.005  -2.144  0.8247  0.3909  1.6098
  660MOL0     H87085   9.198   8.827  -2.316 -2.5621 -1.5877  2.2842
  660MOL0     H87086   9.585   8.643  -2.243  1.3205 -0.9065 -0.5941
  660MOL0     H87087   9.535   8.567  -2.400 -2.1332 -0.9107  0.0181
  660MOL0     H87088   9.396   8.514  -2.129 -1.0912  2.4961 -1.8421
  660MOL0     H87089   9.506   8.404  -2.199  0.1946 -0.7556 -0.7411
  660MOL0     H87090   9.365   8.375  -2.401 -2.4800 -1.0634 -1.7405
  660MOL0     H87091   9.246   8.481  -2.341  2.2027  1.3566 -2.0978
  660MOL0     H87092   9.302   8.244  -2.169 -0.9266  1.2249  0.7187
  660MOL0     H87093   9.155   8.332  -2.199  0.4472 -0.7871  0.7986
  660MOL0     H87094   9.135   8.201  -2.423  2.6375  0.6195 -2.2008
  660MOL0     H87095   9.135   8.125  -2.269  0.7910  0.9330  0.9666
  660MOL0     H87096   9.392   8.100  -2.309  1.2952  3.1431 -1.5502
  660MOL0     H87097   9.341   8.137  -2.479 -0.3036 -1.0992 -0.3184
  660MOL0     H87098   9.250   7.896  -2.299 -3.3404 -4.2962 -1.5688
  660MOL0     H87099   9.194   7.913  -2.460 -3.3932  2.7795  3.0280
  660MOL0     H87100   9.495   7.900  -2.416  0.4377  1.0128 -2.7770
  660MOL0     H87101   9.419   7.872  -2.552  0.9509 -0.1884  0.2620
  660MOL0     H87102   9.556   8.773  -2.078  0.7969  0.9647  0.6840
  660MOL0     H87103   9.452   8.895  -1.903  1.1293 -1.9099 -0.3095
  660MOL0     H87104   8.876   9.180  -1.833  1.0316  0.6798 -1.8738
  660MOL0     H87105   8.816   9.307  -1.653  0.9751  3.5748 -1.8965
  660MOL0     H87106   8.883   9.216  -0.031 -0.0106  0.7194 -0.9414
  660MOL0     H87107   8.944   9.361   0.176  1.4242 -0.4033 -0.8772
  660MOL0     H87108   8.647   9.769   0.535  0.0336  1.0296  1.3942
  660MOL0     H87109   8.739   9.947   0.654 -0.2493 -2.1777  0.2221
  660MOL0     H87110   9.169  10.102   0.734 -1.4143 -0.2970  1.5958
  660MOL0     H87111   9.197  10.008   0.583  0.1875 -0.5243  0.5835
  660MOL0     H87112   9.059   9.914   0.841 -0.5249  1.0972 -1.2290
  660MOL0     H87113   9.106   9.808   0.712 -1.7965  0.5367  1.4522
  660MOL0     H87114   9.262   9.810   0.931  1.2820 -0.5103 -0.5441
  660MOL0     H87115   9.278   9.974   0.908  0.4651  0.7061 -0.5337
  660MOL0     H87116   9.411   9.926   0.683  0.7054  1.6792  0.5512
  660MOL0     H87117   9.477   9.882   0.838  2.7231  0.1726 -3.4480
  660MOL0     H87118   9.423   9.538   0.585  1.8260  1.1354 -0.7760
  660MOL0     H87119   9.108   9.870   0.413 -0.2072 -1.7041 -1.2175
  660MOL0     H87120   8.987   9.725   0.284 -2.6181 -2.2759  0.2644
  661MOL0     O87121   3.150   5.770   2.238  0.3825 -0.0676  0.2757
  661MOL0     C87122   3.052   5.730   2.295 -0.6953  0.6757  0.1064
  661MOL0     O87123   3.025   5.596   2.307  0.2038 -0.4329 -0.7523
  661MOL0     C87124   3.088   5.492   2.253  0.3314  0.1001  1.2226
  661MOL0     C87125   3.015   5.374   2.267 -0.6272 -0.6852  0.5215
  661MOL0     C87126   3.059   5.253   2.225 -0.2318  0.1224 -0.6963
  661MOL0     C87127   3.181   5.250   2.155  0.0685  0.4205 -0.1467
  661MOL0     O87128   3.244   5.133   2.118 -0.6722  1.0776 -0.2750
  661MOL0     C87129   3.193   5.055   2.009  0.2682 -0.7122  0.4072
  661MOL0     C87130   3.208   4.912   2.045 -0.1070  0.3011 -0.1822
  661MOL0     C87131   3.359   4.883   2.048  0.7766 -0.1770  0.6673
  661MOL0     C87132   3.391   4.736   2.021  0.0226  0.2339 -0.1370
  661MOL0     C87133   3.542   4.722   1.981 -0.4644 -0.2592  0.2675
  661MOL0     C87134   3.583   4.774   1.847 -0.9098  0.1044  0.0040
  661MOL0     C87135   3.738   4.800   1.842 -0.4515 -0.2470 -0.6043
  661MOL0     C87136   3.781   4.888   1.732 -0.7895  0.6699  0.3871
  661MOL0     N87137   3.910   4.945   1.752 -0.5321 -0.8157  1.1600
  661MOL0     C87138   4.036   4.887   1.780 -0.2094  1.5112  0.0098
  661MOL0     C87139   4.106   4.997   1.806  0.7893  0.2907 -0.5156
  661MOL0     C87140   4.248   4.985   1.844 -0.2998  0.3192  1.0297
  661MOL0     C87141   4.281   5.062   1.968 -0.1886 -1.0633  0.4665
  661MOL0     C87142   4.403   5.003   2.042 -0.1758  0.1190 -0.5475
  661MOL0     C87143   4.536   5.016   1.972  0.6778 -0.4580 -0.1082
  661MOL0     O87144   4.637   4.992   2.070  0.1662  0.0750 -0.3396
  661MOL0     C87145   4.765   5.030   2.036  0.1459  0.2295 -0.5784
  661MOL0     C87146   4.803   5.059   1.910 -1.0510  0.1859  0.3228
  661MOL0     C87147   4.929   5.100   1.878  0.1665 -0.4136 -0.1063
  661MOL0     C87148   5.028   5.130   1.978  0.1917  0.0151 -0.2430
  661MOL0     C87149   5.162   5.173   1.928  0.3531 -0.0520  0.3952
  661MOL0     O87150   5.249   5.211   2.026  0.2530  0.1446  0.2160
  661MOL0     C87151   5.372   5.261   2.012 -0.8336  0.0100 -0.2537
  661MOL0     C87152   5.426   5.332   1.908 -0.5860 -0.7129  0.0653
  661MOL0     C87153   5.566   5.374   1.902 -1.2189  0.9035  0.5324
  661MOL0     C87154   5.640   5.360   2.013  1.0932 -0.6238  0.3498
  661MOL0     O87155   5.771   5.399   2.025  0.5704 -0.6108 -0.2645
  661MOL0     C87156   5.832   5.456   1.910  0.5919 -0.2602 -0.1534
  661MOL0     C87157   5.972   5.493   1.941 -0.1036  0.9017 -0.5288
  661MOL0     C87158   5.972   5.585   2.063 -0.1018 -0.7658 -1.0124
  661MOL0     C87159   6.111   5.589   2.129  0.1053  0.8755 -0.0040
  661MOL0     C87160   6.137   5.498   2.252  0.5517 -0.6012  1.2181
  661MOL0     C87161   6.204   5.570   2.352 -0.0631 -0.4400 -0.2056
  661MOL0     C87162   6.213   5.473   2.477 -0.0958 -0.3097 -0.9372
  661MOL0     C87163   6.268   5.528   2.605  1.0176 -0.4956 -0.6560
  661MOL0    Cl87164   6.438   5.552   2.598  0.6200 -0.3958 -0.0695
  661MOL0     C87165   5.585   5.287   2.117 -0.4407 -0.3854  0.2557
  661MOL0     C87166   5.461   5.238   2.117 -0.1008 -0.6215 -1.5320
  661MOL0     O87167   5.192   5.155   1.814  0.2347  0.0805 -0.2205
  661MOL0     C87168   4.988   5.103   2.111 -0.7144 -0.7929 -0.5110
  661MOL0     C87169   4.855   5.046   2.136  0.3413  0.3705 -0.0470
  661MOL0     N87170   4.026   5.108   1.801 -0.4272  0.5431 -0.8545
  661MOL0     N87171   3.905   5.075   1.768 -0.3940 -0.1898 -0.2150
  661MOL0     C87172   3.252   5.371   2.137 -0.4017 -1.0254 -0.4162
  661MOL0     C87173   3.207   5.488   2.188 -0.7231 -0.4796 -0.1356
  661MOL0     C87174   2.977   5.824   2.382  0.2293 -0.3931  0.5322
  661MOL0     C87175   2.988   5.959   2.357 -0.4959 -0.8837 -1.2171
  661MOL0     C87176   2.928   6.047   2.441  0.2430 -0.2829  0.1866
  661MOL0     C87177   2.840   6.007   2.545 -1.1464 -0.5988  0.2562
  661MOL0     O87178   2.761   6.098   2.615 -0.1996 -0.7553 -0.4602
  661MOL0     C87179   2.700   6.206   2.542 -1.1658 -0.4698  0.2352
  661MOL0     C87180   2.607   6.170   2.423 -0.1851  0.0698 -0.8725
  661MOL0     C87181   2.598   6.285   2.318  0.3022  0.6256 -0.7429
  661MOL0     C87182   2.504   6.241   2.206  0.6508  0.4294  0.1974
  661MOL0     C87183   2.360   6.256   2.231  0.1298  1.0218 -0.4318
  661MOL0     C87184   2.251   6.260   2.276  0.7365 -0.7273 -0.5955
  661MOL0     C87185   2.832   5.873   2.571 -0.2855 -0.5350 -0.0139
  661MOL0     C87186   2.894   5.772   2.483 -0.3921 -0.4735  0.0335
  661MOL0     H87187   2.916   5.385   2.309  0.3064  2.0791  2.2897
  661MOL0     H87188   2.994   5.168   2.245 -1.2410  0.8266 -0.9092
  661MOL0     H87189   3.247   5.087   1.919  1.6786 -1.8031  0.8267
  661MOL0     H87190   3.087   5.080   1.998  0.2077 -0.6926  1.0242
  661MOL0     H87191   3.170   4.847   1.965  1.1054  4.1443 -4.2672
  661MOL0     H87192   3.154   4.898   2.139 -2.4471  3.2637 -0.9445
  661MOL0     H87193   3.402   4.905   2.146  0.5537  2.7642  0.1955
  661MOL0     H87194   3.402   4.956   1.979 -1.9900 -0.6297 -1.7068
  661MOL0     H87195   3.378   4.680   2.115  1.8776  0.1417  0.1031
  661MOL0     H87196   3.310   4.690   1.964 -2.8528  3.0202  1.3870
  661MOL0     H87197   3.562   4.614   1.972  1.6956  0.2088 -1.5673
  661MOL0     H87198   3.599   4.762   2.065 -0.7859  1.7862 -0.4434
  661MOL0     H87199   3.537   4.871   1.825 -0.4623  1.4508  4.2010
  661MOL0     H87200   3.554   4.698   1.773  0.9671 -1.2568  0.5891
  661MOL0     H87201   3.774   4.846   1.934  1.3260 -1.9984 -0.3727
  661MOL0     H87202   3.793   4.706   1.830  1.7500  1.1793 -2.6596
  661MOL0     H87203   3.707   4.968   1.729 -1.1913  0.2816 -0.8022
  661MOL0     H87204   3.768   4.838   1.635 -5.1812  2.8004 -0.3401
  661MOL0     H87205   4.071   4.784   1.785  3.2811  2.5166 -0.8672
  661MOL0     H87206   4.308   5.010   1.756  0.0236 -2.8966  0.1935
  661MOL0     H87207   4.279   4.880   1.857  2.6082  1.1100  1.2063
  661MOL0     H87208   4.194   5.061   2.035 -1.2582 -3.3950 -0.8174
  661MOL0     H87209   4.289   5.166   1.937  0.4609 -2.0924 -3.2897
  661MOL0     H87210   4.409   5.047   2.142 -0.3228  0.7571 -0.8148
  661MOL0     H87211   4.371   4.902   2.069  2.2318 -0.2412  1.2716
  661MOL0     H87212   4.548   5.115   1.927  0.7474 -0.7767 -0.7963
  661MOL0     H87213   4.552   4.947   1.888  1.6565  0.3043 -0.5604
  661MOL0     H87214   4.766   5.028   1.813  1.1013 -0.1678 -0.4359
  661MOL0     H87215   4.948   5.122   1.774  2.1690  1.3351  0.5540
  661MOL0     H87216   5.365   5.358   1.822  0.6075  0.5539 -0.4356
  661MOL0     H87217   5.601   5.426   1.814  1.2833  0.1175  0.9980
  661MOL0     H87218   5.779   5.541   1.864  1.9432  0.6858 -0.0146
  661MOL0     H87219   5.847   5.379   1.833  0.8112 -0.1363 -0.2345
  661MOL0     H87220   6.022   5.541   1.856 -0.1309  2.2938  0.2170
  661MOL0     H87221   6.030   5.405   1.970  1.1053  1.5181 -1.0034
  661MOL0     H87222   5.898   5.555   2.138  1.1588  1.6498  1.3618
  661MOL0     H87223   5.941   5.685   2.032 -0.1172 -0.8125 -1.1479
  661MOL0     H87224   6.175   5.554   2.047  0.0253  0.8376 -0.0505
  661MOL0     H87225   6.148   5.690   2.149 -3.6494  2.2387  0.8589
  661MOL0     H87226   6.212   5.422   2.228 -0.4697 -1.6722  1.2860
  661MOL0     H87227   6.044   5.445   2.276 -0.6393  1.4775  1.3609
  661MOL0     H87228   6.140   5.656   2.374 -4.6209 -3.3751 -0.6272
  661MOL0     H87229   6.298   5.610   2.314  0.1153 -0.0653  0.6167
  661MOL0     H87230   6.110   5.440   2.493  0.5851 -1.8986  0.5759
  661MOL0     H87231   6.270   5.383   2.451 -0.7239 -1.0527  0.1476
  661MOL0     H87232   6.241   5.452   2.679 -0.2947  0.4505 -0.1263
  661MOL0     H87233   6.213   5.621   2.625  0.5909 -0.2232 -2.8170
  661MOL0     H87234   5.646   5.264   2.203  0.6147 -1.9259 -0.8426
  661MOL0     H87235   5.430   5.191   2.210 -0.2418  0.8005 -0.8301
  661MOL0     H87236   5.058   5.124   2.192 -2.0624  2.5815 -0.0269
  661MOL0     H87237   4.833   5.009   2.235  3.5106  1.8010  1.3457
  661MOL0     H87238   3.338   5.374   2.070  1.3042 -2.6666  1.5713
  661MOL0     H87239   3.266   5.578   2.180 -1.2873  0.0276  1.1820
  661MOL0     H87240   3.035   5.983   2.263 -1.7892  3.4612 -0.9763
  661MOL0     H87241   2.944   6.149   2.407  4.6447 -0.8428 -0.0300
  661MOL0     H87242   2.784   6.272   2.518 -0.0932 -0.9624  2.3749
  661MOL0     H87243   2.633   6.272   2.598  0.7893  2.0545 -0.1936
  661MOL0     H87244   2.652   6.087   2.367  0.0823 -1.6462  1.7205
  661MOL0     H87245   2.516   6.133   2.472  0.2473 -0.8705 -0.7595
  661MOL0     H87246   2.694   6.316   2.276 -0.8252  1.6743 -2.6959
  661MOL0     H87247   2.570   6.377   2.371  2.3506  0.2247  1.2267
  661MOL0     H87248   2.527   6.302   2.119  2.5495 -0.0156  0.3626
  661MOL0     H87249   2.529   6.140   2.173 -2.2927 -0.8356  1.4257
  661MOL0     H87250   2.151   6.265   2.314  2.2390 -0.2447  3.8572
  661MOL0     H87251   2.773   5.838   2.654  1.3264 -3.8394 -0.0773
  661MOL0     H87252   2.885   5.665   2.497 -0.8225 -0.5118 -0.4931
  662MOL0     O87253   8.829  10.710   1.458  0.2825 -1.0885 -0.1077
  662MOL0     C87254   8.867  10.685   1.345  0.0340  0.4001  0.8148
  662MOL0     O87255   8.998  10.706   1.289  0.5312 -0.1917  0.2241
  662MOL0     C87256   9.088  10.766   1.368 -0.1722 -0.4634 -0.8447
  662MOL0     C87257   9.120  10.906   1.374 -0.5789 -0.3914 -0.0646
  662MOL0     C87258   9.229  10.951   1.453  0.9768 -0.4436 -0.1128
  662MOL0     C87259   9.308  10.866   1.525 -0.7649 -0.5822  0.0785
  662MOL0     O87260   9.416  10.922   1.597  0.4545  0.4588  0.2653
  662MOL0     C87261   9.480  10.849   1.705  0.2406 -0.2359  0.0921
  662MOL0     C87262   9.524  10.951   1.806  0.2385  0.2835  0.1169
  662MOL0     C87263   9.637  10.913   1.895 -0.3328  0.0716 -0.8217
  662MOL0     C87264   9.679  11.035   1.991  0.0902 -0.8441 -0.7833
  662MOL0     C87265   9.689  10.995   2.142  0.2155 -0.8006  0.0383
  662MOL0     C87266   9.817  10.914   2.163  1.0689  1.2295 -0.2171
  662MOL0     C87267   9.802  10.805   2.268  0.6536  0.2917 -0.0280
  662MOL0     C87268   9.861  10.826   2.408  0.2787  0.6213 -0.5889
  662MOL0     N87269   9.789  10.916   2.494  0.8554 -0.2135 -0.5355
  662MOL0     C87270   9.656  10.908   2.545  0.6836  0.3818  0.1097
  662MOL0     C87271   9.647  11.004   2.633 -0.3632  0.0344  1.1660
  662MOL0     C87272   9.522  11.048   2.702 -0.3513 -0.9638 -0.5265
  662MOL0     C87273   9.518  11.202   2.710  0.3327 -0.1123  0.0640
  662MOL0     C87274   9.377  11.246   2.753 -1.3040  0.4921  0.7305
  662MOL0     C87275   9.399  11.388   2.799 -0.1274  0.4099  0.6819
  662MOL0     O87276   9.430  11.391   2.939 -1.4016 -0.4771 -0.4420
  662MOL0     C87277   9.484  11.511   2.988  1.0434  0.2581 -0.7028
  662MOL0     C87278   9.554  11.516   3.113 -0.4276  0.2339  0.9420
  662MOL0     C87279   9.607  11.634   3.164 -0.4059  0.3008  0.2231
  662MOL0     C87280   9.591  11.756   3.103  0.0148  0.7752 -0.1297
  662MOL0     C87281   9.630  11.881   3.169 -0.6742 -0.5960 -1.0290
  662MOL0     O87282   9.719  11.862   3.269  0.8791  0.1306  0.6980
  662MOL0     C87283   9.763  11.970   3.335  0.1881 -0.6848 -0.0391
  662MOL0     C87284   9.723  12.019   3.465 -0.5068 -0.1486  0.3631
  662MOL0     C87285   9.782  12.138   3.517  0.0753  0.7811  0.6164
  662MOL0     C87286   9.879  12.204   3.445  0.2650  0.0722 -0.0798
  662MOL0     O87287   9.926  12.316   3.504 -0.8340 -0.0239  0.2542
  662MOL0     C87288  10.039  12.397   3.463  0.4078 -0.5562 -0.0311
  662MOL0     C87289  10.055  12.516   3.547  0.4798  0.2059  0.3886
  662MOL0     C87290  10.173  12.603   3.504 -1.0992  0.0166  1.0926
  662MOL0     C87291  10.204  12.728   3.596 -0.3308  0.5203  0.4311
  662MOL0     C87292  10.326  12.796   3.532  0.2190 -0.0205  1.0231
  662MOL0     C87293  10.357  12.915   3.635 -0.2435 -0.3317 -0.1102
  662MOL0     C87294  10.501  12.965   3.581  0.6269 -0.3425 -0.5210
  662MOL0     C87295  10.586  13.024   3.697 -0.3690  0.0590 -0.6523
  662MOL0    Cl87296  10.708  13.136   3.640  0.6432 -0.4561  0.1455
  662MOL0     C87297   9.929  12.151   3.328  0.3073 -0.3679  0.3707
  662MOL0     C87298   9.878  12.030   3.270  0.4197 -0.0330 -0.3850
  662MOL0     O87299   9.575  11.983   3.139 -0.2947 -0.5727  0.3505
  662MOL0     C87300   9.537  11.758   2.977  0.4539 -0.1909  0.7208
  662MOL0     C87301   9.484  11.634   2.923  0.3590  0.1972  0.0912
  662MOL0     N87302   9.762  11.078   2.624 -0.7139  0.4927 -0.4913
  662MOL0     N87303   9.841  11.024   2.547 -0.5724 -0.2940  0.1082
  662MOL0     C87304   9.281  10.735   1.523 -1.0384  0.4905  0.2034
  662MOL0     C87305   9.169  10.682   1.447  0.0065  0.3697  0.0395
  662MOL0     C87306   8.759  10.634   1.253 -0.3140 -0.2373  0.8278
  662MOL0     C87307   8.785  10.625   1.125  0.2055 -0.4124  0.7963
  662MOL0     C87308   8.689  10.593   1.027 -0.2152 -0.3058  0.5367
  662MOL0     C87309   8.563  10.548   1.067  0.4475 -0.2816  0.9342
  662MOL0     O87310   8.473  10.488   0.975  0.8030  0.7361 -0.6271
  662MOL0     C87311   8.479  10.521   0.837 -0.2086 -0.7036 -0.0175
  662MOL0     C87312   8.357  10.582   0.777 -0.3161 -0.1467  0.0226
  662MOL0     C87313   8.363  10.572   0.621 -0.3697  0.6546 -0.3795
  662MOL0     C87314   8.230  10.609   0.549  0.1932  0.2853 -0.5667
  662MOL0     C87315   8.114  10.541   0.611 -0.5761 -1.3226  0.7604
  662MOL0     C87316   8.023  10.486   0.667  0.1987 -0.9555  0.2462
  662MOL0     C87317   8.534  10.552   1.203  0.1016  1.0462  0.6224
  662MOL0     C87318   8.633  10.597   1.291 -0.5502 -0.3986 -0.0384
  662MOL0     H87319   9.071  10.985   1.318  0.0698  1.2359  1.5687
  662MOL0     H87320   9.259  11.055   1.450 -0.1042 -0.1163  0.2244
  662MOL0     H87321   9.563  10.789   1.667 -0.6447 -1.3854 -0.0919
  662MOL0     H87322   9.423  10.770   1.755  1.5729 -1.9683 -0.9920
  662MOL0     H87323   9.437  10.968   1.869 -0.2040 -2.1073  0.2276
  662MOL0     H87324   9.550  11.037   1.743 -1.2636  0.9169  0.3225
  662MOL0     H87325   9.722  10.876   1.836 -0.3899 -3.8483  1.2488
  662MOL0     H87326   9.616  10.831   1.965  0.8267 -1.5730 -2.3043
  662MOL0     H87327   9.770  11.086   1.959 -1.5737  2.8177 -0.1451
  662MOL0     H87328   9.605  11.115   1.986  0.6732 -0.3185 -1.0318
  662MOL0     H87329   9.593  10.952   2.173 -0.1954 -0.2134 -0.3931
  662MOL0     H87330   9.688  11.093   2.192 -1.2160 -0.6908 -0.1449
  662MOL0     H87331   9.910  10.971   2.176 -0.6763  4.1081  0.4851
  662MOL0     H87332   9.831  10.857   2.071  0.7989 -0.5278  0.8007
  662MOL0     H87333   9.697  10.781   2.288  0.8975 -2.2990 -1.3922
  662MOL0     H87334   9.834  10.713   2.219 -1.4064 -0.1357 -0.6971
  662MOL0     H87335   9.967  10.848   2.399  0.1982  2.7339  2.3356
  662MOL0     H87336   9.844  10.731   2.459 -1.0294  1.0397 -0.2141
  662MOL0     H87337   9.581  10.835   2.518  0.1627  0.2468  1.7966
  662MOL0     H87338   9.518  11.000   2.801 -2.3251  2.3364  1.1697
  662MOL0     H87339   9.434  11.004   2.654 -2.2821  0.7497  1.2616
  662MOL0     H87340   9.533  11.239   2.608 -0.2800  0.3922  0.1544
  662MOL0     H87341   9.588  11.237   2.787  0.6353 -1.3313  0.3561
  662MOL0     H87342   9.315  11.245   2.663  1.4981  1.5069 -1.3517
  662MOL0     H87343   9.344  11.164   2.817  0.9694 -0.6590  0.5116
  662MOL0     H87344   9.309  11.445   2.776  0.7239  1.8306  0.7456
  662MOL0     H87345   9.487  11.425   2.746 -1.1192  2.6042  0.4434
  662MOL0     H87346   9.569  11.425   3.171 -0.6567 -1.3716 -1.3628
  662MOL0     H87347   9.649  11.628   3.263  5.0590  2.5705 -1.5952
  662MOL0     H87348   9.653  11.964   3.528  1.7361  1.1202  4.2654
  662MOL0     H87349   9.755  12.171   3.616  0.2178 -0.0014  0.9183
  662MOL0     H87350  10.040  12.418   3.356  1.5277  1.8702  0.3884
  662MOL0     H87351  10.130  12.341   3.486 -0.6610 -1.6107  1.9363
  662MOL0     H87352  10.054  12.505   3.656  1.1185 -0.8308  0.3007
  662MOL0     H87353   9.962  12.570   3.527  0.2976 -0.6914 -1.3533
  662MOL0     H87354  10.147  12.648   3.408  0.5409 -1.2409 -0.0027
  662MOL0     H87355  10.267  12.548   3.490 -2.1802 -1.0498 -3.5365
  662MOL0     H87356  10.119  12.798   3.594  1.4125  2.7315 -1.4924
  662MOL0     H87357  10.226  12.686   3.695  2.0956  0.3657 -0.1323
  662MOL0     H87358  10.290  12.840   3.438 -3.4169  0.6577  2.5722
  662MOL0     H87359  10.414  12.732   3.518 -0.8375 -0.8288 -3.2687
  662MOL0     H87360  10.356  12.876   3.737 -1.7213  1.6575  0.6790
  662MOL0     H87361  10.278  12.986   3.612 -0.6056 -0.5698  0.3910
  662MOL0     H87362  10.553  12.880   3.536 -0.9783 -0.8730 -1.4272
  662MOL0     H87363  10.481  13.043   3.508  2.1077  1.4567  0.8819
  662MOL0     H87364  10.634  12.940   3.748 -2.6308 -0.0175  1.5826
  662MOL0     H87365  10.529  13.080   3.772  1.4415 -0.8674  1.5253
  662MOL0     H87366   9.997  12.213   3.271 -1.4384  0.7803 -0.5451
  662MOL0     H87367   9.919  11.984   3.180 -1.1855 -0.1374 -1.0802
  662MOL0     H87368   9.534  11.855   2.927  4.0272 -0.6058 -0.5946
  662MOL0     H87369   9.447  11.638   2.821  3.2545  3.9160 -1.0219
  662MOL0     H87370   9.343  10.665   1.578  1.2995  1.1515 -1.4511
  662MOL0     H87371   9.146  10.576   1.434  1.1327  0.3071 -1.8641
  662MOL0     H87372   8.882  10.648   1.083 -0.7842 -0.4929 -1.7478
  662MOL0     H87373   8.719  10.593   0.923 -3.8094 -0.3387 -0.6130
  662MOL0     H87374   8.510  10.432   0.781  1.8344  0.2929 -0.5483
  662MOL0     H87375   8.557  10.596   0.827  1.7563 -1.8658  4.2013
  662MOL0     H87376   8.268  10.541   0.827  0.0743 -0.9732  0.0551
  662MOL0     H87377   8.357  10.688   0.805  1.3844 -0.6138  2.0504
  662MOL0     H87378   8.397  10.473   0.588  1.9611  0.1544  2.9968
  662MOL0     H87379   8.443  10.641   0.595  0.9639 -0.1861  1.3489
  662MOL0     H87380   8.227  10.717   0.569  3.5818  0.7492 -1.8680
  662MOL0     H87381   8.228  10.604   0.439 -2.0443  0.9776 -0.6186
  662MOL0     H87382   7.940  10.448   0.724  0.7283  0.0208  1.7412
  662MOL0     H87383   8.431  10.545   1.234 -1.0312  3.1932 -2.1832
  662MOL0     H87384   8.592  10.598   1.391 -1.9207  0.0316 -0.5799
  663MOL0     O87385   9.681   3.470   5.011 -0.0538 -0.2289 -0.5738
  663MOL0     C87386   9.784   3.447   4.956 -1.1644 -0.3151 -0.3164
  663MOL0     O87387   9.814   3.323   4.907 -0.8465 -0.1354  0.3083
  663MOL0     C87388   9.724   3.228   4.882  0.3652  0.1609 -0.9690
  663MOL0     C87389   9.699   3.186   4.754  0.8098  0.9797 -0.5189
  663MOL0     C87390   9.598   3.082   4.737  0.1263 -0.3527 -0.1601
  663MOL0     C87391   9.522   3.031   4.837 -0.6905  0.6407 -0.7474
  663MOL0     O87392   9.423   2.949   4.807 -1.1263 -0.3623  0.5114
  663MOL0     C87393   9.318   2.928   4.898  0.4963  0.8467 -0.1160
  663MOL0     C87394   9.250   2.798   4.847 -0.1156  0.7316 -0.4984
  663MOL0     C87395   9.324   2.671   4.906  0.2573  0.5775  0.0806
  663MOL0     C87396   9.253   2.541   4.883 -0.8978 -0.2615 -0.3588
  663MOL0     C87397   9.325   2.416   4.932 -1.0778  0.0149  0.0631
  663MOL0     C87398   9.318   2.385   5.083  1.0121  0.2321  0.9628
  663MOL0     C87399   9.409   2.281   5.128  0.3697  0.2776  0.3655
  663MOL0     C87400   9.550   2.327   5.152  0.0091  0.0002  0.2274
  663MOL0     N87401   9.649   2.214   5.181 -0.1349 -1.5340  0.2112
  663MOL0     C87402   9.658   2.147   5.297  0.2303 -0.0548  0.0081
  663MOL0     C87403   9.766   2.061   5.279 -0.0942 -0.2734 -0.3670
  663MOL0     C87404   9.813   1.989   5.401  1.0319  1.4007  0.3264
  663MOL0     C87405   9.950   2.039   5.460  0.9510 -0.2856  0.8768
  663MOL0     C87406   9.980   1.970   5.595 -1.4859 -1.0314 -0.7589
  663MOL0     C87407  10.126   1.998   5.640 -0.3009  0.0132  0.8984
  663MOL0     O87408  10.157   2.138   5.643  0.3099 -0.5873 -0.0674
  663MOL0     C87409  10.294   2.157   5.654  0.0327  0.4815  0.8231
  663MOL0     C87410  10.373   2.149   5.535 -0.4523  0.7936 -0.1918
  663MOL0     C87411  10.508   2.140   5.547 -0.0354  0.1442 -0.6965
  663MOL0     C87412  10.581   2.157   5.663  0.8022 -1.0901 -0.6705
  663MOL0     C87413  10.723   2.142   5.665 -0.7179 -0.1303 -0.0067
  663MOL0     O87414  10.780   2.107   5.549  1.0027 -0.0735  0.8153
  663MOL0     C87415  10.915   2.088   5.530 -0.6918 -0.4685 -1.2641
  663MOL0     C87416  11.021   2.142   5.615 -0.3699 -0.7297 -1.0366
  663MOL0     C87417  11.155   2.122   5.586  0.2037 -0.2892 -0.6631
  663MOL0     C87418  11.202   2.049   5.476  1.0336  0.2336  0.1894
  663MOL0     O87419  11.333   2.016   5.446 -0.3928 -0.5923  0.1056
  663MOL0     C87420  11.425   2.034   5.551  0.6170 -0.4089 -0.7093
  663MOL0     C87421  11.558   1.982   5.507  0.0481  0.0861  0.1722
  663MOL0     C87422  11.656   2.013   5.623 -0.9647  0.1803  0.8746
  663MOL0     C87423  11.800   1.989   5.573 -0.5476  0.6170  0.4202
  663MOL0     C87424  11.900   2.000   5.690  0.1198  0.7996  0.0425
  663MOL0     C87425  12.041   2.001   5.644  0.0026  0.0471 -0.1820
  663MOL0     C87426  12.130   1.996   5.768 -0.6179  0.0388 -0.5044
  663MOL0     C87427  12.283   2.027   5.751 -0.3027  0.2197  0.7734
  663MOL0    Cl87428  12.352   2.037   5.903 -0.2199  0.1494 -0.4858
  663MOL0     C87429  11.101   1.992   5.389  0.1300  0.3125 -0.4549
  663MOL0     C87430  10.968   2.005   5.427  0.2199  0.5941  0.0265
  663MOL0     O87431  10.779   2.156   5.772 -0.3347  0.6934 -0.1503
  663MOL0     C87432  10.499   2.191   5.781 -0.3283  0.5194 -0.0567
  663MOL0     C87433  10.364   2.179   5.774  0.0800  0.0653 -0.9673
  663MOL0     N87434   9.807   2.073   5.146  0.0868  0.0346 -0.7338
  663MOL0     N87435   9.744   2.173   5.093 -0.7755 -0.7562  0.4002
  663MOL0     C87436   9.550   3.076   4.964  0.2370 -0.5539 -0.3707
  663MOL0     C87437   9.646   3.172   4.993  0.3292 -0.5302  1.1597
  663MOL0     C87438   9.900   3.539   4.933  1.0242  0.2573  0.1529
  663MOL0     C87439  10.022   3.493   4.896  0.5123 -0.5094 -0.1757
  663MOL0     C87440  10.136   3.577   4.894  0.1542  0.2130 -1.2758
  663MOL0     C87441  10.126   3.702   4.948  0.2413  0.3942  0.5011
  663MOL0     O87442  10.221   3.798   4.955 -0.4305  0.2714  0.0892
  663MOL0     C87443  10.357   3.758   4.929  0.5683  0.4811  0.0505
  663MOL0     C87444  10.384   3.773   4.778  0.7102 -0.5226 -0.2436
  663MOL0     C87445  10.456   3.908   4.744  0.5773 -0.2343  0.2242
  663MOL0     C87446  10.378   4.033   4.780  0.4173  0.1232 -0.2082
  663MOL0     C87447  10.458   4.157   4.750 -0.2988 -0.2297 -0.0911
  663MOL0     C87448  10.512   4.258   4.715  0.1732 -0.3400 -0.6230
  663MOL0     C87449  10.003   3.746   4.988  0.2383  0.0676  0.3247
  663MOL0     C87450   9.885   3.676   4.974  0.4021  0.3569  0.5349
  663MOL0     H87451   9.741   3.243   4.672  0.6659  1.9860  0.0857
  663MOL0     H87452   9.567   3.057   4.636 -0.8843  2.8231 -0.7622
  663MOL0     H87453   9.246   3.010   4.892 -0.3386  0.0484 -2.3356
  663MOL0     H87454   9.338   2.904   5.002  1.7189 -2.3669 -0.9625
  663MOL0     H87455   9.242   2.797   4.738 -1.1983 -1.3179 -0.4362
  663MOL0     H87456   9.151   2.799   4.894 -1.3760  1.3591 -3.0210
  663MOL0     H87457   9.318   2.672   5.015 -5.7020 -1.0070  0.1103
  663MOL0     H87458   9.432   2.674   4.891  0.4185 -2.0214  0.2391
  663MOL0     H87459   9.162   2.561   4.940 -0.2665  0.0115  0.5625
  663MOL0     H87460   9.248   2.530   4.774 -3.3804 -0.0577 -0.3391
  663MOL0     H87461   9.431   2.426   4.909  0.1943  1.5516  5.1922
  663MOL0     H87462   9.297   2.325   4.878  2.0716 -0.3360 -1.1897
  663MOL0     H87463   9.216   2.354   5.107  0.3488  0.7065 -1.1121
  663MOL0     H87464   9.337   2.480   5.135  2.3334  0.2048  0.5678
  663MOL0     H87465   9.376   2.244   5.226 -0.8365 -1.5013 -0.6630
  663MOL0     H87466   9.398   2.199   5.057 -1.9953 -0.2445  1.2349
  663MOL0     H87467   9.556   2.409   5.224 -0.4252  1.5955 -1.4548
  663MOL0     H87468   9.573   2.362   5.050 -1.1551 -1.1802 -0.4678
  663MOL0     H87469   9.625   2.168   5.399  3.9162  2.3540  0.9018
  663MOL0     H87470   9.816   1.885   5.365  1.5611  1.3343  0.5425
  663MOL0     H87471   9.736   1.986   5.478  0.8034  1.1193  0.0895
  663MOL0     H87472   9.947   2.147   5.472 -0.8666  0.2233 -2.8295
  663MOL0     H87473  10.024   2.018   5.383 -1.8013  1.4479 -2.5092
  663MOL0     H87474   9.915   2.009   5.674  0.1676 -0.9968  0.6561
  663MOL0     H87475   9.968   1.861   5.594  0.1631 -1.2441 -1.0284
  663MOL0     H87476  10.190   1.940   5.573 -0.6075 -0.6657  1.1859
  663MOL0     H87477  10.139   1.961   5.742  0.3206  0.8487  1.1373
  663MOL0     H87478  10.324   2.141   5.438  1.8513 -3.3012 -1.2621
  663MOL0     H87479  10.556   2.109   5.455 -2.5217 -0.3926 -1.9234
  663MOL0     H87480  11.004   2.210   5.698  1.8323 -1.5736  0.1805
  663MOL0     H87481  11.225   2.162   5.658  1.0532  0.2469 -1.7478
  663MOL0     H87482  11.403   1.971   5.638 -0.9917 -1.9773 -2.1831
  663MOL0     H87483  11.416   2.138   5.583  4.1789  0.0952 -0.9653
  663MOL0     H87484  11.592   2.047   5.426  0.0356 -0.3512 -0.1896
  663MOL0     H87485  11.566   1.875   5.488  2.0487  0.1745  0.2246
  663MOL0     H87486  11.626   1.951   5.708  0.3873  0.3415  1.4999
  663MOL0     H87487  11.634   2.113   5.660 -2.3981 -1.0050  3.4446
  663MOL0     H87488  11.809   1.888   5.532  2.0554  0.2161  1.7793
  663MOL0     H87489  11.832   2.062   5.497  1.5489 -2.4566 -1.9105
  663MOL0     H87490  11.886   1.930   5.773  0.4689 -0.6708 -1.0885
  663MOL0     H87491  11.875   2.093   5.743 -1.3968 -0.7095  2.1627
  663MOL0     H87492  12.058   2.089   5.581 -1.5133 -0.3875 -1.2570
  663MOL0     H87493  12.067   1.916   5.580  0.8533 -1.4104  1.9450
  663MOL0     H87494  12.089   2.064   5.843 -0.2189  0.0430 -0.2910
  663MOL0     H87495  12.119   1.895   5.811  0.8826 -0.5888 -1.5192
  663MOL0     H87496  12.291   2.123   5.700  0.3784 -0.2940 -0.1114
  663MOL0     H87497  12.325   1.957   5.678 -4.5676 -3.2461  1.2153
  663MOL0     H87498  11.139   1.941   5.301  0.2005  0.1396 -0.3238
  663MOL0     H87499  10.898   1.949   5.366  0.6032 -1.3056  1.2198
  663MOL0     H87500  10.539   2.186   5.882  0.2079 -1.4950 -0.3422
  663MOL0     H87501  10.323   2.176   5.874  2.2620  3.5286  0.2290
  663MOL0     H87502   9.485   3.039   5.043 -3.3254  6.2209  0.6891
  663MOL0     H87503   9.670   3.202   5.095  1.6290 -0.4283  0.8439
  663MOL0     H87504  10.035   3.393   4.856 -4.2366  0.2154 -4.5913
  663MOL0     H87505  10.225   3.522   4.864 -0.7054 -2.6659  0.9540
  663MOL0     H87506  10.372   3.659   4.972  2.7645  0.6822 -0.1360
  663MOL0     H87507  10.424   3.828   4.981 -0.8993  0.6870  1.7656
  663MOL0     H87508  10.453   3.691   4.758 -0.9722 -1.9365 -0.5246
  663MOL0     H87509  10.288   3.758   4.728 -0.6548  0.9993  1.7452
  663MOL0     H87510  10.489   3.904   4.640 -0.9200 -0.5938 -0.2714
  663MOL0     H87511  10.554   3.902   4.793  2.9453  1.1690 -3.9178
  663MOL0     H87512  10.288   4.046   4.720  0.6722  2.1058 -0.2281
  663MOL0     H87513  10.346   4.029   4.884  1.3575  1.0114  0.1321
  663MOL0     H87514  10.566   4.350   4.701 -0.8202  0.0961 -1.7949
  663MOL0     H87515  10.004   3.850   5.018 -0.5295  1.0284 -2.5750
  663MOL0     H87516   9.801   3.733   5.012 -0.8230 -1.7112  1.1026
  664MOL0     O87517  10.085  10.625   3.478 -0.1375 -0.6822  0.1809
  664MOL0     C87518  10.092  10.543   3.578 -0.6779 -0.0705  0.7421
  664MOL0     O87519  10.084  10.405   3.575  0.3727 -0.6771  1.0514
  664MOL0     C87520  10.077  10.339   3.452 -0.2497 -1.2293 -0.7880
  664MOL0     C87521  10.194  10.342   3.380  0.1278  0.2433  0.4313
  664MOL0     C87522  10.201  10.271   3.258 -0.5225 -0.5379 -0.4135
  664MOL0     C87523  10.084  10.203   3.211 -0.3129  0.6297 -0.2412
  664MOL0     O87524  10.082  10.109   3.113 -0.2444 -0.1018  1.0228
  664MOL0     C87525  10.169  10.126   2.995  0.3442  0.6450  0.4173
  664MOL0     C87526  10.091  10.072   2.873  0.5497  0.4698  0.3857
  664MOL0     C87527  10.183  10.033   2.759 -0.8910  0.1155  0.5266
  664MOL0     C87528  10.255  10.142   2.682  0.0904 -0.1078 -0.2919
  664MOL0     C87529  10.380  10.091   2.615 -0.2292  0.0649 -0.9060
  664MOL0     C87530  10.459  10.205   2.550 -0.2886 -0.5621  1.1639
  664MOL0     C87531  10.566  10.259   2.643  0.5213  0.0023 -0.0453
  664MOL0     C87532  10.651  10.362   2.580 -0.1081  0.3903 -0.0424
  664MOL0     N87533  10.760  10.310   2.494  0.6979  0.3102 -0.7739
  664MOL0     C87534  10.888  10.305   2.520 -0.2201 -0.1083 -0.4390
  664MOL0     C87535  10.942  10.276   2.407 -0.2899  0.5921  0.7572
  664MOL0     C87536  11.078  10.270   2.371  0.4335 -0.3938  0.4228
  664MOL0     C87537  11.118  10.121   2.342  0.4943 -0.8861  0.5447
  664MOL0     C87538  11.274  10.115   2.308  0.8794 -0.5515 -0.2594
  664MOL0     C87539  11.312   9.970   2.268 -0.1530 -0.2888  0.0126
  664MOL0     O87540  11.456   9.963   2.279  0.3210  0.3921  0.0478
  664MOL0     C87541  11.521   9.850   2.247 -1.0406  0.0325  0.1918
  664MOL0     C87542  11.626   9.816   2.338  1.2199  0.7066 -0.9165
  664MOL0     C87543  11.712   9.705   2.312 -0.4612  0.7152  0.2223
  664MOL0     C87544  11.696   9.629   2.193 -0.3666  0.9075  0.5884
  664MOL0     C87545  11.759   9.499   2.168  1.0508 -0.2391 -0.0800
  664MOL0     O87546  11.767   9.445   2.033  0.1775 -0.5611  0.0773
  664MOL0     C87547  11.817   9.319   2.009  1.3384  0.9823 -0.0146
  664MOL0     C87548  11.929   9.267   2.067 -0.2387 -1.2312  0.0411
  664MOL0     C87549  11.978   9.140   2.050 -0.5653 -0.0172  0.1270
  664MOL0     C87550  11.909   9.049   1.962  0.3776  1.0176 -1.1393
  664MOL0     O87551  11.958   8.916   1.943 -0.1513 -0.2029 -0.5602
  664MOL0     C87552  11.870   8.811   1.931  0.9681 -0.0900 -0.1187
  664MOL0     C87553  11.886   8.709   2.047 -0.4005 -0.3092  0.5234
  664MOL0     C87554  11.774   8.603   2.046  0.0074 -0.0334  0.4113
  664MOL0     C87555  11.788   8.499   2.160  0.4078  0.4405  1.1068
  664MOL0     C87556  11.706   8.372   2.124  0.2917 -0.5179 -0.3372
  664MOL0     C87557  11.572   8.401   2.057 -0.0085  0.5174 -0.0940
  664MOL0     C87558  11.497   8.269   2.037  0.1933  0.4762  0.2028
  664MOL0     C87559  11.544   8.188   1.912 -0.9401  0.3017 -0.0890
  664MOL0    Cl87560  11.677   8.075   1.961 -0.1438 -0.3375 -0.3150
  664MOL0     C87561  11.788   9.101   1.907 -0.6129 -0.2276  0.7197
  664MOL0     C87562  11.744   9.233   1.930 -0.0112 -0.0362 -0.6247
  664MOL0     O87563  11.787   9.438   2.266  0.3871  0.0296 -0.2339
  664MOL0     C87564  11.589   9.664   2.097 -0.0645  0.1815 -0.4228
  664MOL0     C87565  11.500   9.770   2.127 -0.1432  0.3153 -0.9834
  664MOL0     N87566  10.844  10.257   2.310 -0.1864 -0.0633  0.5734
  664MOL0     N87567  10.730  10.273   2.369 -0.5502 -1.1357  0.5114
  664MOL0     C87568   9.971  10.206   3.290  0.3711  0.3887 -0.0896
  664MOL0     C87569   9.960  10.272   3.411 -1.0060  0.2628 -0.8912
  664MOL0     C87570  10.131  10.623   3.701  0.3875 -0.1804 -0.4157
  664MOL0     C87571  10.184  10.755   3.695  0.6688  0.1937  0.7630
  664MOL0     C87572  10.204  10.837   3.813  0.1146  0.0304  0.8699
  664MOL0     C87573  10.183  10.773   3.940 -0.6318 -0.4267  0.2099
  664MOL0     O87574  10.198  10.849   4.053 -1.2910 -0.0019  0.4676
  664MOL0     C87575  10.313  10.925   4.067  0.0895  0.0215 -0.5014
  664MOL0     C87576  10.347  10.923   4.222 -0.2656 -1.1299  0.5832
  664MOL0     C87577  10.368  10.777   4.265  0.6342 -0.0820 -0.6591
  664MOL0     C87578  10.501  10.711   4.227  0.2593 -0.5974 -0.1877
  664MOL0     C87579  10.611  10.774   4.295 -0.1346  1.0308 -0.4880
  664MOL0     C87580  10.703  10.823   4.359  0.2945 -0.2414  0.1014
  664MOL0     C87581  10.150  10.636   3.941 -0.4787  0.2610 -0.1174
  664MOL0     C87582  10.123  10.563   3.830  0.2388  0.2340 -0.2730
  664MOL0     H87583  10.289  10.389   3.405  4.4431 -4.3261 -4.7019
  664MOL0     H87584  10.295  10.270   3.204 -0.3901  0.9388 -0.2566
  664MOL0     H87585  10.252  10.059   3.019 -1.3234 -1.0641  1.7339
  664MOL0     H87586  10.206  10.228   2.984 -1.6350  1.1786 -2.3071
  664MOL0     H87587  10.006  10.134   2.842  0.7392  0.6245  0.1735
  664MOL0     H87588  10.046   9.976   2.903 -2.0289  1.9103  1.5094
  664MOL0     H87589  10.119   9.998   2.678 -0.4793 -1.1381  0.7243
  664MOL0     H87590  10.241   9.941   2.774 -2.4014 -1.4907 -2.6572
  664MOL0     H87591  10.189  10.182   2.605  1.7074 -1.2249 -2.3780
  664MOL0     H87592  10.293  10.223   2.745  0.9204 -0.7632  0.0850
  664MOL0     H87593  10.359  10.012   2.542  2.6572 -0.2774 -1.4925
  664MOL0     H87594  10.456  10.041   2.675 -0.8576 -0.9155 -0.9049
  664MOL0     H87595  10.387  10.282   2.521 -0.1169  0.8704  4.1607
  664MOL0     H87596  10.509  10.170   2.459  3.3834  4.0580  1.0964
  664MOL0     H87597  10.529  10.300   2.737  0.8539  4.8985 -1.7815
  664MOL0     H87598  10.631  10.175   2.671  1.9319  1.1507  0.1924
  664MOL0     H87599  10.709  10.397   2.666  1.0798  2.9325 -1.7480
  664MOL0     H87600  10.613  10.458   2.544 -1.5924 -0.1482  0.0476
  664MOL0     H87601  10.945  10.326   2.610  0.0569 -5.0257  0.8126
  664MOL0     H87602  11.154  10.301   2.443  3.1471 -3.3963 -0.8612
  664MOL0     H87603  11.088  10.323   2.276 -0.1156 -2.3208 -0.7705
  664MOL0     H87604  11.069  10.081   2.253  0.6438 -1.5721  0.7647
  664MOL0     H87605  11.094  10.055   2.425 -0.6963 -0.7914  0.2834
  664MOL0     H87606  11.295  10.182   2.225  1.8783  0.0503  0.4468
  664MOL0     H87607  11.333  10.148   2.394 -1.2665 -0.7492  1.3733
  664MOL0     H87608  11.273   9.949   2.168  0.1024  2.1461 -0.6556
  664MOL0     H87609  11.261   9.901   2.337 -0.5909 -1.1417 -1.1307
  664MOL0     H87610  11.641   9.863   2.435 -2.4946 -0.8061  0.5687
  664MOL0     H87611  11.781   9.658   2.382  0.8262 -1.3896 -2.2646
  664MOL0     H87612  11.982   9.345   2.122  0.3282  0.1001 -2.2585
  664MOL0     H87613  12.070   9.099   2.092 -3.1671 -2.7402  3.7889
  664MOL0     H87614  11.883   8.761   1.835  0.3077 -2.1365  0.8062
  664MOL0     H87615  11.769   8.854   1.929  0.4591 -1.2217 -3.1681
  664MOL0     H87616  11.902   8.766   2.140  1.0463  1.8073 -0.9296
  664MOL0     H87617  11.974   8.648   2.028  0.3302  0.2270  1.9697
  664MOL0     H87618  11.779   8.555   1.948 -1.5739 -0.5554  0.5580
  664MOL0     H87619  11.680   8.659   2.050  0.2619  0.3645  1.0643
  664MOL0     H87620  11.893   8.486   2.190  0.4219  1.0894  1.3602
  664MOL0     H87621  11.727   8.538   2.242  0.4361  0.5126  1.0928
  664MOL0     H87622  11.699   8.315   2.217  1.5889 -2.8557 -1.5672
  664MOL0     H87623  11.769   8.321   2.050  0.6320  0.4270 -0.7046
  664MOL0     H87624  11.597   8.456   1.966  1.0171  0.4875  0.1557
  664MOL0     H87625  11.505   8.467   2.112 -2.6182  0.5959 -3.0892
  664MOL0     H87626  11.495   8.209   2.128 -0.1160  1.6261  0.9791
  664MOL0     H87627  11.392   8.293   2.017 -0.6413 -0.7698  2.7173
  664MOL0     H87628  11.586   8.246   1.829  0.9313 -0.0237  0.5958
  664MOL0     H87629  11.466   8.123   1.871 -0.0038 -0.4622 -0.7046
  664MOL0     H87630  11.722   9.038   1.848  2.8030 -1.1965 -2.4835
  664MOL0     H87631  11.657   9.288   1.893 -0.3448 -0.4926 -0.5292
  664MOL0     H87632  11.553   9.596   2.021 -0.3261  0.4322 -0.5247
  664MOL0     H87633  11.425   9.794   2.053  0.5615  1.0814 -1.4706
  664MOL0     H87634   9.879  10.164   3.250  0.9774 -0.2040 -0.9030
  664MOL0     H87635   9.872  10.269   3.474  0.1077 -2.2589  0.7041
  664MOL0     H87636  10.204  10.782   3.592 -1.1671 -2.3651 -0.3763
  664MOL0     H87637  10.228  10.942   3.799  2.3873 -0.6010 -0.6223
  664MOL0     H87638  10.287  11.025   4.031 -2.3025  0.0644  1.1847
  664MOL0     H87639  10.393  10.889   4.001 -0.7422 -0.4705 -1.2651
  664MOL0     H87640  10.437  10.981   4.243  0.0005 -2.3221  3.1903
  664MOL0     H87641  10.263  10.971   4.273  0.2426  1.1809 -0.6341
  664MOL0     H87642  10.291  10.703   4.239  1.0551  0.0875 -2.6084
  664MOL0     H87643  10.354  10.776   4.373 -0.6500  1.2615 -0.7817
  664MOL0     H87644  10.498  10.603   4.244  0.0627 -0.3979  1.1479
  664MOL0     H87645  10.515  10.727   4.120 -1.6855 -0.6333 -0.4861
  664MOL0     H87646  10.777  10.883   4.407  1.8588 -0.0614 -2.3367
  664MOL0     H87647  10.122  10.606   4.042 -2.4495  0.0525 -0.6752
  664MOL0     H87648  10.076  10.467   3.849 -1.6593  1.2310  0.3397
  665MOL0     O87649   1.912   1.743   8.755  0.1861  0.1073 -0.4489
  665MOL0     C87650   1.935   1.635   8.689  0.0058 -0.4809 -0.4543
  665MOL0     O87651   1.987   1.634   8.561  0.6479  0.2973 -0.7428
  665MOL0     C87652   1.993   1.748   8.498 -0.6303 -0.1490 -0.4331
  665MOL0     C87653   2.088   1.849   8.538  0.8846 -1.1641 -0.0909
  665MOL0     C87654   2.111   1.951   8.447  0.3367 -0.8914 -0.7820
  665MOL0     C87655   2.048   1.959   8.325  0.5111  0.2563 -0.1661
  665MOL0     O87656   2.061   2.071   8.251 -0.3853 -0.1504  0.8191
  665MOL0     C87657   1.942   2.161   8.251 -0.4254  0.4343  0.4281
  665MOL0     C87658   1.993   2.301   8.224 -0.1373 -0.0022 -0.8509
  665MOL0     C87659   2.056   2.323   8.087 -0.2184 -0.4917  0.5231
  665MOL0     C87660   2.145   2.454   8.083 -0.8513 -0.3977 -0.4482
  665MOL0     C87661   2.182   2.495   7.938 -0.3950  0.1233  0.0887
  665MOL0     C87662   2.064   2.505   7.836 -0.5049 -0.8336 -0.0223
  665MOL0     C87663   2.124   2.589   7.717 -0.0183 -0.2358 -0.6526
  665MOL0     C87664   2.045   2.565   7.584  0.5159 -0.3059  0.1640
  665MOL0     N87665   2.115   2.636   7.480  0.7254  0.2946 -0.1305
  665MOL0     C87666   2.142   2.768   7.473 -0.4196 -0.5178  0.7230
  665MOL0     C87667   2.217   2.790   7.364  1.2031  0.4293  0.5253
  665MOL0     C87668   2.254   2.919   7.299 -0.7154  0.2799  0.0838
  665MOL0     C87669   2.339   2.896   7.173 -0.3872  0.1974  0.2084
  665MOL0     C87670   2.484   2.862   7.223 -0.4586 -0.2738  0.4917
  665MOL0     C87671   2.599   2.871   7.118 -0.4972 -0.2165 -0.1165
  665MOL0     O87672   2.582   2.781   7.009 -0.4848 -0.3645 -0.5095
  665MOL0     C87673   2.690   2.721   6.946  0.4408 -1.2690 -0.5359
  665MOL0     C87674   2.659   2.634   6.845 -0.3141  0.3331 -0.1638
  665MOL0     C87675   2.760   2.573   6.776 -0.2076  0.8849  0.5301
  665MOL0     C87676   2.891   2.604   6.795  0.3716  0.6331  0.7688
  665MOL0     C87677   2.995   2.530   6.726 -0.8914  0.4829  0.3919
  665MOL0     O87678   3.105   2.604   6.693 -0.0426 -0.0088  0.2524
  665MOL0     C87679   3.224   2.546   6.636  1.0019 -0.3051 -0.0816
  665MOL0     C87680   3.323   2.635   6.596 -0.0688 -0.6302  0.5082
  665MOL0     C87681   3.446   2.594   6.542 -0.3178 -0.8350 -0.1379
  665MOL0     C87682   3.474   2.465   6.519  0.2863  0.2284  0.6229
  665MOL0     O87683   3.601   2.441   6.458  0.3788  0.1286 -0.6279
  665MOL0     C87684   3.671   2.320   6.477 -0.2620  1.0973 -0.0530
  665MOL0     C87685   3.722   2.330   6.625  0.3194  0.0863  0.2174
  665MOL0     C87686   3.774   2.195   6.670  0.0541 -0.3664 -0.1138
  665MOL0     C87687   3.783   2.187   6.821  0.0172 -0.5634  0.0316
  665MOL0     C87688   3.859   2.060   6.860  0.1475  0.1524 -0.4520
  665MOL0     C87689   3.929   2.102   6.989 -1.0694  0.4040  0.1695
  665MOL0     C87690   4.005   1.971   7.028 -0.9220 -0.7693  0.9375
  665MOL0     C87691   3.912   1.861   7.086 -0.1073  0.5223  0.2239
  665MOL0    Cl87692   3.972   1.785   7.248 -0.2105 -0.5254 -0.1740
  665MOL0     C87693   3.380   2.365   6.560 -0.4691 -0.0884 -0.9115
  665MOL0     C87694   3.252   2.409   6.612  0.0758  0.6224  1.7280
  665MOL0     O87695   2.983   2.417   6.683  0.1279 -0.2786  0.3232
  665MOL0     C87696   2.921   2.690   6.901  0.4121 -0.2239  0.3425
  665MOL0     C87697   2.827   2.757   6.969  0.2285 -0.2802 -0.3514
  665MOL0     N87698   2.242   2.666   7.313 -0.1876 -0.0973 -0.2622
  665MOL0     N87699   2.176   2.581   7.375 -0.0812  0.4812 -0.0643
  665MOL0     C87700   1.963   1.855   8.284  0.4108  0.1344  0.8198
  665MOL0     C87701   1.936   1.745   8.375 -0.0888 -0.4226  1.0212
  665MOL0     C87702   1.921   1.513   8.775 -0.4971  0.2784  0.8018
  665MOL0     C87703   1.951   1.388   8.706  0.2272  0.0479  0.0331
  665MOL0     C87704   1.933   1.271   8.782 -0.5653 -0.1322  0.2314
  665MOL0     C87705   1.886   1.278   8.907 -0.1536 -0.8921  0.0928
  665MOL0     O87706   1.891   1.155   8.964  0.2229  0.4386 -0.4634
  665MOL0     C87707   1.864   1.130   9.102 -0.3120 -0.2268  0.2091
  665MOL0     C87708   1.969   1.198   9.195 -0.5553  0.5606  0.2038
  665MOL0     C87709   2.109   1.151   9.170 -0.0514  0.2117 -0.2951
  665MOL0     C87710   2.216   1.225   9.245  0.0290  0.2400 -0.5052
  665MOL0     C87711   2.235   1.373   9.218  0.0725  0.9925  0.0690
  665MOL0     C87712   2.236   1.489   9.174 -0.6150 -0.3689 -1.1012
  665MOL0     C87713   1.838   1.392   8.958 -0.4750  0.4377 -0.1652
  665MOL0     C87714   1.858   1.513   8.899  0.1562 -0.0879 -0.7929
  665MOL0     H87715   2.151   1.858   8.627 -1.8256  6.1314  1.7972
  665MOL0     H87716   2.174   2.037   8.469  2.5414 -2.1486 -1.8099
  665MOL0     H87717   1.880   2.161   8.341 -0.8215 -1.8706  0.2130
  665MOL0     H87718   1.881   2.114   8.172 -0.0616 -2.2270  1.6287
  665MOL0     H87719   2.058   2.325   8.309  1.0384 -1.0691 -1.4280
  665MOL0     H87720   1.905   2.365   8.235  1.7693  2.3761  2.5433
  665MOL0     H87721   1.974   2.317   8.015  1.3067 -0.0048 -1.3315
  665MOL0     H87722   2.127   2.244   8.061  0.0630 -0.6325  1.6633
  665MOL0     H87723   2.086   2.534   8.130 -0.4823  0.8920 -2.0866
  665MOL0     H87724   2.237   2.435   8.139 -0.2497 -0.8544 -1.5724
  665MOL0     H87725   2.240   2.408   7.907  0.5298  0.4807  0.7457
  665MOL0     H87726   2.251   2.579   7.928 -0.3850  0.1986  0.7122
  665MOL0     H87727   1.978   2.556   7.880  1.3634  0.6837  2.1042
  665MOL0     H87728   2.025   2.407   7.806  0.1977 -0.9911 -0.4500
  665MOL0     H87729   2.121   2.695   7.740  0.6392 -0.1323 -1.0163
  665MOL0     H87730   2.229   2.563   7.702  0.7701  1.1005  2.1070
  665MOL0     H87731   1.939   2.592   7.588 -0.9183 -4.8288 -1.1548
  665MOL0     H87732   2.054   2.458   7.562  3.0401  0.2753 -2.1377
  665MOL0     H87733   2.096   2.845   7.532 -2.3149 -2.1644  1.5130
  665MOL0     H87734   2.292   2.991   7.371  1.1391  1.4383 -1.9188
  665MOL0     H87735   2.159   2.956   7.259  0.8797 -0.4452 -5.1759
  665MOL0     H87736   2.343   2.989   7.117  0.8446  0.8796  1.3651
  665MOL0     H87737   2.309   2.816   7.104  0.3482  2.2031 -2.5835
  665MOL0     H87738   2.513   2.926   7.307  1.9785 -0.6671  0.0214
  665MOL0     H87739   2.478   2.760   7.260 -0.2044 -0.5645 -0.2418
  665MOL0     H87740   2.690   2.852   7.175  0.3662  0.1857 -1.3325
  665MOL0     H87741   2.619   2.974   7.087  1.3066 -0.6470 -0.4873
  665MOL0     H87742   2.557   2.603   6.824  0.6923 -3.2531 -0.4277
  665MOL0     H87743   2.725   2.497   6.708 -0.2804  4.3377 -3.7796
  665MOL0     H87744   3.306   2.741   6.612 -0.5294 -0.5668 -0.3789
  665MOL0     H87745   3.523   2.666   6.514 -3.2503  0.9393 -4.7410
  665MOL0     H87746   3.748   2.312   6.400 -1.3990  1.0755 -1.1988
  665MOL0     H87747   3.604   2.233   6.472 -1.0085  1.3129  3.3664
  665MOL0     H87748   3.646   2.361   6.698  2.2105 -1.5063  3.0777
  665MOL0     H87749   3.795   2.409   6.643 -0.2818  1.7913 -3.7592
  665MOL0     H87750   3.875   2.183   6.632  0.7599  0.8372  1.2650
  665MOL0     H87751   3.703   2.120   6.633 -0.2094 -0.9779  1.5350
  665MOL0     H87752   3.844   2.274   6.843  0.9320 -0.5975 -2.1031
  665MOL0     H87753   3.682   2.197   6.863 -0.6353 -0.2475 -1.5227
  665MOL0     H87754   3.926   2.029   6.779 -0.0713 -0.6203 -0.3476
  665MOL0     H87755   3.798   1.972   6.881  3.6340 -2.1461  1.0072
  665MOL0     H87756   3.859   2.129   7.068 -0.4110  0.0634  0.8822
  665MOL0     H87757   3.998   2.187   6.980  0.7539 -0.6732  2.7187
  665MOL0     H87758   4.066   1.937   6.944 -1.0691 -0.3399  0.6518
  665MOL0     H87759   4.062   2.000   7.117  0.5724 -5.0554  1.6545
  665MOL0     H87760   3.907   1.783   7.010 -3.0031  2.0214 -1.2640
  665MOL0     H87761   3.810   1.894   7.108 -0.7544 -2.2146  1.9377
  665MOL0     H87762   3.414   2.263   6.551  3.9556  0.7261  2.7151
  665MOL0     H87763   3.177   2.334   6.635 -1.4480  1.2727 -0.7569
  665MOL0     H87764   3.021   2.727   6.920  1.4752 -3.8929  3.1641
  665MOL0     H87765   2.871   2.832   7.034  1.8981  0.5006 -2.2514
  665MOL0     H87766   1.924   1.847   8.183  1.8252 -1.8145  0.3563
  665MOL0     H87767   1.873   1.661   8.347 -0.0391 -0.1340  0.0042
  665MOL0     H87768   1.992   1.393   8.606  2.4136  2.0442  0.9009
  665MOL0     H87769   1.959   1.173   8.743  1.5937  0.6069 -0.3118
  665MOL0     H87770   1.868   1.025   9.131  3.4167 -1.0310 -2.4687
  665MOL0     H87771   1.763   1.163   9.127 -0.1637  0.4971 -0.1157
  665MOL0     H87772   1.969   1.306   9.183 -0.0945  0.3408 -2.2288
  665MOL0     H87773   1.954   1.172   9.300  0.5746 -0.2777  0.1805
  665MOL0     H87774   2.146   1.150   9.067  2.2702  0.7753  0.4699
  665MOL0     H87775   2.103   1.048   9.207 -1.1854 -0.6635 -2.7008
  665MOL0     H87776   2.190   1.212   9.351  0.1072  0.1692 -0.4951
  665MOL0     H87777   2.310   1.178   9.216  2.6663  1.0936  5.2795
  665MOL0     H87778   2.225   1.588   9.133  0.5305 -1.2442 -3.7147
  665MOL0     H87779   1.793   1.395   9.057 -2.3638 -0.1411 -0.9621
  665MOL0     H87780   1.818   1.605   8.940  1.9797  1.2087 -1.7840
  666MOL0     O87781   1.087   4.777  10.048  0.2406 -0.8894  0.2059
  666MOL0     C87782   1.013   4.752   9.960  0.1270  0.7603 -0.4319
  666MOL0     O87783   0.962   4.626   9.931 -0.3033  0.0130 -0.5283
  666MOL0     C87784   0.998   4.506   9.998 -0.4572  0.3270  0.9837
  666MOL0     C87785   1.075   4.490  10.121 -0.4817 -0.8754 -0.2914
  666MOL0     C87786   1.111   4.357  10.168  0.4642 -1.0080  0.5675
  666MOL0     C87787   1.072   4.235  10.105  0.3013 -0.6964  0.0699
  666MOL0     O87788   1.104   4.106  10.146 -0.1345 -0.4807  0.0768
  666MOL0     C87789   1.147   4.068  10.281 -0.6997  0.2191 -0.5542
  666MOL0     C87790   1.286   4.098  10.324  1.8753 -0.7379  0.0102
  666MOL0     C87791   1.388   4.056  10.223 -0.7841 -0.0163 -0.3529
  666MOL0     C87792   1.527   4.060  10.287  0.3244 -0.3007  0.4597
  666MOL0     C87793   1.632   3.987  10.200 -0.9560  0.2278 -0.3929
  666MOL0     C87794   1.764   4.003  10.276 -0.1907  1.0188  0.0344
  666MOL0     C87795   1.871   3.948  10.189 -0.4944 -0.5355 -0.1946
  666MOL0     C87796   2.012   3.965  10.253  0.0101  0.2430  0.1551
  666MOL0     N87797   2.047   4.101  10.308  0.7692  0.2926 -0.1014
  666MOL0     C87798   2.022   4.126  10.442  0.5174 -0.3320 -1.0533
  666MOL0     C87799   2.069   4.260  10.459  0.6891  0.6959  0.4124
  666MOL0     C87800   2.080   4.347  10.585  0.3879  0.0709 -1.1460
  666MOL0     C87801   1.950   4.388  10.646  0.5418 -0.4364  0.9003
  666MOL0     C87802   1.858   4.444  10.549  0.6543 -0.4275  0.4620
  666MOL0     C87803   1.915   4.569  10.484  0.6058 -1.6638 -0.7138
  666MOL0     O87804   1.913   4.676  10.580 -0.8214 -0.0738 -0.6692
  666MOL0     C87805   1.811   4.771  10.554  0.5894  0.5064  0.5435
  666MOL0     C87806   1.696   4.763  10.625 -0.1052 -0.2449  0.4703
  666MOL0     C87807   1.605   4.867  10.612  0.3474 -0.2027 -0.4342
  666MOL0     C87808   1.629   4.977  10.536  0.1381 -0.7703  0.7468
  666MOL0     C87809   1.544   5.095  10.551 -0.6587  0.0398 -0.4391
  666MOL0     O87810   1.434   5.094  10.635 -0.3472 -0.5304 -0.2476
  666MOL0     C87811   1.375   5.211  10.661  0.6171  0.0623  0.4515
  666MOL0     C87812   1.440   5.304  10.753  0.5605  0.4628 -0.1343
  666MOL0     C87813   1.378   5.423  10.791  0.6143  0.0137 -0.6055
  666MOL0     C87814   1.249   5.456  10.732 -0.0013 -0.4028  0.5796
  666MOL0     O87815   1.172   5.567  10.771  0.0937 -0.3790  0.2048
  666MOL0     C87816   1.234   5.689  10.804  0.3896  0.4615 -0.3828
  666MOL0     C87817   1.249   5.691  10.955 -0.6048  0.8208 -0.0762
  666MOL0     C87818   1.302   5.839  10.994  0.9758  0.6876 -0.5821
  666MOL0     C87819   1.283   5.858  11.144  0.2337 -0.5391  0.0737
  666MOL0     C87820   1.312   6.004  11.175 -0.0766  0.0105 -0.2951
  666MOL0     C87821   1.463   6.038  11.151 -0.1594 -0.0284 -0.0482
  666MOL0     C87822   1.566   5.954  11.226  1.3965  1.2810 -1.0321
  666MOL0     C87823   1.699   6.017  11.205  0.3685 -0.5855 -0.5641
  666MOL0    Cl87824   1.815   5.954  11.333 -0.3422 -0.7752  0.2951
  666MOL0     C87825   1.193   5.369  10.639  0.5320  0.2587 -0.3790
  666MOL0     C87826   1.250   5.249  10.604 -0.5212  0.8113 -0.8289
  666MOL0     O87827   1.577   5.190  10.473 -0.7239  0.2411 -0.6150
  666MOL0     C87828   1.742   4.977  10.456  0.6526  0.0519 -0.1843
  666MOL0     C87829   1.830   4.869  10.455  1.2362  0.6733  0.8214
  666MOL0     N87830   2.129   4.298  10.334  0.1645 -1.3830  0.4037
  666MOL0     N87831   2.112   4.207  10.242 -0.1602  0.6689 -0.0253
  666MOL0     C87832   1.001   4.257   9.994 -0.0629  0.1804 -0.0973
  666MOL0     C87833   0.958   4.388   9.948  0.2455  0.4919 -0.2041
  666MOL0     C87834   0.985   4.870   9.868  0.2193 -0.0577  0.6620
  666MOL0     C87835   0.900   4.844   9.768 -0.3349  0.9888  0.4666
  666MOL0     C87836   0.861   4.946   9.679 -0.6211 -0.1147 -0.1155
  666MOL0     C87837   0.917   5.073   9.691  0.1568  0.5656  1.4689
  666MOL0     O87838   0.905   5.175   9.595 -0.1478 -0.1050 -0.2591
  666MOL0     C87839   0.823   5.159   9.487  0.2870  0.6701  0.2971
  666MOL0     C87840   0.843   5.263   9.384  0.3131  0.4987 -0.1726
  666MOL0     C87841   0.796   5.401   9.436 -1.0269  0.2496 -0.9970
  666MOL0     C87842   0.811   5.502   9.332  0.5199  1.0227  0.4880
  666MOL0     C87843   0.752   5.471   9.196 -0.3857  0.0270  0.2831
  666MOL0     C87844   0.714   5.482   9.086 -0.3388 -0.5498  0.7886
  666MOL0     C87845   0.999   5.102   9.800 -0.0822 -0.3305 -0.5900
  666MOL0     C87846   1.028   4.995   9.885 -0.8119 -0.0540  0.3578
  666MOL0     H87847   1.108   4.576  10.178 -0.6631 -1.5502  0.8759
  666MOL0     H87848   1.145   4.349  10.271 -1.4727 -3.2561  1.1346
  666MOL0     H87849   1.140   3.959  10.281  2.3080 -0.1662 -3.5771
  666MOL0     H87850   1.074   4.111  10.350 -0.9309 -2.2117  0.8533
  666MOL0     H87851   1.298   4.046  10.419  0.8699 -2.6421 -0.8615
  666MOL0     H87852   1.299   4.203  10.352  0.2575 -0.4783 -0.1061
  666MOL0     H87853   1.381   4.121  10.135  0.2473  0.7377  0.0990
  666MOL0     H87854   1.364   3.953  10.197 -0.0503 -0.3122  0.1115
  666MOL0     H87855   1.559   4.162  10.311 -0.2861 -0.7907  3.8794
  666MOL0     H87856   1.526   4.013  10.386 -0.1107  2.0472  1.6358
  666MOL0     H87857   1.649   4.019  10.097 -4.4481  2.2381 -0.5046
  666MOL0     H87858   1.611   3.880  10.199 -0.2237  0.0771 -2.1889
  666MOL0     H87859   1.761   3.946  10.369 -0.3348 -0.6337 -0.9555
  666MOL0     H87860   1.769   4.108  10.306 -2.6559  1.2057 -0.0281
  666MOL0     H87861   1.849   3.842  10.177  1.6370 -1.0997  0.4072
  666MOL0     H87862   1.874   4.000  10.092  0.9226 -2.3823 -1.2224
  666MOL0     H87863   2.080   3.938  10.172 -2.6134 -1.9668 -1.4840
  666MOL0     H87864   2.027   3.894  10.335 -2.2516  1.5503  1.8370
  666MOL0     H87865   1.966   4.059  10.506  1.5614 -0.4193 -0.1928
  666MOL0     H87866   2.135   4.440  10.571  0.7880  0.0245  0.0185
  666MOL0     H87867   2.128   4.289  10.664 -2.2524 -1.7212 -0.7220
  666MOL0     H87868   1.971   4.461  10.725  1.8365 -0.5438  0.6767
  666MOL0     H87869   1.908   4.306  10.705  2.9485  0.1099  3.6066
  666MOL0     H87870   1.844   4.376  10.465  0.2467 -0.2250  0.3623
  666MOL0     H87871   1.768   4.484  10.596  0.7640  0.8434 -0.3436
  666MOL0     H87872   1.866   4.611  10.396  1.7176 -0.3448 -0.7420
  666MOL0     H87873   2.016   4.557  10.445  0.2676 -0.6538 -1.9766
  666MOL0     H87874   1.683   4.688  10.702  0.6258 -1.9066 -0.9544
  666MOL0     H87875   1.515   4.845  10.668 -0.0291  0.1536 -0.8956
  666MOL0     H87876   1.532   5.275  10.802  2.1601  2.1590 -1.9265
  666MOL0     H87877   1.444   5.480  10.855  2.3107 -1.4006 -0.9955
  666MOL0     H87878   1.167   5.770  10.774 -0.0412  0.3600  0.2859
  666MOL0     H87879   1.330   5.690  10.750  0.4720  0.5589 -0.2332
  666MOL0     H87880   1.310   5.604  10.981 -0.9479 -0.9734 -4.2578
  666MOL0     H87881   1.154   5.664  11.003 -1.2355  0.6341 -1.3767
  666MOL0     H87882   1.246   5.918  10.943  0.4912  0.2359 -0.7486
  666MOL0     H87883   1.406   5.850  10.960  1.1406  1.2778  0.0826
  666MOL0     H87884   1.179   5.833  11.167  0.5453 -1.4351  0.5616
  666MOL0     H87885   1.347   5.784  11.193 -1.3412 -1.1718  1.2593
  666MOL0     H87886   1.293   6.034  11.278  1.4254 -0.4115  0.1398
  666MOL0     H87887   1.247   6.068  11.116 -0.8558 -0.7324 -0.2591
  666MOL0     H87888   1.485   6.144  11.164  3.4892 -0.2695 -2.6224
  666MOL0     H87889   1.500   6.024  11.049  1.7698 -0.4277  0.6471
  666MOL0     H87890   1.537   5.933  11.330 -1.4899  1.4246 -1.7147
  666MOL0     H87891   1.569   5.858  11.174  1.2642  1.0489 -0.6144
  666MOL0     H87892   1.679   6.124  11.215 -0.0256 -0.7979  1.1639
  666MOL0     H87893   1.745   5.993  11.109  0.6229 -3.1906  0.1276
  666MOL0     H87894   1.101   5.406  10.595  2.2637  2.4697 -2.4151
  666MOL0     H87895   1.209   5.182  10.529  1.5976  0.8452 -2.0942
  666MOL0     H87896   1.758   5.057  10.384 -4.7030  1.2783 -0.4597
  666MOL0     H87897   1.926   4.871  10.404  1.8079 -1.1924  1.7294
  666MOL0     H87898   0.962   4.165   9.950 -2.3764  0.9742  0.1380
  666MOL0     H87899   0.887   4.394   9.866  1.0840 -1.2147 -1.1255
  666MOL0     H87900   0.843   4.752   9.775 -1.1186  1.4189 -0.1171
  666MOL0     H87901   0.791   4.928   9.598 -1.6945  3.0459 -0.0177
  666MOL0     H87902   0.722   5.163   9.527  1.1093  2.1102  2.3939
  666MOL0     H87903   0.831   5.068   9.426 -1.9225  1.7033 -1.7212
  666MOL0     H87904   0.950   5.258   9.360  0.0058 -0.5949 -1.4224
  666MOL0     H87905   0.783   5.234   9.298  0.1738  1.0218 -0.2555
  666MOL0     H87906   0.844   5.448   9.522 -0.6943 -3.1266  0.8164
  666MOL0     H87907   0.689   5.390   9.455 -1.1210  2.2024 -0.1512
  666MOL0     H87908   0.753   5.590   9.362 -3.8824 -2.0526  1.8636
  666MOL0     H87909   0.917   5.523   9.313  0.4817 -0.3622 -1.5524
  666MOL0     H87910   0.674   5.471   8.987  0.1065 -0.2812  0.5810
  666MOL0     H87911   1.032   5.203   9.822 -0.0186 -0.4894  0.0709
  666MOL0     H87912   1.099   5.025   9.961  1.2983  0.4760 -1.7046
  667MOL0     O87913   0.091   0.996   8.495  0.8007 -0.7731 -0.3381
  667MOL0     C87914  -0.003   0.964   8.432  0.5120 -0.6481 -0.4919
  667MOL0     O87915  -0.123   0.920   8.486  0.3032 -0.6811 -0.4356
  667MOL0     C87916  -0.139   0.950   8.624 -0.6300  0.1473 -0.4153
  667MOL0     C87917  -0.210   1.061   8.661 -0.4513 -0.4595 -0.6800
  667MOL0     C87918  -0.232   1.099   8.792  0.0166 -0.1442 -0.5193
  667MOL0     C87919  -0.190   1.012   8.895 -0.1485 -0.4654  0.7618
  667MOL0     O87920  -0.194   1.059   9.027 -0.6451 -0.4560 -0.1500
  667MOL0     C87921  -0.153   0.971   9.131 -0.7277 -0.2076 -0.0954
  667MOL0     C87922  -0.170   1.049   9.265  0.1112  0.2778  0.4117
  667MOL0     C87923  -0.065   0.996   9.356 -0.2103  0.5455  0.6293
  667MOL0     C87924  -0.064   1.076   9.490  1.2675 -0.3821 -0.5516
  667MOL0     C87925   0.025   1.009   9.595  0.3162  0.7903 -0.7747
  667MOL0     C87926   0.179   1.025   9.565  0.5741 -0.4717 -0.0137
  667MOL0     C87927   0.264   0.939   9.663 -0.2087  0.5974 -0.4572
  667MOL0     C87928   0.420   0.979   9.683 -0.7892 -0.0203 -0.5510
  667MOL0     N87929   0.499   0.910   9.576  0.2420 -0.5407 -0.2915
  667MOL0     C87930   0.580   0.803   9.579 -0.0293  0.3307  0.0446
  667MOL0     C87931   0.663   0.807   9.480 -0.2048 -0.4551  0.5710
  667MOL0     C87932   0.784   0.724   9.426 -0.0946  0.1049  0.0574
  667MOL0     C87933   0.884   0.685   9.536 -0.6107  0.3631 -0.5007
  667MOL0     C87934   1.027   0.671   9.486  0.5782 -0.1058  0.5342
  667MOL0     C87935   1.036   0.539   9.388 -0.1744 -0.0416  0.1218
  667MOL0     O87936   1.161   0.466   9.376 -0.6550  0.6541  1.0563
  667MOL0     C87937   1.268   0.535   9.322  0.5042  0.4186  0.9039
  667MOL0     C87938   1.388   0.515   9.381  0.3827  0.6821 -0.4079
  667MOL0     C87939   1.508   0.571   9.342  0.0169  0.0740  0.1809
  667MOL0     C87940   1.497   0.668   9.237 -0.1397  1.1539  1.7342
  667MOL0     C87941   1.615   0.736   9.208  0.1866 -0.2303 -0.2184
  667MOL0     O87942   1.731   0.669   9.169 -0.3986  1.1432 -0.3685
  667MOL0     C87943   1.740   0.528   9.176 -0.4611 -0.0365  0.9754
  667MOL0     C87944   1.658   0.438   9.103  0.0501  0.2135 -0.3203
  667MOL0     C87945   1.676   0.298   9.132  0.0543 -0.2644  0.2645
  667MOL0     C87946   1.772   0.247   9.221  0.5867 -0.8747  0.0428
  667MOL0     O87947   1.779   0.108   9.203 -0.4573  0.3868  0.1320
  667MOL0     C87948   1.885   0.038   9.264  0.3651 -1.1930 -0.1685
  667MOL0     C87949   1.848  -0.100   9.238  0.4198  0.3796  0.1463
  667MOL0     C87950   1.950  -0.200   9.285 -0.3451 -0.5844  0.2633
  667MOL0     C87951   1.913  -0.347   9.273  0.2411  0.5625  0.1893
  667MOL0     C87952   2.028  -0.440   9.313  0.1174 -0.0001  0.1915
  667MOL0     C87953   1.972  -0.582   9.297 -0.5582  0.6906 -0.6671
  667MOL0     C87954   2.091  -0.686   9.295  0.0018  0.6162 -0.2475
  667MOL0     C87955   2.041  -0.834   9.286 -0.5095 -0.2874 -0.0268
  667MOL0    Cl87956   1.967  -0.873   9.135  0.0836 -0.1425 -0.4816
  667MOL0     C87957   1.851   0.338   9.284 -0.1019  0.9565  0.3808
  667MOL0     C87958   1.832   0.474   9.264 -0.2510  0.4764 -1.0451
  667MOL0     O87959   1.612   0.857   9.207 -0.4677 -0.4388 -0.0113
  667MOL0     C87960   1.372   0.688   9.164  0.7764  0.2538 -0.0077
  667MOL0     C87961   1.257   0.622   9.207  0.1451  0.2593 -0.3604
  667MOL0     N87962   0.621   0.915   9.411 -0.1724 -0.3074  1.3178
  667MOL0     N87963   0.525   0.977   9.464 -0.1284  0.0020 -0.0975
  667MOL0     C87964  -0.111   0.898   8.863  0.1261 -1.1073 -0.4253
  667MOL0     C87965  -0.086   0.876   8.723  0.3180  1.1010 -1.5114
  667MOL0     C87966   0.013   0.969   8.285 -0.3556 -0.2517  1.4592
  667MOL0     C87967  -0.095   0.958   8.198  0.4305  0.0537 -0.2541
  667MOL0     C87968  -0.085   0.937   8.060  0.5728 -1.0126 -0.3694
  667MOL0     C87969   0.043   0.952   7.996 -0.2415 -0.0142  0.6813
  667MOL0     O87970   0.066   0.962   7.861  0.0993 -0.0153 -0.0088
  667MOL0     C87971   0.024   0.839   7.796  0.7379  0.5666 -0.1922
  667MOL0     C87972   0.069   0.828   7.647  0.6068 -0.4764  0.0627
  667MOL0     C87973   0.222   0.822   7.650 -0.0215  0.4828 -0.6993
  667MOL0     C87974   0.293   0.834   7.513 -0.4193  0.7850 -0.6154
  667MOL0     C87975   0.245   0.730   7.424 -0.4700 -0.3327 -0.7001
  667MOL0     C87976   0.179   0.673   7.343  1.2129  0.6932 -0.8298
  667MOL0     C87977   0.153   0.972   8.082 -0.0350  0.2589  0.5886
  667MOL0     C87978   0.134   0.985   8.221  0.6260  0.1542 -0.0847
  667MOL0     H87979  -0.234   1.125   8.577  0.7066 -0.1456 -0.7878
  667MOL0     H87980  -0.284   1.191   8.819  0.7993  0.1199  0.1163
  667MOL0     H87981  -0.058   0.935   9.090 -0.2375  1.7153 -0.7857
  667MOL0     H87982  -0.219   0.885   9.137 -0.0722 -0.7462 -0.4157
  667MOL0     H87983  -0.272   1.030   9.298  0.7287 -1.9108  1.2488
  667MOL0     H87984  -0.152   1.153   9.234  1.7056 -0.3818 -1.0434
  667MOL0     H87985   0.037   1.003   9.317  0.3145 -3.2764  0.9252
  667MOL0     H87986  -0.082   0.890   9.378  1.3030 -0.1611 -1.3703
  667MOL0     H87987  -0.025   1.177   9.470 -3.8194  1.9028 -0.4592
  667MOL0     H87988  -0.154   1.097   9.548  2.5623 -1.9561  2.2668
  667MOL0     H87989   0.012   0.901   9.605  2.4566  0.4709 -0.8919
  667MOL0     H87990   0.008   1.048   9.695  1.5315  0.9304 -0.6133
  667MOL0     H87991   0.214   1.128   9.577  0.5025 -0.4655  0.1378
  667MOL0     H87992   0.210   0.990   9.466  1.7543  1.1781 -0.2607
  667MOL0     H87993   0.223   0.946   9.764  1.0337  1.8280 -0.0047
  667MOL0     H87994   0.257   0.834   9.632 -1.8662 -0.4098  2.8877
  667MOL0     H87995   0.469   0.960   9.779  0.6123  3.1086 -0.5265
  667MOL0     H87996   0.428   1.086   9.664  0.9152 -0.3581 -2.0136
  667MOL0     H87997   0.593   0.742   9.667  1.5533  1.1468  0.4228
  667MOL0     H87998   0.841   0.775   9.348  1.5179  1.8932  2.2409
  667MOL0     H87999   0.748   0.628   9.388  2.4889 -1.1270  0.5011
  667MOL0     H88000   0.856   0.592   9.586 -1.2057 -1.2801 -3.6334
  667MOL0     H88001   0.893   0.765   9.610 -0.1368 -2.0871  2.3063
  667MOL0     H88002   1.056   0.758   9.426  3.9610  0.9681  3.3841
  667MOL0     H88003   1.091   0.668   9.574  0.7012 -2.5331  0.4486
  667MOL0     H88004   1.004   0.560   9.285 -1.5204  4.0071  1.1634
  667MOL0     H88005   0.972   0.457   9.420  1.5671 -1.6883 -0.4437
  667MOL0     H88006   1.396   0.451   9.468  2.5548  1.3181 -0.0804
  667MOL0     H88007   1.601   0.552   9.394  1.1110 -0.2396 -1.8049
  667MOL0     H88008   1.595   0.479   9.025  0.1261  1.7630  0.4062
  667MOL0     H88009   1.617   0.213   9.101  0.8318 -0.7039 -0.0481
  667MOL0     H88010   1.886   0.065   9.370  1.0611 -3.7913  0.5547
  667MOL0     H88011   1.968   0.074   9.203 -0.8187 -1.1957 -1.8580
  667MOL0     H88012   1.819  -0.116   9.133  0.7688  0.7107 -0.0031
  667MOL0     H88013   1.756  -0.110   9.296  1.4081 -0.6845  1.5921
  667MOL0     H88014   1.971  -0.185   9.391 -1.5559  0.2261  0.3960
  667MOL0     H88015   2.047  -0.173   9.242 -1.4324  0.2208 -1.8074
  667MOL0     H88016   1.816  -0.365   9.322  0.0789  0.9625  0.0160
  667MOL0     H88017   1.894  -0.361   9.166 -0.5688 -2.1863  0.5987
  667MOL0     H88018   2.066  -0.423   9.414  0.0772  0.7852  0.0825
  667MOL0     H88019   2.120  -0.423   9.257  2.9355  3.3907  5.0592
  667MOL0     H88020   1.927  -0.595   9.198  2.1737 -0.6592 -1.8361
  667MOL0     H88021   1.907  -0.615   9.378  1.8885 -0.5083  0.9158
  667MOL0     H88022   2.150  -0.656   9.207 -0.5630  2.8800  0.0783
  667MOL0     H88023   2.164  -0.675   9.377  1.2783 -0.5201 -1.1865
  667MOL0     H88024   1.961  -0.853   9.359 -0.5149 -1.5411 -0.3427
  667MOL0     H88025   2.120  -0.907   9.306 -2.1489 -2.0251  0.4235
  667MOL0     H88026   1.944   0.305   9.330 -1.1139 -3.5407 -0.4188
  667MOL0     H88027   1.900   0.541   9.315  1.6308 -3.0993  1.5778
  667MOL0     H88028   1.372   0.750   9.074 -1.5886 -1.1579 -1.0757
  667MOL0     H88029   1.159   0.645   9.166 -0.2334  1.0678  0.9504
  667MOL0     H88030  -0.082   0.828   8.940 -0.3738  0.5926  1.4025
  667MOL0     H88031  -0.021   0.793   8.699  0.3803 -0.3326  2.7431
  667MOL0     H88032  -0.189   0.965   8.253  1.1003  0.3132  0.8998
  667MOL0     H88033  -0.182   0.920   8.015 -0.6721 -0.9885  2.0982
  667MOL0     H88034  -0.084   0.828   7.786  0.7175  0.6304 -0.0377
  667MOL0     H88035   0.059   0.759   7.862 -0.8075 -0.8647 -1.0285
  667MOL0     H88036   0.031   0.741   7.594 -0.5010  0.2173 -0.3059
  667MOL0     H88037   0.041   0.920   7.595  1.0695 -1.9627 -3.0224
  667MOL0     H88038   0.242   0.724   7.696  2.1168  1.4330  0.5463
  667MOL0     H88039   0.258   0.902   7.715  0.1119  2.2179 -2.8110
  667MOL0     H88040   0.277   0.933   7.471 -1.0672  0.6473 -0.6910
  667MOL0     H88041   0.399   0.821   7.538 -0.8949  1.5193  2.1704
  667MOL0     H88042   0.115   0.620   7.275  1.2046 -0.5762  0.1249
  667MOL0     H88043   0.253   0.999   8.048 -0.3938  1.2647  0.2960
  667MOL0     H88044   0.218   1.018   8.282 -1.9237  4.9367  1.3209
  668MOL0     O88045  10.981   0.105   9.011 -0.4735 -0.0886  0.0450
  668MOL0     C88046  11.054   0.009   9.002 -0.1205  0.0585  0.1152
  668MOL0     O88047  11.050  -0.108   9.075  0.5504  0.4248 -0.2518
  668MOL0     C88048  11.001  -0.118   9.203 -1.0688  0.0979 -2.0345
  668MOL0     C88049  10.983  -0.010   9.294  0.9039 -0.1921  0.0659
  668MOL0     C88050  10.924  -0.027   9.418 -0.5247 -0.0560  0.4392
  668MOL0     C88051  10.877  -0.150   9.458  0.1124  0.3724  0.4585
  668MOL0     O88052  10.812  -0.160   9.580 -0.2421 -0.9584  1.0006
  668MOL0     C88053  10.712  -0.255   9.578 -0.4095 -0.1305  0.4407
  668MOL0     C88054  10.627  -0.238   9.703  0.2770  0.5256 -0.1220
  668MOL0     C88055  10.663  -0.338   9.814 -0.5375  0.2244  0.3788
  668MOL0     C88056  10.569  -0.330   9.927  0.4873 -0.8432  0.0912
  668MOL0     C88057  10.572  -0.463  10.007  0.8393 -0.0218  0.0473
  668MOL0     C88058  10.470  -0.470  10.116 -0.2769  0.1957  0.1072
  668MOL0     C88059  10.506  -0.575  10.223  0.7058  0.1527  0.4373
  668MOL0     C88060  10.482  -0.541  10.369  0.5277 -0.2706  0.7604
  668MOL0     N88061  10.340  -0.542  10.399  1.2062  0.1225 -0.0417
  668MOL0     C88062  10.268  -0.653  10.421  0.5569  1.2903  0.7653
  668MOL0     C88063  10.140  -0.617  10.393 -0.3053  1.3314  0.3091
  668MOL0     C88064  10.036  -0.717  10.397  0.4308  1.0408  0.5121
  668MOL0     C88065   9.987  -0.756  10.259  0.1524  0.3958  0.7522
  668MOL0     C88066  10.085  -0.830  10.163  0.4205  0.4727 -0.1122
  668MOL0     C88067  10.142  -0.736  10.062  0.0714 -0.1868 -0.4555
  668MOL0     O88068  10.034  -0.687   9.984 -0.4901  0.2564  0.5680
  668MOL0     C88069  10.059  -0.584   9.900 -1.0124  0.2483 -0.3624
  668MOL0     C88070   9.945  -0.539   9.831 -0.9994  0.6178  0.2158
  668MOL0     C88071   9.947  -0.426   9.751  0.2031 -0.8666  0.2097
  668MOL0     C88072  10.075  -0.356   9.737 -0.2601  0.3937  0.4390
  668MOL0     C88073  10.086  -0.233   9.657 -1.0210  0.2180  0.3517
  668MOL0     O88074   9.975  -0.191   9.588 -0.1008 -0.3263 -0.2462
  668MOL0     C88075   9.962  -0.065   9.539 -0.7783 -0.5297 -0.1119
  668MOL0     C88076  10.027   0.052   9.590  0.8390 -0.5010  0.3024
  668MOL0     C88077  10.007   0.179   9.536 -0.1097  0.4319 -0.8194
  668MOL0     C88078   9.916   0.190   9.430 -0.5462  0.3393  0.2021
  668MOL0     O88079   9.891   0.314   9.360 -0.5027  0.7254  0.4673
  668MOL0     C88080   9.979   0.346   9.261  0.3219  0.2497  0.6350
  668MOL0     C88081   9.891   0.399   9.152 -0.3272 -0.4343 -0.9069
  668MOL0     C88082   9.773   0.495   9.195 -0.1826  0.5599 -1.1804
  668MOL0     C88083   9.818   0.610   9.287 -0.1475  0.2599  0.5279
  668MOL0     C88084   9.701   0.717   9.286 -0.3534  0.4429 -0.4154
  668MOL0     C88085   9.557   0.654   9.302 -0.3397 -0.2231  1.1985
  668MOL0     C88086   9.550   0.593   9.444  0.4057  0.2765 -0.0250
  668MOL0     C88087   9.415   0.526   9.476 -0.2527  1.0701 -0.4475
  668MOL0    Cl88088   9.425   0.362   9.387  0.1817  0.1545 -0.2432
  668MOL0     C88089   9.845   0.081   9.388 -0.4271  0.3424 -0.6535
  668MOL0     C88090   9.879  -0.046   9.436  0.6358 -0.0112 -0.4833
  668MOL0     O88091  10.197  -0.181   9.656 -0.3452 -0.4181  0.6203
  668MOL0     C88092  10.189  -0.422   9.783 -0.6442  0.4825 -0.6194
  668MOL0     C88093  10.185  -0.539   9.855  0.1415 -0.1476  0.2809
  668MOL0     N88094  10.134  -0.494  10.356 -1.1066 -0.4098  0.2033
  668MOL0     N88095  10.253  -0.446  10.367  0.5216 -0.0909  0.3449
  668MOL0     C88096  10.891  -0.263   9.371 -0.3904  0.4862  0.0351
  668MOL0     C88097  10.953  -0.242   9.248 -0.5429  0.1886  1.7093
  668MOL0     C88098  11.158   0.006   8.896 -0.0072  0.0662 -0.2856
  668MOL0     C88099  11.249  -0.103   8.883 -0.5420  0.3614  0.4676
  668MOL0     C88100  11.347  -0.094   8.786  0.9141  0.0961  0.0576
  668MOL0     C88101  11.348   0.011   8.700 -0.0958  1.1651  0.3193
  668MOL0     O88102  11.452   0.011   8.608 -0.6182 -0.1615  0.1252
  668MOL0     C88103  11.470   0.123   8.524 -0.1232 -1.3804  0.8836
  668MOL0     C88104  11.418   0.086   8.384  0.0571 -0.0139 -0.6648
  668MOL0     C88105  11.493  -0.038   8.326  0.2723  0.0663  0.6551
  668MOL0     C88106  11.631  -0.022   8.282 -0.4456 -0.0423 -0.0930
  668MOL0     C88107  11.653  -0.105   8.162 -0.3801  0.2847 -0.3164
  668MOL0     C88108  11.702  -0.173   8.068  0.4201  0.1048  0.6696
  668MOL0     C88109  11.253   0.112   8.708 -0.5190 -0.1478 -0.7805
  668MOL0     C88110  11.154   0.118   8.805 -0.8721  0.6584  0.6184
  668MOL0     H88111  11.004   0.091   9.259  3.9340 -1.1855 -1.3817
  668MOL0     H88112  10.893   0.055   9.482 -0.5311  2.7586 -2.8838
  668MOL0     H88113  10.745  -0.359   9.576  1.2293  0.3640 -1.0395
  668MOL0     H88114  10.659  -0.231   9.485  0.4209 -0.7419 -0.2030
  668MOL0     H88115  10.521  -0.245   9.679 -0.6156  2.2058  2.8314
  668MOL0     H88116  10.654  -0.136   9.733  2.1668  0.0684 -0.1008
  668MOL0     H88117  10.765  -0.332   9.851  0.1698 -3.5329 -0.5895
  668MOL0     H88118  10.647  -0.439   9.774  2.8273 -0.4922  0.5778
  668MOL0     H88119  10.598  -0.238   9.979 -1.4145  1.4314 -2.5584
  668MOL0     H88120  10.467  -0.308   9.893  0.3112 -1.4990  0.1803
  668MOL0     H88121  10.677  -0.480  10.031  0.9145 -1.1241 -0.9553
  668MOL0     H88122  10.544  -0.546   9.941 -0.3641  2.0128 -2.1525
  668MOL0     H88123  10.365  -0.481  10.088 -0.7422 -2.3253  2.3322
  668MOL0     H88124  10.483  -0.378  10.174  1.9642  0.9718 -1.5004
  668MOL0     H88125  10.450  -0.666  10.199 -0.8236  1.2201 -0.2137
  668MOL0     H88126  10.614  -0.590  10.225  1.2786  3.4969  0.5791
  668MOL0     H88127  10.522  -0.441  10.386 -2.2070  1.0535  0.0038
  668MOL0     H88128  10.519  -0.618  10.437 -2.0911 -1.6570  0.7652
  668MOL0     H88129  10.295  -0.751  10.459 -0.5357  1.2755  1.5414
  668MOL0     H88130   9.954  -0.684  10.461  0.9789  2.5114  0.4923
  668MOL0     H88131  10.070  -0.806  10.450 -1.0428 -1.3909 -2.3047
  668MOL0     H88132   9.948  -0.665  10.212  2.5856  2.0465  1.7356
  668MOL0     H88133   9.905  -0.826  10.277 -0.1812  0.3807 -0.7087
  668MOL0     H88134  10.161  -0.884  10.219 -0.2080 -0.6220 -0.2728
  668MOL0     H88135  10.023  -0.902  10.108 -2.1059  1.4295  1.3529
  668MOL0     H88136  10.220  -0.785  10.002  0.0927  2.2557 -2.5676
  668MOL0     H88137  10.184  -0.653  10.119 -0.5894  0.5615 -1.0524
  668MOL0     H88138   9.845  -0.575   9.855 -0.5500 -0.7860  0.1149
  668MOL0     H88139   9.861  -0.400   9.690 -0.3497 -1.5118  0.6989
  668MOL0     H88140  10.096   0.058   9.674  0.1325  1.6566  0.7859
  668MOL0     H88141  10.054   0.272   9.564 -0.8381  0.8646 -1.0008
  668MOL0     H88142  10.033   0.261   9.219 -0.4471  0.7119 -1.4217
  668MOL0     H88143  10.058   0.418   9.284 -0.9109  1.6103  0.7669
  668MOL0     H88144   9.846   0.308   9.112 -0.8704 -1.1890  1.3371
  668MOL0     H88145   9.950   0.450   9.075  0.3001  0.2837  0.0325
  668MOL0     H88146   9.699   0.436   9.251 -0.6774  0.2585 -2.1300
  668MOL0     H88147   9.714   0.529   9.110  1.6563 -1.1876 -3.2783
  668MOL0     H88148   9.844   0.576   9.387 -3.7073  1.3702  1.9680
  668MOL0     H88149   9.908   0.653   9.241 -0.5256 -1.1803 -1.7278
  668MOL0     H88150   9.705   0.789   9.204  0.9597  0.0742 -0.6967
  668MOL0     H88151   9.718   0.764   9.383 -2.0483  1.9065 -0.7588
  668MOL0     H88152   9.524   0.578   9.231 -1.2416 -0.1411  1.5169
  668MOL0     H88153   9.487   0.736   9.282 -0.5996 -0.5267  0.8563
  668MOL0     H88154   9.624   0.515   9.463 -0.2895  0.1608  2.7176
  668MOL0     H88155   9.568   0.676   9.514  1.3807 -0.1596  0.2545
  668MOL0     H88156   9.334   0.593   9.447 -1.4074  0.6694  1.6755
  668MOL0     H88157   9.407   0.503   9.583 -1.1685 -3.2960 -1.2786
  668MOL0     H88158   9.779   0.079   9.302 -1.1863  1.2918 -0.1080
  668MOL0     H88159   9.832  -0.124   9.378  2.8798 -0.5794 -1.6636
  668MOL0     H88160  10.288  -0.395   9.747  0.8672 -0.4491  2.4925
  668MOL0     H88161  10.276  -0.585   9.891 -1.7502 -3.2528  1.5193
  668MOL0     H88162  10.854  -0.362   9.394 -0.0238  0.2272 -0.4699
  668MOL0     H88163  10.946  -0.335   9.193 -0.9553  2.1746 -1.9032
  668MOL0     H88164  11.238  -0.172   8.966 -2.7921 -1.5568 -1.2946
  668MOL0     H88165  11.420  -0.174   8.774  0.2776 -0.1465 -3.1776
  668MOL0     H88166  11.576   0.145   8.505 -0.3607  0.4554  1.5219
  668MOL0     H88167  11.432   0.220   8.558  3.4647  0.3678  0.3894
  668MOL0     H88168  11.313   0.066   8.408  1.0100 -0.5338  4.0392
  668MOL0     H88169  11.424   0.169   8.313  0.8892  3.7764  3.3463
  668MOL0     H88170  11.435  -0.069   8.238 -1.2876  0.8641  1.3756
  668MOL0     H88171  11.489  -0.108   8.410 -0.9948  1.9467  2.2451
  668MOL0     H88172  11.659   0.081   8.262 -0.0535 -0.0282  0.5081
  668MOL0     H88173  11.703  -0.053   8.358 -0.5152  0.6205  0.2443
  668MOL0     H88174  11.724  -0.228   7.979 -2.0303  0.1256 -0.0388
  668MOL0     H88175  11.252   0.200   8.646 -0.6551  2.9129  3.1913
  668MOL0     H88176  11.077   0.194   8.815 -0.9908  0.5283  0.7015
  669MOL0     O88177   8.232   9.230   1.564 -0.0515  0.9101  0.0155
  669MOL0     C88178   8.213   9.155   1.467  0.2719  0.9630 -1.6527
  669MOL0     O88179   8.306   9.094   1.401 -0.4899  0.6000  0.4056
  669MOL0     C88180   8.434   9.119   1.418  1.2344 -1.0127  0.0169
  669MOL0     C88181   8.520   9.017   1.456 -0.5901 -0.2949  0.1364
  669MOL0     C88182   8.656   9.031   1.453 -0.4816  0.4081 -0.8840
  669MOL0     C88183   8.708   9.150   1.401 -0.0346  0.4715  0.1346
  669MOL0     O88184   8.841   9.182   1.402  0.2476  0.8796  0.3196
  669MOL0     C88185   8.936   9.068   1.421  0.3160 -0.7577  0.1801
  669MOL0     C88186   9.068   9.094   1.353 -0.7253 -0.1495 -0.0703
  669MOL0     C88187   9.174   8.988   1.384  0.3424 -0.0586  0.8144
  669MOL0     C88188   9.301   8.995   1.291  0.2990 -0.6335  1.0189
  669MOL0     C88189   9.423   8.942   1.343  0.1755  0.8127  0.3106
  669MOL0     C88190   9.532   8.958   1.232  0.5439 -0.5647 -0.1508
  669MOL0     C88191   9.662   8.895   1.287 -0.0406 -0.4352  0.4732
  669MOL0     C88192   9.787   8.926   1.197 -0.3511 -0.1394  0.0936
  669MOL0     N88193   9.907   8.867   1.258 -0.5956  0.0907 -0.6844
  669MOL0     C88194   9.979   8.922   1.365  0.7035  0.1079  0.0728
  669MOL0     C88195  10.091   8.841   1.387  1.1949  0.2260  0.0313
  669MOL0     C88196  10.201   8.870   1.480  0.2555 -0.6770  1.0326
  669MOL0     C88197  10.132   8.876   1.621  0.4112 -0.3715 -0.5083
  669MOL0     C88198  10.246   8.869   1.730 -0.1585 -0.2274 -0.0248
  669MOL0     C88199  10.351   8.976   1.728  0.2318 -0.4090 -0.0537
  669MOL0     O88200  10.456   8.942   1.633 -0.4176 -0.9800  0.4149
  669MOL0     C88201  10.548   8.853   1.669  1.2975 -0.1657 -0.1544
  669MOL0     C88202  10.639   8.818   1.575 -0.3260  0.0934 -0.4983
  669MOL0     C88203  10.739   8.729   1.613 -0.1093  0.4868  0.5018
  669MOL0     C88204  10.752   8.665   1.735  0.3155  0.4151  0.6311
  669MOL0     C88205  10.859   8.562   1.765  0.1998  0.0318 -0.6125
  669MOL0     O88206  10.909   8.485   1.666 -0.3057  0.9641  0.2216
  669MOL0     C88207  11.031   8.420   1.662 -1.1390  0.2224  0.5167
  669MOL0     C88208  11.140   8.441   1.751  0.5462 -0.2971  0.3879
  669MOL0     C88209  11.254   8.366   1.747  0.3291 -0.4664 -0.2017
  669MOL0     C88210  11.267   8.259   1.661 -0.3319  0.1016  0.3488
  669MOL0     O88211  11.378   8.188   1.666 -0.3356 -0.1079 -0.4056
  669MOL0     C88212  11.434   8.159   1.540 -0.5813  0.7132  0.5512
  669MOL0     C88213  11.577   8.111   1.559 -0.2864 -0.7221 -0.5370
  669MOL0     C88214  11.668   8.056   1.439  0.9872  0.3040  0.0046
  669MOL0     C88215  11.665   7.908   1.430  0.2057  0.5522  1.8301
  669MOL0     C88216  11.725   7.857   1.292  1.5911  0.1996 -0.3570
  669MOL0     C88217  11.873   7.850   1.296 -0.5419 -0.0774  0.0023
  669MOL0     C88218  11.953   7.973   1.301  0.1059 -0.5070  0.3606
  669MOL0     C88219  12.104   7.968   1.271 -0.1769 -0.2386  0.0026
  669MOL0    Cl88220  12.192   8.056   1.408 -0.0117 -0.3247  0.3461
  669MOL0     C88221  11.164   8.247   1.562  0.2414 -0.2540 -0.4310
  669MOL0     C88222  11.046   8.318   1.570 -0.2865  0.3511 -0.3818
  669MOL0     O88223  10.895   8.553   1.881 -0.7499  0.4949 -0.2174
  669MOL0     C88224  10.656   8.704   1.825  1.1581  0.2472 -0.1091
  669MOL0     C88225  10.557   8.798   1.805 -0.7090  0.5948  0.5693
  669MOL0     N88226  10.091   8.742   1.298  0.6884  0.2984  0.1405
  669MOL0     N88227   9.991   8.767   1.211  0.2949 -0.1301 -0.7942
  669MOL0     C88228   8.629   9.252   1.360 -1.2251 -0.3824  0.2121
  669MOL0     C88229   8.493   9.235   1.366 -0.2226  0.9746 -0.4140
  669MOL0     C88230   8.071   9.133   1.433  0.9451 -0.0378 -0.2834
  669MOL0     C88231   7.960   9.198   1.504 -0.5689  0.0436 -0.6640
  669MOL0     C88232   7.827   9.175   1.472 -0.6130 -0.3063 -0.2238
  669MOL0     C88233   7.792   9.105   1.363  0.7181 -0.4249  0.0620
  669MOL0     O88234   7.668   9.109   1.313  0.2524  0.6240 -0.2315
  669MOL0     C88235   7.635   9.025   1.197 -0.1165  0.3222 -1.0367
  669MOL0     C88236   7.634   9.085   1.058  0.0747 -1.0402  0.0094
  669MOL0     C88237   7.768   9.125   0.985 -0.1750  0.3563 -0.1471
  669MOL0     C88238   7.733   9.189   0.848  0.8363  0.6282 -0.0479
  669MOL0     C88239   7.833   9.172   0.746 -0.1494  0.0865 -0.4531
  669MOL0     C88240   7.920   9.155   0.655  0.6721 -0.7095 -0.6539
  669MOL0     C88241   7.890   9.042   1.294 -0.1417  0.3605  0.8079
  669MOL0     C88242   8.029   9.044   1.332 -0.4510  0.5482 -0.4391
  669MOL0     H88243   8.479   8.924   1.495 -0.8629  0.0502  0.6871
  669MOL0     H88244   8.724   8.948   1.471  0.5415  1.5439  0.8209
  669MOL0     H88245   8.909   8.975   1.372 -2.1130  0.6375 -1.3329
  669MOL0     H88246   8.946   9.054   1.529  1.6826  4.1736  0.9552
  669MOL0     H88247   9.111   9.191   1.382 -1.0145 -0.4448  1.4382
  669MOL0     H88248   9.066   9.093   1.244 -1.9257 -0.1396 -0.0646
  669MOL0     H88249   9.129   8.888   1.375 -0.3323  0.4558 -3.5098
  669MOL0     H88250   9.203   8.989   1.489 -0.7206 -1.0250  1.1433
  669MOL0     H88251   9.279   8.944   1.196  2.0373  0.8638 -0.2577
  669MOL0     H88252   9.312   9.099   1.259 -4.2998 -0.0921  0.4645
  669MOL0     H88253   9.414   8.835   1.365  2.2710  1.0995  3.1585
  669MOL0     H88254   9.456   8.988   1.436  0.9454  0.0341  0.4330
  669MOL0     H88255   9.554   9.065   1.227  0.2701 -0.5447 -1.1478
  669MOL0     H88256   9.514   8.911   1.135 -0.5742  1.9173 -1.2463
  669MOL0     H88257   9.688   8.938   1.384 -2.0332 -1.1144  1.3638
  669MOL0     H88258   9.647   8.786   1.291 -0.8586 -0.4222 -1.0831
  669MOL0     H88259   9.800   9.034   1.184  0.5026 -0.4634 -2.4188
  669MOL0     H88260   9.772   8.886   1.096 -1.6158 -1.2212  0.6878
  669MOL0     H88261   9.951   9.015   1.414  0.2831 -0.8954  1.8509
  669MOL0     H88262  10.252   8.963   1.457  0.6987 -0.9381  0.9487
  669MOL0     H88263  10.271   8.788   1.463 -2.1354 -2.3769 -1.5145
  669MOL0     H88264  10.061   8.796   1.643  0.9533 -0.7505 -0.1008
  669MOL0     H88265  10.078   8.971   1.627  1.5229  0.1590  3.1018
  669MOL0     H88266  10.205   8.861   1.832  0.5763  0.9516  0.3825
  669MOL0     H88267  10.297   8.775   1.706  1.1275  0.7775 -1.3484
  669MOL0     H88268  10.378   8.990   1.833 -0.6577 -0.1242  0.1428
  669MOL0     H88269  10.311   9.075   1.702  2.6462  0.6588  0.0401
  669MOL0     H88270  10.644   8.862   1.476 -0.1278  1.4025  0.0761
  669MOL0     H88271  10.818   8.713   1.539 -0.5442  1.0741 -0.1070
  669MOL0     H88272  11.122   8.511   1.832 -0.3781  0.1788 -0.2136
  669MOL0     H88273  11.339   8.382   1.814  0.2064 -1.8507  0.3166
  669MOL0     H88274  11.431   8.230   1.456 -0.3733 -2.1068 -2.0090
  669MOL0     H88275  11.383   8.068   1.510  0.5223  0.6686 -1.3616
  669MOL0     H88276  11.580   8.032   1.635 -1.4613 -0.5208 -0.2664
  669MOL0     H88277  11.625   8.203   1.593 -0.0953 -0.5895 -1.1653
  669MOL0     H88278  11.772   8.084   1.458  1.2293 -2.5097  4.2393
  669MOL0     H88279  11.629   8.093   1.343 -2.9234 -1.9219  0.5048
  669MOL0     H88280  11.708   7.868   1.522  0.2109  1.8923  2.4436
  669MOL0     H88281  11.561   7.873   1.434  0.2076 -0.3935 -2.0596
  669MOL0     H88282  11.688   7.919   1.209  1.5098  2.6613  1.3949
  669MOL0     H88283  11.680   7.758   1.284  0.8848  0.5411 -0.8580
  669MOL0     H88284  11.897   7.801   1.202 -2.1496  1.2235 -1.1349
  669MOL0     H88285  11.920   7.792   1.377 -1.6462 -3.1265 -1.3902
  669MOL0     H88286  11.896   8.047   1.244 -1.9828 -1.0573  1.6157
  669MOL0     H88287  11.960   8.010   1.404  0.5830 -1.9032  0.8539
  669MOL0     H88288  12.124   8.033   1.185 -1.9170  0.7800  0.3231
  669MOL0     H88289  12.140   7.865   1.263 -2.6337 -1.3117  1.5378
  669MOL0     H88290  11.169   8.163   1.493 -1.3687 -1.4165  0.7704
  669MOL0     H88291  10.971   8.297   1.494  1.9941  0.8103 -2.9004
  669MOL0     H88292  10.672   8.659   1.922  1.2392 -1.2850 -0.8071
  669MOL0     H88293  10.493   8.836   1.884 -0.4032 -0.4052  1.3196
  669MOL0     H88294   8.664   9.353   1.342  0.5885 -0.1286  4.1352
  669MOL0     H88295   8.434   9.321   1.334  1.2561  1.8080 -1.0360
  669MOL0     H88296   7.984   9.270   1.581 -1.3647 -0.7504  0.3541
  669MOL0     H88297   7.754   9.236   1.523 -0.6083  0.4931 -1.1515
  669MOL0     H88298   7.535   8.984   1.217  0.2838 -2.2679 -3.8049
  669MOL0     H88299   7.693   8.933   1.189 -1.5247 -0.4234 -4.4355
  669MOL0     H88300   7.588   9.011   0.992  1.7967 -0.7098 -1.6225
  669MOL0     H88301   7.577   9.179   1.060  1.3353 -0.2365 -0.8558
  669MOL0     H88302   7.823   9.032   0.971 -0.0655  0.4767 -0.5134
  669MOL0     H88303   7.824   9.195   1.047  2.1117 -1.6428  0.1582
  669MOL0     H88304   7.628   9.173   0.823  1.1916 -0.1408 -1.1012
  669MOL0     H88305   7.744   9.293   0.880 -0.8932  0.4998  1.1338
  669MOL0     H88306   7.981   9.126   0.572 -0.8483  2.0793 -2.9141
  669MOL0     H88307   7.871   9.005   1.193 -0.4087 -0.5920  1.1970
  669MOL0     H88308   8.095   8.990   1.266 -0.8047  1.0407 -1.2073
  670MOL0     O88309   4.077   6.240   5.286  0.2214  0.6887  0.0590
  670MOL0     C88310   4.100   6.305   5.190 -0.7741 -0.2039 -0.2544
  670MOL0     O88311   4.199   6.278   5.098 -0.9244  1.1372 -0.1417
  670MOL0     C88312   4.272   6.159   5.100  0.1628  1.1791  0.6402
  670MOL0     C88313   4.357   6.139   5.205 -0.9848 -0.8003  0.0188
  670MOL0     C88314   4.444   6.025   5.192  0.6649  0.0000  0.7829
  670MOL0     C88315   4.428   5.930   5.086 -0.7707 -0.4025 -0.2908
  670MOL0     O88316   4.512   5.820   5.082 -0.1934 -0.1353 -0.6884
  670MOL0     C88317   4.536   5.753   5.199 -1.3690  0.3678 -0.3253
  670MOL0     C88318   4.629   5.629   5.169 -0.2654  0.2969 -0.5147
  670MOL0     C88319   4.773   5.668   5.158 -0.0404  0.0530  1.2166
  670MOL0     C88320   4.833   5.528   5.109 -0.4840  0.0873  0.0154
  670MOL0     C88321   4.967   5.499   5.194  0.5542  0.5348  0.4165
  670MOL0     C88322   5.078   5.596   5.160  0.0159  0.8021  0.8925
  670MOL0     C88323   5.217   5.542   5.228 -0.4125  0.3797  0.0118
  670MOL0     C88324   5.275   5.422   5.157  0.4713 -0.3619  0.0277
  670MOL0     N88325   5.300   5.309   5.243 -0.0113  0.2922 -0.4903
  670MOL0     C88326   5.379   5.297   5.355  0.5072 -0.1298  0.6573
  670MOL0     C88327   5.341   5.186   5.414 -0.6024  0.0947 -2.0471
  670MOL0     C88328   5.410   5.124   5.535 -0.7919 -0.8594 -0.6098
  670MOL0     C88329   5.430   5.235   5.644 -0.1266  1.2544  0.6282
  670MOL0     C88330   5.477   5.176   5.772 -0.9126 -0.2954 -0.0015
  670MOL0     C88331   5.485   5.289   5.883  0.0172  0.2264 -0.0079
  670MOL0     O88332   5.358   5.344   5.920 -0.1723  0.6415 -0.1904
  670MOL0     C88333   5.333   5.446   6.010  0.1462  0.0768  0.2021
  670MOL0     C88334   5.204   5.439   6.054  0.2121 -0.2643  0.1927
  670MOL0     C88335   5.163   5.529   6.147  0.2260  0.5016 -0.1611
  670MOL0     C88336   5.246   5.632   6.200  1.5000 -0.0506 -0.2777
  670MOL0     C88337   5.193   5.718   6.310 -0.3097 -0.1603  0.6003
  670MOL0     O88338   5.292   5.766   6.385  0.3442  0.0892  0.9030
  670MOL0     C88339   5.273   5.813   6.511 -0.1292  0.0871 -0.1227
  670MOL0     C88340   5.165   5.808   6.597  1.0247  0.4815  0.6730
  670MOL0     C88341   5.174   5.845   6.732  0.2511  0.1922 -0.2227
  670MOL0     C88342   5.297   5.890   6.783 -0.1354 -0.2593  0.4528
  670MOL0     O88343   5.293   5.919   6.914 -0.3293  0.2370  0.0767
  670MOL0     C88344   5.401   5.988   6.979  0.8622 -0.2655 -0.3589
  670MOL0     C88345   5.369   5.967   7.129 -0.6266  0.5269 -0.4893
  670MOL0     C88346   5.488   5.984   7.217 -0.3189 -0.2373  0.0721
  670MOL0     C88347   5.477   5.899   7.346  0.0875  0.2009  0.2103
  670MOL0     C88348   5.358   5.941   7.438  0.1915 -0.6716 -0.3589
  670MOL0     C88349   5.393   6.082   7.499  0.1483  0.1531 -0.3451
  670MOL0     C88350   5.302   6.095   7.618 -0.5119 -0.5696 -0.3180
  670MOL0     C88351   5.291   6.239   7.661 -0.2654 -1.0466 -0.7561
  670MOL0    Cl88352   5.180   6.319   7.557 -0.1784  0.0388  0.2147
  670MOL0     C88353   5.415   5.888   6.702 -0.2308  0.6087  0.0737
  670MOL0     C88354   5.395   5.864   6.570 -0.1374  0.0994 -0.3176
  670MOL0     O88355   5.072   5.710   6.334 -0.0948  0.4340  0.3281
  670MOL0     C88356   5.381   5.635   6.153  1.4666 -0.5411  0.4798
  670MOL0     C88357   5.415   5.544   6.049 -0.1662 -0.9294  0.2949
  670MOL0     N88358   5.225   5.144   5.344 -0.4623  1.0059 -0.4435
  670MOL0     N88359   5.209   5.215   5.245  0.0029  0.2457  0.1205
  670MOL0     C88360   4.333   5.954   4.987  0.2162 -0.4137 -0.3772
  670MOL0     C88361   4.254   6.066   4.996  0.8461  0.6975 -0.1802
  670MOL0     C88362   4.029   6.429   5.157  1.2636 -0.7519  0.6744
  670MOL0     C88363   4.067   6.513   5.050  1.5219  0.0532  0.6018
  670MOL0     C88364   3.999   6.638   5.027 -0.1268  0.5201 -0.3018
  670MOL0     C88365   3.892   6.685   5.113  0.2039  0.0276 -0.4721
  670MOL0     O88366   3.814   6.796   5.092  0.0299 -0.1201  0.5422
  670MOL0     C88367   3.834   6.875   4.968 -0.1275  0.3752 -0.3109
  670MOL0     C88368   3.900   7.012   4.990  0.3501 -0.2099  0.8279
  670MOL0     C88369   4.023   6.996   5.079  0.6198 -0.3982  0.7050
  670MOL0     C88370   4.082   7.131   5.115 -0.0751  0.4454 -0.7847
  670MOL0     C88371   4.227   7.125   5.139 -0.4594  0.1209  0.7457
  670MOL0     C88372   4.348   7.125   5.169 -0.4694 -0.5549  0.5769
  670MOL0     C88373   3.870   6.603   5.223  0.4351 -0.4603 -0.6733
  670MOL0     C88374   3.927   6.473   5.241 -0.0216 -0.3180 -0.4239
  670MOL0     H88375   4.357   6.212   5.285  0.2336  0.6418 -1.2419
  670MOL0     H88376   4.521   6.015   5.267 -0.4230 -2.1035  1.7098
  670MOL0     H88377   4.440   5.729   5.246 -0.3633  0.4105  1.8893
  670MOL0     H88378   4.589   5.817   5.270 -1.0306 -0.2913  0.0188
  670MOL0     H88379   4.599   5.575   5.079  1.3202  0.3300 -1.1008
  670MOL0     H88380   4.610   5.558   5.250 -1.7444  0.5059 -0.6441
  670MOL0     H88381   4.805   5.708   5.255  0.2752 -2.4912  2.2640
  670MOL0     H88382   4.792   5.750   5.088 -0.1201  0.1253  1.2796
  670MOL0     H88383   4.760   5.450   5.132 -0.7252  0.5543  0.8921
  670MOL0     H88384   4.854   5.520   5.002  1.2271 -0.8528  0.3831
  670MOL0     H88385   4.992   5.393   5.187 -1.7433  0.0429 -1.3909
  670MOL0     H88386   4.944   5.518   5.299 -1.0195 -2.6562  0.7509
  670MOL0     H88387   5.060   5.691   5.210  3.5313  1.6835  0.6909
  670MOL0     H88388   5.089   5.607   5.052 -0.4904  1.3676  0.8898
  670MOL0     H88389   5.286   5.626   5.215  1.1276 -0.8247  0.0549
  670MOL0     H88390   5.206   5.520   5.335  1.9925  1.1264  0.4928
  670MOL0     H88391   5.361   5.448   5.095  1.8047 -4.7171 -0.2960
  670MOL0     H88392   5.202   5.393   5.080 -0.3355 -1.6321  1.2257
  670MOL0     H88393   5.473   5.344   5.381  0.7410 -0.3345  0.2024
  670MOL0     H88394   5.509   5.090   5.504 -0.6415  0.6356 -1.8546
  670MOL0     H88395   5.341   5.047   5.573 -0.1309  0.5036  4.0175
  670MOL0     H88396   5.328   5.273   5.655  0.2508  2.3784  0.3118
  670MOL0     H88397   5.499   5.315   5.618  0.3757  0.5985 -0.0940
  670MOL0     H88398   5.408   5.100   5.811 -0.3324  0.8790  3.7520
  670MOL0     H88399   5.571   5.128   5.745 -0.0542  1.5080 -0.3851
  670MOL0     H88400   5.553   5.371   5.857 -0.1190  0.0165 -1.0563
  670MOL0     H88401   5.511   5.254   5.983 -0.5559  3.8468  1.5700
  670MOL0     H88402   5.137   5.359   6.024  0.1849 -1.0840  2.2671
  670MOL0     H88403   5.056   5.517   6.163  0.2912 -0.1567 -0.1861
  670MOL0     H88404   5.067   5.771   6.568  0.4312  1.5726  1.2513
  670MOL0     H88405   5.091   5.833   6.800 -0.5187 -1.7159 -1.4216
  670MOL0     H88406   5.411   6.094   6.953 -3.2465  0.9982  2.2226
  670MOL0     H88407   5.491   5.936   6.945  0.8500 -0.3612 -0.2429
  670MOL0     H88408   5.336   5.864   7.146 -0.3438  0.7880  2.0985
  670MOL0     H88409   5.289   6.034   7.165  2.5920  2.8195  3.2246
  670MOL0     H88410   5.496   6.091   7.241  3.1640 -0.4354  0.3390
  670MOL0     H88411   5.579   5.958   7.162 -0.5820  1.0302 -1.0096
  670MOL0     H88412   5.457   5.792   7.334  3.2049 -0.3824 -0.7624
  670MOL0     H88413   5.573   5.909   7.398 -1.7437  0.4914  3.8904
  670MOL0     H88414   5.359   5.878   7.528  1.2708  1.8491  1.5572
  670MOL0     H88415   5.269   5.945   7.374  0.8014  0.7921 -1.1594
  670MOL0     H88416   5.365   6.150   7.419  0.6391  1.3713  0.4893
  670MOL0     H88417   5.495   6.095   7.536 -0.9035 -1.1118  3.4988
  670MOL0     H88418   5.202   6.058   7.593  0.6264 -4.8559  0.6447
  670MOL0     H88419   5.324   6.024   7.698 -1.1420 -0.1545  0.2409
  670MOL0     H88420   5.387   6.288   7.644  0.7919 -2.6788  0.2427
  670MOL0     H88421   5.273   6.244   7.769 -2.4778 -2.6415 -0.9841
  670MOL0     H88422   5.512   5.895   6.750 -0.7452  0.2589  1.2015
  670MOL0     H88423   5.487   5.871   6.513 -0.0769 -2.0763 -0.5827
  670MOL0     H88424   5.455   5.713   6.170  1.4449 -0.0175 -1.6249
  670MOL0     H88425   5.515   5.544   6.006 -0.0587  1.3826  0.3884
  670MOL0     H88426   4.317   5.877   4.911  0.9406 -0.8935 -0.0466
  670MOL0     H88427   4.195   6.081   4.907  0.4808  4.5730  0.5323
  670MOL0     H88428   4.136   6.478   4.974  2.2736  1.7111  0.4717
  670MOL0     H88429   4.031   6.681   4.933 -2.7851 -1.7754 -2.4417
  670MOL0     H88430   3.732   6.902   4.938 -0.0207  4.1614  2.0602
  670MOL0     H88431   3.884   6.819   4.888 -0.8363 -0.6288 -0.0657
  670MOL0     H88432   3.922   7.061   4.894 -1.2945 -1.4436 -0.2388
  670MOL0     H88433   3.824   7.073   5.040 -1.6846 -2.1868  0.3333
  670MOL0     H88434   4.098   6.934   5.029  1.4546  2.6310 -2.1888
  670MOL0     H88435   4.000   6.954   5.177  1.0994  0.2942  1.1206
  670MOL0     H88436   4.071   7.208   5.039 -0.7751  0.6499 -0.4754
  670MOL0     H88437   4.036   7.167   5.207  0.1801 -1.4884  0.1704
  670MOL0     H88438   4.450   7.125   5.202 -0.9483 -0.1262  2.1912
  670MOL0     H88439   3.794   6.631   5.295  1.6425 -1.4681  1.0575
  670MOL0     H88440   3.908   6.429   5.338  1.8834 -0.7421 -0.2021
  671MOL0     O88441   1.432   2.429   8.363  0.0547 -0.4725  0.1597
  671MOL0     C88442   1.506   2.455   8.261 -0.2340  0.3539 -0.3790
  671MOL0     O88443   1.519   2.382   8.143 -0.1264 -0.3752  0.2169
  671MOL0     C88444   1.461   2.260   8.131  0.7248 -0.0343  0.1506
  671MOL0     C88445   1.542   2.146   8.116 -0.8051  0.0969 -0.3692
  671MOL0     C88446   1.495   2.017   8.108 -0.1543 -0.3643 -0.0359
  671MOL0     C88447   1.357   2.000   8.105  0.5584  0.4596 -0.3229
  671MOL0     O88448   1.299   1.877   8.085  0.5157  0.0289  0.0367
  671MOL0     C88449   1.374   1.762   8.120 -0.2846 -0.0326 -0.9106
  671MOL0     C88450   1.291   1.632   8.165 -0.2587 -0.1962  0.0425
  671MOL0     C88451   1.164   1.617   8.080 -0.1811  1.0301  0.0810
  671MOL0     C88452   1.126   1.465   8.065  1.6825  0.2586 -0.5435
  671MOL0     C88453   0.977   1.434   8.041  0.1412  0.0706 -0.6443
  671MOL0     C88454   0.898   1.539   7.966 -0.9936  0.3877  0.9466
  671MOL0     C88455   0.774   1.477   7.906 -0.7463 -0.2796 -0.7229
  671MOL0     C88456   0.738   1.557   7.784 -0.0087  0.3242  1.4069
  671MOL0     N88457   0.608   1.509   7.727  0.9736  0.1642 -0.5692
  671MOL0     C88458   0.577   1.375   7.689 -0.0703 -0.0120  1.0986
  671MOL0     C88459   0.449   1.376   7.669 -0.1485  0.1259  0.2790
  671MOL0     C88460   0.364   1.261   7.633  0.2741  0.4234 -0.7221
  671MOL0     C88461   0.335   1.243   7.487 -0.2610  0.2599 -0.1711
  671MOL0     C88462   0.461   1.189   7.408  0.5032 -0.0532 -0.7355
  671MOL0     C88463   0.431   1.172   7.257  0.6647  0.1830  0.0092
  671MOL0     O88464   0.309   1.101   7.240 -0.0700  0.1722 -0.2469
  671MOL0     C88465   0.294   1.057   7.113 -1.2152  0.5263 -0.6285
  671MOL0     C88466   0.367   1.126   7.007 -0.2163 -0.4675  0.5072
  671MOL0     C88467   0.343   1.068   6.879 -0.0046  0.6258  0.3159
  671MOL0     C88468   0.248   0.978   6.849  1.6252  0.0746  0.4568
  671MOL0     C88469   0.217   0.942   6.708 -0.0600 -0.4537 -0.2816
  671MOL0     O88470   0.246   1.041   6.612  0.2369  0.7533  0.0249
  671MOL0     C88471   0.195   0.989   6.492 -0.0662 -0.6623 -1.1981
  671MOL0     C88472   0.059   1.002   6.460  0.1869  0.1865 -0.7839
  671MOL0     C88473   0.001   0.935   6.350  0.0880  0.7366  0.1102
  671MOL0     C88474   0.076   0.845   6.276 -0.2416 -0.0773 -0.3784
  671MOL0     O88475   0.013   0.779   6.183  0.8870 -0.2033 -0.0219
  671MOL0     C88476   0.082   0.716   6.073 -0.2882  0.1609 -0.2472
  671MOL0     C88477   0.097   0.800   5.945 -0.3037  0.6467  0.6475
  671MOL0     C88478   0.199   0.921   5.962 -1.0177  0.1246 -0.2830
  671MOL0     C88479   0.112   1.049   5.970 -1.0556  0.5413  0.0069
  671MOL0     C88480   0.189   1.183   5.985  0.0425 -1.1364  0.3496
  671MOL0     C88481   0.272   1.172   6.113 -0.1180  0.0787 -0.4585
  671MOL0     C88482   0.298   1.306   6.184 -0.6480  0.2534 -0.2322
  671MOL0     C88483   0.339   1.275   6.334 -1.1138  0.6567 -0.2381
  671MOL0    Cl88484   0.414   1.425   6.393 -0.2193 -0.4695  0.5697
  671MOL0     C88485   0.213   0.831   6.313 -0.1432 -0.1954 -0.3332
  671MOL0     C88486   0.269   0.905   6.413  0.2805  0.1219 -0.0393
  671MOL0     O88487   0.147   0.846   6.697  0.0878 -0.1544 -0.8386
  671MOL0     C88488   0.186   0.912   6.956 -0.3493 -0.7829 -0.3411
  671MOL0     C88489   0.212   0.950   7.086  0.2655 -0.0341 -0.9522
  671MOL0     N88490   0.396   1.498   7.710  0.7399  0.5541 -0.6607
  671MOL0     N88491   0.491   1.577   7.735 -0.3200  0.2839  0.1400
  671MOL0     C88492   1.264   2.113   8.105 -0.1265  0.0750 -0.3092
  671MOL0     C88493   1.319   2.243   8.126  0.2439  0.0830 -0.3411
  671MOL0     C88494   1.581   2.582   8.249  0.2684  0.3428  0.3200
  671MOL0     C88495   1.699   2.598   8.175  0.0435  0.0346  0.4281
  671MOL0     C88496   1.757   2.723   8.152 -0.2673  0.4131 -0.6538
  671MOL0     C88497   1.698   2.837   8.203  0.2725  0.0239  0.3615
  671MOL0     O88498   1.750   2.963   8.173  0.7957 -0.2083 -0.1281
  671MOL0     C88499   1.713   3.071   8.252  0.0804  0.2445 -0.7702
  671MOL0     C88500   1.763   3.195   8.172 -0.0680 -0.2465 -0.9281
  671MOL0     C88501   1.753   3.333   8.233  0.5498  0.1229  0.3394
  671MOL0     C88502   1.819   3.437   8.151  0.1999  0.0190 -0.0378
  671MOL0     C88503   1.840   3.566   8.217 -0.3217  0.7907  0.3105
  671MOL0     C88504   1.854   3.678   8.264 -0.1389 -0.3068 -0.4089
  671MOL0     C88505   1.582   2.819   8.277 -1.1975  0.2663  0.0460
  671MOL0     C88506   1.521   2.696   8.308 -0.3211  0.0218  0.7762
  671MOL0     H88507   1.649   2.160   8.124 -0.7893  1.2026 -1.9416
  671MOL0     H88508   1.567   1.935   8.108 -0.2829 -0.4781  0.0286
  671MOL0     H88509   1.439   1.774   8.208  0.5873 -2.1494 -1.1939
  671MOL0     H88510   1.443   1.739   8.038  1.2794 -0.5383  0.4763
  671MOL0     H88511   1.263   1.642   8.271 -0.0601 -0.3866  0.1134
  671MOL0     H88512   1.351   1.541   8.157 -0.1217 -0.1390  0.3656
  671MOL0     H88513   1.173   1.662   7.981 -0.5424  2.5921  0.7269
  671MOL0     H88514   1.078   1.668   8.125 -2.1120 -1.9374  0.0236
  671MOL0     H88515   1.188   1.419   7.987 -1.1124  0.1243 -2.8837
  671MOL0     H88516   1.149   1.416   8.160 -1.6984  0.2612  0.3930
  671MOL0     H88517   0.936   1.428   8.142 -0.5891 -2.4859 -1.0290
  671MOL0     H88518   0.973   1.333   8.001  1.6851  0.2876 -1.4340
  671MOL0     H88519   0.961   1.590   7.892 -1.5419  0.8902  0.8188
  671MOL0     H88520   0.874   1.626   8.029  0.8054 -0.1704  2.5259
  671MOL0     H88521   0.778   1.375   7.867 -1.6362  0.2957 -2.4730
  671MOL0     H88522   0.697   1.499   7.981  0.6481  0.4470  0.5485
  671MOL0     H88523   0.815   1.539   7.708 -0.8385  0.0986  0.5866
  671MOL0     H88524   0.741   1.663   7.809  3.5380 -0.1626  3.7608
  671MOL0     H88525   0.641   1.291   7.665 -0.5342  0.0971 -0.7027
  671MOL0     H88526   0.270   1.276   7.686 -0.1680  3.9138 -2.1975
  671MOL0     H88527   0.426   1.185   7.682  5.5937  4.0567 -0.8985
  671MOL0     H88528   0.306   1.338   7.440  0.9869  0.9276  0.3549
  671MOL0     H88529   0.241   1.188   7.477 -1.1392  2.0412 -2.8924
  671MOL0     H88530   0.534   1.271   7.412 -2.1906  2.4901  2.4387
  671MOL0     H88531   0.504   1.106   7.465  2.3170  0.7449 -0.8636
  671MOL0     H88532   0.519   1.115   7.225  0.2871  0.2108 -1.1396
  671MOL0     H88533   0.425   1.270   7.209  0.9849 -0.0339 -0.4836
  671MOL0     H88534   0.420   1.220   6.996  0.4561 -0.9024 -0.0349
  671MOL0     H88535   0.410   1.111   6.805 -2.3059 -1.1394 -3.0546
  671MOL0     H88536  -0.005   1.067   6.519 -0.4737 -2.1506  1.2848
  671MOL0     H88537  -0.104   0.948   6.326  0.5176  0.1831 -2.2634
  671MOL0     H88538   0.023   0.633   6.033  0.5252 -1.2809  1.4391
  671MOL0     H88539   0.181   0.679   6.101  0.0321  2.3320  1.7624
  671MOL0     H88540   0.001   0.845   5.919  0.2461  1.8818  0.6791
  671MOL0     H88541   0.130   0.748   5.855  0.3695  0.0876  1.2076
  671MOL0     H88542   0.267   0.923   5.877  0.1614 -1.1925  0.5865
  671MOL0     H88543   0.262   0.911   6.051  0.0801  0.8629 -0.9606
  671MOL0     H88544   0.058   1.042   5.875  2.1936 -1.4572 -1.8913
  671MOL0     H88545   0.043   1.023   6.051 -0.4675 -0.0089  0.3386
  671MOL0     H88546   0.120   1.266   6.004 -0.2642 -1.8941  2.8176
  671MOL0     H88547   0.256   1.217   5.905 -0.6499  0.6571  0.4929
  671MOL0     H88548   0.364   1.120   6.087  0.4209 -1.8867  4.2350
  671MOL0     H88549   0.217   1.108   6.183  1.2242 -2.7970 -1.8972
  671MOL0     H88550   0.380   1.345   6.124 -2.3744  3.5881 -0.6347
  671MOL0     H88551   0.213   1.374   6.186 -0.0046  1.2488  4.4659
  671MOL0     H88552   0.404   1.187   6.330 -1.2804  0.5461 -3.3840
  671MOL0     H88553   0.249   1.249   6.391 -0.1679  2.3488  2.1880
  671MOL0     H88554   0.270   0.760   6.255 -1.1061 -0.4040 -1.0588
  671MOL0     H88555   0.372   0.910   6.448  0.6440  3.4145 -1.2380
  671MOL0     H88556   0.099   0.848   6.942 -3.0310  2.4933 -0.0704
  671MOL0     H88557   0.159   0.907   7.170 -0.8854  0.2417 -1.5129
  671MOL0     H88558   1.161   2.083   8.099 -1.0471  1.9450  3.2053
  671MOL0     H88559   1.247   2.324   8.128  0.6039  0.4618 -1.7918
  671MOL0     H88560   1.745   2.507   8.137  0.3169 -0.0294  0.9015
  671MOL0     H88561   1.844   2.733   8.087  0.5265  1.7793  0.5593
  671MOL0     H88562   1.770   3.071   8.345  1.7537 -0.1020 -1.7640
  671MOL0     H88563   1.606   3.074   8.278 -0.0760  0.0833 -1.3800
  671MOL0     H88564   1.871   3.185   8.185 -0.6313 -2.4484  4.0307
  671MOL0     H88565   1.731   3.209   8.068  0.3537 -2.1449 -1.3520
  671MOL0     H88566   1.796   3.332   8.334 -1.9591 -0.8182  1.4896
  671MOL0     H88567   1.649   3.361   8.255  0.1291 -0.7619 -0.4555
  671MOL0     H88568   1.912   3.407   8.101  0.3131 -0.1954  0.2972
  671MOL0     H88569   1.743   3.458   8.075 -1.3172  0.0649  1.4287
  671MOL0     H88570   1.848   3.773   8.314 -0.5383  0.2657 -1.5041
  671MOL0     H88571   1.515   2.896   8.313  0.1311  1.3133  0.3682
  671MOL0     H88572   1.427   2.698   8.362 -2.8868 -0.6133 -3.2483
  672MOL0     O88573   9.870   6.454   2.675  0.4289 -0.8153  0.2507
  672MOL0     C88574   9.809   6.388   2.589  0.1180  0.1018  0.0119
  672MOL0     O88575   9.705   6.422   2.514 -0.6761 -0.1819 -0.7194
  672MOL0     C88576   9.663   6.553   2.507  0.5790 -0.1158 -0.1972
  672MOL0     C88577   9.627   6.588   2.378  0.5741  0.0498 -0.1973
  672MOL0     C88578   9.574   6.721   2.355 -0.2187  1.0852 -0.0293
  672MOL0     C88579   9.555   6.810   2.459 -0.2878  0.5367 -0.5273
  672MOL0     O88580   9.481   6.924   2.432 -0.6683 -0.0751 -0.7203
  672MOL0     C88581   9.574   7.018   2.389 -0.0096 -0.2282 -0.1273
  672MOL0     C88582   9.645   7.008   2.248  0.3425 -0.1706 -1.0948
  672MOL0     C88583   9.741   7.124   2.219  0.3488  0.0875  0.2163
  672MOL0     C88584   9.822   7.107   2.086 -1.5337 -0.1607 -0.3280
  672MOL0     C88585   9.954   7.027   2.114 -0.2562  0.2993 -1.5224
  672MOL0     C88586  10.027   7.013   1.973  0.2475 -0.1587  1.2650
  672MOL0     C88587  10.076   6.872   1.967 -0.4164 -0.9913 -0.5007
  672MOL0     C88588  10.159   6.864   1.844  0.6732  0.1643  0.3924
  672MOL0     N88589  10.075   6.858   1.731  0.4562  0.0856 -0.0300
  672MOL0     C88590  10.051   6.752   1.645 -0.6050 -0.1766  0.1184
  672MOL0     C88591  10.001   6.814   1.535  1.1439  0.1214 -0.0549
  672MOL0     C88592   9.955   6.743   1.409 -0.0330 -0.4290 -0.4973
  672MOL0     C88593  10.042   6.783   1.289 -1.0737 -0.4596 -0.3790
  672MOL0     C88594   9.984   6.760   1.154  0.1309  0.4373  1.1317
  672MOL0     C88595   9.930   6.619   1.132  0.2852 -0.1249  0.0950
  672MOL0     O88596  10.025   6.518   1.177  0.5273  0.0028  0.1886
  672MOL0     C88597  10.119   6.477   1.091 -0.7194  0.4181  0.2198
  672MOL0     C88598  10.240   6.544   1.095 -0.8657 -0.2021 -1.3517
  672MOL0     C88599  10.346   6.505   1.009  0.7288 -1.2106 -0.5746
  672MOL0     C88600  10.318   6.398   0.917 -0.5565 -0.2422  0.6355
  672MOL0     C88601  10.427   6.344   0.830  0.1768  0.3886  0.3786
  672MOL0     O88602  10.429   6.214   0.803 -0.0901 -0.1823 -0.2875
  672MOL0     C88603  10.490   6.166   0.692 -1.1824 -0.1753  0.9067
  672MOL0     C88604  10.511   6.244   0.576 -0.6773  0.0498  0.0687
  672MOL0     C88605  10.581   6.194   0.461  0.1533  0.0074  0.8579
  672MOL0     C88606  10.602   6.062   0.456  0.2669 -0.6342 -0.2390
  672MOL0     O88607  10.658   6.023   0.335  0.0384  0.0014 -0.3781
  672MOL0     C88608  10.598   5.903   0.278 -0.1639  0.4319  1.2536
  672MOL0     C88609  10.668   5.892   0.133  0.4653  0.8127 -0.0882
  672MOL0     C88610  10.760   5.768   0.142 -0.1975  1.0003 -0.5846
  672MOL0     C88611  10.796   5.696   0.010  0.3252  0.3443 -0.1721
  672MOL0     C88612  10.681   5.621  -0.048  1.1527  0.8432 -0.2429
  672MOL0     C88613  10.650   5.491   0.022  0.6470 -0.1764 -1.1025
  672MOL0     C88614  10.620   5.381  -0.077 -0.3245  0.3010 -0.1041
  672MOL0     C88615  10.481   5.319  -0.046 -0.0852 -0.3279  1.1625
  672MOL0    Cl88616  10.356   5.451  -0.061  0.2467 -0.9408 -0.7783
  672MOL0     C88617  10.583   5.976   0.561 -0.4414 -0.1600 -0.1966
  672MOL0     C88618  10.524   6.033   0.677  0.5908  0.4772  0.2511
  672MOL0     O88619  10.527   6.419   0.817  0.0578 -0.1084 -0.3694
  672MOL0     C88620  10.198   6.339   0.910 -0.1381 -0.8623  0.1856
  672MOL0     C88621  10.102   6.368   1.002  0.6205  0.1595 -1.1791
  672MOL0     N88622   9.974   6.941   1.561  0.3627 -0.5358 -0.6205
  672MOL0     N88623  10.030   6.975   1.672  0.3266 -0.0680 -0.1136
  672MOL0     C88624   9.586   6.771   2.588 -0.3545 -0.2413 -0.7931
  672MOL0     C88625   9.634   6.641   2.616 -0.7679 -0.4211 -0.3848
  672MOL0     C88626   9.845   6.243   2.562  0.1504 -0.4375  0.1102
  672MOL0     C88627   9.964   6.189   2.610  0.3043  0.7989  0.4999
  672MOL0     C88628   9.991   6.049   2.596 -0.0202  0.9289 -0.7227
  672MOL0     C88629   9.907   5.970   2.514 -0.7289 -0.5671  1.0410
  672MOL0     O88630   9.929   5.835   2.496  0.4945  0.1996 -0.0547
  672MOL0     C88631   9.987   5.763   2.612 -0.4915  0.5138  0.2100
  672MOL0     C88632   9.942   5.616   2.631 -0.8516  0.0231  0.4050
  672MOL0     C88633   9.796   5.587   2.662 -0.1942 -0.7978  0.3307
  672MOL0     C88634   9.749   5.480   2.561 -0.1994  0.5232 -0.5702
  672MOL0     C88635   9.608   5.452   2.597  0.1072 -0.4409 -0.2482
  672MOL0     C88636   9.511   5.411   2.631  0.4752 -0.3538  0.0948
  672MOL0     C88637   9.791   6.027   2.457  0.1248 -0.5447 -0.5357
  672MOL0     C88638   9.768   6.158   2.484  0.7424 -0.1034 -0.6131
  672MOL0     H88639   9.636   6.525   2.291 -2.6699  0.8080 -1.2154
  672MOL0     H88640   9.538   6.763   2.262 -0.3574  1.4633  0.1920
  672MOL0     H88641   9.648   7.045   2.464 -1.2348  2.3578  0.2537
  672MOL0     H88642   9.511   7.107   2.380 -0.3483 -0.6982 -4.4191
  672MOL0     H88643   9.569   6.995   2.170  0.5077  0.6323 -1.4007
  672MOL0     H88644   9.710   6.921   2.234  0.4636 -0.0305 -1.4235
  672MOL0     H88645   9.805   7.126   2.308 -1.0112 -1.9769  1.3269
  672MOL0     H88646   9.678   7.213   2.214  0.0740 -0.1085  0.1452
  672MOL0     H88647   9.759   7.050   2.017 -0.5630 -0.1308 -1.2601
  672MOL0     H88648   9.859   7.198   2.036  0.7069 -1.2150 -0.6810
  672MOL0     H88649   9.922   6.932   2.158 -3.0943  0.8481 -2.1591
  672MOL0     H88650  10.017   7.071   2.192  1.3595 -1.6242 -1.6603
  672MOL0     H88651  10.108   7.085   1.956 -0.2021  0.0833  0.0603
  672MOL0     H88652   9.957   7.041   1.894  0.6521  0.4267  1.1082
  672MOL0     H88653  10.130   6.858   2.061  0.1922  2.0009 -0.3019
  672MOL0     H88654  10.002   6.792   1.970  0.9678 -2.2995  1.9638
  672MOL0     H88655  10.194   6.761   1.852 -2.0424 -0.9128 -0.3308
  672MOL0     H88656  10.242   6.935   1.843  2.2462 -1.4779  3.2883
  672MOL0     H88657  10.079   6.649   1.666  0.3990  0.4731  2.2452
  672MOL0     H88658   9.850   6.772   1.404  0.5046  2.2592  1.3704
  672MOL0     H88659   9.974   6.636   1.423  2.1641 -0.0465 -0.2591
  672MOL0     H88660  10.136   6.730   1.305 -1.9165 -2.1268 -0.7073
  672MOL0     H88661  10.070   6.889   1.291 -0.7014 -0.5223 -1.5928
  672MOL0     H88662   9.901   6.825   1.126  1.5462  1.0106 -2.2797
  672MOL0     H88663  10.058   6.763   1.073 -0.2545  0.4556  0.7787
  672MOL0     H88664   9.900   6.611   1.026  1.5376  0.1057 -0.2845
  672MOL0     H88665   9.848   6.611   1.204  0.2961  2.9650  0.5619
  672MOL0     H88666  10.255   6.624   1.166  2.5761 -1.8630  0.0223
  672MOL0     H88667  10.440   6.557   1.022  0.2419 -0.7183  1.3063
  672MOL0     H88668  10.478   6.347   0.569  0.5716  0.4119 -0.8730
  672MOL0     H88669  10.600   6.256   0.375 -1.2617 -2.4951 -1.3991
  672MOL0     H88670  10.490   5.918   0.262  0.4025  2.8731 -0.9872
  672MOL0     H88671  10.615   5.813   0.338  1.1654 -0.7672 -0.8224
  672MOL0     H88672  10.720   5.976   0.085  0.6439 -1.5715 -4.5471
  672MOL0     H88673  10.590   5.868   0.060  0.2422  1.4290 -0.0584
  672MOL0     H88674  10.725   5.691   0.211 -0.7796  0.7174 -1.1850
  672MOL0     H88675  10.858   5.798   0.180  0.7087  3.2916 -4.1926
  672MOL0     H88676  10.834   5.768  -0.063 -0.5977  0.0753 -0.9282
  672MOL0     H88677  10.876   5.628   0.043 -0.4223  0.5265  2.2073
  672MOL0     H88678  10.705   5.608  -0.154 -1.1497  0.7088 -0.8024
  672MOL0     H88679  10.586   5.675  -0.036 -0.5292 -2.2343  1.5257
  672MOL0     H88680  10.562   5.512   0.084  0.3831 -0.8333 -1.2425
  672MOL0     H88681  10.733   5.457   0.085  1.0080  0.2787 -1.3301
  672MOL0     H88682  10.612   5.417  -0.180 -1.2949 -0.2431 -0.2353
  672MOL0     H88683  10.695   5.302  -0.072  1.2056  1.6778 -0.5212
  672MOL0     H88684  10.476   5.276   0.055 -1.9931 -0.9450  0.8393
  672MOL0     H88685  10.457   5.241  -0.118 -2.0177 -0.8098  2.2715
  672MOL0     H88686  10.615   5.872   0.568  1.3288  0.4656  2.6215
  672MOL0     H88687  10.502   5.966   0.760  0.0804 -1.6284 -1.4856
  672MOL0     H88688  10.165   6.269   0.834 -3.0648  2.0634 -1.4835
  672MOL0     H88689  10.006   6.319   0.990 -0.4506  0.7601  3.2006
  672MOL0     H88690   9.560   6.828   2.676  2.3326 -0.1086  0.0172
  672MOL0     H88691   9.649   6.619   2.721  1.3735 -0.5696 -0.6744
  672MOL0     H88692  10.023   6.262   2.665 -0.0234  3.2852 -2.1746
  672MOL0     H88693  10.079   6.006   2.644 -1.1651 -1.3182 -0.5072
  672MOL0     H88694   9.979   5.814   2.708 -0.7734  0.4340  0.2313
  672MOL0     H88695  10.093   5.757   2.587 -0.9033 -0.1213 -1.5652
  672MOL0     H88696   9.979   5.560   2.545  0.9157 -1.0905  1.8090
  672MOL0     H88697  10.003   5.573   2.711 -2.2858  0.2689  1.7005
  672MOL0     H88698   9.744   5.680   2.637 -0.7620 -0.9241  1.0038
  672MOL0     H88699   9.780   5.566   2.768  0.6533  1.2736  0.9078
  672MOL0     H88700   9.763   5.503   2.455  1.1850  0.3128 -0.4497
  672MOL0     H88701   9.803   5.388   2.586 -2.2242 -0.0030  2.3085
  672MOL0     H88702   9.417   5.360   2.643  0.8219 -1.9990 -3.0306
  672MOL0     H88703   9.716   5.977   2.396  0.4825 -0.8031 -0.7747
  672MOL0     H88704   9.689   6.204   2.426  0.2588 -0.8271 -0.5410
  673MOL0     O88705   1.350   8.100   3.072  0.4949  0.1800 -0.5019
  673MOL0     C88706   1.309   8.001   3.138 -0.0439  0.2455 -0.9359
  673MOL0     O88707   1.376   7.879   3.144 -0.2719 -0.6285  0.1024
  673MOL0     C88708   1.505   7.872   3.091  0.7624  0.2426 -0.3189
  673MOL0     C88709   1.615   7.806   3.161 -0.2544 -0.3392 -0.1046
  673MOL0     C88710   1.743   7.803   3.104  0.1084  0.3037  0.5273
  673MOL0     C88711   1.765   7.838   2.973 -0.3960 -0.6587  0.2770
  673MOL0     O88712   1.895   7.804   2.930  0.1692 -0.4906  0.1459
  673MOL0     C88713   1.912   7.822   2.789  0.5261 -0.2726 -0.1074
  673MOL0     C88714   2.043   7.769   2.723  0.0549  0.5888 -0.7717
  673MOL0     C88715   2.035   7.623   2.752 -1.0289  0.1484 -0.5828
  673MOL0     C88716   1.921   7.544   2.689  0.3741  0.0938 -0.3165
  673MOL0     C88717   1.894   7.587   2.541  0.0742 -0.0035 -0.3781
  673MOL0     C88718   1.765   7.499   2.492  0.1904 -0.2517  0.0135
  673MOL0     C88719   1.709   7.550   2.357  0.5754 -1.0637 -0.3378
  673MOL0     C88720   1.671   7.697   2.352  0.3094  0.1297 -0.3772
  673MOL0     N88721   1.565   7.730   2.447  0.0499  0.2307 -0.0541
  673MOL0     C88722   1.434   7.691   2.445 -0.0368  0.6045 -0.2115
  673MOL0     C88723   1.377   7.737   2.554 -0.9827  0.4751 -0.0208
  673MOL0     C88724   1.243   7.682   2.606  0.2657  0.2309  0.1713
  673MOL0     C88725   1.240   7.652   2.757 -0.0544  0.4738  0.7482
  673MOL0     C88726   1.103   7.645   2.825 -1.1617 -0.5647 -0.5323
  673MOL0     C88727   0.993   7.571   2.762  0.4655  1.2430  0.0585
  673MOL0     O88728   0.940   7.469   2.850 -0.8237 -0.4249  0.3438
  673MOL0     C88729   0.831   7.491   2.935  0.4697 -1.2824 -0.4881
  673MOL0     C88730   0.734   7.390   2.944  0.1554 -0.2428 -0.7155
  673MOL0     C88731   0.623   7.415   3.025 -0.3787  0.4963 -0.2654
  673MOL0     C88732   0.594   7.540   3.100 -0.4420 -0.0678  0.4406
  673MOL0     C88733   0.463   7.563   3.180  0.1072  0.0365  1.2399
  673MOL0     O88734   0.494   7.663   3.263  0.4528 -0.4170 -0.1188
  673MOL0     C88735   0.382   7.712   3.333 -1.0033 -0.2273  1.0772
  673MOL0     C88736   0.290   7.800   3.263 -0.4007 -0.3016 -0.2909
  673MOL0     C88737   0.186   7.854   3.343 -0.3671 -0.2098  0.8117
  673MOL0     C88738   0.164   7.823   3.476  0.6217 -0.0526  0.2879
  673MOL0     O88739   0.053   7.887   3.538 -0.3206  0.8578 -0.2434
  673MOL0     C88740   0.091   7.965   3.650 -0.3888  0.3365 -0.9355
  673MOL0     C88741  -0.022   8.046   3.725 -0.0425  0.2472 -0.9141
  673MOL0     C88742  -0.134   7.956   3.784  0.4434 -0.1337 -0.7849
  673MOL0     C88743  -0.229   8.049   3.861 -0.6115  0.6002 -0.0773
  673MOL0     C88744  -0.331   7.967   3.946 -0.9516 -0.1783  1.1638
  673MOL0     C88745  -0.430   8.060   4.014  0.6676  0.6718  0.4806
  673MOL0     C88746  -0.527   8.131   3.914 -1.1290  1.1364 -0.0631
  673MOL0     C88747  -0.614   8.233   3.976  0.0550 -0.2631 -0.4250
  673MOL0    Cl88748  -0.738   8.153   4.093 -0.0120  0.4056  0.0678
  673MOL0     C88749   0.251   7.729   3.540 -0.7710  0.9057 -0.9639
  673MOL0     C88750   0.363   7.681   3.467  0.1680 -0.7238  0.2426
  673MOL0     O88751   0.364   7.487   3.187  0.1019  0.1349 -0.6132
  673MOL0     C88752   0.691   7.642   3.092 -0.5182 -0.4298 -0.7202
  673MOL0     C88753   0.806   7.615   3.006 -0.3922  0.3250  0.8913
  673MOL0     N88754   1.457   7.831   2.613 -0.4919 -0.6990  0.2940
  673MOL0     N88755   1.573   7.824   2.553 -0.0549  0.2910 -0.1199
  673MOL0     C88756   1.658   7.882   2.896  0.4718 -0.3016  0.5504
  673MOL0     C88757   1.533   7.902   2.957 -0.8895  0.6554  0.3153
  673MOL0     C88758   1.177   8.021   3.213  0.4045 -0.2807  0.7899
  673MOL0     C88759   1.130   7.924   3.299  0.1916  0.3907 -0.0312
  673MOL0     C88760   1.002   7.916   3.343 -0.4075  0.5475  0.6637
  673MOL0     C88761   0.918   8.021   3.319  0.5762  0.6494  0.5799
  673MOL0     O88762   0.790   8.011   3.368  0.4851 -0.2426  0.6196
  673MOL0     C88763   0.683   8.095   3.312 -0.8255 -0.3402 -0.2322
  673MOL0     C88764   0.549   8.042   3.362 -0.4676 -0.0522  0.8360
  673MOL0     C88765   0.526   8.069   3.513  0.2038 -0.7680  0.3527
  673MOL0     C88766   0.507   8.220   3.538  0.3406 -0.1824 -0.5184
  673MOL0     C88767   0.389   8.276   3.464 -0.3836  0.1957 -0.1457
  673MOL0     C88768   0.286   8.295   3.403  0.3126  0.0749  0.1218
  673MOL0     C88769   0.955   8.121   3.226 -0.6507 -0.0440 -0.2294
  673MOL0     C88770   1.086   8.124   3.179  0.3106 -0.1942 -0.4372
  673MOL0     H88771   1.600   7.771   3.263  0.4960 -0.3412  0.0096
  673MOL0     H88772   1.818   7.760   3.169 -1.5936 -0.1635  2.2933
  673MOL0     H88773   1.914   7.931   2.790  1.7011 -0.2787 -0.4832
  673MOL0     H88774   1.826   7.799   2.725 -0.7475  2.8521  0.3032
  673MOL0     H88775   2.130   7.806   2.778  1.0161 -1.4747 -0.8053
  673MOL0     H88776   2.054   7.789   2.616 -1.7917 -0.0612 -1.1335
  673MOL0     H88777   2.050   7.606   2.859  0.9019 -2.7745 -1.2094
  673MOL0     H88778   2.126   7.575   2.714 -2.2864 -3.1837  0.2549
  673MOL0     H88779   1.945   7.437   2.697 -0.8599 -0.2846 -1.3725
  673MOL0     H88780   1.833   7.555   2.753 -0.1465  3.3818 -1.4371
  673MOL0     H88781   1.984   7.570   2.480 -0.3727  1.3905 -1.4694
  673MOL0     H88782   1.864   7.692   2.544 -0.9868 -0.3073  2.1687
  673MOL0     H88783   1.683   7.500   2.564  0.7629 -3.3828  0.8530
  673MOL0     H88784   1.787   7.393   2.481 -1.5272 -0.6030 -0.3695
  673MOL0     H88785   1.793   7.541   2.288  2.1300  4.0273  0.4442
  673MOL0     H88786   1.622   7.490   2.330 -0.2044  0.0246 -0.3081
  673MOL0     H88787   1.645   7.724   2.250 -0.1844  2.7710  0.3623
  673MOL0     H88788   1.751   7.757   2.397  0.4165  0.0144 -0.4134
  673MOL0     H88789   1.393   7.623   2.371  2.0646 -1.4435  0.3786
  673MOL0     H88790   1.212   7.599   2.542 -0.6629 -1.0946  2.2431
  673MOL0     H88791   1.161   7.754   2.596 -1.4887 -1.8604 -1.5395
  673MOL0     H88792   1.310   7.725   2.800  2.3123  0.0553 -2.0296
  673MOL0     H88793   1.285   7.554   2.777 -1.2422  0.2942  2.7134
  673MOL0     H88794   1.124   7.625   2.930 -0.7854  1.5392 -0.1661
  673MOL0     H88795   1.071   7.749   2.813  0.2034 -0.3880 -3.5684
  673MOL0     H88796   1.026   7.521   2.670 -0.6199  1.0860 -0.2627
  673MOL0     H88797   0.911   7.634   2.728  0.3867  1.9663  1.5436
  673MOL0     H88798   0.745   7.292   2.898  1.3214 -1.0042  1.0849
  673MOL0     H88799   0.541   7.346   3.007  1.6694 -1.8708 -0.9441
  673MOL0     H88800   0.309   7.824   3.158  0.7052 -3.7034 -0.9884
  673MOL0     H88801   0.129   7.927   3.287  1.2605  0.5848  0.1023
  673MOL0     H88802   0.158   8.035   3.599  0.3503  0.3129 -0.0214
  673MOL0     H88803   0.155   7.909   3.719 -0.5667 -0.3855 -1.3392
  673MOL0     H88804  -0.066   8.124   3.663  1.8236  3.7004  1.7911
  673MOL0     H88805   0.021   8.105   3.806 -2.7501  1.4747 -0.2681
  673MOL0     H88806  -0.095   7.882   3.854 -0.1573  1.1823  1.0398
  673MOL0     H88807  -0.197   7.917   3.703 -0.8345 -0.8686  0.5057
  673MOL0     H88808  -0.162   8.103   3.928  1.3264 -1.3387 -0.3358
  673MOL0     H88809  -0.267   8.131   3.800  1.5038  1.4641 -0.3344
  673MOL0     H88810  -0.278   7.904   4.017 -1.1732 -0.4339  1.1039
  673MOL0     H88811  -0.380   7.899   3.876 -0.2904  2.2219 -1.8778
  673MOL0     H88812  -0.371   8.139   4.061  1.4297  0.7964 -0.6289
  673MOL0     H88813  -0.492   8.011   4.089  1.0829  0.3978  0.6480
  673MOL0     H88814  -0.471   8.169   3.829 -0.5197 -1.4298 -0.9078
  673MOL0     H88815  -0.579   8.042   3.877  2.0983 -1.4995  1.2065
  673MOL0     H88816  -0.671   8.279   3.895 -0.6496 -1.9536 -0.9250
  673MOL0     H88817  -0.555   8.313   4.021  0.7676  0.9130 -3.2079
  673MOL0     H88818   0.244   7.716   3.647  0.4026  1.3289 -0.8159
  673MOL0     H88819   0.426   7.601   3.504  1.6999  0.3634  0.0934
  673MOL0     H88820   0.687   7.740   3.139 -0.7572 -0.4324 -0.7357
  673MOL0     H88821   0.878   7.695   2.991 -0.0988 -0.3600 -1.7477
  673MOL0     H88822   1.671   7.889   2.788 -1.1727 -1.3324  0.2542
  673MOL0     H88823   1.468   7.934   2.876 -0.4376  0.7426 -0.0167
  673MOL0     H88824   1.196   7.845   3.333 -0.0132 -0.2973 -1.1899
  673MOL0     H88825   0.959   7.834   3.400  4.1267 -1.4267  1.6608
  673MOL0     H88826   0.690   8.107   3.203  0.8546  0.1678 -0.1008
  673MOL0     H88827   0.698   8.192   3.360 -0.6895 -0.2236 -0.5081
  673MOL0     H88828   0.469   8.086   3.302  1.4890  0.8608 -1.2432
  673MOL0     H88829   0.557   7.934   3.346  2.1957  0.3998 -1.6263
  673MOL0     H88830   0.609   8.032   3.574  0.6933 -3.8278 -1.9092
  673MOL0     H88831   0.432   8.019   3.540  0.0353  0.2045  1.6341
  673MOL0     H88832   0.485   8.224   3.645  0.3384 -1.9324 -0.4207
  673MOL0     H88833   0.600   8.274   3.519  0.1371  0.0110 -0.9758
  673MOL0     H88834   0.189   8.311   3.361 -0.4901  2.1212  2.5150
  673MOL0     H88835   0.894   8.210   3.217  1.4087  1.8623  2.9994
  673MOL0     H88836   1.109   8.196   3.102 -0.3376 -1.8946 -2.3224
  674MOL0     O88837   4.989   8.655   4.002 -0.0151 -0.3860  0.1610
  674MOL0     C88838   4.978   8.534   3.966  0.3781 -0.1132 -0.8292
  674MOL0     O88839   4.871   8.479   3.890 -0.8677  0.6570 -0.0569
  674MOL0     C88840   4.774   8.556   3.841 -0.0407 -0.2003 -0.7294
  674MOL0     C88841   4.780   8.690   3.814  0.1266  1.2411  0.6034
  674MOL0     C88842   4.667   8.762   3.774  0.2646  0.1697 -0.3298
  674MOL0     C88843   4.545   8.699   3.763  0.8931 -0.5684  1.1561
  674MOL0     O88844   4.427   8.771   3.744  1.0457 -0.6558  0.4062
  674MOL0     C88845   4.417   8.906   3.799 -0.4499 -0.5030 -0.8187
  674MOL0     C88846   4.317   8.971   3.705 -0.6180  0.6892  0.9320
  674MOL0     C88847   4.175   8.915   3.714  0.4466 -0.1007 -0.1978
  674MOL0     C88848   4.081   8.990   3.619  0.1482  0.5443 -0.6778
  674MOL0     C88849   3.940   8.974   3.659 -0.0513  0.6319 -0.4861
  674MOL0     C88850   3.846   9.025   3.555 -0.1949  0.6498 -0.2215
  674MOL0     C88851   3.839   9.185   3.522 -0.2411 -0.2265 -0.9306
  674MOL0     C88852   3.759   9.272   3.623  0.3991  0.5515  0.5730
  674MOL0     N88853   3.624   9.295   3.576 -0.4247 -0.2726 -0.7432
  674MOL0     C88854   3.569   9.297   3.452  0.4529  0.6101 -0.0628
  674MOL0     C88855   3.434   9.315   3.471 -0.5724  0.0423  0.5701
  674MOL0     C88856   3.336   9.334   3.364 -0.6089 -0.2841  0.1952
  674MOL0     C88857   3.298   9.482   3.349 -0.5142 -0.0525 -0.2068
  674MOL0     C88858   3.168   9.505   3.261 -0.3131  0.3530 -0.0091
  674MOL0     C88859   3.184   9.484   3.113  0.5005  0.6131 -0.8774
  674MOL0     O88860   3.057   9.519   3.049  0.1604 -0.1733  0.5559
  674MOL0     C88861   3.047   9.483   2.917  0.5217 -0.0177 -1.1073
  674MOL0     C88862   2.920   9.442   2.871 -0.3892 -0.5860 -0.1990
  674MOL0     C88863   2.898   9.392   2.739  0.0376 -0.7979 -0.6770
  674MOL0     C88864   3.007   9.387   2.656 -0.0598  0.8594  0.3024
  674MOL0     C88865   2.974   9.333   2.520 -0.0768 -0.1150 -0.0663
  674MOL0     O88866   2.847   9.277   2.499  0.2820  0.3262 -0.3578
  674MOL0     C88867   2.798   9.220   2.389  0.4354 -0.4712  0.6975
  674MOL0     C88868   2.655   9.175   2.392 -0.8156  0.5816  0.1340
  674MOL0     C88869   2.589   9.143   2.270 -0.4549 -0.0661  0.4903
  674MOL0     C88870   2.672   9.121   2.149  0.9021  0.4339 -0.0707
  674MOL0     O88871   2.596   9.088   2.039  0.1282  0.3611 -0.2322
  674MOL0     C88872   2.661   9.055   1.919 -0.5315  0.1987  0.2578
  674MOL0     C88873   2.562   9.013   1.809 -1.1200 -0.2957 -1.2513
  674MOL0     C88874   2.487   8.891   1.851  0.1621 -0.0823 -0.0068
  674MOL0     C88875   2.360   8.869   1.769 -1.0864  0.5752  0.4324
  674MOL0     C88876   2.292   8.739   1.810  0.0070 -0.4299  1.2362
  674MOL0     C88877   2.206   8.686   1.696 -0.1985  1.4089  1.3522
  674MOL0     C88878   2.176   8.540   1.725  0.0779  0.4756  0.2766
  674MOL0     C88879   2.096   8.470   1.605 -0.4449  0.7656  0.3637
  674MOL0    Cl88880   2.212   8.467   1.475  0.7247  0.0736  0.3505
  674MOL0     C88881   2.805   9.156   2.157  0.5595 -0.1527 -0.4448
  674MOL0     C88882   2.864   9.215   2.268 -0.1472 -0.1421  0.5643
  674MOL0     O88883   3.061   9.340   2.442  0.0350 -0.6941  0.4018
  674MOL0     C88884   3.129   9.426   2.694 -0.2951  0.3275 -0.2151
  674MOL0     C88885   3.153   9.462   2.832  1.1454 -0.6352 -0.9574
  674MOL0     N88886   3.416   9.318   3.607  0.7095  0.6815  0.4536
  674MOL0     N88887   3.526   9.310   3.668 -0.4113 -0.3856 -0.7238
  674MOL0     C88888   4.543   8.563   3.786 -0.2128 -0.2387  1.2181
  674MOL0     C88889   4.654   8.483   3.821 -0.3311 -0.5476 -0.4866
  674MOL0     C88890   5.084   8.449   4.025  0.4770 -0.5783  0.6728
  674MOL0     C88891   5.186   8.490   4.114 -0.0588  0.7529 -0.7836
  674MOL0     C88892   5.277   8.400   4.161  0.0049  0.6826  0.1926
  674MOL0     C88893   5.265   8.269   4.135  1.0843 -1.1476 -0.1861
  674MOL0     O88894   5.360   8.193   4.202  1.4398  0.1020 -1.1190
  674MOL0     C88895   5.389   8.060   4.147 -0.0338  0.2161  0.3734
  674MOL0     C88896   5.524   7.984   4.197  0.3680 -0.4679  0.1602
  674MOL0     C88897   5.625   8.094   4.200 -0.9318  0.0061  0.2588
  674MOL0     C88898   5.752   8.057   4.275 -0.0496 -0.5433 -0.1999
  674MOL0     C88899   5.738   8.014   4.417  0.4875  0.3069  0.7430
  674MOL0     C88900   5.718   7.963   4.528 -0.0271 -0.7593  0.5878
  674MOL0     C88901   5.162   8.222   4.056  0.2852  0.2281 -0.1364
  674MOL0     C88902   5.074   8.315   3.998 -0.9711  0.2816  0.0674
  674MOL0     H88903   4.876   8.733   3.790  0.5381  0.7389  1.3186
  674MOL0     H88904   4.676   8.870   3.764 -0.9737  0.2614 -0.6694
  674MOL0     H88905   4.508   8.968   3.800 -0.6863 -0.1502  0.8714
  674MOL0     H88906   4.384   8.902   3.903 -1.7050 -2.6159 -1.2436
  674MOL0     H88907   4.350   8.955   3.602 -2.5238 -0.5698  0.4500
  674MOL0     H88908   4.328   9.078   3.728  3.5290 -0.0580  3.3694
  674MOL0     H88909   4.144   8.919   3.819  1.6527 -1.8721  0.2619
  674MOL0     H88910   4.170   8.810   3.684  0.7613 -0.8363  2.1389
  674MOL0     H88911   4.096   9.098   3.610  0.1162  0.3821 -4.1424
  674MOL0     H88912   4.084   8.952   3.516  1.5895  0.4042 -0.6053
  674MOL0     H88913   3.922   9.023   3.755  3.2403  2.2038 -0.5321
  674MOL0     H88914   3.924   8.866   3.670 -1.6580  0.7237 -1.6046
  674MOL0     H88915   3.742   9.003   3.579 -0.5262 -0.8158 -2.5792
  674MOL0     H88916   3.865   8.972   3.461  0.5824  0.7553 -0.1278
  674MOL0     H88917   3.940   9.225   3.530 -1.0316  1.8183 -0.6338
  674MOL0     H88918   3.807   9.210   3.421  0.6248  0.9880 -0.9289
  674MOL0     H88919   3.817   9.362   3.645  1.8927 -0.5334  1.1969
  674MOL0     H88920   3.750   9.225   3.722 -0.6779  1.1450  0.7683
  674MOL0     H88921   3.613   9.296   3.353 -0.0351  2.0729 -0.3130
  674MOL0     H88922   3.250   9.271   3.389 -1.2762 -1.2787 -3.8381
  674MOL0     H88923   3.381   9.292   3.274  1.5319  1.6905  0.2393
  674MOL0     H88924   3.386   9.522   3.297  0.5090  1.4386  2.4857
  674MOL0     H88925   3.299   9.536   3.444 -0.7349 -0.5595  0.0871
  674MOL0     H88926   3.096   9.444   3.317 -1.8699  2.0527 -0.0589
  674MOL0     H88927   3.128   9.607   3.272  2.9173  1.9980 -2.0359
  674MOL0     H88928   3.208   9.380   3.091 -3.6676 -0.4032 -1.3096
  674MOL0     H88929   3.267   9.542   3.071 -0.8720  1.1230 -3.0161
  674MOL0     H88930   2.826   9.452   2.925 -0.1440 -2.1971  0.5821
  674MOL0     H88931   2.796   9.376   2.706 -0.4813  3.7376 -2.0402
  674MOL0     H88932   2.592   9.185   2.480  1.9243  4.9806  1.9170
  674MOL0     H88933   2.485   9.112   2.270  0.3389 -3.0151  0.8115
  674MOL0     H88934   2.727   8.970   1.934 -1.3235 -0.5970 -0.6135
  674MOL0     H88935   2.710   9.146   1.882 -0.4889  0.3299  0.6319
  674MOL0     H88936   2.624   9.001   1.719  2.3488 -0.8084  1.0262
  674MOL0     H88937   2.501   9.101   1.787  1.1439  1.9535  0.8833
  674MOL0     H88938   2.439   8.902   1.948 -0.7263 -1.6291 -0.2368
  674MOL0     H88939   2.561   8.810   1.841 -0.6966 -0.5875 -3.5881
  674MOL0     H88940   2.288   8.952   1.763  1.6259  3.0161 -2.0011
  674MOL0     H88941   2.401   8.860   1.668  2.0109  2.9588  1.3333
  674MOL0     H88942   2.234   8.760   1.901  1.5451 -1.3060  2.4681
  674MOL0     H88943   2.371   8.665   1.825  1.9927  1.6821  1.6834
  674MOL0     H88944   2.268   8.706   1.609  4.6838  1.9630  4.5750
  674MOL0     H88945   2.109   8.737   1.689 -0.7836  0.0887 -1.2629
  674MOL0     H88946   2.265   8.482   1.752 -1.6059 -1.7662  1.3806
  674MOL0     H88947   2.113   8.533   1.814  0.6069  2.3621  0.8560
  674MOL0     H88948   2.011   8.537   1.588 -0.4153  0.1849 -2.6366
  674MOL0     H88949   2.066   8.370   1.638 -2.3251  1.1137 -0.1746
  674MOL0     H88950   2.861   9.150   2.064 -0.2260  0.1658 -0.9465
  674MOL0     H88951   2.960   9.263   2.254 -1.0298  1.2786 -1.0325
  674MOL0     H88952   3.210   9.428   2.622  2.5648 -0.8256  2.6955
  674MOL0     H88953   3.259   9.484   2.846  0.7730 -0.0145  1.0679
  674MOL0     H88954   4.446   8.515   3.777 -0.3478  0.3061 -0.7852
  674MOL0     H88955   4.651   8.377   3.842  0.8311 -0.1416  2.1331
  674MOL0     H88956   5.185   8.588   4.160  2.2529  0.4942 -0.0533
  674MOL0     H88957   5.356   8.430   4.230  0.3979 -3.7767  2.0311
  674MOL0     H88958   5.392   8.071   4.038  0.8415  2.2926  0.5591
  674MOL0     H88959   5.309   7.997   4.186 -0.5606  0.6001 -0.0708
  674MOL0     H88960   5.501   7.932   4.291 -1.9399 -1.9277 -1.1168
  674MOL0     H88961   5.548   7.900   4.131 -0.8037  1.1659 -2.4915
  674MOL0     H88962   5.586   8.178   4.259 -0.7521 -0.2896  0.8119
  674MOL0     H88963   5.661   8.123   4.101  0.1879  0.1988  0.7073
  674MOL0     H88964   5.808   7.974   4.231  1.4452  1.3391 -2.0855
  674MOL0     H88965   5.822   8.141   4.283 -1.4200  0.5001  1.7037
  674MOL0     H88966   5.690   7.911   4.618 -0.6936 -0.8781  0.3207
  674MOL0     H88967   5.151   8.116   4.033 -0.0573  0.4521 -1.0240
  674MOL0     H88968   5.003   8.277   3.925 -1.4762  2.5501 -0.7050
  675MOL0     O88969   8.187   3.039   4.209 -0.5416  0.5527 -0.0531
  675MOL0     C88970   8.091   2.998   4.137 -0.4409 -0.6196 -0.2576
  675MOL0     O88971   8.101   2.940   4.017 -0.2014  0.4256 -0.3974
  675MOL0     C88972   8.226   2.906   3.968 -0.3447 -1.0261 -0.3707
  675MOL0     C88973   8.315   2.806   4.015  0.8895  0.2308 -0.3238
  675MOL0     C88974   8.447   2.779   3.962  0.0195  0.6355  1.0497
  675MOL0     C88975   8.496   2.869   3.864 -0.4832 -0.1699 -0.1875
  675MOL0     O88976   8.623   2.849   3.817 -0.7044  0.2319 -0.4662
  675MOL0     C88977   8.705   2.952   3.763 -0.1566  0.0830  0.1768
  675MOL0     C88978   8.812   2.970   3.853 -0.4756  0.2411 -0.3860
  675MOL0     C88979   8.774   3.029   3.987  0.3775 -0.6823  0.5901
  675MOL0     C88980   8.902   3.027   4.076 -0.0772  0.6900  1.1148
  675MOL0     C88981   8.909   3.118   4.203  0.1435 -0.2426  0.2441
  675MOL0     C88982   8.783   3.107   4.303  0.1453  0.8024  0.4080
  675MOL0     C88983   8.783   3.212   4.415 -0.5790  0.8602  0.4656
  675MOL0     C88984   8.665   3.198   4.515  0.9950  0.6598  0.4942
  675MOL0     N88985   8.692   3.270   4.645  0.3295 -0.4648 -0.3020
  675MOL0     C88986   8.756   3.220   4.756  0.5423  0.8333  0.8450
  675MOL0     C88987   8.794   3.332   4.832 -0.4488 -0.4489 -0.5291
  675MOL0     C88988   8.855   3.319   4.976  0.2874  0.0661  0.1048
  675MOL0     C88989   9.002   3.349   4.959  0.1324 -0.3060  0.4571
  675MOL0     C88990   9.034   3.492   4.915  0.6666 -0.6744  0.4760
  675MOL0     C88991   9.186   3.498   4.892  0.1606 -0.1036 -0.5370
  675MOL0     O88992   9.242   3.631   4.879 -0.0151 -0.3336  0.8880
  675MOL0     C88993   9.364   3.641   4.812 -0.0838 -0.0943  0.9804
  675MOL0     C88994   9.387   3.754   4.731  0.3095  0.6845 -0.3158
  675MOL0     C88995   9.506   3.766   4.655  0.5803 -0.5004  0.1857
  675MOL0     C88996   9.596   3.664   4.651  0.7171 -0.8332  0.1095
  675MOL0     C88997   9.719   3.681   4.573  0.3829 -0.4860 -0.4620
  675MOL0     O88998   9.841   3.647   4.639  0.3625 -0.2964  1.0705
  675MOL0     C88999   9.952   3.681   4.563  1.4757 -0.3133  0.2122
  675MOL0     C89000  10.006   3.596   4.464  0.7164  0.0804  0.2946
  675MOL0     C89001  10.122   3.636   4.395  0.1953 -0.3524  0.0611
  675MOL0     C89002  10.182   3.761   4.423 -0.3093  0.0683 -1.0611
  675MOL0     O89003  10.300   3.808   4.369  0.4164 -0.5260  0.7880
  675MOL0     C89004  10.380   3.737   4.265  0.2573 -0.1788  0.0187
  675MOL0     C89005  10.504   3.814   4.232 -0.5804 -0.0615 -0.0172
  675MOL0     C89006  10.588   3.829   4.361 -0.0167  1.1993  0.1629
  675MOL0     C89007  10.720   3.906   4.341 -0.3178  0.6319 -0.1287
  675MOL0     C89008  10.784   3.916   4.483  0.0398  0.5735  0.5124
  675MOL0     C89009  10.913   4.010   4.473 -0.2183  0.4940 -0.2398
  675MOL0     C89010  10.998   3.995   4.600  0.0548  1.1516 -1.1561
  675MOL0     C89011  11.093   3.874   4.598  0.2345  0.5270  0.5957
  675MOL0    Cl89012  11.232   3.912   4.489  0.0865 -0.2023  0.1242
  675MOL0     C89013  10.112   3.852   4.512  0.1135  0.4899  0.1409
  675MOL0     C89014   9.996   3.810   4.580  0.0872  1.0087 -0.4199
  675MOL0     O89015   9.712   3.735   4.463  0.6049  0.5510 -0.5222
  675MOL0     C89016   9.575   3.556   4.737 -0.1161 -0.2505  0.5327
  675MOL0     C89017   9.457   3.544   4.810  0.2068  0.3593  0.4338
  675MOL0     N89018   8.752   3.445   4.768 -0.2799  0.3090  0.4686
  675MOL0     N89019   8.685   3.407   4.662 -0.6758  0.7824 -0.6596
  675MOL0     C89020   8.410   2.967   3.817 -0.4264  0.4750  0.7988
  675MOL0     C89021   8.288   2.987   3.876  0.7906  0.8834 -0.2775
  675MOL0     C89022   7.959   3.019   4.199  0.1931 -0.0926  0.2234
  675MOL0     C89023   7.849   2.954   4.144  0.7537 -0.8653  1.0971
  675MOL0     C89024   7.715   2.965   4.199 -0.5574 -0.2594 -0.2005
  675MOL0     C89025   7.699   3.036   4.320 -0.0756 -0.1719 -0.7255
  675MOL0     O89026   7.584   3.050   4.389  0.4477  0.0390 -0.2396
  675MOL0     C89027   7.472   2.965   4.351  0.3798 -0.0007 -0.3084
  675MOL0     C89028   7.354   3.022   4.431  1.3829  0.3154 -0.9034
  675MOL0     C89029   7.232   2.930   4.422 -0.0743  0.7878  0.9971
  675MOL0     C89030   7.130   2.970   4.529  0.3546 -0.5091  0.0191
  675MOL0     C89031   7.179   2.911   4.654 -0.4246 -0.0387 -0.0191
  675MOL0     C89032   7.210   2.840   4.748 -0.2750  0.1426  0.6862
  675MOL0     C89033   7.814   3.107   4.375  1.1320  1.7839  0.0397
  675MOL0     C89034   7.937   3.094   4.313  0.7239  0.0315 -0.4119
  675MOL0     H89035   8.295   2.738   4.097 -2.1858 -1.6989 -2.4498
  675MOL0     H89036   8.513   2.708   4.012 -0.7066 -1.4886 -0.8448
  675MOL0     H89037   8.656   3.049   3.755 -1.3646 -0.6603 -3.8004
  675MOL0     H89038   8.747   2.931   3.664  0.2701 -0.6358  0.4992
  675MOL0     H89039   8.896   3.026   3.813 -0.0108  0.8422  1.3240
  675MOL0     H89040   8.854   2.871   3.874  1.1670  0.5892 -1.8475
  675MOL0     H89041   8.687   2.983   4.035  0.4310  0.2261  1.6099
  675MOL0     H89042   8.749   3.136   3.984 -0.3479 -0.8371  0.8585
  675MOL0     H89043   8.932   2.925   4.101 -2.0181 -0.5191 -1.0199
  675MOL0     H89044   8.986   3.058   4.013  1.7364 -1.9748  2.0844
  675MOL0     H89045   8.920   3.222   4.169  2.6601 -0.9130 -1.2864
  675MOL0     H89046   9.003   3.099   4.256  0.5895 -1.1700 -0.8389
  675MOL0     H89047   8.772   3.006   4.343  0.8604  1.0675  1.3149
  675MOL0     H89048   8.689   3.133   4.253 -1.1133 -2.4470  0.8220
  675MOL0     H89049   8.874   3.210   4.476 -0.4692  0.1136  0.2784
  675MOL0     H89050   8.772   3.314   4.377 -1.0225  1.3635  1.8719
  675MOL0     H89051   8.649   3.093   4.537  0.6819  0.6844  0.3860
  675MOL0     H89052   8.573   3.241   4.474  1.5596  0.8847 -0.6008
  675MOL0     H89053   8.767   3.120   4.796 -0.6503  0.1507 -0.4512
  675MOL0     H89054   8.847   3.215   5.007 -0.8478  0.9156  2.9170
  675MOL0     H89055   8.800   3.377   5.050 -1.8760  0.2376 -1.5267
  675MOL0     H89056   9.066   3.276   4.910 -0.5919 -3.8101  4.1826
  675MOL0     H89057   9.043   3.334   5.060  0.6413 -0.0328  0.2963
  675MOL0     H89058   8.996   3.528   4.819 -2.7544 -1.9887  1.2208
  675MOL0     H89059   9.017   3.560   4.999  2.1754 -1.1583  1.2069
  675MOL0     H89060   9.213   3.434   4.807  2.4192  0.8359 -0.6080
  675MOL0     H89061   9.231   3.453   4.981 -0.1126  2.6580  1.0946
  675MOL0     H89062   9.315   3.834   4.715  1.9575  1.5308 -4.9194
  675MOL0     H89063   9.535   3.859   4.608 -3.5104  2.0990  2.2308
  675MOL0     H89064   9.963   3.497   4.450 -1.7094  1.2427 -0.9248
  675MOL0     H89065  10.181   3.563   4.340  1.6177  0.7909  0.0073
  675MOL0     H89066  10.318   3.706   4.180 -1.3824 -1.8274  1.7259
  675MOL0     H89067  10.416   3.644   4.311 -2.4614 -0.8822  0.9009
  675MOL0     H89068  10.474   3.914   4.200 -0.9363 -0.1366  0.0828
  675MOL0     H89069  10.558   3.761   4.153  1.6611 -2.3262  2.7949
  675MOL0     H89070  10.596   3.733   4.412 -3.2308  0.7698  0.0708
  675MOL0     H89071  10.536   3.895   4.431  0.4097  2.9892 -1.1336
  675MOL0     H89072  10.781   3.860   4.263  0.9927  0.0202  1.2041
  675MOL0     H89073  10.693   4.009   4.314 -1.3752  0.8370  1.5550
  675MOL0     H89074  10.823   3.819   4.514  2.1051  0.8767 -0.9808
  675MOL0     H89075  10.719   3.950   4.564 -1.5493 -0.8435 -0.1171
  675MOL0     H89076  10.883   4.115   4.462  1.0502  0.7444 -1.6090
  675MOL0     H89077  10.979   3.992   4.388  2.4909  0.0057  1.8166
  675MOL0     H89078  11.056   4.087   4.617 -0.3488  0.9683  1.6215
  675MOL0     H89079  10.929   3.991   4.684  0.9303 -0.4821 -0.4905
  675MOL0     H89080  11.040   3.787   4.559  1.8570  0.6675 -2.1759
  675MOL0     H89081  11.137   3.844   4.693  0.7042 -0.2394  0.1516
  675MOL0     H89082  10.153   3.949   4.541  3.1120 -0.3159 -1.0403
  675MOL0     H89083   9.939   3.880   4.641  2.3674  2.0895  0.5867
  675MOL0     H89084   9.649   3.479   4.714 -0.3025  0.0176 -1.1402
  675MOL0     H89085   9.456   3.457   4.875 -1.1501  2.5113  3.5626
  675MOL0     H89086   8.448   3.024   3.733  2.8083 -1.6229  0.6441
  675MOL0     H89087   8.235   3.076   3.842  2.0160  1.5503 -0.5237
  675MOL0     H89088   7.859   2.905   4.048  1.3168 -2.6338  2.0112
  675MOL0     H89089   7.645   2.918   4.131 -1.6852  0.9643  0.0838
  675MOL0     H89090   7.482   2.860   4.379  0.2202 -0.3220 -1.4278
  675MOL0     H89091   7.432   2.956   4.250 -0.5028 -2.1451  0.1827
  675MOL0     H89092   7.368   3.049   4.536  0.4937 -1.1568 -0.3619
  675MOL0     H89093   7.320   3.113   4.380 -2.0714 -0.2203  0.1823
  675MOL0     H89094   7.251   2.823   4.435  0.5368  0.9497  1.4717
  675MOL0     H89095   7.191   2.938   4.321  1.1227 -3.4741 -0.0361
  675MOL0     H89096   7.107   3.077   4.542 -0.6333 -0.8057  0.7966
  675MOL0     H89097   7.030   2.935   4.505  0.1612 -1.0685  1.5370
  675MOL0     H89098   7.223   2.784   4.839 -0.9311  0.8273  1.2185
  675MOL0     H89099   7.804   3.160   4.469 -3.4827  1.4147 -0.0341
  675MOL0     H89100   8.014   3.149   4.367  1.1091 -0.1098 -0.8054
  676MOL0     O89101   7.400   3.934   7.105 -0.2740  0.3397  0.4893
  676MOL0     C89102   7.359   4.051   7.097 -0.3337 -0.2864 -0.3524
  676MOL0     O89103   7.235   4.087   7.128  0.2551  0.2923  0.2837
  676MOL0     C89104   7.165   4.016   7.217  0.0195  0.1385  0.2894
  676MOL0     C89105   7.151   4.069   7.351 -1.1010 -0.3846 -0.1901
  676MOL0     C89106   7.090   3.986   7.451  0.1911  0.5244 -0.1003
  676MOL0     C89107   7.023   3.873   7.401 -0.0514  1.0142 -0.6572
  676MOL0     O89108   6.939   3.810   7.497  1.7155  0.4033  0.0060
  676MOL0     C89109   6.806   3.779   7.461 -0.2183 -0.2667  0.3215
  676MOL0     C89110   6.730   3.920   7.456 -0.4716 -0.2382  0.4214
  676MOL0     C89111   6.686   3.980   7.590 -0.0727  0.0136 -1.3405
  676MOL0     C89112   6.609   4.109   7.542  0.1561  0.2527  0.0201
  676MOL0     C89113   6.598   4.193   7.660 -0.5054 -0.7018  0.0626
  676MOL0     C89114   6.551   4.335   7.614  0.0384  0.9355  0.0533
  676MOL0     C89115   6.666   4.430   7.640  0.7762  0.2697  0.5791
  676MOL0     C89116   6.748   4.427   7.517 -0.4048  0.6070  0.5969
  676MOL0     N89117   6.871   4.516   7.531  0.3143  0.0565 -0.1070
  676MOL0     C89118   6.990   4.474   7.583 -0.2711  0.4572 -0.2421
  676MOL0     C89119   7.054   4.594   7.590  0.4370 -0.3150  0.4979
  676MOL0     C89120   7.197   4.589   7.637 -0.7960 -0.0749  0.0564
  676MOL0     C89121   7.253   4.736   7.648 -0.6870 -0.2769  0.4148
  676MOL0     C89122   7.279   4.808   7.515  1.2338  0.3829 -0.3357
  676MOL0     C89123   7.330   4.946   7.545 -0.5444  0.1785 -0.2146
  676MOL0     O89124   7.358   5.016   7.422 -0.5120  0.1845  0.1479
  676MOL0     C89125   7.451   5.120   7.421 -0.0877  0.1211 -0.3869
  676MOL0     C89126   7.490   5.169   7.300  0.0218 -0.0065 -0.1954
  676MOL0     C89127   7.576   5.273   7.296  0.4723 -0.1009  0.1813
  676MOL0     C89128   7.655   5.317   7.406  0.1546 -0.1713 -0.5072
  676MOL0     C89129   7.773   5.407   7.392  0.3595 -0.7717 -0.0298
  676MOL0     O89130   7.798   5.439   7.261  0.6816 -1.0788  0.3028
  676MOL0     C89131   7.926   5.480   7.219  0.0254  0.4200 -0.2662
  676MOL0     C89132   8.045   5.480   7.298  0.4099  0.6417  0.0955
  676MOL0     C89133   8.163   5.514   7.234 -0.9135 -0.2296 -0.0168
  676MOL0     C89134   8.161   5.561   7.099  0.3497  0.3709  0.3245
  676MOL0     O89135   8.282   5.588   7.034 -0.2285  0.6103 -0.2714
  676MOL0     C89136   8.292   5.723   6.977 -0.1218  0.0937  0.2093
  676MOL0     C89137   8.428   5.724   6.900  0.4484  0.9094  0.8373
  676MOL0     C89138   8.556   5.735   6.987  0.4446  0.1630 -0.4471
  676MOL0     C89139   8.571   5.862   7.068  0.5927 -0.0949 -0.6231
  676MOL0     C89140   8.627   5.822   7.209  1.2754  0.8924  0.4918
  676MOL0     C89141   8.514   5.750   7.279 -0.4500 -0.4080 -0.9832
  676MOL0     C89142   8.534   5.723   7.423 -0.1265 -0.6339  0.8775
  676MOL0     C89143   8.631   5.615   7.450  0.4860  0.8376 -0.7091
  676MOL0    Cl89144   8.609   5.474   7.353  0.0510 -0.0938  0.5450
  676MOL0     C89145   8.039   5.571   7.034  0.9913  0.4964  0.1096
  676MOL0     C89146   7.916   5.532   7.096 -1.1852 -0.0775 -0.7320
  676MOL0     O89147   7.828   5.450   7.493 -0.1938  0.2320 -0.0116
  676MOL0     C89148   7.616   5.261   7.529  0.7619 -0.2151 -0.0313
  676MOL0     C89149   7.511   5.166   7.539 -0.2382  1.0756 -0.1307
  676MOL0     N89150   6.970   4.701   7.551 -0.2564 -0.2403 -0.5099
  676MOL0     N89151   6.859   4.650   7.512  0.7358  0.3920 -0.3573
  676MOL0     C89152   7.034   3.824   7.267  0.2275 -0.5571 -0.0412
  676MOL0     C89153   7.098   3.902   7.178 -0.7732  0.0964  0.0045
  676MOL0     C89154   7.447   4.159   7.040  0.7611  0.0795 -0.3492
  676MOL0     C89155   7.384   4.269   6.991  0.5681 -0.3220 -0.8059
  676MOL0     C89156   7.461   4.369   6.936 -0.5020  0.7526  0.0131
  676MOL0     C89157   7.605   4.358   6.926  0.2417 -0.8398  0.0688
  676MOL0     O89158   7.673   4.464   6.863  0.4729  0.3525 -0.0533
  676MOL0     C89159   7.749   4.556   6.945  0.0709  0.3446 -0.9756
  676MOL0     C89160   7.893   4.508   6.949  0.1938  0.9110  0.4409
  676MOL0     C89161   7.979   4.594   6.859  0.3622 -0.0861  0.2768
  676MOL0     C89162   8.004   4.748   6.905  0.5497  0.4708 -0.4575
  676MOL0     C89163   8.087   4.804   6.805 -0.0683 -0.2874  0.7382
  676MOL0     C89164   8.158   4.846   6.716 -0.4574 -0.9743 -0.2340
  676MOL0     C89165   7.664   4.250   6.997  0.0234 -0.8827  0.2200
  676MOL0     C89166   7.583   4.145   7.032 -1.0691 -0.0800  0.6675
  676MOL0     H89167   7.202   4.160   7.379 -1.6304 -0.4786  1.1264
  676MOL0     H89168   7.108   4.000   7.557 -1.9815 -3.5134  1.0169
  676MOL0     H89169   6.765   3.722   7.545  0.9028 -0.3438  0.8343
  676MOL0     H89170   6.809   3.735   7.361  3.3230  1.6026 -0.5720
  676MOL0     H89171   6.643   3.904   7.392  1.0155 -2.1388 -1.2973
  676MOL0     H89172   6.791   3.999   7.411 -1.2457 -0.0921 -0.3906
  676MOL0     H89173   6.773   3.995   7.655 -0.3622 -3.0005 -0.0961
  676MOL0     H89174   6.619   3.920   7.652 -1.4810  3.5673  0.8911
  676MOL0     H89175   6.655   4.172   7.465 -5.3640  4.5143 -0.4162
  676MOL0     H89176   6.507   4.093   7.505 -0.3141  1.6755  0.6367
  676MOL0     H89177   6.703   4.196   7.693  0.1043  0.8852 -1.8118
  676MOL0     H89178   6.537   4.140   7.733 -2.7371 -1.5702 -2.2746
  676MOL0     H89179   6.476   4.373   7.684  2.6217  4.0654  1.3976
  676MOL0     H89180   6.513   4.337   7.511  1.2208 -0.1624 -0.4314
  676MOL0     H89181   6.619   4.526   7.660 -2.6266 -0.8484 -1.2687
  676MOL0     H89182   6.723   4.398   7.728  1.7629 -3.6406 -1.2275
  676MOL0     H89183   6.689   4.457   7.430  1.1816 -2.2447 -1.6397
  676MOL0     H89184   6.791   4.327   7.506 -0.0178  0.7142  1.0610
  676MOL0     H89185   7.021   4.374   7.612 -0.3313  0.1709 -1.1466
  676MOL0     H89186   7.258   4.530   7.569 -1.5870  0.9080 -1.5660
  676MOL0     H89187   7.201   4.551   7.740 -0.7666  1.6694  0.7326
  676MOL0     H89188   7.349   4.728   7.699 -0.9272  0.3634  0.9949
  676MOL0     H89189   7.182   4.791   7.712 -1.0302  0.9929 -0.9767
  676MOL0     H89190   7.347   4.747   7.455  2.1025 -0.3036  1.2921
  676MOL0     H89191   7.185   4.832   7.465 -0.0264  1.2860  2.2860
  676MOL0     H89192   7.415   4.939   7.614  0.5018  2.2439 -1.2163
  676MOL0     H89193   7.247   5.005   7.585 -0.6057  0.5722 -0.9216
  676MOL0     H89194   7.458   5.130   7.204 -1.6684  1.3445 -0.2205
  676MOL0     H89195   7.615   5.295   7.197  1.2750  3.0266  1.0834
  676MOL0     H89196   8.052   5.452   7.403  0.4213  2.2890  0.5600
  676MOL0     H89197   8.258   5.519   7.287 -1.7537 -0.9214  1.5990
  676MOL0     H89198   8.285   5.800   7.054  2.0193  0.3008  0.2458
  676MOL0     H89199   8.221   5.725   6.894  1.1199 -1.8898 -0.9732
  676MOL0     H89200   8.430   5.815   6.839 -1.2527  0.6405  0.3499
  676MOL0     H89201   8.430   5.638   6.832 -0.9577 -0.2137  2.1558
  676MOL0     H89202   8.632   5.745   6.910 -0.5140 -0.1120 -1.4617
  676MOL0     H89203   8.568   5.642   7.043 -3.7702  0.4121  1.2817
  676MOL0     H89204   8.637   5.937   7.023 -1.6761  3.0136  0.8250
  676MOL0     H89205   8.476   5.916   7.071  1.5143  1.6202  2.3383
  676MOL0     H89206   8.650   5.918   7.256  4.4778 -0.1154  1.2347
  676MOL0     H89207   8.713   5.755   7.204  0.1102 -0.6790  0.9439
  676MOL0     H89208   8.483   5.662   7.222 -2.8348 -2.4746  3.0207
  676MOL0     H89209   8.428   5.818   7.282  1.3644  1.9991  1.0698
  676MOL0     H89210   8.569   5.814   7.474  0.8526 -0.7842  0.4922
  676MOL0     H89211   8.435   5.700   7.465 -0.4577 -1.5186 -0.3526
  676MOL0     H89212   8.622   5.606   7.558  0.6470  3.8077 -0.3723
  676MOL0     H89213   8.737   5.642   7.451  1.4549 -2.1286  3.8223
  676MOL0     H89214   8.030   5.608   6.932  4.7077  1.0104 -0.1697
  676MOL0     H89215   7.829   5.523   7.033  1.2139 -3.7708 -3.9894
  676MOL0     H89216   7.669   5.291   7.619 -0.3682  0.2996  0.4768
  676MOL0     H89217   7.495   5.129   7.640  3.1303 -0.5191 -0.0308
  676MOL0     H89218   6.981   3.733   7.242  1.7184 -2.5966  3.4745
  676MOL0     H89219   7.097   3.875   7.073 -2.9185  1.1531 -0.3042
  676MOL0     H89220   7.275   4.275   6.987  0.6295  0.4033 -1.7665
  676MOL0     H89221   7.409   4.451   6.887  1.1039 -0.0234 -3.3563
  676MOL0     H89222   7.720   4.539   7.049  1.6034 -2.6136 -0.9284
  676MOL0     H89223   7.736   4.655   6.899 -1.5789 -0.4071 -2.2149
  676MOL0     H89224   7.926   4.520   7.053 -0.9370 -1.2429  1.0895
  676MOL0     H89225   7.885   4.405   6.916 -3.5187  1.8411 -2.1555
  676MOL0     H89226   7.929   4.607   6.763  0.3384  1.5288  0.4851
  676MOL0     H89227   8.076   4.543   6.860  0.5130  0.1665 -0.6328
  676MOL0     H89228   7.904   4.792   6.911  0.8295  0.9624  2.9318
  676MOL0     H89229   8.052   4.743   7.003 -2.2832  1.1248  1.0508
  676MOL0     H89230   8.207   4.890   6.632 -0.1018  1.5634  1.2308
  676MOL0     H89231   7.772   4.244   7.005  0.2805  2.3119  0.4318
  676MOL0     H89232   7.627   4.048   7.052 -0.1526  0.1393 -0.1898
  677MOL0     O89233   3.718   8.352   4.003  0.0371  0.1194 -0.8378
  677MOL0     C89234   3.656   8.295   3.916  0.8825 -0.4095 -0.2757
  677MOL0     O89235   3.688   8.171   3.846 -0.1119 -0.2420  0.4779
  677MOL0     C89236   3.813   8.112   3.866  0.3816 -1.1086 -0.6200
  677MOL0     C89237   3.853   8.082   3.996 -0.8478  0.1178 -0.1189
  677MOL0     C89238   3.978   8.026   4.025 -0.2980  0.1702  0.0854
  677MOL0     C89239   4.064   7.996   3.913  0.6237 -0.6037 -0.5771
  677MOL0     O89240   4.184   7.932   3.927 -0.7929  0.1438 -1.0069
  677MOL0     C89241   4.196   7.827   4.027 -0.7041 -1.2566  0.0256
  677MOL0     C89242   4.279   7.870   4.149  0.2752 -0.0196  0.3199
  677MOL0     C89243   4.268   7.786   4.273 -0.8223 -0.0983  0.4909
  677MOL0     C89244   4.337   7.646   4.256 -0.6538 -1.1949  0.6895
  677MOL0     C89245   4.330   7.565   4.387  0.2057 -0.2260  0.2133
  677MOL0     C89246   4.418   7.432   4.366 -0.8309 -0.0376 -0.0332
  677MOL0     C89247   4.399   7.324   4.477 -0.4660 -0.7791 -0.2679
  677MOL0     C89248   4.475   7.197   4.473  0.0935 -0.3714  0.7508
  677MOL0     N89249   4.480   7.127   4.346  0.0399  0.3527  0.0658
  677MOL0     C89250   4.397   7.014   4.323 -0.5188  0.2283 -0.5859
  677MOL0     C89251   4.423   6.976   4.203 -0.0504 -0.0359  0.5648
  677MOL0     C89252   4.370   6.845   4.142  0.2255  0.1205 -0.0514
  677MOL0     C89253   4.226   6.821   4.178  0.3654 -0.6866 -0.8415
  677MOL0     C89254   4.175   6.689   4.102  0.1247 -0.1451 -0.8121
  677MOL0     C89255   4.059   6.615   4.181  0.8176 -0.6292 -0.8210
  677MOL0     O89256   3.960   6.700   4.231  0.4264  0.9552  0.1909
  677MOL0     C89257   3.882   6.777   4.136  0.0341  0.6585  0.9118
  677MOL0     C89258   3.862   6.754   4.002 -0.7241  0.1286 -0.1121
  677MOL0     C89259   3.787   6.835   3.919  0.0512 -0.1588  0.1241
  677MOL0     C89260   3.726   6.942   3.972  0.0708  0.0948 -0.2166
  677MOL0     C89261   3.658   7.039   3.885 -0.7685  0.1835  0.6619
  677MOL0     O89262   3.640   7.006   3.761  0.2387 -0.2859 -0.3200
  677MOL0     C89263   3.577   7.091   3.676  0.1561 -0.0362  0.1330
  677MOL0     C89264   3.439   7.075   3.657 -0.5637  0.3378  0.0363
  677MOL0     C89265   3.369   7.149   3.556 -0.4438 -0.6274 -0.3698
  677MOL0     C89266   3.442   7.237   3.471  0.3783 -1.0547 -0.4293
  677MOL0     O89267   3.392   7.316   3.374  0.1408 -0.3968 -0.1177
  677MOL0     C89268   3.259   7.279   3.321  0.2736 -0.3825  0.5748
  677MOL0     C89269   3.194   7.370   3.210 -0.2414  0.0962  0.4306
  677MOL0     C89270   3.263   7.372   3.080 -0.4265  0.7905 -0.6086
  677MOL0     C89271   3.224   7.479   2.980 -0.5028  0.3715 -0.8915
  677MOL0     C89272   3.329   7.473   2.872 -0.7102  0.1595  0.6444
  677MOL0     C89273   3.307   7.576   2.766  0.8268 -0.0751  0.3253
  677MOL0     C89274   3.426   7.585   2.667 -0.1049  0.3739  0.3136
  677MOL0     C89275   3.417   7.481   2.558  0.5379  0.1496  0.3188
  677MOL0    Cl89276   3.554   7.488   2.446 -0.1627 -0.1838  0.3286
  677MOL0     C89277   3.579   7.248   3.500 -1.0928 -0.3218  0.5923
  677MOL0     C89278   3.648   7.172   3.590  0.6950  0.0525 -0.9997
  677MOL0     O89279   3.609   7.138   3.940 -1.2610  0.2083 -0.7407
  677MOL0     C89280   3.737   6.972   4.110 -0.4964 -1.1506  0.3496
  677MOL0     C89281   3.818   6.891   4.185 -0.4105  0.2913 -0.0652
  677MOL0     N89282   4.527   7.054   4.146 -0.0075  0.3366 -0.1481
  677MOL0     N89283   4.567   7.141   4.239  0.0959  0.3215 -0.0079
  677MOL0     C89284   4.011   7.996   3.783 -0.1356  0.0738  0.1559
  677MOL0     C89285   3.890   8.063   3.760 -0.1637  0.0159  0.6161
  677MOL0     C89286   3.540   8.364   3.862 -0.0770 -0.0001 -0.2638
  677MOL0     C89287   3.499   8.342   3.729  0.8619  0.2420 -0.1842
  677MOL0     C89288   3.399   8.427   3.678  0.0660 -0.9586  0.4516
  677MOL0     C89289   3.334   8.520   3.766 -0.2917  0.7813  0.0249
  677MOL0     O89290   3.229   8.596   3.726  0.0275  0.0473 -0.6455
  677MOL0     C89291   3.156   8.560   3.608 -0.1773  0.5371 -0.0080
  677MOL0     C89292   3.035   8.636   3.575 -0.1353 -0.7422 -0.0122
  677MOL0     C89293   2.928   8.620   3.693  0.0748 -0.3473 -0.3156
  677MOL0     C89294   2.801   8.533   3.657  0.2150 -0.2081 -0.0765
  677MOL0     C89295   2.740   8.597   3.538  0.0982  0.0940  0.4160
  677MOL0     C89296   2.687   8.634   3.437  0.0842 -0.5934 -0.6453
  677MOL0     C89297   3.369   8.531   3.894  0.3581  0.2555  0.7900
  677MOL0     C89298   3.470   8.454   3.950  0.0906 -1.4656  0.2339
  677MOL0     H89299   3.788   8.112   4.078  1.0723 -2.2195  2.4313
  677MOL0     H89300   4.017   8.037   4.125  1.3193  0.1358 -0.5211
  677MOL0     H89301   4.253   7.750   3.974 -2.0734 -2.7671  0.6806
  677MOL0     H89302   4.110   7.770   4.063 -1.8579  1.0207  1.1108
  677MOL0     H89303   4.249   7.972   4.176 -1.0620  0.0517 -1.2249
  677MOL0     H89304   4.384   7.873   4.120 -0.2413 -2.4188 -2.3352
  677MOL0     H89305   4.163   7.773   4.301 -1.9406  0.7360 -2.9110
  677MOL0     H89306   4.325   7.836   4.352 -0.3573 -1.0210  0.7546
  677MOL0     H89307   4.283   7.586   4.181 -0.6711 -0.8658  0.4389
  677MOL0     H89308   4.443   7.654   4.232 -0.2922  1.3285  2.7330
  677MOL0     H89309   4.229   7.549   4.427 -0.5622  1.3039 -1.0444
  677MOL0     H89310   4.378   7.627   4.463 -0.5323  2.4985 -1.4276
  677MOL0     H89311   4.525   7.453   4.370 -0.6390 -1.1704  1.6090
  677MOL0     H89312   4.405   7.394   4.264  3.3096 -0.9779 -0.3934
  677MOL0     H89313   4.403   7.373   4.575 -4.3105  1.5209 -1.0493
  677MOL0     H89314   4.293   7.305   4.462 -0.7072  2.2935 -4.0477
  677MOL0     H89315   4.427   7.126   4.542 -1.5568  0.6643  0.7273
  677MOL0     H89316   4.577   7.205   4.511 -0.0970  1.4456  0.9707
  677MOL0     H89317   4.325   6.963   4.386  0.6648 -1.6878 -0.7028
  677MOL0     H89318   4.426   6.756   4.170 -0.3562 -1.1428 -2.5728
  677MOL0     H89319   4.383   6.856   4.034 -0.7332 -3.6411 -0.6830
  677MOL0     H89320   4.164   6.909   4.156 -0.2364 -0.8200  0.2643
  677MOL0     H89321   4.203   6.807   4.284 -1.2880  0.1061 -1.0543
  677MOL0     H89322   4.139   6.729   4.006 -0.5967 -1.7720 -1.2450
  677MOL0     H89323   4.263   6.631   4.075  0.1077 -0.4383 -0.2428
  677MOL0     H89324   4.103   6.565   4.268  5.0348  0.9467 -1.7831
  677MOL0     H89325   4.010   6.532   4.130  0.4626 -1.6270  1.0596
  677MOL0     H89326   3.902   6.661   3.962 -1.4878  0.1792 -1.0267
  677MOL0     H89327   3.782   6.807   3.814  2.7671 -0.8140  0.0937
  677MOL0     H89328   3.375   7.011   3.717 -0.6920  0.9609  0.5723
  677MOL0     H89329   3.261   7.135   3.551 -0.5022  0.0060 -0.9649
  677MOL0     H89330   3.186   7.285   3.403 -0.7966  2.1171 -0.4451
  677MOL0     H89331   3.265   7.173   3.298  0.1882 -0.2033 -0.3179
  677MOL0     H89332   3.182   7.469   3.255 -5.0777 -0.7212  1.5330
  677MOL0     H89333   3.097   7.321   3.193 -0.2125  0.1593  0.0829
  677MOL0     H89334   3.258   7.269   3.042  3.7778 -0.2659  1.0280
  677MOL0     H89335   3.368   7.391   3.106 -0.3612 -1.1961  0.8907
  677MOL0     H89336   3.131   7.443   2.935 -0.3467 -0.8661 -0.2524
  677MOL0     H89337   3.212   7.576   3.030 -2.9931 -0.3330  0.0060
  677MOL0     H89338   3.320   7.374   2.828 -2.5368 -0.8758  3.1070
  677MOL0     H89339   3.430   7.496   2.906  0.9742  0.0955 -3.7139
  677MOL0     H89340   3.302   7.671   2.820  1.5490  1.0573 -1.5078
  677MOL0     H89341   3.213   7.558   2.712 -1.4570  0.5193  3.7786
  677MOL0     H89342   3.437   7.684   2.621 -0.2788 -0.5983 -1.9768
  677MOL0     H89343   3.515   7.583   2.730  1.8389  3.4365 -2.0249
  677MOL0     H89344   3.332   7.506   2.494  0.8921  0.7975  0.0902
  677MOL0     H89345   3.411   7.381   2.601  0.7213 -0.2513 -0.5675
  677MOL0     H89346   3.637   7.314   3.437 -2.3813 -1.1895 -1.6024
  677MOL0     H89347   3.753   7.182   3.615  0.5487 -0.4954 -0.1215
  677MOL0     H89348   3.696   7.061   4.156 -2.2199 -1.5994 -0.2527
  677MOL0     H89349   3.813   6.894   4.293  4.2553 -2.5482  0.5050
  677MOL0     H89350   4.069   7.950   3.704 -0.7085  0.0923 -0.2880
  677MOL0     H89351   3.848   8.086   3.662 -0.9685 -2.3093  0.3408
  677MOL0     H89352   3.539   8.264   3.665 -0.9409 -2.3716  1.6069
  677MOL0     H89353   3.368   8.403   3.577  1.2730  0.6834 -0.3396
  677MOL0     H89354   3.128   8.455   3.620 -2.1976  0.1541 -5.2436
  677MOL0     H89355   3.214   8.570   3.516 -1.0591  1.2530 -0.5027
  677MOL0     H89356   3.077   8.736   3.563 -0.9444 -0.5703 -1.7759
  677MOL0     H89357   3.000   8.608   3.475  4.0410 -1.0033 -1.5975
  677MOL0     H89358   2.903   8.722   3.723 -0.7515 -1.6032  3.9041
  677MOL0     H89359   2.973   8.582   3.785 -0.2765  1.8320  0.8231
  677MOL0     H89360   2.833   8.433   3.629  0.5663 -0.4610  1.1737
  677MOL0     H89361   2.733   8.532   3.743  0.8132  0.4649  0.4248
  677MOL0     H89362   2.631   8.671   3.353 -0.2386  0.3259 -0.0422
  677MOL0     H89363   3.299   8.589   3.952 -2.7656 -1.1561 -1.2687
  677MOL0     H89364   3.489   8.477   4.054  0.2376  0.5395 -0.1782
  678MOL0     O89365   7.829   6.712   1.976 -0.0140  0.7562 -0.0396
  678MOL0     C89366   7.714   6.761   1.978  0.1030  0.4144  0.1395
  678MOL0     O89367   7.626   6.770   2.084  0.0627  0.4646  0.1116
  678MOL0     C89368   7.658   6.727   2.214 -0.7510 -0.7286  0.0844
  678MOL0     C89369   7.724   6.611   2.242  0.5593  0.4032 -0.1874
  678MOL0     C89370   7.775   6.582   2.366  0.2989 -0.9199 -0.4791
  678MOL0     C89371   7.756   6.672   2.470 -0.3036 -0.2307 -0.6037
  678MOL0     O89372   7.800   6.652   2.594  0.8809  0.3860 -0.6296
  678MOL0     C89373   7.711   6.572   2.679 -0.1761  0.1315 -0.0629
  678MOL0     C89374   7.778   6.543   2.811 -0.4498  0.6210  0.0711
  678MOL0     C89375   7.899   6.456   2.788 -1.0733 -0.8753 -0.6167
  678MOL0     C89376   7.998   6.458   2.905  0.0117 -0.9173 -0.5441
  678MOL0     C89377   8.104   6.569   2.917  0.7626  0.6599  0.5816
  678MOL0     C89378   8.210   6.549   3.022 -0.3835 -0.0857  0.1922
  678MOL0     C89379   8.303   6.668   3.034 -0.3292  0.0506  0.2924
  678MOL0     C89380   8.388   6.680   3.160 -0.0272 -0.0578  0.5008
  678MOL0     N89381   8.477   6.795   3.152  0.5908  0.1932 -0.6909
  678MOL0     C89382   8.594   6.798   3.083  0.3180 -0.2014 -0.6774
  678MOL0     C89383   8.644   6.927   3.115  0.7264 -0.2106  0.7092
  678MOL0     C89384   8.758   6.986   3.047  0.0123 -0.1259 -0.5558
  678MOL0     C89385   8.882   6.980   3.129  1.4708 -1.0725 -0.1199
  678MOL0     C89386   8.879   7.025   3.278  0.0825 -0.5229 -0.7262
  678MOL0     C89387   9.006   6.982   3.367  0.6176 -0.3987  0.5320
  678MOL0     O89388   9.081   7.100   3.404 -0.4065  0.0249  0.6548
  678MOL0     C89389   9.198   7.074   3.462 -0.6623  0.6827 -0.5118
  678MOL0     C89390   9.259   7.188   3.511  0.5245  0.1720 -0.0880
  678MOL0     C89391   9.384   7.184   3.568 -0.3866  0.3733 -0.0710
  678MOL0     C89392   9.441   7.054   3.586 -0.4909  0.8367 -0.6518
  678MOL0     C89393   9.579   7.057   3.656  0.4036 -1.1662 -0.7629
  678MOL0     O89394   9.598   7.149   3.751 -0.0971  0.9383 -0.1035
  678MOL0     C89395   9.719   7.167   3.802 -0.8307  0.3296 -0.2500
  678MOL0     C89396   9.794   7.293   3.783  0.0583  0.7840 -0.7383
  678MOL0     C89397   9.917   7.300   3.856 -0.2177 -0.1509 -0.3591
  678MOL0     C89398   9.975   7.192   3.928  0.2496  0.3096 -0.0823
  678MOL0     O89399  10.101   7.219   3.983  0.7095  0.0145  1.0103
  678MOL0     C89400  10.112   7.183   4.115 -0.5695 -0.3353 -0.9521
  678MOL0     C89401  10.215   7.274   4.176 -0.2790  0.4766  0.5958
  678MOL0     C89402  10.223   7.265   4.330  0.2899 -1.1314  0.4708
  678MOL0     C89403  10.275   7.126   4.371 -0.1603  0.0652 -1.0656
  678MOL0     C89404  10.314   7.109   4.523  0.4379  0.3214 -0.2755
  678MOL0     C89405  10.348   6.967   4.562  0.1084 -0.4161  0.6697
  678MOL0     C89406  10.464   6.904   4.486 -1.0830  0.3449  0.6330
  678MOL0     C89407  10.513   6.763   4.533  0.2162 -1.0709  0.0563
  678MOL0    Cl89408  10.623   6.669   4.429 -0.1075  0.2996 -0.0166
  678MOL0     C89409   9.906   7.070   3.944 -0.3544  0.7361  0.3307
  678MOL0     C89410   9.781   7.062   3.877 -0.1925  0.3263 -0.8591
  678MOL0     O89411   9.667   6.970   3.623 -0.3004 -0.3323 -0.0111
  678MOL0     C89412   9.386   6.940   3.539  0.0406  0.0974  0.1419
  678MOL0     C89413   9.267   6.952   3.473  0.1671 -0.5908 -0.2852
  678MOL0     N89414   8.566   6.990   3.206  0.0989  0.1083  0.9331
  678MOL0     N89415   8.473   6.904   3.241 -0.4264  0.1123 -0.0251
  678MOL0     C89416   7.680   6.785   2.443  0.5847 -0.6734 -0.5031
  678MOL0     C89417   7.622   6.811   2.319 -0.1837 -0.6319  0.4246
  678MOL0     C89418   7.674   6.806   1.845  0.9597  1.0454 -1.3149
  678MOL0     C89419   7.541   6.850   1.822  0.8302 -0.1154 -0.2167
  678MOL0     C89420   7.502   6.881   1.700 -0.1643  0.0691  0.2650
  678MOL0     C89421   7.586   6.872   1.593  0.0516  0.2082  0.4651
  678MOL0     O89422   7.549   6.914   1.462  0.6607  0.0878  0.3859
  678MOL0     C89423   7.488   7.035   1.455  0.1355 -0.2373  0.6822
  678MOL0     C89424   7.585   7.157   1.467 -0.6877  0.1167  0.4391
  678MOL0     C89425   7.698   7.155   1.362  0.4125 -0.0877  0.1776
  678MOL0     C89426   7.820   7.247   1.390 -0.0911 -0.4437 -0.6056
  678MOL0     C89427   7.773   7.379   1.364  1.8933  0.2813 -0.0605
  678MOL0     C89428   7.745   7.499   1.359  1.1734  0.7154  0.0006
  678MOL0     C89429   7.723   6.828   1.613  0.4799  0.1348  0.1657
  678MOL0     C89430   7.764   6.807   1.747  0.1968  0.0800  0.4780
  678MOL0     H89431   7.759   6.559   2.154 -3.2676 -0.7097 -1.2534
  678MOL0     H89432   7.824   6.488   2.385 -1.7386 -1.6344  1.7388
  678MOL0     H89433   7.688   6.480   2.623 -4.7678  0.4086  0.9341
  678MOL0     H89434   7.613   6.619   2.690  0.2784  1.6491 -1.9374
  678MOL0     H89435   7.716   6.505   2.892  0.3193  0.0077  0.3914
  678MOL0     H89436   7.829   6.634   2.843  1.5901  0.1023 -1.4354
  678MOL0     H89437   7.965   6.498   2.711  0.1527 -0.8780  0.4079
  678MOL0     H89438   7.872   6.356   2.753  0.3978 -1.1252 -1.1286
  678MOL0     H89439   7.937   6.452   2.996  3.0529  2.2578  1.9378
  678MOL0     H89440   8.054   6.364   2.898 -0.8233 -1.2861 -3.5909
  678MOL0     H89441   8.060   6.665   2.943  2.8505  0.6710  4.8830
  678MOL0     H89442   8.154   6.595   2.823  1.4337  2.6863  1.4657
  678MOL0     H89443   8.260   6.456   2.991  1.4647  0.3740  1.5804
  678MOL0     H89444   8.161   6.546   3.120 -2.3869  0.5797 -0.7622
  678MOL0     H89445   8.377   6.655   2.954 -1.8531  0.8984 -1.3438
  678MOL0     H89446   8.250   6.763   3.021  0.9850  0.8668  0.6953
  678MOL0     H89447   8.443   6.589   3.185  1.0970 -0.6546 -3.4882
  678MOL0     H89448   8.319   6.692   3.244 -1.0952 -4.0439  0.3730
  678MOL0     H89449   8.644   6.733   3.012  0.7035 -1.9652  1.1338
  678MOL0     H89450   8.740   7.089   3.014  1.9859  0.9335  1.4261
  678MOL0     H89451   8.787   6.934   2.955  1.4492  2.0781 -1.4381
  678MOL0     H89452   8.960   7.043   3.087  0.0726  0.3018 -0.7762
  678MOL0     H89453   8.916   6.876   3.137  0.8580 -1.1566  2.2731
  678MOL0     H89454   8.866   7.134   3.288 -0.3378 -0.6744  0.6092
  678MOL0     H89455   8.799   6.975   3.333  2.8079 -2.7079  1.5451
  678MOL0     H89456   9.073   6.919   3.308  2.3391 -0.7641  2.7322
  678MOL0     H89457   8.970   6.931   3.457  1.5006 -3.3021 -0.6492
  678MOL0     H89458   9.210   7.284   3.498 -0.2933 -0.3526 -1.0576
  678MOL0     H89459   9.436   7.275   3.596  0.4770 -0.2314  0.3541
  678MOL0     H89460   9.748   7.368   3.718 -2.7113 -1.3583 -1.4300
  678MOL0     H89461   9.980   7.387   3.841 -2.7859  2.1654  1.3034
  678MOL0     H89462  10.156   7.084   4.123 -1.5434 -0.6595  0.7313
  678MOL0     H89463  10.018   7.200   4.167  2.0507 -0.7528  4.6435
  678MOL0     H89464  10.206   7.382   4.161 -2.8328  0.0347 -1.9516
  678MOL0     H89465  10.315   7.257   4.135 -1.5483  0.7577 -2.9782
  678MOL0     H89466  10.122   7.274   4.372 -0.6433 -2.8308 -1.2657
  678MOL0     H89467  10.294   7.342   4.360  3.3156 -2.9513 -1.5513
  678MOL0     H89468  10.196   7.055   4.345 -0.1374  0.7868 -3.3110
  678MOL0     H89469  10.366   7.108   4.313  0.2674 -1.0780 -0.0877
  678MOL0     H89470  10.228   7.134   4.586  0.0310  1.5159 -1.2846
  678MOL0     H89471  10.387   7.186   4.550 -2.0830  4.1752 -3.3147
  678MOL0     H89472  10.261   6.902   4.548  0.2311 -0.0853 -2.5313
  678MOL0     H89473  10.363   6.954   4.669  0.0806 -0.5429  0.6585
  678MOL0     H89474  10.428   6.888   4.384  1.4044  2.1487 -0.6559
  678MOL0     H89475  10.546   6.976   4.479  0.5218 -0.9230  4.2444
  678MOL0     H89476  10.419   6.707   4.539 -1.3238  1.4076  0.6366
  678MOL0     H89477  10.554   6.772   4.634 -0.4994  2.0395  0.1786
  678MOL0     H89478   9.950   6.988   4.001 -0.1575  2.2356  2.4176
  678MOL0     H89479   9.735   6.963   3.885  2.3811 -0.8476  0.9477
  678MOL0     H89480   9.432   6.844   3.560 -0.0222 -0.4472 -2.0521
  678MOL0     H89481   9.223   6.864   3.429 -3.4552  0.3615  1.1101
  678MOL0     H89482   7.656   6.853   2.524  0.2366 -0.5456 -0.7107
  678MOL0     H89483   7.569   6.904   2.300  2.1642  0.5510 -0.7734
  678MOL0     H89484   7.467   6.852   1.901 -0.6348 -2.1162 -1.4583
  678MOL0     H89485   7.407   6.920   1.666  0.9955  0.4828 -2.7993
  678MOL0     H89486   7.415   7.056   1.534 -2.1786  0.4204 -1.5045
  678MOL0     H89487   7.418   7.047   1.372 -1.0304 -0.8171  1.5481
  678MOL0     H89488   7.527   7.249   1.464  0.5146  0.9474  1.5471
  678MOL0     H89489   7.632   7.150   1.566 -1.6924  0.6887  0.9672
  678MOL0     H89490   7.652   7.164   1.263 -1.5331  5.7621  1.2288
  678MOL0     H89491   7.748   7.059   1.374  1.6172  0.6991  1.7837
  678MOL0     H89492   7.858   7.235   1.492 -1.7511 -0.1190  0.0775
  678MOL0     H89493   7.890   7.220   1.310 -1.4391 -0.2309 -1.9030
  678MOL0     H89494   7.709   7.593   1.322  0.4353 -1.5716 -6.3971
  678MOL0     H89495   7.795   6.844   1.533  2.4015  1.9006  2.1240
  678MOL0     H89496   7.867   6.772   1.757 -0.3456 -2.1350 -0.9061
  679MOL0     O89497   8.445   0.337   7.160  0.2976  0.1026  0.4197
  679MOL0     C89498   8.551   0.322   7.216 -0.4338  0.0214 -0.7028
  679MOL0     O89499   8.627   0.213   7.216 -0.2296 -0.3528 -0.1170
  679MOL0     C89500   8.577   0.100   7.166 -0.3360 -0.1841 -0.4050
  679MOL0     C89501   8.663   0.021   7.091  0.1363  0.1157 -0.7404
  679MOL0     C89502   8.618  -0.102   7.042  0.2636 -0.5997  0.4605
  679MOL0     C89503   8.475  -0.145   7.063 -0.3202 -0.2450 -0.1578
  679MOL0     O89504   8.416  -0.260   7.011  0.3721 -0.8245  0.0779
  679MOL0     C89505   8.481  -0.356   6.919  0.4970  0.5804 -0.4740
  679MOL0     C89506   8.429  -0.492   6.950 -0.3917  0.1531 -1.0884
  679MOL0     C89507   8.404  -0.524   7.090  0.0411 -0.1786 -1.0776
  679MOL0     C89508   8.390  -0.669   7.126  0.2287 -0.7240 -0.3615
  679MOL0     C89509   8.525  -0.727   7.124 -0.2278  0.0648 -0.0958
  679MOL0     C89510   8.503  -0.863   7.201  0.4564 -0.1639  0.7889
  679MOL0     C89511   8.633  -0.945   7.221  0.1937  0.0089  0.5744
  679MOL0     C89512   8.720  -0.887   7.333 -0.3176  0.0739 -0.2946
  679MOL0     N89513   8.817  -0.983   7.395  0.3798  0.3943  0.0232
  679MOL0     C89514   8.917  -1.059   7.330 -0.2139 -0.5010  0.0789
  679MOL0     C89515   9.013  -1.096   7.422 -0.2392 -0.6213 -0.2507
  679MOL0     C89516   9.152  -1.153   7.387 -0.4123  0.3526  0.0918
  679MOL0     C89517   9.173  -1.279   7.465 -0.5494  0.4588  0.4298
  679MOL0     C89518   9.231  -1.259   7.604  0.0708 -0.2699 -1.2939
  679MOL0     C89519   9.218  -1.391   7.692  0.7208  0.1923 -0.4737
  679MOL0     O89520   9.293  -1.508   7.639  1.0998  0.1409 -0.4984
  679MOL0     C89521   9.256  -1.627   7.698  0.0843 -0.6620  0.0867
  679MOL0     C89522   9.317  -1.745   7.642 -0.0591  0.1087 -0.3815
  679MOL0     C89523   9.299  -1.873   7.706 -0.1609  0.0548  0.1077
  679MOL0     C89524   9.203  -1.890   7.806 -0.7499  0.5215  0.6689
  679MOL0     C89525   9.172  -2.008   7.882  0.0970 -0.2191  0.4317
  679MOL0     O89526   9.050  -2.013   7.943  0.5177  0.0340 -0.1588
  679MOL0     C89527   9.008  -2.118   8.014 -0.0313 -0.6730 -0.9649
  679MOL0     C89528   8.889  -2.190   7.994  0.1068 -0.6454  0.0561
  679MOL0     C89529   8.852  -2.295   8.075 -0.2158 -0.0696  0.6331
  679MOL0     C89530   8.928  -2.316   8.190  0.0417  0.9658  0.0578
  679MOL0     O89531   8.915  -2.413   8.288  0.1792  0.4208 -1.0636
  679MOL0     C89532   8.812  -2.510   8.277 -0.6494 -0.7004  0.2694
  679MOL0     C89533   8.804  -2.571   8.418  0.2860  0.6996 -0.5224
  679MOL0     C89534   8.935  -2.625   8.468 -0.9995 -1.0667  0.7690
  679MOL0     C89535   8.928  -2.656   8.623 -1.2815  0.2801  0.6607
  679MOL0     C89536   9.072  -2.684   8.672 -0.2655  0.1378 -0.0341
  679MOL0     C89537   9.074  -2.676   8.824 -0.3963 -0.0107  0.8764
  679MOL0     C89538   8.987  -2.776   8.888 -0.3815 -0.2275 -0.1290
  679MOL0     C89539   8.973  -2.777   9.040  0.5354 -0.2348 -0.2344
  679MOL0    Cl89540   8.851  -2.889   9.101 -0.4780  0.2571 -0.6714
  679MOL0     C89541   9.049  -2.242   8.216 -0.3617 -0.1935 -0.1530
  679MOL0     C89542   9.087  -2.147   8.127 -0.6086  0.3303 -0.0536
  679MOL0     O89543   9.250  -2.103   7.862 -0.3097 -0.1693  0.1072
  679MOL0     C89544   9.139  -1.771   7.848  0.6413 -0.7792 -0.4625
  679MOL0     C89545   9.168  -1.643   7.802 -0.0104 -0.5705 -0.4262
  679MOL0     N89546   8.967  -1.047   7.546 -0.3162 -0.4464 -0.2254
  679MOL0     N89547   8.854  -0.986   7.525 -0.5176  0.5633  0.8702
  679MOL0     C89548   8.395  -0.066   7.140 -0.4118 -1.3394 -1.0449
  679MOL0     C89549   8.446   0.059   7.185 -0.0505  0.5070  0.0798
  679MOL0     C89550   8.601   0.438   7.290 -0.0822  0.4792  0.1420
  679MOL0     C89551   8.718   0.433   7.370  0.2836  0.0496 -0.2078
  679MOL0     C89552   8.772   0.535   7.451 -1.4537 -0.0472 -0.9605
  679MOL0     C89553   8.706   0.653   7.449  0.2893  0.0265 -0.8966
  679MOL0     O89554   8.752   0.752   7.533  0.2056 -0.2330 -0.8768
  679MOL0     C89555   8.721   0.889   7.518 -0.5291  0.1791  0.3986
  679MOL0     C89556   8.855   0.977   7.506  0.1567 -0.7104 -0.7349
  679MOL0     C89557   8.821   1.107   7.440  0.8641 -0.2263  0.3649
  679MOL0     C89558   8.933   1.207   7.425 -0.5063 -0.1245 -0.2780
  679MOL0     C89559   8.879   1.343   7.425  0.8561  0.7432  0.1093
  679MOL0     C89560   8.825   1.447   7.420  0.4648 -0.7871  0.7407
  679MOL0     C89561   8.578   0.659   7.384 -0.7756  0.6188 -0.2833
  679MOL0     C89562   8.540   0.563   7.300  0.1837  0.3922  0.4759
  679MOL0     H89563   8.767   0.048   7.075  0.2480 -1.6053 -3.6731
  679MOL0     H89564   8.677  -0.169   6.980  0.8691  1.6861 -1.5666
  679MOL0     H89565   8.589  -0.355   6.938  0.7084 -1.0882 -1.4356
  679MOL0     H89566   8.455  -0.319   6.819 -1.6613  1.0028  0.1933
  679MOL0     H89567   8.510  -0.557   6.915 -2.3431 -3.2257  0.1912
  679MOL0     H89568   8.349  -0.518   6.880 -1.2130  2.8209 -1.2607
  679MOL0     H89569   8.320  -0.471   7.136  1.4566  0.7906  0.4742
  679MOL0     H89570   8.486  -0.475   7.144 -2.2629  1.8138  0.8464
  679MOL0     H89571   8.340  -0.684   7.222 -1.9978  1.3673 -1.0853
  679MOL0     H89572   8.327  -0.716   7.049  2.8584 -2.2480 -1.7146
  679MOL0     H89573   8.595  -0.666   7.182 -1.1397  2.4063 -1.3298
  679MOL0     H89574   8.568  -0.736   7.023 -1.2756 -1.5570 -0.4468
  679MOL0     H89575   8.430  -0.921   7.144 -1.5281  2.8591 -0.0025
  679MOL0     H89576   8.468  -0.838   7.302 -2.1545  1.3197 -0.4002
  679MOL0     H89577   8.603  -1.047   7.248 -1.0073  0.5421  1.3254
  679MOL0     H89578   8.691  -0.941   7.129 -0.9571  1.7712 -0.1384
  679MOL0     H89579   8.660  -0.837   7.410  2.2522  1.1599  1.1255
  679MOL0     H89580   8.779  -0.800   7.303 -1.8044  1.2297  0.0237
  679MOL0     H89581   8.930  -1.077   7.223 -3.1864 -2.8343 -0.0200
  679MOL0     H89582   9.224  -1.074   7.413  1.9553 -1.8429  0.6357
  679MOL0     H89583   9.155  -1.164   7.278  2.1357  4.7374 -0.5309
  679MOL0     H89584   9.253  -1.335   7.416 -1.5153  0.6258 -1.4092
  679MOL0     H89585   9.076  -1.328   7.475 -0.0473 -0.9673 -1.3247
  679MOL0     H89586   9.337  -1.234   7.609 -0.1410  0.5004  1.5092
  679MOL0     H89587   9.181  -1.175   7.654  1.3952 -0.1531 -0.0823
  679MOL0     H89588   9.109  -1.404   7.695  0.8825 -1.2971  0.1544
  679MOL0     H89589   9.258  -1.372   7.792  3.2114  1.7896 -1.7084
  679MOL0     H89590   9.396  -1.737   7.568  2.4009 -1.2032  1.9548
  679MOL0     H89591   9.343  -1.965   7.668 -1.7611 -1.9250  2.6619
  679MOL0     H89592   8.831  -2.147   7.914  1.5785 -0.5646 -1.0198
  679MOL0     H89593   8.758  -2.340   8.042  0.8770 -2.4544  0.5106
  679MOL0     H89594   8.839  -2.584   8.201  0.8261  1.8081 -1.8433
  679MOL0     H89595   8.718  -2.460   8.255 -0.3001 -0.1993 -0.1332
  679MOL0     H89596   8.737  -2.657   8.414 -0.6945  1.3859  0.6552
  679MOL0     H89597   8.763  -2.506   8.496  3.5561  0.2401  1.8192
  679MOL0     H89598   9.016  -2.552   8.463  0.0739 -1.8783  3.9339
  679MOL0     H89599   8.966  -2.714   8.411 -0.8416 -1.0354  0.8046
  679MOL0     H89600   8.885  -2.573   8.681 -0.9843  1.3559 -0.6205
  679MOL0     H89601   8.863  -2.743   8.636  1.1323 -1.3778  2.5033
  679MOL0     H89602   9.139  -2.601   8.647  0.2289 -0.3090 -0.2274
  679MOL0     H89603   9.117  -2.766   8.614 -0.3629  0.8908 -1.1908
  679MOL0     H89604   9.063  -2.570   8.851 -0.8708  0.2486 -0.2693
  679MOL0     H89605   9.176  -2.709   8.847  0.4247  0.7187 -1.4522
  679MOL0     H89606   8.887  -2.751   8.851 -0.6137  0.2140  0.7824
  679MOL0     H89607   9.015  -2.878   8.862 -3.9253 -1.1121 -1.0599
  679MOL0     H89608   8.941  -2.674   9.060  0.7588  0.3688 -2.6675
  679MOL0     H89609   9.063  -2.808   9.094 -1.5253 -4.5048  1.1667
  679MOL0     H89610   9.120  -2.253   8.298  2.1630  3.1978 -1.6587
  679MOL0     H89611   9.188  -2.109   8.113 -1.4579  2.2532 -1.4461
  679MOL0     H89612   9.069  -1.776   7.931  2.0778 -0.9781  0.7777
  679MOL0     H89613   9.098  -1.568   7.840  0.3808 -0.0360 -0.7371
  679MOL0     H89614   8.289  -0.072   7.117 -1.1066  0.5343  1.2921
  679MOL0     H89615   8.372   0.121   7.235 -1.2783  0.1107 -1.1714
  679MOL0     H89616   8.771   0.340   7.382 -1.7968 -1.5008 -2.1911
  679MOL0     H89617   8.857   0.513   7.514 -1.9611 -0.8138 -0.5176
  679MOL0     H89618   8.647   0.935   7.584 -0.5742 -0.2442  0.6416
  679MOL0     H89619   8.675   0.902   7.419 -2.7998  1.1814  1.5071
  679MOL0     H89620   8.895   0.995   7.606 -1.3669 -0.8341 -0.0671
  679MOL0     H89621   8.930   0.934   7.439  0.4507 -1.1592 -0.1265
  679MOL0     H89622   8.732   1.156   7.482 -0.3803 -1.7905 -0.3574
  679MOL0     H89623   8.785   1.084   7.339 -2.6879  0.0836  1.4318
  679MOL0     H89624   9.013   1.202   7.499 -1.3010  2.3344  0.8197
  679MOL0     H89625   8.990   1.183   7.335  1.5800  2.0519  0.3558
  679MOL0     H89626   8.782   1.545   7.422 -2.1795 -1.8622  2.8227
  679MOL0     H89627   8.521   0.751   7.387 -0.5591  0.7233  1.0410
  679MOL0     H89628   8.441   0.580   7.260 -0.2624  0.8628  1.7319
  680MOL0     O89629   9.329   9.629   2.592 -0.3267  0.0946  0.6602
  680MOL0     C89630   9.377   9.704   2.510  0.3145  0.4376 -0.1271
  680MOL0     O89631   9.510   9.743   2.504 -0.4958  0.1242 -0.7167
  680MOL0     C89632   9.599   9.672   2.577 -0.8321 -0.0512  0.4145
  680MOL0     C89633   9.682   9.740   2.672  1.0028  0.4991  0.0078
  680MOL0     C89634   9.777   9.673   2.748  0.5491  0.7927  0.0173
  680MOL0     C89635   9.778   9.534   2.738  0.0518  0.5571 -0.2729
  680MOL0     O89636   9.868   9.476   2.833  0.6134  0.1279 -0.2724
  680MOL0     C89637   9.875   9.332   2.859 -0.1504 -0.5845 -0.6468
  680MOL0     C89638  10.001   9.277   2.928 -0.1578  1.2539 -0.0007
  680MOL0     C89639   9.993   9.250   3.080  0.5493 -0.0732 -0.1981
  680MOL0     C89640  10.107   9.163   3.121 -0.0593  0.1689  0.0653
  680MOL0     C89641  10.109   9.149   3.272 -0.9703  0.3267 -1.2331
  680MOL0     C89642  10.191   9.026   3.305 -0.5726 -0.6285 -1.6485
  680MOL0     C89643  10.211   8.996   3.453 -0.2931 -0.3729 -0.1038
  680MOL0     C89644  10.289   8.865   3.484  0.7887 -0.5498  0.4749
  680MOL0     N89645  10.322   8.869   3.625  0.5228  0.4890  0.3748
  680MOL0     C89646  10.263   8.798   3.725 -0.1044 -0.0605 -0.4847
  680MOL0     C89647  10.342   8.828   3.827  0.1858 -0.5853  0.0314
  680MOL0     C89648  10.332   8.761   3.961  0.9852 -0.0362  0.8650
  680MOL0     C89649  10.400   8.623   3.960 -0.2490 -0.5556  0.3200
  680MOL0     C89650  10.398   8.542   4.099 -0.3729 -0.6479  0.5096
  680MOL0     C89651  10.270   8.549   4.153 -0.2679 -0.1736 -0.2989
  680MOL0     O89652  10.181   8.480   4.067 -0.6986 -0.4028  0.6632
  680MOL0     C89653  10.053   8.507   4.102  0.6959 -0.3857 -0.7875
  680MOL0     C89654   9.985   8.629   4.086  1.0192  0.4118  0.0246
  680MOL0     C89655   9.843   8.647   4.101 -0.4278  0.1833  0.0206
  680MOL0     C89656   9.767   8.532   4.123 -0.0823 -0.0354  0.1300
  680MOL0     C89657   9.623   8.536   4.143  0.7237 -0.3919  0.6999
  680MOL0     O89658   9.571   8.658   4.160  0.7052 -0.8092 -0.4112
  680MOL0     C89659   9.434   8.660   4.197 -0.0140  0.4650 -0.3190
  680MOL0     C89660   9.388   8.718   4.315 -0.8646  0.3055 -0.2472
  680MOL0     C89661   9.250   8.726   4.347 -0.3777  0.1245 -0.9588
  680MOL0     C89662   9.155   8.688   4.252  0.8770  0.8036  0.0258
  680MOL0     O89663   9.020   8.723   4.282  0.7193 -0.6470 -0.6072
  680MOL0     C89664   8.929   8.703   4.171 -0.5420 -0.2261  0.0088
  680MOL0     C89665   8.782   8.722   4.237 -1.0715  0.0471  0.2015
  680MOL0     C89666   8.692   8.722   4.116  0.2337  0.2727  0.9123
  680MOL0     C89667   8.557   8.776   4.163 -0.0618  0.5522 -1.0911
  680MOL0     C89668   8.455   8.778   4.047  0.3850 -0.3107  0.0166
  680MOL0     C89669   8.330   8.856   4.107 -1.8145  0.3603  0.2554
  680MOL0     C89670   8.222   8.860   3.998 -0.1081  0.2409 -0.6954
  680MOL0     C89671   8.124   8.744   4.042  0.8966  0.0087  0.0760
  680MOL0    Cl89672   7.954   8.750   3.965 -0.1749  0.1447 -0.5585
  680MOL0     C89673   9.198   8.635   4.132 -0.7819 -0.2901  0.7614
  680MOL0     C89674   9.332   8.617   4.109  0.2366 -0.6020  0.1706
  680MOL0     O89675   9.558   8.431   4.149  0.5169 -0.2573  0.2002
  680MOL0     C89676   9.832   8.409   4.152  1.0652  0.3400 -0.2817
  680MOL0     C89677   9.975   8.397   4.135  0.6595  0.6713 -0.8042
  680MOL0     N89678  10.430   8.929   3.798 -0.6069 -0.3020 -0.8417
  680MOL0     N89679  10.421   8.952   3.671 -0.5868 -0.9474 -1.1913
  680MOL0     C89680   9.705   9.461   2.650  0.1252 -0.5790 -0.2336
  680MOL0     C89681   9.614   9.529   2.571  0.3024 -0.5475 -0.1187
  680MOL0     C89682   9.288   9.779   2.414  0.8237 -0.6222 -0.3205
  680MOL0     C89683   9.147   9.769   2.427 -0.6837 -0.5470  0.2266
  680MOL0     C89684   9.057   9.830   2.355 -0.5747 -0.0100  0.5291
  680MOL0     C89685   9.103   9.941   2.280 -0.8943 -0.2484 -0.2207
  680MOL0     O89686   9.016  10.023   2.219  0.3898 -0.0307 -0.2637
  680MOL0     C89687   9.038  10.165   2.188 -0.0268  0.2610  0.3244
  680MOL0     C89688   9.049  10.249   2.316 -1.0320  0.7361 -0.4603
  680MOL0     C89689   9.116  10.384   2.279 -0.1441 -0.2460  0.3479
  680MOL0     C89690   9.050  10.495   2.359  0.0520  0.5298 -0.4988
  680MOL0     C89691   9.119  10.514   2.484  0.2578  0.4212  0.1069
  680MOL0     C89692   9.185  10.505   2.585  0.2671  0.2131 -0.4908
  680MOL0     C89693   9.238   9.961   2.270  0.7191 -0.4022 -0.4827
  680MOL0     C89694   9.330   9.874   2.333 -0.9674 -0.5229 -0.2247
  680MOL0     H89695   9.658   9.845   2.681 -1.2199 -0.1369  3.4019
  680MOL0     H89696   9.836   9.728   2.821  1.0186  0.2490  0.0526
  680MOL0     H89697   9.862   9.268   2.772 -0.8721  0.3694 -1.2540
  680MOL0     H89698   9.802   9.306   2.937  1.4764 -1.2213  0.7215
  680MOL0     H89699  10.081   9.349   2.910  1.6236 -0.0375  2.1349
  680MOL0     H89700  10.028   9.184   2.876  0.1356  1.0828  0.4524
  680MOL0     H89701   9.897   9.205   3.108  0.8655 -0.8770 -0.3963
  680MOL0     H89702  10.008   9.348   3.126  4.3442  0.3908 -2.0424
  680MOL0     H89703  10.091   9.066   3.075  0.2650  1.3515 -2.7569
  680MOL0     H89704  10.208   9.199   3.098  0.7768 -3.2760 -2.2824
  680MOL0     H89705  10.006   9.149   3.309 -0.5112  4.2127  0.5936
  680MOL0     H89706  10.158   9.237   3.316 -2.1572  0.4136 -0.0379
  680MOL0     H89707  10.291   9.037   3.261 -1.2292 -0.9255 -3.2881
  680MOL0     H89708  10.153   8.937   3.255  2.1251 -1.3903 -2.5428
  680MOL0     H89709  10.263   9.083   3.493 -0.0624 -1.6857  2.6842
  680MOL0     H89710  10.113   8.996   3.501 -0.1817  2.7805  0.3312
  680MOL0     H89711  10.384   8.865   3.429 -0.5781  3.0338 -2.2401
  680MOL0     H89712  10.228   8.777   3.461  0.0581  0.3180 -1.0159
  680MOL0     H89713  10.179   8.730   3.717 -0.2997  0.2163 -0.8054
  680MOL0     H89714  10.225   8.745   3.975  1.0869 -1.7736 -0.0679
  680MOL0     H89715  10.371   8.826   4.039  2.0723  0.8572 -0.3745
  680MOL0     H89716  10.503   8.649   3.934 -0.0728 -0.7108  0.8396
  680MOL0     H89717  10.342   8.572   3.882  0.5570  3.0819 -2.9167
  680MOL0     H89718  10.431   8.439   4.087 -0.7999 -0.7200 -0.0950
  680MOL0     H89719  10.473   8.595   4.158  1.5340 -1.3582 -1.1634
  680MOL0     H89720  10.232   8.645   4.189  0.3055  0.8985 -2.4302
  680MOL0     H89721  10.271   8.500   4.251 -1.0166  1.1548  0.4014
  680MOL0     H89722  10.040   8.722   4.095  1.1032  0.1372  3.7358
  680MOL0     H89723   9.793   8.742   4.090  0.3807  0.9747  2.6201
  680MOL0     H89724   9.464   8.759   4.381 -1.7675  0.3513  0.8014
  680MOL0     H89725   9.221   8.772   4.442 -1.3935 -0.0213 -1.1865
  680MOL0     H89726   8.932   8.603   4.127 -0.0423 -0.5338  0.7250
  680MOL0     H89727   8.953   8.775   4.092  1.3477 -1.5522 -0.7069
  680MOL0     H89728   8.780   8.813   4.298  1.7285  1.4805 -1.6306
  680MOL0     H89729   8.774   8.627   4.291 -2.2312 -0.2551 -0.4699
  680MOL0     H89730   8.673   8.623   4.075  2.5028 -0.6766  2.0223
  680MOL0     H89731   8.735   8.794   4.045 -0.0307  0.6470  1.1298
  680MOL0     H89732   8.513   8.728   4.251  3.0881 -0.9150 -0.1595
  680MOL0     H89733   8.586   8.871   4.208  2.3276 -0.1980 -0.8745
  680MOL0     H89734   8.437   8.673   4.024  0.6984 -0.4781  0.5368
  680MOL0     H89735   8.499   8.828   3.960  0.0260  1.0696  0.6025
  680MOL0     H89736   8.360   8.960   4.123 -1.8355  0.1280  1.9432
  680MOL0     H89737   8.303   8.816   4.205 -1.3600 -1.6489 -0.3839
  680MOL0     H89738   8.159   8.948   4.016 -1.1300 -0.9387  2.1117
  680MOL0     H89739   8.272   8.871   3.901  0.5998  3.2227 -0.1051
  680MOL0     H89740   8.107   8.757   4.149 -2.3173 -0.8402 -0.2517
  680MOL0     H89741   8.174   8.651   4.014  1.4198  1.0526 -2.9050
  680MOL0     H89742   9.138   8.622   4.043 -1.6914 -1.5432  1.5097
  680MOL0     H89743   9.360   8.571   4.014 -1.2526  1.8459 -1.5650
  680MOL0     H89744   9.785   8.317   4.187  0.0713 -0.2256 -2.9145
  680MOL0     H89745  10.019   8.298   4.142 -1.6567 -0.4545 -1.2508
  680MOL0     H89746   9.709   9.352   2.641 -1.4031 -0.6708 -0.0465
  680MOL0     H89747   9.550   9.473   2.503  0.0627 -3.0550  1.9786
  680MOL0     H89748   9.118   9.702   2.508  2.5624  0.5077  2.4606
  680MOL0     H89749   8.953   9.799   2.359 -0.8483  0.4377 -1.7276
  680MOL0     H89750   8.944  10.192   2.138 -2.5973 -4.7709  1.6934
  680MOL0     H89751   9.121  10.181   2.119 -0.7185 -0.4725 -0.7102
  680MOL0     H89752   8.961  10.261   2.381  0.1440  1.0471  1.1279
  680MOL0     H89753   9.114  10.198   2.387  1.7763  3.6666 -0.6650
  680MOL0     H89754   9.091  10.409   2.176 -0.2361  0.3178  0.5074
  680MOL0     H89755   9.224  10.374   2.295 -0.4063 -0.7768  1.9417
  680MOL0     H89756   9.032  10.585   2.300  2.1100  1.3239  0.0060
  680MOL0     H89757   8.948  10.461   2.382  0.7569 -2.5636 -1.3613
  680MOL0     H89758   9.237  10.488   2.678  3.1427 -0.4136 -2.1043
  680MOL0     H89759   9.283  10.030   2.199 -1.6285  2.2985  0.4711
  680MOL0     H89760   9.434   9.898   2.312 -1.5265  0.3049 -2.3318
  681MOL0     O89761   2.030   9.750   3.154 -0.1629  0.0322  0.2596
  681MOL0     C89762   1.918   9.697   3.139  0.0292  0.8403  0.3616
  681MOL0     O89763   1.885   9.568   3.173 -0.2428 -0.3259  0.3152
  681MOL0     C89764   1.982   9.505   3.240  0.0509  0.7610  0.7414
  681MOL0     C89765   2.095   9.465   3.162  0.7217 -0.2818 -0.7015
  681MOL0     C89766   2.191   9.390   3.233  0.1949 -0.4496 -0.6438
  681MOL0     C89767   2.159   9.336   3.361 -0.1862  0.6257  0.1068
  681MOL0     O89768   2.241   9.252   3.435 -0.4243 -0.0749  0.0046
  681MOL0     C89769   2.322   9.160   3.352 -0.0440  0.6646 -0.4091
  681MOL0     C89770   2.396   9.055   3.434  0.4837 -0.1283  0.5323
  681MOL0     C89771   2.298   8.949   3.482 -0.4241  0.0938 -0.9185
  681MOL0     C89772   2.349   8.872   3.600 -0.1096  0.3523  0.2014
  681MOL0     C89773   2.269   8.760   3.650 -0.1708 -0.6019 -0.6152
  681MOL0     C89774   2.162   8.811   3.751 -0.1176  0.1586 -0.2204
  681MOL0     C89775   2.127   8.690   3.843  0.7265  1.0647  0.8796
  681MOL0     C89776   2.015   8.735   3.945 -0.8789 -0.2834  0.4017
  681MOL0     N89777   2.068   8.717   4.080  0.3006  0.5480 -0.1563
  681MOL0     C89778   2.023   8.620   4.177  0.8315  0.1061  0.1988
  681MOL0     C89779   2.096   8.646   4.292 -0.0601  0.0208 -0.6091
  681MOL0     C89780   2.095   8.565   4.422 -0.4533  0.0306 -0.3548
  681MOL0     C89781   1.967   8.478   4.442 -0.8217  0.3350 -1.1961
  681MOL0     C89782   1.975   8.400   4.579  0.2157  0.0518  0.4709
  681MOL0     C89783   1.844   8.333   4.629  0.0867  0.4584  0.5438
  681MOL0     O89784   1.791   8.226   4.544  0.5743 -0.5239 -0.2458
  681MOL0     C89785   1.674   8.157   4.592  0.2688 -0.1130 -0.1631
  681MOL0     C89786   1.553   8.172   4.527 -0.2444  1.3793  0.6255
  681MOL0     C89787   1.443   8.101   4.577  0.1550  0.5113  0.3204
  681MOL0     C89788   1.452   8.016   4.691  0.4433  1.0394 -0.2827
  681MOL0     C89789   1.328   7.971   4.756 -0.2106  0.4167 -0.4837
  681MOL0     O89790   1.208   8.005   4.703  0.4923 -0.5056  0.0303
  681MOL0     C89791   1.094   7.970   4.769  0.0835  0.5729 -0.8682
  681MOL0     C89792   1.057   7.831   4.764  1.0049  0.2738 -0.0899
  681MOL0     C89793   0.928   7.793   4.822  0.7094  0.1526 -0.5157
  681MOL0     C89794   0.835   7.883   4.870  0.2744  0.0162 -0.2388
  681MOL0     O89795   0.705   7.851   4.905 -0.0530 -0.5406  0.3569
  681MOL0     C89796   0.686   7.717   4.937  0.0993  0.5047  1.0369
  681MOL0     C89797   0.534   7.700   4.975 -0.4892 -0.7598  0.3457
  681MOL0     C89798   0.480   7.830   5.050  0.0113 -0.7335 -0.3470
  681MOL0     C89799   0.341   7.793   5.115  0.1423 -0.1619 -0.8686
  681MOL0     C89800   0.283   7.915   5.193  0.1325  1.0375  0.1404
  681MOL0     C89801   0.174   7.886   5.301 -1.0420  0.7563  0.4722
  681MOL0     C89802   0.039   7.850   5.248 -1.2727 -1.2892 -0.8789
  681MOL0     C89803  -0.062   7.833   5.358  0.7136  0.3440 -0.6325
  681MOL0    Cl89804  -0.031   7.658   5.406  0.5237 -0.1850  0.1091
  681MOL0     C89805   0.873   8.021   4.874  0.0252 -0.8009  0.4788
  681MOL0     C89806   1.001   8.066   4.829 -0.4096  0.9939 -0.0821
  681MOL0     O89807   1.340   7.895   4.853  0.4973 -0.5122  0.2521
  681MOL0     C89808   1.578   7.996   4.749  1.1493  0.5162  0.6375
  681MOL0     C89809   1.686   8.068   4.698  0.4848 -0.6973 -0.5795
  681MOL0     N89810   2.180   8.753   4.274 -0.0720 -0.6297 -0.1792
  681MOL0     N89811   2.165   8.793   4.144  0.9763 -0.2028  0.3559
  681MOL0     C89812   2.055   9.393   3.431 -0.1436  0.1015  0.7211
  681MOL0     C89813   1.958   9.470   3.366 -0.0466  0.4817  0.1663
  681MOL0     C89814   1.817   9.777   3.065 -0.2979 -0.4188 -0.7651
  681MOL0     C89815   1.857   9.877   2.974 -0.0508  0.0002 -0.3452
  681MOL0     C89816   1.767   9.960   2.908 -0.7925 -1.0718  0.0257
  681MOL0     C89817   1.634   9.942   2.938 -0.0173 -0.1621  0.7253
  681MOL0     O89818   1.554  10.013   2.856  0.1277  0.4523 -0.5148
  681MOL0     C89819   1.409  10.026   2.869  0.5582 -0.2038  0.4225
  681MOL0     C89820   1.381  10.166   2.935  0.3855 -0.5774  0.5292
  681MOL0     C89821   1.234  10.203   2.947 -0.3576  0.0065 -0.2762
  681MOL0     C89822   1.213  10.343   3.016  0.4772  0.2596  0.6417
  681MOL0     C89823   1.075  10.396   3.013 -0.1346 -0.3534  0.3639
  681MOL0     C89824   0.959  10.426   3.021  0.1676 -0.6293 -0.0617
  681MOL0     C89825   1.594   9.850   3.032  0.1491 -0.9636  0.3359
  681MOL0     C89826   1.681   9.769   3.097 -0.8263  0.1816 -0.1623
  681MOL0     H89827   2.100   9.483   3.055 -0.7639 -0.8694 -0.8857
  681MOL0     H89828   2.265   9.354   3.163 -0.7501  2.1422 -3.1873
  681MOL0     H89829   2.394   9.212   3.288 -1.0891  0.5349 -1.7368
  681MOL0     H89830   2.245   9.110   3.293 -0.1853 -1.8553  1.7090
  681MOL0     H89831   2.453   9.099   3.517  0.0583  0.7111  0.3898
  681MOL0     H89832   2.466   9.001   3.370 -0.5369 -2.0694  0.9633
  681MOL0     H89833   2.256   8.894   3.397 -0.7062  2.0611 -2.0949
  681MOL0     H89834   2.211   8.996   3.528  1.2440 -1.1160  4.1354
  681MOL0     H89835   2.443   8.831   3.561 -1.6011 -0.6692 -2.6081
  681MOL0     H89836   2.368   8.935   3.687 -1.7115  3.2868 -1.4353
  681MOL0     H89837   2.343   8.686   3.682 -0.0053 -0.3844 -0.4878
  681MOL0     H89838   2.217   8.720   3.562  1.9261 -0.0951 -2.2048
  681MOL0     H89839   2.077   8.851   3.696 -0.1752 -2.1820 -1.9812
  681MOL0     H89840   2.199   8.886   3.822 -0.1905  3.1317 -3.0652
  681MOL0     H89841   2.080   8.615   3.779  1.3629  1.2399  0.2046
  681MOL0     H89842   2.217   8.645   3.886 -1.1160 -2.1727  1.7457
  681MOL0     H89843   1.921   8.682   3.928  0.0336 -0.9863 -3.4087
  681MOL0     H89844   2.002   8.843   3.937 -2.6990 -0.5722 -1.2204
  681MOL0     H89845   1.963   8.530   4.163  0.3668  0.3848  0.3900
  681MOL0     H89846   2.105   8.630   4.510  0.2536 -0.1079 -0.3251
  681MOL0     H89847   2.184   8.502   4.428 -1.6754 -2.1205 -2.8867
  681MOL0     H89848   1.966   8.405   4.360  4.8090  0.0284 -1.3350
  681MOL0     H89849   1.869   8.527   4.443 -0.8160  0.4056  0.9681
  681MOL0     H89850   2.045   8.317   4.564  2.3474  2.0256 -1.1324
  681MOL0     H89851   1.999   8.466   4.662  0.4094  0.1667  0.3249
  681MOL0     H89852   1.770   8.413   4.634  0.7340  0.9765  2.4964
  681MOL0     H89853   1.873   8.286   4.723  1.7907 -4.6003 -2.1492
  681MOL0     H89854   1.558   8.242   4.445 -1.2696  2.0829  1.1491
  681MOL0     H89855   1.347   8.114   4.527  1.0033 -2.5540 -2.4295
  681MOL0     H89856   1.124   7.754   4.727 -0.8557 -1.9067  0.7893
  681MOL0     H89857   0.912   7.685   4.824  1.5409  0.0272 -0.0719
  681MOL0     H89858   0.756   7.693   5.017  0.2717 -0.6226  0.5644
  681MOL0     H89859   0.695   7.663   4.843 -0.8848 -0.7256  1.6278
  681MOL0     H89860   0.527   7.610   5.037  1.0208 -0.4601  1.0080
  681MOL0     H89861   0.479   7.680   4.883  0.8331 -1.8238 -0.2448
  681MOL0     H89862   0.466   7.913   4.980  0.6883 -1.9386 -1.9651
  681MOL0     H89863   0.543   7.867   5.131 -0.9357 -2.7382  1.4049
  681MOL0     H89864   0.263   7.755   5.047  0.4829 -2.3214 -0.1230
  681MOL0     H89865   0.365   7.714   5.186 -1.4158 -1.2286 -1.4741
  681MOL0     H89866   0.250   7.995   5.127  2.2381  0.8478 -1.2537
  681MOL0     H89867   0.369   7.953   5.249  0.0686 -0.7987  1.5928
  681MOL0     H89868   0.149   7.982   5.347 -2.6834  0.7219 -0.2685
  681MOL0     H89869   0.206   7.810   5.373  4.2740  1.3890 -0.8352
  681MOL0     H89870   0.015   7.934   5.181  1.9412  2.5445  2.2129
  681MOL0     H89871   0.043   7.758   5.190 -2.2591 -2.2397  0.4909
  681MOL0     H89872  -0.161   7.843   5.313  1.1708  1.5169 -1.4419
  681MOL0     H89873  -0.055   7.902   5.442  2.0042 -0.6806  0.1577
  681MOL0     H89874   0.801   8.092   4.913 -1.6925 -1.2009 -1.7468
  681MOL0     H89875   1.037   8.169   4.823  0.7416  0.9350  3.3365
  681MOL0     H89876   1.606   7.929   4.830  2.9454 -1.3981 -1.4183
  681MOL0     H89877   1.781   8.057   4.749  0.7681  0.5465 -0.8149
  681MOL0     H89878   2.044   9.342   3.526  0.9712  0.7801  1.2252
  681MOL0     H89879   1.869   9.507   3.415 -1.0098  0.1701 -1.2577
  681MOL0     H89880   1.961   9.895   2.950 -0.6951  1.8960 -2.0563
  681MOL0     H89881   1.796  10.028   2.829 -1.0323  0.6706  1.3688
  681MOL0     H89882   1.344   9.953   2.919 -3.0164  2.5645  0.2752
  681MOL0     H89883   1.379  10.025   2.764 -0.9196 -1.5931  0.8207
  681MOL0     H89884   1.420  10.163   3.037  0.8752 -0.6293  0.3452
  681MOL0     H89885   1.437  10.247   2.886  2.5579 -0.6317  2.7369
  681MOL0     H89886   1.186  10.131   3.013 -0.1666  0.4307  0.3309
  681MOL0     H89887   1.185  10.191   2.849 -0.9546  1.3344 -0.1657
  681MOL0     H89888   1.244  10.327   3.120 -1.4370 -0.6979  1.1125
  681MOL0     H89889   1.277  10.405   2.953 -3.6968  0.3327 -4.1767
  681MOL0     H89890   0.858  10.458   3.041  0.4686  0.2711  0.0278
  681MOL0     H89891   1.488   9.840   3.054 -0.0095 -1.8529 -0.7344
  681MOL0     H89892   1.640   9.691   3.161 -3.1147 -0.3424 -2.1201
  682MOL0     O89893   6.995   7.407   1.752  0.4309 -0.6823 -0.6948
  682MOL0     C89894   7.083   7.368   1.685 -0.6960 -0.0029 -0.1009
  682MOL0     O89895   7.085   7.254   1.619 -0.9253  0.5607 -0.2283
  682MOL0     C89896   6.972   7.174   1.623 -0.4717 -1.0445 -0.7449
  682MOL0     C89897   6.903   7.144   1.509  0.2647  1.2894  1.0627
  682MOL0     C89898   6.788   7.057   1.503  0.4956 -0.6667  0.7871
  682MOL0     C89899   6.751   7.003   1.624 -0.1821 -0.5031 -0.4294
  682MOL0     O89900   6.647   6.911   1.627 -0.0611 -0.8553  0.2489
  682MOL0     C89901   6.561   6.922   1.746 -0.5562  0.1822 -1.3018
  682MOL0     C89902   6.445   6.827   1.717  0.5032 -0.1552  1.4379
  682MOL0     C89903   6.332   6.854   1.816  0.0323  0.0504  0.3585
  682MOL0     C89904   6.194   6.816   1.772 -0.6771  0.2954 -0.3998
  682MOL0     C89905   6.080   6.835   1.873  0.4179 -0.0433  0.1117
  682MOL0     C89906   6.088   6.785   2.008 -0.3203 -0.1048 -0.4470
  682MOL0     C89907   5.965   6.772   2.092  0.0559  0.1020 -0.6559
  682MOL0     C89908   5.906   6.917   2.121  0.0013 -0.2293 -1.3692
  682MOL0     N89909   5.811   6.917   2.227 -1.0721 -0.1184 -0.3365
  682MOL0     C89910   5.833   6.941   2.365  1.0847  0.3389 -0.0089
  682MOL0     C89911   5.711   6.914   2.415 -0.7031  0.3557 -0.9241
  682MOL0     C89912   5.664   6.914   2.564 -0.2463  0.0189 -0.9431
  682MOL0     C89913   5.610   7.059   2.590 -0.8453  0.5137 -0.5758
  682MOL0     C89914   5.464   7.081   2.554 -0.1235 -1.2117 -0.5632
  682MOL0     C89915   5.409   7.205   2.613  0.1922  0.6686  0.7636
  682MOL0     O89916   5.434   7.232   2.754 -0.1984 -0.3199 -0.1538
  682MOL0     C89917   5.363   7.184   2.864 -0.2545 -1.1976  0.0479
  682MOL0     C89918   5.374   7.243   2.992  0.2838 -0.0407  0.8951
  682MOL0     C89919   5.326   7.177   3.099  0.3725 -0.2700 -0.6688
  682MOL0     C89920   5.239   7.064   3.093  0.3190 -0.0223  0.1127
  682MOL0     C89921   5.162   7.016   3.212  0.3117 -0.2587  0.0029
  682MOL0     O89922   5.193   7.071   3.333  0.3448  0.6181  0.3788
  682MOL0     C89923   5.149   7.017   3.452 -0.8112  0.2179 -0.3912
  682MOL0     C89924   5.143   7.107   3.557  0.2410 -0.0653  0.0981
  682MOL0     C89925   5.135   7.074   3.690  0.3119 -0.1148 -0.4429
  682MOL0     C89926   5.136   6.941   3.720 -0.1339  0.5374 -0.7154
  682MOL0     O89927   5.128   6.897   3.852  0.2632 -0.4128 -0.1493
  682MOL0     C89928   5.094   6.988   3.957  0.2661  0.5478 -0.0992
  682MOL0     C89929   5.082   6.905   4.079  0.3706  0.2451 -0.1679
  682MOL0     C89930   5.028   6.973   4.203 -0.5755 -0.5563 -0.8706
  682MOL0     C89931   5.084   7.115   4.227  0.2357 -0.5334  0.1133
  682MOL0     C89932   5.025   7.177   4.354  0.0109 -1.2446  0.7059
  682MOL0     C89933   5.123   7.268   4.425  0.1591 -0.3629 -0.0743
  682MOL0     C89934   5.053   7.374   4.502  0.1967  0.9985  0.2525
  682MOL0     C89935   5.161   7.461   4.562  0.2839  0.0840  1.1256
  682MOL0    Cl89936   5.073   7.588   4.659  0.4706 -0.3559 -0.3262
  682MOL0     C89937   5.133   6.845   3.616  0.7292 -0.1520  0.5146
  682MOL0     C89938   5.138   6.883   3.477 -0.7461  0.8693  0.2423
  682MOL0     O89939   5.077   6.931   3.204  0.3835  1.0193 -0.5218
  682MOL0     C89940   5.224   7.009   2.971 -0.0955  0.2200 -0.1945
  682MOL0     C89941   5.283   7.062   2.860  0.4160 -0.2262  0.5748
  682MOL0     N89942   5.632   6.871   2.314  0.7167 -0.4546  0.0349
  682MOL0     N89943   5.690   6.874   2.204 -0.5036  0.4064  0.0133
  682MOL0     C89944   6.829   7.030   1.740  0.5492  0.1721  0.7769
  682MOL0     C89945   6.942   7.114   1.742  0.2047 -0.4665 -0.5751
  682MOL0     C89946   7.202   7.448   1.667 -0.4376  0.2820 -0.1819
  682MOL0     C89947   7.317   7.414   1.587  0.8532 -0.2389 -0.4793
  682MOL0     C89948   7.416   7.517   1.573 -0.1630 -0.0896 -0.0295
  682MOL0     C89949   7.412   7.641   1.636  0.1578 -1.3321  0.5493
  682MOL0     O89950   7.508   7.737   1.607 -0.5618  0.0567 -0.4203
  682MOL0     C89951   7.472   7.837   1.504 -0.1547 -0.6999 -0.6443
  682MOL0     C89952   7.519   7.972   1.574 -0.6489 -0.5436 -0.6449
  682MOL0     C89953   7.607   8.073   1.480 -0.8481 -0.0177 -0.2921
  682MOL0     C89954   7.683   8.167   1.570 -0.9132 -0.2994  0.8003
  682MOL0     C89955   7.792   8.236   1.497  1.1215 -0.1082  0.6169
  682MOL0     C89956   7.874   8.284   1.419 -0.3110  0.3131 -0.4000
  682MOL0     C89957   7.300   7.664   1.726 -0.5805  0.1494 -0.0222
  682MOL0     C89958   7.205   7.567   1.733  0.6531  0.1625  0.4792
  682MOL0     H89959   6.923   7.179   1.408 -4.5981  0.4288 -0.4493
  682MOL0     H89960   6.747   7.039   1.404  0.8042  3.7333 -0.3701
  682MOL0     H89961   6.526   7.025   1.756 -1.1946 -0.2495  2.6671
  682MOL0     H89962   6.596   6.895   1.847 -3.2088  1.6260  0.1023
  682MOL0     H89963   6.483   6.725   1.726 -3.4442 -1.7523  1.8423
  682MOL0     H89964   6.408   6.845   1.616  0.1738 -1.2206  1.3601
  682MOL0     H89965   6.340   6.962   1.832 -2.3187  0.8205 -2.7031
  682MOL0     H89966   6.353   6.783   1.897  3.0652  0.3621 -0.0632
  682MOL0     H89967   6.171   6.879   1.685 -3.5171  1.7257  1.2262
  682MOL0     H89968   6.197   6.708   1.753  0.4119  0.2686 -0.0939
  682MOL0     H89969   5.992   6.795   1.822 -0.7391  0.6830  1.4516
  682MOL0     H89970   6.052   6.941   1.876 -0.4862 -0.2416 -0.7799
  682MOL0     H89971   6.148   6.859   2.061  0.7006 -1.1995 -0.0105
  682MOL0     H89972   6.141   6.689   2.002  0.8075  0.3657  1.2298
  682MOL0     H89973   5.889   6.709   2.046  0.5242 -0.5933 -0.4969
  682MOL0     H89974   6.005   6.725   2.182  0.2526 -1.5287 -1.5721
  682MOL0     H89975   5.857   6.960   2.033 -2.3706 -1.0370 -0.5170
  682MOL0     H89976   5.982   6.993   2.143 -2.7360  1.6236  2.9660
  682MOL0     H89977   5.932   6.970   2.401  0.3830  2.7091  0.1922
  682MOL0     H89978   5.739   6.879   2.636  0.0728 -1.7951 -2.0683
  682MOL0     H89979   5.587   6.836   2.569 -3.2216  2.7492 -1.2840
  682MOL0     H89980   5.665   7.130   2.527 -1.9627  1.9091 -0.0340
  682MOL0     H89981   5.629   7.071   2.697  1.2487  0.5253 -0.8926
  682MOL0     H89982   5.451   7.084   2.445 -3.3274 -0.3615 -0.2618
  682MOL0     H89983   5.403   7.004   2.601 -0.4565  1.1926  3.4039
  682MOL0     H89984   5.302   7.216   2.593  0.4253  0.2042 -0.8509
  682MOL0     H89985   5.460   7.287   2.562  0.1200  0.0221 -0.3938
  682MOL0     H89986   5.443   7.326   3.007  0.1183 -0.1283  2.3622
  682MOL0     H89987   5.355   7.216   3.196  1.8493 -2.8955  0.0457
  682MOL0     H89988   5.159   7.211   3.529  3.3199 -0.6067 -0.5168
  682MOL0     H89989   5.156   7.147   3.767  0.4948 -0.2193 -0.3954
  682MOL0     H89990   5.005   7.050   3.943  0.2883  0.4386 -0.7727
  682MOL0     H89991   5.180   7.053   3.976  0.2232  0.3445  0.8459
  682MOL0     H89992   5.177   6.859   4.107  0.9303 -0.5066 -2.9242
  682MOL0     H89993   5.011   6.823   4.065  0.6190 -0.4138  2.1047
  682MOL0     H89994   5.028   6.909   4.291 -0.6060 -0.0685 -0.5133
  682MOL0     H89995   4.924   6.993   4.176 -0.0280  0.8076 -2.1451
  682MOL0     H89996   5.193   7.103   4.227  0.2345 -1.8098 -3.5064
  682MOL0     H89997   5.065   7.181   4.143  1.0564 -1.3732 -0.7702
  682MOL0     H89998   4.972   7.107   4.420 -1.3617  0.0497  1.0377
  682MOL0     H89999   4.942   7.230   4.307  0.8016 -3.1157 -3.1277
  682MOL0     H90000   5.200   7.307   4.358 -0.0903 -1.7956 -1.2572
  682MOL0     H90001   5.186   7.210   4.492  2.0624 -1.4442 -2.6488
  682MOL0     H90002   5.003   7.446   4.437  1.1835  0.2287 -1.4337
  682MOL0     H90003   4.990   7.330   4.580  0.9642  0.4813  0.6028
  682MOL0     H90004   5.218   7.511   4.483  2.3459 -0.8538  1.9467
  682MOL0     H90005   5.238   7.409   4.620 -1.1041 -2.7683  0.5842
  682MOL0     H90006   5.133   6.743   3.651  3.2701  0.5925  3.0360
  682MOL0     H90007   5.159   6.805   3.406 -0.2447  0.0329  1.2858
  682MOL0     H90008   5.162   6.920   2.963  0.8140 -0.6491  1.5600
  682MOL0     H90009   5.262   7.012   2.767  1.6309  0.1145  0.1023
  682MOL0     H90010   6.789   6.993   1.834 -1.1194  0.6157  0.2735
  682MOL0     H90011   7.003   7.135   1.830 -0.4740 -1.6185  0.1820
  682MOL0     H90012   7.333   7.319   1.538 -0.1287 -0.0521 -1.2077
  682MOL0     H90013   7.494   7.504   1.499 -0.3242  0.7042 -0.3561
  682MOL0     H90014   7.365   7.851   1.484 -0.1486 -0.9848 -0.8883
  682MOL0     H90015   7.521   7.818   1.408  1.3986 -0.7912  0.1449
  682MOL0     H90016   7.433   8.032   1.604  0.8661  1.6203 -0.4122
  682MOL0     H90017   7.572   7.946   1.666  0.0293 -0.3789 -0.9801
  682MOL0     H90018   7.543   8.132   1.414 -1.5659  1.8485  1.9567
  682MOL0     H90019   7.682   8.016   1.423 -0.3863  0.4326 -0.1465
  682MOL0     H90020   7.614   8.244   1.607 -1.4514  0.6251 -1.9162
  682MOL0     H90021   7.737   8.119   1.652  2.5970  0.0972 -1.0950
  682MOL0     H90022   7.944   8.340   1.362 -1.6184  1.6258 -0.7917
  682MOL0     H90023   7.294   7.752   1.789  1.2723 -0.5591  1.2389
  682MOL0     H90024   7.122   7.596   1.797  0.3101 -0.8763  0.5271
  683MOL0     O90025   5.976   6.863   9.537 -0.2674 -0.0590  0.4406
  683MOL0     C90026   6.020   6.944   9.621  0.0305 -0.8890 -0.8724
  683MOL0     O90027   6.142   6.934   9.686  0.2945 -0.0168 -0.7470
  683MOL0     C90028   6.229   6.824   9.678  0.1599  0.0298 -0.7669
  683MOL0     C90029   6.183   6.682   9.674  0.5220 -1.0633  0.2283
  683MOL0     C90030   6.278   6.573   9.673 -0.6734 -0.5970 -0.1057
  683MOL0     C90031   6.416   6.597   9.703  0.2427 -0.3309  0.6829
  683MOL0     O90032   6.507   6.493   9.730 -0.2705  0.1638 -0.0008
  683MOL0     C90033   6.489   6.355   9.698  0.3129 -0.2370  0.4625
  683MOL0     C90034   6.621   6.289   9.736  0.0527  0.1552 -0.1871
  683MOL0     C90035   6.641   6.274   9.889  0.4382 -0.0378  0.2165
  683MOL0     C90036   6.778   6.210   9.927  0.8814 -0.0944 -0.2284
  683MOL0     C90037   6.802   6.054   9.891  0.7072 -1.1068  0.2801
  683MOL0     C90038   6.687   5.965   9.949 -0.9554  0.5256  0.2075
  683MOL0     C90039   6.727   5.812   9.960 -0.6563 -0.0999  0.4740
  683MOL0     C90040   6.803   5.793  10.096 -0.1883 -0.0334 -0.8221
  683MOL0     N90041   6.956   5.783  10.086  0.6241 -0.5229  0.0968
  683MOL0     C90042   7.033   5.671  10.069 -0.2647 -0.4664  0.3963
  683MOL0     C90043   7.163   5.705  10.056  0.6060 -0.1138  0.4340
  683MOL0     C90044   7.275   5.617  10.024  0.1010  1.4342 -0.0311
  683MOL0     C90045   7.333   5.622   9.872 -0.6555 -0.8239  0.0387
  683MOL0     C90046   7.223   5.601   9.776  0.4436  0.0453 -0.2820
  683MOL0     C90047   7.128   5.726   9.730  0.2648 -0.5989 -0.6573
  683MOL0     O90048   7.203   5.807   9.645 -0.3344 -0.4920 -0.1759
  683MOL0     C90049   7.152   5.927   9.612 -0.7799  0.3855  0.5943
  683MOL0     C90050   7.132   5.949   9.472  0.2744  0.0957 -1.1095
  683MOL0     C90051   7.050   6.060   9.434 -0.1214  0.1748 -0.4231
  683MOL0     C90052   7.015   6.159   9.525 -0.1864 -0.5773  0.8030
  683MOL0     C90053   6.938   6.278   9.485  0.1220  1.0747  0.2679
  683MOL0     O90054   6.899   6.288   9.353 -0.0678 -0.3603 -0.5312
  683MOL0     C90055   6.820   6.396   9.316  1.1862 -1.0219 -0.9229
  683MOL0     C90056   6.716   6.363   9.227 -0.7082 -0.1282  0.0430
  683MOL0     C90057   6.628   6.465   9.185 -0.1053 -0.2284 -0.2813
  683MOL0     C90058   6.635   6.599   9.235  0.8397  0.7085 -0.3523
  683MOL0     O90059   6.532   6.686   9.197 -0.3478 -0.9498  0.1532
  683MOL0     C90060   6.546   6.826   9.239  0.4113 -0.3323 -0.4397
  683MOL0     C90061   6.425   6.914   9.199  0.3954  0.2197  0.3710
  683MOL0     C90062   6.432   7.057   9.273 -0.0733  0.7671 -0.5142
  683MOL0     C90063   6.295   7.131   9.288 -0.3050 -0.6393  0.7621
  683MOL0     C90064   6.322   7.261   9.384  0.2329 -0.1257  0.2523
  683MOL0     C90065   6.362   7.228   9.526 -0.1051  0.3504 -0.2431
  683MOL0     C90066   6.341   7.332   9.628  0.5493 -0.3771 -1.3545
  683MOL0     C90067   6.355   7.276   9.765 -0.8374 -0.3735 -0.9018
  683MOL0    Cl90068   6.341   7.400   9.890 -0.2030 -0.4844 -0.2175
  683MOL0     C90069   6.734   6.630   9.330  0.1626 -0.9900  0.3225
  683MOL0     C90070   6.831   6.530   9.366  0.6181 -0.3606 -0.3392
  683MOL0     O90071   6.907   6.354   9.571 -0.7667 -0.0827  0.5035
  683MOL0     C90072   7.053   6.139   9.656 -0.3398 -1.1675  0.5268
  683MOL0     C90073   7.112   6.025   9.693  0.5107 -0.1230  0.0280
  683MOL0     N90074   7.161   5.847  10.065 -0.0111  0.0213 -0.0507
  683MOL0     N90075   7.043   5.886  10.088 -0.2152 -0.8027 -0.5800
  683MOL0     C90076   6.463   6.735   9.699 -0.1429  0.0838 -0.4754
  683MOL0     C90077   6.373   6.841   9.692 -0.0603  0.6602 -0.3766
  683MOL0     C90078   5.936   7.063   9.633  0.5284  0.1062  0.3464
  683MOL0     C90079   5.840   7.093   9.529  0.0182 -0.1061  1.1496
  683MOL0     C90080   5.786   7.221   9.529  0.3012  0.1145 -0.1125
  683MOL0     C90081   5.817   7.324   9.626 -0.6847  0.4911  0.2317
  683MOL0     O90082   5.769   7.445   9.605  0.5863  0.1412 -0.1577
  683MOL0     C90083   5.698   7.481   9.479  0.5977 -0.3638 -0.6578
  683MOL0     C90084   5.547   7.454   9.495 -0.1315 -0.1911 -0.5381
  683MOL0     C90085   5.485   7.506   9.375 -0.2321  0.2679  0.1433
  683MOL0     C90086   5.333   7.472   9.388 -1.6094  0.2732 -0.2827
  683MOL0     C90087   5.254   7.536   9.502  0.0750  0.3764 -0.6236
  683MOL0     C90088   5.186   7.595   9.582 -1.2795 -0.1221 -0.2652
  683MOL0     C90089   5.916   7.293   9.722  0.2352 -0.0871  0.3878
  683MOL0     C90090   5.969   7.157   9.730 -0.7694 -0.1118  0.5429
  683MOL0     H90091   6.077   6.657   9.662  0.3208  0.7257 -3.0793
  683MOL0     H90092   6.237   6.476   9.643  3.1920 -1.6309 -2.8320
  683MOL0     H90093   6.462   6.335   9.594 -1.6107  1.3612  0.5905
  683MOL0     H90094   6.415   6.312   9.767  0.3723 -0.9048  0.1275
  683MOL0     H90095   6.701   6.356   9.704  2.2644 -1.1907  2.1697
  683MOL0     H90096   6.624   6.199   9.674  4.4722  2.0052 -3.1623
  683MOL0     H90097   6.561   6.219   9.939 -1.4672  2.3623 -0.0182
  683MOL0     H90098   6.638   6.373   9.936 -2.2691  1.0605 -2.0227
  683MOL0     H90099   6.860   6.272   9.889  0.8944  0.1887  0.2576
  683MOL0     H90100   6.797   6.218  10.034 -1.1774 -0.3809  0.1946
  683MOL0     H90101   6.898   6.016   9.928 -0.1889 -3.3473  0.4464
  683MOL0     H90102   6.813   6.040   9.783  1.4381  1.7798 -0.1038
  683MOL0     H90103   6.602   5.974   9.880 -1.0518  2.2245  0.4859
  683MOL0     H90104   6.645   6.009  10.040  1.1119  3.0686  0.0556
  683MOL0     H90105   6.641   5.744   9.959  1.0683 -2.3907 -0.4762
  683MOL0     H90106   6.796   5.773   9.884 -1.0908 -1.8057  0.8939
  683MOL0     H90107   6.755   5.711  10.152  0.1924  1.5384  2.0027
  683MOL0     H90108   6.789   5.877  10.164 -0.0018 -0.6562  0.0025
  683MOL0     H90109   6.995   5.572  10.049 -4.1010  0.2829  2.7164
  683MOL0     H90110   7.234   5.518  10.043  1.8702  1.2690  3.8827
  683MOL0     H90111   7.347   5.628  10.105  2.0993 -1.4814 -1.2479
  683MOL0     H90112   7.421   5.557   9.865  1.7860  2.0487  1.2468
  683MOL0     H90113   7.377   5.722   9.859  0.3964 -1.3388 -0.4716
  683MOL0     H90114   7.269   5.563   9.684  1.4748  2.0016 -0.6219
  683MOL0     H90115   7.154   5.531   9.823 -0.0244  0.7138  0.0475
  683MOL0     H90116   7.094   5.787   9.814  2.5437  2.1910 -1.6029
  683MOL0     H90117   7.039   5.688   9.680 -0.7022  1.8594 -0.9487
  683MOL0     H90118   7.165   5.877   9.397  5.8001  0.0111  0.9660
  683MOL0     H90119   7.028   6.077   9.329 -0.6930 -1.8740 -0.6774
  683MOL0     H90120   6.706   6.260   9.196  0.9313 -1.1080  2.4136
  683MOL0     H90121   6.548   6.437   9.117 -1.4002  3.4725 -0.5266
  683MOL0     H90122   6.634   6.878   9.200  0.9974  0.6648  1.9752
  683MOL0     H90123   6.551   6.838   9.348 -0.1218 -0.5855 -0.3868
  683MOL0     H90124   6.339   6.858   9.234  2.2341 -1.7160  2.1237
  683MOL0     H90125   6.412   6.921   9.091  2.4450  1.1389  0.1203
  683MOL0     H90126   6.514   7.122   9.240  0.3577  0.8475  0.6792
  683MOL0     H90127   6.452   7.043   9.379 -3.0169  3.4994  0.5538
  683MOL0     H90128   6.266   7.166   9.188  0.3822 -2.2260 -0.0407
  683MOL0     H90129   6.204   7.087   9.329 -0.4828 -1.4485 -0.4441
  683MOL0     H90130   6.234   7.326   9.383  1.6827  1.9905 -2.2646
  683MOL0     H90131   6.412   7.311   9.346  0.9408 -2.6917 -1.7907
  683MOL0     H90132   6.468   7.200   9.527 -0.4134 -0.9570 -0.9970
  683MOL0     H90133   6.294   7.148   9.558 -3.4573  3.8549  2.3108
  683MOL0     H90134   6.405   7.421   9.628 -2.2727  1.8446 -0.3224
  683MOL0     H90135   6.239   7.372   9.625 -0.1546 -1.3442  3.0122
  683MOL0     H90136   6.451   7.229   9.788 -0.5487  0.9938  0.9135
  683MOL0     H90137   6.272   7.208   9.787 -0.5239 -0.7489 -0.8600
  683MOL0     H90138   6.743   6.729   9.372 -1.2665  0.3598 -2.3159
  683MOL0     H90139   6.909   6.561   9.435 -1.5147  0.1322  2.0295
  683MOL0     H90140   7.024   6.204   9.737 -1.6365 -1.1752  0.0926
  683MOL0     H90141   7.109   6.016   9.802 -2.3739 -0.0652  0.0291
  683MOL0     H90142   6.569   6.751   9.717 -0.0527 -1.9438  1.2547
  683MOL0     H90143   6.423   6.938   9.693  2.5179 -0.2636 -5.4485
  683MOL0     H90144   5.790   7.024   9.460 -0.1869  1.7741 -0.6778
  683MOL0     H90145   5.707   7.219   9.455  0.8238 -2.9897 -0.7161
  683MOL0     H90146   5.731   7.441   9.383  1.4283 -0.3113 -0.3978
  683MOL0     H90147   5.720   7.588   9.471 -1.4887  0.5310  3.1274
  683MOL0     H90148   5.528   7.346   9.497 -1.0027 -0.1690 -3.2750
  683MOL0     H90149   5.530   7.507   9.589  2.6623 -1.1721  0.6214
  683MOL0     H90150   5.530   7.470   9.282 -3.0698  0.4188 -1.4234
  683MOL0     H90151   5.501   7.614   9.377  0.1566  0.3080  4.2739
  683MOL0     H90152   5.293   7.493   9.289  1.5115  0.0830 -1.6910
  683MOL0     H90153   5.328   7.364   9.405 -1.1123  0.1532 -0.8682
  683MOL0     H90154   5.128   7.638   9.662 -0.8183  2.1798 -1.0872
  683MOL0     H90155   5.943   7.352   9.809 -0.4130  0.7849  0.0118
  683MOL0     H90156   6.033   7.121   9.811 -0.2018 -0.4818 -0.0617
  684MOL0     O90157   4.371   3.695   2.198 -0.5290  1.2746 -0.9321
  684MOL0     C90158   4.283   3.733   2.274 -0.4409 -0.2540  0.9791
  684MOL0     O90159   4.157   3.695   2.256  0.5298 -0.8496  0.2527
  684MOL0     C90160   4.084   3.691   2.135 -0.1447 -0.1666 -0.2727
  684MOL0     C90161   4.122   3.766   2.022  0.3370 -0.0569 -0.3306
  684MOL0     C90162   4.043   3.761   1.911  0.2170  0.6171 -0.2666
  684MOL0     C90163   3.924   3.691   1.906  1.3080  1.0775  0.3145
  684MOL0     O90164   3.838   3.711   1.796 -0.6123 -0.0446 -0.1261
  684MOL0     C90165   3.879   3.647   1.679 -0.0397 -0.2854  1.0496
  684MOL0     C90166   3.889   3.495   1.701 -0.6452 -0.1096  0.7766
  684MOL0     C90167   3.887   3.414   1.580 -0.3300  0.6992  1.7352
  684MOL0     C90168   3.749   3.425   1.501 -0.2494  0.6197 -0.1656
  684MOL0     C90169   3.755   3.308   1.396 -0.0770 -1.0209  0.2755
  684MOL0     C90170   3.853   3.336   1.274  0.7845 -0.0391 -0.2558
  684MOL0     C90171   3.843   3.246   1.147 -0.4919  0.5477 -0.3499
  684MOL0     C90172   3.970   3.258   1.056 -0.0623 -0.4397  0.6112
  684MOL0     N90173   3.970   3.399   1.001  0.5529 -0.5076 -0.2123
  684MOL0     C90174   4.083   3.480   1.012  0.7867 -0.8927  0.2765
  684MOL0     C90175   4.061   3.587   0.931  0.6322  0.0733 -0.3890
  684MOL0     C90176   4.144   3.714   0.918 -0.0259 -1.5895 -0.2881
  684MOL0     C90177   4.186   3.785   1.049  0.3219 -0.0562  1.2183
  684MOL0     C90178   4.088   3.817   1.162 -1.1314  0.3277 -0.3424
  684MOL0     C90179   4.148   3.900   1.277 -0.2176  0.0468 -0.3569
  684MOL0     O90180   4.036   3.950   1.347  0.4124  0.0763  0.7474
  684MOL0     C90181   4.066   4.002   1.472 -0.2800  0.2835 -0.5395
  684MOL0     C90182   4.190   3.989   1.541 -0.7976  0.5531  1.0528
  684MOL0     C90183   4.206   4.019   1.671  0.4465 -0.4383 -0.1432
  684MOL0     C90184   4.104   4.076   1.751  0.9362  1.1674 -0.2523
  684MOL0     C90185   4.117   4.117   1.893  0.0509 -0.0050 -0.3244
  684MOL0     O90186   4.245   4.114   1.946  0.8785 -0.4698  0.8631
  684MOL0     C90187   4.254   4.168   2.070 -0.0460 -0.6105  0.2807
  684MOL0     C90188   4.180   4.117   2.176 -0.7611  0.3962 -0.3628
  684MOL0     C90189   4.189   4.185   2.301  0.4302  0.3361 -1.2744
  684MOL0     C90190   4.275   4.306   2.320  0.5316  0.6510  0.9865
  684MOL0     O90191   4.277   4.396   2.420 -0.1018 -0.0455 -0.1296
  684MOL0     C90192   4.155   4.393   2.500 -1.0398  0.4978 -0.0656
  684MOL0     C90193   4.167   4.506   2.600 -0.1482 -0.6765  0.4046
  684MOL0     C90194   4.278   4.488   2.703  0.2211 -0.2915 -0.6510
  684MOL0     C90195   4.267   4.598   2.811 -0.0790 -0.8643  0.1949
  684MOL0     C90196   4.377   4.593   2.918  1.0030  1.0779  1.0785
  684MOL0     C90197   4.367   4.451   2.988  0.3673  0.2027  0.6672
  684MOL0     C90198   4.418   4.469   3.136  1.2947  0.3795  0.6194
  684MOL0     C90199   4.460   4.336   3.206  0.5483  0.3196  0.6091
  684MOL0    Cl90200   4.313   4.230   3.222 -0.0942 -0.3392  0.2444
  684MOL0     C90201   4.355   4.337   2.214  0.6065 -1.0046 -0.1259
  684MOL0     C90202   4.351   4.270   2.092  0.5562 -0.8472 -0.1406
  684MOL0     O90203   4.016   4.160   1.951  0.6149  0.3460 -0.6044
  684MOL0     C90204   3.977   4.094   1.683  0.2533  0.2158 -0.2057
  684MOL0     C90205   3.961   4.049   1.545 -0.9095  1.3952 -0.9641
  684MOL0     N90206   3.937   3.565   0.867 -0.9194  0.8347 -0.6117
  684MOL0     N90207   3.889   3.454   0.907 -0.2746 -0.1665  0.1084
  684MOL0     C90208   3.887   3.611   2.022  0.6597 -0.5009 -0.3952
  684MOL0     C90209   3.968   3.615   2.136  0.2843 -0.2291  0.5155
  684MOL0     C90210   4.330   3.811   2.387  0.3950 -0.7363  0.1723
  684MOL0     C90211   4.234   3.850   2.492 -0.1260 -0.1891  0.0901
  684MOL0     C90212   4.274   3.924   2.596 -1.0191 -0.3233 -0.6218
  684MOL0     C90213   4.412   3.970   2.605  0.3109  0.2129  0.2413
  684MOL0     O90214   4.465   4.055   2.697 -0.6206  0.6770  0.2922
  684MOL0     C90215   4.391   4.100   2.815  0.2511  0.1383 -0.0177
  684MOL0     C90216   4.404   3.986   2.923 -0.0590 -0.0643 -0.5648
  684MOL0     C90217   4.549   3.945   2.973 -0.0512 -0.4832  0.7368
  684MOL0     C90218   4.632   4.055   3.042 -0.6790 -0.3217  0.0128
  684MOL0     C90219   4.781   4.039   3.068  0.0831  0.1217  0.0373
  684MOL0     C90220   4.897   4.024   3.102  0.5104  0.3155  0.6370
  684MOL0     C90221   4.497   3.941   2.503 -0.7085  0.1888  0.1978
  684MOL0     C90222   4.460   3.864   2.398 -0.2604 -0.3220  0.5705
  684MOL0     H90223   4.213   3.824   2.032  1.0549 -1.3951  1.3728
  684MOL0     H90224   4.074   3.830   1.832  2.2655  1.6964  1.3837
  684MOL0     H90225   3.976   3.686   1.646 -0.7655 -0.1878 -1.0634
  684MOL0     H90226   3.798   3.659   1.608 -1.0699  1.4145  2.4402
  684MOL0     H90227   3.804   3.464   1.763 -1.2093  2.1752  1.2327
  684MOL0     H90228   3.985   3.461   1.742  0.9431  0.5050 -2.2150
  684MOL0     H90229   3.895   3.306   1.590  0.0165  0.0853 -2.9208
  684MOL0     H90230   3.966   3.444   1.511 -1.1786 -0.0897  0.3831
  684MOL0     H90231   3.660   3.435   1.563  0.7439  0.6839  1.3095
  684MOL0     H90232   3.749   3.516   1.440  1.4145  0.4460 -0.4814
  684MOL0     H90233   3.656   3.308   1.350  1.3961  0.2614 -3.3470
  684MOL0     H90234   3.771   3.209   1.439  1.3550 -0.7170  0.4929
  684MOL0     H90235   3.956   3.326   1.312 -0.1446 -3.7529  1.7802
  684MOL0     H90236   3.827   3.438   1.245  1.0959  0.4345  1.0480
  684MOL0     H90237   3.842   3.142   1.181  1.8579  0.6818  0.3112
  684MOL0     H90238   3.756   3.256   1.082  1.1143 -1.7262 -3.0775
  684MOL0     H90239   3.964   3.181   0.978 -2.6354 -1.4517  1.6971
  684MOL0     H90240   4.065   3.239   1.107  2.0179 -0.0815 -2.7963
  684MOL0     H90241   4.169   3.462   1.074 -1.5129 -1.6181  3.5101
  684MOL0     H90242   4.093   3.782   0.849  0.9282 -1.8417 -1.2816
  684MOL0     H90243   4.230   3.705   0.851  1.6419 -3.5858  1.9571
  684MOL0     H90244   4.234   3.880   1.024 -0.8130  0.2485  0.0989
  684MOL0     H90245   4.268   3.725   1.090 -1.1835 -2.4846  0.8739
  684MOL0     H90246   4.003   3.869   1.116 -0.6881  1.8759  0.5243
  684MOL0     H90247   4.050   3.724   1.206  2.7061 -1.3579 -0.1845
  684MOL0     H90248   4.220   3.972   1.239  2.4979 -2.4458 -0.2460
  684MOL0     H90249   4.210   3.830   1.332 -0.6557 -0.8229 -0.9473
  684MOL0     H90250   4.279   3.948   1.495 -2.3883 -0.0575 -1.6738
  684MOL0     H90251   4.303   4.010   1.717 -0.1009  0.6904  1.3401
  684MOL0     H90252   4.116   4.031   2.160  0.1402 -0.5187  0.7216
  684MOL0     H90253   4.124   4.144   2.378  1.7405  1.1010  0.3195
  684MOL0     H90254   4.143   4.294   2.543  2.5863 -0.4626 -0.9248
  684MOL0     H90255   4.072   4.414   2.431 -0.8237  1.1066 -0.1523
  684MOL0     H90256   4.072   4.505   2.653 -2.1819 -3.4181 -2.8795
  684MOL0     H90257   4.175   4.601   2.546  1.0640 -1.2196 -0.4223
  684MOL0     H90258   4.378   4.492   2.658 -0.7837  0.8834 -2.9675
  684MOL0     H90259   4.262   4.391   2.751  3.5831 -1.7490 -2.1814
  684MOL0     H90260   4.295   4.686   2.753  2.6102 -0.9992  1.1312
  684MOL0     H90261   4.163   4.611   2.842 -0.9914 -1.4022 -2.4537
  684MOL0     H90262   4.352   4.672   2.990 -2.7769 -0.6894  1.9405
  684MOL0     H90263   4.469   4.611   2.861  0.3629  0.3006 -0.2485
  684MOL0     H90264   4.404   4.370   2.924 -0.5327  1.2852 -1.2847
  684MOL0     H90265   4.265   4.413   2.997  0.8853 -1.1071  1.3096
  684MOL0     H90266   4.505   4.536   3.134  0.4171  1.5486 -1.0209
  684MOL0     H90267   4.333   4.511   3.191 -0.5631 -2.1363 -0.1541
  684MOL0     H90268   4.510   4.353   3.302  0.6255  1.3580  0.3959
  684MOL0     H90269   4.543   4.284   3.157  0.2659 -1.1476  1.6015
  684MOL0     H90270   4.424   4.420   2.212 -0.7831  0.1764 -1.8383
  684MOL0     H90271   4.417   4.291   2.009 -1.0077 -1.0293 -1.4779
  684MOL0     H90272   3.900   4.135   1.747  1.7845  2.4527  0.2962
  684MOL0     H90273   3.862   4.046   1.500 -1.0835 -1.5593 -0.5734
  684MOL0     H90274   3.791   3.561   2.022 -0.8056  1.9861  2.7474
  684MOL0     H90275   3.931   3.559   2.221  2.5177  0.1390  1.7796
  684MOL0     H90276   4.128   3.828   2.485 -0.0647 -0.4709  0.0653
  684MOL0     H90277   4.203   3.961   2.669 -1.5716 -0.1886 -1.2123
  684MOL0     H90278   4.288   4.099   2.779  0.5840 -0.4317 -1.0030
  684MOL0     H90279   4.426   4.197   2.852  0.3501  0.5875 -1.2619
  684MOL0     H90280   4.344   4.013   3.010 -2.4934 -2.2731 -1.4545
  684MOL0     H90281   4.366   3.891   2.887  1.5985 -0.4775 -1.3523
  684MOL0     H90282   4.612   3.918   2.887 -1.2684  1.3008 -0.7949
  684MOL0     H90283   4.549   3.859   3.041 -0.4725 -1.4839 -0.4792
  684MOL0     H90284   4.633   4.142   2.977  5.0644  0.0313 -0.0081
  684MOL0     H90285   4.586   4.077   3.139  0.0886  1.4173  0.0180
  684MOL0     H90286   5.000   4.021   3.132  0.9851  1.4520 -0.7263
  684MOL0     H90287   4.600   3.975   2.505 -0.4328 -0.4761 -1.2505
  684MOL0     H90288   4.535   3.860   2.320 -2.0502  0.6176 -1.2990
  685MOL0     O90289  11.001   3.719   4.901  0.1078  0.0326 -0.5815
  685MOL0     C90290  10.957   3.634   4.969  0.3851  0.4091 -0.8551
  685MOL0     O90291  11.007   3.580   5.091  0.4256 -0.2020  0.2316
  685MOL0     C90292  11.125   3.629   5.140  0.8406 -0.0779 -0.3555
  685MOL0     C90293  11.145   3.624   5.275 -0.2949  0.1370  0.7456
  685MOL0     C90294  11.257   3.686   5.327 -0.0904  0.0375 -0.2777
  685MOL0     C90295  11.364   3.727   5.251 -0.0427 -0.4401 -0.0245
  685MOL0     O90296  11.484   3.771   5.304  0.3046 -0.2589  0.1574
  685MOL0     C90297  11.559   3.685   5.388 -0.5008  0.2097 -0.3730
  685MOL0     C90298  11.580   3.743   5.526  0.3003  0.4477  0.0049
  685MOL0     C90299  11.646   3.883   5.533  0.6379  0.2071  0.8641
  685MOL0     C90300  11.792   3.879   5.572  0.6003  0.1988  0.1277
  685MOL0     C90301  11.873   4.010   5.551 -0.1449  0.6943  0.4520
  685MOL0     C90302  11.820   4.137   5.608  0.3176 -0.6218 -0.3980
  685MOL0     C90303  11.764   4.139   5.761 -0.0507  0.2747  0.9484
  685MOL0     C90304  11.868   4.157   5.874 -0.6096  0.7084 -0.3057
  685MOL0     N90305  11.953   4.276   5.859 -0.3053  0.5606  0.0859
  685MOL0     C90306  11.924   4.393   5.920 -0.1663 -0.6375 -0.1136
  685MOL0     C90307  12.024   4.474   5.887  0.4162 -0.0202  0.2288
  685MOL0     C90308  12.040   4.616   5.932  0.0287  0.2975  0.6517
  685MOL0     C90309  12.076   4.691   5.808 -0.4110  0.1147  0.4911
  685MOL0     C90310  12.039   4.847   5.814 -0.9243  0.2071  0.2548
  685MOL0     C90311  12.066   4.901   5.952  1.3020  1.2636 -0.5176
  685MOL0     O90312  12.077   5.037   5.957 -0.1846  0.3842 -0.4174
  685MOL0     C90313  12.002   5.089   6.052 -0.0114 -0.5009 -0.4304
  685MOL0     C90314  11.890   5.160   6.004  0.2936 -0.9014  0.3635
  685MOL0     C90315  11.821   5.257   6.085 -0.3530  0.2655 -1.0460
  685MOL0     C90316  11.866   5.280   6.211 -0.4002  0.5826 -0.6992
  685MOL0     C90317  11.831   5.393   6.306  0.5270  0.1808  0.2132
  685MOL0     O90318  11.843   5.372   6.447 -0.7192 -0.4651  0.7475
  685MOL0     C90319  11.788   5.473   6.522  0.0474  0.6264 -0.0815
  685MOL0     C90320  11.882   5.553   6.578  0.3233 -0.1248  0.0986
  685MOL0     C90321  11.851   5.670   6.650  0.1696  0.1570 -0.3976
  685MOL0     C90322  11.710   5.699   6.671 -1.4946  0.1625 -0.3245
  685MOL0     O90323  11.669   5.807   6.741 -0.2667  0.5050  0.6710
  685MOL0     C90324  11.538   5.863   6.715  0.3199 -0.3222 -0.5872
  685MOL0     C90325  11.495   5.975   6.806 -0.1854 -0.1618  0.1146
  685MOL0     C90326  11.567   6.111   6.794  0.0718 -0.1377  0.0519
  685MOL0     C90327  11.554   6.193   6.915 -0.0880 -0.5247 -0.0033
  685MOL0     C90328  11.597   6.343   6.881  0.1090 -0.7613 -0.1379
  685MOL0     C90329  11.486   6.419   6.806  0.0436  0.0319 -0.7238
  685MOL0     C90330  11.490   6.580   6.827 -0.7009  0.6321  0.5099
  685MOL0     C90331  11.363   6.646   6.781 -0.1737  0.1673  0.4908
  685MOL0    Cl90332  11.325   6.649   6.616 -0.4559  0.8232 -0.1271
  685MOL0     C90333  11.622   5.605   6.618 -0.8617 -0.0731  0.1148
  685MOL0     C90334  11.654   5.491   6.547 -0.4116 -0.0800  0.0412
  685MOL0     O90335  11.807   5.502   6.252 -0.1240 -0.6210 -0.3154
  685MOL0     C90336  11.975   5.198   6.265  0.8041  0.4029  0.2520
  685MOL0     C90337  12.034   5.102   6.189  0.2458 -0.4134 -0.2965
  685MOL0     N90338  12.120   4.403   5.817 -0.5205  0.8761 -0.0983
  685MOL0     N90339  12.074   4.283   5.800 -0.0416  0.2999 -0.3478
  685MOL0     C90340  11.353   3.726   5.120  0.8201  0.4579 -0.2413
  685MOL0     C90341  11.234   3.683   5.064  0.1988 -1.5886  0.5677
  685MOL0     C90342  10.832   3.577   4.926 -0.4864  0.0605 -0.6293
  685MOL0     C90343  10.807   3.566   4.783  0.3566  0.3614  0.3060
  685MOL0     C90344  10.695   3.497   4.739  0.2924 -0.3300 -0.0320
  685MOL0     C90345  10.599   3.441   4.829 -0.0794 -2.0214 -0.1538
  685MOL0     O90346  10.478   3.388   4.792  0.7367 -0.1719 -0.1367
  685MOL0     C90347  10.449   3.376   4.652 -0.5258  0.1194 -0.5192
  685MOL0     C90348  10.298   3.351   4.630 -0.8534  0.2682  0.2543
  685MOL0     C90349  10.248   3.225   4.696  0.1751  0.0833 -0.1982
  685MOL0     C90350  10.109   3.198   4.646 -0.3164 -0.7542 -0.6536
  685MOL0     C90351  10.055   3.065   4.684 -0.8657 -0.0502 -0.8423
  685MOL0     C90352   9.994   2.970   4.728 -0.2298 -0.1081  0.6235
  685MOL0     C90353  10.616   3.461   4.970 -0.1212  0.1683  0.5198
  685MOL0     C90354  10.732   3.517   5.010 -0.7768 -0.4534 -0.9736
  685MOL0     H90355  11.071   3.578   5.340  1.1362 -3.2957  0.1543
  685MOL0     H90356  11.280   3.678   5.433 -0.6221 -4.7003 -0.3117
  685MOL0     H90357  11.656   3.659   5.346 -0.3347  0.2869 -0.0349
  685MOL0     H90358  11.507   3.588   5.395  2.1085 -1.1696  1.4695
  685MOL0     H90359  11.641   3.678   5.589  1.2577  0.6942 -0.6286
  685MOL0     H90360  11.478   3.744   5.564 -0.4855 -2.7225 -1.6846
  685MOL0     H90361  11.594   3.926   5.619 -2.0619 -2.8049  0.9461
  685MOL0     H90362  11.617   3.948   5.450  1.9677  1.5434  1.4182
  685MOL0     H90363  11.792   3.861   5.680  0.8077 -1.7587 -0.1712
  685MOL0     H90364  11.843   3.798   5.520  2.4860  0.6694  1.1249
  685MOL0     H90365  11.897   4.023   5.445  0.5933 -0.6159  0.4340
  685MOL0     H90366  11.966   3.981   5.600 -0.0283 -1.9498 -1.0905
  685MOL0     H90367  11.736   4.164   5.543 -1.3675  0.9265  2.2475
  685MOL0     H90368  11.898   4.214   5.599 -1.3884  1.1431 -0.7414
  685MOL0     H90369  11.688   4.218   5.760  0.5670  0.8911 -0.6789
  685MOL0     H90370  11.707   4.049   5.784 -0.6840  0.3279 -0.3138
  685MOL0     H90371  11.941   4.076   5.864  1.6365  2.4758  0.8432
  685MOL0     H90372  11.816   4.146   5.970 -2.4301 -1.1389 -1.4382
  685MOL0     H90373  11.850   4.423   5.993 -1.1455 -0.5258 -1.1259
  685MOL0     H90374  12.114   4.632   6.012 -1.1044  2.1623  1.3806
  685MOL0     H90375  11.948   4.652   5.979  0.0542  1.3139 -0.0539
  685MOL0     H90376  12.039   4.650   5.713 -0.0400 -1.5907  1.0468
  685MOL0     H90377  12.185   4.684   5.802 -0.3658  1.2997 -0.2726
  685MOL0     H90378  12.114   4.898   5.754  1.8419 -1.1689  2.2647
  685MOL0     H90379  11.940   4.864   5.771 -2.2436 -3.5467  1.3952
  685MOL0     H90380  12.164   4.859   5.975  0.5071 -1.3780 -1.5373
  685MOL0     H90381  11.997   4.852   6.022 -0.1216 -0.3360 -2.9066
  685MOL0     H90382  11.858   5.162   5.900 -0.1400  0.9414  0.4933
  685MOL0     H90383  11.740   5.317   6.044  0.1067  1.2533 -0.5547
  685MOL0     H90384  11.986   5.523   6.567  0.1219 -0.9892  0.4967
  685MOL0     H90385  11.930   5.730   6.693  1.4104 -1.7007  0.0263
  685MOL0     H90386  11.456   5.794   6.738  1.5922 -2.0468 -0.9977
  685MOL0     H90387  11.537   5.905   6.614  1.5698  1.4039  0.0671
  685MOL0     H90388  11.520   5.936   6.905  1.2476  0.5198  0.0376
  685MOL0     H90389  11.386   5.984   6.803 -0.2041 -0.2274  0.4798
  685MOL0     H90390  11.514   6.163   6.713 -0.5773 -1.6868 -0.5687
  685MOL0     H90391  11.670   6.096   6.758 -0.6460 -0.8646 -1.8771
  685MOL0     H90392  11.450   6.187   6.950 -0.0059 -2.1128  0.0275
  685MOL0     H90393  11.616   6.151   6.995  2.1979  0.3899 -1.2005
  685MOL0     H90394  11.694   6.351   6.830 -1.0533 -1.3833 -2.6223
  685MOL0     H90395  11.613   6.403   6.971  1.5179  1.9651 -2.0715
  685MOL0     H90396  11.391   6.386   6.849 -1.6138  1.8921 -2.7457
  685MOL0     H90397  11.483   6.397   6.699  2.3055 -1.1168 -0.6138
  685MOL0     H90398  11.493   6.604   6.934 -3.7394 -0.2525  0.9028
  685MOL0     H90399  11.577   6.624   6.777 -0.4381 -0.8835 -0.4482
  685MOL0     H90400  11.380   6.750   6.810  0.0516  0.6218 -1.1565
  685MOL0     H90401  11.274   6.611   6.835  0.7968 -1.1047  1.3129
  685MOL0     H90402  11.515   5.623   6.625 -0.9170 -0.0023 -0.7321
  685MOL0     H90403  11.577   5.432   6.499 -1.6108 -0.3154  2.1545
  685MOL0     H90404  12.018   5.208   6.364  0.4851  1.0463  0.3349
  685MOL0     H90405  12.110   5.036   6.230 -1.8636 -1.5002  2.1482
  685MOL0     H90406  11.437   3.752   5.056  1.9867 -2.2782  0.0413
  685MOL0     H90407  11.234   3.687   4.955  2.7331  1.9874  0.5384
  685MOL0     H90408  10.879   3.607   4.713  0.7888 -1.6086 -0.4486
  685MOL0     H90409  10.680   3.501   4.631  1.2208  0.8363 -0.1358
  685MOL0     H90410  10.521   3.311   4.602 -0.4293  0.8013 -1.2799
  685MOL0     H90411  10.460   3.473   4.602 -2.2025  1.3210  1.2496
  685MOL0     H90412  10.237   3.435   4.664 -2.6288 -1.4086  1.4020
  685MOL0     H90413  10.293   3.330   4.523 -2.1835 -0.8975  0.5223
  685MOL0     H90414  10.234   3.247   4.802 -1.2082  1.4411 -0.6264
  685MOL0     H90415  10.319   3.141   4.692 -0.8744 -0.8665  0.6906
  685MOL0     H90416  10.044   3.278   4.682  3.0751  3.1868 -2.5369
  685MOL0     H90417  10.111   3.210   4.537  3.6937 -0.8320 -0.7251
  685MOL0     H90418   9.943   2.879   4.752 -0.8759  0.1465  0.2230
  685MOL0     H90419  10.538   3.428   5.038  0.0632  1.2492  1.2845
  685MOL0     H90420  10.740   3.511   5.118  2.2268 -3.7988 -1.2197
  686MOL0     O90421   1.000   9.462   2.354  0.5974 -0.6711  0.8474
  686MOL0     C90422   0.895   9.532   2.351  0.2211  0.8970 -0.4110
  686MOL0     O90423   0.833   9.582   2.235 -0.8131 -0.3420 -0.4008
  686MOL0     C90424   0.873   9.519   2.119 -0.2543  0.4561 -0.8815
  686MOL0     C90425   0.981   9.567   2.047  0.4810  0.0837 -0.0503
  686MOL0     C90426   1.012   9.512   1.924 -0.1874 -0.0165  1.6841
  686MOL0     C90427   0.964   9.389   1.885 -0.5824  1.0389  0.9118
  686MOL0     O90428   1.007   9.322   1.771  0.0383  0.4791 -0.1550
  686MOL0     C90429   1.126   9.375   1.709  0.3551 -0.1560 -0.3238
  686MOL0     C90430   1.194   9.253   1.631  0.3716 -0.8749  0.4175
  686MOL0     C90431   1.256   9.161   1.729  0.2450  0.2138  0.1634
  686MOL0     C90432   1.367   9.068   1.681  0.6853  0.5995  1.3675
  686MOL0     C90433   1.465   9.018   1.801  0.3446  0.0708 -0.5180
  686MOL0     C90434   1.601   8.967   1.763  0.0641 -0.6641 -0.9091
  686MOL0     C90435   1.688   8.938   1.890 -0.5783 -0.7512  0.6112
  686MOL0     C90436   1.828   8.879   1.857  0.2678 -0.0589  0.2009
  686MOL0     N90437   1.795   8.739   1.818  0.1257 -0.6746  0.6012
  686MOL0     C90438   1.777   8.623   1.893  0.0240  0.1157 -0.2233
  686MOL0     C90439   1.736   8.532   1.808 -0.0889 -0.3226 -0.7899
  686MOL0     C90440   1.692   8.395   1.848 -0.2088 -0.9725  1.1344
  686MOL0     C90441   1.544   8.376   1.894 -0.4170 -0.1051  0.1862
  686MOL0     C90442   1.496   8.467   2.009  0.3731  0.2508  0.3737
  686MOL0     C90443   1.558   8.417   2.137  0.8599 -0.3160 -0.8182
  686MOL0     O90444   1.489   8.489   2.241 -1.1888  0.5878 -0.4000
  686MOL0     C90445   1.361   8.469   2.282  0.0241  0.2251  0.7032
  686MOL0     C90446   1.270   8.366   2.236 -0.1823 -0.4103 -0.9535
  686MOL0     C90447   1.140   8.352   2.289 -0.0761  0.3521  0.8001
  686MOL0     C90448   1.085   8.451   2.374  0.4538  0.2355 -0.2990
  686MOL0     C90449   0.942   8.450   2.420 -0.6554 -0.9943 -0.2455
  686MOL0     O90450   0.903   8.546   2.509  0.1005  0.2381  1.2580
  686MOL0     C90451   0.773   8.561   2.556 -0.7546 -0.3793 -0.3603
  686MOL0     C90452   0.680   8.462   2.572  0.3771 -0.5652  0.4152
  686MOL0     C90453   0.549   8.476   2.627 -0.0888 -0.5523 -0.5461
  686MOL0     C90454   0.518   8.604   2.670  0.0981  0.4620 -0.8928
  686MOL0     O90455   0.388   8.638   2.717 -0.6592 -0.4168  0.0132
  686MOL0     C90456   0.388   8.697   2.851  0.0701 -0.5513  0.8843
  686MOL0     C90457   0.276   8.649   2.938  0.4662  0.3648  0.8259
  686MOL0     C90458   0.292   8.700   3.087 -0.1396 -0.6736  0.3685
  686MOL0     C90459   0.192   8.639   3.185 -0.3808 -0.3438  0.4742
  686MOL0     C90460   0.209   8.683   3.327  0.1672 -0.1076 -0.0490
  686MOL0     C90461   0.107   8.609   3.417 -0.6512 -0.0246  0.0580
  686MOL0     C90462   0.166   8.623   3.555 -0.2295 -0.5429  0.2522
  686MOL0     C90463   0.061   8.589   3.654 -0.6084 -0.4666  0.0028
  686MOL0    Cl90464  -0.075   8.700   3.658  0.1923 -0.2025 -0.3889
  686MOL0     C90465   0.610   8.710   2.655 -0.0139 -0.0775  0.1714
  686MOL0     C90466   0.738   8.682   2.598 -1.3727 -1.3401 -0.7952
  686MOL0     O90467   0.883   8.354   2.373  0.9560 -0.3903 -0.3157
  686MOL0     C90468   1.176   8.546   2.423  0.8231  0.4344 -0.1276
  686MOL0     C90469   1.307   8.551   2.377  0.2740 -0.5111 -0.0596
  686MOL0     N90470   1.727   8.596   1.685  0.1363 -0.1553 -0.0676
  686MOL0     N90471   1.778   8.709   1.684 -0.3793 -0.4370 -0.2036
  686MOL0     C90472   0.872   9.329   1.968  0.9369 -0.4343 -0.6860
  686MOL0     C90473   0.831   9.394   2.085  0.3320  0.2280 -0.2548
  686MOL0     C90474   0.833   9.551   2.485  0.7443  0.3545 -0.0067
  686MOL0     C90475   0.916   9.560   2.595 -0.8981  0.0226 -0.0238
  686MOL0     C90476   0.858   9.566   2.723 -0.1647  1.9134  0.4052
  686MOL0     C90477   0.717   9.571   2.740 -0.1131  0.5031  0.3533
  686MOL0     O90478   0.651   9.565   2.864 -0.7086 -0.2903  0.0806
  686MOL0     C90479   0.734   9.567   2.988  0.3445 -0.4919  0.0242
  686MOL0     C90480   0.664   9.486   3.101 -0.2374  0.2556  0.4016
  686MOL0     C90481   0.758   9.488   3.222  0.5145 -0.0560 -0.0570
  686MOL0     C90482   0.688   9.431   3.349 -0.0406  0.1462  1.0120
  686MOL0     C90483   0.603   9.538   3.416 -0.2394  0.6270 -0.3867
  686MOL0     C90484   0.532   9.631   3.467 -0.2559 -0.0631  0.0941
  686MOL0     C90485   0.633   9.582   2.625  0.5695 -0.4897 -0.8301
  686MOL0     C90486   0.701   9.569   2.498  0.2845 -0.1282 -0.2650
  686MOL0     H90487   1.034   9.656   2.076  0.6222 -0.2816  0.8450
  686MOL0     H90488   1.077   9.569   1.858  2.4877  0.2407  4.3444
  686MOL0     H90489   1.198   9.404   1.786 -1.3594  0.6949  1.0328
  686MOL0     H90490   1.116   9.469   1.653  3.3549  0.1266 -0.5399
  686MOL0     H90491   1.262   9.300   1.559 -1.7753  1.3215 -0.3369
  686MOL0     H90492   1.110   9.210   1.576 -1.0976  2.5680 -0.2990
  686MOL0     H90493   1.178   9.088   1.755 -0.8626  1.0820 -0.6021
  686MOL0     H90494   1.281   9.225   1.814 -1.1740  1.1215 -0.0541
  686MOL0     H90495   1.327   8.975   1.638  1.4455  0.1062  1.7021
  686MOL0     H90496   1.428   9.119   1.606 -0.6679 -1.1852 -1.0797
  686MOL0     H90497   1.419   8.940   1.862 -1.2928  0.8861 -0.6523
  686MOL0     H90498   1.479   9.102   1.870 -0.8980  1.1567 -1.5401
  686MOL0     H90499   1.647   9.043   1.699 -0.7331  1.8657  1.3210
  686MOL0     H90500   1.582   8.870   1.716 -2.0753  0.1435 -1.8255
  686MOL0     H90501   1.706   9.026   1.952  0.2140  0.3537 -1.1183
  686MOL0     H90502   1.632   8.870   1.955 -1.5012 -0.7523 -0.1586
  686MOL0     H90503   1.882   8.862   1.951 -2.7846 -2.2591  1.7409
  686MOL0     H90504   1.892   8.935   1.789 -1.2884 -1.4685 -2.5942
  686MOL0     H90505   1.789   8.605   1.999  0.9035 -1.8549 -0.6154
  686MOL0     H90506   1.760   8.361   1.926 -0.6271  0.2443  2.0543
  686MOL0     H90507   1.710   8.332   1.760  0.5150  0.2350  0.3914
  686MOL0     H90508   1.522   8.270   1.909 -0.9134 -0.0126  0.1312
  686MOL0     H90509   1.495   8.406   1.801 -5.2807 -1.6661  1.9293
  686MOL0     H90510   1.529   8.572   2.003 -2.1718  1.3582  3.1798
  686MOL0     H90511   1.387   8.470   2.010  0.3662 -0.1199  0.6271
  686MOL0     H90512   1.663   8.447   2.138  1.3593 -1.9309 -0.9188
  686MOL0     H90513   1.558   8.307   2.143 -1.7198 -0.3434 -0.0631
  686MOL0     H90514   1.311   8.309   2.153 -0.5765  2.9095 -3.6862
  686MOL0     H90515   1.081   8.263   2.270 -1.6796  1.3389  1.0143
  686MOL0     H90516   0.705   8.368   2.524  0.3503 -0.1041 -0.5383
  686MOL0     H90517   0.488   8.387   2.640 -2.1755  1.0370  1.5726
  686MOL0     H90518   0.375   8.805   2.857 -1.7284 -0.5452 -1.5510
  686MOL0     H90519   0.484   8.676   2.900  1.8942  1.6501 -1.4139
  686MOL0     H90520   0.260   8.541   2.936  1.2422  0.2496  0.4790
  686MOL0     H90521   0.189   8.690   2.886  1.8912  0.0821 -1.9844
  686MOL0     H90522   0.304   8.809   3.084  3.6425 -0.9547 -0.1032
  686MOL0     H90523   0.395   8.675   3.114  0.7526 -2.0119 -3.6315
  686MOL0     H90524   0.091   8.674   3.161 -0.2723 -0.2398  0.1632
  686MOL0     H90525   0.190   8.531   3.171 -1.4342 -0.3488  0.5915
  686MOL0     H90526   0.195   8.790   3.338  0.0471 -0.1230 -0.0508
  686MOL0     H90527   0.310   8.661   3.364  0.4277 -0.2092 -0.7930
  686MOL0     H90528   0.090   8.506   3.383  0.7627 -0.0897 -0.5132
  686MOL0     H90529   0.013   8.664   3.424  1.2404  3.3096  1.1887
  686MOL0     H90530   0.249   8.552   3.554 -0.1285 -0.5661 -3.1552
  686MOL0     H90531   0.194   8.727   3.568 -1.8087 -0.4321  3.7948
  686MOL0     H90532   0.106   8.599   3.753 -2.5954 -1.9973  1.1447
  686MOL0     H90533   0.031   8.484   3.644  0.1453 -0.5362 -1.8791
  686MOL0     H90534   0.583   8.808   2.695  3.4799  1.5512 -1.0767
  686MOL0     H90535   0.801   8.771   2.601 -0.1213 -2.1814  1.8963
  686MOL0     H90536   1.142   8.619   2.495  0.7711  0.8339 -0.5540
  686MOL0     H90537   1.373   8.617   2.432  4.0447 -2.1661 -2.2578
  686MOL0     H90538   0.822   9.237   1.940 -0.0655  0.4221 -1.8020
  686MOL0     H90539   0.746   9.351   2.138  0.8578  1.1386  1.3717
  686MOL0     H90540   1.022   9.552   2.570 -1.7745  2.1334 -6.1057
  686MOL0     H90541   0.918   9.584   2.812  2.5979  0.8990 -1.1446
  686MOL0     H90542   0.760   9.672   3.008 -1.3744  0.0376 -0.4075
  686MOL0     H90543   0.828   9.512   2.980 -0.1523 -1.2213 -0.9417
  686MOL0     H90544   0.572   9.542   3.121 -1.0597 -1.6513  2.3924
  686MOL0     H90545   0.644   9.384   3.069  0.4414  0.3077 -0.2134
  686MOL0     H90546   0.782   9.592   3.246  0.4498 -1.0105  5.2148
  686MOL0     H90547   0.849   9.428   3.209 -0.4330 -2.6961  3.8185
  686MOL0     H90548   0.634   9.339   3.327  0.2602  0.0630  0.6055
  686MOL0     H90549   0.774   9.411   3.413  1.2326  0.4985 -0.5308
  686MOL0     H90550   0.483   9.714   3.514 -3.2756 -0.2553 -2.4002
  686MOL0     H90551   0.531   9.618   2.634  0.4128 -1.0988 -0.0969
  686MOL0     H90552   0.647   9.571   2.404  1.7363  2.3568 -1.1319
  687MOL0     O90553   9.177  11.391   1.705 -0.2464 -0.0176 -0.6510
  687MOL0     C90554   9.228  11.352   1.814 -0.1727 -0.1984  0.0734
  687MOL0     O90555   9.175  11.263   1.899  0.1478  0.2567 -1.5341
  687MOL0     C90556   9.056  11.209   1.860 -0.8466 -0.2128 -0.5821
  687MOL0     C90557   8.935  11.262   1.886  0.3304 -0.2085  0.6902
  687MOL0     C90558   8.813  11.220   1.850 -0.2531  0.3649 -0.7781
  687MOL0     C90559   8.820  11.092   1.786 -0.5410  0.2157  0.1188
  687MOL0     O90560   8.701  11.029   1.754 -0.2925 -0.0750 -0.7209
  687MOL0     C90561   8.683  10.972   1.623  0.1694  0.5226 -0.6700
  687MOL0     C90562   8.527  10.952   1.586 -0.1004 -0.4533  0.2488
  687MOL0     C90563   8.461  10.855   1.685 -0.8613 -0.1658 -0.6456
  687MOL0     C90564   8.335  10.794   1.630 -0.6550 -0.2084 -0.3634
  687MOL0     C90565   8.285  10.672   1.705 -0.1686 -0.1477 -0.0683
  687MOL0     C90566   8.297  10.706   1.851 -0.0006  0.5337  0.4868
  687MOL0     C90567   8.233  10.602   1.938 -0.0917 -0.2966 -0.3081
  687MOL0     C90568   8.081  10.623   1.955  0.4565 -0.1976 -0.4357
  687MOL0     N90569   8.024  10.498   2.019  0.0095 -0.0893 -1.0067
  687MOL0     C90570   8.040  10.458   2.147  0.8397 -0.2025 -0.0338
  687MOL0     C90571   7.998  10.325   2.141  0.3638 -0.1378 -0.4213
  687MOL0     C90572   7.998  10.230   2.254 -0.8520  0.3496 -0.0399
  687MOL0     C90573   7.922  10.292   2.372  0.7687  0.9988  0.2492
  687MOL0     C90574   7.882  10.199   2.499 -0.3140 -1.3372  0.4416
  687MOL0     C90575   8.007  10.188   2.584 -0.4149 -0.3565 -1.5257
  687MOL0     O90576   8.049  10.311   2.628 -0.3009  0.7254 -0.0750
  687MOL0     C90577   8.145  10.312   2.734  0.2756 -0.0204 -0.3793
  687MOL0     C90578   8.160  10.208   2.843 -1.1376 -0.7061 -1.0657
  687MOL0     C90579   8.251  10.241   2.949  0.2487  0.1183  0.1305
  687MOL0     C90580   8.305  10.368   2.970 -0.0761 -0.7743  0.3553
  687MOL0     C90581   8.372  10.404   3.100  0.7709  0.4787  0.3610
  687MOL0     O90582   8.342  10.327   3.215 -0.9970 -0.1117 -0.0319
  687MOL0     C90583   8.430  10.345   3.322  1.1020 -0.1606 -0.4443
  687MOL0     C90584   8.418  10.463   3.401  0.3169 -0.3675  0.2973
  687MOL0     C90585   8.469  10.474   3.538 -0.1644  1.0211 -0.2078
  687MOL0     C90586   8.553  10.376   3.581 -0.5139 -0.1949  0.5107
  687MOL0     O90587   8.614  10.360   3.700 -0.2275  0.7430  0.1862
  687MOL0     C90588   8.581  10.453   3.812 -0.6516 -0.6213  0.3964
  687MOL0     C90589   8.445  10.433   3.887 -0.8729  0.4405 -0.1892
  687MOL0     C90590   8.455  10.309   3.982 -0.1815 -0.5640 -0.9332
  687MOL0     C90591   8.321  10.261   4.036 -0.0675 -0.4917 -0.4225
  687MOL0     C90592   8.320  10.139   4.119 -0.0071  0.6268 -0.7651
  687MOL0     C90593   8.408  10.158   4.246  0.1072 -0.3177  0.4497
  687MOL0     C90594   8.384  10.045   4.347  0.4909  0.7917  0.7934
  687MOL0     C90595   8.477  10.047   4.467  0.1179 -0.8016 -0.4999
  687MOL0    Cl90596   8.446  10.193   4.555  0.4075 -0.1717  0.1621
  687MOL0     C90597   8.569  10.264   3.501  0.7185  0.7983 -0.4243
  687MOL0     C90598   8.511  10.244   3.374  0.1455  0.4527 -0.1709
  687MOL0     O90599   8.453  10.500   3.092  0.4232 -0.4625 -0.0406
  687MOL0     C90600   8.287  10.469   2.866  0.0746  1.1544 -0.6913
  687MOL0     C90601   8.215  10.434   2.752  0.3473 -0.0417 -0.4430
  687MOL0     N90602   7.944  10.303   2.017 -0.0263  0.3816  1.4955
  687MOL0     N90603   7.957  10.404   1.944  0.3398  0.2141  0.2299
  687MOL0     C90604   8.940  11.019   1.778 -0.0041  0.2623  0.3772
  687MOL0     C90605   9.061  11.079   1.814  0.3160 -0.4764 -0.2639
  687MOL0     C90606   9.344  11.434   1.851 -0.3745 -1.1580  0.9654
  687MOL0     C90607   9.434  11.397   1.954  0.3030 -0.4323 -0.0398
  687MOL0     C90608   9.542  11.479   1.991 -0.6584 -0.3784  0.3842
  687MOL0     C90609   9.557  11.612   1.944  0.8908  1.2506 -0.1771
  687MOL0     O90610   9.644  11.707   1.990  0.1795 -0.0120 -0.6584
  687MOL0     C90611   9.685  11.712   2.134  0.3390 -0.1056  1.4567
  687MOL0     C90612   9.765  11.834   2.157 -0.3801 -0.2911  1.0968
  687MOL0     C90613   9.773  11.886   2.302 -0.3511  0.8146 -0.0878
  687MOL0     C90614   9.827  12.027   2.292  0.3349  0.8288  0.5391
  687MOL0     C90615   9.846  12.077   2.428 -0.3993 -0.9047  0.4588
  687MOL0     C90616   9.870  12.113   2.534  0.2484  0.1152 -0.3682
  687MOL0     C90617   9.466  11.645   1.843 -0.1132  0.1779 -0.1380
  687MOL0     C90618   9.361  11.563   1.792  0.0354 -0.1923 -0.5824
  687MOL0     H90619   8.938  11.346   1.955  1.4642  0.4150 -0.0910
  687MOL0     H90620   8.715  11.256   1.878 -0.8325 -0.6633 -1.4364
  687MOL0     H90621   8.718  10.869   1.636 -4.1500 -0.9742  0.7520
  687MOL0     H90622   8.739  11.023   1.544  5.2175 -1.6773  1.0395
  687MOL0     H90623   8.509  10.916   1.484  2.1649 -1.4201  0.1346
  687MOL0     H90624   8.466  11.038   1.614  1.1402 -0.3229  2.8292
  687MOL0     H90625   8.441  10.909   1.777 -1.9098  1.9344 -2.0130
  687MOL0     H90626   8.538  10.777   1.689 -1.7491 -0.9991  0.6348
  687MOL0     H90627   8.255  10.869   1.630  0.2679  0.8255  0.7171
  687MOL0     H90628   8.352  10.757   1.529 -0.8099  3.3770 -1.8519
  687MOL0     H90629   8.337  10.577   1.689  2.1712  1.2535 -1.4476
  687MOL0     H90630   8.185  10.657   1.664 -0.0899  2.5652 -1.5126
  687MOL0     H90631   8.251  10.803   1.869  3.1341  2.5608 -1.4954
  687MOL0     H90632   8.399  10.706   1.892  0.4539 -1.4159 -0.5158
  687MOL0     H90633   8.249  10.499   1.904 -3.9026 -0.4135 -2.3845
  687MOL0     H90634   8.264  10.611   2.042  2.4223  1.0063 -1.0812
  687MOL0     H90635   8.036  10.622   1.855  0.0323 -1.0337 -0.2473
  687MOL0     H90636   8.054  10.712   2.012  1.4031 -1.3302  1.9445
  687MOL0     H90637   8.064  10.513   2.237 -0.9841  0.4986  0.0682
  687MOL0     H90638   8.099  10.201   2.282  0.3213  2.1697 -2.0409
  687MOL0     H90639   7.942  10.141   2.222  0.5715 -1.6969  2.7823
  687MOL0     H90640   7.825  10.330   2.337  0.1115 -1.9895 -1.6088
  687MOL0     H90641   7.980  10.375   2.411  1.9679  0.0335  0.5761
  687MOL0     H90642   7.815  10.247   2.571  1.0039  3.5705 -1.1982
  687MOL0     H90643   7.829  10.105   2.480  0.0050 -1.8675  1.9627
  687MOL0     H90644   8.090  10.133   2.539  0.9837 -0.3928  0.9198
  687MOL0     H90645   7.987  10.124   2.671  1.9887 -0.2583 -0.8067
  687MOL0     H90646   8.099  10.118   2.842 -1.5182 -0.4459 -1.4617
  687MOL0     H90647   8.263  10.160   3.021 -2.5520  0.0374  0.5899
  687MOL0     H90648   8.344  10.540   3.379 -0.3933 -0.4580  2.1417
  687MOL0     H90649   8.446  10.559   3.602 -0.7573 -0.5795  1.8343
  687MOL0     H90650   8.594  10.554   3.772  3.5716 -1.1666 -0.1127
  687MOL0     H90651   8.668  10.445   3.879 -0.1345 -2.6624 -0.4536
  687MOL0     H90652   8.364  10.409   3.817  0.1641  1.7319 -1.9252
  687MOL0     H90653   8.417  10.520   3.947 -0.6251  0.3138  0.1089
  687MOL0     H90654   8.525  10.321   4.064  1.4208  1.3521 -2.4782
  687MOL0     H90655   8.495  10.223   3.928  1.7991 -0.4193  0.2225
  687MOL0     H90656   8.291  10.354   4.086 -1.7223 -1.1229 -0.1597
  687MOL0     H90657   8.256  10.234   3.952 -3.4575  2.3996  0.9798
  687MOL0     H90658   8.356  10.056   4.057 -1.4539  0.4771 -1.4564
  687MOL0     H90659   8.221  10.103   4.148 -0.6583  0.7416 -2.6882
  687MOL0     H90660   8.385  10.256   4.288 -0.8398 -0.7310  0.9145
  687MOL0     H90661   8.513  10.174   4.222 -0.3999  3.3747  0.0520
  687MOL0     H90662   8.279  10.039   4.374  0.2102 -0.4935 -0.4742
  687MOL0     H90663   8.398   9.948   4.298 -0.6833  0.3946  1.2158
  687MOL0     H90664   8.582  10.035   4.439  1.7349  3.6510  2.5385
  687MOL0     H90665   8.451   9.971   4.542  1.1820 -0.6334  0.0697
  687MOL0     H90666   8.629  10.187   3.549  2.3542  2.1512 -0.1878
  687MOL0     H90667   8.519  10.150   3.321 -0.7005 -0.4779  1.2964
  687MOL0     H90668   8.334  10.566   2.874 -0.1242  1.2584 -0.7757
  687MOL0     H90669   8.212  10.513   2.677 -1.1884  0.5924  0.2462
  687MOL0     H90670   8.939  10.917   1.741 -0.2226  0.5388 -0.4090
  687MOL0     H90671   9.156  11.030   1.798 -0.2911 -1.6174 -0.5188
  687MOL0     H90672   9.418  11.302   2.003 -0.6517 -0.7317 -0.8923
  687MOL0     H90673   9.609  11.436   2.065 -1.7741 -0.7918  1.1816
  687MOL0     H90674   9.742  11.619   2.142 -0.1695 -1.1758 -3.7738
  687MOL0     H90675   9.599  11.721   2.201 -0.3950 -1.4939  0.7326
  687MOL0     H90676   9.852  11.834   2.090 -2.8567  1.9397 -2.4473
  687MOL0     H90677   9.714  11.916   2.107  3.4683  0.9731 -1.2138
  687MOL0     H90678   9.842  11.833   2.368 -0.4548  0.8603  0.0584
  687MOL0     H90679   9.676  11.877   2.352  0.7417 -0.1124  1.9539
  687MOL0     H90680   9.920  12.024   2.235 -1.5435 -1.0042 -2.6999
  687MOL0     H90681   9.754  12.092   2.243 -1.8243 -1.3364  0.7013
  687MOL0     H90682   9.890  12.140   2.635  0.4689  3.5881 -1.2125
  687MOL0     H90683   9.466  11.752   1.821 -1.7006  0.3989  0.7580
  687MOL0     H90684   9.294  11.603   1.716  0.7756  0.4980 -0.8869
  688MOL0     O90685  10.513   8.779   9.836  0.4707  0.6016  0.0509
  688MOL0     C90686  10.579   8.764   9.735  0.3102  0.3030  0.2388
  688MOL0     O90687  10.543   8.808   9.607  0.0091 -0.2345 -0.3864
  688MOL0     C90688  10.437   8.883   9.572  0.6209 -0.6126 -0.6071
  688MOL0     C90689  10.333   8.931   9.661  0.5788 -0.1428 -0.5837
  688MOL0     C90690  10.233   9.029   9.620 -0.0639  0.3734  0.9982
  688MOL0     C90691  10.237   9.081   9.494 -0.8238  0.2446 -0.8555
  688MOL0     O90692  10.154   9.169   9.442 -0.0014 -0.9266  0.4280
  688MOL0     C90693  10.198   9.257   9.341 -0.4486 -0.2511  0.3253
  688MOL0     C90694  10.126   9.393   9.359  0.0235  0.7435 -0.5771
  688MOL0     C90695  10.130   9.478   9.227 -0.6232  0.0334 -0.1826
  688MOL0     C90696  10.272   9.506   9.178  0.2418  0.0535 -0.7121
  688MOL0     C90697  10.273   9.626   9.090  0.8399  0.5219  0.8434
  688MOL0     C90698  10.408   9.676   9.055  0.5812  0.6842 -1.0125
  688MOL0     C90699  10.402   9.798   8.959  0.4347 -0.3318  0.2146
  688MOL0     C90700  10.545   9.867   8.940 -1.0024 -0.5421 -0.2195
  688MOL0     N90701  10.532   9.959   8.825  0.1237  0.1804  0.5792
  688MOL0     C90702  10.621  10.004   8.732 -0.5267  0.1057  0.1797
  688MOL0     C90703  10.588  10.127   8.694  0.8301  0.3440  0.1625
  688MOL0     C90704  10.668  10.209   8.596 -0.2162 -0.2005  0.9910
  688MOL0     C90705  10.652  10.147   8.453 -0.8022  0.2122 -0.2582
  688MOL0     C90706  10.736  10.235   8.346 -1.0196  0.1295  0.0692
  688MOL0     C90707  10.765  10.152   8.215  0.4550 -0.9283  0.0885
  688MOL0     O90708  10.738  10.242   8.107  0.0466 -0.1523 -0.2007
  688MOL0     C90709  10.837  10.249   8.009 -0.0430 -0.2548 -0.1266
  688MOL0     C90710  10.789  10.253   7.875  0.2478 -0.2689  0.5354
  688MOL0     C90711  10.874  10.223   7.772  0.4678 -0.2209  0.6255
  688MOL0     C90712  11.008  10.195   7.792  0.0884  0.2331  0.8760
  688MOL0     C90713  11.084  10.130   7.679  0.4695 -1.0022 -1.0502
  688MOL0     O90714  11.026  10.105   7.557 -0.6432  0.0854 -0.4071
  688MOL0     C90715  11.095  10.044   7.452  1.1128  0.2202 -0.4110
  688MOL0     C90716  11.085  10.100   7.323 -0.5074 -0.0659 -0.1890
  688MOL0     C90717  11.143  10.035   7.211  0.1758  0.6899 -0.0285
  688MOL0     C90718  11.211   9.908   7.232  0.1574 -0.6483 -0.5938
  688MOL0     O90719  11.255   9.844   7.124  0.0894  0.3448 -0.4428
  688MOL0     C90720  11.371   9.890   7.058 -0.3015  0.5083 -0.2311
  688MOL0     C90721  11.502   9.874   7.137  0.9387  0.3223 -1.1605
  688MOL0     C90722  11.607   9.927   7.052 -0.0535 -0.1222  0.2883
  688MOL0     C90723  11.750   9.927   7.120 -0.2596  0.2861  0.3224
  688MOL0     C90724  11.866  10.007   7.046 -0.3489  0.1094  1.1470
  688MOL0     C90725  11.994   9.987   7.117  0.4234  0.0245  0.0621
  688MOL0     C90726  12.114  10.025   7.026 -0.2362  0.3138 -0.5664
  688MOL0     C90727  12.118  10.176   7.002 -1.0263  0.9226 -0.0912
  688MOL0    Cl90728  12.126  10.279   7.155  0.3895  0.0062  0.2155
  688MOL0     C90729  11.218   9.854   7.366 -0.9467 -0.1437  0.6400
  688MOL0     C90730  11.162   9.917   7.478  0.7361 -0.0444  0.1483
  688MOL0     O90731  11.201  10.099   7.708  0.0167 -0.2938  0.1937
  688MOL0     C90732  11.063  10.202   7.924 -0.5503 -0.4130  0.2691
  688MOL0     C90733  10.981  10.239   8.024  0.8291 -0.5507 -0.0185
  688MOL0     N90734  10.470  10.153   8.756 -0.4950 -0.1404  0.7977
  688MOL0     N90735  10.437  10.058   8.835  0.0031 -0.5629 -0.4975
  688MOL0     C90736  10.342   9.030   9.408 -0.2021 -0.6646 -0.7186
  688MOL0     C90737  10.439   8.935   9.447  0.8138  0.2095 -0.9497
  688MOL0     C90738  10.681   8.670   9.746  0.0783  0.0940 -0.3554
  688MOL0     C90739  10.762   8.668   9.867  0.4518 -0.1605  1.0578
  688MOL0     C90740  10.866   8.581   9.878  0.1439 -0.4152  0.8048
  688MOL0     C90741  10.902   8.500   9.774  0.3120 -0.1295 -0.5754
  688MOL0     O90742  11.019   8.429   9.804 -0.0627  0.2534 -0.7798
  688MOL0     C90743  11.076   8.375   9.679 -0.6187 -0.3844 -0.4727
  688MOL0     C90744  11.210   8.304   9.691 -0.2008  0.6984 -0.7423
  688MOL0     C90745  11.277   8.243   9.564 -1.1655  0.5122  0.7894
  688MOL0     C90746  11.280   8.337   9.439  0.1686  0.2424 -1.0582
  688MOL0     C90747  11.378   8.440   9.443 -0.2745 -0.0216 -0.3329
  688MOL0     C90748  11.450   8.541   9.450  0.2443  0.6150 -0.8326
  688MOL0     C90749  10.820   8.482   9.661 -0.4855 -0.5205 -0.0936
  688MOL0     C90750  10.720   8.580   9.642  0.1347  0.4257  0.1076
  688MOL0     H90751  10.319   8.899   9.764  1.8383 -0.2194 -0.4297
  688MOL0     H90752  10.151   9.067   9.680 -2.4966 -0.3479 -1.6809
  688MOL0     H90753  10.162   9.222   9.244 -0.4342  3.0685 -1.0165
  688MOL0     H90754  10.306   9.266   9.352 -0.5142 -0.5131  1.2092
  688MOL0     H90755  10.169   9.424   9.454 -2.3171 -0.8214  1.0922
  688MOL0     H90756  10.022   9.366   9.378  0.6813 -0.6573  1.2402
  688MOL0     H90757  10.085   9.572   9.260  1.4592  1.8107 -2.0720
  688MOL0     H90758  10.071   9.444   9.141 -1.8440 -2.6898  1.6001
  688MOL0     H90759  10.333   9.533   9.265 -0.9758 -0.3472  0.2952
  688MOL0     H90760  10.309   9.420   9.122 -0.0971  0.8290 -2.1846
  688MOL0     H90761  10.232   9.715   9.138 -0.7445 -0.1924  0.8959
  688MOL0     H90762  10.227   9.592   8.997  2.0651 -1.3334  0.8590
  688MOL0     H90763  10.467   9.596   9.009  3.6979  1.7384  0.8665
  688MOL0     H90764  10.467   9.706   9.142 -0.2718 -2.1068  0.6680
  688MOL0     H90765  10.359   9.762   8.866  1.7423 -3.4518  0.7054
  688MOL0     H90766  10.335   9.873   9.002 -1.5020 -0.8957 -1.6713
  688MOL0     H90767  10.609   9.780   8.924 -2.4704 -1.5000 -1.1161
  688MOL0     H90768  10.582   9.915   9.030  3.7677 -0.0643 -2.1588
  688MOL0     H90769  10.719   9.962   8.711 -0.7270 -1.6881  2.4532
  688MOL0     H90770  10.775  10.210   8.622 -0.6114  0.5529  2.7346
  688MOL0     H90771  10.629  10.310   8.604 -0.8880 -0.4218  0.5516
  688MOL0     H90772  10.549  10.133   8.418  0.0370 -1.6805 -2.2555
  688MOL0     H90773  10.697  10.047   8.456  1.0424  1.0234  0.2763
  688MOL0     H90774  10.680  10.328   8.333  0.3684  0.8205 -1.1569
  688MOL0     H90775  10.832  10.244   8.398  0.6684 -1.5920 -2.4958
  688MOL0     H90776  10.703  10.063   8.208  1.3485 -1.8813  2.9923
  688MOL0     H90777  10.869  10.123   8.233 -0.3915 -2.2474  3.5472
  688MOL0     H90778  10.682  10.265   7.857  0.0698  0.0430  1.6956
  688MOL0     H90779  10.845  10.203   7.669  1.7516 -0.6780  0.3423
  688MOL0     H90780  11.013  10.179   7.306  1.1134  1.0385 -2.4710
  688MOL0     H90781  11.138  10.074   7.109 -2.3670 -0.4830 -0.4290
  688MOL0     H90782  11.352   9.994   7.027 -1.6976 -0.4429 -2.9270
  688MOL0     H90783  11.373   9.819   6.975  0.5720 -0.4174  0.5646
  688MOL0     H90784  11.514   9.767   7.158  1.1267  0.8526  1.9287
  688MOL0     H90785  11.491   9.913   7.239 -3.6135 -3.7237  0.2773
  688MOL0     H90786  11.580  10.030   7.026  2.3016 -0.0703 -2.4908
  688MOL0     H90787  11.618   9.860   6.967 -1.8001 -0.8169  0.5723
  688MOL0     H90788  11.751   9.957   7.225  0.4879  1.6758 -0.0636
  688MOL0     H90789  11.789   9.825   7.118 -1.0689 -0.1048  2.1468
  688MOL0     H90790  11.844  10.113   7.054  2.8822  1.0989 -0.8987
  688MOL0     H90791  11.875   9.981   6.940  1.2792  0.0951  1.2578
  688MOL0     H90792  12.012   9.880   7.134 -0.8207 -0.8741 -3.4248
  688MOL0     H90793  11.971  10.041   7.209 -2.8071  1.7219 -1.6110
  688MOL0     H90794  12.202   9.985   7.077 -2.0164 -0.4263  2.1053
  688MOL0     H90795  12.110   9.960   6.938 -2.9595 -0.3868 -0.0284
  688MOL0     H90796  12.028  10.211   6.950 -0.0399  3.7008 -0.0775
  688MOL0     H90797  12.212  10.194   6.950 -2.2860  2.0030 -2.1640
  688MOL0     H90798  11.252   9.752   7.383 -0.1971 -0.4737 -2.2838
  688MOL0     H90799  11.164   9.866   7.574  0.8891  0.0911  0.2180
  688MOL0     H90800  11.167  10.184   7.949 -0.4051 -1.6214 -1.0871
  688MOL0     H90801  11.021  10.242   8.125 -1.7746 -0.5418  1.0999
  688MOL0     H90802  10.341   9.061   9.304 -2.1742  0.2135 -0.4967
  688MOL0     H90803  10.520   8.924   9.376  0.7191 -0.0415 -1.0210
  688MOL0     H90804  10.734   8.730   9.951  1.3781  0.1338  1.1621
  688MOL0     H90805  10.927   8.562   9.966  2.9389 -2.3945 -1.3675
  688MOL0     H90806  11.085   8.449   9.599 -0.3123  0.2002  0.0959
  688MOL0     H90807  11.008   8.300   9.637  0.0250 -2.0245  1.2670
  688MOL0     H90808  11.281   8.366   9.748  0.5139  0.5015 -1.3991
  688MOL0     H90809  11.199   8.221   9.762 -6.2615  0.6111 -1.3047
  688MOL0     H90810  11.206   8.166   9.536 -2.7484  1.9722  0.6476
  688MOL0     H90811  11.374   8.194   9.582  0.8925  3.6719 -0.6756
  688MOL0     H90812  11.297   8.279   9.348  1.6221 -1.3953  0.1832
  688MOL0     H90813  11.180   8.378   9.423 -0.5950 -2.0669 -2.6266
  688MOL0     H90814  11.519   8.623   9.459  0.8918 -0.1306  1.8130
  688MOL0     H90815  10.845   8.416   9.578  4.9384  1.1402 -0.1390
  688MOL0     H90816  10.674   8.589   9.545 -0.5857  2.8968  0.6174
  689MOL0     O90817   1.613   7.373   7.908  1.1325 -0.2111  0.2030
  689MOL0     C90818   1.526   7.289   7.936  0.1320 -0.1137  0.0097
  689MOL0     O90819   1.535   7.209   8.048 -0.0487  0.5069 -0.1374
  689MOL0     C90820   1.641   7.240   8.136 -0.4145  0.0090 -0.1935
  689MOL0     C90821   1.766   7.171   8.140  0.1167 -0.5405 -0.1573
  689MOL0     C90822   1.855   7.189   8.235 -1.2156  0.4304 -0.3248
  689MOL0     C90823   1.844   7.297   8.323  0.1971  0.0972  0.4491
  689MOL0     O90824   1.951   7.344   8.410 -0.2678  0.0746  0.9495
  689MOL0     C90825   2.076   7.278   8.407 -0.3843  0.6168  0.2231
  689MOL0     C90826   2.183   7.328   8.506  1.4212  0.6756  0.6676
  689MOL0     C90827   2.188   7.469   8.526  0.2752 -0.3798  0.4731
  689MOL0     C90828   2.321   7.522   8.579 -0.6041  0.4808 -0.1825
  689MOL0     C90829   2.312   7.662   8.625 -0.4271 -0.3001 -0.0600
  689MOL0     C90830   2.457   7.723   8.643 -0.9808  0.6598  0.4953
  689MOL0     C90831   2.458   7.832   8.748 -0.0661 -1.4310  0.4075
  689MOL0     C90832   2.599   7.851   8.824  0.3688 -0.3460  0.9613
  689MOL0     N90833   2.613   7.975   8.899  0.3653 -0.9964  0.4981
  689MOL0     C90834   2.709   8.077   8.883  0.4313 -0.9084  0.1863
  689MOL0     C90835   2.661   8.177   8.969 -0.4972  0.7928 -0.6064
  689MOL0     C90836   2.721   8.313   9.010  0.1229  0.1070  0.5575
  689MOL0     C90837   2.793   8.299   9.139 -0.6251 -0.4148  0.1884
  689MOL0     C90838   2.917   8.213   9.136  0.4230 -0.2221 -0.5759
  689MOL0     C90839   3.007   8.214   9.263  0.2925  0.1742 -1.4487
  689MOL0     O90840   3.049   8.350   9.272  0.0706 -0.0912 -0.1178
  689MOL0     C90841   3.148   8.386   9.361 -0.5369 -0.8439 -0.3379
  689MOL0     C90842   3.208   8.518   9.356  0.8610 -0.4489  0.0810
  689MOL0     C90843   3.292   8.560   9.465  0.0557 -0.0471 -1.3338
  689MOL0     C90844   3.312   8.484   9.578 -0.6569  0.6980 -0.4193
  689MOL0     C90845   3.398   8.526   9.690 -0.2278  0.4608 -0.8697
  689MOL0     O90846   3.466   8.646   9.681 -0.5935  0.3632 -0.2656
  689MOL0     C90847   3.561   8.686   9.774 -0.8525 -0.0834  0.1722
  689MOL0     C90848   3.555   8.670   9.916  0.8700  0.0505  0.3369
  689MOL0     C90849   3.647   8.731   9.997  0.6067  1.1303 -0.2145
  689MOL0     C90850   3.743   8.815   9.947 -0.3450 -0.5156 -0.6752
  689MOL0     O90851   3.822   8.878  10.032  0.2126  0.1868  0.7978
  689MOL0     C90852   3.863   9.015  10.000 -0.0488 -0.0024 -1.0314
  689MOL0     C90853   3.931   9.078  10.124 -0.2251  0.5370  0.3440
  689MOL0     C90854   3.979   9.224  10.086 -0.0647  1.2566 -0.0595
  689MOL0     C90855   3.973   9.304  10.213  0.0974 -0.3496  0.5790
  689MOL0     C90856   4.051   9.445  10.196  0.9275  0.0622 -0.4593
  689MOL0     C90857   4.017   9.530  10.077 -1.3000  0.2949  1.5934
  689MOL0     C90858   4.117   9.642  10.082 -0.5685 -0.6723 -0.0357
  689MOL0     C90859   4.114   9.734   9.955  0.5907  0.8588 -0.1852
  689MOL0    Cl90860   4.221   9.683   9.818 -0.3224  0.2157 -0.1624
  689MOL0     C90861   3.753   8.832   9.807  0.0179  0.0212 -0.4971
  689MOL0     C90862   3.665   8.771   9.723  0.1212  0.7896  0.9667
  689MOL0     O90863   3.431   8.438   9.779 -0.2142 -0.3837  0.5197
  689MOL0     C90864   3.261   8.345   9.573 -0.3227 -0.5393 -0.8627
  689MOL0     C90865   3.176   8.309   9.470  0.1337  0.3711 -0.1196
  689MOL0     N90866   2.538   8.130   9.025 -0.2949  1.3602  0.9549
  689MOL0     N90867   2.502   8.019   8.978  0.3329 -0.2184  0.1211
  689MOL0     C90868   1.728   7.371   8.320 -0.2664 -0.0221  0.6084
  689MOL0     C90869   1.623   7.346   8.230 -0.4775  0.2299 -0.3937
  689MOL0     C90870   1.408   7.291   7.860  0.1719  0.4763  0.9778
  689MOL0     C90871   1.274   7.296   7.911  0.2589 -0.7265  0.3715
  689MOL0     C90872   1.161   7.289   7.832 -0.2703  0.4747 -0.0049
  689MOL0     C90873   1.179   7.258   7.688 -0.7412 -0.4277  0.7345
  689MOL0     O90874   1.073   7.224   7.602  0.0936 -0.5824 -0.7857
  689MOL0     C90875   0.961   7.155   7.655  0.3922  0.4429  0.0544
  689MOL0     C90876   0.851   7.247   7.704  0.4841 -0.5008  0.3353
  689MOL0     C90877   0.714   7.182   7.741  1.1087  0.5704 -0.3113
  689MOL0     C90878   0.628   7.108   7.636  0.5479  0.2852 -1.1665
  689MOL0     C90879   0.522   7.004   7.674 -0.0436  0.3022  0.2739
  689MOL0     C90880   0.445   6.928   7.722  0.1159  0.5368  0.5978
  689MOL0     C90881   1.311   7.259   7.636  0.1286  1.0624 -0.8847
  689MOL0     C90882   1.421   7.266   7.722 -0.7328 -0.8553  0.5819
  689MOL0     H90883   1.797   7.117   8.052  1.7065  1.8408 -1.1724
  689MOL0     H90884   1.946   7.130   8.236  0.3815  2.7336 -0.0198
  689MOL0     H90885   2.129   7.280   8.311 -0.4639  0.1968  0.1668
  689MOL0     H90886   2.065   7.171   8.425  1.2364  0.2023 -1.0274
  689MOL0     H90887   2.282   7.307   8.464  2.2894  3.1061  1.3708
  689MOL0     H90888   2.163   7.274   8.599 -3.7351  0.9287 -0.0109
  689MOL0     H90889   2.117   7.511   8.598  2.8998  3.9999  0.8294
  689MOL0     H90890   2.159   7.518   8.433 -2.3444  3.6370  3.1008
  689MOL0     H90891   2.357   7.458   8.661  0.2022 -0.2940 -1.1221
  689MOL0     H90892   2.397   7.516   8.501  0.4365  2.6734  0.5586
  689MOL0     H90893   2.266   7.654   8.724  1.1170 -0.9691  0.6300
  689MOL0     H90894   2.244   7.720   8.562  0.4452  0.9407  0.1090
  689MOL0     H90895   2.482   7.751   8.541 -3.2588 -0.7660 -0.5268
  689MOL0     H90896   2.523   7.642   8.677 -0.4892 -0.3566 -2.5503
  689MOL0     H90897   2.420   7.922   8.700 -0.8750 -0.9646  1.8674
  689MOL0     H90898   2.384   7.805   8.824  0.3326 -0.6008  1.1078
  689MOL0     H90899   2.673   7.850   8.743  0.2997  0.8593  0.8697
  689MOL0     H90900   2.622   7.768   8.891  1.2861 -0.4866  0.4836
  689MOL0     H90901   2.799   8.083   8.824  0.4852 -0.1514  0.3348
  689MOL0     H90902   2.633   8.376   9.025 -0.8471 -0.4277 -2.3095
  689MOL0     H90903   2.782   8.358   8.931 -2.3828 -0.6926 -2.0135
  689MOL0     H90904   2.726   8.244   9.206 -2.1971 -2.1101 -2.5697
  689MOL0     H90905   2.813   8.401   9.172  2.3089 -0.6562 -0.5609
  689MOL0     H90906   2.895   8.109   9.112 -0.0305 -0.3721  0.4464
  689MOL0     H90907   2.972   8.254   9.051 -1.2986  1.2627 -1.0280
  689MOL0     H90908   3.094   8.150   9.247  0.0407  0.2850 -3.5239
  689MOL0     H90909   2.943   8.174   9.342  1.8769 -4.0088 -2.0431
  689MOL0     H90910   3.177   8.577   9.270 -1.8566 -3.4697 -1.2254
  689MOL0     H90911   3.342   8.656   9.475 -1.3514  0.4917  1.4672
  689MOL0     H90912   3.473   8.609   9.955  1.4013 -1.5022 -0.8731
  689MOL0     H90913   3.648   8.723  10.105 -1.3517  3.3619  0.0680
  689MOL0     H90914   3.767   9.067   9.987 -0.7108 -0.6736  0.9620
  689MOL0     H90915   3.926   9.016   9.910 -0.2652 -0.1626 -1.1865
  689MOL0     H90916   4.010   9.013  10.161  0.2880 -0.7066 -2.6918
  689MOL0     H90917   3.862   9.080  10.209  2.2944 -0.3853  2.5317
  689MOL0     H90918   3.917   9.264  10.005 -1.5291 -2.3944 -0.9481
  689MOL0     H90919   4.079   9.218  10.041 -0.9022 -0.6494 -1.8281
  689MOL0     H90920   3.870   9.331  10.241  0.2502  1.6877 -0.5989
  689MOL0     H90921   4.024   9.240  10.285 -0.8568 -3.8116 -1.5779
  689MOL0     H90922   4.160   9.437  10.206  1.0748  2.3675  0.4666
  689MOL0     H90923   4.038   9.511  10.283 -2.0524 -0.6643 -0.2573
  689MOL0     H90924   3.913   9.557  10.095 -1.6246 -0.4305  0.8757
  689MOL0     H90925   4.022   9.471   9.985  2.2201  0.9779  1.2234
  689MOL0     H90926   4.088   9.702  10.168  1.4456 -2.3518  1.9509
  689MOL0     H90927   4.225   9.628  10.086 -0.2274  1.0289 -1.8378
  689MOL0     H90928   4.157   9.829   9.988  1.6285  0.2447  0.2536
  689MOL0     H90929   4.011   9.764   9.934  0.9226  3.9316  1.8165
  689MOL0     H90930   3.816   8.912   9.768  0.9160 -0.5141 -0.1887
  689MOL0     H90931   3.665   8.788   9.616 -1.9703  0.4251  0.8685
  689MOL0     H90932   3.275   8.272   9.652  0.3499 -1.6441 -1.9573
  689MOL0     H90933   3.124   8.214   9.473 -1.9580  1.4201 -0.7988
  689MOL0     H90934   1.732   7.456   8.387 -1.3568  1.0151 -0.5821
  689MOL0     H90935   1.535   7.408   8.237  0.0137  0.7160  4.2294
  689MOL0     H90936   1.272   7.319   8.017  0.2443  0.9075  0.0421
  689MOL0     H90937   1.062   7.291   7.875 -1.1732 -1.5786 -1.8001
  689MOL0     H90938   0.983   7.098   7.745 -0.5276 -1.6332 -0.9666
  689MOL0     H90939   0.915   7.081   7.589 -1.2411  0.2980  1.3087
  689MOL0     H90940   0.889   7.324   7.772 -0.8335  0.8784 -0.4148
  689MOL0     H90941   0.829   7.313   7.619  2.1815  1.9845  1.7049
  689MOL0     H90942   0.655   7.254   7.798  0.7165 -0.7461  1.0206
  689MOL0     H90943   0.747   7.109   7.815  1.5388  2.4174  1.3998
  689MOL0     H90944   0.582   7.186   7.574  2.6427  0.3958 -2.7139
  689MOL0     H90945   0.702   7.060   7.571  1.6520  0.5305 -0.1163
  689MOL0     H90946   0.371   6.856   7.751 -0.3097 -0.0221 -1.6940
  689MOL0     H90947   1.334   7.247   7.530  5.1285  0.7744 -0.0431
  689MOL0     H90948   1.524   7.259   7.687 -0.5662  0.0066  0.8765
  690MOL0     O90949   1.937   2.536   3.718  0.4650 -0.1584 -0.2461
  690MOL0     C90950   1.928   2.451   3.812  0.9606 -1.0373 -0.2449
  690MOL0     O90951   1.937   2.319   3.799 -0.3139  0.4273  1.2088
  690MOL0     C90952   1.954   2.263   3.673  0.5280 -0.3130 -0.8206
  690MOL0     C90953   2.068   2.304   3.602  0.3510  0.6055  0.3666
  690MOL0     C90954   2.116   2.215   3.495  0.2220 -0.1296 -0.5258
  690MOL0     C90955   2.039   2.099   3.455  0.7539  0.2869  0.2727
  690MOL0     O90956   2.070   2.031   3.343  1.2829  0.2912  1.4611
  690MOL0     C90957   2.077   2.095   3.216  0.1016 -0.4354  0.0064
  690MOL0     C90958   1.944   2.049   3.138  0.8103  0.0136  0.1208
  690MOL0     C90959   1.929   2.120   3.003 -1.0095 -0.6650 -0.2911
  690MOL0     C90960   1.800   2.074   2.932  0.0090 -0.6012 -0.2883
  690MOL0     C90961   1.805   2.117   2.785 -0.2487 -0.6268 -0.5809
  690MOL0     C90962   1.669   2.162   2.736  0.9334  0.2673 -0.1723
  690MOL0     C90963   1.587   2.044   2.668 -0.2783 -0.6956 -0.3842
  690MOL0     C90964   1.600   2.021   2.522  0.0024  0.4126 -0.4628
  690MOL0     N90965   1.533   2.134   2.447 -0.4762  0.2140 -0.4014
  690MOL0     C90966   1.400   2.173   2.451 -1.0636  0.2158 -0.0208
  690MOL0     C90967   1.389   2.274   2.363  0.3544  0.2427 -0.0883
  690MOL0     C90968   1.265   2.333   2.334 -0.7457  0.0252  0.0680
  690MOL0     C90969   1.279   2.492   2.340  0.2492  0.5969 -0.1109
  690MOL0     C90970   1.162   2.568   2.254  0.1346 -0.8948 -0.7526
  690MOL0     C90971   1.156   2.716   2.280  0.4556  0.5451 -1.0076
  690MOL0     O90972   1.052   2.766   2.193 -0.2070 -0.1371  0.2044
  690MOL0     C90973   1.005   2.887   2.218 -0.8518 -0.5054  0.2755
  690MOL0     C90974   0.884   2.930   2.144  0.1150  0.8268 -0.2394
  690MOL0     C90975   0.815   3.046   2.174 -1.0941 -0.9872 -0.3782
  690MOL0     C90976   0.853   3.117   2.293 -0.3807  0.4694  0.0764
  690MOL0     C90977   0.776   3.234   2.324 -0.2223 -0.0192  0.7768
  690MOL0     O90978   0.739   3.241   2.455  0.2657 -0.6016 -0.4852
  690MOL0     C90979   0.619   3.298   2.493 -0.1296  0.7077 -0.2851
  690MOL0     C90980   0.614   3.350   2.622  0.1362 -0.2866 -0.4106
  690MOL0     C90981   0.496   3.409   2.661 -0.3267  0.4962 -0.8678
  690MOL0     C90982   0.389   3.428   2.585  0.5128  0.0185 -0.3870
  690MOL0     O90983   0.299   3.512   2.649 -0.8598  0.2942 -0.3006
  690MOL0     C90984   0.174   3.537   2.583 -0.1247  0.8172  0.6478
  690MOL0     C90985   0.105   3.623   2.693 -0.4489 -0.0255  0.2559
  690MOL0     C90986  -0.031   3.662   2.633 -0.4133  1.1208  0.8456
  690MOL0     C90987  -0.110   3.745   2.733  0.1020 -0.9439  0.9749
  690MOL0     C90988  -0.262   3.738   2.734 -1.0285  0.2065  0.0100
  690MOL0     C90989  -0.344   3.739   2.597 -0.0675  0.5536  0.6884
  690MOL0     C90990  -0.494   3.754   2.622 -0.0890  0.1482  0.0638
  690MOL0     C90991  -0.574   3.792   2.500 -0.2290  0.7660  1.0298
  690MOL0    Cl90992  -0.638   3.650   2.419  0.3771  0.4920 -0.0075
  690MOL0     C90993   0.381   3.372   2.459  0.1158 -0.8700  0.0535
  690MOL0     C90994   0.505   3.316   2.410 -0.7982 -0.5878  0.6077
  690MOL0     O90995   0.735   3.313   2.236 -0.8491  0.1418 -0.2042
  690MOL0     C90996   0.960   3.074   2.367  0.8395 -0.4803 -0.0633
  690MOL0     C90997   1.035   2.966   2.328 -0.7648 -0.2527  0.1865
  690MOL0     N90998   1.513   2.293   2.311  0.5744 -0.0928 -0.1564
  690MOL0     N90999   1.599   2.223   2.372 -0.2433  0.5567  0.0033
  690MOL0     C91000   1.939   2.059   3.547 -0.2440  0.0644 -0.5215
  690MOL0     C91001   1.897   2.136   3.654  0.2157  0.4013 -0.4234
  690MOL0     C91002   1.899   2.519   3.953 -0.4081  1.0641  0.2157
  690MOL0     C91003   1.863   2.433   4.068 -0.0267 -1.5246  0.2706
  690MOL0     C91004   1.821   2.492   4.188 -1.0878 -0.2078 -0.8453
  690MOL0     C91005   1.816   2.631   4.208 -0.3800  0.0736  0.0446
  690MOL0     O91006   1.777   2.655   4.330  0.0724 -0.7325 -0.2519
  690MOL0     C91007   1.795   2.794   4.381 -0.5184 -0.3599 -0.4741
  690MOL0     C91008   1.716   2.805   4.513 -0.2847  0.4513 -0.3116
  690MOL0     C91009   1.748   2.938   4.583  0.0853  0.0846  0.5373
  690MOL0     C91010   1.650   2.955   4.701  0.1092 -0.5192 -0.3185
  690MOL0     C91011   1.666   3.090   4.762 -0.6366  0.1954  0.4061
  690MOL0     C91012   1.668   3.191   4.825  0.0476 -1.0900  0.0934
  690MOL0     C91013   1.848   2.706   4.097  1.7554 -0.8008  0.4447
  690MOL0     C91014   1.890   2.653   3.971  1.0473  0.7716 -0.3260
  690MOL0     H91015   2.122   2.390   3.641  1.0373 -0.0075  0.8236
  690MOL0     H91016   2.210   2.237   3.445  1.3441  1.2171  1.9781
  690MOL0     H91017   2.164   2.059   3.160  1.0325  1.0452  0.4631
  690MOL0     H91018   2.082   2.204   3.222  1.1524 -0.4993  0.4721
  690MOL0     H91019   1.856   2.086   3.191  0.9303  0.6734 -0.1307
  690MOL0     H91020   1.928   1.941   3.131 -4.2759  0.5332  0.0991
  690MOL0     H91021   2.003   2.077   2.934 -2.4460 -1.6323 -1.2674
  690MOL0     H91022   1.939   2.229   3.009  1.0192 -0.7707 -0.8353
  690MOL0     H91023   1.789   1.966   2.939  1.7994 -0.6894  2.8535
  690MOL0     H91024   1.716   2.115   2.988  1.7259 -0.7440  2.5845
  690MOL0     H91025   1.853   2.042   2.722 -0.9511 -1.0036 -0.6752
  690MOL0     H91026   1.866   2.205   2.764  1.0264 -1.7084 -1.5837
  690MOL0     H91027   1.671   2.245   2.665 -1.8422  1.0339  0.5461
  690MOL0     H91028   1.608   2.196   2.820  0.2304 -1.2231 -0.0425
  690MOL0     H91029   1.598   1.947   2.719 -1.8624 -0.1522  1.1162
  690MOL0     H91030   1.479   2.057   2.686 -0.4543 -1.5084 -0.7852
  690MOL0     H91031   1.553   1.924   2.505  2.3384 -1.4207  2.4533
  690MOL0     H91032   1.707   2.013   2.500  0.0414  0.2883 -0.2266
  690MOL0     H91033   1.313   2.126   2.496 -1.0992 -1.1694 -1.4706
  690MOL0     H91034   1.191   2.319   2.413  1.7244  0.7079  2.6798
  690MOL0     H91035   1.222   2.289   2.244  2.8287 -1.9530 -0.8499
  690MOL0     H91036   1.379   2.525   2.309  2.1442 -3.2863  1.2946
  690MOL0     H91037   1.265   2.526   2.443 -5.3629 -1.8245  0.2782
  690MOL0     H91038   1.171   2.544   2.148 -0.2438  1.0299 -1.2690
  690MOL0     H91039   1.066   2.523   2.279  2.0219 -4.6555  0.5502
  690MOL0     H91040   1.259   2.750   2.267 -0.0534  2.2257 -0.8923
  690MOL0     H91041   1.140   2.740   2.385  0.3678  1.0235 -1.1280
  690MOL0     H91042   0.858   2.856   2.068  3.0143  0.8055 -1.3404
  690MOL0     H91043   0.732   3.091   2.120 -3.1535 -3.6691  0.3191
  690MOL0     H91044   0.694   3.335   2.694 -1.1312  0.6392  1.2669
  690MOL0     H91045   0.504   3.448   2.762  1.3613 -2.4352  0.2583
  690MOL0     H91046   0.122   3.447   2.550  0.3136 -0.1439  2.4208
  690MOL0     H91047   0.199   3.592   2.492  0.4138 -1.9427 -0.9812
  690MOL0     H91048   0.174   3.698   2.731  0.2916 -1.4772  1.9008
  690MOL0     H91049   0.083   3.559   2.779  1.8348 -1.5962 -0.2581
  690MOL0     H91050  -0.087   3.573   2.603 -1.1539  1.2130  1.8988
  690MOL0     H91051  -0.013   3.721   2.543 -3.5736 -0.7993 -1.2607
  690MOL0     H91052  -0.075   3.736   2.836  0.0142  1.4257  1.2826
  690MOL0     H91053  -0.087   3.850   2.713 -1.0107 -0.9167 -0.2633
  690MOL0     H91054  -0.286   3.813   2.810 -2.2107 -1.5627  1.4453
  690MOL0     H91055  -0.284   3.645   2.786  0.4685 -0.2720 -0.1529
  690MOL0     H91056  -0.332   3.645   2.544  0.1956 -0.4185  2.4081
  690MOL0     H91057  -0.307   3.818   2.531  0.1579  1.3412  1.7115
  690MOL0     H91058  -0.535   3.659   2.655  1.1942 -0.4111  0.1147
  690MOL0     H91059  -0.511   3.826   2.702 -0.7562 -1.6893  1.6528
  690MOL0     H91060  -0.528   3.850   2.419 -3.1835 -1.3434 -2.4650
  690MOL0     H91061  -0.661   3.846   2.536  1.5743  3.5724  1.5065
  690MOL0     H91062   0.298   3.392   2.393  0.5652 -0.1952 -0.3234
  690MOL0     H91063   0.498   3.300   2.303 -0.7790  0.2941  0.4697
  690MOL0     H91064   0.998   3.122   2.457  1.6645  0.0957 -0.6981
  690MOL0     H91065   1.120   2.938   2.389  0.5705 -0.4763 -1.6866
  690MOL0     H91066   1.903   1.957   3.537  1.0305 -0.5922  1.1845
  690MOL0     H91067   1.822   2.096   3.722  0.3502 -0.0573 -0.5388
  690MOL0     H91068   1.844   2.329   4.042 -0.0532 -0.6045 -4.4254
  690MOL0     H91069   1.771   2.426   4.259 -1.5793  3.2372  2.3276
  690MOL0     H91070   1.776   2.872   4.307  0.1444  0.5210  0.2717
  690MOL0     H91071   1.901   2.803   4.405 -0.5582  1.4237 -0.8171
  690MOL0     H91072   1.613   2.802   4.476  0.7749  2.0241 -3.7831
  690MOL0     H91073   1.727   2.722   4.584 -2.2308 -0.7732 -1.3274
  690MOL0     H91074   1.721   3.010   4.505 -4.9604 -2.0934 -0.1407
  690MOL0     H91075   1.853   2.946   4.614  0.5819  2.4456 -1.4354
  690MOL0     H91076   1.547   2.937   4.669 -0.3383  1.8878 -0.4279
  690MOL0     H91077   1.665   2.877   4.775 -2.7182  0.1755  1.1071
  690MOL0     H91078   1.694   3.264   4.899  2.1009 -0.2785 -1.3210
  690MOL0     H91079   1.834   2.813   4.102  2.7789 -0.6037 -0.5120
  690MOL0     H91080   1.915   2.720   3.890  4.0319 -0.0958 -0.2262
  691MOL0     O91081   7.399   9.019   5.708  0.9766 -0.0692  0.8878
  691MOL0     C91082   7.512   9.047   5.729 -0.0981 -0.2165 -0.0303
  691MOL0     O91083   7.547   9.162   5.792 -0.0327 -0.2260  0.3149
  691MOL0     C91084   7.449   9.249   5.836  0.1692  0.0465 -0.5611
  691MOL0     C91085   7.349   9.294   5.748  0.1125  0.3789  0.4941
  691MOL0     C91086   7.232   9.351   5.798 -1.4645 -0.1059  0.0285
  691MOL0     C91087   7.211   9.371   5.933  0.6544  0.1034 -0.4676
  691MOL0     O91088   7.093   9.429   5.967  0.1353 -0.2059 -0.1552
  691MOL0     C91089   6.965   9.354   5.963  0.6613 -0.3063  0.4222
  691MOL0     C91090   6.864   9.467   5.995  0.7415  0.2447  0.1570
  691MOL0     C91091   6.880   9.519   6.133  0.6017 -0.6481  0.1410
  691MOL0     C91092   6.782   9.443   6.220  0.0394  0.6919 -0.3761
  691MOL0     C91093   6.771   9.491   6.367  0.0154  0.5028 -0.1301
  691MOL0     C91094   6.651   9.422   6.442 -0.3027 -0.3824  0.2406
  691MOL0     C91095   6.646   9.465   6.588  0.0152  0.2331 -0.4579
  691MOL0     C91096   6.563   9.598   6.591  0.7254  0.3131  0.1304
  691MOL0     N91097   6.521   9.625   6.727 -0.2895 -1.0764  0.5632
  691MOL0     C91098   6.614   9.660   6.830  0.7098 -0.3285  0.8528
  691MOL0     C91099   6.535   9.690   6.934 -0.8798  0.2935  0.1774
  691MOL0     C91100   6.586   9.721   7.078 -0.7027 -0.0429 -0.1577
  691MOL0     C91101   6.696   9.839   7.078 -0.6948  0.3136 -0.3992
  691MOL0     C91102   6.738   9.875   7.214 -0.6171  0.2799 -1.0093
  691MOL0     C91103   6.825   9.769   7.291  0.4376  0.3448 -0.0155
  691MOL0     O91104   6.965   9.762   7.258 -0.1294  0.0824 -0.0257
  691MOL0     C91105   7.011   9.715   7.134  0.7892 -0.5745  0.3219
  691MOL0     C91106   6.944   9.609   7.055 -0.0415  0.4143 -0.7197
  691MOL0     C91107   6.994   9.575   6.927  0.1727 -0.5102  0.5119
  691MOL0     C91108   7.100   9.649   6.878 -0.0598  0.2773 -0.8234
  691MOL0     C91109   7.134   9.640   6.728  0.6889 -0.2749 -0.0554
  691MOL0     O91110   7.239   9.715   6.682  0.6059  0.1304 -0.3592
  691MOL0     C91111   7.298   9.675   6.566 -0.1312  0.2666 -0.3121
  691MOL0     C91112   7.231   9.684   6.437  0.0726 -0.9769  0.5236
  691MOL0     C91113   7.293   9.633   6.323  0.4107  0.1076  0.4476
  691MOL0     C91114   7.420   9.567   6.328  0.3780 -0.8779 -0.2911
  691MOL0     O91115   7.497   9.531   6.218 -0.0193  0.0712 -0.3898
  691MOL0     C91116   7.502   9.622   6.109  0.1949  0.6129  0.6328
  691MOL0     C91117   7.620   9.581   6.025  0.7051  0.6251  0.1667
  691MOL0     C91118   7.726   9.689   5.980  0.0448 -0.2989  0.2021
  691MOL0     C91119   7.831   9.714   6.088 -0.5491 -0.1262 -0.1757
  691MOL0     C91120   7.916   9.835   6.040 -0.4118 -0.4311  0.1167
  691MOL0     C91121   8.048   9.840   6.114 -0.7994  0.8749 -0.5921
  691MOL0     C91122   8.148   9.948   6.052 -0.5971  0.4900 -0.5510
  691MOL0     C91123   8.253  10.005   6.149  0.3589 -0.5134 -1.0870
  691MOL0    Cl91124   8.394   9.909   6.167 -0.3444  0.3839 -0.0990
  691MOL0     C91125   7.477   9.553   6.454 -0.7058  0.4961  0.0679
  691MOL0     C91126   7.417   9.603   6.573 -0.4927 -0.1395 -0.2240
  691MOL0     O91127   7.068   9.555   6.661 -0.2162 -0.1747 -0.6587
  691MOL0     C91128   7.161   9.752   6.958 -0.5572 -0.0083  0.3510
  691MOL0     C91129   7.115   9.788   7.076  0.2939  0.3503 -0.2417
  691MOL0     N91130   6.402   9.649   6.904 -0.5714 -0.0894 -0.4574
  691MOL0     N91131   6.392   9.622   6.782 -0.7570  0.1839  0.1567
  691MOL0     C91132   7.314   9.347   6.016  0.2298 -0.8400 -0.3284
  691MOL0     C91133   7.429   9.279   5.970  0.3513  0.0129 -0.1783
  691MOL0     C91134   7.615   8.957   5.681  0.1063 -0.1690  0.6280
  691MOL0     C91135   7.749   9.007   5.687  0.7753  0.6422  0.1313
  691MOL0     C91136   7.856   8.918   5.636  0.1517 -1.0079  0.5700
  691MOL0     C91137   7.831   8.783   5.608 -0.2787 -0.6151 -0.2251
  691MOL0     O91138   7.951   8.715   5.579  0.2990  0.5019 -0.2089
  691MOL0     C91139   7.946   8.579   5.549  0.4811 -0.2658  0.7826
  691MOL0     C91140   8.081   8.520   5.522  0.0244 -0.6555 -0.6763
  691MOL0     C91141   8.111   8.449   5.392  0.3243  0.2218 -0.8717
  691MOL0     C91142   8.101   8.534   5.267  0.1279 -0.5993  0.2031
  691MOL0     C91143   7.960   8.552   5.225 -0.6363  0.4603 -1.0686
  691MOL0     C91144   7.847   8.551   5.189 -0.0824  0.2910 -0.2050
  691MOL0     C91145   7.700   8.736   5.594  0.3402  0.4559  0.9630
  691MOL0     C91146   7.594   8.823   5.639  0.1021  0.3795 -0.2397
  691MOL0     H91147   7.381   9.281   5.645  3.3021  0.4533  1.3414
  691MOL0     H91148   7.147   9.377   5.736 -1.0586  0.7713 -0.1679
  691MOL0     H91149   6.943   9.273   6.034  1.0162 -0.8379 -0.0676
  691MOL0     H91150   6.956   9.316   5.861  1.2177 -0.1054  0.2932
  691MOL0     H91151   6.761   9.431   5.983  0.1298  1.4688  1.4076
  691MOL0     H91152   6.890   9.539   5.917  0.8010 -0.2419 -0.2772
  691MOL0     H91153   6.843   9.622   6.127 -0.9884 -1.2697 -2.6603
  691MOL0     H91154   6.982   9.498   6.166  0.4794 -3.5967 -1.0061
  691MOL0     H91155   6.682   9.437   6.176  0.4074  1.5759 -1.3992
  691MOL0     H91156   6.823   9.343   6.206  1.9051  1.3457  0.0120
  691MOL0     H91157   6.755   9.599   6.361  0.8909  0.5417 -3.2777
  691MOL0     H91158   6.860   9.459   6.422  1.8922 -1.3251 -3.9138
  691MOL0     H91159   6.680   9.317   6.441  1.4462  0.0733 -1.0161
  691MOL0     H91160   6.554   9.417   6.391  0.4159 -1.1468 -1.1222
  691MOL0     H91161   6.592   9.389   6.646 -2.7237  1.7425 -0.8182
  691MOL0     H91162   6.743   9.478   6.635  0.2972 -2.1347 -0.2516
  691MOL0     H91163   6.475   9.589   6.527 -0.2449 -0.4201  1.5096
  691MOL0     H91164   6.623   9.681   6.555 -0.6478  0.7707 -1.2061
  691MOL0     H91165   6.722   9.675   6.824  0.3588  1.8897 -1.5030
  691MOL0     H91166   6.626   9.624   7.106  1.0033  1.2103  2.0607
  691MOL0     H91167   6.506   9.752   7.146  0.0955 -0.4231  0.9623
  691MOL0     H91168   6.646   9.930   7.043  0.8381  1.6964  0.8421
  691MOL0     H91169   6.777   9.835   7.006  0.3450 -2.8814  0.7689
  691MOL0     H91170   6.795   9.968   7.211 -0.4946  0.2333 -0.3875
  691MOL0     H91171   6.650   9.902   7.274 -1.5101 -0.1169 -2.1110
  691MOL0     H91172   6.789   9.667   7.271  0.7143  0.0448  0.9396
  691MOL0     H91173   6.824   9.789   7.398  1.1583  4.4419 -0.6078
  691MOL0     H91174   6.874   9.535   7.095 -0.0577 -0.4347 -2.2286
  691MOL0     H91175   6.931   9.510   6.867 -1.1171  1.6548 -0.6194
  691MOL0     H91176   7.141   9.743   6.419  2.5809  2.7183 -1.1642
  691MOL0     H91177   7.258   9.655   6.222  0.6790  2.0020  0.7345
  691MOL0     H91178   7.520   9.723   6.147 -0.8429  0.7179  0.8624
  691MOL0     H91179   7.413   9.612   6.046 -0.6672 -2.1604  2.1532
  691MOL0     H91180   7.580   9.539   5.932 -1.6098 -0.5109  1.5744
  691MOL0     H91181   7.673   9.493   6.064 -2.0710  0.2775  3.5936
  691MOL0     H91182   7.666   9.777   5.955 -1.1469 -1.2849 -0.5044
  691MOL0     H91183   7.774   9.658   5.887  2.6590  3.9398 -0.1282
  691MOL0     H91184   7.798   9.705   6.192  0.1179 -2.4158 -0.1202
  691MOL0     H91185   7.893   9.624   6.082  1.9616  1.3994  0.9636
  691MOL0     H91186   7.861   9.930   6.039  0.1906 -0.0312  2.0829
  691MOL0     H91187   7.944   9.825   5.935 -1.7589  1.2225 -0.4431
  691MOL0     H91188   8.095   9.743   6.129 -1.5701  0.7536  1.3016
  691MOL0     H91189   8.012   9.879   6.210 -1.3900  3.5918 -1.8191
  691MOL0     H91190   8.198   9.906   5.964  2.4893  3.7077 -0.5837
  691MOL0     H91191   8.097  10.033   6.005  0.7629  1.6883  0.0342
  691MOL0     H91192   8.204  10.027   6.244 -2.6207 -2.1927 -2.0965
  691MOL0     H91193   8.288  10.101   6.112 -1.2988  0.2729 -0.7265
  691MOL0     H91194   7.565   9.490   6.446  0.4347  1.7626  1.6694
  691MOL0     H91195   7.470   9.581   6.665 -1.0781 -0.8459 -0.0501
  691MOL0     H91196   7.243   9.802   6.908 -1.2923  1.4536  0.5504
  691MOL0     H91197   7.150   9.870   7.137 -4.6550  3.4785 -1.0543
  691MOL0     H91198   7.300   9.381   6.118  1.4803  0.0998 -0.4340
  691MOL0     H91199   7.504   9.237   6.036 -0.0369  0.5981  0.6393
  691MOL0     H91200   7.764   9.113   5.702 -1.3469  1.0234 -0.0538
  691MOL0     H91201   7.958   8.956   5.630  0.1151 -0.8181  1.1305
  691MOL0     H91202   7.880   8.564   5.463  2.4628  0.7223 -1.0153
  691MOL0     H91203   7.888   8.531   5.628 -2.3186  2.4401  0.5635
  691MOL0     H91204   8.158   8.598   5.527 -1.3250  0.6690  0.5252
  691MOL0     H91205   8.113   8.459   5.607 -1.4312 -1.4148 -0.6436
  691MOL0     H91206   8.035   8.371   5.381 -3.3332  3.4546 -0.4994
  691MOL0     H91207   8.213   8.410   5.401  1.3931  3.2624  2.0615
  691MOL0     H91208   8.148   8.629   5.291  0.4887 -1.5892  4.0719
  691MOL0     H91209   8.163   8.481   5.194 -1.8627  0.3758 -2.3625
  691MOL0     H91210   7.742   8.560   5.172 -0.1945  1.7022  1.0232
  691MOL0     H91211   7.676   8.633   5.568 -2.9777  1.1145  0.9317
  691MOL0     H91212   7.490   8.793   5.644 -0.0251  0.4603 -1.9759
  692MOL0     O91213   9.267   9.598   2.102 -0.7895 -0.9708 -0.1392
  692MOL0     C91214   9.296   9.625   1.985  0.4059  0.4438 -0.2148
  692MOL0     O91215   9.421   9.593   1.935  0.0652  0.2113  0.7731
  692MOL0     C91216   9.528   9.570   2.024  0.3209 -0.3311 -0.5093
  692MOL0     C91217   9.596   9.677   2.084  0.7957 -0.0710  0.0743
  692MOL0     C91218   9.696   9.656   2.172 -0.1551 -0.5653 -0.0200
  692MOL0     C91219   9.734   9.519   2.195  0.1556 -1.2074  0.3787
  692MOL0     O91220   9.851   9.504   2.264 -0.1860  0.0125  0.8685
  692MOL0     C91221   9.958   9.414   2.208  0.5888  0.6241 -0.4771
  692MOL0     C91222  10.090   9.436   2.287  0.4305 -0.5902  0.2552
  692MOL0     C91223  10.076   9.399   2.439  0.1924 -0.6692  0.0768
  692MOL0     C91224  10.217   9.387   2.512  0.2649  0.1467 -0.1844
  692MOL0     C91225  10.299   9.517   2.494 -0.0178 -0.3985  0.0600
  692MOL0     C91226  10.438   9.509   2.574  0.2875 -0.5263  0.4409
  692MOL0     C91227  10.431   9.456   2.721 -0.4863 -0.4022 -0.6274
  692MOL0     C91228  10.337   9.541   2.814  0.5553 -0.2003 -0.3152
  692MOL0     N91229  10.362   9.491   2.953 -0.2029 -0.3949 -1.1699
  692MOL0     C91230  10.408   9.371   3.013 -0.4952  0.3489  0.0977
  692MOL0     C91231  10.438   9.397   3.143  0.5920 -0.9094  0.8006
  692MOL0     C91232  10.472   9.300   3.253 -0.2563 -0.2368  0.7703
  692MOL0     C91233  10.517   9.362   3.385 -0.2702 -0.1086 -0.0356
  692MOL0     C91234  10.659   9.395   3.390  0.3993 -0.8421 -0.1664
  692MOL0     C91235  10.691   9.424   3.542  0.2795  0.4556  0.7045
  692MOL0     O91236  10.830   9.414   3.589  0.0048 -1.0262 -0.1939
  692MOL0     C91237  10.925   9.514   3.561 -0.1132 -0.7841 -0.1762
  692MOL0     C91238  11.055   9.483   3.593  0.2853  1.0095 -0.3366
  692MOL0     C91239  11.166   9.572   3.570  0.1295  0.1561  0.2452
  692MOL0     C91240  11.135   9.699   3.510 -0.0103  0.1895 -0.4320
  692MOL0     C91241  11.245   9.797   3.498 -0.1413 -1.2283 -1.0855
  692MOL0     O91242  11.200   9.930   3.490 -0.6614 -0.2096 -0.1508
  692MOL0     C91243  11.299  10.029   3.504 -0.2499 -0.7437 -0.9828
  692MOL0     C91244  11.270  10.137   3.593  0.2030  0.4920  0.2366
  692MOL0     C91245  11.363  10.234   3.623 -0.3229 -0.3895 -0.3910
  692MOL0     C91246  11.482  10.226   3.566  0.8635 -0.5538 -0.6414
  692MOL0     O91247  11.571  10.327   3.592  0.4199 -0.0145  0.2100
  692MOL0     C91248  11.683  10.354   3.504 -0.2183  0.4644  0.1968
  692MOL0     C91249  11.770  10.455   3.573 -0.1515 -0.1910  0.3941
  692MOL0     C91250  11.699  10.580   3.644  0.4066 -0.0915  0.6163
  692MOL0     C91251  11.791  10.677   3.705  0.2188  0.2519 -1.2562
  692MOL0     C91252  11.812  10.640   3.855  0.1176 -0.2039  0.8032
  692MOL0     C91253  11.951  10.691   3.900 -0.1666 -0.2131  0.2155
  692MOL0     C91254  11.957  10.707   4.050  0.0869 -0.1773 -0.1173
  692MOL0     C91255  12.081  10.788   4.099 -0.2149  1.0741 -0.0671
  692MOL0    Cl91256  12.052  10.970   4.083 -0.3146 -0.0758  0.0951
  692MOL0     C91257  11.509  10.120   3.481 -0.2053 -0.3430 -0.5396
  692MOL0     C91258  11.422  10.025   3.448 -0.4860 -0.5150  1.0415
  692MOL0     O91259  11.360   9.764   3.545  1.4436 -0.4462  1.3859
  692MOL0     C91260  10.994   9.731   3.486 -0.0876  0.4269  0.2562
  692MOL0     C91261  10.894   9.646   3.514 -0.8629 -0.0942 -0.1392
  692MOL0     N91262  10.412   9.534   3.156  0.4259 -0.1579 -0.1966
  692MOL0     N91263  10.366   9.584   3.051  0.2711  0.4172  1.1243
  692MOL0     C91264   9.670   9.418   2.132  0.2942  1.3724  0.2735
  692MOL0     C91265   9.565   9.440   2.051 -0.1290  0.3902  0.4882
  692MOL0     C91266   9.215   9.698   1.887 -0.6746  0.4269 -1.0245
  692MOL0     C91267   9.120   9.788   1.941  0.4029 -0.5940 -0.0012
  692MOL0     C91268   9.035   9.871   1.860 -0.2337 -0.7951 -0.2601
  692MOL0     C91269   9.038   9.849   1.715  0.1876 -0.7304 -0.5546
  692MOL0     O91270   8.939   9.915   1.641  0.0848  0.0096  0.4058
  692MOL0     C91271   8.930   9.895   1.492  1.3252  0.6220 -0.5736
  692MOL0     C91272   8.778   9.924   1.456 -0.3967 -0.2861  0.0623
  692MOL0     C91273   8.683   9.830   1.518  1.2071  0.2643 -0.2842
  692MOL0     C91274   8.554   9.821   1.447  1.3358  0.4203  0.1039
  692MOL0     C91275   8.478   9.704   1.490 -0.2159 -0.3368 -0.9738
  692MOL0     C91276   8.428   9.614   1.541 -0.0051  0.2165  0.1054
  692MOL0     C91277   9.141   9.763   1.661  1.3498 -0.8657  0.5240
  692MOL0     C91278   9.222   9.679   1.743  0.0932 -0.0429  0.5183
  692MOL0     H91279   9.578   9.783   2.067  0.9259  0.1603  1.2614
  692MOL0     H91280   9.748   9.728   2.233 -2.6453  0.8146  0.6078
  692MOL0     H91281   9.982   9.436   2.104  0.3263 -1.4517 -1.0176
  692MOL0     H91282   9.917   9.313   2.212 -3.7352  2.1289 -1.9890
  692MOL0     H91283  10.113   9.542   2.277 -1.5572 -0.1823 -0.4562
  692MOL0     H91284  10.172   9.383   2.238  1.6994  1.9694 -0.5527
  692MOL0     H91285  10.032   9.299   2.437 -1.6124  0.0557  0.6400
  692MOL0     H91286  10.012   9.463   2.502 -0.1648 -1.2868  0.3516
  692MOL0     H91287  10.207   9.364   2.618 -1.2016  1.8162  0.0795
  692MOL0     H91288  10.282   9.305   2.479 -0.4939 -1.7376  2.6585
  692MOL0     H91289  10.236   9.597   2.534  1.9862  0.2050  2.2610
  692MOL0     H91290  10.313   9.547   2.390  0.2195  0.3217  0.2938
  692MOL0     H91291  10.468   9.613   2.584  1.9400 -1.0466  1.2992
  692MOL0     H91292  10.509   9.457   2.509 -1.9789 -0.5512 -2.2089
  692MOL0     H91293  10.401   9.350   2.722 -1.2753 -0.1855 -0.3366
  692MOL0     H91294  10.529   9.470   2.766 -0.7716 -0.9826  0.1979
  692MOL0     H91295  10.238   9.523   2.773  1.1455  0.7760 -2.2466
  692MOL0     H91296  10.358   9.648   2.817 -2.9181  0.6731 -2.0248
  692MOL0     H91297  10.410   9.268   2.982 -1.4220  0.7930 -1.5445
  692MOL0     H91298  10.551   9.230   3.222 -0.4697  0.3254 -1.2143
  692MOL0     H91299  10.383   9.238   3.268  0.6719 -1.8227 -0.0346
  692MOL0     H91300  10.492   9.287   3.461 -1.8827  1.9386  1.5840
  692MOL0     H91301  10.464   9.456   3.402 -1.1520 -0.2802 -1.6108
  692MOL0     H91302  10.733   9.316   3.371  1.1897  0.3297 -2.3508
  692MOL0     H91303  10.682   9.479   3.324 -0.2287 -1.0161 -0.6084
  692MOL0     H91304  10.625   9.367   3.606 -2.8309  2.3295 -0.6125
  692MOL0     H91305  10.653   9.526   3.553  0.6554  0.8692 -1.2818
  692MOL0     H91306  11.084   9.387   3.636  0.7389  0.7686 -1.1527
  692MOL0     H91307  11.267   9.537   3.590  0.1495 -2.6448 -3.6180
  692MOL0     H91308  11.172  10.129   3.640 -0.2668  0.7396 -0.6732
  692MOL0     H91309  11.335  10.319   3.684  1.1877  1.0938 -1.6269
  692MOL0     H91310  11.652  10.388   3.404 -1.1408  1.3979  0.7802
  692MOL0     H91311  11.748  10.266   3.494 -0.9552 -0.0198 -0.4442
  692MOL0     H91312  11.855  10.484   3.510 -1.8457  2.7595 -0.7311
  692MOL0     H91313  11.804  10.396   3.659 -0.8598 -0.9360  0.1650
  692MOL0     H91314  11.636  10.545   3.726 -0.9263 -2.3519 -1.2407
  692MOL0     H91315  11.639  10.632   3.568 -0.4947 -0.4838  1.0390
  692MOL0     H91316  11.888  10.667   3.657 -0.2278 -1.4008 -1.9011
  692MOL0     H91317  11.776  10.784   3.689  0.5858  0.3627 -0.8784
  692MOL0     H91318  11.803  10.533   3.875 -4.3264  0.1578  1.8186
  692MOL0     H91319  11.728  10.687   3.909 -0.1446  2.0698 -1.3753
  692MOL0     H91320  11.976  10.789   3.860 -2.3819  0.8794  1.2835
  692MOL0     H91321  12.022  10.619   3.859  1.2103 -0.3472  2.6242
  692MOL0     H91322  11.878  10.775   4.083  0.6613  0.8763 -0.8742
  692MOL0     H91323  11.951  10.608   4.096  1.3015 -0.3984 -0.3907
  692MOL0     H91324  12.175  10.763   4.050 -0.0604  1.2038  0.1604
  692MOL0     H91325  12.100  10.762   4.203  1.7032 -2.1053 -1.0764
  692MOL0     H91326  11.610  10.121   3.440 -0.0545  2.0653 -0.2675
  692MOL0     H91327  11.457   9.948   3.380 -0.2320  0.0408  0.5366
  692MOL0     H91328  10.969   9.833   3.457 -1.6822 -0.6344 -2.3606
  692MOL0     H91329  10.794   9.684   3.493 -0.3736  1.7330  0.6822
  692MOL0     H91330   9.694   9.312   2.136  0.2132  1.3495  0.1500
  692MOL0     H91331   9.514   9.355   2.007  4.3062 -1.4137 -1.8240
  692MOL0     H91332   9.125   9.803   2.049  0.9429 -0.0284 -0.0976
  692MOL0     H91333   8.970   9.950   1.895 -1.9311 -2.1263 -0.2798
  692MOL0     H91334   8.960   9.798   1.452  0.5012  0.3296 -0.5117
  692MOL0     H91335   8.985   9.969   1.433  2.3739  0.1487 -0.2185
  692MOL0     H91336   8.752  10.021   1.499 -1.6187 -0.3206 -0.5541
  692MOL0     H91337   8.764   9.934   1.348 -1.5295 -2.5968 -0.0529
  692MOL0     H91338   8.649   9.874   1.613  0.9554 -2.5472  1.0310
  692MOL0     H91339   8.731   9.735   1.543  0.8545  0.5431  1.6124
  692MOL0     H91340   8.494   9.911   1.465  0.5102 -0.2938  1.0523
  692MOL0     H91341   8.568   9.811   1.339  1.9633  3.2326 -0.1412
  692MOL0     H91342   8.391   9.522   1.582  1.9043 -1.2145 -1.2191
  692MOL0     H91343   9.163   9.746   1.556 -0.6401 -0.1226 -0.0662
  692MOL0     H91344   9.285   9.612   1.686 -0.3495  2.0012 -2.6539
  693MOL0     O91345   1.728   2.513   9.850  0.1844 -0.1108 -0.2191
  693MOL0     C91346   1.759   2.437   9.747  0.3490  0.5768 -0.4403
  693MOL0     O91347   1.753   2.477   9.612 -0.7529  0.1392 -0.0644
  693MOL0     C91348   1.709   2.605   9.587 -0.7234  0.8046 -0.0911
  693MOL0     C91349   1.592   2.623   9.518  0.1284  0.6058 -0.0678
  693MOL0     C91350   1.538   2.756   9.514  0.0286  0.1542 -0.0176
  693MOL0     C91351   1.599   2.862   9.581 -0.3494 -0.3940  0.2568
  693MOL0     O91352   1.529   2.976   9.575  0.5662 -0.2480  0.0904
  693MOL0     C91353   1.573   3.087   9.653 -1.0572 -0.4016 -0.2147
  693MOL0     C91354   1.510   3.214   9.589  0.4602  0.2114 -0.1140
  693MOL0     C91355   1.614   3.310   9.534 -0.0091 -0.1858 -1.0283
  693MOL0     C91356   1.681   3.244   9.418 -0.4728 -0.2100  0.7858
  693MOL0     C91357   1.796   3.327   9.369  0.7035 -0.5181 -0.1864
  693MOL0     C91358   1.876   3.282   9.256  0.1266  0.4764 -0.1652
  693MOL0     C91359   1.982   3.397   9.240 -0.1968  0.0611 -0.3403
  693MOL0     C91360   2.039   3.394   9.107  0.2082 -0.6643  0.3371
  693MOL0     N91361   2.150   3.300   9.076  0.6717 -0.0849  0.7910
  693MOL0     C91362   2.273   3.330   9.036 -0.5029 -0.3318  0.0147
  693MOL0     C91363   2.339   3.221   9.013 -0.0752 -0.0376 -0.1163
  693MOL0     C91364   2.485   3.225   8.980  0.3052 -0.0269  0.6319
  693MOL0     C91365   2.565   3.283   9.100 -0.1577  1.0937  0.8296
  693MOL0     C91366   2.569   3.200   9.231 -0.1183  0.6789  0.2718
  693MOL0     C91367   2.440   3.176   9.306 -0.4427  0.1635 -0.5213
  693MOL0     O91368   2.379   3.304   9.331 -0.4686 -0.2175  0.1399
  693MOL0     C91369   2.275   3.298   9.427  0.3650  0.1958  0.3641
  693MOL0     C91370   2.197   3.181   9.442  0.3059 -0.0618 -0.8732
  693MOL0     C91371   2.100   3.178   9.541 -0.3115 -0.2700 -0.3941
  693MOL0     C91372   2.088   3.279   9.633  0.4037  0.1823 -0.5382
  693MOL0     C91373   2.003   3.237   9.750  1.5737 -0.2705  0.3407
  693MOL0     O91374   2.002   3.329   9.852  0.5504 -0.3887  0.5568
  693MOL0     C91375   1.904   3.317   9.957  0.5419  0.1655  0.8798
  693MOL0     C91376   1.784   3.255   9.938  1.1312 -1.1761  0.5836
  693MOL0     C91377   1.691   3.246  10.036  0.2377 -0.3471 -0.3090
  693MOL0     C91378   1.719   3.303  10.165  0.9997  0.9003 -0.3886
  693MOL0     O91379   1.628   3.294  10.269  0.3309  0.7504  0.2712
  693MOL0     C91380   1.575   3.161  10.292  0.2457 -0.8812 -1.7609
  693MOL0     C91381   1.493   3.155  10.425  0.0538 -0.1010 -0.8723
  693MOL0     C91382   1.594   3.174  10.549  0.8879 -0.5239 -0.6716
  693MOL0     C91383   1.650   3.320  10.547  0.6652 -1.0324 -0.1648
  693MOL0     C91384   1.683   3.371  10.696 -0.4335 -0.2349 -0.0943
  693MOL0     C91385   1.822   3.447  10.716 -0.9400 -0.3028 -0.0117
  693MOL0     C91386   1.937   3.338  10.688 -0.3054 -0.0645 -0.7986
  693MOL0     C91387   2.057   3.374  10.771 -0.4371  0.1179  0.9952
  693MOL0    Cl91388   2.206   3.290  10.715  0.0765  0.1518 -0.3562
  693MOL0     C91389   1.843   3.370  10.184  1.4030 -0.0910  0.3102
  693MOL0     C91390   1.933   3.380  10.077  0.8917 -0.3402 -0.3857
  693MOL0     O91391   1.948   3.127   9.755 -0.0248 -0.9811  0.1121
  693MOL0     C91392   2.166   3.392   9.618  0.3816  1.1825  1.0450
  693MOL0     C91393   2.251   3.408   9.511  0.0871  0.6076 -0.6866
  693MOL0     N91394   2.254   3.112   9.015  0.0857 -0.3609 -0.1241
  693MOL0     N91395   2.140   3.161   9.050 -0.0832  0.1079 -0.6018
  693MOL0     C91396   1.717   2.844   9.650 -0.0379  0.1576 -0.3881
  693MOL0     C91397   1.767   2.712   9.656 -0.6009  0.2274  1.1846
  693MOL0     C91398   1.775   2.291   9.776 -0.0172 -0.1259  0.8425
  693MOL0     C91399   1.775   2.246   9.908  0.0001  0.1847  0.4419
  693MOL0     C91400   1.782   2.110   9.930  0.2320 -0.3826 -0.6981
  693MOL0     C91401   1.786   2.016   9.828  0.2177  0.6188 -0.9462
  693MOL0     O91402   1.781   1.884   9.864  0.2597  0.2507 -0.4638
  693MOL0     C91403   1.790   1.789   9.765  0.8942  1.5689  0.3771
  693MOL0     C91404   1.807   1.651   9.834 -0.0506 -0.6135 -0.0154
  693MOL0     C91405   1.920   1.651   9.932  0.4596  0.3529 -0.5756
  693MOL0     C91406   1.901   1.540  10.039  0.3763 -0.1704  0.1385
  693MOL0     C91407   1.914   1.402   9.979 -0.1056 -0.0644 -0.8690
  693MOL0     C91408   1.939   1.305   9.916 -0.7256  0.0321 -0.3144
  693MOL0     C91409   1.782   2.060   9.697  0.4755  0.0400  0.0129
  693MOL0     C91410   1.776   2.197   9.670 -0.3043 -0.2308 -0.1308
  693MOL0     H91411   1.529   2.546   9.474 -1.2362 -0.3357  3.2904
  693MOL0     H91412   1.443   2.764   9.463  0.3491  0.9955 -0.5083
  693MOL0     H91413   1.680   3.100   9.670 -0.8238  0.1464 -1.9144
  693MOL0     H91414   1.528   3.071   9.752  0.7919 -3.4317  0.2655
  693MOL0     H91415   1.462   3.259   9.676  0.6494 -1.6777  1.0310
  693MOL0     H91416   1.437   3.192   9.510 -1.3790  2.5489  0.7978
  693MOL0     H91417   1.688   3.330   9.612 -1.7973  0.9690  0.4266
  693MOL0     H91418   1.576   3.407   9.503  1.8239  0.2880 -1.9867
  693MOL0     H91419   1.723   3.146   9.441  0.2674 -0.7680 -2.4019
  693MOL0     H91420   1.616   3.231   9.331  2.0450 -0.6571 -1.1407
  693MOL0     H91421   1.864   3.336   9.454  1.4305 -2.3867 -0.5250
  693MOL0     H91422   1.753   3.424   9.343  2.0927  0.1397 -0.1229
  693MOL0     H91423   1.820   3.274   9.162  1.8031  0.3909 -1.2056
  693MOL0     H91424   1.919   3.182   9.271 -0.4832  0.0017 -1.4217
  693MOL0     H91425   1.925   3.489   9.253 -3.1331 -1.6822  0.0627
  693MOL0     H91426   2.067   3.379   9.307 -1.9343 -1.1461  1.6656
  693MOL0     H91427   2.085   3.492   9.094  3.3569 -1.9890  0.7605
  693MOL0     H91428   1.956   3.388   9.035 -2.3434 -3.5123  3.1790
  693MOL0     H91429   2.312   3.431   9.031 -0.2733 -0.4430 -0.5198
  693MOL0     H91430   2.504   3.290   8.894 -0.4057  0.7480  1.0510
  693MOL0     H91431   2.524   3.126   8.954  1.6536  0.0455  2.1810
  693MOL0     H91432   2.532   3.383   9.127 -0.5701  1.6388 -1.4975
  693MOL0     H91433   2.671   3.297   9.075  1.6294 -3.7335  4.0711
  693MOL0     H91434   2.615   3.108   9.195 -1.5423  0.5350 -1.2749
  693MOL0     H91435   2.642   3.250   9.296 -0.6474  2.0248 -0.1251
  693MOL0     H91436   2.469   3.124   9.398 -0.0638  1.7486  0.2986
  693MOL0     H91437   2.373   3.108   9.253 -2.1471 -0.0676  1.7851
  693MOL0     H91438   2.204   3.085   9.392 -2.9433 -2.0492  2.0061
  693MOL0     H91439   2.047   3.084   9.546 -3.6601  1.5493  1.5492
  693MOL0     H91440   1.743   3.206   9.850 -2.1510  1.6482  0.2845
  693MOL0     H91441   1.602   3.190  10.012 -0.5975  0.7265  0.2051
  693MOL0     H91442   1.657   3.091  10.306 -1.3261 -2.9604 -2.3805
  693MOL0     H91443   1.517   3.126  10.206 -0.7049 -1.7211 -0.8136
  693MOL0     H91444   1.435   3.063  10.434 -2.9958  1.7671 -0.1685
  693MOL0     H91445   1.410   3.226  10.427 -0.5126 -0.7407 -1.3929
  693MOL0     H91446   1.667   3.093  10.550  1.1659 -0.2911 -1.2988
  693MOL0     H91447   1.535   3.157  10.640  0.5141  0.4606 -0.7079
  693MOL0     H91448   1.735   3.328  10.478 -1.9753 -4.1773 -4.2689
  693MOL0     H91449   1.577   3.389  10.507  2.8623 -1.0291 -4.7979
  693MOL0     H91450   1.688   3.291  10.770 -0.6926  2.2964  2.8433
  693MOL0     H91451   1.597   3.425  10.735 -2.0451 -2.0958 -0.8718
  693MOL0     H91452   1.820   3.497  10.813 -1.6900 -1.0195  0.3517
  693MOL0     H91453   1.841   3.526  10.642  4.1453 -0.0007  1.2570
  693MOL0     H91454   1.908   3.238  10.722 -0.8477 -0.2861 -1.8551
  693MOL0     H91455   1.969   3.331  10.584 -3.2939  0.3128 -1.8524
  693MOL0     H91456   2.032   3.343  10.873  0.3166 -1.9873  0.5853
  693MOL0     H91457   2.076   3.482  10.778 -0.6682  0.2702 -0.4163
  693MOL0     H91458   1.877   3.415  10.277 -1.6480  1.8076  0.6386
  693MOL0     H91459   2.027   3.432  10.095 -0.7159  2.2869  1.1498
  693MOL0     H91460   2.159   3.478   9.683  0.3764 -0.0062  2.6683
  693MOL0     H91461   2.310   3.498   9.497  1.3897 -0.1544 -0.2610
  693MOL0     H91462   1.765   2.922   9.708 -1.1857  0.2895  0.4244
  693MOL0     H91463   1.851   2.705   9.725 -0.3522  1.6022  1.0462
  693MOL0     H91464   1.750   2.314   9.989 -2.8677 -0.7944  0.4994
  693MOL0     H91465   1.774   2.081  10.034  3.1031  1.8990  0.2936
  693MOL0     H91466   1.884   1.802   9.711  0.6971  0.4780 -0.2514
  693MOL0     H91467   1.695   1.789   9.712  0.7606 -0.3026  0.5618
  693MOL0     H91468   1.708   1.620   9.867  0.1254 -2.3184 -0.9717
  693MOL0     H91469   1.834   1.576   9.759 -0.0126  1.0392 -1.7277
  693MOL0     H91470   1.914   1.743   9.990 -0.2375 -0.0869  0.0584
  693MOL0     H91471   2.017   1.652   9.880  0.0019  0.3930 -1.4512
  693MOL0     H91472   1.973   1.562  10.118 -0.9155  1.8646  0.8359
  693MOL0     H91473   1.805   1.552  10.090  0.4003 -1.7591  0.5933
  693MOL0     H91474   1.960   1.211   9.869  2.1488 -0.9090  2.4799
  693MOL0     H91475   1.763   1.987   9.619  4.2360 -1.2464  0.1069
  693MOL0     H91476   1.760   2.220   9.565 -1.7985 -2.0689 -0.3545
  694MOL0     O91477   2.640   2.532   8.894  0.2451  0.0614 -0.1349
  694MOL0     C91478   2.716   2.607   8.956  0.0223  0.2649  0.0158
  694MOL0     O91479   2.681   2.683   9.066  1.0679 -0.0974  0.0338
  694MOL0     C91480   2.558   2.668   9.121 -0.4068 -0.0091  0.4244
  694MOL0     C91481   2.528   2.561   9.204 -0.3388  1.0006  0.0327
  694MOL0     C91482   2.404   2.566   9.269  0.1710  0.1169 -0.7715
  694MOL0     C91483   2.310   2.667   9.235 -0.3718  0.2863 -0.7692
  694MOL0     O91484   2.188   2.665   9.304  0.1497  0.1212 -0.0107
  694MOL0     C91485   2.095   2.770   9.266  0.3208 -0.8865  0.5243
  694MOL0     C91486   1.981   2.786   9.359 -0.6912  0.7294  0.3623
  694MOL0     C91487   1.871   2.884   9.312  0.3826  0.4967 -0.8718
  694MOL0     C91488   1.818   2.869   9.175  0.3993 -0.6231  0.7546
  694MOL0     C91489   1.691   2.956   9.153  1.1574 -0.0719  0.3039
  694MOL0     C91490   1.641   2.973   9.006  0.1094  0.3336 -0.7140
  694MOL0     C91491   1.503   3.042   9.005  1.3884 -0.7798 -0.5673
  694MOL0     C91492   1.514   3.188   9.051  0.2534 -0.7493 -0.5585
  694MOL0     N91493   1.554   3.297   8.950  0.2856  0.1873 -0.4031
  694MOL0     C91494   1.458   3.348   8.871  0.2050 -0.3525  0.5032
  694MOL0     C91495   1.492   3.470   8.833 -1.1316  0.0769  1.3057
  694MOL0     C91496   1.414   3.570   8.747  0.4898 -0.2662  0.9463
  694MOL0     C91497   1.492   3.620   8.618 -0.0938  0.0358  0.6575
  694MOL0     C91498   1.623   3.688   8.637  0.6264 -0.0846  0.1986
  694MOL0     C91499   1.598   3.806   8.728 -0.2049 -1.1442 -0.4350
  694MOL0     O91500   1.706   3.894   8.707 -0.0425  0.2949  0.5123
  694MOL0     C91501   1.698   4.023   8.644 -0.0479 -0.1829 -0.5296
  694MOL0     C91502   1.824   4.085   8.649 -0.3978 -0.2879 -0.5725
  694MOL0     C91503   1.841   4.213   8.588 -0.6810 -0.4005 -0.4266
  694MOL0     C91504   1.724   4.281   8.527 -1.0222  0.6348 -0.1729
  694MOL0     C91505   1.754   4.420   8.480  0.0864 -0.6707  1.3384
  694MOL0     O91506   1.861   4.481   8.533 -0.0996  0.1161 -0.8499
  694MOL0     C91507   1.889   4.609   8.499 -0.1724  0.0134  0.4627
  694MOL0     C91508   1.969   4.621   8.382  0.4321 -0.6137 -0.5814
  694MOL0     C91509   2.004   4.747   8.340 -1.1420  0.4874  0.3169
  694MOL0     C91510   1.974   4.860   8.413  0.1291 -0.2189 -0.2170
  694MOL0     O91511   2.019   4.983   8.371 -0.4175 -0.5749  0.1918
  694MOL0     C91512   1.929   5.065   8.288 -0.5725  0.7311 -0.0257
  694MOL0     C91513   1.909   5.206   8.330  0.9506 -0.1212 -0.0162
  694MOL0     C91514   1.820   5.208   8.457 -1.2678 -0.0231 -0.0366
  694MOL0     C91515   1.909   5.229   8.585  0.0761 -0.3710 -0.1940
  694MOL0     C91516   1.834   5.205   8.711  0.1194  0.8171 -0.6692
  694MOL0     C91517   1.724   5.312   8.743  0.4373  0.2887 -0.7944
  694MOL0     C91518   1.636   5.255   8.854 -0.0171 -0.8792  0.5913
  694MOL0     C91519   1.511   5.327   8.858 -0.0255  1.2163 -0.0528
  694MOL0    Cl91520   1.426   5.277   8.717  0.1372 -0.0706 -0.2351
  694MOL0     C91521   1.905   4.846   8.539  0.0188 -0.6032  0.7688
  694MOL0     C91522   1.855   4.718   8.573  0.3414  0.2071 -0.0940
  694MOL0     O91523   1.674   4.471   8.393  0.0025 -0.1610 -0.4161
  694MOL0     C91524   1.603   4.223   8.542 -0.1470  0.1061 -0.2458
  694MOL0     C91525   1.587   4.098   8.595  0.0354  0.1454 -0.0225
  694MOL0     N91526   1.620   3.488   8.878 -0.4765  0.7450  0.1732
  694MOL0     N91527   1.654   3.384   8.945  0.4453  0.2453  0.0940
  694MOL0     C91528   2.342   2.763   9.145  0.4784 -0.1111 -0.7041
  694MOL0     C91529   2.466   2.769   9.090 -0.0702 -0.6889  0.4928
  694MOL0     C91530   2.860   2.614   8.922  0.0467 -0.1544  0.4727
  694MOL0     C91531   2.892   2.576   8.789  0.1985 -0.3857 -0.7270
  694MOL0     C91532   3.023   2.593   8.752  0.9811  0.0975  0.1372
  694MOL0     C91533   3.125   2.644   8.829  1.2987 -0.7554 -0.2848
  694MOL0     O91534   3.247   2.650   8.780  0.2575 -0.1730 -0.5513
  694MOL0     C91535   3.365   2.701   8.864 -0.4702  0.3884  0.7960
  694MOL0     C91536   3.500   2.689   8.779 -0.4340 -0.2659 -0.2094
  694MOL0     C91537   3.631   2.671   8.869  0.3284 -0.0102 -0.0486
  694MOL0     C91538   3.627   2.564   8.984 -0.8222  0.5208  0.2188
  694MOL0     C91539   3.580   2.427   8.929 -0.4501 -0.7560 -0.0453
  694MOL0     C91540   3.555   2.310   8.891  0.4460  1.7282 -0.3594
  694MOL0     C91541   3.088   2.687   8.963 -0.5339  0.5049  0.8884
  694MOL0     C91542   2.957   2.665   9.010  0.2290  0.3052 -0.2148
  694MOL0     H91543   2.598   2.478   9.219 -1.6823 -0.0221  0.8284
  694MOL0     H91544   2.376   2.500   9.351  1.6577 -2.6836 -2.3790
  694MOL0     H91545   2.068   2.773   9.160  5.0139 -4.1758 -1.1239
  694MOL0     H91546   2.148   2.866   9.274 -1.1748  0.2796 -2.1748
  694MOL0     H91547   2.019   2.815   9.458  0.0373  3.8169 -0.7139
  694MOL0     H91548   1.939   2.685   9.370  0.9023  0.0635  0.7359
  694MOL0     H91549   1.907   2.985   9.336 -0.3744  0.4564  0.5172
  694MOL0     H91550   1.792   2.882   9.387  0.1378  1.2593 -1.1023
  694MOL0     H91551   1.894   2.881   9.098 -2.1239  2.3276 -1.5289
  694MOL0     H91552   1.788   2.764   9.170 -1.4298 -0.1975  1.9411
  694MOL0     H91553   1.724   3.051   9.197 -1.2084  1.5413 -1.2033
  694MOL0     H91554   1.611   2.913   9.214  1.8338  1.0390  2.0574
  694MOL0     H91555   1.643   2.880   8.948 -1.7580  1.0724 -2.0626
  694MOL0     H91556   1.705   3.037   8.945  0.8715 -1.9409 -2.4498
  694MOL0     H91557   1.466   3.051   8.902 -2.6390 -0.2063  0.7456
  694MOL0     H91558   1.427   2.983   9.057 -0.1348  2.0239  0.6508
  694MOL0     H91559   1.582   3.208   9.134 -2.2848 -2.3016  2.0699
  694MOL0     H91560   1.417   3.219   9.089  1.3053 -0.0980  1.7797
  694MOL0     H91561   1.366   3.298   8.843  0.8569 -3.3050  3.0293
  694MOL0     H91562   1.388   3.648   8.818 -0.4044 -0.8781  1.3176
  694MOL0     H91563   1.320   3.524   8.713 -1.0220  4.8736 -3.1105
  694MOL0     H91564   1.420   3.693   8.578 -0.3504 -0.6126 -0.1005
  694MOL0     H91565   1.494   3.538   8.545  0.2638  1.4436 -0.9660
  694MOL0     H91566   1.703   3.620   8.668  1.5361  0.3786 -1.0439
  694MOL0     H91567   1.648   3.727   8.538  2.8097 -0.7071  0.4461
  694MOL0     H91568   1.604   3.778   8.833 -0.4397  2.9969  0.8697
  694MOL0     H91569   1.503   3.856   8.707  0.4861  0.2414 -0.3710
  694MOL0     H91570   1.901   4.027   8.699  1.0943  0.9235 -1.3765
  694MOL0     H91571   1.942   4.250   8.576 -2.4048  5.1033 -0.5622
  694MOL0     H91572   1.997   4.531   8.329  1.5825  0.5712 -2.0552
  694MOL0     H91573   2.065   4.772   8.253  0.5178 -1.8789  0.6942
  694MOL0     H91574   1.837   5.007   8.285  0.0869 -0.7181  3.4101
  694MOL0     H91575   1.986   5.062   8.194  0.0170  0.2935  0.3359
  694MOL0     H91576   1.864   5.269   8.254 -0.9660 -1.7406 -0.2920
  694MOL0     H91577   2.008   5.248   8.352  0.3853  1.0938  0.3313
  694MOL0     H91578   1.758   5.120   8.470 -2.6709  1.0876  1.0961
  694MOL0     H91579   1.751   5.292   8.450 -0.6448  0.3541 -3.7801
  694MOL0     H91580   1.991   5.157   8.597 -0.0004 -0.1589  2.0998
  694MOL0     H91581   1.960   5.325   8.583  1.8535 -1.2817 -1.7853
  694MOL0     H91582   1.912   5.197   8.787  0.9203 -1.8394 -1.6751
  694MOL0     H91583   1.790   5.106   8.700  0.1302  0.6637  0.4919
  694MOL0     H91584   1.668   5.335   8.652 -1.5861 -0.2444  0.2614
  694MOL0     H91585   1.773   5.404   8.777  0.4429  0.8991 -2.3261
  694MOL0     H91586   1.611   5.149   8.842 -0.2860 -1.3690  4.3030
  694MOL0     H91587   1.697   5.263   8.944  2.6471  1.9671 -1.2608
  694MOL0     H91588   1.525   5.435   8.860  1.0962  1.0800  0.3460
  694MOL0     H91589   1.457   5.288   8.946  1.3896  1.6893  1.0594
  694MOL0     H91590   1.877   4.935   8.594  0.3518 -0.1703  0.2458
  694MOL0     H91591   1.786   4.710   8.656 -2.1928  1.4809 -1.9035
  694MOL0     H91592   1.517   4.280   8.510  0.3739  0.7572 -0.5216
  694MOL0     H91593   1.495   4.041   8.586  0.8737 -1.1663 -0.5204
  694MOL0     H91594   2.291   2.857   9.128  1.7349  1.2013  2.1458
  694MOL0     H91595   2.501   2.851   9.027 -1.0836 -2.2888 -2.3329
  694MOL0     H91596   2.823   2.536   8.716 -1.8236  2.8722 -0.7692
  694MOL0     H91597   3.069   2.558   8.660  2.2819 -0.7379  1.0741
  694MOL0     H91598   3.375   2.627   8.944 -1.4440  0.5387  1.0643
  694MOL0     H91599   3.353   2.802   8.904 -1.0653  1.2529 -1.4163
  694MOL0     H91600   3.493   2.598   8.719 -3.7745 -1.6333  1.9871
  694MOL0     H91601   3.519   2.769   8.707  0.5574  1.1627  1.5329
  694MOL0     H91602   3.655   2.761   8.927  4.1986 -1.5724  1.1693
  694MOL0     H91603   3.717   2.657   8.803  0.6781 -1.6463  0.6915
  694MOL0     H91604   3.729   2.549   9.022 -0.3994  1.3275 -0.5494
  694MOL0     H91605   3.575   2.598   9.074  2.1219  0.2941  2.1381
  694MOL0     H91606   3.510   2.219   8.859  1.1126  1.7786 -1.5247
  694MOL0     H91607   3.152   2.744   9.029 -0.4914  1.8634 -0.2691
  694MOL0     H91608   2.922   2.687   9.110  0.4101 -4.8289  1.2515
  695MOL0     O91609   3.375   6.762   8.475  0.4328  0.6181 -0.2482
  695MOL0     C91610   3.332   6.695   8.568 -0.1024  0.3072  0.4293
  695MOL0     O91611   3.232   6.596   8.552  0.0229 -0.3805 -0.8208
  695MOL0     C91612   3.159   6.569   8.445  0.2904  0.4947  0.2823
  695MOL0     C91613   3.057   6.662   8.411  0.8304 -0.4398  0.2361
  695MOL0     C91614   2.974   6.641   8.307  0.0931 -0.2856  0.8428
  695MOL0     C91615   2.984   6.521   8.237 -1.5034  0.7084 -0.1800
  695MOL0     O91616   2.912   6.473   8.134  0.5071  0.0621  0.3891
  695MOL0     C91617   2.795   6.550   8.097  0.3979  0.0940 -0.8918
  695MOL0     C91618   2.838   6.660   7.991  0.3548  0.3989 -0.4652
  695MOL0     C91619   2.901   6.595   7.859  0.0949  0.5904 -0.2490
  695MOL0     C91620   2.946   6.711   7.763  0.3161 -0.0750 -0.8925
  695MOL0     C91621   3.039   6.818   7.823 -1.3247  0.3941  0.6243
  695MOL0     C91622   3.177   6.763   7.849  0.0106  0.7166 -0.6333
  695MOL0     C91623   3.276   6.867   7.919 -0.3605  0.0662 -0.8301
  695MOL0     C91624   3.424   6.834   7.932 -0.3197 -0.4366 -0.3352
  695MOL0     N91625   3.486   6.928   8.027 -0.5011  0.3734  0.1034
  695MOL0     C91626   3.485   6.921   8.166 -0.0209  0.2518 -0.2414
  695MOL0     C91627   3.540   7.043   8.208  0.6756  0.1669  0.4335
  695MOL0     C91628   3.571   7.109   8.342 -0.0055 -0.3854 -1.3878
  695MOL0     C91629   3.707   7.064   8.388  0.3980 -0.3529 -0.5105
  695MOL0     C91630   3.731   7.127   8.527 -0.1422 -0.1471 -0.1837
  695MOL0     C91631   3.856   7.063   8.590 -0.2719 -0.1754 -0.3061
  695MOL0     O91632   3.958   7.040   8.487 -0.2494  0.3718 -0.0121
  695MOL0     C91633   4.070   6.979   8.535  0.3127 -0.1818 -0.0769
  695MOL0     C91634   4.161   6.942   8.439 -0.5574  0.6679 -0.4962
  695MOL0     C91635   4.293   6.897   8.474 -0.0481 -0.2364 -0.3341
  695MOL0     C91636   4.329   6.875   8.615 -0.6470 -0.3717  1.2043
  695MOL0     C91637   4.467   6.808   8.654  0.0553 -0.4028 -0.4934
  695MOL0     O91638   4.489   6.780   8.791 -0.4557 -0.0773  0.7224
  695MOL0     C91639   4.610   6.714   8.821  0.2547 -0.6933 -0.2459
  695MOL0     C91640   4.732   6.775   8.802  0.9331 -0.3698  0.0925
  695MOL0     C91641   4.854   6.709   8.831 -0.2828 -0.3974  0.2616
  695MOL0     C91642   4.850   6.585   8.903  0.6279 -0.0204 -0.8079
  695MOL0     O91643   4.965   6.541   8.959 -1.3798 -0.3879  0.1771
  695MOL0     C91644   4.952   6.429   9.050 -0.1995 -0.5531 -0.1792
  695MOL0     C91645   5.075   6.395   9.129  0.2039 -0.6226  0.3022
  695MOL0     C91646   5.192   6.360   9.033  0.5057 -0.2544  0.8674
  695MOL0     C91647   5.178   6.227   8.976 -0.0272 -0.2343  0.8589
  695MOL0     C91648   5.251   6.213   8.835  0.5687  0.4117 -0.2208
  695MOL0     C91649   5.247   6.070   8.789 -1.0313 -0.6826  0.0626
  695MOL0     C91650   5.285   6.048   8.650  1.4067 -0.8468 -0.1822
  695MOL0     C91651   5.372   5.920   8.642 -1.1026  1.0038 -0.4822
  695MOL0    Cl91652   5.533   5.924   8.723  0.1462 -0.1709 -0.5645
  695MOL0     C91653   4.719   6.535   8.931 -0.1922 -0.1641 -0.5810
  695MOL0     C91654   4.602   6.597   8.887  0.0004  0.3246 -0.1500
  695MOL0     O91655   4.532   6.762   8.563  0.3133  0.4653 -0.5007
  695MOL0     C91656   4.242   6.915   8.711 -0.9433  0.0440 -0.5775
  695MOL0     C91657   4.119   6.967   8.667  0.2937 -0.9551 -0.6451
  695MOL0     N91658   3.571   7.115   8.099  0.9795 -0.3078  0.7886
  695MOL0     N91659   3.546   7.044   7.985  1.1745 -0.2017 -0.1920
  695MOL0     C91660   3.078   6.422   8.273  0.0874 -0.8929 -0.3743
  695MOL0     C91661   3.168   6.448   8.380  1.0951  0.2761  0.0785
  695MOL0     C91662   3.390   6.704   8.703  0.0833 -0.6906 -1.0678
  695MOL0     C91663   3.312   6.667   8.816  0.3180 -0.1957  0.0249
  695MOL0     C91664   3.366   6.672   8.943  0.4627 -0.0635 -0.1260
  695MOL0     C91665   3.491   6.735   8.959  0.3968 -0.9933 -0.2079
  695MOL0     O91666   3.553   6.746   9.086  0.6890 -0.8895 -0.0764
  695MOL0     C91667   3.527   6.639   9.179 -0.2385 -0.6138 -0.2868
  695MOL0     C91668   3.419   6.675   9.282  0.4751 -0.4138 -0.6097
  695MOL0     C91669   3.458   6.801   9.362  1.5551 -0.8564 -0.8824
  695MOL0     C91670   3.337   6.841   9.449 -0.4214  0.4395  0.1659
  695MOL0     C91671   3.306   6.747   9.554  0.3247  0.0927 -0.7736
  695MOL0     C91672   3.262   6.674   9.642  0.6537 -1.3322  0.0533
  695MOL0     C91673   3.542   6.804   8.854  0.0347 -0.7260 -0.2996
  695MOL0     C91674   3.496   6.787   8.727  0.3008 -0.8468 -0.4401
  695MOL0     H91675   3.056   6.758   8.461 -0.4613 -0.0591 -0.4972
  695MOL0     H91676   2.899   6.717   8.286 -0.6245 -0.7598  1.5887
  695MOL0     H91677   2.732   6.587   8.179 -0.6980 -2.3383 -0.5334
  695MOL0     H91678   2.732   6.484   8.037 -0.1351  2.4152 -3.0492
  695MOL0     H91679   2.912   6.732   8.025 -0.9733 -0.5011  5.2660
  695MOL0     H91680   2.752   6.726   7.974  0.7542  0.8680 -0.6901
  695MOL0     H91681   2.830   6.534   7.803  1.4175 -0.2608 -1.0549
  695MOL0     H91682   2.984   6.528   7.885  0.9038  1.6478 -0.0115
  695MOL0     H91683   2.988   6.675   7.669 -2.5325  0.4468 -2.4717
  695MOL0     H91684   2.856   6.765   7.733  0.9808  2.9178  1.7884
  695MOL0     H91685   2.996   6.883   7.900  0.4784  1.6781  0.6125
  695MOL0     H91686   3.061   6.893   7.746  2.3670  2.6617  3.5397
  695MOL0     H91687   3.223   6.728   7.757 -0.8518 -0.4196 -0.6573
  695MOL0     H91688   3.168   6.676   7.915 -0.1725  0.7086 -0.6676
  695MOL0     H91689   3.283   6.958   7.858 -0.3308 -0.2666 -1.3323
  695MOL0     H91690   3.241   6.899   8.017 -2.5691  0.9978 -1.8343
  695MOL0     H91691   3.477   6.842   7.837  1.0974  0.2335  0.4785
  695MOL0     H91692   3.447   6.732   7.963 -3.0959 -1.2279 -0.6369
  695MOL0     H91693   3.447   6.835   8.219 -0.2222 -1.7328 -3.3445
  695MOL0     H91694   3.496   7.079   8.416 -1.3072 -3.0213 -3.6165
  695MOL0     H91695   3.576   7.219   8.343  0.0118 -0.3862 -0.6575
  695MOL0     H91696   3.787   7.083   8.316  0.9722  1.4098  0.5219
  695MOL0     H91697   3.708   6.955   8.399  3.4685 -0.2003  3.1555
  695MOL0     H91698   3.760   7.232   8.512  0.5935 -0.1158  1.2589
  695MOL0     H91699   3.639   7.125   8.586 -1.1084  2.0925 -1.4570
  695MOL0     H91700   3.827   6.971   8.642 -0.8276 -0.5467 -1.2463
  695MOL0     H91701   3.898   7.128   8.667  3.7060 -1.2862 -1.2895
  695MOL0     H91702   4.123   6.949   8.338 -1.1671 -0.7755 -0.3895
  695MOL0     H91703   4.359   6.865   8.394 -0.5729 -1.5953 -0.2577
  695MOL0     H91704   4.730   6.875   8.760 -2.1656  0.4750  1.9971
  695MOL0     H91705   4.942   6.759   8.792 -1.8170  1.9895 -0.3528
  695MOL0     H91706   4.940   6.339   8.988  1.1747 -1.5294  0.9331
  695MOL0     H91707   4.877   6.443   9.128  0.1655  2.1172 -0.2197
  695MOL0     H91708   5.060   6.309   9.195  4.7885 -1.2388  0.9170
  695MOL0     H91709   5.104   6.478   9.195  0.2952 -1.0412  0.7917
  695MOL0     H91710   5.289   6.362   9.084  1.2392 -1.0979 -0.4343
  695MOL0     H91711   5.192   6.434   8.953  1.7871  2.4370  3.1744
  695MOL0     H91712   5.220   6.165   9.055 -0.0835  0.2796  1.3001
  695MOL0     H91713   5.077   6.186   8.964 -0.6022  1.5283 -1.0542
  695MOL0     H91714   5.351   6.255   8.842  1.5188 -1.5804 -1.1519
  695MOL0     H91715   5.193   6.274   8.766  1.0846  0.7925 -0.3189
  695MOL0     H91716   5.147   6.028   8.799 -0.4558 -1.8494  1.1688
  695MOL0     H91717   5.309   6.023   8.866  2.7000  0.0894 -2.1887
  695MOL0     H91718   5.195   6.034   8.589  2.1602 -2.3221 -1.0239
  695MOL0     H91719   5.335   6.137   8.611 -1.3413  0.3557 -1.1459
  695MOL0     H91720   5.391   5.899   8.537  5.1416 -0.5359  0.5520
  695MOL0     H91721   5.315   5.842   8.692  1.3415 -0.6400 -0.0953
  695MOL0     H91722   4.697   6.451   8.996 -1.2245 -0.5294 -1.3591
  695MOL0     H91723   4.502   6.558   8.900  0.2181  0.0686  0.7757
  695MOL0     H91724   4.273   6.903   8.814  1.2619 -0.2197 -1.2109
  695MOL0     H91725   4.056   7.005   8.746 -0.3687  1.1968 -2.1267
  695MOL0     H91726   3.071   6.334   8.210  1.1175 -1.0795 -0.2346
  695MOL0     H91727   3.246   6.379   8.411 -1.2570 -1.5995  2.2394
  695MOL0     H91728   3.217   6.618   8.798 -1.4245  3.3681 -1.4618
  695MOL0     H91729   3.311   6.627   9.025  2.0376  0.9638  1.5470
  695MOL0     H91730   3.619   6.617   9.235 -0.8243 -3.8765 -0.3850
  695MOL0     H91731   3.497   6.549   9.125 -2.9963  0.8449 -1.3625
  695MOL0     H91732   3.322   6.676   9.232 -0.0416 -1.7556  0.3077
  695MOL0     H91733   3.411   6.590   9.351  3.1930  0.6756  1.2066
  695MOL0     H91734   3.497   6.883   9.302  4.2209 -0.1479  1.5930
  695MOL0     H91735   3.545   6.784   9.427  0.6922  1.8516  1.1490
  695MOL0     H91736   3.353   6.940   9.492  1.9007  0.0756  0.2701
  695MOL0     H91737   3.251   6.850   9.381 -0.1694 -1.3580 -0.4414
  695MOL0     H91738   3.212   6.625   9.723  2.2204 -1.3241  1.0740
  695MOL0     H91739   3.635   6.859   8.868 -1.0909  1.7272 -1.6352
  695MOL0     H91740   3.554   6.830   8.646  1.2315  1.6696  1.4533
  696MOL0     O91741   7.849  10.413   9.661  0.0221 -0.0181 -0.4377
  696MOL0     C91742   7.755  10.448   9.737 -0.3755 -0.7429 -0.7383
  696MOL0     O91743   7.670  10.370   9.818  0.2156 -0.4185 -0.1696
  696MOL0     C91744   7.689  10.237   9.823 -0.3316  0.1594 -0.8997
  696MOL0     C91745   7.663  10.169   9.946  0.7680  0.0876 -0.7393
  696MOL0     C91746   7.677  10.032   9.960  0.1393  0.0574 -0.0196
  696MOL0     C91747   7.701   9.947   9.849 -0.2352  0.1809 -0.7187
  696MOL0     O91748   7.690   9.813   9.847  0.4887  0.0308 -0.6576
  696MOL0     C91749   7.723   9.742   9.962  0.0253  0.7843 -0.0151
  696MOL0     C91750   7.726   9.598   9.922  0.0504 -0.7499 -0.2731
  696MOL0     C91751   7.716   9.507  10.043  0.0793 -0.4817 -0.3112
  696MOL0     C91752   7.726   9.355  10.013 -0.2960 -0.1608 -0.3745
  696MOL0     C91753   7.580   9.296  10.022 -0.6018 -0.4669  0.6096
  696MOL0     C91754   7.562   9.150   9.997  0.1083 -0.9243 -0.1924
  696MOL0     C91755   7.445   9.140   9.893  1.0406  0.3731 -0.2971
  696MOL0     C91756   7.389   9.002   9.899  0.0172  0.7062 -0.2960
  696MOL0     N91757   7.299   8.994   9.784  0.2915  1.1650  0.0110
  696MOL0     C91758   7.324   8.978   9.651  0.4788 -0.9461 -0.0970
  696MOL0     C91759   7.200   8.978   9.603  0.4663  1.4508  0.1176
  696MOL0     C91760   7.168   8.955   9.450 -0.4656 -1.1973 -0.1935
  696MOL0     C91761   7.162   9.082   9.355 -0.1141 -0.9434  0.4215
  696MOL0     C91762   7.034   9.165   9.382 -0.4954 -0.1910 -0.3345
  696MOL0     C91763   6.899   9.083   9.381 -0.4916 -0.5516 -0.2409
  696MOL0     O91764   6.797   9.186   9.373  0.0506  0.3637 -0.0384
  696MOL0     C91765   6.670   9.139   9.382  0.5258 -0.7601  0.6443
  696MOL0     C91766   6.613   9.012   9.360 -0.4998  0.1458 -0.2675
  696MOL0     C91767   6.477   8.995   9.356 -0.4781 -0.1983  0.0445
  696MOL0     C91768   6.390   9.097   9.382  0.4927  1.0080  0.0770
  696MOL0     C91769   6.249   9.066   9.384 -0.5070  1.1744  0.2848
  696MOL0     O91770   6.166   9.172   9.380 -0.1661 -0.3913  0.1353
  696MOL0     C91771   6.033   9.149   9.389 -0.4759 -0.9439  0.2053
  696MOL0     C91772   5.973   9.041   9.460 -0.7194  0.9597  0.7318
  696MOL0     C91773   5.832   9.024   9.454 -0.5044  0.1827 -0.1303
  696MOL0     C91774   5.760   9.115   9.373 -0.0381  0.8610  0.9413
  696MOL0     O91775   5.628   9.104   9.340 -0.0003 -0.5771  0.3816
  696MOL0     C91776   5.581   8.983   9.272  0.3355  0.0574 -0.5358
  696MOL0     C91777   5.447   9.012   9.208 -0.3533  0.4947 -0.7231
  696MOL0     C91778   5.327   9.006   9.306 -0.4823 -0.4641  0.3880
  696MOL0     C91779   5.207   9.084   9.257  0.5827 -0.0341  0.6176
  696MOL0     C91780   5.098   9.045   9.361  0.2349 -0.0900  0.0739
  696MOL0     C91781   4.986   9.140   9.339 -0.5278 -0.1075 -0.2182
  696MOL0     C91782   4.880   9.127   9.454 -0.5399 -0.3806 -0.2786
  696MOL0     C91783   4.928   9.209   9.577 -0.0074 -0.2227  0.3995
  696MOL0    Cl91784   4.801   9.177   9.698  0.3225 -0.0405  0.4776
  696MOL0     C91785   5.817   9.234   9.330  0.0029 -0.2177 -0.3137
  696MOL0     C91786   5.955   9.253   9.338  0.9815  0.5168  0.4442
  696MOL0     O91787   6.216   8.949   9.363  0.3326 -0.0004 -0.6991
  696MOL0     C91788   6.445   9.223   9.394  0.6716  0.2892 -0.4233
  696MOL0     C91789   6.581   9.243   9.390  0.4233 -0.0446  0.7821
  696MOL0     N91790   7.100   8.996   9.695 -1.2048 -0.8794  0.2147
  696MOL0     N91791   7.167   9.005   9.800 -0.9029  0.3874  0.4371
  696MOL0     C91792   7.725  10.017   9.731 -0.6226 -0.1427 -0.2028
  696MOL0     C91793   7.727  10.160   9.723 -1.0873 -0.0667 -0.3477
  696MOL0     C91794   7.712  10.594   9.754 -0.0697  0.9524  0.0163
  696MOL0     C91795   7.810  10.693   9.737 -0.3894 -0.1988  0.5546
  696MOL0     C91796   7.778  10.824   9.770  0.9970 -0.7321 -0.6970
  696MOL0     C91797   7.644  10.852   9.814 -0.9157 -1.0934  0.1021
  696MOL0     O91798   7.588  10.980   9.825  0.1013 -0.7510  0.7084
  696MOL0     C91799   7.677  11.082   9.767  0.2542 -1.0489  1.1686
  696MOL0     C91800   7.608  11.220   9.760  0.2594 -0.1424  0.4248
  696MOL0     C91801   7.575  11.274   9.900  0.1504  0.3642 -0.0334
  696MOL0     C91802   7.550  11.434   9.895  0.2294 -0.0469  0.8112
  696MOL0     C91803   7.504  11.488  10.018  0.4317 -0.1317  0.8782
  696MOL0     C91804   7.462  11.539  10.118 -0.0118  0.0151  0.4694
  696MOL0     C91805   7.555  10.755   9.855 -0.5536  0.2499 -0.1200
  696MOL0     C91806   7.591  10.624   9.819 -0.7161  0.6432 -0.3355
  696MOL0     H91807   7.641  10.232  10.032 -1.0718 -1.4753  0.0019
  696MOL0     H91808   7.648   9.993  10.057 -0.7948 -0.3138 -0.4322
  696MOL0     H91809   7.644   9.749  10.038  0.1281 -0.4687  0.2262
  696MOL0     H91810   7.819   9.762  10.011  0.7971 -0.2918 -1.0278
  696MOL0     H91811   7.817   9.573   9.867  1.1363 -1.0670  1.5944
  696MOL0     H91812   7.635   9.583   9.862 -1.2422  3.2130  0.3980
  696MOL0     H91813   7.626   9.527  10.103 -0.6268 -1.8284 -0.8717
  696MOL0     H91814   7.802   9.538  10.104  0.0210  1.8023 -1.2816
  696MOL0     H91815   7.769   9.349   9.912 -2.2075  2.4888 -1.4709
  696MOL0     H91816   7.793   9.311  10.087 -0.1408  3.1895  1.7163
  696MOL0     H91817   7.525   9.351   9.945  1.3625  3.0377  1.5208
  696MOL0     H91818   7.529   9.314  10.117 -0.7834 -0.8444  0.5874
  696MOL0     H91819   7.527   9.109  10.092 -1.8236  0.7128 -0.1380
  696MOL0     H91820   7.658   9.106   9.967  2.8962  4.7185 -0.8003
  696MOL0     H91821   7.358   9.199   9.923  1.6934  0.6645  1.0779
  696MOL0     H91822   7.481   9.169   9.793  2.7154  2.2641  0.7811
  696MOL0     H91823   7.352   8.969   9.996 -0.8126  0.7447 -0.5880
  696MOL0     H91824   7.472   8.931   9.888 -0.0778  0.2863  1.4184
  696MOL0     H91825   7.410   8.963   9.587 -0.5745 -1.7584 -1.3931
  696MOL0     H91826   7.076   8.901   9.429 -0.3457 -1.4938  0.0233
  696MOL0     H91827   7.253   8.899   9.408  1.8436  3.5691 -2.6712
  696MOL0     H91828   7.155   9.046   9.253 -0.5711  3.1855 -1.1861
  696MOL0     H91829   7.254   9.142   9.356  0.8635 -2.0947 -3.5191
  696MOL0     H91830   7.042   9.206   9.484 -3.0669 -1.2524  0.3767
  696MOL0     H91831   7.034   9.249   9.311 -0.8743 -0.7721 -1.0313
  696MOL0     H91832   6.885   9.027   9.474  1.1200 -0.1567  0.2741
  696MOL0     H91833   6.904   9.010   9.300  2.1265 -0.4906 -0.2234
  696MOL0     H91834   6.676   8.926   9.338 -4.3460 -2.9628 -0.3591
  696MOL0     H91835   6.449   8.892   9.334  1.5330 -0.1643 -3.3138
  696MOL0     H91836   6.044   8.985   9.519  2.5313  2.5836 -1.3366
  696MOL0     H91837   5.774   8.941   9.492 -1.7175 -0.7586 -3.6625
  696MOL0     H91838   5.566   8.898   9.340 -1.6156 -0.3289 -1.3965
  696MOL0     H91839   5.651   8.959   9.192  0.4050  0.2512 -0.5318
  696MOL0     H91840   5.435   8.933   9.133 -0.1223  1.7698 -2.1775
  696MOL0     H91841   5.469   9.111   9.164  1.6966 -0.2002 -1.3996
  696MOL0     H91842   5.358   9.051   9.401  1.6933 -0.9867 -0.0240
  696MOL0     H91843   5.312   8.899   9.325 -0.5946 -0.2558  1.5991
  696MOL0     H91844   5.231   9.191   9.261  1.9680 -0.3463  1.7886
  696MOL0     H91845   5.165   9.060   9.159  1.6976  2.3517 -0.5329
  696MOL0     H91846   5.137   9.059   9.462 -0.2295  0.6173  0.1661
  696MOL0     H91847   5.073   8.939   9.346 -0.0128 -0.0948  0.4918
  696MOL0     H91848   4.939   9.121   9.242  0.3883  1.1293 -0.9312
  696MOL0     H91849   5.015   9.245   9.349 -2.6928  0.6853 -1.5707
  696MOL0     H91850   4.787   9.174   9.421 -1.7196 -2.7950 -0.5549
  696MOL0     H91851   4.858   9.022   9.477 -4.5596  0.4668  0.5186
  696MOL0     H91852   4.931   9.317   9.562 -3.4301  0.1561  1.4996
  696MOL0     H91853   5.021   9.176   9.623  0.5064  1.2949  0.5090
  696MOL0     H91854   5.750   9.306   9.284 -1.2458 -0.3130  1.2489
  696MOL0     H91855   5.995   9.348   9.303 -0.2201  1.4240  1.4660
  696MOL0     H91856   6.378   9.308   9.406  1.2843  0.6232  0.8166
  696MOL0     H91857   6.603   9.348   9.401  0.3616  0.0603 -0.0671
  696MOL0     H91858   7.734   9.953   9.643  2.4048 -0.7652  0.4615
  696MOL0     H91859   7.750  10.200   9.625 -0.9991  0.0368 -0.2852
  696MOL0     H91860   7.914  10.680   9.707 -0.9618 -0.8515 -1.2589
  696MOL0     H91861   7.846  10.905   9.746 -2.0028  1.6011 -1.9338
  696MOL0     H91862   7.716  11.056   9.668  1.0812  0.4908  1.0628
  696MOL0     H91863   7.764  11.102   9.830 -1.0856  0.9330  2.4932
  696MOL0     H91864   7.673  11.283   9.700  0.8610 -1.2533 -0.1266
  696MOL0     H91865   7.514  11.198   9.709 -0.7052 -1.1568  2.5132
  696MOL0     H91866   7.658  11.245   9.964  0.9021  0.2422 -1.0460
  696MOL0     H91867   7.484  11.227   9.939 -0.4510  2.7825  1.7293
  696MOL0     H91868   7.644  11.486   9.874  1.4055 -2.1742  0.4847
  696MOL0     H91869   7.477  11.459   9.818  1.1039 -0.8175 -0.3135
  696MOL0     H91870   7.424  11.586  10.207 -0.4328 -0.2119  0.4149
  696MOL0     H91871   7.463  10.777   9.909  0.5135  0.4822  1.6653
  696MOL0     H91872   7.507  10.556   9.831 -2.3577  2.2936 -1.8496
  697MOL0     O91873   9.053   7.872   1.773  0.2525 -0.0385  0.4984
  697MOL0     C91874   9.036   7.833   1.884 -0.0259  0.8181 -0.0178
  697MOL0     O91875   9.068   7.703   1.924  0.5807 -0.2571  0.4740
  697MOL0     C91876   9.138   7.625   1.838 -0.0096 -0.8197 -0.0472
  697MOL0     C91877   9.249   7.675   1.769  0.0280  0.7083 -0.1217
  697MOL0     C91878   9.313   7.587   1.677  0.0915 -0.5932 -1.1229
  697MOL0     C91879   9.263   7.462   1.657  1.5100  0.4488  0.5248
  697MOL0     O91880   9.315   7.403   1.544 -0.3933  0.1529 -0.5337
  697MOL0     C91881   9.346   7.264   1.535 -0.3373 -0.5150 -0.3328
  697MOL0     C91882   9.290   7.208   1.408  0.2000 -0.2361  0.2257
  697MOL0     C91883   9.290   7.060   1.413 -0.6698 -0.1412 -0.1798
  697MOL0     C91884   9.212   7.010   1.286 -1.0993  0.4214 -0.5494
  697MOL0     C91885   9.189   6.858   1.297 -0.1990 -0.3265  0.8558
  697MOL0     C91886   9.149   6.794   1.172  0.4075 -0.1606 -0.0402
  697MOL0     C91887   9.144   6.636   1.185 -0.5241 -0.0889  0.5783
  697MOL0     C91888   9.170   6.584   1.039  0.6565  0.6463 -0.3571
  697MOL0     N91889   9.152   6.431   1.029  0.1143  0.2883 -0.2590
  697MOL0     C91890   9.100   6.363   0.920 -0.4435 -0.5672 -1.2339
  697MOL0     C91891   9.139   6.235   0.942  0.2860  0.3053  0.2276
  697MOL0     C91892   9.091   6.109   0.873  0.0333 -0.0072 -0.5413
  697MOL0     C91893   9.204   6.029   0.806  0.9596 -0.3173 -0.7979
  697MOL0     C91894   9.154   5.899   0.758 -0.6327  0.1670  0.1609
  697MOL0     C91895   9.263   5.800   0.734  0.0422 -0.9430 -0.1338
  697MOL0     O91896   9.331   5.832   0.613 -0.8025  0.4076  0.1861
  697MOL0     C91897   9.374   5.725   0.543 -0.5644 -0.8053 -0.0086
  697MOL0     C91898   9.335   5.716   0.406 -0.1134 -0.3063 -0.3569
  697MOL0     C91899   9.361   5.612   0.323 -0.4374  0.8600 -0.3465
  697MOL0     C91900   9.440   5.501   0.368  0.0332  0.5480 -0.7721
  697MOL0     C91901   9.483   5.390   0.277  0.7412  0.2459  1.0331
  697MOL0     O91902   9.565   5.290   0.322 -0.2343 -0.4778  1.2116
  697MOL0     C91903   9.633   5.204   0.242 -0.3970 -0.0724 -0.2055
  697MOL0     C91904   9.645   5.217   0.108  0.3186 -0.0301  0.0617
  697MOL0     C91905   9.727   5.140   0.036 -1.2073 -0.3018 -0.0021
  697MOL0     C91906   9.809   5.046   0.094  0.2935 -0.2098  0.1447
  697MOL0     O91907   9.911   4.983   0.020 -0.1797  0.0005 -0.5536
  697MOL0     C91908   9.863   4.878  -0.065 -0.4007  1.0821  0.1394
  697MOL0     C91909   9.942   4.753  -0.020 -0.0994  0.6202  0.1502
  697MOL0     C91910   9.928   4.631  -0.122  0.5792 -0.4144  0.1656
  697MOL0     C91911  10.018   4.519  -0.074  2.2486 -0.7580 -0.7932
  697MOL0     C91912   9.993   4.389  -0.150  0.1361 -0.1727  0.5503
  697MOL0     C91913  10.068   4.276  -0.064  0.5938 -0.5630  0.2398
  697MOL0     C91914  10.121   4.154  -0.144  0.5441  0.1077  0.7487
  697MOL0     C91915  10.191   4.054  -0.058 -0.3662  0.6578 -0.3278
  697MOL0    Cl91916  10.362   4.085  -0.034 -0.4303 -0.1180  0.3684
  697MOL0     C91917   9.792   5.027   0.227 -0.4309 -0.4389 -0.0987
  697MOL0     C91918   9.710   5.107   0.306 -0.1122 -0.0419 -0.5638
  697MOL0     O91919   9.434   5.394   0.160  0.5283  0.1899 -0.3833
  697MOL0     C91920   9.474   5.506   0.509  0.0464 -0.5916 -0.5898
  697MOL0     C91921   9.450   5.619   0.590 -0.1869 -0.4256  0.1905
  697MOL0     N91922   9.230   6.226   1.045 -0.5295 -0.2553 -0.0750
  697MOL0     N91923   9.233   6.345   1.097 -0.2252 -0.4880 -0.4531
  697MOL0     C91924   9.160   7.410   1.733  0.1022 -0.4252 -0.3215
  697MOL0     C91925   9.091   7.495   1.820 -0.6908  0.2260 -0.2083
  697MOL0     C91926   8.951   7.913   1.978 -0.4928  0.2587  0.1165
  697MOL0     C91927   8.889   7.860   2.097 -0.3508 -0.9502  0.5915
  697MOL0     C91928   8.822   7.951   2.181 -0.0725 -0.3687 -0.1001
  697MOL0     C91929   8.801   8.091   2.164  0.6355 -0.3688 -0.6598
  697MOL0     O91930   8.740   8.172   2.261  0.1211 -0.4115 -1.1813
  697MOL0     C91931   8.718   8.311   2.215 -0.2704  1.0660 -0.3641
  697MOL0     C91932   8.648   8.358   2.341 -0.8897 -0.1870 -0.5425
  697MOL0     C91933   8.751   8.375   2.456 -0.0249  0.5856  0.1371
  697MOL0     C91934   8.682   8.449   2.560  0.2588  0.3902  0.7877
  697MOL0     C91935   8.567   8.377   2.611 -0.3801 -0.3895 -0.4485
  697MOL0     C91936   8.478   8.305   2.656 -1.1001  0.6760 -0.1468
  697MOL0     C91937   8.858   8.131   2.037 -0.3202  1.1046 -0.6066
  697MOL0     C91938   8.931   8.046   1.950  0.5764 -0.1477  0.3117
  697MOL0     H91939   9.280   7.777   1.789  1.8741  0.3157 -0.7173
  697MOL0     H91940   9.387   7.628   1.608  0.2531 -0.3447 -0.8049
  697MOL0     H91941   9.332   7.209   1.628 -2.3508 -0.7701 -0.7479
  697MOL0     H91942   9.455   7.267   1.524 -0.2805 -2.4098 -0.6335
  697MOL0     H91943   9.341   7.257   1.324 -0.5964  1.9942  0.9572
  697MOL0     H91944   9.187   7.243   1.422  1.2188  1.7618  4.6786
  697MOL0     H91945   9.228   7.019   1.493  0.3308 -0.4109  0.4635
  697MOL0     H91946   9.390   7.017   1.421 -0.0900  0.4786 -2.9646
  697MOL0     H91947   9.118   7.065   1.282  0.0763  2.5965  0.2950
  697MOL0     H91948   9.262   7.043   1.195 -0.0207  2.5735  0.7649
  697MOL0     H91949   9.118   6.839   1.378  0.1401  2.5763  1.9411
  697MOL0     H91950   9.283   6.814   1.331  0.1955  0.6020  0.9947
  697MOL0     H91951   9.219   6.824   1.094  0.1541  0.8156  0.0869
  697MOL0     H91952   9.048   6.829   1.147 -0.0011 -0.6329  0.8840
  697MOL0     H91953   9.228   6.593   1.241  0.6340  2.7612  1.2234
  697MOL0     H91954   9.048   6.603   1.225 -0.7189  0.6840  0.7548
  697MOL0     H91955   9.278   6.598   1.029  1.0858 -1.4091  0.7652
  697MOL0     H91956   9.106   6.645   0.975 -0.4184  0.0301  0.1071
  697MOL0     H91957   9.030   6.400   0.846  1.6863  0.5397 -2.8116
  697MOL0     H91958   8.997   6.127   0.820  2.0852  2.9249 -3.5736
  697MOL0     H91959   9.057   6.042   0.952 -1.3212 -1.8414 -2.5437
  697MOL0     H91960   9.283   6.014   0.880  0.2634  2.4693  0.6583
  697MOL0     H91961   9.253   6.082   0.723  2.2440 -0.2748 -0.0325
  697MOL0     H91962   9.072   5.856   0.816 -0.9980 -0.9690 -1.1288
  697MOL0     H91963   9.112   5.909   0.658  0.7057 -1.7218 -0.6697
  697MOL0     H91964   9.218   5.702   0.719 -1.0165 -0.4815 -0.0960
  697MOL0     H91965   9.322   5.799   0.826  1.7710 -1.1803 -1.1952
  697MOL0     H91966   9.267   5.796   0.378 -0.4524 -0.2498  0.6099
  697MOL0     H91967   9.319   5.600   0.224 -4.0487  0.6558  1.0551
  697MOL0     H91968   9.586   5.287   0.050 -1.8310  0.0482  2.1913
  697MOL0     H91969   9.746   5.161  -0.068  0.3189  4.1489  0.9677
  697MOL0     H91970   9.872   4.905  -0.171 -2.9812  3.0015  0.3212
  697MOL0     H91971   9.758   4.846  -0.063 -0.1864  0.3141 -0.2566
  697MOL0     H91972   9.920   4.723   0.083 -2.0653 -1.2953 -0.7482
  697MOL0     H91973  10.047   4.782  -0.025 -0.5153  2.9158  2.6744
  697MOL0     H91974   9.931   4.653  -0.229 -2.3064 -2.5464 -0.5003
  697MOL0     H91975   9.820   4.610  -0.115 -0.5046  3.4032 -2.2511
  697MOL0     H91976  10.123   4.549  -0.077  3.3055 -4.1132 -2.4134
  697MOL0     H91977   9.980   4.516   0.029  1.6977  5.4618 -0.4774
  697MOL0     H91978  10.035   4.393  -0.251  3.3363 -0.6728  1.7714
  697MOL0     H91979   9.887   4.362  -0.162  0.4240 -0.9733 -0.3668
  697MOL0     H91980   9.993   4.238   0.006 -1.6567  0.6921 -1.3386
  697MOL0     H91981  10.154   4.317  -0.010  0.2934 -0.4668  0.6468
  697MOL0     H91982  10.035   4.107  -0.193 -1.3483  2.7034  1.3421
  697MOL0     H91983  10.188   4.185  -0.225  1.3571 -3.1136  0.0497
  697MOL0     H91984  10.188   3.954  -0.103 -1.2419  1.4608 -2.1680
  697MOL0     H91985  10.150   4.046   0.043 -0.4560  0.3994 -0.3863
  697MOL0     H91986   9.847   4.945   0.271 -1.2199 -2.3403 -2.4407
  697MOL0     H91987   9.696   5.108   0.413 -0.5827  0.5026 -0.6242
  697MOL0     H91988   9.505   5.418   0.565  0.0519  0.2270  0.7340
  697MOL0     H91989   9.476   5.632   0.694  4.1410  3.1615 -0.9773
  697MOL0     H91990   9.126   7.307   1.727 -2.0895  0.2006  0.4465
  697MOL0     H91991   9.011   7.453   1.880 -0.4286 -1.1196 -0.7575
  697MOL0     H91992   8.890   7.754   2.120 -0.3874 -1.0136  0.3003
  697MOL0     H91993   8.776   7.908   2.269 -0.2471  0.5958  0.2986
  697MOL0     H91994   8.663   8.313   2.121 -0.6141 -0.9436 -0.2655
  697MOL0     H91995   8.811   8.367   2.202 -1.1018  2.6547  0.3568
  697MOL0     H91996   8.613   8.459   2.317  0.4140  0.3565 -0.2710
  697MOL0     H91997   8.560   8.298   2.366 -0.5737 -0.7807 -0.8408
  697MOL0     H91998   8.845   8.421   2.423 -0.6136  0.1815 -2.3663
  697MOL0     H91999   8.775   8.277   2.497 -0.2117 -0.0856 -1.2798
  697MOL0     H92000   8.758   8.468   2.636  0.1668 -2.2281  1.6450
  697MOL0     H92001   8.652   8.545   2.519  2.3549  1.1802  0.9593
  697MOL0     H92002   8.395   8.246   2.690  0.2130 -1.4800 -0.4938
  697MOL0     H92003   8.875   8.236   2.014  0.1829  1.5091  1.4360
  697MOL0     H92004   8.980   8.078   1.859  0.5180 -0.5679  0.1285
  698MOL0     O92005   1.370   7.942   0.745 -0.4832 -0.4887 -0.2477
  698MOL0     C92006   1.258   7.890   0.743 -0.3056  0.0826 -0.4079
  698MOL0     O92007   1.133   7.959   0.769  0.0332  0.3887  0.4999
  698MOL0     C92008   1.129   8.090   0.777  0.6809 -0.1550 -0.3429
  698MOL0     C92009   1.141   8.140   0.902  0.3887 -0.5680  0.5463
  698MOL0     C92010   1.161   8.278   0.911  0.7388 -0.2892 -0.0861
  698MOL0     C92011   1.148   8.363   0.801  0.5070 -0.4073 -0.0723
  698MOL0     O92012   1.149   8.496   0.820 -0.0811 -0.4087  0.7529
  698MOL0     C92013   1.192   8.583   0.713  1.1634 -0.6124  0.6674
  698MOL0     C92014   1.217   8.732   0.762  0.6349 -0.3207 -1.6364
  698MOL0     C92015   1.268   8.820   0.646  1.0435  0.1682  0.2151
  698MOL0     C92016   1.248   8.965   0.674 -0.6993 -0.0670 -0.5214
  698MOL0     C92017   1.335   9.051   0.585  1.1438  0.6191 -0.5497
  698MOL0     C92018   1.257   9.092   0.456 -0.1798  0.0285  0.9959
  698MOL0     C92019   1.338   9.176   0.354  0.2412  0.5740  0.1676
  698MOL0     C92020   1.259   9.193   0.226  0.7675 -0.9342 -0.0728
  698MOL0     N92021   1.302   9.303   0.141  1.0309  0.6189 -0.5764
  698MOL0     C92022   1.302   9.290   0.010 -0.6158 -0.2979  0.5934
  698MOL0     C92023   1.341   9.409  -0.036  0.9868 -0.8704 -0.1780
  698MOL0     C92024   1.353   9.444  -0.178 -0.2517 -0.1338 -0.2374
  698MOL0     C92025   1.288   9.583  -0.212  0.4042 -0.4277 -0.2429
  698MOL0     C92026   1.143   9.592  -0.235 -0.3634  0.2737  0.5804
  698MOL0     C92027   1.111   9.740  -0.284  1.1178 -0.9014 -0.0898
  698MOL0     O92028   1.159   9.772  -0.419 -0.9019  0.1065 -0.5153
  698MOL0     C92029   1.061   9.770  -0.515 -0.1776  0.3523 -0.1961
  698MOL0     C92030   0.946   9.686  -0.516  0.6383 -0.0159  0.1630
  698MOL0     C92031   0.856   9.704  -0.621 -0.5373 -0.5781 -0.3958
  698MOL0     C92032   0.878   9.793  -0.727  0.6931  0.3838  0.9882
  698MOL0     C92033   0.781   9.803  -0.844 -0.2618 -0.8808 -0.1555
  698MOL0     O92034   0.827   9.871  -0.952 -0.4398 -0.9750  0.5257
  698MOL0     C92035   0.753   9.866  -1.060 -0.5129 -0.3318  1.0227
  698MOL0     C92036   0.685   9.978  -1.120 -0.5315  0.5793  0.9636
  698MOL0     C92037   0.621   9.969  -1.242  0.2238 -0.0828  0.0640
  698MOL0     C92038   0.610   9.846  -1.306 -0.0938  0.5080 -0.1667
  698MOL0     O92039   0.542   9.820  -1.426  0.1061  0.1202 -1.2451
  698MOL0     C92040   0.467   9.923  -1.493  0.2367 -0.0318  0.5401
  698MOL0     C92041   0.330   9.946  -1.421 -0.8419 -0.0294 -0.0052
  698MOL0     C92042   0.227   9.829  -1.439  0.2675  0.4269 -0.8766
  698MOL0     C92043   0.255   9.693  -1.379  0.0135 -0.0180  0.1565
  698MOL0     C92044   0.130   9.607  -1.410 -0.0759  0.3243 -0.0803
  698MOL0     C92045   0.181   9.461  -1.419  1.3985  0.5495  0.4107
  698MOL0     C92046   0.059   9.373  -1.452  0.5099  0.8051 -0.7551
  698MOL0     C92047   0.113   9.237  -1.496 -0.1807  0.1854  0.2886
  698MOL0    Cl92048   0.158   9.261  -1.672 -0.0653 -0.2146  0.1093
  698MOL0     C92049   0.673   9.739  -1.253 -0.1668 -0.4959  0.0492
  698MOL0     C92050   0.744   9.751  -1.138  0.1640 -0.4822 -0.6567
  698MOL0     O92051   0.666   9.768  -0.822 -0.7441 -0.2649 -0.0336
  698MOL0     C92052   1.000   9.868  -0.727  0.0881  0.9102  0.0299
  698MOL0     C92053   1.095   9.846  -0.625  0.1436  0.0254 -0.6845
  698MOL0     N92054   1.376   9.495   0.073  0.2140 -0.1792 -0.1183
  698MOL0     N92055   1.346   9.428   0.183 -0.0446 -0.8545  0.3034
  698MOL0     C92056   1.130   8.307   0.675 -0.6683 -0.0179  0.1733
  698MOL0     C92057   1.114   8.174   0.664  0.2964  0.6158 -0.0969
  698MOL0     C92058   1.254   7.748   0.713  0.4469 -0.5078 -0.0114
  698MOL0     C92059   1.370   7.676   0.669  0.0241  0.7061  0.4439
  698MOL0     C92060   1.361   7.543   0.627 -0.1645 -0.2268 -0.0991
  698MOL0     C92061   1.235   7.476   0.634  0.0681  0.9632 -0.6353
  698MOL0     O92062   1.228   7.333   0.621 -0.3698  0.0809  0.2346
  698MOL0     C92063   1.338   7.266   0.575  0.3505 -0.0071  0.5680
  698MOL0     C92064   1.318   7.112   0.568 -0.5276  0.3547  0.0912
  698MOL0     C92065   1.323   7.057   0.709  0.8059  0.6972 -0.2660
  698MOL0     C92066   1.362   6.910   0.717 -0.0718  0.3798  0.0223
  698MOL0     C92067   1.256   6.821   0.650 -1.1435 -1.0578 -0.1118
  698MOL0     C92068   1.167   6.757   0.602  0.1680 -0.1508 -0.4371
  698MOL0     C92069   1.126   7.547   0.676  0.1378 -0.6256 -0.3308
  698MOL0     C92070   1.134   7.682   0.705 -0.7729  0.0943 -0.7739
  698MOL0     H92071   1.153   8.079   0.992  1.3273  0.4815  1.1568
  698MOL0     H92072   1.190   8.336   0.997  0.2284 -0.5931  0.2932
  698MOL0     H92073   1.124   8.579   0.628  1.3714 -1.3333  0.5276
  698MOL0     H92074   1.282   8.541   0.668 -1.1616 -1.8319 -3.2938
  698MOL0     H92075   1.291   8.718   0.842 -1.3514 -1.0335  0.1933
  698MOL0     H92076   1.125   8.767   0.809 -0.2453 -4.0057 -0.1848
  698MOL0     H92077   1.233   8.784   0.549  1.9540  0.5330 -0.2565
  698MOL0     H92078   1.375   8.800   0.643  0.9396 -0.3158 -1.0463
  698MOL0     H92079   1.145   9.001   0.682 -0.6378 -0.1404  0.7580
  698MOL0     H92080   1.289   8.979   0.774  1.5880  2.5172 -1.6780
  698MOL0     H92081   1.428   9.004   0.552  1.2621  1.4180 -1.3995
  698MOL0     H92082   1.339   9.145   0.641  2.0160  1.1378 -1.4557
  698MOL0     H92083   1.173   9.156   0.484 -0.0999  0.9728 -0.8462
  698MOL0     H92084   1.210   9.004   0.411 -1.5083  0.4632  1.4644
  698MOL0     H92085   1.376   9.271   0.391 -0.4239  0.7186  0.4976
  698MOL0     H92086   1.425   9.115   0.327  0.0722  0.8592 -1.0816
  698MOL0     H92087   1.156   9.211   0.259 -0.3686 -2.2210 -2.5937
  698MOL0     H92088   1.268   9.099   0.170  0.3030 -0.6459 -0.6380
  698MOL0     H92089   1.283   9.201  -0.050  0.1616  0.9231 -1.5572
  698MOL0     H92090   1.312   9.370  -0.248 -0.2829  0.9620 -1.4059
  698MOL0     H92091   1.458   9.458  -0.205 -0.2207  0.5462  0.2151
  698MOL0     H92092   1.340   9.631  -0.295  2.1066 -0.0019  1.0009
  698MOL0     H92093   1.314   9.653  -0.132  0.5044 -0.2695 -0.4139
  698MOL0     H92094   1.097   9.520  -0.303  1.9614 -0.9109  0.1578
  698MOL0     H92095   1.093   9.576  -0.139  2.1569 -0.9420  1.7851
  698MOL0     H92096   1.144   9.802  -0.200  0.8372 -2.1334  0.9763
  698MOL0     H92097   1.003   9.754  -0.273  0.8201 -2.2388 -1.0548
  698MOL0     H92098   0.923   9.625  -0.429  1.4532  0.1110  0.4765
  698MOL0     H92099   0.764   9.648  -0.611 -0.1806 -1.1730 -0.3930
  698MOL0     H92100   0.672  10.080  -1.083 -2.2849  1.2711 -1.3384
  698MOL0     H92101   0.566  10.059  -1.268  2.0548  2.4257  4.0834
  698MOL0     H92102   0.429   9.893  -1.591 -3.0384  0.7631  1.4373
  698MOL0     H92103   0.522  10.018  -1.503 -0.5782  0.8176  3.2824
  698MOL0     H92104   0.294  10.035  -1.473 -0.1734 -0.2019 -0.7932
  698MOL0     H92105   0.349   9.970  -1.316 -0.8448  0.7486 -0.1795
  698MOL0     H92106   0.203   9.818  -1.545 -0.5061  0.0927 -0.6706
  698MOL0     H92107   0.134   9.860  -1.390  0.0287 -1.4678 -0.0693
  698MOL0     H92108   0.344   9.650  -1.425  0.3567  0.8972 -0.0601
  698MOL0     H92109   0.269   9.697  -1.270 -0.6956  3.3256  0.2355
  698MOL0     H92110   0.092   9.622  -1.512 -1.4197 -1.6359  0.0730
  698MOL0     H92111   0.053   9.617  -1.333 -2.3247 -0.6401 -2.0815
  698MOL0     H92112   0.214   9.444  -1.317  0.9287  1.7892  0.7845
  698MOL0     H92113   0.266   9.451  -1.488 -0.2958  0.5589 -1.7802
  698MOL0     H92114  -0.002   9.364  -1.361  0.4784  0.0794 -0.8427
  698MOL0     H92115  -0.005   9.418  -1.528  3.9897  2.1368 -3.1395
  698MOL0     H92116   0.038   9.157  -1.500  1.7111 -1.7192 -3.9336
  698MOL0     H92117   0.201   9.194  -1.448  1.4132 -1.3283 -3.5385
  698MOL0     H92118   0.659   9.644  -1.304 -3.4671 -0.4718  0.6879
  698MOL0     H92119   0.808   9.673  -1.097  1.6086  0.1802 -1.5564
  698MOL0     H92120   1.021   9.931  -0.813 -1.3533  2.0655  0.4851
  698MOL0     H92121   1.188   9.902  -0.627 -0.6630  1.4138 -0.5032
  698MOL0     H92122   1.136   8.376   0.591  1.8619  3.0339  2.5952
  698MOL0     H92123   1.090   8.124   0.570 -0.2342 -1.3286  1.0129
  698MOL0     H92124   1.466   7.725   0.678  0.2015  0.4594 -0.0903
  698MOL0     H92125   1.458   7.495   0.624 -0.1703 -0.4183  1.5994
  698MOL0     H92126   1.424   7.288   0.639  0.6790  2.5007 -0.5959
  698MOL0     H92127   1.359   7.295   0.471 -1.1852 -1.5944 -0.2259
  698MOL0     H92128   1.220   7.094   0.523  0.3306  0.5231 -1.9564
  698MOL0     H92129   1.401   7.080   0.504  0.5153 -0.0086  1.5701
  698MOL0     H92130   1.229   7.075   0.762  0.2566 -0.2367 -0.8981
  698MOL0     H92131   1.408   7.102   0.759  2.0301 -1.0589 -0.6825
  698MOL0     H92132   1.458   6.899   0.664 -0.8121 -0.9610 -1.1040
  698MOL0     H92133   1.368   6.881   0.822 -1.2761  1.6392  0.4669
  698MOL0     H92134   1.086   6.698   0.563  0.3115  1.1752 -2.9222
  698MOL0     H92135   1.033   7.492   0.668  1.3398 -2.7528 -0.4771
  698MOL0     H92136   1.057   7.753   0.733  3.0391  4.7597 -0.7019
  699MOL0     O92137   6.133   1.102   9.792  0.3598  0.4336  0.0095
  699MOL0     C92138   6.054   1.154   9.870  0.0745 -0.1155 -0.3007
  699MOL0     O92139   5.942   1.094   9.917 -0.0857  0.0958 -0.0492
  699MOL0     C92140   5.909   0.962   9.893  0.9903 -0.4933  1.4752
  699MOL0     C92141   5.914   0.896   9.767 -0.2852 -0.9849  0.2355
  699MOL0     C92142   5.881   0.759   9.760 -0.5387  0.3620 -0.5353
  699MOL0     C92143   5.828   0.692   9.877  0.3127  0.0092  0.2499
  699MOL0     O92144   5.788   0.560   9.881 -0.1741 -0.1284  0.3366
  699MOL0     C92145   5.883   0.474   9.817  0.6007 -0.1527 -0.4175
  699MOL0     C92146   6.003   0.451   9.912  0.0017 -0.6346 -0.4848
  699MOL0     C92147   5.955   0.358  10.031 -0.3283  0.2949  0.0929
  699MOL0     C92148   6.069   0.297  10.120  0.3327  0.5003 -0.4169
  699MOL0     C92149   6.008   0.229  10.242 -0.0966  0.4488 -0.4550
  699MOL0     C92150   6.114   0.188  10.336 -0.2883  0.5676 -1.2062
  699MOL0     C92151   6.213   0.086  10.287 -0.1880  0.1356 -0.6132
  699MOL0     C92152   6.154  -0.056  10.282  0.9438 -0.0869  0.1905
  699MOL0     N92153   6.073  -0.102  10.398 -0.3848 -0.8387 -0.4059
  699MOL0     C92154   6.119  -0.103  10.525  0.2230 -0.4662  0.0583
  699MOL0     C92155   6.000  -0.133  10.589  0.3125  0.2579 -0.9046
  699MOL0     C92156   6.000  -0.172  10.735  0.7095 -0.3746  0.6889
  699MOL0     C92157   5.858  -0.199  10.801 -0.1574  0.5898 -0.2601
  699MOL0     C92158   5.813  -0.341  10.803 -0.2705  0.7768 -0.4155
  699MOL0     C92159   5.876  -0.443  10.901  0.2323 -0.6861 -0.0243
  699MOL0     O92160   5.804  -0.565  10.876 -0.2795 -0.1482 -0.0228
  699MOL0     C92161   5.771  -0.640  10.985 -0.6830 -1.5951  0.3014
  699MOL0     C92162   5.660  -0.715  10.972 -0.3372  0.2367 -0.3086
  699MOL0     C92163   5.618  -0.804  11.081 -0.3476  0.4464 -0.1177
  699MOL0     C92164   5.702  -0.814  11.197 -0.0053  1.1298 -0.9339
  699MOL0     C92165   5.659  -0.912  11.303  0.2375  0.6751 -0.0739
  699MOL0     O92166   5.568  -1.016  11.271 -0.2955 -0.1574  0.2180
  699MOL0     C92167   5.534  -1.099  11.372  0.5991 -0.1301  0.5056
  699MOL0     C92168   5.523  -1.230  11.332  0.0266 -0.3791 -0.2752
  699MOL0     C92169   5.481  -1.331  11.422  0.3505 -0.0968 -1.2873
  699MOL0     C92170   5.457  -1.291  11.557  0.0014  0.0260 -0.7987
  699MOL0     O92171   5.417  -1.389  11.651 -0.3982 -1.0852  0.5378
  699MOL0     C92172   5.404  -1.357  11.789 -0.3347 -0.1512  0.5611
  699MOL0     C92173   5.423  -1.480  11.884 -0.1938 -0.4341 -0.5072
  699MOL0     C92174   5.433  -1.439  12.028  0.7708  0.3308 -0.3235
  699MOL0     C92175   5.311  -1.366  12.087 -0.6674 -0.1005 -0.3613
  699MOL0     C92176   5.336  -1.342  12.239  0.2865 -0.6433  0.4800
  699MOL0     C92177   5.211  -1.276  12.311  0.1238  0.0100  0.2203
  699MOL0     C92178   5.078  -1.340  12.280  0.7273  0.0628  1.0318
  699MOL0     C92179   5.065  -1.474  12.354 -0.7279 -1.1586 -0.4289
  699MOL0    Cl92180   5.154  -1.619  12.287 -0.1140 -0.0816 -0.0794
  699MOL0     C92181   5.470  -1.150  11.598 -1.0989 -0.0823  0.9455
  699MOL0     C92182   5.515  -1.056  11.506  0.3905  0.5646 -0.1751
  699MOL0     O92183   5.740  -0.913  11.396 -0.0458 -0.7851 -0.0038
  699MOL0     C92184   5.820  -0.745  11.204 -0.2547  0.7894  0.0727
  699MOL0     C92185   5.843  -0.653  11.100 -0.2998 -0.0257 -0.2404
  699MOL0     N92186   5.898  -0.151  10.497 -0.5219 -0.0557  0.8685
  699MOL0     N92187   5.940  -0.120  10.380 -0.4200  0.4582 -0.0607
  699MOL0     C92188   5.836   0.752  10.003 -0.3017 -0.1188  0.6865
  699MOL0     C92189   5.872   0.888  10.002 -0.0252 -0.6088 -0.1011
  699MOL0     C92190   6.077   1.297   9.903  0.6624  0.0279 -0.6975
  699MOL0     C92191   6.028   1.339  10.029 -0.8659 -0.8140 -1.3344
  699MOL0     C92192   6.068   1.457  10.084  0.6838 -0.0964 -0.3709
  699MOL0     C92193   6.154   1.550  10.014 -0.2268  0.0203 -0.1762
  699MOL0     O92194   6.205   1.667  10.065 -0.0738 -0.6462  0.2563
  699MOL0     C92195   6.127   1.720  10.174  1.1467  0.1446  0.1647
  699MOL0     C92196   6.171   1.854  10.224  0.1236 -0.7605 -0.7077
  699MOL0     C92197   6.110   1.963  10.128 -0.4785  0.5259 -0.0222
  699MOL0     C92198   6.187   1.991   9.991 -0.4696 -0.4033  0.1158
  699MOL0     C92199   6.136   1.903   9.879 -0.2035 -0.6223 -0.7525
  699MOL0     C92200   6.109   1.823   9.793  0.2199 -0.1223  0.2260
  699MOL0     C92201   6.193   1.509   9.888 -0.3467  0.5047  0.7505
  699MOL0     C92202   6.170   1.380   9.839  0.9753  0.2972 -0.1691
  699MOL0     H92203   5.958   0.958   9.690  1.5724 -1.7633  0.6096
  699MOL0     H92204   5.895   0.707   9.666  2.2363 -1.3630  0.7095
  699MOL0     H92205   5.914   0.511   9.719  1.3415 -2.2786 -1.0512
  699MOL0     H92206   5.835   0.377   9.807  3.1842 -1.4825 -0.8872
  699MOL0     H92207   6.046   0.547   9.943  2.4643 -1.8439  0.0729
  699MOL0     H92208   6.087   0.406   9.859  1.1639 -1.2495  1.7403
  699MOL0     H92209   5.908   0.267   9.993 -1.6679  1.1819 -0.4512
  699MOL0     H92210   5.887   0.412  10.097  1.4916  0.0601  2.2662
  699MOL0     H92211   6.128   0.229  10.059 -0.3775 -0.3117 -0.2235
  699MOL0     H92212   6.134   0.378  10.155  1.9272 -0.2166 -1.5939
  699MOL0     H92213   5.945   0.144  10.210 -0.5318  0.9808 -1.0375
  699MOL0     H92214   5.951   0.304  10.298  2.8937  1.0308  2.0960
  699MOL0     H92215   6.061   0.152  10.425 -3.1220  2.2920 -2.0533
  699MOL0     H92216   6.171   0.274  10.369 -1.2966  0.2667  1.5848
  699MOL0     H92217   6.251   0.110  10.188  1.2264  3.3442  0.5537
  699MOL0     H92218   6.298   0.090  10.356 -1.5583 -1.5294  1.3131
  699MOL0     H92219   6.225  -0.136  10.261  2.9663  1.7495 -0.3029
  699MOL0     H92220   6.082  -0.058  10.199  0.1973 -0.7246  0.8330
  699MOL0     H92221   6.217  -0.076  10.564  0.0250  1.2660 -0.5649
  699MOL0     H92222   6.048  -0.093  10.793 -1.4738  1.7552 -0.1993
  699MOL0     H92223   6.069  -0.257  10.743  2.0395  0.4705 -1.0604
  699MOL0     H92224   5.785  -0.131  10.755 -0.2476 -1.2914 -3.1922
  699MOL0     H92225   5.858  -0.180  10.908 -2.6425  0.2552 -0.1558
  699MOL0     H92226   5.705  -0.335  10.819 -0.3839  0.2394 -0.9095
  699MOL0     H92227   5.825  -0.383  10.702 -1.8390 -0.6130 -0.0837
  699MOL0     H92228   5.859  -0.410  11.004  0.7317  0.4716 -0.3016
  699MOL0     H92229   5.982  -0.453  10.877  0.6677 -2.1772  2.1822
  699MOL0     H92230   5.613  -0.714  10.874 -1.8045  0.3665  0.3742
  699MOL0     H92231   5.523  -0.857  11.089  0.1701 -0.4816  0.0824
  699MOL0     H92232   5.527  -1.257  11.227 -0.0315  2.6998 -1.1698
  699MOL0     H92233   5.473  -1.435  11.390 -0.0229 -0.7573  0.7778
  699MOL0     H92234   5.307  -1.313  11.815 -0.2315 -0.8916  2.3709
  699MOL0     H92235   5.485  -1.294  11.827  0.1826 -0.8788  0.6851
  699MOL0     H92236   5.511  -1.544  11.870  0.0225 -0.5871  1.2837
  699MOL0     H92237   5.335  -1.543  11.865 -1.6933  1.2173  0.6417
  699MOL0     H92238   5.524  -1.378  12.038  1.5133 -0.6129 -1.0455
  699MOL0     H92239   5.450  -1.529  12.088  1.8609 -0.1478 -1.3128
  699MOL0     H92240   5.306  -1.268  12.038  1.3301 -0.0999 -0.6412
  699MOL0     H92241   5.221  -1.420  12.056 -0.1945 -0.9908 -0.2172
  699MOL0     H92242   5.419  -1.272  12.249  0.9346 -1.1903 -0.8213
  699MOL0     H92243   5.368  -1.430  12.296  1.8110 -0.0087  0.6666
  699MOL0     H92244   5.199  -1.176  12.267 -1.1643  1.1258  2.9062
  699MOL0     H92245   5.220  -1.265  12.419 -1.6976  1.6877  0.2693
  699MOL0     H92246   4.993  -1.277  12.307  0.3947  0.0379  0.0727
  699MOL0     H92247   5.058  -1.363  12.175  0.3296 -2.0602  1.5125
  699MOL0     H92248   4.962  -1.512  12.357  0.0427 -3.4468 -0.8446
  699MOL0     H92249   5.092  -1.439  12.454 -3.0334  3.8855 -1.2648
  699MOL0     H92250   5.454  -1.127  11.703  0.0099 -2.7839  1.7943
  699MOL0     H92251   5.539  -0.956  11.540  3.5440 -0.5569  1.3162
  699MOL0     H92252   5.888  -0.750  11.288 -0.5128  5.6532  0.8747
  699MOL0     H92253   5.931  -0.591  11.116  0.0829 -0.9038  1.2072
  699MOL0     H92254   5.791   0.706  10.090 -1.6579  2.8959  1.6952
  699MOL0     H92255   5.866   0.940  10.097 -0.3141  0.6790 -0.8017
  699MOL0     H92256   5.983   1.265  10.095  1.8179 -2.3521 -1.0659
  699MOL0     H92257   6.028   1.485  10.181  1.1285  1.9016 -0.7141
  699MOL0     H92258   6.125   1.641  10.249  1.0667 -1.8267 -1.7803
  699MOL0     H92259   6.023   1.730  10.141  1.4519 -0.0366 -0.9158
  699MOL0     H92260   6.147   1.881  10.327 -1.2213 -2.6004 -0.5050
  699MOL0     H92261   6.281   1.856  10.222  0.2774  0.3291  2.4789
  699MOL0     H92262   6.103   2.061  10.176  0.6997 -0.9434  3.5239
  699MOL0     H92263   6.005   1.934  10.111 -0.2404 -0.1048 -0.4899
  699MOL0     H92264   6.161   2.095   9.970  1.4647  0.5762  2.1921
  699MOL0     H92265   6.294   1.974   9.998 -0.1959  0.4174 -1.5391
  699MOL0     H92266   6.070   1.755   9.719 -1.3377  0.7620  0.1955
  699MOL0     H92267   6.256   1.574   9.829  2.7783 -2.7378  0.1238
  699MOL0     H92268   6.201   1.342   9.742 -1.9073  0.4756 -1.2264
  700MOL0     O92269   0.549  11.229   2.570 -0.1406 -0.6994 -0.1386
  700MOL0     C92270   0.480  11.224   2.668  0.5073  0.2664 -0.4885
  700MOL0     O92271   0.340  11.186   2.659 -0.0058 -0.1829  0.4010
  700MOL0     C92272   0.289  11.142   2.546 -0.1623 -0.3190 -0.2095
  700MOL0     C92273   0.161  11.186   2.520 -1.1253 -0.6517  0.7716
  700MOL0     C92274   0.090  11.150   2.400  0.8440  0.3590  0.3494
  700MOL0     C92275   0.140  11.056   2.321  0.5032  0.2951  0.5962
  700MOL0     O92276   0.084  11.010   2.201  0.1609  0.0793  0.5057
  700MOL0     C92277   0.010  11.105   2.116 -0.1254  0.9450  0.3774
  700MOL0     C92278  -0.027  11.031   1.989  0.3474 -0.3415  0.6112
  700MOL0     C92279  -0.148  10.937   2.018  0.8728 -0.0322 -0.2631
  700MOL0     C92280  -0.107  10.805   2.082  0.2992  0.4002 -1.0983
  700MOL0     C92281  -0.220  10.706   2.084  0.1658  0.2867  0.4015
  700MOL0     C92282  -0.279  10.652   1.947 -0.2564 -0.5732  0.6281
  700MOL0     C92283  -0.385  10.536   1.965  0.7898  0.1238  0.5925
  700MOL0     C92284  -0.523  10.586   1.936  1.5231 -0.1750 -0.1037
  700MOL0     N92285  -0.570  10.668   2.046 -0.7311  0.2964 -0.2340
  700MOL0     C92286  -0.606  10.613   2.171 -0.3727  0.7750 -1.0837
  700MOL0     C92287  -0.665  10.722   2.219 -0.1339 -1.2649 -1.4924
  700MOL0     C92288  -0.746  10.736   2.351  0.3982  0.6270 -0.2404
  700MOL0     C92289  -0.898  10.749   2.318  0.7735  0.0437  0.0221
  700MOL0     C92290  -0.981  10.765   2.449  0.0390 -0.2155 -1.1662
  700MOL0     C92291  -1.130  10.804   2.425  0.1222  0.9477  0.3865
  700MOL0     O92292  -1.189  10.862   2.535 -0.6839  0.0156  0.8743
  700MOL0     C92293  -1.150  10.991   2.566  0.1671  0.0640 -0.4123
  700MOL0     C92294  -1.181  11.025   2.693  0.2846  0.7035  0.1727
  700MOL0     C92295  -1.178  11.162   2.728  0.1499  0.8768 -0.0266
  700MOL0     C92296  -1.135  11.260   2.634 -0.0343  0.6968 -0.4396
  700MOL0     C92297  -1.128  11.405   2.658  0.3168 -0.1964  0.5148
  700MOL0     O92298  -1.140  11.488   2.548 -0.1812  0.4797  0.2015
  700MOL0     C92299  -1.143  11.622   2.578  0.2325  0.1472  0.8779
  700MOL0     C92300  -1.036  11.682   2.647  0.4349  0.4821 -0.4052
  700MOL0     C92301  -1.023  11.819   2.687 -0.3646 -0.2193  0.0210
  700MOL0     C92302  -1.124  11.902   2.666  1.0150 -0.2357  0.3595
  700MOL0     O92303  -1.120  12.038   2.689 -0.1880 -0.3380  0.0926
  700MOL0     C92304  -0.995  12.100   2.689 -0.0060 -0.2107  1.0774
  700MOL0     C92305  -1.011  12.246   2.679  0.1054 -0.3092 -0.6497
  700MOL0     C92306  -0.894  12.326   2.747 -0.3684 -1.0928  0.2552
  700MOL0     C92307  -0.906  12.479   2.702  1.1454  0.6275  0.1059
  700MOL0     C92308  -0.764  12.557   2.672  0.5270  0.0627 -0.7947
  700MOL0     C92309  -0.708  12.600   2.806  1.0746 -0.5536 -0.2463
  700MOL0     C92310  -0.557  12.617   2.796 -0.2919  0.5476  0.3339
  700MOL0     C92311  -0.508  12.732   2.723  0.1329 -1.2941 -0.5371
  700MOL0    Cl92312  -0.540  12.891   2.816 -0.3355  0.0731  0.3797
  700MOL0     C92313  -1.234  11.847   2.596 -0.2691 -0.0713  0.0871
  700MOL0     C92314  -1.248  11.712   2.556  0.4081  0.5329 -0.5488
  700MOL0     O92315  -1.115  11.437   2.773 -0.6452  0.4875  0.1508
  700MOL0     C92316  -1.082  11.217   2.513 -0.1532 -0.1487  0.8107
  700MOL0     C92317  -1.096  11.085   2.477  0.2249  0.4462 -0.1411
  700MOL0     N92318  -0.652  10.831   2.133  0.9740 -0.0833  0.1799
  700MOL0     N92319  -0.590  10.802   2.030 -0.4821  0.3737 -0.3198
  700MOL0     C92320   0.275  11.010   2.346 -0.5806  0.4868  0.1916
  700MOL0     C92321   0.354  11.053   2.456 -0.0457 -0.2756  0.0216
  700MOL0     C92322   0.541  11.267   2.797  0.1736  0.9485 -0.1875
  700MOL0     C92323   0.477  11.244   2.915 -0.0028 -0.0672 -0.3380
  700MOL0     C92324   0.526  11.299   3.029 -0.0866  0.3186 -0.3376
  700MOL0     C92325   0.653  11.381   3.037  0.9283  0.4183 -0.5012
  700MOL0     O92326   0.694  11.447   3.145  0.6124 -0.7884 -0.1295
  700MOL0     C92327   0.793  11.392   3.227 -0.7447 -0.0866 -0.0715
  700MOL0     C92328   0.948  11.393   3.175 -0.1465 -0.8420 -0.2062
  700MOL0     C92329   1.007  11.528   3.131 -0.3583 -0.0128  0.7554
  700MOL0     C92330   1.003  11.621   3.256  0.3308  0.1039 -0.0940
  700MOL0     C92331   1.109  11.581   3.353  0.4783  0.5775  0.4415
  700MOL0     C92332   1.211  11.566   3.413 -0.2882  0.7432  0.6077
  700MOL0     C92333   0.718  11.398   2.910  0.6665  0.3193  0.0863
  700MOL0     C92334   0.660  11.334   2.801  0.0964  0.5800 -0.2309
  700MOL0     H92335   0.133  11.257   2.598 -0.5950 -2.6475  2.9024
  700MOL0     H92336   0.002  11.210   2.376  0.3226 -0.4912  0.0950
  700MOL0     H92337   0.060  11.198   2.086 -1.3442  1.3876 -0.3590
  700MOL0     H92338  -0.074  11.144   2.174 -1.5676 -0.6718 -0.5691
  700MOL0     H92339   0.059  10.973   1.952  1.1823  0.1543  1.7181
  700MOL0     H92340  -0.053  11.104   1.911  0.7711 -1.4458 -0.6081
  700MOL0     H92341  -0.213  10.926   1.931 -1.3982 -0.9963  1.4546
  700MOL0     H92342  -0.216  10.984   2.090  1.4164 -0.2522  0.4048
  700MOL0     H92343  -0.013  10.768   2.040  0.0248 -3.7893  1.5253
  700MOL0     H92344  -0.080  10.826   2.186 -0.8344  0.5903 -0.8329
  700MOL0     H92345  -0.306  10.744   2.141  0.8059 -0.8626  2.2157
  700MOL0     H92346  -0.192  10.624   2.151 -1.5517 -1.6722 -1.1389
  700MOL0     H92347  -0.194  10.612   1.890  2.1553  2.3954  1.8736
  700MOL0     H92348  -0.317  10.733   1.884  1.7399  1.3100  1.7186
  700MOL0     H92349  -0.362  10.458   1.892  0.1410 -0.6609  1.2133
  700MOL0     H92350  -0.367  10.493   2.063  0.3332  0.3130  0.7597
  700MOL0     H92351  -0.583  10.495   1.939  0.1652  0.7170  1.7689
  700MOL0     H92352  -0.535  10.644   1.844  0.6280  0.1802  0.2224
  700MOL0     H92353  -0.574  10.518   2.214  0.0972  2.3371  2.3624
  700MOL0     H92354  -0.719  10.822   2.413 -0.5066 -0.4260  1.7088
  700MOL0     H92355  -0.714  10.646   2.403 -0.7107  0.2224 -0.2400
  700MOL0     H92356  -0.932  10.661   2.262  1.4935  1.0119 -2.0283
  700MOL0     H92357  -0.922  10.831   2.250 -0.1975  0.3169  0.6721
  700MOL0     H92358  -0.977  10.672   2.507 -2.2818 -0.9102 -2.0059
  700MOL0     H92359  -0.932  10.842   2.509 -1.2037 -1.6341  1.9273
  700MOL0     H92360  -1.194  10.722   2.391 -0.0325  0.9215  0.7303
  700MOL0     H92361  -1.138  10.873   2.342 -0.3000  0.7391  0.2490
  700MOL0     H92362  -1.213  10.951   2.766  2.0561 -0.6275 -0.3421
  700MOL0     H92363  -1.217  11.189   2.825 -1.1746  0.0671 -0.2975
  700MOL0     H92364  -0.948  11.618   2.648 -0.6463 -1.0863 -1.1949
  700MOL0     H92365  -0.931  11.856   2.731 -1.8489  0.3911  2.9192
  700MOL0     H92366  -0.926  12.064   2.613 -2.4699 -0.1187 -1.3385
  700MOL0     H92367  -0.949  12.084   2.787  1.9279 -0.1027  0.2232
  700MOL0     H92368  -1.097  12.284   2.735  0.1420  2.5327 -2.3405
  700MOL0     H92369  -1.038  12.280   2.579  0.5310  2.9392  0.2531
  700MOL0     H92370  -0.796  12.297   2.710 -0.2108  0.1183 -0.3278
  700MOL0     H92371  -0.899  12.310   2.855 -1.5531  0.9226  0.5503
  700MOL0     H92372  -0.961  12.487   2.608 -1.9792  0.1790  1.7408
  700MOL0     H92373  -0.968  12.536   2.772 -0.8590  1.7713 -2.4298
  700MOL0     H92374  -0.796  12.647   2.619  1.7300  1.1024  0.1707
  700MOL0     H92375  -0.691  12.493   2.623  0.6421  0.2760 -0.9034
  700MOL0     H92376  -0.736  12.525   2.881 -2.4513 -1.0958 -1.8998
  700MOL0     H92377  -0.752  12.697   2.828 -0.2744 -1.4990  1.4397
  700MOL0     H92378  -0.526  12.635   2.900  4.1053 -0.4798 -0.5700
  700MOL0     H92379  -0.511  12.526   2.755 -2.8588 -0.3221 -0.7909
  700MOL0     H92380  -0.555  12.726   2.625  0.5579 -1.5008 -0.7327
  700MOL0     H92381  -0.398  12.731   2.716  0.7800 -0.9419  4.9272
  700MOL0     H92382  -1.310  11.906   2.546  0.4550 -0.4283 -1.5227
  700MOL0     H92383  -1.345  11.676   2.522  1.5018 -3.1143 -0.2797
  700MOL0     H92384  -1.035  11.287   2.445  2.6033 -2.1067  0.5290
  700MOL0     H92385  -1.072  11.064   2.373 -2.6831  0.2629 -0.8623
  700MOL0     H92386   0.321  10.948   2.269 -2.4277 -0.3288 -0.3239
  700MOL0     H92387   0.458  11.025   2.469  0.1650  1.0714  1.4127
  700MOL0     H92388   0.382  11.192   2.924  0.0172  0.2396  4.1255
  700MOL0     H92389   0.462  11.301   3.117 -0.2386  1.3284 -0.4585
  700MOL0     H92390   0.765  11.288   3.244  0.2466 -0.8270 -2.6059
  700MOL0     H92391   0.782  11.452   3.318 -1.7669  1.3889 -1.1144
  700MOL0     H92392   1.013  11.366   3.259  1.5445 -0.6054 -1.4075
  700MOL0     H92393   0.957  11.314   3.100 -2.9089 -0.8015 -0.6969
  700MOL0     H92394   0.936  11.562   3.054 -0.9341  0.0709  1.3133
  700MOL0     H92395   1.108  11.509   3.093 -1.3130  0.4067 -2.2851
  700MOL0     H92396   1.016  11.723   3.219  0.8252 -0.0370 -0.3146
  700MOL0     H92397   0.908  11.628   3.311 -1.0647  3.4088 -2.5739
  700MOL0     H92398   1.308  11.552   3.455  1.5341  0.1632 -3.2912
  700MOL0     H92399   0.799  11.468   2.891  1.3042 -0.9489 -2.1739
  700MOL0     H92400   0.724  11.342   2.713  0.8230 -3.9833 -0.3917
  701MOL0     O92401   5.323   1.561   0.481 -0.7676  0.2189  0.1417
  701MOL0     C92402   5.431   1.543   0.428 -0.5343 -0.9898  0.4169
  701MOL0     O92403   5.513   1.636   0.374 -0.3733 -0.6466  0.4706
  701MOL0     C92404   5.475   1.772   0.397 -0.5861  0.7021  0.4960
  701MOL0     C92405   5.471   1.870   0.283 -0.6648  0.5518 -0.1090
  701MOL0     C92406   5.440   2.001   0.308  0.8517  0.2451 -0.0623
  701MOL0     C92407   5.404   2.045   0.435 -0.2752  0.3022 -0.5157
  701MOL0     O92408   5.383   2.177   0.443  0.4661 -0.1273  0.2581
  701MOL0     C92409   5.271   2.213   0.512 -0.0110  0.4554 -0.1685
  701MOL0     C92410   5.206   2.321   0.426 -0.2474 -0.5742 -0.1445
  701MOL0     C92411   5.275   2.460   0.440 -0.7211  0.0971 -0.1089
  701MOL0     C92412   5.188   2.561   0.377  0.3148 -0.0280  0.5831
  701MOL0     C92413   5.244   2.696   0.399 -0.0389  0.0628  0.1125
  701MOL0     C92414   5.161   2.805   0.342  0.0407  0.7829 -0.0994
  701MOL0     C92415   5.158   2.809   0.188 -0.1083  0.0688  0.1431
  701MOL0     C92416   5.039   2.891   0.134 -0.4734 -0.1825  0.5355
  701MOL0     N92417   5.050   2.925  -0.007 -0.1290 -0.1123 -0.0918
  701MOL0     C92418   5.036   3.061  -0.050  1.0803 -0.7863  1.0705
  701MOL0     C92419   5.049   3.052  -0.189 -0.2612 -1.0929 -0.1346
  701MOL0     C92420   5.058   3.151  -0.306 -0.2469 -0.6086 -0.3526
  701MOL0     C92421   4.942   3.255  -0.313  0.1941  0.7324  0.2840
  701MOL0     C92422   4.926   3.335  -0.449 -0.0537  0.2129  0.4507
  701MOL0     C92423   4.881   3.249  -0.563 -0.9387 -0.7402  0.4254
  701MOL0     O92424   4.872   3.340  -0.677 -0.8653  0.0453 -0.8240
  701MOL0     C92425   4.815   3.293  -0.791 -0.2968  0.9362 -0.8301
  701MOL0     C92426   4.779   3.375  -0.889 -0.1963  0.2184  1.0973
  701MOL0     C92427   4.728   3.334  -1.014 -0.7269  0.0215  0.6609
  701MOL0     C92428   4.713   3.197  -1.037 -0.3691 -1.0175  0.1777
  701MOL0     C92429   4.660   3.151  -1.173 -0.3753  0.7105 -0.0727
  701MOL0     O92430   4.678   3.014  -1.207  0.5800 -0.6322 -0.1458
  701MOL0     C92431   4.640   2.950  -1.328 -0.7562 -0.4796 -1.3796
  701MOL0     C92432   4.594   3.011  -1.440  0.4450 -0.4657 -0.0262
  701MOL0     C92433   4.576   2.932  -1.550 -0.4575 -0.2077 -0.3083
  701MOL0     C92434   4.606   2.796  -1.546  0.0937  0.0730 -0.2829
  701MOL0     O92435   4.596   2.724  -1.658  0.0020 -0.3837  0.8491
  701MOL0     C92436   4.524   2.784  -1.771 -0.3301  0.9620  0.8517
  701MOL0     C92437   4.489   2.682  -1.879 -0.4335  0.7047  0.8489
  701MOL0     C92438   4.474   2.534  -1.824  0.3008  0.5758  0.2721
  701MOL0     C92439   4.329   2.498  -1.813 -0.2759 -0.3271 -0.0776
  701MOL0     C92440   4.250   2.552  -1.691 -0.8416  1.0188  0.1935
  701MOL0     C92441   4.319   2.501  -1.555 -0.0056  0.5978  0.2221
  701MOL0     C92442   4.230   2.573  -1.449 -0.2206 -0.1157 -0.4437
  701MOL0     C92443   4.291   2.565  -1.312 -0.3683  1.1480 -0.0603
  701MOL0    Cl92444   4.346   2.404  -1.247 -0.1210 -0.0554  0.4558
  701MOL0     C92445   4.647   2.731  -1.435  0.1854 -0.0402 -0.0197
  701MOL0     C92446   4.667   2.812  -1.326 -1.1281 -0.3690  0.7289
  701MOL0     O92447   4.596   3.233  -1.237  0.2823  0.1009  0.6121
  701MOL0     C92448   4.757   3.107  -0.945 -0.8910 -0.0555  0.7648
  701MOL0     C92449   4.809   3.157  -0.822  0.6628 -1.1101  0.0846
  701MOL0     N92450   5.061   2.920  -0.228 -0.3965 -0.2532  0.1570
  701MOL0     N92451   5.061   2.848  -0.120 -0.5844  0.3206 -0.4805
  701MOL0     C92452   5.417   1.960   0.547 -0.2619 -0.5484 -0.4462
  701MOL0     C92453   5.442   1.826   0.527  0.7974  0.9859  0.5699
  701MOL0     C92454   5.479   1.405   0.425  1.3258 -0.0779 -0.5009
  701MOL0     C92455   5.407   1.315   0.508  0.2175 -0.7943 -0.2573
  701MOL0     C92456   5.463   1.191   0.495  0.3693  0.2266  0.2959
  701MOL0     C92457   5.575   1.153   0.429  0.2035  0.4146  0.4941
  701MOL0     O92458   5.631   1.028   0.421  0.2444  0.4903  0.9208
  701MOL0     C92459   5.595   0.928   0.524  0.1622 -0.5417  0.2392
  701MOL0     C92460   5.704   0.816   0.517 -0.6310 -0.2746  0.6832
  701MOL0     C92461   5.742   0.747   0.384  0.6445  0.7068  0.0511
  701MOL0     C92462   5.788   0.598   0.402 -0.1395 -0.4397 -0.3962
  701MOL0     C92463   5.933   0.572   0.434  0.2353  0.4061  0.5779
  701MOL0     C92464   6.054   0.550   0.445  0.2423 -0.2937 -0.5767
  701MOL0     C92465   5.651   1.243   0.358  0.4927 -0.5312  0.5872
  701MOL0     C92466   5.600   1.373   0.362  0.7983  0.5319 -1.2120
  701MOL0     H92467   5.496   1.847   0.180  0.3451  2.4146 -0.3276
  701MOL0     H92468   5.424   2.068   0.223  0.5426 -1.8196 -1.7299
  701MOL0     H92469   5.275   2.251   0.614 -3.5242  0.8035 -0.0465
  701MOL0     H92470   5.193   2.136   0.513  1.4162 -1.0454 -0.6356
  701MOL0     H92471   5.113   2.341   0.479  0.8979  0.7494  1.4780
  701MOL0     H92472   5.203   2.301   0.319 -0.3506  0.8896 -0.4287
  701MOL0     H92473   5.376   2.460   0.399 -0.9572  1.8516 -0.8062
  701MOL0     H92474   5.281   2.482   0.547  0.2272  1.8259 -0.4754
  701MOL0     H92475   5.181   2.547   0.268 -0.3229  4.5884 -0.1579
  701MOL0     H92476   5.089   2.549   0.421 -0.8469  3.9460 -0.5878
  701MOL0     H92477   5.346   2.683   0.362  0.5798  2.8066  0.6280
  701MOL0     H92478   5.261   2.706   0.507  2.2126  0.6812 -0.2463
  701MOL0     H92479   5.206   2.902   0.366  3.1581  0.2885 -3.1220
  701MOL0     H92480   5.060   2.785   0.380  1.0037 -3.1230  0.8270
  701MOL0     H92481   5.253   2.854   0.160  0.0318 -1.4732 -2.1118
  701MOL0     H92482   5.143   2.709   0.146 -1.9007  0.5037 -0.3288
  701MOL0     H92483   5.013   2.972   0.204 -1.7940 -1.7507  1.9544
  701MOL0     H92484   4.944   2.838   0.137 -0.9343  0.4559 -1.6280
  701MOL0     H92485   5.017   3.155   0.001 -2.0676 -0.3739 -0.6116
  701MOL0     H92486   5.054   3.085  -0.394  0.5419  0.1667 -0.9896
  701MOL0     H92487   5.158   3.197  -0.309 -0.5327  0.1489  1.0346
  701MOL0     H92488   4.952   3.328  -0.232 -0.8712  1.7628 -0.4851
  701MOL0     H92489   4.847   3.204  -0.298  0.8424 -0.1446  1.5020
  701MOL0     H92490   4.851   3.410  -0.424 -0.6638 -0.1475 -0.2892
  701MOL0     H92491   5.021   3.385  -0.473  1.0623 -0.1100  3.6556
  701MOL0     H92492   4.784   3.199  -0.556 -2.0316  1.0076 -1.3615
  701MOL0     H92493   4.967   3.182  -0.578  3.1997  3.7716  1.5413
  701MOL0     H92494   4.788   3.483  -0.879  2.8004  0.0429  1.1897
  701MOL0     H92495   4.709   3.412  -1.087  0.0399 -0.4839 -0.0953
  701MOL0     H92496   4.571   3.117  -1.436 -0.7950 -0.7571  1.4757
  701MOL0     H92497   4.564   2.990  -1.641  2.8044  0.4514 -0.4612
  701MOL0     H92498   4.562   2.878  -1.812  2.0538  1.1171  3.1766
  701MOL0     H92499   4.431   2.821  -1.728 -0.6416 -1.8739  2.8768
  701MOL0     H92500   4.571   2.671  -1.950  1.0428  0.9892  2.4429
  701MOL0     H92501   4.399   2.712  -1.934  1.7750  0.1230 -3.5092
  701MOL0     H92502   4.526   2.512  -1.731 -0.6760 -0.8216  0.5284
  701MOL0     H92503   4.523   2.461  -1.889  0.6603  1.7732 -0.8406
  701MOL0     H92504   4.270   2.535  -1.897 -1.4077 -2.1377 -0.1483
  701MOL0     H92505   4.316   2.389  -1.809  2.9822 -0.8152 -0.3799
  701MOL0     H92506   4.145   2.520  -1.690 -0.3478 -0.6863  1.3263
  701MOL0     H92507   4.259   2.661  -1.696  1.5546  0.8222 -1.2822
  701MOL0     H92508   4.420   2.532  -1.527 -0.3550  0.7378  1.4177
  701MOL0     H92509   4.314   2.392  -1.548  0.0277  0.6910  2.6924
  701MOL0     H92510   4.221   2.681  -1.466  0.5994 -0.1702 -1.3019
  701MOL0     H92511   4.134   2.521  -1.453 -0.3328 -0.0167  0.6643
  701MOL0     H92512   4.216   2.600  -1.240 -0.1731  0.5956  0.4180
  701MOL0     H92513   4.365   2.646  -1.307 -5.4947  6.6115 -0.4092
  701MOL0     H92514   4.676   2.626  -1.437  0.3096 -0.0012 -0.3655
  701MOL0     H92515   4.725   2.769  -1.244 -0.0677  0.1660  0.2809
  701MOL0     H92516   4.756   2.998  -0.952  4.4071 -0.5800  3.2154
  701MOL0     H92517   4.832   3.079  -0.750 -1.8110 -1.1270  0.9320
  701MOL0     H92518   5.385   1.996   0.644  1.0019  1.4674 -0.7227
  701MOL0     H92519   5.430   1.762   0.613 -1.0607  0.0874 -0.3022
  701MOL0     H92520   5.320   1.331   0.571  1.2653  0.9751  0.8234
  701MOL0     H92521   5.413   1.112   0.550 -1.1153  3.4798  4.0908
  701MOL0     H92522   5.499   0.894   0.483 -0.0280  0.1748  0.0706
  701MOL0     H92523   5.571   0.973   0.621 -3.4835  1.7870 -1.4870
  701MOL0     H92524   5.793   0.870   0.550  0.0524  0.2686 -1.8601
  701MOL0     H92525   5.691   0.741   0.596  1.5359  1.2012  2.5856
  701MOL0     H92526   5.812   0.809   0.329  2.1228  2.2049  3.3182
  701MOL0     H92527   5.650   0.751   0.325  2.4678 -2.6527 -3.4661
  701MOL0     H92528   5.720   0.546   0.471 -1.9026  2.0625 -0.0872
  701MOL0     H92529   5.766   0.543   0.310  0.5906 -2.7822  0.7550
  701MOL0     H92530   6.159   0.530   0.448  0.3453  0.1091 -1.2003
  701MOL0     H92531   5.749   1.229   0.315  0.2436  0.0177 -0.1808
  701MOL0     H92532   5.654   1.457   0.318  0.4863  2.4842  1.7913
  702MOL0     O92533   4.783   9.024   2.222 -0.5531  0.0121  0.0581
  702MOL0     C92534   4.789   8.912   2.280  0.0069 -0.9621  0.3019
  702MOL0     O92535   4.698   8.864   2.370  0.5142 -0.0627  0.5764
  702MOL0     C92536   4.568   8.920   2.373 -0.1263  0.7365  0.5546
  702MOL0     C92537   4.503   8.958   2.251  0.3376  0.2679  0.0461
  702MOL0     C92538   4.361   8.972   2.265 -0.6372 -0.0310 -0.2170
  702MOL0     C92539   4.291   8.978   2.384  0.4548  0.8795 -0.7868
  702MOL0     O92540   4.159   9.021   2.369 -0.0865  0.4002 -0.2759
  702MOL0     C92541   4.115   9.125   2.463 -0.0101  0.3765  0.8064
  702MOL0     C92542   4.150   9.259   2.402  0.4589  0.5227  0.8381
  702MOL0     C92543   4.072   9.288   2.277 -0.7956  1.2436 -0.2255
  702MOL0     C92544   4.130   9.412   2.208 -0.4678  0.1461 -0.3349
  702MOL0     C92545   4.257   9.407   2.125  0.0936  0.7896  0.3877
  702MOL0     C92546   4.384   9.443   2.202 -0.2397  0.6208  0.2400
  702MOL0     C92547   4.504   9.455   2.096  1.3490  0.4191  0.4682
  702MOL0     C92548   4.558   9.313   2.065 -0.2435 -0.8643  1.0062
  702MOL0     N92549   4.649   9.326   1.947  0.7452  0.4286  0.1250
  702MOL0     C92550   4.615   9.355   1.815  0.5533  0.4199  0.2582
  702MOL0     C92551   4.739   9.325   1.756  0.0884 -0.4492 -0.5674
  702MOL0     C92552   4.776   9.320   1.609 -0.6001 -0.6481  1.0824
  702MOL0     C92553   4.928   9.331   1.589  0.0913 -0.2254 -0.0541
  702MOL0     C92554   4.981   9.321   1.448 -0.2853 -0.1545  0.9882
  702MOL0     C92555   4.910   9.414   1.345 -0.3636  0.2100  0.3892
  702MOL0     O92556   4.907   9.543   1.397  0.1200 -0.6591  0.9631
  702MOL0     C92557   4.985   9.643   1.359 -0.3328 -1.1220 -0.0379
  702MOL0     C92558   4.965   9.766   1.412  0.9071 -0.5082  0.5852
  702MOL0     C92559   5.029   9.879   1.359  0.2366  1.1003  0.1945
  702MOL0     C92560   5.136   9.874   1.269  0.2153 -0.5631  0.1269
  702MOL0     C92561   5.234   9.984   1.241  0.5315  0.1954  0.4463
  702MOL0     O92562   5.200  10.103   1.293  0.6439  0.0590 -1.0140
  702MOL0     C92563   5.285  10.214   1.270 -0.2495 -0.5142  0.0393
  702MOL0     C92564   5.425  10.223   1.273  1.2939 -0.4624 -0.2990
  702MOL0     C92565   5.491  10.348   1.267  0.7572 -0.5106  0.7712
  702MOL0     C92566   5.409  10.464   1.235  0.1493  0.3784  0.1198
  702MOL0     O92567   5.492  10.573   1.221 -0.1399 -0.3183 -0.1796
  702MOL0     C92568   5.417  10.689   1.175  0.5562 -0.3637 -0.4958
  702MOL0     C92569   5.513  10.802   1.127 -0.5267  0.0047 -0.9666
  702MOL0     C92570   5.464  10.942   1.146  0.4209 -0.9800  0.1760
  702MOL0     C92571   5.346  10.959   1.040 -0.7317  0.3740 -0.1489
  702MOL0     C92572   5.291  11.100   1.006  0.7014  0.1950  0.3046
  702MOL0     C92573   5.241  11.175   1.131 -0.5642 -0.5036  0.1665
  702MOL0     C92574   5.115  11.106   1.195 -0.3412  0.3480 -0.0398
  702MOL0     C92575   4.983  11.138   1.118 -0.7755 -0.2257  0.4096
  702MOL0    Cl92576   4.926  11.305   1.127 -0.3985 -0.0371  0.1456
  702MOL0     C92577   5.274  10.452   1.222 -0.4174 -0.0426  0.9168
  702MOL0     C92578   5.213  10.330   1.235 -0.1683 -0.2328  0.6653
  702MOL0     O92579   5.333   9.958   1.174 -0.2644 -0.2890  0.4861
  702MOL0     C92580   5.170   9.744   1.220  0.7551 -0.2927  0.2830
  702MOL0     C92581   5.084   9.635   1.261 -0.1867 -0.4641  0.3574
  702MOL0     N92582   4.826   9.287   1.853 -0.7097  0.2665  0.3832
  702MOL0     N92583   4.779   9.303   1.969  0.3931 -0.3530  0.8113
  702MOL0     C92584   4.366   8.956   2.495  0.8312 -0.1030 -0.4977
  702MOL0     C92585   4.500   8.923   2.493 -0.5187  0.0665 -0.3636
  702MOL0     C92586   4.908   8.836   2.267  0.4250 -0.2327 -0.6252
  702MOL0     C92587   4.928   8.704   2.318  0.1634 -0.0363  0.3340
  702MOL0     C92588   5.053   8.636   2.295 -0.3463 -0.6045  0.3758
  702MOL0     C92589   5.145   8.693   2.206  0.2349  0.3292  0.2494
  702MOL0     O92590   5.253   8.624   2.161  0.3949 -0.3215  0.3655
  702MOL0     C92591   5.240   8.542   2.053 -0.0591 -0.0109  0.6165
  702MOL0     C92592   5.181   8.404   2.080 -0.1440  0.7892 -0.7113
  702MOL0     C92593   5.178   8.318   1.949 -0.3871  0.1592 -0.4449
  702MOL0     C92594   5.036   8.302   1.899  0.8999  0.6789 -0.1594
  702MOL0     C92595   5.028   8.246   1.761  0.8539 -0.3761 -0.7412
  702MOL0     C92596   5.006   8.201   1.648 -1.4541  0.0923 -0.1573
  702MOL0     C92597   5.127   8.819   2.161 -0.2345 -0.8247 -1.5192
  702MOL0     C92598   5.018   8.889   2.195  0.3053  0.6649  0.1652
  702MOL0     H92599   4.555   8.941   2.158  0.1943 -0.9196  0.1745
  702MOL0     H92600   4.310   8.991   2.171  0.9421  0.9174 -0.9222
  702MOL0     H92601   4.166   9.105   2.558  0.0815 -0.7209  0.5413
  702MOL0     H92602   4.007   9.128   2.478 -0.2264  2.2375 -0.8120
  702MOL0     H92603   4.257   9.258   2.379  0.0063  1.4423 -1.5615
  702MOL0     H92604   4.130   9.334   2.479 -0.1967 -0.7322  1.9273
  702MOL0     H92605   3.970   9.317   2.305 -1.3155  0.5452 -1.3346
  702MOL0     H92606   4.072   9.210   2.200 -0.3908  1.0861 -0.0655
  702MOL0     H92607   4.047   9.463   2.159 -0.9175 -2.4843 -2.5321
  702MOL0     H92608   4.150   9.483   2.289 -0.9310  0.5400 -0.5631
  702MOL0     H92609   4.228   9.469   2.039 -1.3860 -0.8806 -0.3723
  702MOL0     H92610   4.255   9.307   2.080  0.1835  2.2474 -3.2815
  702MOL0     H92611   4.409   9.378   2.286  0.7105  0.8157  0.1190
  702MOL0     H92612   4.369   9.542   2.246  3.4623  1.0498  0.8401
  702MOL0     H92613   4.469   9.505   2.005  0.2135  1.9230  1.6729
  702MOL0     H92614   4.592   9.509   2.131  1.0862 -0.1039  1.9883
  702MOL0     H92615   4.473   9.252   2.031 -0.8931  1.1699 -1.3367
  702MOL0     H92616   4.606   9.287   2.159  2.0147  0.6288  0.3264
  702MOL0     H92617   4.521   9.380   1.765  1.3159 -0.7957 -1.9238
  702MOL0     H92618   4.730   9.405   1.558  0.9115 -0.1275  0.5142
  702MOL0     H92619   4.735   9.228   1.566  0.1427 -0.2569 -0.5794
  702MOL0     H92620   4.969   9.246   1.644  1.4772  0.7663  0.5116
  702MOL0     H92621   4.957   9.424   1.639 -1.0008 -0.7952  1.7172
  702MOL0     H92622   5.090   9.327   1.443 -0.3922  1.4518 -3.1081
  702MOL0     H92623   4.958   9.219   1.416 -1.5824  0.8810 -1.6697
  702MOL0     H92624   4.803   9.392   1.340 -0.4446  0.1963  1.7254
  702MOL0     H92625   4.960   9.403   1.248 -2.3340 -2.9752 -0.4296
  702MOL0     H92626   4.878   9.786   1.473 -0.9896 -2.1844 -1.4327
  702MOL0     H92627   4.991   9.979   1.377 -2.2520 -0.1558  2.7114
  702MOL0     H92628   5.478  10.130   1.293 -1.8294 -2.6477 -1.4024
  702MOL0     H92629   5.598  10.351   1.288  1.0372 -1.4353 -0.3799
  702MOL0     H92630   5.353  10.729   1.255 -2.5009  0.0626 -2.9471
  702MOL0     H92631   5.344  10.661   1.099 -0.1911 -3.4489  1.2201
  702MOL0     H92632   5.563  10.790   1.031  3.7946 -3.0226  1.3179
  702MOL0     H92633   5.599  10.802   1.194 -0.4246 -1.7338 -1.0615
  702MOL0     H92634   5.546  11.014   1.138 -1.5132  1.1084 -4.3167
  702MOL0     H92635   5.415  10.961   1.242  0.3257  6.3419 -0.7502
  702MOL0     H92636   5.383  10.916   0.947 -2.1664  1.3469 -1.2086
  702MOL0     H92637   5.267  10.890   1.069 -1.2340  0.8788 -0.3032
  702MOL0     H92638   5.209  11.089   0.934  0.6481  0.1681  0.3702
  702MOL0     H92639   5.374  11.143   0.949  0.5606 -0.5846 -0.5050
  702MOL0     H92640   5.226  11.281   1.108  4.2958  0.3893  0.1041
  702MOL0     H92641   5.324  11.178   1.202  0.5014  1.8131 -1.0622
  702MOL0     H92642   5.129  10.997   1.195 -0.0532  0.2790 -3.1070
  702MOL0     H92643   5.111  11.141   1.298 -1.5086 -0.8172  0.3347
  702MOL0     H92644   4.907  11.077   1.169 -1.2826  0.8642  1.0236
  702MOL0     H92645   4.998  11.102   1.016 -3.6733  2.6075 -1.2136
  702MOL0     H92646   5.213  10.540   1.199 -1.8119 -1.5382 -1.7307
  702MOL0     H92647   5.106  10.313   1.224  0.3429 -2.7159 -1.4430
  702MOL0     H92648   5.254   9.730   1.153  2.0670 -0.1084  1.8297
  702MOL0     H92649   5.115   9.549   1.202 -1.7202 -0.2841 -0.7909
  702MOL0     H92650   4.319   8.970   2.592 -2.5343 -1.1071 -1.8244
  702MOL0     H92651   4.539   8.889   2.589 -3.5779 -2.3334  0.2124
  702MOL0     H92652   4.852   8.643   2.365  1.1083 -2.0318 -0.6239
  702MOL0     H92653   5.053   8.533   2.330 -0.8910 -0.4202  0.9305
  702MOL0     H92654   5.342   8.521   2.018 -0.2526 -0.4069  0.2772
  702MOL0     H92655   5.188   8.594   1.972  1.9946  0.0378 -0.7506
  702MOL0     H92656   5.229   8.352   2.164  2.1002  0.9296 -1.8435
  702MOL0     H92657   5.080   8.424   2.116 -1.2496 -0.1373 -3.1062
  702MOL0     H92658   5.218   8.219   1.971  1.4599  0.8034 -0.7391
  702MOL0     H92659   5.235   8.362   1.866 -0.9600 -0.6722 -1.2902
  702MOL0     H92660   5.006   8.219   1.965  2.9764  0.6264  0.7961
  702MOL0     H92661   4.962   8.382   1.907 -1.4962 -1.5346  2.6551
  702MOL0     H92662   4.973   8.153   1.558  0.2522  0.6092 -1.0782
  702MOL0     H92663   5.206   8.859   2.098  0.5926 -0.2111 -0.1258
  702MOL0     H92664   5.016   8.994   2.164  2.1480  0.4807 -0.7586
  703MOL0     O92665   9.283   0.312   3.961 -0.0414  0.8778 -0.3570
  703MOL0     C92666   9.320   0.400   3.885  0.1801 -0.1151  0.5874
  703MOL0     O92667   9.232   0.483   3.822  0.3195 -0.3340 -0.2259
  703MOL0     C92668   9.102   0.480   3.853  0.2890 -2.0002 -0.4856
  703MOL0     C92669   9.006   0.458   3.755 -0.6419 -0.2202 -0.6354
  703MOL0     C92670   8.870   0.486   3.792 -0.5856  0.2174  0.1608
  703MOL0     C92671   8.823   0.518   3.915  0.1210 -0.4350 -0.6891
  703MOL0     O92672   8.688   0.548   3.928  0.7394 -0.2732  0.4490
  703MOL0     C92673   8.615   0.497   4.045 -1.1889  0.7359 -0.4719
  703MOL0     C92674   8.466   0.491   4.015  0.0975 -0.0471 -0.4070
  703MOL0     C92675   8.427   0.391   3.900 -0.4597  0.0722  0.8261
  703MOL0     C92676   8.275   0.372   3.873  0.2074  0.2801  0.0143
  703MOL0     C92677   8.189   0.498   3.846 -0.5158  0.3230 -0.0113
  703MOL0     C92678   8.046   0.471   3.839 -0.5010  0.2436 -0.8723
  703MOL0     C92679   7.958   0.599   3.829 -0.4623  1.5602  0.2472
  703MOL0     C92680   7.984   0.679   3.711  0.1335  0.9093  0.7189
  703MOL0     N92681   7.966   0.606   3.582 -0.1496  0.0390 -0.2072
  703MOL0     C92682   7.851   0.549   3.532  0.5447  0.4235 -0.1507
  703MOL0     C92683   7.901   0.460   3.438 -0.8845 -0.3771  0.4706
  703MOL0     C92684   7.812   0.365   3.360  0.0535 -0.8006 -1.2476
  703MOL0     C92685   7.738   0.450   3.252 -0.9296  0.3375 -0.8911
  703MOL0     C92686   7.839   0.511   3.151  0.2326  0.6443  0.1728
  703MOL0     C92687   7.776   0.584   3.026 -0.0683  0.3553  0.1076
  703MOL0     O92688   7.885   0.636   2.956  0.2446 -0.0682  0.9457
  703MOL0     C92689   7.913   0.762   2.992  0.3133 -0.0473  0.2433
  703MOL0     C92690   8.044   0.790   3.039 -0.5969  0.6994  0.0018
  703MOL0     C92691   8.077   0.924   3.082 -0.2016  0.1810  0.0810
  703MOL0     C92692   7.987   1.030   3.042 -0.4493 -0.1555  0.3204
  703MOL0     C92693   8.027   1.167   3.070 -0.2387 -0.4878  1.2448
  703MOL0     O92694   8.125   1.182   3.170  0.0162  0.2670  0.4371
  703MOL0     C92695   8.229   1.272   3.150  0.3408  0.5321 -0.6504
  703MOL0     C92696   8.215   1.412   3.110  0.7877  0.5927  0.3237
  703MOL0     C92697   8.329   1.493   3.099 -0.3757 -0.1973 -0.2874
  703MOL0     C92698   8.455   1.461   3.159 -0.7548 -1.0738  0.0583
  703MOL0     O92699   8.557   1.550   3.174  0.6914 -0.0613 -0.4242
  703MOL0     C92700   8.670   1.517   3.251  0.5069  0.7377  0.1725
  703MOL0     C92701   8.609   1.520   3.391 -0.3270  1.0515  0.6604
  703MOL0     C92702   8.723   1.508   3.491  0.0879  0.4804 -0.3671
  703MOL0     C92703   8.678   1.495   3.634 -0.0735 -0.9209 -0.3835
  703MOL0     C92704   8.786   1.485   3.744  0.2015  1.1372  0.4261
  703MOL0     C92705   8.882   1.366   3.721 -0.2326 -0.8209  0.0018
  703MOL0     C92706   8.977   1.347   3.837 -0.0835  0.0208 -0.2538
  703MOL0     C92707   9.079   1.241   3.782  1.0042  0.4634 -0.2475
  703MOL0    Cl92708   9.021   1.086   3.707 -0.0853 -0.9367  0.2073
  703MOL0     C92709   8.465   1.328   3.199 -0.0449  0.3026  0.1201
  703MOL0     C92710   8.358   1.234   3.189  0.5941  0.2270  0.5549
  703MOL0     O92711   7.968   1.257   3.007 -1.0245  0.4612 -0.0776
  703MOL0     C92712   7.859   0.999   2.991 -0.6101  0.3768  0.1526
  703MOL0     C92713   7.825   0.868   2.971 -0.8280  0.3873 -0.5933
  703MOL0     N92714   8.036   0.475   3.419 -0.0219 -0.0724  0.0762
  703MOL0     N92715   8.065   0.574   3.494 -1.1020 -0.3064 -0.2560
  703MOL0     C92716   8.916   0.519   4.024  0.5167 -0.8348  0.5872
  703MOL0     C92717   9.053   0.512   3.987 -0.0349 -0.3206 -0.2599
  703MOL0     C92718   9.474   0.414   3.882  0.2673 -0.5270  1.3599
  703MOL0     C92719   9.547   0.519   3.817  0.3515  0.5177 -0.7665
  703MOL0     C92720   9.684   0.532   3.835 -0.5401  0.5832  0.1742
  703MOL0     C92721   9.746   0.432   3.918  0.3624  0.3411  0.4696
  703MOL0     O92722   9.881   0.460   3.931  0.1869 -0.8179 -0.3753
  703MOL0     C92723   9.950   0.336   3.902  0.1382 -0.2355  0.2306
  703MOL0     C92724  10.099   0.358   3.873 -0.4650  0.1068  0.2276
  703MOL0     C92725  10.114   0.461   3.769 -0.5435  0.0099  0.6339
  703MOL0     C92726  10.022   0.444   3.638  0.0278 -0.2307  0.1624
  703MOL0     C92727  10.018   0.307   3.596 -1.0979 -0.9163  0.7464
  703MOL0     C92728  10.001   0.191   3.561  0.2590  1.0907  0.0623
  703MOL0     C92729   9.673   0.323   3.964 -0.2492 -0.2754 -0.2164
  703MOL0     C92730   9.545   0.316   3.945  1.7209  0.7179 -0.3462
  703MOL0     H92731   9.039   0.436   3.654  2.1044  2.2066 -0.3691
  703MOL0     H92732   8.791   0.466   3.720 -2.5914 -3.7640  3.1104
  703MOL0     H92733   8.633   0.551   4.139 -0.8748 -1.8542  1.0531
  703MOL0     H92734   8.652   0.396   4.061  0.7921  1.6037  0.9143
  703MOL0     H92735   8.422   0.590   4.001 -3.3098 -1.1242  1.7506
  703MOL0     H92736   8.413   0.460   4.105 -3.1259  5.2349 -0.0563
  703MOL0     H92737   8.471   0.292   3.915 -1.0382 -0.1979  0.7871
  703MOL0     H92738   8.481   0.432   3.815  2.3494  0.9447  2.8765
  703MOL0     H92739   8.271   0.315   3.780 -1.2115  1.4054 -0.6462
  703MOL0     H92740   8.234   0.322   3.961 -0.0829 -0.4093 -0.5006
  703MOL0     H92741   8.221   0.538   3.750 -1.3154 -0.6923 -0.7254
  703MOL0     H92742   8.210   0.566   3.930  1.6453 -0.4633  0.1597
  703MOL0     H92743   8.022   0.422   3.934  1.0069 -1.4681 -1.3432
  703MOL0     H92744   8.025   0.414   3.749  1.3898  0.5604 -1.5562
  703MOL0     H92745   7.852   0.571   3.834 -0.2956  1.1066  1.6299
  703MOL0     H92746   7.986   0.649   3.922  3.2292 -0.1815  0.2417
  703MOL0     H92747   8.086   0.719   3.710  1.4662 -2.0646 -1.8359
  703MOL0     H92748   7.918   0.765   3.698 -0.6334  0.1838 -0.3219
  703MOL0     H92749   7.758   0.546   3.588  2.3905 -0.5741  3.1353
  703MOL0     H92750   7.751   0.295   3.417  0.6676  0.7450  1.4628
  703MOL0     H92751   7.877   0.296   3.305  0.2904 -0.3947 -1.4799
  703MOL0     H92752   7.678   0.535   3.287 -0.1301  0.2379  0.8368
  703MOL0     H92753   7.665   0.390   3.197  1.1490 -3.6919  0.3137
  703MOL0     H92754   7.917   0.571   3.200 -0.2357 -1.4585  3.8230
  703MOL0     H92755   7.905   0.434   3.109 -0.2088  0.1973  0.2892
  703MOL0     H92756   7.712   0.667   3.057  1.4182  1.6745 -0.2033
  703MOL0     H92757   7.716   0.520   2.960  0.0952 -0.3670  0.6515
  703MOL0     H92758   8.111   0.704   3.039 -1.4544  0.0235 -0.2610
  703MOL0     H92759   8.176   0.935   3.125  0.7444  0.4475 -2.0297
  703MOL0     H92760   8.121   1.449   3.071  0.5269  1.1835  1.4852
  703MOL0     H92761   8.322   1.589   3.048 -1.7820  0.6109  1.3112
  703MOL0     H92762   8.757   1.582   3.249  1.3600 -0.3589  0.5488
  703MOL0     H92763   8.714   1.420   3.224  0.0897  0.2142  1.2782
  703MOL0     H92764   8.550   1.431   3.416 -0.1315  0.5200 -0.7093
  703MOL0     H92765   8.548   1.608   3.414 -2.9073 -0.9646  2.1008
  703MOL0     H92766   8.775   1.604   3.480 -0.7869  0.6957 -3.3694
  703MOL0     H92767   8.806   1.446   3.456  0.2315  0.9073 -0.8042
  703MOL0     H92768   8.607   1.575   3.658  1.3635  0.7728 -1.5240
  703MOL0     H92769   8.616   1.404   3.638 -2.5775  0.6915  0.3833
  703MOL0     H92770   8.744   1.474   3.845  1.3139 -1.7987  0.6642
  703MOL0     H92771   8.846   1.575   3.736 -0.1600  1.3036 -0.6471
  703MOL0     H92772   8.939   1.384   3.630 -0.4518  0.6259  0.1244
  703MOL0     H92773   8.818   1.282   3.694 -3.0185  1.1798 -0.1170
  703MOL0     H92774   9.014   1.444   3.873 -0.1158 -1.2733  3.7175
  703MOL0     H92775   8.923   1.313   3.926 -1.6056  2.9067  0.0498
  703MOL0     H92776   9.140   1.213   3.868  0.8750 -0.0745 -0.3262
  703MOL0     H92777   9.156   1.293   3.724  1.3398  2.0413  1.5038
  703MOL0     H92778   8.552   1.272   3.233 -0.7482 -0.3654  0.8796
  703MOL0     H92779   8.373   1.132   3.223 -1.9910  0.0304  1.3416
  703MOL0     H92780   7.792   1.083   2.979 -1.1532  0.1529  1.4732
  703MOL0     H92781   7.728   0.845   2.928 -1.1887  1.9153 -0.6558
  703MOL0     H92782   8.885   0.533   4.127 -0.0463 -1.5603  0.5250
  703MOL0     H92783   9.128   0.525   4.064 -0.7758  0.2839  0.3805
  703MOL0     H92784   9.487   0.595   3.768  0.1860  2.6317  2.4291
  703MOL0     H92785   9.736   0.619   3.796 -1.5605  1.2750  0.3054
  703MOL0     H92786   9.908   0.292   3.812  0.1488  1.7963 -0.8140
  703MOL0     H92787   9.943   0.256   3.976 -2.9256 -0.4236 -0.1528
  703MOL0     H92788  10.141   0.382   3.971 -0.4134 -0.3708  0.3276
  703MOL0     H92789  10.135   0.266   3.825 -2.2078  0.5382 -2.0602
  703MOL0     H92790  10.216   0.459   3.730 -0.4115 -1.3055  1.0013
  703MOL0     H92791  10.100   0.562   3.807 -0.2889  1.3748 -2.5852
  703MOL0     H92792   9.921   0.479   3.663  0.7607  0.4994  2.4233
  703MOL0     H92793  10.067   0.503   3.557  3.0025 -1.4624  0.7580
  703MOL0     H92794   9.989   0.086   3.547 -0.2700  1.2310 -0.5817
  703MOL0     H92795   9.725   0.247   4.022  0.2116  0.0058 -0.2541
  703MOL0     H92796   9.506   0.224   3.988 -1.0421  3.1816  2.9843
  704MOL0     O92797   0.712   2.155  10.706  0.4832 -0.2017 -1.0292
  704MOL0     C92798   0.628   2.226  10.642 -0.3565 -0.4052 -0.5189
  704MOL0     O92799   0.486   2.231  10.667 -0.1597  0.8811 -0.1252
  704MOL0     C92800   0.438   2.153  10.778  0.7817  0.2580  0.0376
  704MOL0     C92801   0.452   2.204  10.912  0.5173  0.4052 -0.4732
  704MOL0     C92802   0.393   2.129  11.012  0.0573 -0.1013  0.5897
  704MOL0     C92803   0.313   2.011  10.982 -1.0987  0.5910  0.5298
  704MOL0     O92804   0.275   1.951  11.097 -0.7593 -0.5144  1.1042
  704MOL0     C92805   0.180   1.841  11.090  0.3070 -0.0078  0.2477
  704MOL0     C92806   0.157   1.798  11.236 -0.3271 -0.9272  1.1590
  704MOL0     C92807   0.106   1.911  11.306  0.1131  0.0202  0.1019
  704MOL0     C92808   0.044   1.876  11.440 -0.4297  0.1138 -0.6166
  704MOL0     C92809   0.057   1.737  11.504  0.0241 -0.0703 -1.2594
  704MOL0     C92810   0.044   1.745  11.651  1.2734  0.5207 -0.5299
  704MOL0     C92811   0.121   1.643  11.722 -0.0900  0.1012  0.2509
  704MOL0     C92812   0.132   1.675  11.870 -0.8017  1.9229 -1.7769
  704MOL0     N92813   0.191   1.559  11.945  0.5208  0.7664 -0.4161
  704MOL0     C92814   0.113   1.448  11.987 -0.0897 -0.6361 -0.0624
  704MOL0     C92815   0.197   1.350  12.029 -0.0423 -0.0820  0.5272
  704MOL0     C92816   0.156   1.214  12.058  0.1411 -0.2926  0.0563
  704MOL0     C92817   0.231   1.150  12.175  0.1743  0.3995  0.3794
  704MOL0     C92818   0.200   0.990  12.186  1.4176 -0.1934 -0.6777
  704MOL0     C92819   0.212   0.909  12.062 -0.2283 -0.3252  0.2452
  704MOL0     O92820   0.345   0.929  12.007 -0.5384 -0.0148  0.4634
  704MOL0     C92821   0.352   0.905  11.871  0.2112 -0.9850 -0.4011
  704MOL0     C92822   0.285   0.802  11.808 -0.4514 -0.2156  0.1049
  704MOL0     C92823   0.273   0.788  11.669 -0.2746  0.0471  0.6436
  704MOL0     C92824   0.359   0.855  11.582 -0.0777 -0.4183  0.9029
  704MOL0     C92825   0.360   0.849  11.439 -0.4538  0.5112 -0.8537
  704MOL0     O92826   0.416   0.949  11.363  0.2271  0.2322  1.1763
  704MOL0     C92827   0.428   0.939  11.221 -0.7505 -0.1784  0.8784
  704MOL0     C92828   0.476   0.820  11.151 -0.8637  0.0250 -0.3521
  704MOL0     C92829   0.493   0.824  11.014 -1.1866  0.2096 -0.1457
  704MOL0     C92830   0.472   0.935  10.938 -0.9156  0.9643 -0.0778
  704MOL0     O92831   0.502   0.924  10.807  1.0021 -0.1016  0.0313
  704MOL0     C92832   0.448   1.028  10.712  0.8159 -0.0351  0.5365
  704MOL0     C92833   0.304   0.993  10.662 -0.6479  0.8738  0.0140
  704MOL0     C92834   0.252   1.105  10.580 -0.3759  0.9051  0.4618
  704MOL0     C92835   0.107   1.075  10.522  0.3314 -0.5671  0.3597
  704MOL0     C92836  -0.000   1.161  10.588  0.1981  0.7331 -0.5048
  704MOL0     C92837  -0.133   1.093  10.593  0.3250 -0.0564  0.3838
  704MOL0     C92838  -0.137   0.952  10.658 -0.4785  0.0384 -0.2207
  704MOL0     C92839  -0.232   0.857  10.593 -0.4175 -0.3889 -0.8305
  704MOL0    Cl92840  -0.270   0.722  10.688  0.1673  0.1540 -0.1774
  704MOL0     C92841   0.437   1.057  11.006  1.5057  0.0558  0.1641
  704MOL0     C92842   0.415   1.058  11.144  0.4458 -0.3804 -0.7268
  704MOL0     O92843   0.297   0.755  11.397 -0.1555  0.1499  0.5166
  704MOL0     C92844   0.458   0.931  11.653 -0.4299 -0.2725  0.8706
  704MOL0     C92845   0.447   0.967  11.789 -0.5660 -0.7037 -0.2169
  704MOL0     N92846   0.325   1.405  12.009  0.7078  0.1736  0.0828
  704MOL0     N92847   0.316   1.518  11.966 -0.7244  0.9908 -0.2202
  704MOL0     C92848   0.308   1.959  10.851 -0.5934 -0.2151  0.7658
  704MOL0     C92849   0.373   2.033  10.750 -0.2286 -0.2754  0.3874
  704MOL0     C92850   0.682   2.326  10.542  0.0464  1.3872  0.2905
  704MOL0     C92851   0.812   2.307  10.492  0.1650  0.6882  0.4124
  704MOL0     C92852   0.866   2.379  10.393 -0.8819  0.5221 -0.0109
  704MOL0     C92853   0.794   2.487  10.333 -0.4491 -0.1175 -1.2244
  704MOL0     O92854   0.857   2.566  10.237 -0.3802 -0.3903  0.2000
  704MOL0     C92855   0.791   2.693  10.203  0.3683  0.3196 -0.3682
  704MOL0     C92856   0.708   2.686  10.080  0.5584 -1.1476  0.2597
  704MOL0     C92857   0.695   2.826  10.020  0.1543  0.1758  0.5626
  704MOL0     C92858   0.590   2.821   9.907 -0.1935  0.4374  1.3819
  704MOL0     C92859   0.609   2.928   9.804  0.0632  0.5561 -1.1738
  704MOL0     C92860   0.626   3.019   9.721 -0.7154  0.6574 -0.2705
  704MOL0     C92861   0.664   2.511  10.379  0.1911  0.0916 -0.7126
  704MOL0     C92862   0.609   2.428  10.473 -0.0591  0.2117 -0.0848
  704MOL0     H92863   0.507   2.292  10.943  0.5808  0.9045 -1.9400
  704MOL0     H92864   0.387   2.169  11.113 -0.6382  1.2163  0.0512
  704MOL0     H92865   0.228   1.762  11.031 -1.1173 -1.2249  0.6553
  704MOL0     H92866   0.086   1.875  11.047  0.7086  1.0132  0.1544
  704MOL0     H92867   0.243   1.748  11.281  1.0907  1.5741  1.3908
  704MOL0     H92868   0.079   1.721  11.237  1.6352 -3.0440 -0.5998
  704MOL0     H92869   0.035   1.973  11.251 -1.9943 -2.0975  0.2676
  704MOL0     H92870   0.188   1.982  11.319  0.5704 -0.0855 -1.8645
  704MOL0     H92871   0.079   1.959  11.502  0.3508  1.3188 -2.5610
  704MOL0     H92872  -0.062   1.901  11.436 -0.2058  1.2094  0.1358
  704MOL0     H92873   0.156   1.693  11.484 -0.5288 -0.7138 -2.6703
  704MOL0     H92874  -0.021   1.671  11.465  0.3540 -2.3161  1.5415
  704MOL0     H92875  -0.060   1.751  11.685  1.2681  2.1740 -0.7717
  704MOL0     H92876   0.074   1.845  11.684 -0.7713  0.5820  1.3779
  704MOL0     H92877   0.081   1.542  11.706  1.6467 -0.7884  1.1738
  704MOL0     H92878   0.224   1.652  11.687 -0.2934  0.6543 -0.2204
  704MOL0     H92879   0.034   1.692  11.917 -0.5278 -0.9588  0.0840
  704MOL0     H92880   0.189   1.765  11.894 -1.6142  2.1741 -0.7061
  704MOL0     H92881   0.006   1.433  11.977 -0.3712 -0.8601  2.5918
  704MOL0     H92882   0.181   1.153  11.971  1.2398 -1.3067  1.0471
  704MOL0     H92883   0.047   1.213  12.070 -0.1446  0.4290 -2.1090
  704MOL0     H92884   0.206   1.198  12.270  1.0303  0.5393  0.5409
  704MOL0     H92885   0.333   1.150  12.138 -0.3609 -1.9724 -1.3278
  704MOL0     H92886   0.271   0.963  12.265 -0.9023 -1.3470  1.1513
  704MOL0     H92887   0.100   0.976  12.230  1.6935 -1.0055 -0.2823
  704MOL0     H92888   0.138   0.925  11.983  1.5677  3.1953 -0.9504
  704MOL0     H92889   0.206   0.803  12.087  0.6487 -0.3585  0.3471
  704MOL0     H92890   0.224   0.734  11.866 -3.0112 -1.1117 -3.3616
  704MOL0     H92891   0.189   0.733  11.628 -3.4264  5.0365 -0.5582
  704MOL0     H92892   0.501   0.737  11.217 -3.3344  1.3546  2.4802
  704MOL0     H92893   0.521   0.727  10.976 -1.6332 -0.8720  2.0837
  704MOL0     H92894   0.513   1.035  10.625  0.5590  1.9935  0.4518
  704MOL0     H92895   0.440   1.127  10.759 -2.1692 -0.4273  1.0480
  704MOL0     H92896   0.234   0.967  10.741 -0.5163 -0.0285 -0.1604
  704MOL0     H92897   0.304   0.901  10.603 -1.1573  1.6123 -1.1901
  704MOL0     H92898   0.313   1.099  10.489 -2.8356  1.8285 -1.3421
  704MOL0     H92899   0.255   1.208  10.618  0.2557  1.7343 -1.7068
  704MOL0     H92900   0.096   1.102  10.417  1.2221 -1.4066  0.0345
  704MOL0     H92901   0.102   0.967  10.539  0.0196 -0.3108  2.0942
  704MOL0     H92902  -0.007   1.253  10.529  2.0861  1.8153  0.8684
  704MOL0     H92903   0.025   1.173  10.693  0.0247 -3.3415  0.1746
  704MOL0     H92904  -0.161   1.087  10.487  2.2362  0.8929 -0.2157
  704MOL0     H92905  -0.211   1.162  10.628 -0.2332 -0.9551  0.9574
  704MOL0     H92906  -0.044   0.898  10.674 -1.5259 -0.8042  4.6928
  704MOL0     H92907  -0.177   0.962  10.760  0.7307  1.2162  0.1549
  704MOL0     H92908  -0.195   0.827  10.495  3.4670 -0.9362  0.6372
  704MOL0     H92909  -0.330   0.901  10.573  0.1710 -0.1401 -3.5953
  704MOL0     H92910   0.431   1.155  10.961 -2.6420  0.3309  0.9229
  704MOL0     H92911   0.392   1.148  11.199  1.9729 -1.0548  1.1169
  704MOL0     H92912   0.535   0.980  11.594 -0.5357  0.2197  1.1327
  704MOL0     H92913   0.518   1.038  11.830 -1.3547  1.4742 -2.3726
  704MOL0     H92914   0.256   1.865  10.838 -0.8554  0.1763 -1.2865
  704MOL0     H92915   0.363   2.002  10.646  0.8708 -0.3567  0.2843
  704MOL0     H92916   0.868   2.223  10.532  0.3001  0.4088 -0.3515
  704MOL0     H92917   0.962   2.344  10.356 -1.5924 -0.6914 -0.7544
  704MOL0     H92918   0.865   2.769  10.175  0.1980 -0.3770 -2.9534
  704MOL0     H92919   0.749   2.731  10.296  1.8407 -0.9023  0.8577
  704MOL0     H92920   0.759   2.628  10.003  0.8898  0.2410 -0.5961
  704MOL0     H92921   0.606   2.655  10.107 -0.7260  0.3399 -2.5135
  704MOL0     H92922   0.790   2.853   9.973 -1.2900 -3.6343 -5.8243
  704MOL0     H92923   0.659   2.912  10.077  2.1078  2.7416 -1.8117
  704MOL0     H92924   0.615   2.730   9.851 -0.9675  0.8179  0.3790
  704MOL0     H92925   0.492   2.812   9.953  0.3183 -1.9022  2.1490
  704MOL0     H92926   0.644   3.091   9.644  2.7275 -1.7192 -1.8933
  704MOL0     H92927   0.590   2.581  10.342  0.8196  1.1308 -0.0628
  704MOL0     H92928   0.509   2.442  10.514 -0.7109 -0.3060 -1.4602
  705MOL0     O92929   0.229   0.600   5.345 -0.0336  0.2643  0.0889
  705MOL0     C92930   0.205   0.686   5.254  0.5107 -0.4025 -1.1646
  705MOL0     O92931   0.297   0.780   5.226 -0.6327 -0.8593  0.0192
  705MOL0     C92932   0.375   0.823   5.328  0.2032  0.0930 -0.2353
  705MOL0     C92933   0.326   0.914   5.417 -0.6046 -0.7640  0.4720
  705MOL0     C92934   0.414   0.977   5.510 -1.2424 -0.3355 -0.8055
  705MOL0     C92935   0.557   0.946   5.510 -0.7278 -0.4087  0.6068
  705MOL0     O92936   0.642   1.002   5.600 -0.1378  0.2835  0.4846
  705MOL0     C92937   0.773   0.942   5.615 -1.5481 -0.8860 -0.4892
  705MOL0     C92938   0.866   1.000   5.720 -0.7636  0.4012  0.2597
  705MOL0     C92939   0.994   0.917   5.706  0.2507 -0.2624  0.5430
  705MOL0     C92940   1.077   0.899   5.839 -0.6869  0.1573 -0.6029
  705MOL0     C92941   1.221   0.843   5.831  0.1758  0.2101  0.2155
  705MOL0     C92942   1.295   0.840   5.956 -0.2795  1.0606 -0.0614
  705MOL0     C92943   1.445   0.790   5.933 -0.0997  0.5687 -0.1328
  705MOL0     C92944   1.525   0.875   5.832 -0.7254 -0.4345  0.1721
  705MOL0     N92945   1.584   1.000   5.880  0.4264 -0.4125  0.6685
  705MOL0     C92946   1.684   1.008   5.974 -0.8321 -0.3586 -0.4266
  705MOL0     C92947   1.716   1.141   5.983  0.8313 -0.2542 -0.4721
  705MOL0     C92948   1.839   1.199   6.058 -0.3673 -0.2036  0.1612
  705MOL0     C92949   1.912   1.296   5.963 -0.2035  0.2706  0.1482
  705MOL0     C92950   2.023   1.371   6.044 -0.1993  0.5744  0.9125
  705MOL0     C92951   2.076   1.486   5.964  0.2222 -0.4161  0.1003
  705MOL0     O92952   2.156   1.431   5.863 -0.3815 -0.1037 -0.1735
  705MOL0     C92953   2.191   1.511   5.765 -0.4868 -0.5052 -0.4420
  705MOL0     C92954   2.126   1.502   5.647  0.0682 -0.9364  0.2788
  705MOL0     C92955   2.140   1.589   5.541 -0.1127 -0.0495  1.0046
  705MOL0     C92956   2.256   1.675   5.539 -0.1006 -0.5455 -0.7127
  705MOL0     C92957   2.293   1.753   5.412 -0.5596 -0.0265  0.5332
  705MOL0     O92958   2.398   1.851   5.424 -0.7759  0.1148  0.0062
  705MOL0     C92959   2.431   1.912   5.300  0.6682 -0.1386  0.1734
  705MOL0     C92960   2.457   2.049   5.305 -0.5485 -0.4497 -0.2223
  705MOL0     C92961   2.487   2.118   5.185 -0.5782  0.7994 -0.6367
  705MOL0     C92962   2.513   2.049   5.061  0.3060  0.2866  0.5320
  705MOL0     O92963   2.550   2.095   4.936 -0.0832  0.6555 -0.0793
  705MOL0     C92964   2.535   2.238   4.914 -0.6129  0.4933 -0.4008
  705MOL0     C92965   2.516   2.238   4.756  0.0531 -1.0233  0.1855
  705MOL0     C92966   2.654   2.204   4.686  0.1736 -0.2770 -0.7118
  705MOL0     C92967   2.632   2.235   4.536  0.6510  0.4475 -0.1466
  705MOL0     C92968   2.756   2.258   4.442 -0.5522  0.2143  0.1903
  705MOL0     C92969   2.707   2.222   4.295  0.5095  0.3228  0.7311
  705MOL0     C92970   2.822   2.201   4.198 -0.1586  0.7571 -0.2893
  705MOL0     C92971   2.875   2.328   4.128  0.5107  0.6643  0.6120
  705MOL0    Cl92972   3.006   2.416   4.207  0.0344 -0.4172 -0.5398
  705MOL0     C92973   2.497   1.908   5.059 -0.0108  0.1020 -0.5688
  705MOL0     C92974   2.457   1.843   5.176 -1.0739 -0.6763  0.1029
  705MOL0     O92975   2.237   1.720   5.309  0.5072  0.3246 -0.5514
  705MOL0     C92976   2.340   1.677   5.658 -0.7599  0.2004  0.3583
  705MOL0     C92977   2.305   1.597   5.771 -0.3166 -0.5425  0.6559
  705MOL0     N92978   1.610   1.202   5.914 -0.2767 -0.6312 -0.1592
  705MOL0     N92979   1.538   1.124   5.859 -0.1796  0.2893  0.1965
  705MOL0     C92980   0.608   0.855   5.412 -0.3639 -0.6376  0.5668
  705MOL0     C92981   0.511   0.797   5.323 -0.3043  0.2833 -0.8388
  705MOL0     C92982   0.100   0.645   5.155 -0.4782 -0.4313 -0.2413
  705MOL0     C92983  -0.001   0.556   5.196  0.0180  0.4630  0.4678
  705MOL0     C92984  -0.096   0.513   5.107  0.0149  0.0391  0.1233
  705MOL0     C92985  -0.102   0.568   4.978 -0.2352  0.1584  0.7207
  705MOL0     O92986  -0.206   0.535   4.897  0.3544  0.3812  0.4723
  705MOL0     C92987  -0.251   0.396   4.908 -0.7326 -1.1632 -0.8317
  705MOL0     C92988  -0.343   0.377   4.790 -0.0723 -0.1793  1.0460
  705MOL0     C92989  -0.362   0.232   4.749  0.2874  0.7617  0.5249
  705MOL0     C92990  -0.464   0.221   4.640 -0.3032 -0.9600 -0.5283
  705MOL0     C92991  -0.418   0.206   4.502  0.0996  0.7197  0.4290
  705MOL0     C92992  -0.403   0.202   4.382  1.1562 -0.2963  0.9255
  705MOL0     C92993  -0.005   0.661   4.934 -0.2219 -0.3417  0.0965
  705MOL0     C92994   0.099   0.694   5.021 -0.7968  0.1464  0.2421
  705MOL0     H92995   0.225   0.949   5.398  0.1213  1.2345 -0.0078
  705MOL0     H92996   0.373   1.051   5.579 -0.9644 -1.7506  0.9808
  705MOL0     H92997   0.827   0.959   5.521 -1.2770  2.3078  0.1323
  705MOL0     H92998   0.765   0.834   5.630  2.2702 -1.6782 -2.6673
  705MOL0     H92999   0.817   0.972   5.814  1.5496 -1.4380  1.0228
  705MOL0     H93000   0.886   1.108   5.710  1.1635  0.2154  1.5476
  705MOL0     H93001   1.059   0.967   5.633 -2.3690  3.1605  0.3124
  705MOL0     H93002   0.975   0.818   5.662  0.2724 -0.3140  0.6480
  705MOL0     H93003   1.080   0.992   5.897  0.0180 -1.9828  3.1663
  705MOL0     H93004   1.013   0.842   5.908 -0.7192 -0.5512 -1.2070
  705MOL0     H93005   1.269   0.900   5.752  3.7640 -2.7553 -0.0210
  705MOL0     H93006   1.209   0.742   5.792 -1.2028 -0.1480  1.4543
  705MOL0     H93007   1.233   0.775   6.018  2.4054 -1.2894  0.3961
  705MOL0     H93008   1.285   0.938   6.002 -2.1005  2.7867 -3.7386
  705MOL0     H93009   1.506   0.789   6.024 -2.0107  1.5497  1.2147
  705MOL0     H93010   1.449   0.687   5.896 -0.6678  0.5218 -0.0687
  705MOL0     H93011   1.468   0.898   5.741 -1.3477  0.7097  0.8278
  705MOL0     H93012   1.599   0.812   5.781  2.1518  1.7799  1.3644
  705MOL0     H93013   1.720   0.919   6.024  1.4719 -1.2198 -3.3653
  705MOL0     H93014   1.914   1.124   6.083  1.2582  0.1402 -3.1649
  705MOL0     H93015   1.792   1.251   6.142 -1.6060 -0.6225 -0.2505
  705MOL0     H93016   1.842   1.372   5.929 -1.7464 -0.5884  1.3141
  705MOL0     H93017   1.958   1.250   5.875  1.0462  2.6466 -0.5466
  705MOL0     H93018   1.981   1.410   6.137 -0.4960  1.6550  0.3417
  705MOL0     H93019   2.104   1.303   6.072  0.5910 -0.2323 -2.7349
  705MOL0     H93020   2.132   1.560   6.021 -0.5858  0.7518 -0.5673
  705MOL0     H93021   1.991   1.533   5.913 -0.8420 -0.2549  1.9274
  705MOL0     H93022   2.034   1.446   5.631 -1.4487  1.6279 -0.5110
  705MOL0     H93023   2.085   1.578   5.448  0.1030  2.3637  0.5304
  705MOL0     H93024   2.453   2.110   5.394 -0.3874  1.1413 -1.2729
  705MOL0     H93025   2.499   2.226   5.186  0.2372  0.7873  2.8620
  705MOL0     H93026   2.624   2.298   4.935 -1.1667  0.8694  1.0155
  705MOL0     H93027   2.448   2.289   4.956 -0.5275  1.7005 -1.6258
  705MOL0     H93028   2.479   2.337   4.728 -4.0682 -2.4718 -0.0886
  705MOL0     H93029   2.438   2.164   4.737 -1.4283  0.3551  0.6597
  705MOL0     H93030   2.667   2.096   4.692  2.4495 -0.0288 -0.1472
  705MOL0     H93031   2.731   2.266   4.734 -1.6511  0.3816  1.6003
  705MOL0     H93032   2.565   2.158   4.494  1.0217  1.0692 -1.9722
  705MOL0     H93033   2.577   2.329   4.529 -0.4870 -0.2803 -2.3538
  705MOL0     H93034   2.830   2.184   4.473  1.1998  1.4483 -0.8713
  705MOL0     H93035   2.781   2.365   4.446 -4.4859  1.3191  0.2329
  705MOL0     H93036   2.629   2.293   4.265 -0.7235 -1.4052 -0.3165
  705MOL0     H93037   2.656   2.127   4.310 -0.0797  0.4801 -0.1757
  705MOL0     H93038   2.902   2.147   4.249 -0.6176  0.5429  0.2117
  705MOL0     H93039   2.793   2.143   4.110  3.4894  2.5673 -2.9721
  705MOL0     H93040   2.784   2.388   4.119  0.7106  1.2611  2.1455
  705MOL0     H93041   2.900   2.307   4.024  0.2083 -0.3169  0.7333
  705MOL0     H93042   2.523   1.853   4.969  0.7387  1.5754 -1.2780
  705MOL0     H93043   2.438   1.736   5.171  0.7194 -0.9688 -1.9589
  705MOL0     H93044   2.433   1.733   5.658 -0.3956 -0.3644  1.3646
  705MOL0     H93045   2.357   1.596   5.867  2.7305 -1.8123 -0.8892
  705MOL0     H93046   0.710   0.820   5.413 -1.2580 -3.5165  0.5446
  705MOL0     H93047   0.547   0.727   5.248 -1.0596  0.3351 -1.2551
  705MOL0     H93048  -0.002   0.529   5.301  0.2971  1.6568  0.7891
  705MOL0     H93049  -0.167   0.440   5.143  0.2034 -1.2276 -1.9324
  705MOL0     H93050  -0.311   0.377   4.998  0.4005 -0.2681  0.1498
  705MOL0     H93051  -0.165   0.329   4.900 -0.2768 -0.7368  0.2175
  705MOL0     H93052  -0.437   0.426   4.820  0.9121  1.0450  2.2741
  705MOL0     H93053  -0.296   0.429   4.706  0.6184 -0.0006  1.5323
  705MOL0     H93054  -0.397   0.179   4.838  1.3559  0.6115  0.8704
  705MOL0     H93055  -0.271   0.183   4.713 -1.2637 -2.2910  0.4087
  705MOL0     H93056  -0.522   0.131   4.662 -0.8798  0.3405  4.5266
  705MOL0     H93057  -0.528   0.310   4.635  2.1959  0.9393 -0.6614
  705MOL0     H93058  -0.399   0.206   4.275 -0.2410  1.5281  0.8970
  705MOL0     H93059  -0.010   0.704   4.834  0.8318 -0.7228 -0.1297
  705MOL0     H93060   0.174   0.766   4.990  0.4757 -0.8989  0.8138
  706MOL0     O93061   2.593   2.161   6.724  0.6734  0.1391 -0.1896
  706MOL0     C93062   2.533   2.251   6.663 -1.0946  0.1429 -0.7523
  706MOL0     O93063   2.571   2.302   6.543  0.0181 -0.5985 -0.0373
  706MOL0     C93064   2.690   2.277   6.473  0.2214 -0.9306 -0.7853
  706MOL0     C93065   2.678   2.285   6.334  0.8534  0.1023 -0.3802
  706MOL0     C93066   2.780   2.231   6.258 -0.4478  0.0324 -0.1435
  706MOL0     C93067   2.889   2.167   6.317  0.1935  0.7905  0.2096
  706MOL0     O93068   2.977   2.104   6.226  0.3045  0.2152 -0.7177
  706MOL0     C93069   2.908   2.009   6.140 -0.9998 -0.7425 -0.1343
  706MOL0     C93070   3.020   1.919   6.077 -0.3511 -0.5852  0.8203
  706MOL0     C93071   3.162   1.964   6.027  0.0137  0.5461  0.3750
  706MOL0     C93072   3.171   2.040   5.898  0.4013 -0.1577  0.0380
  706MOL0     C93073   3.305   2.071   5.827 -1.1614  0.1922 -0.8987
  706MOL0     C93074   3.387   1.952   5.775 -0.5789 -0.3490  0.1611
  706MOL0     C93075   3.353   1.929   5.620  0.1622  0.3629  0.1651
  706MOL0     C93076   3.442   1.820   5.554 -1.0913  0.4507 -0.5194
  706MOL0     N93077   3.588   1.846   5.541  0.6036  0.1338  0.0292
  706MOL0     C93078   3.671   1.794   5.638  0.6860  0.9112 -0.1266
  706MOL0     C93079   3.791   1.831   5.592 -0.0636 -0.2109 -0.3750
  706MOL0     C93080   3.931   1.810   5.646  0.4667  0.4383  0.0486
  706MOL0     C93081   3.927   1.719   5.773 -0.2728 -0.1981  0.1435
  706MOL0     C93082   4.068   1.723   5.837  0.6370  0.4313  0.3018
  706MOL0     C93083   4.074   1.638   5.969 -0.4350  0.0381  0.8382
  706MOL0     O93084   4.108   1.506   5.931  0.1214 -0.0055  0.0084
  706MOL0     C93085   4.120   1.414   6.030 -0.5043 -0.6546  0.8765
  706MOL0     C93086   4.141   1.285   5.985  0.0413  0.4022 -0.0452
  706MOL0     C93087   4.153   1.180   6.083 -0.3735 -0.1298 -1.0743
  706MOL0     C93088   4.141   1.208   6.222  0.0672  0.5259  1.1241
  706MOL0     C93089   4.170   1.115   6.334  0.4594  0.9570  0.2477
  706MOL0     O93090   4.111   1.164   6.448 -0.2566  0.4939  0.2492
  706MOL0     C93091   4.121   1.096   6.562 -0.6871  0.1642 -0.5965
  706MOL0     C93092   4.009   1.066   6.642 -0.8408  0.4494  0.7536
  706MOL0     C93093   4.023   1.006   6.768 -0.1351 -1.1564  0.0635
  706MOL0     C93094   4.146   0.955   6.812 -0.4861 -0.6730 -1.0768
  706MOL0     O93095   4.174   0.888   6.936 -0.4931 -1.1861  0.6563
  706MOL0     C93096   4.075   0.790   6.965 -0.7589 -0.6055  0.7036
  706MOL0     C93097   4.145   0.676   7.041  0.4774 -0.4278  0.6583
  706MOL0     C93098   4.054   0.558   7.076 -0.0478 -0.7244 -0.0147
  706MOL0     C93099   4.124   0.472   7.180 -0.1165 -0.8106 -0.3945
  706MOL0     C93100   4.066   0.338   7.204  0.1298  0.3930  0.0511
  706MOL0     C93101   3.912   0.341   7.210  0.2591 -0.0174 -0.4191
  706MOL0     C93102   3.854   0.211   7.208  0.3918  0.4948 -0.3128
  706MOL0     C93103   3.695   0.217   7.206 -0.3820  0.8751 -0.3828
  706MOL0    Cl93104   3.625   0.312   7.331 -0.2934 -0.3261  0.4235
  706MOL0     C93105   4.257   0.982   6.738 -0.4261  0.6815 -0.1306
  706MOL0     C93106   4.243   1.046   6.612 -0.7106  0.6603  0.4100
  706MOL0     O93107   4.225   1.007   6.318 -0.3985 -0.2802  0.7515
  706MOL0     C93108   4.117   1.343   6.260 -0.7539  0.2665 -0.1086
  706MOL0     C93109   4.110   1.446   6.163  0.0946  0.1258 -0.8811
  706MOL0     N93110   3.785   1.907   5.476 -0.4139  0.1689 -0.2102
  706MOL0     N93111   3.655   1.923   5.452 -0.1145 -0.1972  0.6076
  706MOL0     C93112   2.909   2.175   6.451  0.2461 -0.1993 -0.3662
  706MOL0     C93113   2.801   2.227   6.535  0.7132  0.5563  0.3586
  706MOL0     C93114   2.422   2.312   6.746 -0.3622  0.7715 -0.6200
  706MOL0     C93115   2.402   2.264   6.884 -0.6706  0.3002  0.6716
  706MOL0     C93116   2.304   2.317   6.972 -0.9660  0.4058  0.0932
  706MOL0     C93117   2.229   2.427   6.929 -0.8813 -0.1495 -0.2586
  706MOL0     O93118   2.124   2.470   6.998 -1.0628  0.4537 -0.1502
  706MOL0     C93119   2.126   2.608   7.022  1.6084  0.4712  0.6585
  706MOL0     C93120   2.048   2.705   6.929 -0.1648  0.2392  0.6477
  706MOL0     C93121   1.904   2.660   6.911  0.3993 -0.6788  1.2411
  706MOL0     C93122   1.816   2.746   6.815  0.4517 -0.8559 -0.2582
  706MOL0     C93123   1.692   2.674   6.765  0.3025  0.7035  1.2992
  706MOL0     C93124   1.600   2.610   6.728  0.5696  0.2515  0.0728
  706MOL0     C93125   2.237   2.464   6.790  0.4538 -0.3187 -0.2749
  706MOL0     C93126   2.343   2.414   6.706  0.1577 -0.9020  0.1542
  706MOL0     H93127   2.586   2.326   6.295 -0.1042  0.8884  2.4766
  706MOL0     H93128   2.779   2.226   6.149 -0.2422 -2.7670 -0.0829
  706MOL0     H93129   2.865   2.062   6.055  0.6465 -0.7436 -1.0214
  706MOL0     H93130   2.837   1.952   6.201 -2.4453  1.1458  0.0348
  706MOL0     H93131   2.967   1.852   6.009 -2.3786 -0.2866  2.0378
  706MOL0     H93132   3.061   1.865   6.164  1.2050 -0.0328  0.4724
  706MOL0     H93133   3.229   1.878   6.013 -0.7861  0.3657 -3.5460
  706MOL0     H93134   3.210   2.025   6.104 -0.3646  1.3817 -0.0339
  706MOL0     H93135   3.125   1.973   5.825  0.8443 -1.0994  0.6161
  706MOL0     H93136   3.120   2.136   5.914 -0.5921 -1.1524  3.4542
  706MOL0     H93137   3.374   2.125   5.893 -2.2206  1.9590 -1.1796
  706MOL0     H93138   3.283   2.145   5.750  1.5665  2.9854  0.7720
  706MOL0     H93139   3.361   1.858   5.825 -2.7976  0.1980  0.1385
  706MOL0     H93140   3.491   1.987   5.781 -1.0256  0.8319  1.1954
  706MOL0     H93141   3.249   1.897   5.614  0.3435 -0.3193  0.5520
  706MOL0     H93142   3.371   2.016   5.557  2.9522  1.4310  2.2009
  706MOL0     H93143   3.402   1.832   5.452 -1.5578  1.6979 -0.2128
  706MOL0     H93144   3.433   1.718   5.594  5.7954 -1.0706 -1.6677
  706MOL0     H93145   3.643   1.751   5.733  0.4013  2.4211  0.5134
  706MOL0     H93146   3.981   1.903   5.675  1.8932 -0.2661 -0.0482
  706MOL0     H93147   3.991   1.754   5.573  2.4132  0.4827  1.5121
  706MOL0     H93148   3.917   1.619   5.730  2.4630  0.0498 -1.3161
  706MOL0     H93149   3.841   1.737   5.837  0.1524 -0.7468  0.8785
  706MOL0     H93150   4.152   1.686   5.777  1.0609 -1.1411  1.7834
  706MOL0     H93151   4.089   1.828   5.856  1.3614  0.1906  0.8507
  706MOL0     H93152   3.982   1.656   6.025  0.4645  0.5752  2.1868
  706MOL0     H93153   4.153   1.672   6.037 -0.0424 -2.5474  1.7487
  706MOL0     H93154   4.144   1.261   5.879 -0.3597 -1.3964  0.3119
  706MOL0     H93155   4.182   1.079   6.057  2.0315  0.0506  0.5139
  706MOL0     H93156   3.922   1.110   6.595  0.0559 -0.8818 -2.4097
  706MOL0     H93157   3.937   0.994   6.832  0.5902 -1.7190  0.9576
  706MOL0     H93158   4.042   0.740   6.874  1.9609 -0.4616 -0.4680
  706MOL0     H93159   3.993   0.836   7.021 -0.1919 -2.6894  3.5075
  706MOL0     H93160   4.178   0.733   7.129  1.3624  0.3484 -0.1544
  706MOL0     H93161   4.230   0.630   6.989 -0.7015 -4.6094  2.0234
  706MOL0     H93162   4.029   0.503   6.986  0.3311  0.9993 -1.2322
  706MOL0     H93163   3.962   0.601   7.117 -0.7256 -2.2974  0.1832
  706MOL0     H93164   4.225   0.453   7.141 -1.2022 -4.1942 -1.8691
  706MOL0     H93165   4.134   0.521   7.277  5.4498  1.1963 -1.5752
  706MOL0     H93166   4.106   0.304   7.300 -0.0940  4.2608  1.6990
  706MOL0     H93167   4.103   0.271   7.126  0.7251 -0.5122  1.0800
  706MOL0     H93168   3.868   0.399   7.129 -2.5622 -3.4003 -1.5327
  706MOL0     H93169   3.886   0.389   7.305 -2.1689  0.6921 -1.3759
  706MOL0     H93170   3.888   0.142   7.131  1.6119 -0.9225  1.3979
  706MOL0     H93171   3.877   0.144   7.291 -0.2832 -0.8467 -1.1778
  706MOL0     H93172   3.654   0.115   7.207 -1.3533  1.2549  0.1005
  706MOL0     H93173   3.667   0.271   7.115  0.2362 -2.0888 -2.4840
  706MOL0     H93174   4.356   0.945   6.762  0.7101  2.4329 -1.8082
  706MOL0     H93175   4.333   1.053   6.551  0.3755 -0.4012  1.8198
  706MOL0     H93176   4.113   1.367   6.366  1.8488 -1.8093  0.5670
  706MOL0     H93177   4.088   1.550   6.183  0.5289  0.7262 -3.1814
  706MOL0     H93178   3.004   2.148   6.497  0.8891  0.9693 -0.9709
  706MOL0     H93179   2.808   2.223   6.644  0.1299 -1.4604  0.3515
  706MOL0     H93180   2.474   2.189   6.914 -0.2632  0.9202  1.2645
  706MOL0     H93181   2.279   2.268   7.065 -0.4447  3.0339  1.7409
  706MOL0     H93182   2.228   2.646   7.017  0.5974  4.1557  3.1439
  706MOL0     H93183   2.074   2.622   7.118  3.2981 -0.3441  1.7441
  706MOL0     H93184   2.046   2.805   6.971  0.2127 -0.3112  2.0202
  706MOL0     H93185   2.090   2.701   6.828 -1.1910 -2.2976  0.2352
  706MOL0     H93186   1.867   2.660   7.013 -2.1612 -2.2050  0.3914
  706MOL0     H93187   1.909   2.556   6.877  2.3609 -0.3423  0.3087
  706MOL0     H93188   1.783   2.824   6.884  3.1275  0.6180 -0.4979
  706MOL0     H93189   1.873   2.783   6.729 -0.8502 -0.8917 -1.1589
  706MOL0     H93190   1.519   2.551   6.689  0.2451 -0.6771  2.0513
  706MOL0     H93191   2.161   2.525   6.742 -0.5058 -0.6332  0.7976
  706MOL0     H93192   2.353   2.449   6.604  0.5391  1.5884  0.9646
  707MOL0     O93193   9.524   5.396   4.899  0.6201 -0.4539 -0.4127
  707MOL0     C93194   9.466   5.438   4.996  0.3719  0.4811  0.9222
  707MOL0     O93195   9.445   5.566   5.029 -0.0530 -0.5370  0.2909
  707MOL0     C93196   9.470   5.669   4.947  0.5723  1.1116  0.7128
  707MOL0     C93197   9.475   5.669   4.805 -0.1069 -0.0825 -0.8140
  707MOL0     C93198   9.515   5.783   4.735  0.1209 -0.1778 -0.2302
  707MOL0     C93199   9.542   5.900   4.807 -0.2344  0.4424  0.2856
  707MOL0     O93200   9.568   6.020   4.751  0.2565  0.4099 -0.0847
  707MOL0     C93201   9.497   6.062   4.633  0.4678  0.7453 -0.6665
  707MOL0     C93202   9.564   6.011   4.506  0.2752 -0.2370 -0.6822
  707MOL0     C93203   9.653   6.129   4.441 -0.0656  0.6521 -0.0372
  707MOL0     C93204   9.789   6.149   4.514  0.5259 -0.0961 -0.7292
  707MOL0     C93205   9.873   6.254   4.436  0.4299  0.4356 -0.4110
  707MOL0     C93206   9.883   6.248   4.282  0.1203  0.7100  0.7471
  707MOL0     C93207   9.945   6.111   4.232 -0.3165  0.0650  0.1745
  707MOL0     C93208  10.052   6.119   4.119  0.5232 -0.0229  0.0508
  707MOL0     N93209  10.156   6.229   4.136  0.1804 -0.6548  0.1951
  707MOL0     C93210  10.250   6.262   4.233 -0.2457  0.4444 -1.1065
  707MOL0     C93211  10.327   6.361   4.173  0.5902 -0.4642 -1.0225
  707MOL0     C93212  10.443   6.434   4.229  0.6454  0.7884  0.1630
  707MOL0     C93213  10.575   6.417   4.143 -0.1465 -0.3313 -0.1408
  707MOL0     C93214  10.665   6.292   4.173 -1.0147  0.1805  0.0049
  707MOL0     C93215  10.805   6.306   4.113 -0.5231 -0.2890 -0.7645
  707MOL0     O93216  10.898   6.389   4.185 -0.1505 -0.5610 -0.2538
  707MOL0     C93217  10.992   6.461   4.119 -0.7883  0.1776 -0.1449
  707MOL0     C93218  11.025   6.456   3.982  0.7485 -0.0210 -1.1665
  707MOL0     C93219  11.132   6.526   3.923  1.1001  0.8267  0.4567
  707MOL0     C93220  11.183   6.634   3.996 -0.7794  0.9670  0.4716
  707MOL0     C93221  11.280   6.728   3.922 -0.0671 -0.0435 -1.3223
  707MOL0     O93222  11.318   6.842   3.980 -0.5268 -0.6800  0.5043
  707MOL0     C93223  11.398   6.920   3.897  0.4717  0.7953 -0.4649
  707MOL0     C93224  11.530   6.928   3.929 -0.1028 -0.1600  0.1967
  707MOL0     C93225  11.625   7.015   3.881  1.2454 -0.8882  0.8773
  707MOL0     C93226  11.576   7.088   3.771  1.2352  0.8681 -0.1796
  707MOL0     O93227  11.650   7.184   3.695 -0.2309  0.1467  0.2852
  707MOL0     C93228  11.791   7.212   3.736  0.0440  0.4716 -0.3077
  707MOL0     C93229  11.869   7.305   3.638  0.9191 -0.1435  0.0739
  707MOL0     C93230  12.012   7.285   3.679 -0.0549  0.4509 -0.7740
  707MOL0     C93231  12.118   7.392   3.636  1.6066  0.7298  0.0933
  707MOL0     C93232  12.164   7.353   3.495 -1.1264  0.0955  0.2464
  707MOL0     C93233  12.268   7.455   3.453 -0.1686  1.4057  0.5761
  707MOL0     C93234  12.379   7.380   3.369 -0.7814  0.3079 -0.8011
  707MOL0     C93235  12.486   7.487   3.345  0.9666  0.3948 -0.6441
  707MOL0    Cl93236  12.609   7.502   3.477  0.2342 -0.1118 -0.2527
  707MOL0     C93237  11.440   7.085   3.728 -0.6137 -0.5602 -1.1096
  707MOL0     C93238  11.357   6.999   3.789 -0.9531  0.7663  0.5942
  707MOL0     O93239  11.303   6.692   3.806  1.1125  0.6714 -0.5164
  707MOL0     C93240  11.155   6.646   4.122 -0.4547  0.3671 -0.4049
  707MOL0     C93241  11.059   6.557   4.187 -0.9591  0.0323 -0.3345
  707MOL0     N93242  10.286   6.378   4.040 -0.9501  0.3985 -0.2623
  707MOL0     N93243  10.187   6.303   4.022  0.7883  0.5356 -0.6328
  707MOL0     C93244   9.539   5.897   4.943  0.7346 -0.3068  0.9575
  707MOL0     C93245   9.496   5.785   5.014 -0.0808 -0.7655  0.1901
  707MOL0     C93246   9.426   5.334   5.091  0.0766 -0.0955  0.1589
  707MOL0     C93247   9.390   5.370   5.229  0.1424  0.1768 -0.4682
  707MOL0     C93248   9.371   5.277   5.325  0.3316 -0.1115 -0.7630
  707MOL0     C93249   9.377   5.141   5.300 -0.3146 -0.4897  0.2042
  707MOL0     O93250   9.332   5.072   5.409  0.5676  0.1442 -0.9288
  707MOL0     C93251   9.338   4.932   5.390  0.2651 -0.0983  1.1300
  707MOL0     C93252   9.341   4.869   5.528  0.1528 -0.0168 -0.1872
  707MOL0     C93253   9.367   4.723   5.503  0.9419  0.4731 -0.5358
  707MOL0     C93254   9.377   4.642   5.630 -0.1693  0.2401 -0.5174
  707MOL0     C93255   9.243   4.605   5.679  0.0388 -0.5576 -0.4623
  707MOL0     C93256   9.129   4.570   5.715 -0.0568 -0.1261  0.8193
  707MOL0     C93257   9.423   5.106   5.170  0.2380  0.1114 -0.4793
  707MOL0     C93258   9.448   5.195   5.068  0.0960 -0.2464 -0.3588
  707MOL0     H93259   9.449   5.580   4.750 -2.1073  1.7277 -3.0185
  707MOL0     H93260   9.534   5.772   4.628  0.1113 -0.4412 -0.2053
  707MOL0     H93261   9.479   6.170   4.623 -1.6010  0.6111  0.9739
  707MOL0     H93262   9.402   6.009   4.643  2.0662 -1.8777  3.0623
  707MOL0     H93263   9.482   5.974   4.443 -1.1607 -3.4606  2.6996
  707MOL0     H93264   9.632   5.930   4.533 -1.0306 -0.9263  0.6861
  707MOL0     H93265   9.594   6.221   4.441  0.2203  0.8962  2.3736
  707MOL0     H93266   9.671   6.092   4.340 -2.0846  0.4995 -0.3888
  707MOL0     H93267   9.764   6.189   4.613  0.7981 -0.4989 -0.4947
  707MOL0     H93268   9.835   6.052   4.537  3.0802  1.4966  1.4154
  707MOL0     H93269   9.976   6.245   4.473  0.1861 -0.8203  0.0125
  707MOL0     H93270   9.842   6.356   4.460  1.0168  0.4502  0.3295
  707MOL0     H93271   9.952   6.328   4.250  1.0193 -0.7840 -1.2792
  707MOL0     H93272   9.796   6.264   4.218  2.4005  0.1133 -2.7723
  707MOL0     H93273   9.992   6.065   4.320 -2.1397  1.0379  1.7237
  707MOL0     H93274   9.872   6.037   4.199 -0.4959 -1.7388  3.9890
  707MOL0     H93275   9.998   6.135   4.025  0.1605 -0.8600  0.1061
  707MOL0     H93276  10.112   6.030   4.100  1.6972  0.9459 -1.0022
  707MOL0     H93277  10.250   6.233   4.337 -1.6237  0.8910 -0.9546
  707MOL0     H93278  10.466   6.404   4.331  0.1435  1.0139  0.3447
  707MOL0     H93279  10.413   6.539   4.225 -0.1569  0.5445 -0.6471
  707MOL0     H93280  10.642   6.504   4.140 -0.8386  0.1916 -2.5589
  707MOL0     H93281  10.550   6.419   4.037 -0.3908  2.6228 -0.1064
  707MOL0     H93282  10.679   6.262   4.278  0.7667  1.3334  0.1499
  707MOL0     H93283  10.622   6.202   4.129  0.2804  0.3493 -1.7256
  707MOL0     H93284  10.787   6.333   4.008 -1.5690 -1.1955 -0.8398
  707MOL0     H93285  10.846   6.205   4.121 -4.6309 -2.0892  0.0312
  707MOL0     H93286  10.975   6.382   3.921 -0.1229 -0.9862  0.6390
  707MOL0     H93287  11.156   6.499   3.821  3.2797  1.7319  0.6758
  707MOL0     H93288  11.564   6.862   4.008  0.9604  1.0443  0.7789
  707MOL0     H93289  11.727   7.011   3.918  0.8839  0.8565  2.1714
  707MOL0     H93290  11.836   7.112   3.739 -2.0088 -0.6672 -2.9273
  707MOL0     H93291  11.779   7.246   3.839 -0.1710 -0.0434 -0.1553
  707MOL0     H93292  11.832   7.408   3.645  2.7880  0.6051 -0.4873
  707MOL0     H93293  11.872   7.271   3.535  1.5781 -3.0643  0.9578
  707MOL0     H93294  12.042   7.184   3.651  3.4012 -0.0100  3.5995
  707MOL0     H93295  12.016   7.284   3.788 -0.1845  0.0411 -0.7714
  707MOL0     H93296  12.077   7.493   3.639  0.6895  0.3465  1.6399
  707MOL0     H93297  12.202   7.394   3.705  0.7094 -0.3689  1.2757
  707MOL0     H93298  12.086   7.349   3.418 -2.3845 -1.1013  1.5328
  707MOL0     H93299  12.204   7.251   3.493 -1.6539 -0.1269  0.6003
  707MOL0     H93300  12.318   7.507   3.535 -0.0226  0.6692  0.9676
  707MOL0     H93301  12.211   7.524   3.390 -2.5478 -1.1538 -0.2930
  707MOL0     H93302  12.414   7.288   3.416  1.1547 -0.4130 -3.4165
  707MOL0     H93303  12.356   7.339   3.270  2.5191  2.3636 -2.5976
  707MOL0     H93304  12.433   7.581   3.330 -1.5160 -1.0139 -1.3291
  707MOL0     H93305  12.556   7.462   3.265  3.0436  2.3956  0.4360
  707MOL0     H93306  11.410   7.133   3.635 -1.8180  0.8521 -0.0356
  707MOL0     H93307  11.257   7.008   3.749 -0.8181  2.6718  0.5873
  707MOL0     H93308  11.189   6.734   4.175  1.6165 -0.5379 -0.1295
  707MOL0     H93309  11.044   6.570   4.294  0.7396 -1.0796  0.0787
  707MOL0     H93310   9.547   5.993   4.993 -0.5904  0.6221 -0.5223
  707MOL0     H93311   9.489   5.796   5.122 -0.8717  0.9978 -0.0090
  707MOL0     H93312   9.379   5.476   5.246 -3.5659 -0.1758  0.1617
  707MOL0     H93313   9.339   5.303   5.426 -1.8710  0.7325 -1.5985
  707MOL0     H93314   9.427   4.907   5.332  0.6551  2.3505  0.5411
  707MOL0     H93315   9.246   4.905   5.336  0.2473  2.1709 -0.1145
  707MOL0     H93316   9.418   4.922   5.584 -0.9838  0.3900  1.0638
  707MOL0     H93317   9.249   4.879   5.587  0.8371 -0.2089  0.9548
  707MOL0     H93318   9.462   4.709   5.451  0.4982  1.9060 -1.8093
  707MOL0     H93319   9.297   4.667   5.442 -3.4966  3.9909  0.7927
  707MOL0     H93320   9.440   4.556   5.607 -0.3467 -0.2799  0.8617
  707MOL0     H93321   9.431   4.711   5.696  1.9693  1.3584 -3.2605
  707MOL0     H93322   9.030   4.538   5.740  0.3351 -2.0091  0.1342
  707MOL0     H93323   9.432   4.998   5.160 -2.6482 -0.3166  0.5286
  707MOL0     H93324   9.510   5.157   4.988 -1.2423 -2.2387 -0.4976
  708MOL0     O93325  11.313   0.486   9.828 -0.2082 -0.4854  0.2274
  708MOL0     C93326  11.293   0.547   9.725  0.4216 -1.0238 -0.6030
  708MOL0     O93327  11.163   0.575   9.675 -0.8145  0.5732  0.1958
  708MOL0     C93328  11.061   0.497   9.736  0.2393 -0.1224  0.3534
  708MOL0     C93329  11.061   0.360   9.732 -0.5075 -0.6079 -0.5731
  708MOL0     C93330  10.967   0.273   9.799 -0.5310 -0.5398 -0.2931
  708MOL0     C93331  10.854   0.334   9.852  0.1101  0.0451 -0.0872
  708MOL0     O93332  10.758   0.244   9.911 -0.6958  0.0161 -0.8236
  708MOL0     C93333  10.613   0.248   9.897 -0.7009 -0.4768  0.2220
  708MOL0     C93334  10.554   0.125   9.832 -0.1831  0.4797 -0.4808
  708MOL0     C93335  10.547   0.143   9.677  0.4756 -0.9064 -0.4147
  708MOL0     C93336  10.451   0.052   9.605 -0.4613  0.1534  0.4433
  708MOL0     C93337  10.429   0.095   9.452  0.1815  0.0428  0.3715
  708MOL0     C93338  10.566   0.082   9.381  0.0588  0.3609  0.2784
  708MOL0     C93339  10.576   0.139   9.231  0.0524 -0.2537 -0.3315
  708MOL0     C93340  10.712   0.135   9.160 -0.5206  0.2357  0.3683
  708MOL0     N93341  10.693   0.179   9.025  0.2256  0.2444  0.2400
  708MOL0     C93342  10.699   0.099   8.913  0.1967  0.0683 -0.0661
  708MOL0     C93343  10.659   0.176   8.806 -0.1656  0.6611  0.0271
  708MOL0     C93344  10.680   0.124   8.661  0.0603  0.1902  0.1290
  708MOL0     C93345  10.826   0.104   8.609 -0.4512  0.1463 -0.4405
  708MOL0     C93346  10.829   0.056   8.462  0.3916 -0.5734 -0.4581
  708MOL0     C93347  10.775  -0.087   8.448  0.0689  0.6316 -0.2018
  708MOL0     O93348  10.782  -0.128   8.305  0.3156 -0.6038 -0.2914
  708MOL0     C93349  10.692  -0.222   8.262 -0.5118 -0.4430  0.2333
  708MOL0     C93350  10.630  -0.212   8.131  0.2006 -0.5008  0.7417
  708MOL0     C93351  10.526  -0.292   8.085 -0.0874 -0.4463  0.1498
  708MOL0     C93352  10.482  -0.399   8.170 -0.5503  0.7902 -0.4039
  708MOL0     C93353  10.364  -0.487   8.134 -0.2134 -0.0479  0.4518
  708MOL0     O93354  10.330  -0.584   8.230 -0.8922 -0.9784 -0.1324
  708MOL0     C93355  10.202  -0.642   8.235 -0.5057 -0.5793  0.3657
  708MOL0     C93356  10.163  -0.662   8.364  0.9630  0.2408 -0.6340
  708MOL0     C93357  10.036  -0.723   8.390  0.1265  0.7162 -0.1031
  708MOL0     C93358   9.945  -0.755   8.279 -1.0281  0.4117 -0.9349
  708MOL0     O93359   9.836  -0.832   8.305  0.6587  0.3564 -0.2197
  708MOL0     C93360   9.718  -0.799   8.235 -0.3553 -0.2059  0.0474
  708MOL0     C93361   9.650  -0.673   8.305  0.4802 -0.2209 -0.5884
  708MOL0     C93362   9.603  -0.696   8.456 -0.0993  0.5278 -0.2077
  708MOL0     C93363   9.461  -0.765   8.457 -1.0674  0.2106  0.4169
  708MOL0     C93364   9.407  -0.819   8.588 -0.4426 -0.2389 -0.2981
  708MOL0     C93365   9.261  -0.874   8.581  0.6873  1.0542  0.9623
  708MOL0     C93366   9.206  -0.931   8.710  0.3626  0.0094  0.5603
  708MOL0     C93367   9.256  -1.070   8.735 -0.2888  0.5292 -0.3295
  708MOL0    Cl93368   9.188  -1.144   8.881  0.2085  0.1243 -0.0055
  708MOL0     C93369   9.986  -0.718   8.149 -0.0058  0.4556 -0.3001
  708MOL0     C93370  10.109  -0.664   8.130 -0.4855 -0.6528  0.1864
  708MOL0     O93371  10.299  -0.458   8.037  0.4528  0.1122  0.1912
  708MOL0     C93372  10.542  -0.409   8.302 -0.1211  0.3448 -0.1193
  708MOL0     C93373  10.648  -0.326   8.344  1.0182 -0.5425 -0.6504
  708MOL0     N93374  10.640   0.302   8.862  0.1506  0.4513  0.1941
  708MOL0     N93375  10.657   0.304   8.988 -0.0118  0.2214 -0.4756
  708MOL0     C93376  10.837   0.468   9.841  0.6003  0.9833  0.7511
  708MOL0     C93377  10.940   0.552   9.779  0.7509 -0.3016 -0.3421
  708MOL0     C93378  11.409   0.578   9.642 -0.1526 -0.5749  0.1935
  708MOL0     C93379  11.533   0.526   9.678 -0.1156 -0.2811 -0.3966
  708MOL0     C93380  11.648   0.559   9.614  0.1240  0.6630 -0.4834
  708MOL0     C93381  11.648   0.631   9.495  0.7972  0.7730  0.0836
  708MOL0     O93382  11.764   0.633   9.427 -0.5704  0.0734  0.5224
  708MOL0     C93383  11.758   0.647   9.282  0.3274 -0.2535 -0.2061
  708MOL0     C93384  11.895   0.598   9.228  1.6476 -0.0971 -1.3342
  708MOL0     C93385  11.881   0.562   9.073 -0.1715  0.1795  0.4674
  708MOL0     C93386  12.009   0.516   9.018 -0.3769  0.2160  0.0630
  708MOL0     C93387  12.065   0.408   9.096  0.3093  0.5895  0.0641
  708MOL0     C93388  12.115   0.315   9.154  0.1799 -0.4592 -0.0293
  708MOL0     C93389  11.521   0.681   9.448 -0.0859  0.1090 -0.8820
  708MOL0     C93390  11.405   0.652   9.524  0.3222 -0.6607  0.0649
  708MOL0     H93391  11.148   0.319   9.682  0.9362  0.4603  0.9663
  708MOL0     H93392  10.984   0.166   9.797 -1.0644 -0.6667  0.9968
  708MOL0     H93393  10.584   0.336   9.837 -0.0931 -1.6608 -1.9145
  708MOL0     H93394  10.577   0.260   9.999 -3.0102  0.9520 -0.6685
  708MOL0     H93395  10.449   0.114   9.861 -0.8817 -0.5309 -3.0238
  708MOL0     H93396  10.611   0.036   9.859 -1.6295 -0.1734  0.5827
  708MOL0     H93397  10.646   0.146   9.631  0.5007  0.7298 -0.3070
  708MOL0     H93398  10.504   0.241   9.656  0.4402 -1.1971 -1.7926
  708MOL0     H93399  10.486  -0.051   9.607  2.8159  1.1307 -0.3765
  708MOL0     H93400  10.361   0.048   9.667 -1.6194 -1.6325 -1.2562
  708MOL0     H93401  10.399   0.199   9.438  0.4046 -0.1648 -2.2796
  708MOL0     H93402  10.351   0.035   9.405 -0.2047 -0.0728  1.1610
  708MOL0     H93403  10.591  -0.023   9.400 -1.7371  0.3956  3.6609
  708MOL0     H93404  10.642   0.142   9.432  3.2911 -0.1678 -3.4389
  708MOL0     H93405  10.490   0.110   9.171  0.0402 -0.1930 -0.3441
  708MOL0     H93406  10.557   0.247   9.237  1.8485  0.1934 -1.8347
  708MOL0     H93407  10.762   0.039   9.143  0.3275  1.4087 -7.0993
  708MOL0     H93408  10.779   0.198   9.219  2.3649  1.7443 -4.0252
  708MOL0     H93409  10.718  -0.007   8.902 -1.9454 -0.5471  1.6133
  708MOL0     H93410  10.637   0.199   8.594  2.7806  2.0499  0.2816
  708MOL0     H93411  10.616   0.036   8.657  0.8309 -0.4542  1.1490
  708MOL0     H93412  10.884   0.033   8.670  0.1463  1.8036  1.0122
  708MOL0     H93413  10.887   0.192   8.627  0.3501 -0.6441  0.8926
  708MOL0     H93414  10.771   0.127   8.402  0.5511 -1.6239 -1.9336
  708MOL0     H93415  10.933   0.055   8.425  1.4148  1.4342  2.1194
  708MOL0     H93416  10.670  -0.077   8.477 -0.2254  0.1738 -1.0689
  708MOL0     H93417  10.836  -0.146   8.517  1.4429  2.0716 -0.1039
  708MOL0     H93418  10.663  -0.126   8.075  1.2531  0.2977  2.4900
  708MOL0     H93419  10.473  -0.277   7.992  1.4828  1.6205 -0.4742
  708MOL0     H93420  10.219  -0.633   8.452  0.5694 -2.5570  0.6626
  708MOL0     H93421  10.015  -0.749   8.493 -2.7515 -1.7944 -1.1694
  708MOL0     H93422   9.654  -0.887   8.226  0.5271 -1.5011  4.0996
  708MOL0     H93423   9.734  -0.765   8.132 -0.7452  1.6014  0.5563
  708MOL0     H93424   9.555  -0.646   8.258 -0.5075  1.5562  2.1801
  708MOL0     H93425   9.714  -0.584   8.308  0.2972  0.1535 -3.9163
  708MOL0     H93426   9.608  -0.603   8.513 -0.9524  0.9292 -0.7751
  708MOL0     H93427   9.681  -0.765   8.490 -0.9840 -0.7420 -0.6513
  708MOL0     H93428   9.389  -0.685   8.432 -0.1151  1.3929  1.3375
  708MOL0     H93429   9.461  -0.836   8.374  1.2438  2.6571 -1.9050
  708MOL0     H93430   9.417  -0.748   8.670 -0.4916 -0.4308 -0.1261
  708MOL0     H93431   9.469  -0.907   8.607 -1.9322 -1.2345  0.0969
  708MOL0     H93432   9.257  -0.954   8.506  1.1089  2.1430 -0.2785
  708MOL0     H93433   9.195  -0.800   8.534  2.8609 -0.0476 -4.5950
  708MOL0     H93434   9.228  -0.873   8.800 -2.6469 -0.1134  1.4764
  708MOL0     H93435   9.097  -0.932   8.707  0.2718  2.0943  1.5365
  708MOL0     H93436   9.363  -1.072   8.757 -0.7707  2.7035  3.0045
  708MOL0     H93437   9.221  -1.133   8.653 -1.1738 -2.8039  2.3452
  708MOL0     H93438   9.924  -0.727   8.061 -1.1448 -0.2885  0.5460
  708MOL0     H93439  10.122  -0.638   8.026 -1.7493 -1.3560 -0.1645
  708MOL0     H93440  10.496  -0.478   8.372  0.2432  0.8582  0.6447
  708MOL0     H93441  10.681  -0.352   8.444 -0.9951  0.0938  0.2268
  708MOL0     H93442  10.737   0.503   9.867 -0.1397  2.5579 -3.3788
  708MOL0     H93443  10.926   0.657   9.755  2.7463 -0.4371 -2.3641
  708MOL0     H93444  11.542   0.452   9.757  2.4895 -2.4297 -2.5095
  708MOL0     H93445  11.750   0.525   9.630 -0.3220 -0.5041 -0.0053
  708MOL0     H93446  11.746   0.751   9.249 -0.5657 -0.9867 -2.3314
  708MOL0     H93447  11.675   0.589   9.241  0.7223 -0.9003 -0.1049
  708MOL0     H93448  11.959   0.684   9.248 -0.6093  1.1514  1.2963
  708MOL0     H93449  11.930   0.520   9.296 -3.6250 -0.1207  1.9306
  708MOL0     H93450  11.849   0.650   9.017  2.0196  0.7656  0.0190
  708MOL0     H93451  11.804   0.487   9.056 -1.7382  1.5353  1.3494
  708MOL0     H93452  11.995   0.492   8.912 -3.2874  0.2824  0.3397
  708MOL0     H93453  12.095   0.583   9.016  3.0797 -3.8329 -1.7472
  708MOL0     H93454  12.148   0.242   9.225 -0.9385  0.4349  1.4613
  708MOL0     H93455  11.528   0.748   9.363 -0.0988  0.1660 -0.8376
  708MOL0     H93456  11.310   0.695   9.492 -0.3677 -3.4778 -2.0099
  709MOL0     O93457   6.180   5.621  10.636 -0.3052  0.5702  0.0402
  709MOL0     C93458   6.094   5.574  10.561 -0.0786 -0.2870  0.0370
  709MOL0     O93459   6.007   5.642  10.485 -0.2614 -0.5912  0.1968
  709MOL0     C93460   6.005   5.777  10.478  0.0392 -0.0948  0.9549
  709MOL0     C93461   6.054   5.827  10.353  0.6808 -0.3796 -0.1807
  709MOL0     C93462   6.076   5.969  10.327 -0.3744  0.5207 -0.5202
  709MOL0     C93463   6.062   6.055  10.439  0.3401 -0.2810  1.1193
  709MOL0     O93464   6.090   6.194  10.438 -1.2332  0.2794 -0.1432
  709MOL0     C93465   6.101   6.254  10.310  0.3366 -0.7629 -0.7773
  709MOL0     C93466   6.101   6.412  10.333  0.5129  0.4617  0.1355
  709MOL0     C93467   6.114   6.487  10.198  0.3574 -0.1956  0.4179
  709MOL0     C93468   6.243   6.451  10.116 -0.0189 -0.4391  0.2199
  709MOL0     C93469   6.299   6.573  10.039 -0.3586  0.1571 -0.2502
  709MOL0     C93470   6.347   6.677  10.141  1.3715  0.0575 -0.0277
  709MOL0     C93471   6.379   6.805  10.067 -0.2201 -0.8130 -0.0738
  709MOL0     C93472   6.464   6.901  10.151 -0.4080  0.5853 -0.0982
  709MOL0     N93473   6.390   7.001  10.234  0.4871 -0.6325  0.5342
  709MOL0     C93474   6.380   7.136  10.192  0.3633 -0.6138  0.3752
  709MOL0     C93475   6.330   7.200  10.303  0.9366  0.8237 -0.1760
  709MOL0     C93476   6.298   7.340  10.304  0.4706 -0.3882  0.1917
  709MOL0     C93477   6.168   7.367  10.234  0.2665  0.8857 -0.0420
  709MOL0     C93478   6.112   7.509  10.265 -0.9666  0.0454  0.6481
  709MOL0     C93479   5.987   7.527  10.176 -0.8690 -0.0969  0.0104
  709MOL0     O93480   5.899   7.424  10.199  0.3189  0.0171 -0.4568
  709MOL0     C93481   5.789   7.395  10.122  0.0117  0.0662  0.2109
  709MOL0     C93482   5.739   7.264  10.118 -1.0528 -0.3063 -0.4266
  709MOL0     C93483   5.624   7.226  10.053 -0.6357  0.1348  0.6005
  709MOL0     C93484   5.565   7.320   9.962  0.5685 -0.2516  0.1190
  709MOL0     C93485   5.441   7.286   9.889  0.4797  0.0285  0.5073
  709MOL0     O93486   5.347   7.227   9.963  0.0343 -0.0216 -0.1733
  709MOL0     C93487   5.230   7.211   9.895  0.8252  1.0641  0.7034
  709MOL0     C93488   5.162   7.286   9.803  0.2461  0.8460  1.4319
  709MOL0     C93489   5.042   7.248   9.739  1.1090  0.7371 -0.3783
  709MOL0     C93490   4.994   7.119   9.760 -1.0295 -0.1855  0.0850
  709MOL0     O93491   4.894   7.082   9.677 -0.4251 -0.2107 -0.8837
  709MOL0     C93492   4.761   7.134   9.700  0.0537  0.1141  0.5625
  709MOL0     C93493   4.669   7.039   9.615 -0.4277  0.0963 -0.9492
  709MOL0     C93494   4.688   6.889   9.654 -1.0698  0.5119  0.0798
  709MOL0     C93495   4.656   6.858   9.800 -0.5324 -0.0745 -0.4048
  709MOL0     C93496   4.610   6.710   9.807 -0.8643 -0.2166  0.2600
  709MOL0     C93497   4.591   6.661   9.951  0.1507 -0.0842  0.2647
  709MOL0     C93498   4.493   6.536   9.964 -0.7886 -0.7792 -1.1432
  709MOL0     C93499   4.577   6.418   9.904 -0.6304 -0.4812  0.5260
  709MOL0    Cl93500   4.507   6.264   9.931 -0.0598  0.1512 -0.3141
  709MOL0     C93501   5.064   7.032   9.848  0.8472 -0.1545  0.6639
  709MOL0     C93502   5.173   7.082   9.918  0.1517 -0.7083  0.7801
  709MOL0     O93503   5.430   7.317   9.774 -0.1982 -0.0495 -0.0461
  709MOL0     C93504   5.618   7.455   9.959 -0.4417  1.0631 -0.0110
  709MOL0     C93505   5.731   7.485  10.038  0.0373  0.6328 -0.5840
  709MOL0     N93506   6.324   7.106  10.407 -0.5141 -0.4695  0.9116
  709MOL0     N93507   6.355   6.993  10.361 -0.8272  0.0936 -0.5820
  709MOL0     C93508   6.019   6.006  10.564 -0.7960  0.2266 -0.6490
  709MOL0     C93509   5.973   5.868  10.581 -0.2601 -0.3749 -0.7550
  709MOL0     C93510   6.084   5.425  10.550  0.2990 -0.7808 -0.1238
  709MOL0     C93511   6.158   5.356  10.640 -0.1466  0.2900  0.2795
  709MOL0     C93512   6.167   5.220  10.644 -0.3449  0.7528 -0.1551
  709MOL0     C93513   6.090   5.154  10.550  1.0860  0.1347  0.3517
  709MOL0     O93514   6.082   5.019  10.522 -0.7408 -0.6456 -0.5036
  709MOL0     C93515   6.030   4.941  10.626 -0.0671  1.1932  0.1484
  709MOL0     C93516   5.889   4.903  10.596 -0.3861 -0.1246 -0.1541
  709MOL0     C93517   5.863   4.820  10.466  0.1251 -0.0165 -0.5992
  709MOL0     C93518   5.738   4.848  10.388  0.7594  0.1427  0.9343
  709MOL0     C93519   5.724   4.774  10.250  0.2014 -0.0217 -0.3362
  709MOL0     C93520   5.710   4.719  10.141  0.7811 -1.2046  0.1674
  709MOL0     C93521   6.022   5.233  10.456  0.2543  0.4073  0.3132
  709MOL0     C93522   6.008   5.375  10.452 -0.1257  0.0501  0.5198
  709MOL0     H93523   6.082   5.757  10.275 -0.2033 -0.4687 -0.4234
  709MOL0     H93524   6.108   6.000  10.228  3.2669 -0.7220  0.1243
  709MOL0     H93525   6.020   6.219  10.246 -2.6701 -0.6975  2.6917
  709MOL0     H93526   6.205   6.241  10.278  0.0932  0.6901 -2.3602
  709MOL0     H93527   6.179   6.436  10.405  3.4857 -0.0011 -2.6601
  709MOL0     H93528   6.007   6.425  10.387 -0.5246 -4.1267 -0.1717
  709MOL0     H93529   6.107   6.594  10.217  0.3697 -0.1561  0.2060
  709MOL0     H93530   6.022   6.478  10.140 -0.4720 -1.9611  1.9195
  709MOL0     H93531   6.315   6.427  10.195 -1.2608  1.3723  2.0018
  709MOL0     H93532   6.227   6.372  10.042 -0.0415  1.6611 -2.1595
  709MOL0     H93533   6.224   6.613   9.970 -1.6793 -2.7354 -0.6528
  709MOL0     H93534   6.380   6.540   9.973  0.4251  2.2229 -0.4045
  709MOL0     H93535   6.433   6.634  10.193 -0.6380 -2.2551  1.6379
  709MOL0     H93536   6.271   6.707  10.214  2.0097  2.0062 -0.1142
  709MOL0     H93537   6.427   6.783   9.971  0.8656 -0.5332  0.3977
  709MOL0     H93538   6.291   6.860  10.031  1.4311  0.8790 -1.7729
  709MOL0     H93539   6.527   6.949  10.075 -1.1792 -2.4609 -2.9119
  709MOL0     H93540   6.531   6.849  10.220  0.9085 -0.6818 -2.1998
  709MOL0     H93541   6.386   7.174  10.091  0.5362 -2.7709 -0.4687
  709MOL0     H93542   6.383   7.384  10.251  0.0671 -0.2867 -0.3781
  709MOL0     H93543   6.303   7.378  10.406 -0.2328  0.8176 -0.2086
  709MOL0     H93544   6.093   7.296  10.269 -2.4091  2.4055 -2.2796
  709MOL0     H93545   6.185   7.347  10.128  1.9332  1.5453  0.0820
  709MOL0     H93546   6.102   7.527  10.372 -1.9235 -0.4656  0.6585
  709MOL0     H93547   6.186   7.581  10.230 -2.3435  0.7305 -0.9898
  709MOL0     H93548   6.006   7.537  10.069  0.5550  4.6740  0.4971
  709MOL0     H93549   5.946   7.624  10.205 -2.0036 -0.4124 -0.4692
  709MOL0     H93550   5.795   7.187  10.169  0.2378 -0.4763 -2.0153
  709MOL0     H93551   5.581   7.129  10.075  0.7564 -0.1494  2.3268
  709MOL0     H93552   5.208   7.381   9.777 -0.0094  0.3080 -1.2488
  709MOL0     H93553   4.994   7.322   9.677  1.0287 -0.0421 -1.2598
  709MOL0     H93554   4.745   7.237   9.667  1.3305  0.4266  0.8931
  709MOL0     H93555   4.744   7.141   9.808  0.4584  0.0120  0.6359
  709MOL0     H93556   4.711   7.058   9.516  1.2481  1.6928  0.0024
  709MOL0     H93557   4.560   7.048   9.622 -0.4028 -0.5547  1.3754
  709MOL0     H93558   4.787   6.845   9.641 -1.0236  0.6633 -0.0726
  709MOL0     H93559   4.617   6.823   9.603  1.5343 -0.8755 -1.9770
  709MOL0     H93560   4.748   6.875   9.857 -0.4199 -0.6076 -0.4232
  709MOL0     H93561   4.579   6.918   9.848 -0.6213  0.6443 -1.4122
  709MOL0     H93562   4.676   6.644   9.749 -1.3082 -1.6832  1.3588
  709MOL0     H93563   4.515   6.709   9.754 -0.6606 -1.1909 -0.1018
  709MOL0     H93564   4.545   6.735  10.017 -0.5359 -0.0166 -0.2764
  709MOL0     H93565   4.694   6.637   9.980 -0.2471 -0.0080  1.7979
  709MOL0     H93566   4.466   6.523  10.069 -1.3124  1.8610 -0.8794
  709MOL0     H93567   4.398   6.551   9.912 -1.4956  0.5527  0.4391
  709MOL0     H93568   4.679   6.425   9.944 -0.0188 -0.2520 -1.0097
  709MOL0     H93569   4.584   6.435   9.797 -2.1135  3.1242  0.8523
  709MOL0     H93570   5.030   6.930   9.857  2.7268 -0.6280  3.7290
  709MOL0     H93571   5.220   7.010   9.984  0.2261 -0.2791  1.2067
  709MOL0     H93572   5.554   7.518   9.898  0.7386  1.0704 -1.2995
  709MOL0     H93573   5.771   7.586  10.040  0.8542  0.3210  1.8435
  709MOL0     H93574   6.016   6.083  10.640  0.5059  0.7565 -1.0904
  709MOL0     H93575   5.944   5.836  10.681 -2.0652  2.1663 -0.3995
  709MOL0     H93576   6.220   5.403  10.716  2.3496 -1.6733 -0.4079
  709MOL0     H93577   6.240   5.178  10.712  1.1245  1.0318 -1.5144
  709MOL0     H93578   6.040   4.983  10.726 -0.0580 -0.4173  0.8562
  709MOL0     H93579   6.091   4.850  10.629  1.9391  2.4953  1.1076
  709MOL0     H93580   5.859   4.836  10.677 -1.0016  1.3539  0.8647
  709MOL0     H93581   5.826   4.991  10.609 -2.2293 -1.6096  1.4668
  709MOL0     H93582   5.864   4.718  10.504  0.4810  0.8279  1.8399
  709MOL0     H93583   5.947   4.828  10.397 -0.5550  1.8778 -1.2767
  709MOL0     H93584   5.647   4.842  10.449 -0.2086 -1.3100 -0.5624
  709MOL0     H93585   5.755   4.953  10.362  2.9341  0.4165  3.1726
  709MOL0     H93586   5.703   4.704  10.035  1.8761  0.1093 -0.1091
  709MOL0     H93587   5.969   5.173  10.383  0.4086 -0.3207  0.7851
  709MOL0     H93588   5.953   5.422  10.371  0.3091  2.4578  1.5376
  710MOL0     O93589   5.528  10.943   9.065  0.8890 -0.7010 -0.5523
  710MOL0     C93590   5.598  11.041   9.074  0.6626  0.5589  0.1364
  710MOL0     O93591   5.583  11.135   9.167  0.5919  0.2088 -0.0274
  710MOL0     C93592   5.483  11.116   9.256  0.5622 -0.4211  0.6120
  710MOL0     C93593   5.382  11.222   9.261 -0.2710  0.8896  0.3894
  710MOL0     C93594   5.281  11.212   9.346  0.0094 -0.3706  0.1764
  710MOL0     C93595   5.266  11.120   9.448 -0.5201  0.3094 -0.2811
  710MOL0     O93596   5.160  11.120   9.543 -0.3405 -0.2326  0.1916
  710MOL0     C93597   5.172  11.231   9.643  0.3318 -0.0262  0.0063
  710MOL0     C93598   5.063  11.232   9.740 -0.9978 -0.0369 -0.8196
  710MOL0     C93599   5.104  11.292   9.884  0.5054  0.2969  0.5558
  710MOL0     C93600   4.971  11.316   9.956 -0.3683  0.2440 -0.2151
  710MOL0     C93601   4.993  11.278  10.107  0.1573  0.1030 -0.7204
  710MOL0     C93602   4.872  11.296  10.191  0.2646  0.1628 -0.0479
  710MOL0     C93603   4.891  11.278  10.336  0.2224 -0.3573  0.0755
  710MOL0     C93604   4.972  11.384  10.407  2.0893  0.6675  1.5316
  710MOL0     N93605   4.969  11.348  10.545  0.5226 -0.0970  0.1560
  710MOL0     C93606   5.055  11.259  10.607  0.0716  0.0055  0.5828
  710MOL0     C93607   5.016  11.253  10.739  0.3136  0.2873  0.4151
  710MOL0     C93608   5.067  11.163  10.847 -0.0068  0.0141 -0.0024
  710MOL0     C93609   4.990  11.020  10.843 -0.4828  0.2512 -0.0250
  710MOL0     C93610   4.838  11.022  10.859  0.2591 -0.9452  0.1997
  710MOL0     C93611   4.791  11.080  10.990  0.1041 -0.3518 -0.2440
  710MOL0     O93612   4.759  10.975  11.089  0.0398  0.2341  0.3025
  710MOL0     C93613   4.708  11.000  11.215 -0.3224  0.3194 -0.2525
  710MOL0     C93614   4.694  10.883  11.293 -0.0963  0.1164  0.5854
  710MOL0     C93615   4.628  10.892  11.421  0.8416  0.2155  0.9911
  710MOL0     C93616   4.597  11.018  11.473 -0.0270  0.4758 -0.2894
  710MOL0     C93617   4.533  11.024  11.608  1.0944 -0.7996  0.6380
  710MOL0     O93618   4.475  10.904  11.650  0.3595  0.0669  0.2924
  710MOL0     C93619   4.388  10.905  11.749  0.3438 -0.2028 -0.3139
  710MOL0     C93620   4.412  10.964  11.871 -0.0512 -0.4138  0.0646
  710MOL0     C93621   4.313  10.958  11.967  0.6457  0.4350 -0.1242
  710MOL0     C93622   4.190  10.904  11.946 -0.2040  1.1912 -0.0140
  710MOL0     O93623   4.104  10.881  12.045  0.1823 -0.2021 -0.4986
  710MOL0     C93624   4.057  10.986  12.127  0.6008  0.3643 -0.6056
  710MOL0     C93625   3.937  10.944  12.198  0.6728  0.3419 -0.5504
  710MOL0     C93626   3.828  10.884  12.100 -0.2118  0.6111 -0.2076
  710MOL0     C93627   3.711  10.830  12.193 -0.1038 -0.9876 -0.4986
  710MOL0     C93628   3.597  10.754  12.115 -0.0559  0.7013  0.4790
  710MOL0     C93629   3.472  10.699  12.191  1.4798  0.5937  0.3322
  710MOL0     C93630   3.383  10.607  12.098  0.4233 -0.6932  0.9821
  710MOL0     C93631   3.434  10.468  12.097  0.2213  0.1140 -0.4733
  710MOL0    Cl93632   3.408  10.382  12.263  0.2660  0.2950  0.5843
  710MOL0     C93633   4.182  10.837  11.820  0.2636  0.7807  0.5381
  710MOL0     C93634   4.274  10.843  11.721 -0.7646 -0.0023 -0.5161
  710MOL0     O93635   4.511  11.139  11.656 -0.7669  0.0927  0.0678
  710MOL0     C93636   4.614  11.136  11.397 -0.3445  0.5190  0.6235
  710MOL0     C93637   4.676  11.127  11.270 -0.6763 -1.1710  0.2832
  710MOL0     N93638   4.923  11.353  10.749 -1.3611  0.6138  0.2557
  710MOL0     N93639   4.895  11.406  10.639  0.2267 -0.6057  0.6728
  710MOL0     C93640   5.357  11.006   9.444 -0.2962  0.1114 -0.2301
  710MOL0     C93641   5.467  11.008   9.348  0.3776  0.2859  0.2919
  710MOL0     C93642   5.715  11.049   8.980 -0.8987  0.0406  0.1150
  710MOL0     C93643   5.744  10.950   8.889 -1.1986  0.2447  0.9577
  710MOL0     C93644   5.864  10.962   8.807 -0.7818 -0.7102  0.7454
  710MOL0     C93645   5.945  11.075   8.812 -0.0007 -0.2868 -0.2766
  710MOL0     O93646   6.040  11.083   8.713 -0.3546 -0.4768  1.0961
  710MOL0     C93647   6.115  11.203   8.711  0.6930  0.4349 -1.2032
  710MOL0     C93648   6.234  11.221   8.812  0.0031 -0.2759 -0.1489
  710MOL0     C93649   6.286  11.367   8.800 -0.4275  0.0171  0.4019
  710MOL0     C93650   6.287  11.455   8.924 -0.8583  0.8122 -0.7558
  710MOL0     C93651   6.342  11.390   9.047  0.3373 -0.9759 -0.1151
  710MOL0     C93652   6.377  11.346   9.154  0.0776  0.1085  0.1767
  710MOL0     C93653   5.916  11.178   8.917  0.0401  0.2874  1.1490
  710MOL0     C93654   5.804  11.153   9.002 -0.2951 -0.6924  0.9603
  710MOL0     H93655   5.380  11.305   9.190  0.6311 -0.4450 -1.2835
  710MOL0     H93656   5.205  11.289   9.343  1.2871  0.9403 -2.0834
  710MOL0     H93657   5.170  11.324   9.586 -3.8063 -0.4792 -0.9634
  710MOL0     H93658   5.266  11.207   9.693  1.6407  1.7803 -1.4150
  710MOL0     H93659   5.030  11.129   9.754  1.6735 -0.9560 -0.5813
  710MOL0     H93660   4.986  11.297   9.697 -1.6971  1.2498  2.1182
  710MOL0     H93661   5.162  11.384   9.869  0.8318  0.0543  0.3008
  710MOL0     H93662   5.176  11.222   9.928  0.0436  0.3831  1.4699
  710MOL0     H93663   4.935  11.419   9.949  1.3653  1.1662  2.8639
  710MOL0     H93664   4.896  11.242   9.925  1.0761 -1.4449  0.1104
  710MOL0     H93665   5.076  11.330  10.154 -0.6638 -1.8939  3.4509
  710MOL0     H93666   5.022  11.172  10.106  1.0926  0.2919  1.1822
  710MOL0     H93667   4.796  11.227  10.152  3.8298 -4.6433  0.6423
  710MOL0     H93668   4.842  11.399  10.167 -3.3104 -0.5263  0.8361
  710MOL0     H93669   4.787  11.297  10.366  0.0350  2.1618 -1.8327
  710MOL0     H93670   4.918  11.176  10.366  0.8324 -1.1407 -2.7594
  710MOL0     H93671   4.912  11.474  10.391  0.7856 -0.4266 -0.2129
  710MOL0     H93672   5.070  11.393  10.358  1.4178 -0.7259 -0.2231
  710MOL0     H93673   5.141  11.215  10.557 -0.7286  0.7222 -1.5335
  710MOL0     H93674   5.059  11.217  10.942 -0.0709  1.1389 -0.6347
  710MOL0     H93675   5.172  11.142  10.822 -0.1031 -1.6322  0.8246
  710MOL0     H93676   5.027  10.947  10.916 -1.6842 -2.6401 -2.1370
  710MOL0     H93677   5.009  10.964  10.751 -2.9934  0.3158 -0.6318
  710MOL0     H93678   4.796  11.091  10.784 -0.6107  0.3152  1.7815
  710MOL0     H93679   4.794  10.928  10.827  1.0928 -1.6896  1.1891
  710MOL0     H93680   4.701  11.139  10.973 -0.8787 -1.9911 -0.9747
  710MOL0     H93681   4.875  11.139  11.027 -0.2895 -0.3055  0.6128
  710MOL0     H93682   4.733  10.786  11.263  1.1702  0.7163  0.2277
  710MOL0     H93683   4.610  10.802  11.479 -0.2499 -0.7137 -0.7161
  710MOL0     H93684   4.504  11.018  11.893  0.1336 -0.7286  0.0717
  710MOL0     H93685   4.332  11.005  12.063 -0.1778  0.3386  0.0936
  710MOL0     H93686   4.042  11.081  12.074 -1.3679  1.4000  1.5916
  710MOL0     H93687   4.136  10.996  12.202  0.9585  0.0928 -0.9498
  710MOL0     H93688   3.896  11.031  12.251  1.6080  0.1011  0.6078
  710MOL0     H93689   3.959  10.873  12.278 -1.8346  0.5790  0.4664
  710MOL0     H93690   3.873  10.791  12.064  0.5186  0.0655  1.9954
  710MOL0     H93691   3.791  10.954  12.024  0.2966  1.7911  0.5994
  710MOL0     H93692   3.748  10.755  12.264 -0.9445  0.1723  1.2418
  710MOL0     H93693   3.677  10.921  12.245  2.0289  0.8359 -2.1084
  710MOL0     H93694   3.644  10.670  12.062  1.9865  2.1872 -0.1621
  710MOL0     H93695   3.557  10.833  12.051 -1.0616  0.9133  1.3331
  710MOL0     H93696   3.414  10.785  12.223 -3.0513 -2.3682  1.0058
  710MOL0     H93697   3.499  10.649  12.284 -0.3441  0.4714  0.8202
  710MOL0     H93698   3.283  10.599  12.139 -0.5580 -1.3368 -1.3519
  710MOL0     H93699   3.375  10.644  11.995 -1.0989 -0.9225  1.0066
  710MOL0     H93700   3.530  10.464  12.044 -1.7342 -0.0134 -4.3302
  710MOL0     H93701   3.364  10.406  12.041 -1.4796  1.7757 -0.2939
  710MOL0     H93702   4.083  10.799  11.799 -0.3738  3.2996 -1.4092
  710MOL0     H93703   4.282  10.788  11.628 -1.1527  0.2406 -0.6976
  710MOL0     H93704   4.595  11.235  11.437  1.9659  0.8691  1.0418
  710MOL0     H93705   4.708  11.219  11.221  0.0420  0.0693  2.9252
  710MOL0     H93706   5.347  10.920   9.510 -1.9298 -0.1186 -0.7299
  710MOL0     H93707   5.545  10.934   9.338  0.9028  1.0157 -1.3384
  710MOL0     H93708   5.680  10.865   8.868 -2.1467  0.6322  2.2105
  710MOL0     H93709   5.886  10.896   8.723  2.2256 -0.4058  1.1672
  710MOL0     H93710   6.051  11.291   8.725  0.6266  0.1436  0.5849
  710MOL0     H93711   6.166  11.198   8.615  3.9489 -0.4518  0.4506
  710MOL0     H93712   6.208  11.198   8.916  0.4206 -1.8766 -0.3660
  710MOL0     H93713   6.315  11.153   8.785 -1.4383 -1.9666 -0.4402
  710MOL0     H93714   6.230  11.426   8.727  0.5319 -0.2587 -0.5872
  710MOL0     H93715   6.391  11.362   8.769 -1.5242 -1.6103 -3.7969
  710MOL0     H93716   6.326  11.557   8.927  3.4851 -0.6228  2.2660
  710MOL0     H93717   6.182  11.460   8.952 -0.5341  1.2596  0.4681
  710MOL0     H93718   6.426  11.307   9.242 -0.4290 -3.5763 -0.9923
  710MOL0     H93719   5.950  11.281   8.920 -0.5954  0.6172 -1.0818
  710MOL0     H93720   5.768  11.231   9.069 -3.0369  0.3684 -1.5133
  711MOL0     O93721   8.441   7.318   6.266 -0.8821  0.0410  0.0302
  711MOL0     C93722   8.566   7.308   6.250 -0.5497  0.1671 -0.8663
  711MOL0     O93723   8.656   7.293   6.356 -0.6004 -0.8631 -0.1816
  711MOL0     C93724   8.607   7.330   6.480  0.5523  0.3150  0.3052
  711MOL0     C93725   8.609   7.232   6.582 -0.1642 -0.5543  0.3526
  711MOL0     C93726   8.575   7.271   6.717 -1.3484  0.2767  0.3452
  711MOL0     C93727   8.527   7.407   6.739  0.3750  0.0642  0.1774
  711MOL0     O93728   8.496   7.472   6.852 -0.5968  0.3365 -0.2173
  711MOL0     C93729   8.498   7.400   6.976 -0.4764  0.8648 -0.2326
  711MOL0     C93730   8.642   7.404   7.026 -0.0144 -0.3237 -1.0990
  711MOL0     C93731   8.675   7.513   7.129 -0.2029 -0.1598 -0.0434
  711MOL0     C93732   8.606   7.485   7.258  0.9042  0.7573 -0.4308
  711MOL0     C93733   8.704   7.506   7.370 -0.0275  0.4116 -0.0525
  711MOL0     C93734   8.629   7.492   7.514  0.6038  0.4607  0.3270
  711MOL0     C93735   8.725   7.491   7.634  0.8812  0.3728  0.9372
  711MOL0     C93736   8.800   7.355   7.649 -0.6716  0.0641  0.5744
  711MOL0     N93737   8.885   7.350   7.765 -0.3745  0.0070  0.9068
  711MOL0     C93738   8.950   7.452   7.835 -0.0360  0.2541 -0.3072
  711MOL0     C93739   9.023   7.380   7.930  1.0121  0.2375  0.7013
  711MOL0     C93740   9.094   7.453   8.039  0.4781 -0.9821  1.1608
  711MOL0     C93741   9.066   7.394   8.182  0.5264 -0.0928  0.4652
  711MOL0     C93742   9.140   7.487   8.284 -0.0514  0.0728 -0.1300
  711MOL0     C93743   9.123   7.447   8.436  0.0324 -0.2849 -0.0376
  711MOL0     O93744   9.193   7.320   8.448 -0.6313  0.3393 -0.9159
  711MOL0     C93745   9.183   7.246   8.573  0.4513 -0.5156 -0.0655
  711MOL0     C93746   9.267   7.133   8.595 -0.3250  0.4042  0.0832
  711MOL0     C93747   9.262   7.063   8.719  0.2499  0.5859  0.4548
  711MOL0     C93748   9.186   7.111   8.827 -0.1707  0.0660 -0.3682
  711MOL0     C93749   9.176   7.036   8.947 -0.2798  0.2208 -0.5955
  711MOL0     O93750   9.168   6.892   8.928  1.1083 -0.0741 -0.6601
  711MOL0     C93751   9.192   6.811   9.025 -0.1832  0.3254  0.3425
  711MOL0     C93752   9.315   6.819   9.094  1.0192 -0.6662  0.4250
  711MOL0     C93753   9.328   6.741   9.205 -0.0339  0.0280  0.2057
  711MOL0     C93754   9.226   6.667   9.266  0.1129 -1.0012  0.5773
  711MOL0     O93755   9.227   6.611   9.397  0.1541 -0.6283 -0.3243
  711MOL0     C93756   9.355   6.575   9.449  1.0548 -0.1735  0.1428
  711MOL0     C93757   9.344   6.522   9.591  0.8065 -1.1477 -0.9644
  711MOL0     C93758   9.316   6.639   9.687  0.0563  0.2236  0.5901
  711MOL0     C93759   9.284   6.601   9.833 -0.1666  0.9698  0.0715
  711MOL0     C93760   9.349   6.469   9.891  0.5048 -0.6856 -0.3736
  711MOL0     C93761   9.358   6.463  10.049  0.4661  1.3840 -0.2919
  711MOL0     C93762   9.407   6.579  10.125 -0.9559  0.1974  0.7023
  711MOL0     C93763   9.478   6.531  10.250 -0.1101  0.3435  0.1407
  711MOL0    Cl93764   9.552   6.672  10.325  0.2460  0.3110 -0.2630
  711MOL0     C93765   9.101   6.651   9.191 -0.2501 -0.2204 -1.0058
  711MOL0     C93766   9.089   6.726   9.066 -1.0963 -0.0744 -0.6726
  711MOL0     O93767   9.198   7.094   9.053  0.1841 -0.0318 -0.0021
  711MOL0     C93768   9.108   7.222   8.802  0.6415  0.8669  0.2832
  711MOL0     C93769   9.113   7.296   8.687 -0.5605  0.3641 -0.0130
  711MOL0     N93770   9.003   7.239   7.914 -0.6913 -0.2594  0.5022
  711MOL0     N93771   8.932   7.233   7.802 -0.3744  0.5893  0.6518
  711MOL0     C93772   8.516   7.495   6.627  0.4516 -0.9227 -0.3049
  711MOL0     C93773   8.565   7.456   6.504 -0.0801  0.7154 -0.3351
  711MOL0     C93774   8.603   7.297   6.113 -0.5023 -0.2379 -0.5025
  711MOL0     C93775   8.525   7.240   6.015  0.5982  0.3593  0.2106
  711MOL0     C93776   8.553   7.233   5.874 -0.6316 -0.1040  0.3666
  711MOL0     C93777   8.679   7.286   5.830 -0.2073 -0.7227  0.3181
  711MOL0     O93778   8.718   7.288   5.696 -0.0532  0.3453 -0.7595
  711MOL0     C93779   8.620   7.253   5.609 -1.1384  0.6754 -1.1800
  711MOL0     C93780   8.656   7.282   5.461 -0.7523  0.0151  0.1451
  711MOL0     C93781   8.804   7.262   5.447 -0.1076  0.3560  0.8869
  711MOL0     C93782   8.852   7.339   5.321  0.2017  0.4886  0.4236
  711MOL0     C93783   8.771   7.305   5.195 -0.2521  0.8094  0.7272
  711MOL0     C93784   8.711   7.276   5.093  0.5187 -0.3144 -0.3455
  711MOL0     C93785   8.753   7.351   5.926 -0.3050 -1.0647  0.2568
  711MOL0     C93786   8.719   7.346   6.063 -0.3183  0.6835  0.2479
  711MOL0     H93787   8.644   7.131   6.561  1.2802 -0.3995  1.8474
  711MOL0     H93788   8.589   7.193   6.791 -0.8422 -0.4876 -0.5241
  711MOL0     H93789   8.462   7.297   6.968  2.5854 -0.3143  0.0194
  711MOL0     H93790   8.432   7.456   7.044 -3.9675  1.4129 -3.7212
  711MOL0     H93791   8.711   7.418   6.942  2.4894  0.8869  1.0155
  711MOL0     H93792   8.675   7.307   7.065 -0.0188  0.8977  2.2250
  711MOL0     H93793   8.656   7.611   7.082  0.8416  0.5333  0.9421
  711MOL0     H93794   8.784   7.507   7.135  0.1147  2.2038 -1.5998
  711MOL0     H93795   8.513   7.543   7.260  0.6216  0.2891  1.3180
  711MOL0     H93796   8.575   7.380   7.253 -2.1486  1.5860 -5.1817
  711MOL0     H93797   8.749   7.605   7.359  0.3804  0.0948 -1.3928
  711MOL0     H93798   8.786   7.435   7.364 -1.0949 -0.7446 -2.3258
  711MOL0     H93799   8.573   7.398   7.518 -0.4687  1.0845  0.3209
  711MOL0     H93800   8.559   7.575   7.524  1.4096  1.2965 -0.6939
  711MOL0     H93801   8.785   7.582   7.625  0.5258  0.5068 -0.2506
  711MOL0     H93802   8.665   7.512   7.723  0.5082 -1.0867  1.0675
  711MOL0     H93803   8.862   7.329   7.563 -0.6785  0.4863  0.4403
  711MOL0     H93804   8.724   7.277   7.644 -0.0115 -0.7954  2.5949
  711MOL0     H93805   8.971   7.556   7.814  2.1415 -0.0060  0.3024
  711MOL0     H93806   9.058   7.555   8.029  1.4715 -0.8263 -1.7170
  711MOL0     H93807   9.201   7.464   8.016  0.1534 -1.1143 -0.5226
  711MOL0     H93808   9.110   7.294   8.188  1.4768  0.1155 -1.9057
  711MOL0     H93809   8.957   7.405   8.192  0.2721  0.1220 -2.0065
  711MOL0     H93810   9.248   7.486   8.263  0.8990 -0.5992  3.9403
  711MOL0     H93811   9.105   7.590   8.271  2.0206  0.9912  1.0795
  711MOL0     H93812   9.017   7.421   8.450 -0.4768  1.0359 -1.2557
  711MOL0     H93813   9.155   7.523   8.508  0.6013  0.4434 -1.0566
  711MOL0     H93814   9.335   7.106   8.515 -0.0126  1.4556 -0.0236
  711MOL0     H93815   9.332   6.979   8.725 -0.2591  0.2796  3.5351
  711MOL0     H93816   9.393   6.885   9.058 -1.5290  1.7568 -1.0755
  711MOL0     H93817   9.412   6.747   9.273  0.9802 -0.5822 -0.9580
  711MOL0     H93818   9.435   6.650   9.447  2.1744 -1.3264 -0.2263
  711MOL0     H93819   9.381   6.498   9.376  1.6109 -0.5975  0.7759
  711MOL0     H93820   9.444   6.484   9.614  2.1549  3.0205  1.0783
  711MOL0     H93821   9.257   6.456   9.591 -3.4149  3.7213 -2.3970
  711MOL0     H93822   9.237   6.696   9.637  0.4939 -0.6912 -1.2235
  711MOL0     H93823   9.410   6.694   9.682  0.8287 -1.1368 -1.8860
  711MOL0     H93824   9.329   6.676   9.900 -2.3302 -1.0569  4.1544
  711MOL0     H93825   9.178   6.593   9.857 -0.7114  0.5864 -2.2320
  711MOL0     H93826   9.450   6.455   9.854  0.9763 -1.4784  1.1425
  711MOL0     H93827   9.283   6.390   9.854  0.0678 -1.1037  1.1939
  711MOL0     H93828   9.426   6.380  10.072  1.0647  2.2736  1.3967
  711MOL0     H93829   9.258   6.433  10.081  1.7463 -0.7563  2.1133
  711MOL0     H93830   9.487   6.625  10.067  0.1181 -0.2833  1.7572
  711MOL0     H93831   9.331   6.655  10.147 -0.6912  1.2097 -1.6348
  711MOL0     H93832   9.549   6.449  10.234 -2.6133 -2.3731  1.9557
  711MOL0     H93833   9.413   6.486  10.326  1.5637 -1.4394  0.6055
  711MOL0     H93834   9.016   6.614   9.247  1.1538  1.4971  2.6196
  711MOL0     H93835   8.994   6.740   9.016 -0.7308  0.5409 -1.2102
  711MOL0     H93836   9.037   7.263   8.873 -0.7106 -0.2308 -0.4069
  711MOL0     H93837   9.055   7.388   8.681  1.1251  1.4073 -1.9489
  711MOL0     H93838   8.472   7.594   6.625 -0.5469 -1.3203  0.4705
  711MOL0     H93839   8.557   7.531   6.427 -0.0450  0.2875 -0.7602
  711MOL0     H93840   8.428   7.197   6.040  1.0232  0.3490  1.9561
  711MOL0     H93841   8.481   7.179   5.815 -2.2731  3.2906 -1.0275
  711MOL0     H93842   8.529   7.313   5.622 -0.2359  1.8154  0.0329
  711MOL0     H93843   8.593   7.148   5.623  0.2218  0.6029  1.3291
  711MOL0     H93844   8.587   7.232   5.392 -2.4776  1.6672  0.5626
  711MOL0     H93845   8.637   7.390   5.449 -3.5190 -0.3504  0.4657
  711MOL0     H93846   8.836   7.157   5.450  1.1198  0.6922  0.1795
  711MOL0     H93847   8.861   7.315   5.524  0.9750  0.1168  0.2694
  711MOL0     H93848   8.827   7.442   5.345 -1.0896 -0.2515  2.4374
  711MOL0     H93849   8.959   7.327   5.300  0.8021  3.0700  1.6554
  711MOL0     H93850   8.650   7.253   5.008  0.5076  0.6473 -0.6117
  711MOL0     H93851   8.846   7.400   5.899 -1.4153  0.9112 -0.1983
  711MOL0     H93852   8.790   7.397   6.127  1.1585 -2.2230  1.0967
  712MOL0     O93853  10.876   1.459   5.482 -0.2447  0.3369  0.9004
  712MOL0     C93854  10.969   1.395   5.526  0.0672 -0.6010 -0.4136
  712MOL0     O93855  10.957   1.263   5.572 -0.0689 -0.5755 -0.3599
  712MOL0     C93856  10.839   1.198   5.573 -0.1309  0.2701  0.4011
  712MOL0     C93857  10.765   1.197   5.686 -0.2443  0.3257 -0.1893
  712MOL0     C93858  10.643   1.125   5.682 -0.0917  0.4678  0.1207
  712MOL0     C93859  10.589   1.068   5.566  0.7475  0.0123 -0.8346
  712MOL0     O93860  10.470   0.999   5.571  0.2265 -0.1298 -0.0615
  712MOL0     C93861  10.406   0.957   5.443  0.0899 -0.3835  1.0421
  712MOL0     C93862  10.269   0.889   5.469  0.1208 -0.0318  0.0038
  712MOL0     C93863  10.284   0.762   5.554  0.3963 -0.6802  0.2163
  712MOL0     C93864  10.166   0.663   5.547  0.2209  0.3088 -0.2413
  712MOL0     C93865  10.106   0.617   5.408  0.4622  0.9705 -0.4304
  712MOL0     C93866  10.213   0.568   5.314  0.2354  0.4983  0.0641
  712MOL0     C93867  10.164   0.517   5.176 -0.0166 -0.4611  0.7901
  712MOL0     C93868  10.107   0.642   5.105 -0.4039 -0.2424 -0.3574
  712MOL0     N93869  10.058   0.621   4.970  0.1217  0.7223  0.0652
  712MOL0     C93870   9.930   0.565   4.943 -0.0590  0.3226  0.7225
  712MOL0     C93871   9.929   0.553   4.810 -0.1276  0.2526 -0.6543
  712MOL0     C93872   9.819   0.491   4.722  0.0653  0.0911 -0.3906
  712MOL0     C93873   9.856   0.501   4.571 -0.3995  0.3173 -0.8055
  712MOL0     C93874   9.760   0.426   4.469 -0.0925  0.9769 -0.6036
  712MOL0     C93875   9.829   0.429   4.330 -0.9624  0.8289 -0.0575
  712MOL0     O93876   9.774   0.324   4.244  0.1136 -0.3787 -0.2340
  712MOL0     C93877   9.801   0.196   4.285 -0.9642 -1.3038 -0.0057
  712MOL0     C93878   9.694   0.111   4.275  0.0296  0.5019 -0.4005
  712MOL0     C93879   9.697  -0.024   4.317 -0.0168 -0.8605 -0.0143
  712MOL0     C93880   9.816  -0.069   4.375  0.3841  0.1746 -0.2222
  712MOL0     C93881   9.818  -0.201   4.437  0.2021 -0.3128  0.8219
  712MOL0     O93882   9.695  -0.252   4.474 -0.6096  0.8931  0.6275
  712MOL0     C93883   9.693  -0.346   4.576  0.4746  0.2201 -0.0673
  712MOL0     C93884   9.598  -0.326   4.684 -0.6674 -1.0673 -0.8887
  712MOL0     C93885   9.600  -0.412   4.795  0.3223  0.1727  0.0967
  712MOL0     C93886   9.689  -0.513   4.805 -0.7624  0.8588  0.4047
  712MOL0     O93887   9.659  -0.596   4.906 -0.3144  0.0103  0.5172
  712MOL0     C93888   9.681  -0.737   4.899 -0.6127  0.4602  0.4433
  712MOL0     C93889   9.584  -0.805   4.796 -0.1430  0.2649  0.2818
  712MOL0     C93890   9.629  -0.946   4.749 -0.1899  0.0775  0.6854
  712MOL0     C93891   9.538  -1.013   4.645  0.9358  0.4465 -0.3051
  712MOL0     C93892   9.598  -1.152   4.611  1.3758 -0.9918 -0.1108
  712MOL0     C93893   9.523  -1.220   4.495 -0.8721  0.7100  0.2208
  712MOL0     C93894   9.398  -1.281   4.551  0.6131  0.2728  0.6450
  712MOL0     C93895   9.317  -1.351   4.439  0.5604 -0.6504  0.6598
  712MOL0    Cl93896   9.158  -1.403   4.506  0.4818  0.2717 -0.0717
  712MOL0     C93897   9.780  -0.550   4.696  0.3565 -0.3693  0.6263
  712MOL0     C93898   9.766  -0.468   4.585 -1.3555 -0.8000  0.5258
  712MOL0     O93899   9.925  -0.257   4.458  0.8074 -0.1316  0.5584
  712MOL0     C93900   9.926   0.020   4.384  0.0480  0.4757 -0.3549
  712MOL0     C93901   9.912   0.147   4.341 -0.1791 -0.4573  0.4996
  712MOL0     N93902  10.054   0.595   4.755 -0.4979  1.2644  0.5869
  712MOL0     N93903  10.130   0.629   4.852 -0.2576  0.0701 -0.0760
  712MOL0     C93904  10.667   1.080   5.449  0.1687 -1.1275  0.0221
  712MOL0     C93905  10.795   1.139   5.450 -0.6076 -0.9442  0.5994
  712MOL0     C93906  11.096   1.468   5.556  0.3202  0.2602  0.3050
  712MOL0     C93907  11.109   1.599   5.519 -0.2483 -0.6031 -0.5140
  712MOL0     C93908  11.219   1.675   5.561 -0.2192 -0.4901  0.1407
  712MOL0     C93909  11.318   1.619   5.651 -0.0335 -0.0346  0.9152
  712MOL0     O93910  11.420   1.708   5.684  0.7117 -0.7209 -0.3253
  712MOL0     C93911  11.535   1.656   5.745  0.8873  0.9186  0.0078
  712MOL0     C93912  11.518   1.654   5.907  1.0319  0.4574 -0.1394
  712MOL0     C93913  11.636   1.603   5.978 -0.3359  0.9408  1.3894
  712MOL0     C93914  11.766   1.653   5.915 -0.5535 -0.3989  0.1927
  712MOL0     C93915  11.886   1.651   6.006 -0.6697  0.0539 -0.5395
  712MOL0     C93916  11.979   1.647   6.086 -0.1605  0.3570  0.0926
  712MOL0     C93917  11.296   1.487   5.690  0.2474  0.1891 -0.1273
  712MOL0     C93918  11.186   1.415   5.646  0.5932  0.8839  0.2830
  712MOL0     H93919  10.791   1.233   5.785  0.7020  2.4909 -1.1521
  712MOL0     H93920  10.582   1.098   5.767  2.3853 -0.5634  1.6928
  712MOL0     H93921  10.473   0.893   5.385  0.8718  1.8517 -0.7135
  712MOL0     H93922  10.384   1.040   5.374  6.0966 -0.2739 -1.4017
  712MOL0     H93923  10.230   0.860   5.371 -1.8442  1.2919  0.3454
  712MOL0     H93924  10.201   0.961   5.514  1.6868  1.2739  0.3998
  712MOL0     H93925  10.294   0.797   5.657 -4.1606  1.1810  0.2441
  712MOL0     H93926  10.369   0.702   5.520  1.3618  1.5034 -1.4834
  712MOL0     H93927  10.195   0.571   5.599 -1.2996  0.2496  0.5778
  712MOL0     H93928  10.087   0.693   5.617 -2.4516 -0.1844 -2.8220
  712MOL0     H93929  10.053   0.706   5.376 -1.3904  0.2430  0.4840
  712MOL0     H93930  10.035   0.535   5.425  2.6398 -0.7129  1.3196
  712MOL0     H93931  10.251   0.478   5.362 -2.7409 -1.7934 -1.5825
  712MOL0     H93932  10.298   0.635   5.297 -1.8384  3.3058  0.0424
  712MOL0     H93933  10.239   0.485   5.104  0.2626 -0.7414  1.1993
  712MOL0     H93934  10.101   0.430   5.194 -2.5355  1.6935  3.3896
  712MOL0     H93935  10.189   0.711   5.083 -0.7213 -0.3921 -2.1714
  712MOL0     H93936  10.022   0.684   5.161 -1.8989 -0.2012 -2.5425
  712MOL0     H93937   9.842   0.547   5.003  1.0466  2.8868  3.3399
  712MOL0     H93938   9.731   0.554   4.743 -0.7958 -1.7532  1.9914
  712MOL0     H93939   9.809   0.389   4.760  5.7061  0.0859  2.0128
  712MOL0     H93940   9.956   0.460   4.559 -1.2631 -1.8422 -1.0859
  712MOL0     H93941   9.858   0.607   4.544  0.0065  1.1469  2.1350
  712MOL0     H93942   9.750   0.324   4.509  2.6897  0.6650 -0.4591
  712MOL0     H93943   9.666   0.480   4.460 -0.4601  1.0432  2.4812
  712MOL0     H93944   9.934   0.411   4.356 -2.0356 -1.6023  3.4431
  712MOL0     H93945   9.819   0.529   4.289 -1.2043  2.2965  3.2201
  712MOL0     H93946   9.605   0.149   4.226 -1.7739 -1.6284  0.9844
  712MOL0     H93947   9.609  -0.087   4.307 -0.1220 -0.5881 -0.8946
  712MOL0     H93948   9.537  -0.240   4.707  1.4825 -0.4632  3.6741
  712MOL0     H93949   9.525  -0.396   4.872  2.9000  1.6064  2.5341
  712MOL0     H93950   9.681  -0.780   5.000  2.1779  1.0698  0.7915
  712MOL0     H93951   9.785  -0.739   4.865 -1.3304 -2.0746 -1.9906
  712MOL0     H93952   9.574  -0.736   4.712 -3.5522 -0.6745 -0.2450
  712MOL0     H93953   9.485  -0.809   4.844  0.0350  0.0688  0.6388
  712MOL0     H93954   9.641  -1.001   4.843 -0.9919  1.0979  1.4100
  712MOL0     H93955   9.734  -0.943   4.716  0.1431  1.4939  1.7586
  712MOL0     H93956   9.439  -1.017   4.692  0.4146  4.8163 -0.6324
  712MOL0     H93957   9.522  -0.946   4.560  1.9256 -0.7139 -1.4473
  712MOL0     H93958   9.592  -1.209   4.704 -3.4571 -0.2220  0.3091
  712MOL0     H93959   9.696  -1.142   4.563  2.4669  1.1671  2.3693
  712MOL0     H93960   9.586  -1.298   4.450 -1.9780  0.3578 -0.7666
  712MOL0     H93961   9.491  -1.137   4.431 -0.3390  2.2938  1.9145
  712MOL0     H93962   9.420  -1.356   4.627  0.6548  1.6985  2.0796
  712MOL0     H93963   9.330  -1.206   4.593 -0.1063 -0.7630  1.3881
  712MOL0     H93964   9.364  -1.433   4.385 -1.5702 -1.7814  0.4395
  712MOL0     H93965   9.297  -1.275   4.362 -2.3923 -3.8089 -1.9774
  712MOL0     H93966   9.836  -0.643   4.696 -2.8172 -2.4232 -0.0669
  712MOL0     H93967   9.828  -0.481   4.496 -3.9777 -1.7766 -1.2961
  712MOL0     H93968  10.022  -0.017   4.420 -0.7564 -1.4810 -0.1180
  712MOL0     H93969   9.993   0.220   4.348 -1.4911  1.0670  0.2327
  712MOL0     H93970  10.634   1.046   5.352  5.5060 -1.4357 -2.0562
  712MOL0     H93971  10.863   1.137   5.366 -1.3643 -0.6422 -0.0282
  712MOL0     H93972  11.034   1.641   5.453  0.9029  0.1705 -1.3758
  712MOL0     H93973  11.221   1.782   5.540  3.7885 -0.9585 -2.8852
  712MOL0     H93974  11.606   1.736   5.720  0.8878  0.4955 -1.4048
  712MOL0     H93975  11.558   1.560   5.699  3.8506  2.0811 -1.2337
  712MOL0     H93976  11.501   1.757   5.941 -4.0849  0.3387 -1.4957
  712MOL0     H93977  11.423   1.611   5.942  0.9407  1.7505  1.3347
  712MOL0     H93978  11.626   1.495   5.984 -0.7999  1.0001  1.7019
  712MOL0     H93979  11.630   1.642   6.080  0.0045 -1.4790  2.3941
  712MOL0     H93980  11.788   1.592   5.827 -1.4958 -1.0783  0.4055
  712MOL0     H93981  11.737   1.756   5.895 -1.0469 -0.3131  1.2938
  712MOL0     H93982  12.026   1.659   6.181 -1.6258  3.3176  0.5582
  712MOL0     H93983  11.359   1.426   5.754 -0.4374 -2.0625 -1.4778
  712MOL0     H93984  11.180   1.310   5.671 -0.7848  1.3587  2.1233
  713MOL0     O93985   8.064   2.666   1.172 -0.2719 -0.2336  0.0614
  713MOL0     C93986   8.151   2.649   1.260 -0.5607 -0.5199  0.2556
  713MOL0     O93987   8.239   2.546   1.261 -0.0613  0.6144 -0.0174
  713MOL0     C93988   8.252   2.469   1.147 -0.6717 -0.2010 -0.2056
  713MOL0     C93989   8.381   2.456   1.087  1.4671  0.2370  0.4218
  713MOL0     C93990   8.387   2.362   0.989  0.2678  0.2902  0.1090
  713MOL0     C93991   8.274   2.286   0.939  0.9908 -0.7433 -0.2891
  713MOL0     O93992   8.272   2.211   0.828 -0.4471  0.3431 -1.0220
  713MOL0     C93993   8.292   2.067   0.866 -0.6832  0.5331 -0.4252
  713MOL0     C93994   8.344   2.011   0.732 -1.3033  0.1249  0.6487
  713MOL0     C93995   8.356   1.864   0.724 -0.3443  0.3050 -0.6237
  713MOL0     C93996   8.451   1.822   0.615 -0.0049  0.5800  0.6319
  713MOL0     C93997   8.470   1.663   0.606 -0.0408 -0.2866  0.2153
  713MOL0     C93998   8.542   1.618   0.728  0.6050  0.4814 -0.0660
  713MOL0     C93999   8.595   1.474   0.711 -0.2919  0.0116  0.0703
  713MOL0     C94000   8.496   1.364   0.736  0.8484  0.2627  0.1391
  713MOL0     N94001   8.549   1.235   0.700  0.8188 -0.2398  0.8831
  713MOL0     C94002   8.553   1.187   0.570  0.2862 -0.6260 -0.7275
  713MOL0     C94003   8.572   1.059   0.580  0.0166  0.2682 -0.1516
  713MOL0     C94004   8.564   0.964   0.467 -0.5013  0.3251  0.5027
  713MOL0     C94005   8.704   0.913   0.429  1.0397 -0.7395 -1.2816
  713MOL0     C94006   8.782   1.024   0.348  0.4091  0.9771 -0.8219
  713MOL0     C94007   8.738   1.031   0.202 -0.0726  0.4720  0.3856
  713MOL0     O94008   8.849   1.057   0.113  0.7256  0.7854 -0.0480
  713MOL0     C94009   8.956   0.983   0.096 -0.3000 -0.0333 -0.2827
  713MOL0     C94010   9.056   1.051   0.025 -0.1131  0.7605 -0.4566
  713MOL0     C94011   9.172   0.991  -0.000  0.5755 -0.4854 -0.4704
  713MOL0     C94012   9.203   0.852   0.051  0.2378 -0.1559 -0.6250
  713MOL0     C94013   9.330   0.787   0.038 -0.6152 -0.4068  0.4734
  713MOL0     O94014   9.356   0.677   0.123  0.1795 -0.5868  0.1447
  713MOL0     C94015   9.442   0.594   0.070  0.5320  0.6425 -0.2393
  713MOL0     C94016   9.389   0.470   0.030  0.4114  0.8124  0.2263
  713MOL0     C94017   9.473   0.371  -0.031 -0.5611 -1.0245  0.2511
  713MOL0     C94018   9.614   0.395  -0.030 -0.0701 -0.2639  0.1444
  713MOL0     O94019   9.705   0.295  -0.066  0.0021 -0.5098 -0.0151
  713MOL0     C94020   9.686   0.175   0.015 -0.0884 -0.0390 -0.2319
  713MOL0     C94021   9.635   0.052  -0.054  0.7892 -0.5443  0.0078
  713MOL0     C94022   9.618  -0.069   0.046  0.0483 -0.9818 -0.6504
  713MOL0     C94023   9.610  -0.204  -0.025  0.0801  0.8272  0.0764
  713MOL0     C94024   9.584  -0.314   0.083  0.3712  0.0136  0.2650
  713MOL0     C94025   9.697  -0.315   0.192 -0.9609 -0.7910 -0.3339
  713MOL0     C94026   9.834  -0.366   0.136  0.9816 -0.3386  0.1596
  713MOL0     C94027   9.947  -0.360   0.243 -0.3661 -0.6039  0.1430
  713MOL0    Cl94028   9.940  -0.479   0.380 -0.7609  0.0290  0.2211
  713MOL0     C94029   9.657   0.514   0.026 -0.3730  0.4296 -0.1199
  713MOL0     C94030   9.583   0.618   0.074  0.3001 -0.1016 -0.2848
  713MOL0     O94031   9.396   0.820  -0.059 -0.3663  0.0483  0.6926
  713MOL0     C94032   9.090   0.783   0.117  0.2435 -0.1194  0.0691
  713MOL0     C94033   8.967   0.849   0.138 -0.0773  0.0923  0.2403
  713MOL0     N94034   8.583   1.032   0.711 -0.8629  0.2150 -0.1819
  713MOL0     N94035   8.560   1.132   0.784 -0.2989 -0.3600 -0.4382
  713MOL0     C94036   8.153   2.319   0.985  0.5424 -0.2252  0.3147
  713MOL0     C94037   8.139   2.405   1.092 -0.1941 -0.8339 -0.1992
  713MOL0     C94038   8.149   2.751   1.373  0.4190 -0.2096 -0.5217
  713MOL0     C94039   8.194   2.723   1.500 -0.8594 -0.6899 -0.5777
  713MOL0     C94040   8.179   2.809   1.609  0.7718  0.0263  0.3228
  713MOL0     C94041   8.130   2.941   1.581 -0.5259 -0.6587 -1.0269
  713MOL0     O94042   8.115   3.032   1.681 -0.4881 -0.5489 -0.0215
  713MOL0     C94043   8.153   2.998   1.817  0.0205 -0.6309  0.0475
  713MOL0     C94044   8.081   3.101   1.899  0.3788 -0.3549  0.2645
  713MOL0     C94045   8.112   3.072   2.040 -0.2825  0.4381  0.5927
  713MOL0     C94046   8.026   2.961   2.108 -0.5730 -0.2391 -0.2534
  713MOL0     C94047   8.052   2.957   2.256 -0.3153 -0.4619 -0.0481
  713MOL0     C94048   8.069   2.971   2.375 -0.8463  0.0207  0.6371
  713MOL0     C94049   8.083   2.967   1.454  0.1263  0.0823  0.8736
  713MOL0     C94050   8.086   2.876   1.346  0.3916  1.0006  0.1052
  713MOL0     H94051   8.469   2.509   1.123  1.8788 -0.8049  0.9911
  713MOL0     H94052   8.477   2.343   0.931 -1.9264 -0.4349 -3.3495
  713MOL0     H94053   8.203   2.018   0.905 -3.0507  4.5860 -0.2066
  713MOL0     H94054   8.373   2.060   0.939 -2.0666  0.1540  1.1118
  713MOL0     H94055   8.440   2.061   0.719 -1.4488  0.7468  1.8768
  713MOL0     H94056   8.284   2.027   0.642  2.6947 -0.6787 -2.4926
  713MOL0     H94057   8.257   1.820   0.710 -1.5574  3.2606 -2.3750
  713MOL0     H94058   8.403   1.825   0.814  1.5628  1.5504 -1.0294
  713MOL0     H94059   8.408   1.854   0.519  0.6957  0.3669  0.2443
  713MOL0     H94060   8.546   1.873   0.632  0.6164 -0.8246  1.4565
  713MOL0     H94061   8.514   1.620   0.516 -3.2141 -0.7162 -1.2891
  713MOL0     H94062   8.366   1.629   0.611 -1.0901  2.6238 -0.1702
  713MOL0     H94063   8.461   1.605   0.800  1.2950 -2.1396  0.3352
  713MOL0     H94064   8.620   1.688   0.757  0.0583  0.4361  1.6052
  713MOL0     H94065   8.626   1.465   0.607 -3.2143 -1.4920 -0.7949
  713MOL0     H94066   8.682   1.469   0.777 -0.9990  3.0898  1.4067
  713MOL0     H94067   8.395   1.377   0.695  0.8498 -2.7938 -1.0633
  713MOL0     H94068   8.474   1.357   0.843  0.7326  0.6179  0.1418
  713MOL0     H94069   8.521   1.252   0.489 -0.2004 -0.0187 -0.0599
  713MOL0     H94070   8.523   1.008   0.375  0.6680  2.9146  1.1319
  713MOL0     H94071   8.499   0.883   0.502 -2.2694  1.8391  0.9079
  713MOL0     H94072   8.697   0.823   0.367 -2.2379 -0.3360 -1.6491
  713MOL0     H94073   8.756   0.892   0.523 -0.0965  0.2555 -0.3982
  713MOL0     H94074   8.783   1.123   0.395 -0.8007  1.7261 -2.2638
  713MOL0     H94075   8.888   0.997   0.349  1.1978  3.7057 -1.6123
  713MOL0     H94076   8.659   1.103   0.179 -0.9710 -1.1145 -1.9142
  713MOL0     H94077   8.698   0.936   0.165  0.5916  0.8314 -1.3318
  713MOL0     H94078   9.040   1.153  -0.007 -2.3512  0.8004  0.6194
  713MOL0     H94079   9.253   1.053  -0.038 -0.4220  2.2416  1.5076
  713MOL0     H94080   9.285   0.442   0.049  0.5922 -1.9687 -2.1241
  713MOL0     H94081   9.432   0.278  -0.068 -1.0701 -1.9910  2.9842
  713MOL0     H94082   9.631   0.206   0.104  1.5326 -2.5214  1.7670
  713MOL0     H94083   9.788   0.166   0.052 -0.1221  1.4511  0.2928
  713MOL0     H94084   9.708   0.010  -0.124  2.3542  0.7334  0.8144
  713MOL0     H94085   9.544   0.073  -0.111  0.6577 -1.0190  0.0376
  713MOL0     H94086   9.531  -0.052   0.110 -0.1091 -1.7483 -0.6544
  713MOL0     H94087   9.708  -0.062   0.108 -1.1136  0.0300  1.0007
  713MOL0     H94088   9.528  -0.205  -0.098 -0.2264 -1.4332  0.3732
  713MOL0     H94089   9.706  -0.225  -0.072  0.5452 -0.1761  1.3959
  713MOL0     H94090   9.588  -0.404   0.021  1.2916 -1.6641  2.6281
  713MOL0     H94091   9.487  -0.312   0.133  0.2158  3.2441  0.0152
  713MOL0     H94092   9.666  -0.389   0.266 -1.5767 -0.3406 -0.1331
  713MOL0     H94093   9.718  -0.219   0.241  2.3234 -1.2402 -0.6370
  713MOL0     H94094   9.805  -0.461   0.091  1.9577 -0.4028 -0.3612
  713MOL0     H94095   9.859  -0.302   0.050  1.1689  0.4491  0.7890
  713MOL0     H94096   9.968  -0.254   0.260 -3.7207  0.8291 -3.2124
  713MOL0     H94097  10.036  -0.390   0.185 -1.3753 -1.0241 -1.2524
  713MOL0     H94098   9.764   0.529   0.031 -0.0194 -1.8874  0.2476
  713MOL0     H94099   9.631   0.705   0.118 -0.0274 -0.1668  0.2105
  713MOL0     H94100   9.113   0.677   0.130 -2.0898 -1.0943 -2.6612
  713MOL0     H94101   8.875   0.806   0.177 -0.1428  2.3336  2.8320
  713MOL0     H94102   8.053   2.284   0.963  0.2529  1.3933 -1.1966
  713MOL0     H94103   8.045   2.434   1.138 -1.2879 -0.2099 -2.6741
  713MOL0     H94104   8.236   2.623   1.498  1.6871  0.3086 -2.8674
  713MOL0     H94105   8.204   2.776   1.710  3.8955  1.9864  0.3574
  713MOL0     H94106   8.260   3.014   1.831 -0.3724  0.4483  2.2870
  713MOL0     H94107   8.111   2.901   1.847 -1.7805 -1.3502 -4.0967
  713MOL0     H94108   8.131   3.197   1.884  0.9727 -0.3652  1.9843
  713MOL0     H94109   7.973   3.101   1.882  0.1645 -1.6931  1.3930
  713MOL0     H94110   8.097   3.170   2.086  0.6926  2.1524 -2.4668
  713MOL0     H94111   8.219   3.045   2.042 -0.9269 -2.6296 -0.3991
  713MOL0     H94112   7.922   2.979   2.081 -0.3863 -0.7751 -1.4130
  713MOL0     H94113   8.051   2.862   2.069  1.7505  0.2736 -0.2459
  713MOL0     H94114   8.092   2.964   2.480  0.7325 -6.0927  0.2324
  713MOL0     H94115   8.050   3.068   1.430 -3.3094 -0.7445  1.5209
  713MOL0     H94116   8.045   2.902   1.249 -2.1610  0.8198  1.0759
  714MOL0     O94117  10.700  10.503   4.055  0.4956 -1.0410  0.1279
  714MOL0     C94118  10.741  10.574   3.953 -0.1980 -0.2202  0.2646
  714MOL0     O94119  10.697  10.554   3.821 -0.7682 -0.0081 -0.0155
  714MOL0     C94120  10.617  10.440   3.797 -0.8766 -0.3847 -0.7192
  714MOL0     C94121  10.677  10.310   3.803  0.2506  1.1096  0.2929
  714MOL0     C94122  10.594  10.200   3.778  1.1065  0.4188 -0.8379
  714MOL0     C94123  10.456  10.216   3.743 -0.1765  0.5624  0.5542
  714MOL0     O94124  10.360  10.116   3.741  0.2541 -0.1465  0.0233
  714MOL0     C94125  10.322  10.062   3.871 -0.0779  1.1931 -0.2410
  714MOL0     C94126  10.174  10.012   3.882  0.6924 -0.4259  1.6053
  714MOL0     C94127  10.154   9.887   3.782  0.6974  0.1208 -0.2181
  714MOL0     C94128  10.000   9.852   3.767 -0.9225 -0.0732  0.0982
  714MOL0     C94129   9.928   9.829   3.897 -0.1673  1.5812  0.4862
  714MOL0     C94130  10.006   9.723   3.983  1.2622  0.4511 -0.1755
  714MOL0     C94131   9.905   9.635   4.066  0.9260 -0.1723 -0.3096
  714MOL0     C94132   9.979   9.539   4.155 -0.4390  0.0046 -0.8050
  714MOL0     N94133   9.868   9.475   4.230 -0.6433 -0.1430 -0.9686
  714MOL0     C94134   9.767   9.381   4.178 -0.6159  1.1522 -0.2960
  714MOL0     C94135   9.700   9.331   4.280 -0.7298  0.3872 -0.2482
  714MOL0     C94136   9.601   9.217   4.277 -0.1946  0.8181  0.0084
  714MOL0     C94137   9.479   9.240   4.361  0.7242 -0.7331  0.5402
  714MOL0     C94138   9.391   9.111   4.366  0.2743 -0.2347  0.4456
  714MOL0     C94139   9.272   9.114   4.266 -0.3010  0.1296  0.4670
  714MOL0     O94140   9.188   9.226   4.297  0.0348  0.2858 -0.0945
  714MOL0     C94141   9.056   9.224   4.263 -0.1272 -0.1171 -0.0111
  714MOL0     C94142   8.968   9.113   4.271 -0.6509  0.0262  0.2399
  714MOL0     C94143   8.833   9.131   4.234 -0.3105 -0.1291 -1.4416
  714MOL0     C94144   8.788   9.254   4.183  0.2360 -0.3302  0.4681
  714MOL0     C94145   8.651   9.265   4.134 -1.2431 -0.1980  0.3838
  714MOL0     O94146   8.611   9.391   4.126 -0.6253  0.2639  0.2465
  714MOL0     C94147   8.498   9.423   4.053 -0.1087  0.2658 -1.0433
  714MOL0     C94148   8.372   9.372   4.082 -0.7933 -0.5414 -0.0948
  714MOL0     C94149   8.259   9.425   4.017  0.0180 -0.2072 -0.3810
  714MOL0     C94150   8.263   9.541   3.939  0.5329 -0.0263 -0.0209
  714MOL0     O94151   8.160   9.603   3.871 -0.2579  0.2635  0.6147
  714MOL0     C94152   8.165   9.732   3.797 -0.1694  0.2911  0.0765
  714MOL0     C94153   8.180   9.861   3.890  0.2302  0.2335  0.4271
  714MOL0     C94154   8.065   9.875   4.004 -0.0423 -0.1465 -0.0224
  714MOL0     C94155   7.932   9.884   3.945 -0.0660 -0.2523  0.8908
  714MOL0     C94156   7.902  10.006   3.867 -0.0202 -0.4069  0.0442
  714MOL0     C94157   7.761   9.996   3.802  0.2480  0.7940 -0.3893
  714MOL0     C94158   7.727  10.123   3.727  0.5151 -0.3749  1.0398
  714MOL0     C94159   7.600  10.137   3.632 -0.8826  0.4004 -1.0852
  714MOL0    Cl94160   7.608  10.032   3.498 -0.1343 -0.0734 -0.4791
  714MOL0     C94161   8.388   9.594   3.919  0.0911  0.7672 -0.1993
  714MOL0     C94162   8.502   9.532   3.972 -0.0837  0.2671 -0.7802
  714MOL0     O94163   8.598   9.168   4.076  0.1715  0.3707 -0.0470
  714MOL0     C94164   8.867   9.365   4.211  0.0102 -0.6766 -0.0686
  714MOL0     C94165   8.996   9.351   4.242 -1.1533  0.0208  0.9131
  714MOL0     N94166   9.743   9.391   4.394 -0.3927 -0.1525 -0.4339
  714MOL0     N94167   9.835   9.486   4.362  0.1907 -0.6978 -0.3899
  714MOL0     C94168  10.413  10.344   3.710  0.0259  0.1462  0.4629
  714MOL0     C94169  10.498  10.457   3.741  0.0469  0.3989  0.5230
  714MOL0     C94170  10.837  10.675   3.981 -0.6902 -0.1624  0.0207
  714MOL0     C94171  10.885  10.684   4.115  0.6453  0.1408  0.7920
  714MOL0     C94172  10.968  10.782   4.158 -0.6804  0.0262  0.3911
  714MOL0     C94173  11.012  10.876   4.060  1.5739  0.7977 -1.1131
  714MOL0     O94174  11.077  10.987   4.110 -0.0892  0.0145 -0.0833
  714MOL0     C94175  11.144  11.074   4.015 -0.0349 -0.5132 -0.0894
  714MOL0     C94176  11.229  11.172   4.097 -0.0070  0.5293 -0.4105
  714MOL0     C94177  11.252  11.297   4.011 -0.9790 -0.1430 -0.3517
  714MOL0     C94178  11.339  11.399   4.083 -0.4214 -0.1304  0.2132
  714MOL0     C94179  11.286  11.427   4.219  0.1370  0.6413 -0.0755
  714MOL0     C94180  11.255  11.438   4.338 -0.2558 -0.2306  1.3925
  714MOL0     C94181  10.988  10.848   3.919  0.1900  0.7148 -0.4431
  714MOL0     C94182  10.896  10.751   3.880 -0.2612 -0.1520 -1.1159
  714MOL0     H94183  10.782  10.311   3.828 -0.3962  2.2645  3.3860
  714MOL0     H94184  10.615  10.100   3.814  0.2825  0.5197 -0.0451
  714MOL0     H94185  10.344  10.135   3.950  0.9427  0.6309  0.0130
  714MOL0     H94186  10.388   9.976   3.886 -0.5379  0.6204 -1.4028
  714MOL0     H94187  10.108  10.095   3.853  0.3253 -1.3282 -0.3392
  714MOL0     H94188  10.146   9.982   3.983 -1.2384  1.6015  1.7537
  714MOL0     H94189  10.207   9.800   3.822  0.2135 -0.7027 -1.3168
  714MOL0     H94190  10.201   9.902   3.685  2.1676  0.0983  0.4621
  714MOL0     H94191   9.943   9.931   3.716 -0.2251 -0.0858 -0.7078
  714MOL0     H94192   9.991   9.759   3.712  2.7949 -0.2937 -0.3681
  714MOL0     H94193   9.829   9.799   3.863  0.0617  2.2918 -0.8799
  714MOL0     H94194   9.911   9.923   3.949  0.2587  1.6056  0.5895
  714MOL0     H94195  10.076   9.781   4.043  1.7784 -1.3486  1.0335
  714MOL0     H94196  10.065   9.667   3.910  2.9555  3.7278 -1.5100
  714MOL0     H94197   9.846   9.702   4.129  1.1732 -1.7725  1.7366
  714MOL0     H94198   9.845   9.579   3.993 -0.1771 -0.9108  1.0906
  714MOL0     H94199  10.045   9.590   4.226  0.2595  0.4978 -1.7817
  714MOL0     H94200  10.045   9.465   4.110 -0.8551 -1.1082  0.3676
  714MOL0     H94201   9.749   9.355   4.074 -1.3621 -0.6998  0.2589
  714MOL0     H94202   9.651   9.130   4.321 -3.4749 -0.9314  0.5866
  714MOL0     H94203   9.573   9.181   4.178  0.5320  0.1079  0.0485
  714MOL0     H94204   9.422   9.321   4.313 -0.3954 -1.6358  0.2915
  714MOL0     H94205   9.516   9.274   4.458 -0.9349 -0.2725  1.0537
  714MOL0     H94206   9.455   9.023   4.358  1.3910  0.2446  3.1322
  714MOL0     H94207   9.349   9.089   4.465 -0.5250 -2.6777 -0.3617
  714MOL0     H94208   9.214   9.023   4.285  1.6660 -1.0326  1.2634
  714MOL0     H94209   9.297   9.114   4.160  0.5585  1.4548  0.6444
  714MOL0     H94210   8.992   9.021   4.325 -1.4963 -1.3589 -1.6497
  714MOL0     H94211   8.760   9.052   4.248  0.4528 -0.5596  0.4871
  714MOL0     H94212   8.369   9.284   4.145 -1.0418  0.5386  1.4650
  714MOL0     H94213   8.164   9.378   4.038  0.5234  0.6319  5.0600
  714MOL0     H94214   8.066   9.740   3.751 -1.3420 -0.2754  2.3614
  714MOL0     H94215   8.252   9.734   3.730  1.7074 -0.3431  2.3664
  714MOL0     H94216   8.181   9.949   3.825  1.3233 -0.4643 -0.5493
  714MOL0     H94217   8.281   9.853   3.931 -0.5023 -1.2737  2.0564
  714MOL0     H94218   8.066   9.963   4.068 -1.2208 -1.3203  1.7028
  714MOL0     H94219   8.071   9.781   4.059 -0.4708 -1.0217 -1.4178
  714MOL0     H94220   7.920   9.798   3.879  4.8062 -3.2680  3.3175
  714MOL0     H94221   7.861   9.869   4.027  0.8247 -1.8399  1.4236
  714MOL0     H94222   7.974  10.026   3.787  1.3403  1.8933  1.7279
  714MOL0     H94223   7.898  10.091   3.936 -1.5944 -0.0678 -0.4281
  714MOL0     H94224   7.683   9.980   3.877  2.2364  1.3310  1.9645
  714MOL0     H94225   7.761   9.912   3.732 -0.9907  1.8115 -1.6700
  714MOL0     H94226   7.706  10.198   3.805 -3.3667 -1.4372  1.2309
  714MOL0     H94227   7.816  10.141   3.667  0.5027 -0.5169  0.9786
  714MOL0     H94228   7.592  10.240   3.594 -0.4399  2.1681  3.1117
  714MOL0     H94229   7.513  10.109   3.691  0.6158  0.6570  1.3700
  714MOL0     H94230   8.401   9.691   3.871 -2.7863  0.3558 -2.0319
  714MOL0     H94231   8.598   9.567   3.935  0.0073  0.2378 -0.5725
  714MOL0     H94232   8.832   9.464   4.182  0.9215 -0.0612  0.8485
  714MOL0     H94233   9.062   9.437   4.253  0.2552 -0.6025 -1.8896
  714MOL0     H94234  10.307  10.346   3.687  0.4501 -1.2746 -1.9652
  714MOL0     H94235  10.456  10.556   3.726  1.2317  0.6479 -1.4670
  714MOL0     H94236  10.846  10.628   4.199  0.1417 -0.0598  0.4332
  714MOL0     H94237  10.982  10.779   4.266  2.8273  1.7156  0.1181
  714MOL0     H94238  11.067  11.125   3.956  3.1185  1.7982 -2.5882
  714MOL0     H94239  11.211  11.038   3.936  0.0042  1.4152 -0.9750
  714MOL0     H94240  11.184  11.187   4.196 -2.3668 -1.8945 -0.9848
  714MOL0     H94241  11.330  11.136   4.119 -0.5940  1.1726  4.4741
  714MOL0     H94242  11.152  11.336   3.988 -0.2240  0.1726 -3.5235
  714MOL0     H94243  11.309  11.270   3.922  3.0083  0.1789  1.8868
  714MOL0     H94244  11.443  11.366   4.087  0.5093  2.2994 -1.4200
  714MOL0     H94245  11.341  11.491   4.024 -2.0487  1.0829  1.9312
  714MOL0     H94246  11.236  11.464   4.440  1.3955 -1.1097  1.9611
  714MOL0     H94247  11.031  10.916   3.846 -2.7956  0.8136 -2.2742
  714MOL0     H94248  10.873  10.734   3.775  2.3934 -1.7747 -1.5158
  715MOL0     O94249   7.402   3.176   5.131  0.6975 -0.4792  0.8160
  715MOL0     C94250   7.323   3.158   5.032  0.2493 -0.8145 -0.1626
  715MOL0     O94251   7.221   3.075   5.046 -0.9328  0.0187 -0.0096
  715MOL0     C94252   7.182   3.023   5.173 -0.5398  0.9707  1.0352
  715MOL0     C94253   7.181   3.097   5.292  0.0884  0.0055  0.1735
  715MOL0     C94254   7.130   3.046   5.406  1.3500 -0.1705 -1.4548
  715MOL0     C94255   7.084   2.914   5.409  0.0870  0.6382  0.1148
  715MOL0     O94256   7.047   2.867   5.540  0.2412 -0.4024  0.0283
  715MOL0     C94257   6.948   2.773   5.556 -0.4917 -0.6485 -0.3692
  715MOL0     C94258   6.970   2.706   5.695  1.1422  0.3051 -0.4324
  715MOL0     C94259   6.860   2.617   5.747 -0.0242 -0.4291 -0.0063
  715MOL0     C94260   6.841   2.481   5.664 -0.2372  0.1571 -0.9899
  715MOL0     C94261   6.823   2.359   5.757 -0.4468 -0.6568 -0.8224
  715MOL0     C94262   6.681   2.353   5.819  0.2940 -0.0150  0.0049
  715MOL0     C94263   6.651   2.246   5.918  0.0619 -0.7540 -0.2276
  715MOL0     C94264   6.501   2.234   5.957 -0.1586 -0.3560 -0.3380
  715MOL0     N94265   6.482   2.123   6.044  0.4134  0.4089  0.7105
  715MOL0     C94266   6.461   1.995   6.004  0.0689  0.2249 -0.3436
  715MOL0     C94267   6.471   1.922   6.117  0.2917  0.0782 -1.0287
  715MOL0     C94268   6.469   1.774   6.134  1.2438  0.0620 -0.0342
  715MOL0     C94269   6.410   1.730   6.270  0.4018 -0.2465  0.1137
  715MOL0     C94270   6.376   1.582   6.267 -0.2494  0.4676  0.2719
  715MOL0     C94271   6.269   1.540   6.162 -0.4463  0.3483 -1.0408
  715MOL0     O94272   6.164   1.640   6.153  0.4006 -0.1163  0.3140
  715MOL0     C94273   6.030   1.600   6.149 -1.1955  0.2332  0.5923
  715MOL0     C94274   5.980   1.487   6.081 -0.3461  0.2116 -1.5448
  715MOL0     C94275   5.851   1.437   6.101  0.9021 -0.6561  1.0193
  715MOL0     C94276   5.757   1.512   6.176  0.6642  0.2232 -0.5114
  715MOL0     C94277   5.611   1.489   6.195 -1.1617 -0.2913  0.5468
  715MOL0     O94278   5.529   1.575   6.261 -0.0871  0.0237  0.9229
  715MOL0     C94279   5.396   1.522   6.269 -0.2170 -0.2141 -0.4280
  715MOL0     C94280   5.357   1.438   6.375  0.0628 -0.4906 -1.0978
  715MOL0     C94281   5.229   1.384   6.394 -0.1998  0.5151  0.6964
  715MOL0     C94282   5.124   1.415   6.309  0.4363  0.5481 -1.0594
  715MOL0     O94283   4.999   1.362   6.338  0.0814 -0.3488  0.1618
  715MOL0     C94284   4.901   1.473   6.353 -0.1835 -0.0880  0.6721
  715MOL0     C94285   4.915   1.539   6.488  0.7466  0.2962  0.6484
  715MOL0     C94286   4.869   1.442   6.594  1.2807  0.2930  0.7505
  715MOL0     C94287   4.906   1.483   6.736  0.0347 -0.6139 -0.6564
  715MOL0     C94288   4.852   1.392   6.837 -0.1824  0.1392 -0.0428
  715MOL0     C94289   4.699   1.390   6.858 -0.2097  0.1603 -1.2095
  715MOL0     C94290   4.665   1.276   6.959 -0.4550 -0.8691  0.7870
  715MOL0     C94291   4.638   1.343   7.096  0.6239  0.2145  0.4311
  715MOL0    Cl94292   4.779   1.418   7.173  0.3469  0.0687  0.1684
  715MOL0     C94293   5.162   1.507   6.205 -0.1373 -0.6770  0.8299
  715MOL0     C94294   5.290   1.561   6.193 -0.3377  0.8006 -0.6876
  715MOL0     O94295   5.576   1.387   6.135 -0.0295 -0.5118 -0.0357
  715MOL0     C94296   5.802   1.634   6.240  0.1433  0.3581  0.2933
  715MOL0     C94297   5.938   1.673   6.219 -0.0725  0.2505 -0.5021
  715MOL0     N94298   6.491   2.006   6.223 -0.8985 -0.3733 -1.2383
  715MOL0     N94299   6.494   2.127   6.181  0.6303  0.5970  0.2467
  715MOL0     C94300   7.083   2.840   5.293 -0.0190  0.2354  0.7119
  715MOL0     C94301   7.130   2.889   5.173 -0.1094  0.0552  1.0449
  715MOL0     C94302   7.335   3.244   4.909 -0.8990  0.2385 -0.5042
  715MOL0     C94303   7.444   3.334   4.900 -0.0400  0.5620 -0.0223
  715MOL0     C94304   7.460   3.393   4.774  0.6683  0.0584  0.8703
  715MOL0     C94305   7.371   3.369   4.671  0.2636 -0.0440  0.3213
  715MOL0     O94306   7.410   3.427   4.558  0.1254  0.0021 -0.2993
  715MOL0     C94307   7.319   3.436   4.449  0.0661 -0.1436 -0.3209
  715MOL0     C94308   7.390   3.494   4.331 -0.0890 -0.3262  0.1807
  715MOL0     C94309   7.534   3.429   4.313  0.1022  0.5209  0.6760
  715MOL0     C94310   7.596   3.432   4.171 -0.0369 -0.7021  0.2869
  715MOL0     C94311   7.621   3.565   4.109  0.3315  0.9330 -0.1826
  715MOL0     C94312   7.642   3.681   4.085 -0.1286  0.0573 -0.3591
  715MOL0     C94313   7.262   3.278   4.683  0.7223  0.2844  0.5239
  715MOL0     C94314   7.240   3.226   4.810 -0.6467  0.7130 -0.1624
  715MOL0     H94315   7.232   3.193   5.289  1.3165 -0.6401 -0.8310
  715MOL0     H94316   7.131   3.100   5.500  1.3858 -3.0623  0.3362
  715MOL0     H94317   6.965   2.692   5.484  1.9736  0.4852 -1.1762
  715MOL0     H94318   6.845   2.808   5.542 -0.5122 -1.3923 -2.4938
  715MOL0     H94319   6.992   2.791   5.761  1.4652  1.2184 -1.6903
  715MOL0     H94320   7.063   2.648   5.698  1.9949  1.6592  1.2673
  715MOL0     H94321   6.766   2.668   5.724  1.3570  1.8154 -1.0475
  715MOL0     H94322   6.889   2.598   5.851  2.8622  2.4503 -0.1310
  715MOL0     H94323   6.746   2.496   5.611  0.1445 -0.1303 -1.7848
  715MOL0     H94324   6.924   2.463   5.595  1.4443  0.3103  0.9235
  715MOL0     H94325   6.895   2.361   5.839 -0.7821 -1.5364 -0.5016
  715MOL0     H94326   6.841   2.269   5.698 -0.8385 -1.7077  0.6130
  715MOL0     H94327   6.604   2.344   5.742 -0.3692  2.0552  0.3657
  715MOL0     H94328   6.652   2.449   5.862 -0.4746  0.2134 -0.9699
  715MOL0     H94329   6.698   2.155   5.881 -0.8172 -2.2078  1.9965
  715MOL0     H94330   6.704   2.272   6.010  1.9381  0.4115 -1.5612
  715MOL0     H94331   6.439   2.223   5.868 -0.2739 -0.4998 -0.2395
  715MOL0     H94332   6.470   2.324   6.011 -2.2690 -1.4232  0.3215
  715MOL0     H94333   6.443   1.958   5.904  1.5090 -1.4558 -0.0164
  715MOL0     H94334   6.568   1.729   6.124  2.5246  3.0574 -2.5255
  715MOL0     H94335   6.406   1.735   6.053  3.5145 -0.4028 -1.6665
  715MOL0     H94336   6.327   1.798   6.293  2.1048  1.7713  0.6382
  715MOL0     H94337   6.478   1.752   6.353  0.2087 -0.7907  0.4233
  715MOL0     H94338   6.460   1.519   6.235 -3.1000 -3.7883  0.3165
  715MOL0     H94339   6.334   1.560   6.366 -0.5584  4.1719  1.1210
  715MOL0     H94340   6.227   1.439   6.164 -0.1455  0.2317 -0.5624
  715MOL0     H94341   6.324   1.527   6.068  0.8190 -2.6140  0.0076
  715MOL0     H94342   6.042   1.427   6.015 -0.2669 -0.8460 -0.5516
  715MOL0     H94343   5.830   1.339   6.060  1.5761  0.1179 -1.3827
  715MOL0     H94344   5.428   1.400   6.448  0.0932  1.1603 -0.2193
  715MOL0     H94345   5.202   1.310   6.469  0.7614 -0.4524  0.1118
  715MOL0     H94346   4.796   1.444   6.340 -0.7379  1.9881  0.0982
  715MOL0     H94347   4.911   1.555   6.282 -1.0320 -1.5451 -1.2098
  715MOL0     H94348   4.856   1.631   6.490  2.2162  1.3096 -0.4605
  715MOL0     H94349   5.015   1.579   6.505  1.2553  0.7079 -2.7150
  715MOL0     H94350   4.913   1.343   6.577  1.3842  0.6892 -1.6941
  715MOL0     H94351   4.763   1.423   6.577  1.1708  2.6698 -2.2133
  715MOL0     H94352   5.012   1.490   6.759  0.3533  0.1820 -2.2346
  715MOL0     H94353   4.867   1.584   6.753  2.8315  0.4804 -0.1536
  715MOL0     H94354   4.898   1.423   6.931  0.2377 -0.8174  0.0852
  715MOL0     H94355   4.864   1.287   6.807  0.1858  0.2968 -0.4561
  715MOL0     H94356   4.642   1.366   6.768 -0.5151 -0.1006 -0.9517
  715MOL0     H94357   4.668   1.490   6.891 -2.5011 -0.9447  0.2712
  715MOL0     H94358   4.567   1.238   6.927 -0.7539  1.4578 -1.3278
  715MOL0     H94359   4.735   1.195   6.982 -1.6985 -2.6497 -1.2840
  715MOL0     H94360   4.600   1.255   7.150  0.7737 -0.5038 -0.6007
  715MOL0     H94361   4.553   1.411   7.087  1.2485  1.5950  3.5415
  715MOL0     H94362   5.101   1.538   6.121 -2.3307 -1.9922  1.8412
  715MOL0     H94363   5.304   1.633   6.114  0.4520  2.1459  0.6244
  715MOL0     H94364   5.735   1.685   6.309  0.5245 -2.3275  2.8426
  715MOL0     H94365   5.976   1.758   6.275  2.2645 -1.8700  1.4105
  715MOL0     H94366   7.051   2.736   5.301  0.7745 -0.0558  0.1760
  715MOL0     H94367   7.130   2.829   5.083  1.7796 -0.5577  1.3946
  715MOL0     H94368   7.524   3.336   4.972  0.6824  0.0368 -0.7864
  715MOL0     H94369   7.545   3.454   4.749  0.5695 -0.3784 -0.6550
  715MOL0     H94370   7.223   3.481   4.475  0.9254  1.3302  0.4189
  715MOL0     H94371   7.290   3.335   4.418 -1.9249 -0.2136  1.5274
  715MOL0     H94372   7.328   3.503   4.241 -1.2637 -0.4432  0.9523
  715MOL0     H94373   7.410   3.601   4.345 -2.1902  0.2367 -0.6325
  715MOL0     H94374   7.513   3.324   4.335 -1.1038 -0.1530 -3.0144
  715MOL0     H94375   7.599   3.458   4.396  0.3053  0.5339  0.5128
  715MOL0     H94376   7.698   3.394   4.183  0.8414  0.8289 -1.8404
  715MOL0     H94377   7.540   3.365   4.105 -0.0940  2.5010 -3.2432
  715MOL0     H94378   7.671   3.785   4.080  0.3737  0.0163  1.0271
  715MOL0     H94379   7.192   3.267   4.601 -2.5835 -0.8420  3.2504
  715MOL0     H94380   7.151   3.168   4.831  0.3122 -0.3425  1.1254
  716MOL0     O94381   9.324   4.025   5.951  0.3533 -0.1241  0.1648
  716MOL0     C94382   9.273   4.106   5.876 -0.4740 -0.1923  0.3520
  716MOL0     O94383   9.278   4.234   5.894 -0.2237 -0.0948  0.5024
  716MOL0     C94384   9.328   4.297   6.005 -0.3576 -0.1202  0.2606
  716MOL0     C94385   9.269   4.283   6.127 -0.1224  0.1125 -0.3550
  716MOL0     C94386   9.341   4.335   6.236  0.5015  0.6646 -0.5606
  716MOL0     C94387   9.455   4.407   6.224  0.7600 -0.0174  0.6150
  716MOL0     O94388   9.521   4.470   6.325 -0.0623  0.4100 -0.4765
  716MOL0     C94389   9.478   4.463   6.461  0.2509  0.4707  0.1219
  716MOL0     C94390   9.579   4.503   6.573  0.6686  0.1922  1.0552
  716MOL0     C94391   9.594   4.647   6.597  0.5000  0.1352 -0.3343
  716MOL0     C94392   9.694   4.665   6.721 -0.5251 -0.3761  0.4342
  716MOL0     C94393   9.672   4.802   6.787 -0.1728  0.3455 -0.9467
  716MOL0     C94394   9.666   4.800   6.931  0.2731 -0.7108 -0.3795
  716MOL0     C94395   9.661   4.944   6.988 -0.4043  0.0025 -0.0627
  716MOL0     C94396   9.609   4.942   7.131 -0.7762 -0.2189  0.1204
  716MOL0     N94397   9.666   5.045   7.215  0.3069 -0.2965  1.0466
  716MOL0     C94398   9.791   5.074   7.265  0.0501  0.2956  1.8345
  716MOL0     C94399   9.792   5.196   7.310 -0.3621 -0.8890  0.3946
  716MOL0     C94400   9.931   5.251   7.341  0.5142 -0.7398  0.7059
  716MOL0     C94401   9.962   5.373   7.262 -0.2393  0.1090  0.7793
  716MOL0     C94402   9.961   5.507   7.338  0.5146  0.4843 -0.1820
  716MOL0     C94403  10.046   5.619   7.284  0.1151  0.9775  0.6911
  716MOL0     O94404  10.183   5.621   7.327  0.2873 -0.0752  0.5144
  716MOL0     C94405  10.197   5.674   7.452  0.1528  0.6160  0.8906
  716MOL0     C94406  10.094   5.707   7.542  0.2960  0.7642 -0.3657
  716MOL0     C94407  10.115   5.762   7.666 -0.1896 -0.3254  0.8211
  716MOL0     C94408  10.240   5.807   7.702 -1.0868 -0.1254  0.9155
  716MOL0     C94409  10.257   5.886   7.820  0.1266 -1.4086 -0.3793
  716MOL0     O94410  10.383   5.948   7.832  0.1445 -0.5482  0.7210
  716MOL0     C94411  10.424   6.001   7.953  0.8168  0.0002  0.1900
  716MOL0     C94412  10.536   5.947   8.011 -0.7221 -0.5519  0.5799
  716MOL0     C94413  10.581   5.974   8.140  0.2835 -0.4402  0.5668
  716MOL0     C94414  10.506   6.070   8.219 -0.0311 -1.1097  0.1732
  716MOL0     O94415  10.547   6.111   8.343 -0.5313 -0.2322  0.5751
  716MOL0     C94416  10.645   6.035   8.414  0.1002  0.0831 -0.4553
  716MOL0     C94417  10.593   6.046   8.557 -1.2326  0.7823  0.1573
  716MOL0     C94418  10.700   6.014   8.659 -0.5097 -0.6679 -0.3415
  716MOL0     C94419  10.645   5.987   8.800 -0.0311 -0.1200  0.0016
  716MOL0     C94420  10.760   5.948   8.892 -0.1660 -0.9479 -0.7673
  716MOL0     C94421  10.714   5.923   9.034 -0.2360  0.3284  0.8361
  716MOL0     C94422  10.806   5.844   9.118  0.0487 -0.1682 -0.8462
  716MOL0     C94423  10.723   5.773   9.235  0.1059  0.0639 -0.6438
  716MOL0    Cl94424  10.571   5.685   9.188 -0.3083  0.9378 -0.0277
  716MOL0     C94425  10.387   6.129   8.168 -0.1715 -0.5947  0.9621
  716MOL0     C94426  10.351   6.092   8.037  0.4938  0.6375 -0.4116
  716MOL0     O94427  10.169   5.889   7.909 -0.0535 -0.5163  0.5242
  716MOL0     C94428  10.351   5.772   7.615 -0.7848  0.6909 -0.8338
  716MOL0     C94429  10.329   5.706   7.493  0.8986 -0.6842  0.4638
  716MOL0     N94430   9.671   5.251   7.295  0.1457 -0.3223 -0.2203
  716MOL0     N94431   9.598   5.162   7.232 -1.0348 -0.3171 -0.4151
  716MOL0     C94432   9.514   4.411   6.092  0.1722 -0.5735 -0.6450
  716MOL0     C94433   9.449   4.357   5.985 -0.0460  0.0073  0.0768
  716MOL0     C94434   9.179   4.051   5.774 -0.3599  0.6801  0.2113
  716MOL0     C94435   9.152   4.119   5.653  0.1709  0.9385  0.3265
  716MOL0     C94436   9.073   4.075   5.551  0.5105  0.1141 -0.2669
  716MOL0     C94437   9.006   3.953   5.577 -0.2134  0.3515  0.2775
  716MOL0     O94438   8.917   3.909   5.475  0.2297  0.1060 -1.2785
  716MOL0     C94439   8.993   3.873   5.356 -0.0809 -1.0986  0.0166
  716MOL0     C94440   8.895   3.817   5.253  0.1575 -0.4243 -0.4571
  716MOL0     C94441   8.819   3.698   5.302 -0.5047 -0.2437 -0.5782
  716MOL0     C94442   8.752   3.615   5.192 -0.4645 -0.5584 -0.3982
  716MOL0     C94443   8.636   3.684   5.136 -0.5801  0.3403  0.7796
  716MOL0     C94444   8.574   3.762   5.079 -0.6656 -0.3648 -0.2358
  716MOL0     C94445   9.033   3.874   5.695 -0.1364 -0.4147 -0.1764
  716MOL0     C94446   9.122   3.917   5.792 -0.1076  0.0852 -0.4658
  716MOL0     H94447   9.171   4.237   6.138 -0.2763  1.1013  5.7417
  716MOL0     H94448   9.294   4.322   6.333  2.1990  1.3718  0.4018
  716MOL0     H94449   9.451   4.360   6.488  0.6654  0.1241 -0.7416
  716MOL0     H94450   9.390   4.527   6.456  3.4791  5.2634 -1.9591
  716MOL0     H94451   9.681   4.468   6.556  0.0539 -0.7017 -1.1072
  716MOL0     H94452   9.534   4.451   6.659 -4.0740  3.6601  1.0677
  716MOL0     H94453   9.498   4.695   6.621  2.0825  1.6201  3.8873
  716MOL0     H94454   9.626   4.685   6.499 -0.2264 -1.4552 -1.2250
  716MOL0     H94455   9.686   4.581   6.790  2.7803 -0.2903  1.0992
  716MOL0     H94456   9.796   4.671   6.682 -1.2045 -1.7063 -1.6867
  716MOL0     H94457   9.585   4.850   6.741 -0.9557  0.6490  0.7870
  716MOL0     H94458   9.759   4.862   6.758 -0.9484  2.9706  1.6975
  716MOL0     H94459   9.759   4.754   6.966  0.4045 -0.2851 -0.1721
  716MOL0     H94460   9.579   4.739   6.958 -0.1027  0.8294  2.1108
  716MOL0     H94461   9.761   4.988   6.987  0.3794 -1.6623  0.9180
  716MOL0     H94462   9.584   5.000   6.933 -1.0622 -3.0180 -2.4693
  716MOL0     H94463   9.620   4.842   7.175 -0.2970 -1.1977 -2.0970
  716MOL0     H94464   9.501   4.960   7.131 -0.4733  2.1335 -1.8007
  716MOL0     H94465   9.874   5.006   7.254  0.0312  0.0860  2.8760
  716MOL0     H94466   9.999   5.169   7.314 -0.6211 -1.6165  0.4411
  716MOL0     H94467   9.927   5.268   7.449 -1.3988  5.1846  0.0255
  716MOL0     H94468   9.895   5.380   7.176 -0.1173  1.8465  0.8026
  716MOL0     H94469  10.059   5.368   7.212 -0.2586 -0.5226  0.7857
  716MOL0     H94470   9.857   5.540   7.344  0.9339  1.6202  1.4993
  716MOL0     H94471   9.990   5.483   7.441  0.2854 -1.5158 -0.5364
  716MOL0     H94472   9.991   5.714   7.283 -2.2591 -0.3086 -0.6525
  716MOL0     H94473  10.045   5.603   7.176 -1.4216 -5.3962  1.2715
  716MOL0     H94474   9.989   5.694   7.518  0.1564 -2.6857  1.5054
  716MOL0     H94475  10.028   5.775   7.730 -0.8471  0.7103 -0.2507
  716MOL0     H94476  10.598   5.871   7.966  1.0340 -0.6231  2.8770
  716MOL0     H94477  10.670   5.925   8.178  2.5357  1.9343 -1.2399
  716MOL0     H94478  10.742   6.085   8.415 -0.8671  2.0927  0.9020
  716MOL0     H94479  10.650   5.930   8.384  0.9741  0.4697 -1.7121
  716MOL0     H94480  10.522   5.963   8.568 -0.2956 -0.4191 -2.1094
  716MOL0     H94481  10.553   6.144   8.585  0.2234  1.6644 -0.7371
  716MOL0     H94482  10.770   6.099   8.659 -1.6044  0.3086 -2.1961
  716MOL0     H94483  10.752   5.922   8.632  0.2883  0.3950 -2.7196
  716MOL0     H94484  10.601   6.082   8.833  0.8607  0.1113  0.5797
  716MOL0     H94485  10.569   5.909   8.799  0.7692 -0.9196 -1.4559
  716MOL0     H94486  10.840   6.022   8.875 -0.7106 -0.2868 -0.5247
  716MOL0     H94487  10.804   5.858   8.849  1.1894  0.1233 -1.7283
  716MOL0     H94488  10.617   5.873   9.026  0.8461 -2.0636  1.9194
  716MOL0     H94489  10.700   6.015   9.091 -1.1829 -0.4246  1.8528
  716MOL0     H94490  10.851   5.760   9.064 -1.1189 -0.7769 -0.9103
  716MOL0     H94491  10.868   5.910   9.179 -2.3286 -0.4688  2.1701
  716MOL0     H94492  10.683   5.846   9.307 -0.8323  0.1646 -1.2517
  716MOL0     H94493  10.781   5.696   9.287 -0.9534 -1.1142 -1.1479
  716MOL0     H94494  10.341   6.207   8.228  2.2884  1.4153  0.4300
  716MOL0     H94495  10.255   6.121   7.996 -0.6800  0.5431  2.0495
  716MOL0     H94496  10.451   5.788   7.653  0.1766 -2.7393 -1.5793
  716MOL0     H94497  10.407   5.686   7.420 -0.4413  0.8597 -1.5155
  716MOL0     H94498   9.609   4.463   6.087  0.5200 -1.3312 -2.5399
  716MOL0     H94499   9.496   4.347   5.888  0.8627 -3.1779  0.7483
  716MOL0     H94500   9.190   4.219   5.635 -2.0747  1.8590  0.3114
  716MOL0     H94501   9.028   4.132   5.470 -2.3708 -0.7963  0.5673
  716MOL0     H94502   9.080   3.807   5.364 -0.5533 -1.9907 -1.6091
  716MOL0     H94503   9.027   3.971   5.324  1.8863 -1.1941  1.6556
  716MOL0     H94504   8.824   3.898   5.231 -0.5537 -1.1194 -0.7551
  716MOL0     H94505   8.946   3.804   5.157  1.2063 -1.6312  0.2325
  716MOL0     H94506   8.738   3.743   5.361  0.7327  0.0495  0.9613
  716MOL0     H94507   8.888   3.659   5.377 -2.4304  1.1934  2.1243
  716MOL0     H94508   8.824   3.606   5.110 -1.1201  1.6409 -1.2874
  716MOL0     H94509   8.727   3.513   5.221  1.0470 -0.4453  1.5404
  716MOL0     H94510   8.502   3.825   5.029 -0.5029 -0.0719 -0.1000
  716MOL0     H94511   8.989   3.775   5.693 -1.7205  0.2495  0.2664
  716MOL0     H94512   9.144   3.862   5.883  1.7256 -0.2079 -1.0352
  717MOL0     O94513   2.328   3.317   9.975  0.7607  0.3805  0.5015
  717MOL0     C94514   2.317   3.193   9.970  0.0882  0.4530 -0.3133
  717MOL0     O94515   2.400   3.112   9.902  0.5320 -0.6588 -0.3769
  717MOL0     C94516   2.513   3.156   9.842 -0.3398  0.0093 -0.2738
  717MOL0     C94517   2.635   3.079   9.859  1.0215  0.4548  0.9037
  717MOL0     C94518   2.749   3.100   9.769  0.4803 -0.3311  0.1477
  717MOL0     C94519   2.741   3.209   9.686 -0.2829  0.3544  0.4074
  717MOL0     O94520   2.832   3.244   9.590 -0.3024  0.0162  0.7758
  717MOL0     C94521   2.917   3.140   9.551 -0.5626  0.8889  0.1373
  717MOL0     C94522   2.999   3.170   9.422  0.3283  0.7596 -0.3443
  717MOL0     C94523   2.940   3.127   9.287  0.8640 -0.4122 -0.1060
  717MOL0     C94524   3.020   3.176   9.168  0.6634  0.5227  0.5347
  717MOL0     C94525   2.960   3.110   9.042 -0.3294  0.4070 -0.2438
  717MOL0     C94526   2.986   3.195   8.911 -0.2779 -0.3875 -0.4796
  717MOL0     C94527   2.975   3.111   8.785  0.6385 -0.1443 -0.0075
  717MOL0     C94528   3.090   3.017   8.774 -0.5239  0.3448 -0.2768
  717MOL0     N94529   3.095   2.940   8.655  0.2937 -0.6933 -0.2340
  717MOL0     C94530   2.993   2.870   8.601  0.1978  0.8782 -0.5721
  717MOL0     C94531   3.044   2.803   8.502  0.5194 -0.2567 -0.6459
  717MOL0     C94532   2.965   2.730   8.398  0.2380  0.0600  0.2384
  717MOL0     C94533   3.048   2.621   8.322 -0.6015  0.7703  0.7164
  717MOL0     C94534   2.989   2.601   8.181 -0.1056  0.5930  0.5290
  717MOL0     C94535   2.999   2.716   8.088 -1.1063 -1.0884  0.2682
  717MOL0     O94536   2.996   2.670   7.950  0.6403 -0.0239 -0.0634
  717MOL0     C94537   3.013   2.760   7.843 -0.5825 -1.0357 -0.0096
  717MOL0     C94538   2.992   2.720   7.710 -0.6582 -0.8292  0.1558
  717MOL0     C94539   3.013   2.814   7.602  0.4717  1.3971  0.2416
  717MOL0     C94540   3.054   2.947   7.630  0.2036 -0.1775  0.4728
  717MOL0     C94541   3.071   3.041   7.519  0.1504  0.0868  0.1169
  717MOL0     O94542   3.130   3.150   7.552  0.2741 -0.5488 -0.3080
  717MOL0     C94543   3.164   3.246   7.453 -0.6990  0.7771  0.8378
  717MOL0     C94544   3.189   3.379   7.498 -0.2559  0.6114 -0.2190
  717MOL0     C94545   3.232   3.478   7.418  0.1268 -0.5265 -0.0619
  717MOL0     C94546   3.260   3.454   7.281  0.1299 -0.6681  0.2764
  717MOL0     O94547   3.317   3.552   7.206  0.4512 -0.1513  0.4205
  717MOL0     C94548   3.233   3.670   7.172  0.0593  0.0370  0.4100
  717MOL0     C94549   3.320   3.795   7.150  1.6597  0.1459 -0.7719
  717MOL0     C94550   3.238   3.923   7.113 -0.0525 -0.4043 -0.6839
  717MOL0     C94551   3.333   4.047   7.099 -0.1720  0.9110  0.1899
  717MOL0     C94552   3.295   4.162   7.007  0.1450  0.1127  0.4130
  717MOL0     C94553   3.405   4.270   6.997 -0.6270  0.0030  0.2187
  717MOL0     C94554   3.445   4.324   7.141 -0.6639 -1.0661  0.4901
  717MOL0     C94555   3.517   4.460   7.141 -0.9350  0.3138 -0.9639
  717MOL0    Cl94556   3.549   4.502   7.325  0.2541  0.0477 -0.4119
  717MOL0     C94557   3.241   3.326   7.226 -0.0538 -0.0575  0.1423
  717MOL0     C94558   3.196   3.229   7.309 -0.4632  0.1946  0.4880
  717MOL0     O94559   3.036   3.008   7.405 -0.4410  0.4077 -0.0392
  717MOL0     C94560   3.057   2.992   7.758  0.3655 -0.2603 -0.5730
  717MOL0     C94561   3.031   2.898   7.861  0.1308  0.4785 -0.4876
  717MOL0     N94562   3.180   2.820   8.503  0.7902  0.2979 -0.8306
  717MOL0     N94563   3.212   2.908   8.599 -0.0205 -0.0126 -0.7750
  717MOL0     C94564   2.616   3.281   9.671 -0.3812  0.0562  0.4229
  717MOL0     C94565   2.503   3.259   9.744 -0.5368 -0.0510  0.2652
  717MOL0     C94566   2.225   3.122  10.058  0.2634 -0.5035 -0.9019
  717MOL0     C94567   2.170   3.185  10.175  0.4069  0.9107  0.0074
  717MOL0     C94568   2.066   3.114  10.245 -0.0706 -0.0730 -0.3091
  717MOL0     C94569   2.012   3.000  10.184  0.4427  0.8000  0.0677
  717MOL0     O94570   1.913   2.943  10.263 -0.7342 -0.1325  0.0428
  717MOL0     C94571   1.891   2.805  10.252  0.3141  0.2654 -0.2833
  717MOL0     C94572   1.791   2.763  10.145  0.1129  0.4720 -0.0329
  717MOL0     C94573   1.665   2.843  10.162  0.6579  0.2875  0.4886
  717MOL0     C94574   1.551   2.804  10.059 -0.4368 -0.5968  1.4063
  717MOL0     C94575   1.430   2.868  10.092  0.5804  0.5289  0.3540
  717MOL0     C94576   1.313   2.895  10.110 -0.4885 -0.4103 -0.8593
  717MOL0     C94577   2.074   2.939  10.067 -0.0081 -1.0809  0.5043
  717MOL0     C94578   2.174   3.003  10.007 -0.5392  0.6569 -0.0851
  717MOL0     H94579   2.637   2.989   9.920 -0.9551 -0.9966 -1.0037
  717MOL0     H94580   2.836   3.035   9.767  0.7023 -0.0298  0.0594
  717MOL0     H94581   2.874   3.041   9.531 -0.6791  1.1342 -0.8933
  717MOL0     H94582   2.992   3.128   9.629  1.7546 -3.3835 -2.3319
  717MOL0     H94583   3.094   3.117   9.432 -0.6963 -0.9294  0.9634
  717MOL0     H94584   3.036   3.273   9.422  1.9896  0.2117 -2.0933
  717MOL0     H94585   2.839   3.171   9.288  0.6593 -0.8328 -1.1235
  717MOL0     H94586   2.923   3.019   9.285 -0.1969 -0.2658  0.1676
  717MOL0     H94587   2.997   3.283   9.167  0.0382  0.4091  1.6206
  717MOL0     H94588   3.128   3.165   9.167  0.6923  0.7799  0.8156
  717MOL0     H94589   2.852   3.102   9.058 -0.7543  2.1037 -1.9164
  717MOL0     H94590   2.995   3.006   9.040  1.1049  0.8681 -1.8340
  717MOL0     H94591   3.083   3.245   8.914 -1.0422  1.1202  0.6309
  717MOL0     H94592   2.914   3.277   8.898 -2.0736 -1.8752 -0.4035
  717MOL0     H94593   2.884   3.051   8.782 -0.4863  1.3993  1.5339
  717MOL0     H94594   2.980   3.186   8.705 -0.6688  0.8646  0.8204
  717MOL0     H94595   3.086   2.932   8.843 -1.7368  0.3549 -0.3177
  717MOL0     H94596   3.191   3.059   8.782 -0.1840  0.2153 -2.9803
  717MOL0     H94597   2.894   2.859   8.645  0.9794 -0.6212  0.9166
  717MOL0     H94598   2.940   2.810   8.328  1.3187  1.6758  1.6169
  717MOL0     H94599   2.879   2.683   8.448 -0.0579 -2.5147 -2.3910
  717MOL0     H94600   3.056   2.525   8.373 -0.4062 -1.2606 -2.8037
  717MOL0     H94601   3.152   2.651   8.309 -1.1523  2.1537 -0.9986
  717MOL0     H94602   3.033   2.519   8.123 -2.2770  0.7486 -1.5127
  717MOL0     H94603   2.886   2.573   8.203  0.4405 -0.6016  1.6623
  717MOL0     H94604   3.098   2.762   8.099 -2.0421  1.0130  0.3607
  717MOL0     H94605   2.933   2.802   8.101  0.6131  0.2483  0.6253
  717MOL0     H94606   2.944   2.629   7.676  0.1855 -1.6992  1.2148
  717MOL0     H94607   2.988   2.782   7.501  1.3817 -0.1975  0.4944
  717MOL0     H94608   3.171   3.396   7.603  0.3685 -1.9746  0.3913
  717MOL0     H94609   3.247   3.579   7.457  0.0523 -1.2838  2.0491
  717MOL0     H94610   3.151   3.680   7.244 -0.1192 -0.9045  0.3504
  717MOL0     H94611   3.175   3.659   7.079  0.6397  3.4099 -0.4800
  717MOL0     H94612   3.394   3.769   7.074  3.3950  1.3700  0.4303
  717MOL0     H94613   3.376   3.817   7.241 -1.1488 -0.2696  1.2022
  717MOL0     H94614   3.160   3.942   7.187 -0.6968 -0.7577 -1.2645
  717MOL0     H94615   3.177   3.899   7.026 -3.0541  1.3110  0.7976
  717MOL0     H94616   3.362   4.085   7.197 -0.3844  1.8101 -0.0886
  717MOL0     H94617   3.420   4.009   7.044 -0.5554 -0.5426  0.5300
  717MOL0     H94618   3.212   4.210   7.058 -0.1105  1.0972 -0.8802
  717MOL0     H94619   3.262   4.127   6.909 -1.5942  0.1021  0.9766
  717MOL0     H94620   3.353   4.347   6.939 -2.9203  1.1409  3.4755
  717MOL0     H94621   3.486   4.231   6.935 -0.7828  1.3948 -0.9027
  717MOL0     H94622   3.354   4.333   7.202 -1.3087 -3.5431 -0.0019
  717MOL0     H94623   3.509   4.250   7.190  0.8764  0.0622  0.2610
  717MOL0     H94624   3.466   4.533   7.077 -2.8035  2.1984  2.4198
  717MOL0     H94625   3.609   4.444   7.084 -0.5396 -1.8187  0.1709
  717MOL0     H94626   3.266   3.298   7.124  1.0367  2.0820 -0.2334
  717MOL0     H94627   3.172   3.136   7.258 -0.7623  0.9040 -0.6929
  717MOL0     H94628   3.082   3.096   7.771 -1.9609  0.1288  1.6443
  717MOL0     H94629   3.045   2.938   7.961  4.9151  1.2729 -1.2689
  717MOL0     H94630   2.600   3.358   9.597 -0.6806 -1.2012 -0.8698
  717MOL0     H94631   2.410   3.315   9.747 -0.8642 -0.6462  2.2868
  717MOL0     H94632   2.206   3.278  10.217  2.5580 -0.1921  0.7634
  717MOL0     H94633   2.025   3.143  10.342 -3.5116  0.6337 -1.7998
  717MOL0     H94634   1.860   2.775  10.353 -0.9957  0.3868 -0.6209
  717MOL0     H94635   1.986   2.754  10.231  1.1868  2.3603 -1.6979
  717MOL0     H94636   1.826   2.785  10.043 -0.1474 -2.1452 -0.7763
  717MOL0     H94637   1.760   2.658  10.152  0.2545  0.4358  0.0458
  717MOL0     H94638   1.668   2.948  10.132 -3.3210  0.8973  1.6449
  717MOL0     H94639   1.632   2.827  10.265  2.1638 -3.0940  0.6107
  717MOL0     H94640   1.594   2.829   9.961  2.5315  0.8083  2.9172
  717MOL0     H94641   1.552   2.695  10.066  4.0620 -0.7900  0.7681
  717MOL0     H94642   1.213   2.931  10.123 -0.6772 -0.6971 -1.4664
  717MOL0     H94643   2.062   2.843  10.018  0.7919 -1.1689  0.4699
  717MOL0     H94644   2.215   2.971   9.912  1.4763  2.5264  0.0651
  718MOL0     O94645   0.156   2.892  10.853 -0.5649 -0.1091 -0.4106
  718MOL0     C94646   0.210   2.927  10.962  0.7092 -0.2328 -0.2499
  718MOL0     O94647   0.233   3.055  11.006  0.3545  0.0642  0.3809
  718MOL0     C94648   0.163   3.159  10.943 -0.4245  0.1146 -1.3459
  718MOL0     C94649   0.222   3.235  10.848  0.2159  0.7644  1.5040
  718MOL0     C94650   0.158   3.333  10.777 -0.9437  0.0815 -0.7488
  718MOL0     C94651   0.039   3.368  10.809  0.2796  0.8904  0.3042
  718MOL0     O94652  -0.024   3.467  10.736  0.2961 -0.6482  0.0815
  718MOL0     C94653  -0.156   3.507  10.754 -0.2714 -0.3115  0.9084
  718MOL0     C94654  -0.180   3.637  10.661 -0.0506 -0.2945 -0.5018
  718MOL0     C94655  -0.175   3.634  10.510  0.7377  0.1348  0.2326
  718MOL0     C94656  -0.230   3.754  10.440 -0.1145  0.3878 -0.0643
  718MOL0     C94657  -0.180   3.768  10.297  0.4613 -0.1370 -0.5549
  718MOL0     C94658  -0.265   3.685  10.202 -0.4942 -0.3054 -0.4320
  718MOL0     C94659  -0.223   3.544  10.156  0.9556  0.0034 -0.5891
  718MOL0     C94660  -0.334   3.492  10.063  0.0802 -0.2227  0.2899
  718MOL0     N94661  -0.469   3.468  10.130 -0.5194  0.5748 -0.2370
  718MOL0     C94662  -0.486   3.357  10.214  0.2946  1.0235  0.0024
  718MOL0     C94663  -0.599   3.386  10.283  0.4129 -0.6864  0.2027
  718MOL0     C94664  -0.665   3.298  10.385  0.4646 -0.1023  0.6322
  718MOL0     C94665  -0.690   3.159  10.333 -0.0269 -0.2229  0.7053
  718MOL0     C94666  -0.579   3.058  10.292 -0.6436  1.1669 -0.8384
  718MOL0     C94667  -0.638   2.921  10.286 -0.1428 -0.0565  0.6421
  718MOL0     O94668  -0.675   2.874  10.412  0.9220  0.0669  0.3373
  718MOL0     C94669  -0.722   2.746  10.430  0.6398 -0.2274  0.3221
  718MOL0     C94670  -0.752   2.653  10.324  0.7069 -0.1271 -0.0130
  718MOL0     C94671  -0.772   2.521  10.353 -0.1012  0.4933 -0.3642
  718MOL0     C94672  -0.793   2.473  10.483  0.7535  0.9984 -0.4099
  718MOL0     C94673  -0.854   2.346  10.521  0.7541 -1.0732 -0.3333
  718MOL0     O94674  -0.857   2.314  10.645  1.0590  0.1411 -0.3787
  718MOL0     C94675  -0.902   2.192  10.687  0.9973 -0.0149  0.5401
  718MOL0     C94676  -0.951   2.192  10.813 -0.4701 -0.5845  0.3290
  718MOL0     C94677  -0.986   2.074  10.879  0.8872  0.3653 -0.2068
  718MOL0     C94678  -0.981   1.948  10.814 -0.7674 -0.5286 -0.1744
  718MOL0     O94679  -1.010   1.821  10.859 -0.4782  0.2775 -0.7764
  718MOL0     C94680  -1.052   1.801  10.994 -0.0072  0.0283 -0.4096
  718MOL0     C94681  -1.114   1.667  10.998 -0.7239 -0.0303  0.1768
  718MOL0     C94682  -1.154   1.628  11.139  0.4848 -0.5820  1.0221
  718MOL0     C94683  -1.039   1.559  11.214  0.6771  0.8385  0.2352
  718MOL0     C94684  -1.073   1.481  11.335  0.9016  0.3819  0.2914
  718MOL0     C94685  -0.965   1.393  11.392 -0.4804 -0.3039 -0.5468
  718MOL0     C94686  -1.025   1.312  11.505  0.5974 -0.4453 -1.1568
  718MOL0     C94687  -1.029   1.386  11.639 -0.2625  0.0348  0.4709
  718MOL0    Cl94688  -0.856   1.376  11.691 -0.1167  0.1916  0.4680
  718MOL0     C94689  -0.931   1.957  10.680 -0.5830 -0.2207  0.3764
  718MOL0     C94690  -0.889   2.074  10.619  0.1774 -0.1378  0.4838
  718MOL0     O94691  -0.908   2.277  10.431  0.3071  0.4580  0.5459
  718MOL0     C94692  -0.779   2.572  10.585  0.1303 -0.5137  0.2540
  718MOL0     C94693  -0.732   2.698  10.555  0.1303 -0.2470  0.6727
  718MOL0     N94694  -0.647   3.508  10.239  0.0632 -0.2433 -0.1241
  718MOL0     N94695  -0.570   3.555  10.146 -0.5555  0.1273  0.3233
  718MOL0     C94696  -0.025   3.299  10.914 -0.3640 -0.1871  0.5337
  718MOL0     C94697   0.033   3.196  10.984 -0.7597  0.9652 -0.2164
  718MOL0     C94698   0.273   2.815  11.044 -0.3065  0.1103  0.9961
  718MOL0     C94699   0.351   2.703  10.991  0.1536 -0.5895 -0.1363
  718MOL0     C94700   0.388   2.593  11.069  0.9199 -0.4375 -1.0363
  718MOL0     C94701   0.348   2.583  11.201 -0.2959 -0.1024 -0.5729
  718MOL0     O94702   0.387   2.472  11.266 -0.2524 -0.1389  0.1863
  718MOL0     C94703   0.301   2.399  11.351 -0.2653 -0.6714  0.3280
  718MOL0     C94704   0.380   2.277  11.391  0.8509  0.3244  0.7448
  718MOL0     C94705   0.289   2.203  11.494  0.1880 -0.0940  0.2622
  718MOL0     C94706   0.363   2.081  11.552 -0.7571  0.6231  0.6588
  718MOL0     C94707   0.303   2.046  11.686 -0.0832 -0.4645  0.6540
  718MOL0     C94708   0.249   2.018  11.793  0.1145  0.3853 -0.2411
  718MOL0     C94709   0.265   2.690  11.255  0.3785  0.3245  0.9109
  718MOL0     C94710   0.221   2.797  11.175 -0.3862 -0.2020  0.0833
  718MOL0     H94711   0.320   3.221  10.803  0.0744  2.0661  0.7613
  718MOL0     H94712   0.189   3.377  10.683 -1.0801  1.6776 -0.0698
  718MOL0     H94713  -0.162   3.534  10.860  1.0728  1.3745  0.5941
  718MOL0     H94714  -0.225   3.426  10.729  1.3770 -1.2260 -1.0210
  718MOL0     H94715  -0.108   3.712  10.696 -0.4606  0.5521 -1.4139
  718MOL0     H94716  -0.275   3.682  10.691 -0.4606 -0.1427 -1.9566
  718MOL0     H94717  -0.240   3.551  10.479 -0.7067  2.7441 -4.7769
  718MOL0     H94718  -0.078   3.606  10.468 -0.6891 -0.9591 -2.5895
  718MOL0     H94719  -0.339   3.761  10.441 -0.0600  2.9822  2.9246
  718MOL0     H94720  -0.204   3.850  10.485 -3.0377  2.1866 -1.8789
  718MOL0     H94721  -0.073   3.744  10.290  0.7591  1.2666 -1.0988
  718MOL0     H94722  -0.171   3.875  10.279 -0.1998  0.1173  0.5014
  718MOL0     H94723  -0.283   3.756  10.120 -0.4584 -0.0182 -0.1925
  718MOL0     H94724  -0.358   3.666  10.257 -0.7098  0.0803 -0.6594
  718MOL0     H94725  -0.131   3.549  10.097  1.9732 -0.5916  0.8921
  718MOL0     H94726  -0.212   3.494  10.253 -1.2055 -1.4584 -1.0238
  718MOL0     H94727  -0.291   3.395  10.035  1.0076 -0.6102  2.7916
  718MOL0     H94728  -0.345   3.553   9.973 -2.6419 -2.8545 -1.3659
  718MOL0     H94729  -0.430   3.265  10.226 -2.5390 -1.3338 -3.0224
  718MOL0     H94730  -0.762   3.346  10.405  0.2755  1.3556 -3.0595
  718MOL0     H94731  -0.606   3.295  10.477 -0.5219 -3.4861  1.2885
  718MOL0     H94732  -0.763   3.163  10.251 -1.0531  1.3538  1.6349
  718MOL0     H94733  -0.742   3.115  10.419 -1.1353  0.8851  0.6458
  718MOL0     H94734  -0.536   3.100  10.200  2.6865  1.4860  0.7196
  718MOL0     H94735  -0.497   3.047  10.363  0.1243  1.0465 -1.7126
  718MOL0     H94736  -0.574   2.847  10.238  0.9113  0.6739  0.8986
  718MOL0     H94737  -0.720   2.945  10.218 -0.1481  3.5784  1.7223
  718MOL0     H94738  -0.749   2.679  10.219 -1.1121 -1.6079 -0.4841
  718MOL0     H94739  -0.770   2.454  10.267  0.3735 -0.8671  0.6741
  718MOL0     H94740  -0.961   2.288  10.863 -0.3088 -0.0541 -0.6430
  718MOL0     H94741  -1.014   2.070  10.984  0.4056  0.8564 -0.3113
  718MOL0     H94742  -1.126   1.879  11.019  0.9226  0.0146  2.9014
  718MOL0     H94743  -0.974   1.819  11.068 -0.1641  1.1561 -0.4977
  718MOL0     H94744  -1.036   1.598  10.962  2.6753  1.4089  3.9525
  718MOL0     H94745  -1.205   1.654  10.939 -0.1905 -2.0994 -0.2837
  718MOL0     H94746  -1.232   1.552  11.132 -0.4468  0.4257  0.1228
  718MOL0     H94747  -1.189   1.719  11.189 -0.1245 -0.2500  0.0227
  718MOL0     H94748  -1.008   1.487  11.138 -0.8960  0.0334  0.3122
  718MOL0     H94749  -0.955   1.625  11.236  2.6218 -2.1997  2.6200
  718MOL0     H94750  -1.160   1.424  11.301  0.4252  2.4828 -2.3846
  718MOL0     H94751  -1.116   1.551  11.407 -0.7769  0.6776 -0.9568
  718MOL0     H94752  -0.875   1.443  11.428  1.9463 -4.0603 -0.7937
  718MOL0     H94753  -0.925   1.318  11.323 -3.5358  0.1641 -3.0393
  718MOL0     H94754  -1.126   1.279  11.480  0.9859 -0.5286 -2.7606
  718MOL0     H94755  -0.955   1.230  11.526 -3.2796 -3.1255  3.2340
  718MOL0     H94756  -1.092   1.339  11.715 -0.8663  2.0580  1.2959
  718MOL0     H94757  -1.057   1.492  11.634  0.3548  0.2597  1.4097
  718MOL0     H94758  -0.905   1.862  10.636  3.7296  0.1017  1.7263
  718MOL0     H94759  -0.844   2.056  10.522 -2.7464 -1.5828 -0.7358
  718MOL0     H94760  -0.803   2.553  10.689 -1.8986 -0.0085 -0.0745
  718MOL0     H94761  -0.720   2.769  10.637  0.0363 -1.1540  1.4890
  718MOL0     H94762  -0.125   3.325  10.947 -0.8361 -2.4864  1.0673
  718MOL0     H94763  -0.017   3.151  11.069  4.1064 -1.3265  1.8368
  718MOL0     H94764   0.382   2.698  10.887  1.5460  0.1647  0.2118
  718MOL0     H94765   0.446   2.513  11.024  0.3846 -0.7907 -1.1028
  718MOL0     H94766   0.220   2.368  11.285 -1.0870  0.6988  0.6483
  718MOL0     H94767   0.264   2.463  11.431  0.4431 -0.5008  0.5307
  718MOL0     H94768   0.408   2.208  11.311 -0.5283  1.3442 -0.6888
  718MOL0     H94769   0.478   2.309  11.425  0.9952 -0.6235  1.2584
  718MOL0     H94770   0.197   2.185  11.438 -1.3742  2.3903  1.8080
  718MOL0     H94771   0.252   2.266  11.576  0.7338  0.7224 -0.1070
  718MOL0     H94772   0.350   2.002  11.478 -0.1075 -0.5649  1.7747
  718MOL0     H94773   0.471   2.092  11.560 -0.2657  0.1491 -3.2862
  718MOL0     H94774   0.213   1.992  11.891 -3.9824 -0.8282 -1.8782
  718MOL0     H94775   0.222   2.678  11.354 -1.8363 -0.9251 -0.1234
  718MOL0     H94776   0.158   2.879  11.209 -1.1246 -0.1399 -1.3350
  719MOL0     O94777   2.982   7.153   5.763 -0.1904 -0.0407 -0.1445
  719MOL0     C94778   2.917   7.053   5.737 -0.1725  0.4747 -0.0925
  719MOL0     O94779   2.896   6.951   5.826 -0.0630  0.8708  0.1754
  719MOL0     C94780   2.977   6.949   5.932 -0.3250  0.1513  0.5087
  719MOL0     C94781   3.113   6.959   5.905  0.0908 -0.1832  0.8907
  719MOL0     C94782   3.210   6.930   5.999  0.5625 -0.1730 -0.4801
  719MOL0     C94783   3.165   6.900   6.127 -0.3860  0.0171 -0.1476
  719MOL0     O94784   3.263   6.887   6.231  1.1517  0.5901  0.0998
  719MOL0     C94785   3.326   6.756   6.234 -0.2349 -0.4811 -0.2652
  719MOL0     C94786   3.402   6.744   6.366 -0.3602 -0.1718 -0.2050
  719MOL0     C94787   3.406   6.597   6.407  0.3002  0.0508 -0.6850
  719MOL0     C94788   3.489   6.582   6.539  0.1791 -0.9265 -0.0706
  719MOL0     C94789   3.454   6.460   6.632 -0.3953 -0.2498  0.4362
  719MOL0     C94790   3.537   6.444   6.754 -0.3931 -0.1937  0.7623
  719MOL0     C94791   3.530   6.313   6.825 -0.1499 -0.5756 -0.0347
  719MOL0     C94792   3.557   6.188   6.742  0.2472  0.0120 -0.0638
  719MOL0     N94793   3.582   6.078   6.843 -0.1934 -0.2651  0.0641
  719MOL0     C94794   3.704   6.044   6.904  0.2403  0.2774  0.5460
  719MOL0     C94795   3.688   5.928   6.972 -0.1073  0.0928 -0.2715
  719MOL0     C94796   3.785   5.851   7.058  0.6700 -0.6387  0.1603
  719MOL0     C94797   3.818   5.921   7.196 -0.0650  0.1298  0.4197
  719MOL0     C94798   3.961   5.964   7.205 -1.4242 -0.1460  0.0283
  719MOL0     C94799   3.985   6.080   7.119 -0.1330 -0.7831  0.8137
  719MOL0     O94800   3.921   6.193   7.182 -0.0211 -0.1876  0.2721
  719MOL0     C94801   3.902   6.299   7.095  1.0111  0.4022  0.7469
  719MOL0     C94802   3.950   6.304   6.956  0.2856 -0.9569 -0.6321
  719MOL0     C94803   3.929   6.417   6.882 -0.7379 -0.1636 -0.1162
  719MOL0     C94804   3.846   6.525   6.933 -0.1372  0.4245  0.0524
  719MOL0     C94805   3.823   6.645   6.853 -0.3908 -0.6434 -0.5423
  719MOL0     O94806   3.760   6.757   6.908  0.0845  0.4787 -0.5755
  719MOL0     C94807   3.744   6.860   6.823  0.4693 -0.0799  0.0479
  719MOL0     C94808   3.626   6.883   6.758 -0.6936  0.6582 -0.2582
  719MOL0     C94809   3.627   6.964   6.648 -0.2662  0.5646  1.0979
  719MOL0     C94810   3.739   7.052   6.621 -0.2622 -0.1107  0.1920
  719MOL0     O94811   3.738   7.142   6.518 -0.1666 -0.6751 -0.8501
  719MOL0     C94812   3.638   7.156   6.414 -0.0290 -0.7231 -0.4955
  719MOL0     C94813   3.511   7.225   6.457  1.2274  0.4085 -1.2847
  719MOL0     C94814   3.416   7.235   6.342 -0.7629 -0.2596 -0.0972
  719MOL0     C94815   3.266   7.272   6.390 -0.5879  0.4491 -0.6140
  719MOL0     C94816   3.145   7.279   6.286 -0.0214 -0.1537  0.2120
  719MOL0     C94817   3.176   7.361   6.156  0.9425  0.1844  0.5209
  719MOL0     C94818   3.043   7.395   6.098 -0.1465  0.0716  0.5852
  719MOL0     C94819   3.058   7.458   5.963  0.1035 -0.3115  0.2524
  719MOL0    Cl94820   2.901   7.467   5.873 -0.3564  0.0427  0.5025
  719MOL0     C94821   3.856   7.037   6.690  0.8356  0.2916  0.0261
  719MOL0     C94822   3.863   6.932   6.784 -0.5925 -0.4274  0.3708
  719MOL0     O94823   3.865   6.623   6.739  0.5656 -0.7084 -0.2865
  719MOL0     C94824   3.802   6.524   7.060 -0.7486 -0.4363 -0.8342
  719MOL0     C94825   3.833   6.408   7.148  0.0647 -0.5793  0.3096
  719MOL0     N94826   3.551   5.898   6.966 -0.0148 -0.2273  0.0575
  719MOL0     N94827   3.494   5.980   6.886 -0.2163  0.2817  0.8141
  719MOL0     C94828   3.034   6.889   6.158  0.8115  0.0131  0.1028
  719MOL0     C94829   2.936   6.901   6.056  0.2765 -0.4179  0.4173
  719MOL0     C94830   2.837   7.069   5.614  0.6095 -0.7965 -0.4615
  719MOL0     C94831   2.834   7.184   5.532  0.8254 -0.0280 -0.3354
  719MOL0     C94832   2.737   7.200   5.426 -0.5853  0.2770 -0.4145
  719MOL0     C94833   2.669   7.080   5.379 -0.7931  0.5934  1.8027
  719MOL0     O94834   2.572   7.090   5.268 -0.3112 -0.1639  0.2736
  719MOL0     C94835   2.536   7.220   5.217 -0.2681  1.3456 -0.2888
  719MOL0     C94836   2.434   7.186   5.100 -0.2371  0.1744 -0.1701
  719MOL0     C94837   2.493   7.095   4.987 -0.4716  0.5008  0.2829
  719MOL0     C94838   2.395   7.076   4.871 -0.3575  0.9280  0.1067
  719MOL0     C94839   2.436   6.943   4.801  0.6829  0.2471  0.4527
  719MOL0     C94840   2.464   6.832   4.762  0.2601  0.4343  0.3442
  719MOL0     C94841   2.683   6.964   5.455 -0.7881  0.1279 -0.1955
  719MOL0     C94842   2.756   6.964   5.570 -0.2463 -0.1447 -0.6771
  719MOL0     H94843   3.151   6.982   5.806  0.5706  2.1576  1.5653
  719MOL0     H94844   3.314   6.931   5.967  1.0426 -2.7513  0.7647
  719MOL0     H94845   3.391   6.750   6.147  1.1760 -2.0667  0.8359
  719MOL0     H94846   3.237   6.693   6.229 -0.9028  0.5302 -1.7205
  719MOL0     H94847   3.338   6.797   6.437 -0.3282 -0.2211 -0.1398
  719MOL0     H94848   3.500   6.791   6.363  0.7312 -2.2199  1.3209
  719MOL0     H94849   3.437   6.526   6.330  0.2988 -0.8133  0.0847
  719MOL0     H94850   3.308   6.561   6.439  1.4475 -1.4632  1.3777
  719MOL0     H94851   3.590   6.568   6.498 -1.1285  0.0541 -4.0816
  719MOL0     H94852   3.473   6.674   6.595 -3.3038  1.6600 -4.6294
  719MOL0     H94853   3.472   6.368   6.575 -0.9178 -2.2194  3.2837
  719MOL0     H94854   3.349   6.477   6.659 -0.2351  3.6313 -0.6660
  719MOL0     H94855   3.515   6.526   6.822  0.7257 -0.3055  1.2839
  719MOL0     H94856   3.641   6.466   6.725 -0.4506  3.6096  2.8106
  719MOL0     H94857   3.610   6.325   6.899 -0.1059  0.3489 -0.2203
  719MOL0     H94858   3.436   6.312   6.881  0.1888 -1.2131  0.5396
  719MOL0     H94859   3.643   6.200   6.674  0.6343  2.6609  0.7892
  719MOL0     H94860   3.473   6.161   6.678 -0.2376 -0.9347  0.9405
  719MOL0     H94861   3.801   6.091   6.889 -0.6450  2.9131  2.2934
  719MOL0     H94862   3.871   5.811   7.003 -1.7073 -1.8470 -2.9041
  719MOL0     H94863   3.732   5.759   7.084  0.3591 -0.2967  0.7614
  719MOL0     H94864   3.779   5.854   7.273 -1.9104  0.1853 -0.4001
  719MOL0     H94865   3.762   6.012   7.221  2.6261  1.6913  1.1314
  719MOL0     H94866   3.977   5.991   7.309 -2.2657 -2.3475  0.7898
  719MOL0     H94867   4.029   5.879   7.191 -0.1938  1.0539 -1.5839
  719MOL0     H94868   3.960   6.071   7.013  0.2199  1.6906  0.4596
  719MOL0     H94869   4.094   6.085   7.123 -0.0800  0.5847 -0.8401
  719MOL0     H94870   4.019   6.240   6.902 -1.1923 -1.8969 -1.4908
  719MOL0     H94871   3.965   6.412   6.779  0.9153 -1.8883  0.4862
  719MOL0     H94872   3.539   6.828   6.792  1.4815 -2.0823  1.3123
  719MOL0     H94873   3.542   6.959   6.582  0.2407  0.4277  0.4425
  719MOL0     H94874   3.614   7.055   6.380 -0.1345  0.0224 -2.7979
  719MOL0     H94875   3.680   7.210   6.329  3.6351  0.9977  2.1386
  719MOL0     H94876   3.520   7.329   6.493 -3.4005 -0.0640  2.1494
  719MOL0     H94877   3.470   7.164   6.538  0.3039 -1.1136 -2.8484
  719MOL0     H94878   3.410   7.136   6.294 -1.2430 -1.5019  2.3581
  719MOL0     H94879   3.455   7.312   6.276 -1.9408  1.4321  1.0899
  719MOL0     H94880   3.236   7.202   6.469  2.5724  1.9824  2.2126
  719MOL0     H94881   3.269   7.375   6.427  1.2847  1.1631 -2.5521
  719MOL0     H94882   3.056   7.329   6.325  0.9229  0.9428  1.0427
  719MOL0     H94883   3.111   7.178   6.263 -0.7254 -0.8413  3.7161
  719MOL0     H94884   3.237   7.302   6.087 -1.0125  3.2657 -4.4110
  719MOL0     H94885   3.230   7.451   6.187 -1.0509  0.7883  2.5101
  719MOL0     H94886   2.978   7.308   6.084 -1.6097  1.4548 -2.0023
  719MOL0     H94887   2.980   7.451   6.167 -2.9671 -2.1459  0.0119
  719MOL0     H94888   3.115   7.382   5.909 -0.1009 -0.9095  0.8599
  719MOL0     H94889   3.118   7.549   5.957  0.4042 -0.5308 -0.1111
  719MOL0     H94890   3.940   7.084   6.641  0.1296 -1.0656 -2.6427
  719MOL0     H94891   3.960   6.895   6.817  0.1714  0.2078 -1.0633
  719MOL0     H94892   3.729   6.601   7.083 -0.3184  0.4395 -2.2529
  719MOL0     H94893   3.795   6.410   7.250  0.5602 -2.6890  0.5932
  719MOL0     H94894   3.006   6.871   6.261 -1.0638 -1.5584 -0.6301
  719MOL0     H94895   2.835   6.875   6.085  0.2631  0.5977  1.3224
  719MOL0     H94896   2.905   7.259   5.562  0.2345  0.2102  0.5285
  719MOL0     H94897   2.734   7.299   5.384  3.5341  1.1943  0.9359
  719MOL0     H94898   2.627   7.266   5.177  1.5191 -3.3608 -2.3574
  719MOL0     H94899   2.492   7.279   5.297  2.2229 -0.0052  2.2376
  719MOL0     H94900   2.342   7.142   5.138 -0.4236 -3.3410 -3.9669
  719MOL0     H94901   2.404   7.284   5.061  2.3224  1.2044  0.2260
  719MOL0     H94902   2.506   6.997   5.034 -0.4123  1.5715  2.6898
  719MOL0     H94903   2.597   7.123   4.966 -0.2821 -1.3644 -1.5485
  719MOL0     H94904   2.292   7.076   4.908 -0.7555  1.5407 -0.9473
  719MOL0     H94905   2.399   7.162   4.803 -2.7089  1.4440  0.5365
  719MOL0     H94906   2.479   6.732   4.725 -0.6908  0.9039 -1.4367
  719MOL0     H94907   2.625   6.875   5.432 -1.5506  0.9003 -1.3740
  719MOL0     H94908   2.765   6.873   5.627  1.5782 -0.3170 -1.1582
  720MOL0     O94909   9.927   0.450  10.224 -0.5502  0.2347 -0.2563
  720MOL0     C94910  10.042   0.408  10.244 -0.3149  0.7578  0.0213
  720MOL0     O94911  10.144   0.403  10.154 -0.2306 -0.4778 -0.4649
  720MOL0     C94912  10.137   0.444  10.018  0.0623  0.4927 -1.1199
  720MOL0     C94913  10.237   0.401   9.933  0.0362  1.0253  0.2142
  720MOL0     C94914  10.246   0.429   9.802  0.4875 -0.1442  0.1664
  720MOL0     C94915  10.152   0.521   9.746 -0.3128  0.2522  0.1667
  720MOL0     O94916  10.168   0.549   9.617 -0.1565 -0.7551 -0.1633
  720MOL0     C94917  10.110   0.660   9.549 -0.1971  0.4594  0.0466
  720MOL0     C94918  10.187   0.681   9.420 -0.4670  0.2828 -0.1906
  720MOL0     C94919  10.327   0.716   9.429 -0.6561 -0.1442  0.3434
  720MOL0     C94920  10.420   0.596   9.453  0.9475 -0.2910  0.3259
  720MOL0     C94921  10.554   0.656   9.491  1.1326 -0.2787  0.2885
  720MOL0     C94922  10.669   0.559   9.534 -0.4062  0.1730  0.5434
  720MOL0     C94923  10.696   0.460   9.421 -0.0166 -0.1820 -0.4466
  720MOL0     C94924  10.839   0.395   9.413  1.1975  0.4459 -0.0057
  720MOL0     N94925  10.927   0.472   9.339 -0.1698  0.3223 -0.0098
  720MOL0     C94926  10.949   0.445   9.206 -0.2077  0.5292  0.5521
  720MOL0     C94927  11.061   0.527   9.179  0.6351 -0.2843 -0.1488
  720MOL0     C94928  11.131   0.532   9.051 -0.2163  0.0879 -0.4273
  720MOL0     C94929  11.269   0.457   9.063 -0.3573  0.5678  0.6076
  720MOL0     C94930  11.338   0.422   8.926  0.3648 -0.1097 -0.3410
  720MOL0     C94931  11.466   0.506   8.900  0.4636 -0.2915  0.8624
  720MOL0     O94932  11.492   0.502   8.761 -0.4860 -0.4968 -0.0782
  720MOL0     C94933  11.620   0.528   8.725 -0.0057  0.1297  0.1811
  720MOL0     C94934  11.684   0.427   8.662  0.2401 -0.8337 -0.3027
  720MOL0     C94935  11.815   0.437   8.622 -1.0776 -0.4231 -0.5314
  720MOL0     C94936  11.891   0.550   8.652  0.4678 -0.2592  0.2123
  720MOL0     C94937  12.040   0.546   8.640 -0.2006  0.6448  0.2102
  720MOL0     O94938  12.105   0.664   8.675  0.1763  0.9414 -0.5335
  720MOL0     C94939  12.238   0.679   8.650  0.9544  0.2509  0.0926
  720MOL0     C94940  12.284   0.698   8.520 -0.0005 -0.0210 -0.0227
  720MOL0     C94941  12.429   0.713   8.492 -0.2342 -0.7927 -0.1119
  720MOL0     C94942  12.520   0.688   8.605  0.3314  0.5622 -0.0468
  720MOL0     O94943  12.649   0.697   8.576 -0.4433 -1.0869 -0.6161
  720MOL0     C94944  12.739   0.728   8.693  0.4610  0.3384  0.0942
  720MOL0     C94945  12.871   0.761   8.627  0.6716  0.5995 -0.2268
  720MOL0     C94946  12.937   0.626   8.566 -0.0337  0.6146  0.4475
  720MOL0     C94947  12.983   0.542   8.684 -0.0859 -0.1304  0.8259
  720MOL0     C94948  13.091   0.441   8.644 -0.1031  0.0418 -0.2890
  720MOL0     C94949  13.164   0.388   8.770 -1.3183 -1.1189  0.2417
  720MOL0     C94950  13.285   0.309   8.728 -0.3416 -0.0027  0.8710
  720MOL0     C94951  13.366   0.238   8.843  0.0101 -1.1949  0.4811
  720MOL0    Cl94952  13.297   0.096   8.923 -0.1660  0.1948  0.7090
  720MOL0     C94953  12.461   0.651   8.728 -0.0276 -0.0681  0.8818
  720MOL0     C94954  12.320   0.634   8.752 -0.0992 -0.6040 -0.7749
  720MOL0     O94955  12.097   0.448   8.587 -0.2349 -0.2047 -0.8349
  720MOL0     C94956  11.831   0.657   8.730  0.5208  0.7548  0.6899
  720MOL0     C94957  11.697   0.641   8.760  0.1627 -0.4825  0.4739
  720MOL0     N94958  11.075   0.615   9.287 -0.1846  0.0632  0.8226
  720MOL0     N94959  10.987   0.589   9.375  0.5521 -0.4551 -0.2301
  720MOL0     C94960  10.055   0.582   9.833 -0.2503  0.0013 -0.2932
  720MOL0     C94961  10.037   0.528   9.961 -0.2317  0.2085  0.5943
  720MOL0     C94962  10.068   0.362  10.384  0.0035  0.0560  0.2764
  720MOL0     C94963  10.173   0.268  10.404  0.0576 -0.3477  0.0247
  720MOL0     C94964  10.195   0.218  10.532 -0.2032  0.7478  1.2649
  720MOL0     C94965  10.121   0.249  10.645 -0.7458 -0.3956 -0.1787
  720MOL0     O94966  10.134   0.200  10.773 -0.3535  0.3600 -0.3080
  720MOL0     C94967  10.266   0.179  10.819 -0.2729 -0.6188  0.0389
  720MOL0     C94968  10.258   0.166  10.971  0.0266  0.2902  0.4304
  720MOL0     C94969  10.167   0.048  11.010  0.4040  1.3717  0.1895
  720MOL0     C94970  10.183   0.016  11.158  0.2746 -0.0430  0.0033
  720MOL0     C94971  10.312  -0.011  11.215 -0.3897  1.0962 -0.7785
  720MOL0     C94972  10.426  -0.012  11.263  0.1717 -0.9785  0.4024
  720MOL0     C94973  10.013   0.337  10.626 -0.5844 -0.7289  0.7044
  720MOL0     C94974   9.982   0.394  10.493 -0.6263  0.3986 -0.9943
  720MOL0     H94975  10.317   0.340   9.974  0.5333  0.6922 -1.1853
  720MOL0     H94976  10.328   0.386   9.746  1.3556  1.8992 -0.2184
  720MOL0     H94977  10.121   0.759   9.595 -1.2988  2.2055 -3.1186
  720MOL0     H94978  10.006   0.637   9.526  0.0402  0.4833 -1.1476
  720MOL0     H94979  10.149   0.768   9.367  2.6459  2.5824  1.0341
  720MOL0     H94980  10.170   0.591   9.360  2.2974 -0.9091  0.6420
  720MOL0     H94981  10.345   0.799   9.499  1.1220 -1.4812  1.5475
  720MOL0     H94982  10.349   0.764   9.333 -1.8569 -3.2885 -1.6322
  720MOL0     H94983  10.386   0.536   9.539 -2.3993 -0.2175 -0.7928
  720MOL0     H94984  10.425   0.545   9.357  2.3038  0.4495 -0.0077
  720MOL0     H94985  10.540   0.732   9.568  1.5584  2.0520 -1.7956
  720MOL0     H94986  10.596   0.711   9.407 -2.3316 -0.2857 -1.6445
  720MOL0     H94987  10.632   0.508   9.624 -2.8128  1.2366  0.2249
  720MOL0     H94988  10.756   0.625   9.541 -0.0877 -0.3251  1.5055
  720MOL0     H94989  10.626   0.377   9.434  1.8923 -1.5095  2.6041
  720MOL0     H94990  10.670   0.510   9.328  0.6526 -0.2566 -0.6816
  720MOL0     H94991  10.830   0.293   9.374  0.5065  1.1789 -1.8593
  720MOL0     H94992  10.876   0.393   9.516  0.6643  0.7139  0.1942
  720MOL0     H94993  10.929   0.357   9.146 -0.5053  0.1069  1.2584
  720MOL0     H94994  11.147   0.636   9.020 -4.4708  1.6174  1.6640
  720MOL0     H94995  11.067   0.487   8.974  0.7383  1.3493 -2.0256
  720MOL0     H94996  11.239   0.364   9.113 -0.5549  0.3247  0.0495
  720MOL0     H94997  11.341   0.511   9.125  1.2487 -3.6555  2.8724
  720MOL0     H94998  11.363   0.316   8.925  4.7178  0.7513 -1.6306
  720MOL0     H94999  11.268   0.435   8.843  1.1172 -0.2004 -0.9990
  720MOL0     H95000  11.556   0.466   8.949  0.1795  0.2186  1.8182
  720MOL0     H95001  11.438   0.607   8.929 -1.2220 -1.2602  2.8944
  720MOL0     H95002  11.624   0.339   8.641 -0.3338 -0.8150  1.1518
  720MOL0     H95003  11.875   0.365   8.567 -1.5135 -0.4966 -0.9187
  720MOL0     H95004  12.230   0.722   8.428 -1.4272  1.9140  1.2460
  720MOL0     H95005  12.472   0.742   8.397 -1.3820 -1.5697 -0.8928
  720MOL0     H95006  12.753   0.643   8.760 -3.7506 -1.0927 -0.5952
  720MOL0     H95007  12.704   0.820   8.741 -2.9698 -0.0186 -1.4391
  720MOL0     H95008  12.943   0.816   8.689 -0.6257  2.2628 -0.1511
  720MOL0     H95009  12.854   0.836   8.550  2.4312  2.0918  0.7669
  720MOL0     H95010  13.025   0.647   8.504  0.8572  0.5057  1.6459
  720MOL0     H95011  12.871   0.574   8.495  1.8573  1.5179 -2.1186
  720MOL0     H95012  13.019   0.605   8.765  1.5264 -0.2569  0.2353
  720MOL0     H95013  12.899   0.488   8.728 -0.5126  1.0856  1.5521
  720MOL0     H95014  13.163   0.482   8.573  1.0337 -0.5348  0.5018
  720MOL0     H95015  13.041   0.353   8.604 -0.4782 -1.1561  2.5432
  720MOL0     H95016  13.102   0.329   8.837 -2.4117 -1.9390 -1.4310
  720MOL0     H95017  13.198   0.471   8.833 -0.4891 -1.8040  0.7293
  720MOL0     H95018  13.261   0.228   8.659 -0.7893 -2.0164  3.2361
  720MOL0     H95019  13.360   0.373   8.681  0.1505 -1.0133  0.2588
  720MOL0     H95020  13.403   0.310   8.917  3.9913  0.5291 -2.8010
  720MOL0     H95021  13.459   0.208   8.793  0.8413  3.2916 -1.1763
  720MOL0     H95022  12.533   0.636   8.807 -1.9181 -3.3754  2.1673
  720MOL0     H95023  12.280   0.612   8.850  0.4647  0.6548 -0.2524
  720MOL0     H95024  11.889   0.739   8.771 -0.1235  0.7778  1.5796
  720MOL0     H95025  11.651   0.728   8.807 -0.1461 -1.3656  1.8563
  720MOL0     H95026   9.994   0.651   9.776  0.3957 -2.2178 -4.0293
  720MOL0     H95027   9.955   0.559  10.026 -1.6202  1.8049 -1.7495
  720MOL0     H95028  10.228   0.224  10.321  2.4811 -2.4305  2.5386
  720MOL0     H95029  10.271   0.143  10.552 -1.3928 -0.7602  0.3327
  720MOL0     H95030  10.325   0.267  10.795  0.4627 -0.0495  3.3914
  720MOL0     H95031  10.323   0.098  10.772  4.1461 -0.1929  3.9173
  720MOL0     H95032  10.363   0.160  11.002  1.1272  1.2572 -2.7024
  720MOL0     H95033  10.224   0.266  11.000 -0.2098  0.0887  0.8509
  720MOL0     H95034  10.206  -0.036  10.952 -0.7341  0.8689  0.1223
  720MOL0     H95035  10.062   0.065  10.986 -0.0491  0.0578  1.1494
  720MOL0     H95036  10.130   0.087  11.224 -0.6764  0.8281 -1.6345
  720MOL0     H95037  10.130  -0.079  11.169 -0.6490  0.5303  0.6918
  720MOL0     H95038  10.522  -0.030  11.307  0.1568 -3.2852 -0.3310
  720MOL0     H95039   9.946   0.370  10.704  0.5365  0.5268  1.1694
  720MOL0     H95040   9.892   0.455  10.493 -2.7514 -2.5215 -0.6695
  721MOL0     O95041   2.583  11.389   6.445 -0.3725 -0.0729  0.1609
  721MOL0     C95042   2.573  11.267   6.476 -0.3594 -0.0277 -0.0496
  721MOL0     O95043   2.537  11.226   6.598 -0.7877  0.4575 -0.6924
  721MOL0     C95044   2.476  11.315   6.684 -0.5691 -0.2481  0.0911
  721MOL0     C95045   2.535  11.439   6.713  0.3398 -0.0243  0.0880
  721MOL0     C95046   2.476  11.515   6.815  0.3341 -0.5822  0.9591
  721MOL0     C95047   2.364  11.479   6.891 -0.1436  0.2868  0.9588
  721MOL0     O95048   2.317  11.583   6.964 -0.4644  0.0551 -0.3834
  721MOL0     C95049   2.214  11.548   7.057 -0.7120 -0.5245 -0.1394
  721MOL0     C95050   2.206  11.646   7.176  0.3442 -0.0315  0.8381
  721MOL0     C95051   2.147  11.783   7.135  0.0945  0.5721  0.2594
  721MOL0     C95052   2.126  11.861   7.270  0.0014  0.1815  0.2055
  721MOL0     C95053   2.073  11.998   7.223 -0.8562 -1.0788 -0.4990
  721MOL0     C95054   2.058  12.111   7.331  0.6924 -0.4975  0.1896
  721MOL0     C95055   2.056  12.251   7.271 -0.0240  1.6129  0.4836
  721MOL0     C95056   2.192  12.311   7.235 -1.2509 -0.7158 -0.1584
  721MOL0     N95057   2.280  12.324   7.353  0.1664 -0.3015  0.7077
  721MOL0     C95058   2.221  12.381   7.473 -0.1269  0.4370 -0.5584
  721MOL0     C95059   2.324  12.429   7.552  0.1060  0.2008 -0.4606
  721MOL0     C95060   2.322  12.520   7.678  0.2762  0.5815  0.6276
  721MOL0     C95061   2.176  12.544   7.738  0.7932 -0.2687 -0.4817
  721MOL0     C95062   2.080  12.630   7.652  0.2069  0.4066  0.1029
  721MOL0     C95063   2.123  12.772   7.610  0.6301  0.0637  0.8327
  721MOL0     O95064   2.216  12.834   7.696 -0.2586 -0.7752  0.5860
  721MOL0     C95065   2.306  12.939   7.661  0.0221  0.8540 -0.3657
  721MOL0     C95066   2.402  12.973   7.758  0.0778  0.6259 -0.8701
  721MOL0     C95067   2.496  13.075   7.743 -0.9956 -0.4031 -0.0226
  721MOL0     C95068   2.493  13.150   7.624  0.3069 -0.6460 -0.7178
  721MOL0     C95069   2.602  13.243   7.601 -0.0655  0.0378  0.3847
  721MOL0     O95070   2.672  13.280   7.709  0.3245  0.0041 -0.4731
  721MOL0     C95071   2.759  13.391   7.706  0.4558  1.5675 -0.1720
  721MOL0     C95072   2.875  13.379   7.787 -1.0810  0.4855  0.5285
  721MOL0     C95073   2.977  13.477   7.773  0.2099 -0.4490  0.1702
  721MOL0     C95074   2.960  13.589   7.693  0.1887  0.7077  0.5934
  721MOL0     O95075   3.066  13.672   7.669  0.4232 -0.0806 -0.7832
  721MOL0     C95076   3.111  13.750   7.791  0.0093  0.9459  0.4146
  721MOL0     C95077   3.255  13.780   7.776 -0.0059 -0.0943 -0.8173
  721MOL0     C95078   3.295  13.863   7.657  0.1145  0.1455 -0.0378
  721MOL0     C95079   3.436  13.914   7.686 -0.0820 -0.0775 -0.0209
  721MOL0     C95080   3.495  13.990   7.566  0.2364  0.0107 -0.5037
  721MOL0     C95081   3.436  14.136   7.555 -0.9825 -0.4167 -0.3503
  721MOL0     C95082   3.505  14.213   7.440  0.0142  0.1827  0.0203
  721MOL0     C95083   3.439  14.348   7.413 -0.5471 -0.5623  0.4614
  721MOL0    Cl95084   3.495  14.467   7.540 -0.4259  0.0658 -0.3774
  721MOL0     C95085   2.839  13.595   7.628 -0.1526 -0.6582  0.8509
  721MOL0     C95086   2.739  13.505   7.626 -0.9265 -0.1090 -0.6156
  721MOL0     O95087   2.608  13.289   7.485  0.1121 -0.3884 -0.2431
  721MOL0     C95088   2.392  13.122   7.535 -0.6629  0.9349  0.0458
  721MOL0     C95089   2.298  13.016   7.543  0.2494 -0.5002 -0.1575
  721MOL0     N95090   2.438  12.400   7.481  0.1035  0.1378 -0.0966
  721MOL0     N95091   2.416  12.345   7.361  0.7387  0.3043 -0.3907
  721MOL0     C95092   2.313  11.352   6.866  0.0543  0.0759  0.3891
  721MOL0     C95093   2.363  11.270   6.762 -0.3947  0.1629  0.6168
  721MOL0     C95094   2.609  11.171   6.366 -0.0381  0.2003 -0.2084
  721MOL0     C95095   2.662  11.208   6.238  0.7467  0.1480  0.0186
  721MOL0     C95096   2.689  11.116   6.139  0.5809 -0.2439  0.4635
  721MOL0     C95097   2.657  10.980   6.162  0.1311  0.7753  0.7214
  721MOL0     O95098   2.686  10.888   6.064  0.4919 -0.1786  0.2459
  721MOL0     C95099   2.663  10.750   6.072 -0.4512  0.4513  0.0115
  721MOL0     C95100   2.788  10.693   6.137 -0.2541 -0.1722  0.5288
  721MOL0     C95101   2.775  10.549   6.159 -0.1950  0.4630  0.0511
  721MOL0     C95102   2.749  10.520   6.300  0.7583  0.0721 -1.2037
  721MOL0     C95103   2.614  10.548   6.347  0.2779 -0.2095  0.2458
  721MOL0     C95104   2.499  10.565   6.381  0.1753 -0.7570  0.9619
  721MOL0     C95105   2.598  10.944   6.280 -0.8242  0.0741 -0.4387
  721MOL0     C95106   2.582  11.035   6.385 -0.1489  0.1616  0.9638
  721MOL0     H95107   2.622  11.479   6.662  0.8866  1.1575  1.8542
  721MOL0     H95108   2.513  11.615   6.831  0.5163 -0.2258 -1.3722
  721MOL0     H95109   2.223  11.444   7.091 -0.1548  0.1633  1.9215
  721MOL0     H95110   2.121  11.547   6.999  0.0971 -2.5938 -1.4941
  721MOL0     H95111   2.310  11.665   7.203  0.0507  0.4604  1.6871
  721MOL0     H95112   2.155  11.600   7.262  0.4318  1.1031  1.5228
  721MOL0     H95113   2.051  11.772   7.085  0.7787  1.2614 -1.2523
  721MOL0     H95114   2.211  11.841   7.068 -0.2992  1.2792  0.4791
  721MOL0     H95115   2.041  11.823   7.327 -1.5881  1.1955 -1.3674
  721MOL0     H95116   2.217  11.873   7.330 -0.1830 -2.0140  1.0251
  721MOL0     H95117   1.971  11.988   7.184  0.0487  1.2579 -3.8794
  721MOL0     H95118   2.139  12.030   7.142 -0.1783  1.3983  0.9295
  721MOL0     H95119   2.141  12.107   7.402  0.9988  1.1336 -0.0385
  721MOL0     H95120   1.963  12.093   7.382  0.8843  2.1643  1.6030
  721MOL0     H95121   2.000  12.257   7.178  0.3417  3.1401  0.3379
  721MOL0     H95122   2.003  12.319   7.339  0.6405  2.7266 -0.0807
  721MOL0     H95123   2.172  12.412   7.198 -2.2818 -0.3754  1.2702
  721MOL0     H95124   2.244  12.253   7.159  0.9092 -1.1033  1.4995
  721MOL0     H95125   2.115  12.373   7.493 -0.7162  0.5859 -3.2424
  721MOL0     H95126   2.364  12.618   7.657  0.4376  0.2589 -0.5714
  721MOL0     H95127   2.380  12.477   7.760 -0.8137 -1.8720  0.2049
  721MOL0     H95128   2.196  12.598   7.831 -0.1512 -1.0657  0.2026
  721MOL0     H95129   2.130  12.447   7.758  0.2677 -0.4591 -2.4125
  721MOL0     H95130   2.067  12.583   7.555  0.2659 -0.5749  0.5594
  721MOL0     H95131   1.979  12.637   7.695 -0.3920  0.9226 -1.3449
  721MOL0     H95132   2.031  12.823   7.579 -0.3199 -2.8855 -1.8269
  721MOL0     H95133   2.169  12.779   7.511 -1.8176  1.1533 -0.3216
  721MOL0     H95134   2.394  12.925   7.856 -1.6619 -1.9368 -2.1424
  721MOL0     H95135   2.563  13.077   7.829  3.3231 -1.1303 -3.0204
  721MOL0     H95136   2.882  13.290   7.848  1.6895 -0.9292 -1.5823
  721MOL0     H95137   3.062  13.460   7.838  0.0230  0.0350  0.5537
  721MOL0     H95138   3.105  13.689   7.882 -2.3526 -0.2634 -0.4602
  721MOL0     H95139   3.043  13.834   7.811 -0.5750  0.2318  1.5944
  721MOL0     H95140   3.309  13.685   7.775 -1.9212 -1.2794  1.1713
  721MOL0     H95141   3.277  13.814   7.877 -2.6246 -0.4966 -0.0258
  721MOL0     H95142   3.231  13.952   7.658 -0.1032  0.2415 -4.3091
  721MOL0     H95143   3.279  13.815   7.560  2.5883  2.5055 -1.7598
  721MOL0     H95144   3.429  13.967   7.782 -2.1432  0.9580 -0.7024
  721MOL0     H95145   3.491  13.820   7.700 -1.2893 -0.5951  1.4170
  721MOL0     H95146   3.489  13.939   7.469  3.0208 -0.5529 -0.4616
  721MOL0     H95147   3.604  13.996   7.573  0.1954  5.5907 -0.5393
  721MOL0     H95148   3.473  14.191   7.641 -1.9801 -0.8527  0.3751
  721MOL0     H95149   3.327  14.141   7.556 -0.9291  0.9088 -0.4686
  721MOL0     H95150   3.614  14.221   7.445  0.7456 -1.2408 -5.9285
  721MOL0     H95151   3.478  14.149   7.355 -2.4163 -2.4122  2.5239
  721MOL0     H95152   3.332  14.323   7.408 -0.0608 -2.6259 -3.2526
  721MOL0     H95153   3.475  14.388   7.318 -0.1869 -0.4644  0.6418
  721MOL0     H95154   2.822  13.691   7.579  1.8737  0.4636  2.1851
  721MOL0     H95155   2.643  13.514   7.576 -0.4939  0.1333 -1.4308
  721MOL0     H95156   2.400  13.196   7.456 -1.2910  3.1841  1.9379
  721MOL0     H95157   2.224  12.991   7.467 -1.8302  0.9559  1.2560
  721MOL0     H95158   2.240  11.313   6.936 -0.2589  1.2105  0.7228
  721MOL0     H95159   2.302  11.183   6.739 -2.2761  2.1637 -2.8980
  721MOL0     H95160   2.678  11.315   6.239 -2.0758  0.6639  1.7530
  721MOL0     H95161   2.726  11.143   6.040  1.6586 -2.5597  0.1680
  721MOL0     H95162   2.665  10.722   5.966  1.9339  1.8512 -0.3824
  721MOL0     H95163   2.561  10.732   6.109 -1.4714  4.5012 -0.2948
  721MOL0     H95164   2.883  10.716   6.088  0.2200 -1.3452  0.8735
  721MOL0     H95165   2.796  10.740   6.236 -0.1374  0.5096  0.2044
  721MOL0     H95166   2.869  10.498   6.138  0.4844  0.7870  2.0795
  721MOL0     H95167   2.694  10.507   6.098  0.1015  0.0670 -0.0692
  721MOL0     H95168   2.762  10.411   6.296 -1.5518 -0.2745 -0.6639
  721MOL0     H95169   2.818  10.573   6.367  0.0391  1.9145 -1.8720
  721MOL0     H95170   2.395  10.571   6.406 -0.1150 -3.4984  0.7161
  721MOL0     H95171   2.566  10.841   6.294  2.1806 -1.0207 -0.8119
  721MOL0     H95172   2.542  11.006   6.482 -2.1609  0.3764  0.2400
  722MOL0     O95173   1.022  10.132   6.133 -0.4254  0.1774 -0.7284
  722MOL0     C95174   1.058  10.022   6.078 -0.5601 -0.7168  0.7430
  722MOL0     O95175   0.979   9.944   6.000 -0.7263 -0.2504  0.1791
  722MOL0     C95176   0.853   9.990   5.981 -0.2968  0.3392  0.2653
  722MOL0     C95177   0.819  10.010   5.852 -0.0238 -0.0198  0.5153
  722MOL0     C95178   0.683  10.006   5.811  1.0619  0.7162  1.1103
  722MOL0     C95179   0.590  10.007   5.911  1.1031  0.7865  0.9527
  722MOL0     O95180   0.458   9.997   5.874  0.4728 -0.2415 -0.1656
  722MOL0     C95181   0.423   9.863   5.840  0.2661  1.0805  0.8616
  722MOL0     C95182   0.294   9.871   5.769 -0.2313 -1.0035 -0.3476
  722MOL0     C95183   0.257   9.748   5.683 -0.0521 -0.1672  0.6063
  722MOL0     C95184   0.112   9.746   5.617  0.6152  0.7344  0.0964
  722MOL0     C95185   0.091   9.606   5.546 -0.5708  0.0230 -0.5469
  722MOL0     C95186   0.037   9.608   5.411  0.3780 -1.0458 -0.2542
  722MOL0     C95187   0.116   9.689   5.314 -0.6383 -0.8664  1.4748
  722MOL0     C95188   0.113   9.619   5.171  1.1499 -0.0945  0.2516
  722MOL0     N95189   0.192   9.501   5.158 -0.2697 -0.8631  0.6680
  722MOL0     C95190   0.326   9.507   5.143 -0.7252 -0.0688 -0.2903
  722MOL0     C95191   0.368   9.387   5.183 -0.2863  0.5766  0.0595
  722MOL0     C95192   0.513   9.358   5.197 -0.2620  0.3039  0.3410
  722MOL0     C95193   0.535   9.321   5.341  0.6870  0.2795 -0.0615
  722MOL0     C95194   0.678   9.274   5.376  0.5284  0.2313  0.1038
  722MOL0     C95195   0.793   9.338   5.303  0.5627 -0.9433  0.4616
  722MOL0     O95196   0.794   9.475   5.343  0.2252 -0.0243  0.2840
  722MOL0     C95197   0.909   9.548   5.317 -0.2403  0.2723  0.3691
  722MOL0     C95198   1.015   9.504   5.238  1.3709 -0.0585 -0.8980
  722MOL0     C95199   1.118   9.589   5.199  0.4330 -0.6922  0.8959
  722MOL0     C95200   1.133   9.712   5.265  0.2885 -0.3814 -0.0506
  722MOL0     C95201   1.232   9.809   5.233 -0.1578 -0.7123 -0.9257
  722MOL0     O95202   1.238   9.829   5.095 -0.6569 -0.6931  0.6315
  722MOL0     C95203   1.302   9.945   5.044 -0.6193 -1.4654  0.7578
  722MOL0     C95204   1.416  10.082   5.157 -0.4343 -0.1514  0.2047
  722MOL0     C95205   1.488  10.260   5.071  0.2634 -0.0448 -0.2315
  722MOL0     C95206   1.443  10.306   4.868  0.1222  0.1020 -0.3030
  722MOL0     O95207   1.475  10.420   4.806  0.2272 -0.8077  0.1673
  722MOL0     C95208   1.587  10.484   4.865  0.0785 -0.1281  0.0694
  722MOL0     C95209   1.565  10.634   4.848  0.7406 -0.4318 -0.3606
  722MOL0     C95210   1.685  10.705   4.901 -0.1519 -0.2728 -1.0374
  722MOL0     C95211   1.683  10.858   4.894 -0.1879  0.6527  1.1207
  722MOL0     C95212   1.611  10.919   5.010 -0.4991 -0.4894 -0.5446
  722MOL0     C95213   1.701  10.929   5.133  0.1731 -1.1130 -0.1732
  722MOL0     C95214   1.627  10.983   5.259 -0.5257  0.2877 -0.5363
  722MOL0     C95215   1.588  11.128   5.237 -1.0751  0.9275  1.1451
  722MOL0    Cl95216   1.481  11.180   5.373 -0.2973  0.3441  0.1690
  722MOL0     C95217   1.329  10.173   4.752 -0.1687  0.0606 -1.1916
  722MOL0     C95218   1.261   9.989   4.837  0.7661  0.3563 -0.0244
  722MOL0     O95219   1.294   9.869   5.325 -0.2801 -0.2579 -0.3898
  722MOL0     C95220   1.036   9.742   5.366 -0.4036  0.5955 -1.4089
  722MOL0     C95221   0.911   9.675   5.371 -0.0604 -0.3192  1.0200
  722MOL0     N95222   0.249   9.313   5.199 -0.7871 -0.1465  0.0735
  722MOL0     N95223   0.148   9.386   5.187 -0.1967  0.1685  0.6137
  722MOL0     C95224   0.621  10.003   6.049 -0.2010  0.3226 -0.1193
  722MOL0     C95225   0.755   9.979   6.086  0.1103  0.4109  0.9534
  722MOL0     C95226   1.204   9.994   6.088  0.1343 -0.0147 -0.8085
  722MOL0     C95227   1.280  10.054   6.188  0.0644  0.4725 -1.0129
  722MOL0     C95228   1.425  10.040   6.187  0.2462 -0.0627 -0.2658
  722MOL0     C95229   1.468   9.946   6.090 -0.1851  0.3039  0.1645
  722MOL0     O95230   1.601   9.905   6.107  0.1413  0.0183  0.2670
  722MOL0     C95231   1.716   9.985   6.054  0.5138  0.4564  0.9242
  722MOL0     C95232   1.772   9.937   5.911 -0.2489  0.1652 -0.3577
  722MOL0     C95233   1.907  10.005   5.904  0.9461 -0.1353 -0.2295
  722MOL0     C95234   1.969   9.980   5.769  0.5943  0.0153 -0.1062
  722MOL0     C95235   2.101  10.056   5.771 -0.5840  0.9740  0.3025
  722MOL0     C95236   2.208  10.109   5.751  0.4478  0.4007 -0.5771
  722MOL0     C95237   1.390   9.877   6.002  0.2902 -0.2597  0.7417
  722MOL0     C95238   1.258   9.908   5.997 -0.9740  0.6024  0.6643
  722MOL0     H95239   0.894  10.031   5.778 -1.5551  1.5100 -0.7005
  722MOL0     H95240   0.655   9.996   5.707  0.9491  2.1557  0.9769
  722MOL0     H95241   0.420   9.801   5.930 -1.8542  0.5125  0.4478
  722MOL0     H95242   0.485   9.828   5.756 -2.4564 -0.1938 -0.7494
  722MOL0     H95243   0.290   9.956   5.700 -1.1240  0.6733  1.6731
  722MOL0     H95244   0.215   9.877   5.844  0.1207 -1.9759  0.1224
  722MOL0     H95245   0.273   9.663   5.750 -0.1847 -1.0384 -0.4550
  722MOL0     H95246   0.333   9.737   5.606 -1.9749 -0.4744 -1.3277
  722MOL0     H95247   0.042   9.758   5.700  2.3564 -2.8585  2.3414
  722MOL0     H95248   0.096   9.823   5.541 -0.8101 -2.8895 -3.6058
  722MOL0     H95249   0.028   9.542   5.609 -0.3104 -1.0134 -1.3132
  722MOL0     H95250   0.192   9.566   5.542 -0.7040 -0.2515 -1.8934
  722MOL0     H95251  -0.066   9.645   5.405 -0.6566 -3.8658 -2.4175
  722MOL0     H95252   0.025   9.507   5.371  2.4152 -1.0072 -1.0667
  722MOL0     H95253   0.076   9.789   5.293  2.9332  0.1643 -1.5441
  722MOL0     H95254   0.214   9.711   5.357 -1.1075  1.4239  1.5065
  722MOL0     H95255   0.152   9.680   5.088 -0.0102  2.2698  1.3469
  722MOL0     H95256   0.012   9.584   5.149  1.7546 -3.1447  1.8067
  722MOL0     H95257   0.393   9.591   5.134 -1.2718  0.4630  0.4527
  722MOL0     H95258   0.581   9.440   5.171 -0.3645 -0.5209 -2.9318
  722MOL0     H95259   0.541   9.273   5.136 -0.8757  0.4421 -0.1442
  722MOL0     H95260   0.472   9.235   5.364 -1.8949  1.8922 -0.7361
  722MOL0     H95261   0.515   9.404   5.409  2.6715  0.3620  0.4997
  722MOL0     H95262   0.693   9.283   5.484 -0.2850  2.5019  0.0869
  722MOL0     H95263   0.692   9.168   5.355 -2.9631 -0.4175  0.3988
  722MOL0     H95264   0.786   9.330   5.194 -0.5899 -1.4363  0.5492
  722MOL0     H95265   0.877   9.278   5.338 -0.1477 -0.2794  3.6121
  722MOL0     H95266   1.009   9.413   5.179  0.8010  0.4267 -1.5967
  722MOL0     H95267   1.170   9.550   5.112 -4.3715 -0.0877 -2.6374
  722MOL0     H95268   1.424  10.057   5.263  1.2649 -5.1215 -0.8165
  722MOL0     H95269   1.541  10.328   5.138 -2.6950  1.0551  1.1616
  722MOL0     H95270   1.670  10.443   4.806  0.1646 -0.8507  0.6860
  722MOL0     H95271   1.613  10.465   4.969 -0.7337 -1.1614  0.1077
  722MOL0     H95272   1.473  10.663   4.900  0.1218 -1.2190 -0.9990
  722MOL0     H95273   1.550  10.659   4.743 -0.4905  0.1561 -0.0670
  722MOL0     H95274   1.773  10.676   4.842  0.3372  0.7986 -0.8595
  722MOL0     H95275   1.703  10.667   5.002  0.0768  1.7216 -0.2831
  722MOL0     H95276   1.785  10.894   4.885 -0.3174  1.8889  3.5515
  722MOL0     H95277   1.620  10.881   4.808  0.5963  1.6472  0.7995
  722MOL0     H95278   1.530  10.858   5.050 -1.5517  0.7849 -0.6418
  722MOL0     H95279   1.583  11.020   4.977  2.6235  0.8155  0.3420
  722MOL0     H95280   1.786  10.997   5.120  0.5046 -1.4267  0.3336
  722MOL0     H95281   1.750  10.832   5.148  3.9292  0.6337  0.1345
  722MOL0     H95282   1.533  10.930   5.278 -2.1220  3.6094  1.9909
  722MOL0     H95283   1.692  10.975   5.346  0.2256 -0.9063 -1.1787
  722MOL0     H95284   1.548  11.150   5.137  0.2881 -5.0336 -1.1081
  722MOL0     H95285   1.685  11.178   5.234  0.0285 -1.1425 -0.0752
  722MOL0     H95286   1.286  10.200   4.657  0.9083  0.0692 -1.6874
  722MOL0     H95287   1.207   9.921   4.772 -0.2352  1.4563 -0.3936
  722MOL0     H95288   1.045   9.824   5.436  2.2934 -0.1375 -0.7894
  722MOL0     H95289   0.825   9.706   5.430 -0.7344  0.7733 -0.4593
  722MOL0     H95290   0.544   9.995   6.126 -1.1620 -0.6600 -1.1396
  722MOL0     H95291   0.786   9.956   6.188  0.7358  0.0030  0.6757
  722MOL0     H95292   1.248  10.109   6.275 -2.8719 -5.0200  1.9619
  722MOL0     H95293   1.488  10.099   6.253 -0.9068 -0.8565  1.6108
  722MOL0     H95294   1.803   9.974   6.121  0.2439 -0.7089  1.0930
  722MOL0     H95295   1.679  10.088   6.051 -0.2673  0.1498 -0.5569
  722MOL0     H95296   1.782   9.828   5.901  2.6892  0.2615  0.5575
  722MOL0     H95297   1.716   9.983   5.830 -2.0417  1.3616  1.4631
  722MOL0     H95298   1.977   9.971   5.981 -0.8023 -1.1859  0.9722
  722MOL0     H95299   1.880  10.111   5.900 -0.8595 -0.5916 -0.8804
  722MOL0     H95300   1.977   9.874   5.744 -1.9606 -0.5108  1.0087
  722MOL0     H95301   1.909  10.025   5.689  3.5883 -1.0941 -3.2207
  722MOL0     H95302   2.308  10.147   5.737 -0.2740  2.6319 -0.1533
  722MOL0     H95303   1.437   9.804   5.936 -2.0938 -0.7476 -0.5339
  722MOL0     H95304   1.193   9.864   5.922  0.9239  0.2008 -0.8042
  723MOL0     O95305  11.007   8.967   8.578 -0.4615  0.0280  0.9293
  723MOL0     C95306  11.030   8.846   8.564  0.3782  0.2056 -0.3417
  723MOL0     O95307  11.132   8.786   8.615 -0.2435 -0.5384 -0.4910
  723MOL0     C95308  11.193   8.849   8.728  0.7911 -0.6234 -0.1463
  723MOL0     C95309  11.291   8.939   8.717 -0.7468 -0.4263 -0.5246
  723MOL0     C95310  11.361   8.978   8.833 -0.6229 -0.0005  0.2832
  723MOL0     C95311  11.343   8.915   8.956 -0.6778 -0.6063 -0.9462
  723MOL0     O95312  11.425   8.935   9.075  0.0296 -1.0447  1.0116
  723MOL0     C95313  11.530   9.040   9.063 -0.5188  0.4982  0.4382
  723MOL0     C95314  11.601   9.054   9.198  0.4953  0.0446  0.5256
  723MOL0     C95315  11.680   8.931   9.260  0.4227  0.5032 -0.6964
  723MOL0     C95316  11.689   8.963   9.409 -0.1863  1.4611 -0.1592
  723MOL0     C95317  11.828   8.943   9.457 -0.0508 -0.7799 -0.5839
  723MOL0     C95318  11.841   8.986   9.603 -0.3098  0.0644 -0.6534
  723MOL0     C95319  11.990   9.014   9.633  0.9372  0.1769  0.7160
  723MOL0     C95320  11.991   9.064   9.785  1.0016 -0.1394  0.7320
  723MOL0     N95321  11.961   8.957   9.880 -0.1138 -0.3530 -0.6317
  723MOL0     C95322  11.848   8.954   9.963  0.1813 -0.1497 -0.1171
  723MOL0     C95323  11.830   8.817   9.991 -0.2897  0.4713 -0.2450
  723MOL0     C95324  11.731   8.753  10.085  0.3877 -0.4176 -1.5780
  723MOL0     C95325  11.588   8.746  10.025  0.0010  0.8653 -0.7346
  723MOL0     C95326  11.507   8.852  10.081 -0.1283 -0.6518 -0.4770
  723MOL0     C95327  11.385   8.867   9.987  0.0732  0.5510  0.3026
  723MOL0     O95328  11.416   8.937   9.867  0.3268 -0.2237 -0.6129
  723MOL0     C95329  11.318   8.928   9.766  0.1814 -0.0600  0.1789
  723MOL0     C95330  11.188   8.869   9.776 -0.2911 -0.5547 -0.1999
  723MOL0     C95331  11.100   8.847   9.671 -0.5047 -0.7713 -0.4098
  723MOL0     C95332  11.156   8.875   9.547 -0.1559  1.2927  1.0814
  723MOL0     C95333  11.079   8.850   9.423  0.0067  0.6111  0.2849
  723MOL0     O95334  10.946   8.850   9.433  0.7015  0.2091  1.3197
  723MOL0     C95335  10.871   8.823   9.323 -0.4619  1.9239  0.1607
  723MOL0     C95336  10.867   8.685   9.276 -0.2891  0.3522 -0.2171
  723MOL0     C95337  10.787   8.654   9.161  0.3461  0.1389  0.3856
  723MOL0     C95338  10.711   8.753   9.098  0.4995 -0.8064 -0.3509
  723MOL0     O95339  10.623   8.728   9.002  0.4289 -0.6201 -0.0531
  723MOL0     C95340  10.672   8.690   8.878  0.0678 -0.3964  0.1542
  723MOL0     C95341  10.739   8.802   8.794 -0.3107  0.4274 -0.8098
  723MOL0     C95342  10.643   8.921   8.779  0.4916  0.5336 -0.0859
  723MOL0     C95343  10.694   9.021   8.661 -0.4053 -0.7369  0.2910
  723MOL0     C95344  10.613   9.144   8.640 -0.1758 -1.1393  0.3916
  723MOL0     C95345  10.463   9.111   8.621  0.2623  0.0614 -0.3493
  723MOL0     C95346  10.428   9.015   8.511  0.7143 -1.1394  0.0971
  723MOL0     C95347  10.479   9.069   8.368  0.4107  0.5430 -0.4402
  723MOL0    Cl95348  10.416   8.953   8.246  0.2079  0.5278 -0.1145
  723MOL0     C95349  10.718   8.885   9.149 -0.2519  0.0576  0.2329
  723MOL0     C95350  10.796   8.921   9.264  0.4040  0.9382  0.7457
  723MOL0     O95351  11.142   8.805   9.329  0.0484 -0.0094 -0.1670
  723MOL0     C95352  11.294   8.915   9.519 -0.5442 -0.6460 -1.0409
  723MOL0     C95353  11.366   8.950   9.631 -0.9913 -0.1133 -0.1674
  723MOL0     N95354  11.927   8.744   9.928  0.0063 -0.0553 -0.7482
  723MOL0     N95355  12.006   8.831   9.867 -0.2411  0.1878 -0.6128
  723MOL0     C95356  11.236   8.823   8.966 -0.3758 -0.1816 -0.0031
  723MOL0     C95357  11.160   8.789   8.855 -0.4553 -0.4450  0.3772
  723MOL0     C95358  10.943   8.774   8.470  0.0221  0.3779 -0.4419
  723MOL0     C95359  10.857   8.841   8.382 -0.0516 -1.1735  0.1555
  723MOL0     C95360  10.765   8.779   8.297 -0.5292  0.0108  0.1262
  723MOL0     C95361  10.766   8.643   8.291  0.7395  0.3800 -0.8001
  723MOL0     O95362  10.676   8.568   8.222 -1.2808  1.2450  0.3287
  723MOL0     C95363  10.575   8.640   8.152  0.3228 -0.5965 -0.6086
  723MOL0     C95364  10.477   8.530   8.110 -0.5504 -0.5599 -0.1796
  723MOL0     C95365  10.380   8.587   8.013  0.0723  0.3987 -0.0352
  723MOL0     C95366  10.281   8.484   7.949 -0.8877 -0.5047  0.5207
  723MOL0     C95367  10.207   8.418   8.055 -1.0482 -0.5204  0.1385
  723MOL0     C95368  10.144   8.352   8.135 -0.8458  0.1969 -0.8774
  723MOL0     C95369  10.859   8.564   8.369  0.5551  0.1671 -1.4460
  723MOL0     C95370  10.942   8.631   8.464 -0.6754 -0.3604  0.0729
  723MOL0     H95371  11.301   8.987   8.620 -0.6581  0.0180 -0.2946
  723MOL0     H95372  11.442   9.048   8.818 -0.0579 -1.0911 -2.2271
  723MOL0     H95373  11.472   9.130   9.043 -2.2364 -1.1649 -2.8558
  723MOL0     H95374  11.615   9.019   8.997  2.4447  1.0170  3.7913
  723MOL0     H95375  11.525   9.084   9.271  0.7731 -1.2926  1.4075
  723MOL0     H95376  11.673   9.136   9.185  0.5773  0.0262  0.8444
  723MOL0     H95377  11.778   8.931   9.211 -0.4246  2.1051 -2.5399
  723MOL0     H95378  11.638   8.831   9.250  0.4987  0.4334 -0.3321
  723MOL0     H95379  11.653   9.062   9.441  0.2790  1.1661  1.3434
  723MOL0     H95380  11.614   8.894   9.448  1.3336  0.8705  1.8545
  723MOL0     H95381  11.884   9.016   9.398 -1.0659  1.1233  0.7087
  723MOL0     H95382  11.858   8.841   9.434  0.4187 -0.8372  0.2573
  723MOL0     H95383  11.797   8.912   9.671 -3.6637  1.8822 -0.6337
  723MOL0     H95384  11.796   9.083   9.625  1.2147  1.1652 -2.1455
  723MOL0     H95385  12.045   8.921   9.619  0.4864  0.0319 -0.1679
  723MOL0     H95386  12.036   9.096   9.576  0.7444 -1.0704 -1.3524
  723MOL0     H95387  11.911   9.137   9.796  0.7157 -0.5369  1.2695
  723MOL0     H95388  12.086   9.110   9.815 -0.6437  2.3535  2.4689
  723MOL0     H95389  11.785   9.037   9.991  0.2367 -0.7925  2.1508
  723MOL0     H95390  11.736   8.808  10.179 -6.1437 -1.8673  0.1199
  723MOL0     H95391  11.770   8.653  10.105 -0.1668 -0.2701  0.4934
  723MOL0     H95392  11.550   8.646  10.045 -1.0974  0.9112 -2.3557
  723MOL0     H95393  11.608   8.751   9.917 -1.1979 -1.3913 -1.1338
  723MOL0     H95394  11.488   8.814  10.182 -0.9057  0.8524 -0.0178
  723MOL0     H95395  11.562   8.947  10.084 -1.6411  0.2365  0.3465
  723MOL0     H95396  11.315   8.929  10.045  1.0851 -0.8058  3.1755
  723MOL0     H95397  11.341   8.770   9.963  2.9450 -0.6136 -0.5731
  723MOL0     H95398  11.156   8.828   9.871 -2.9924  5.7620  2.1666
  723MOL0     H95399  11.000   8.806   9.680 -0.6906 -0.2157  0.1564
  723MOL0     H95400  10.920   8.599   9.316 -3.2465 -0.5636  2.0893
  723MOL0     H95401  10.766   8.557   9.117 -1.0308  0.3593  0.5074
  723MOL0     H95402  10.587   8.651   8.820  0.6142 -0.8069 -0.3883
  723MOL0     H95403  10.748   8.612   8.894  1.4399  0.9027  0.1507
  723MOL0     H95404  10.768   8.767   8.694  0.5338  0.1808 -0.4881
  723MOL0     H95405  10.821   8.834   8.859  0.0560 -2.8052  0.4890
  723MOL0     H95406  10.642   8.976   8.873 -0.5675 -1.2702  1.0186
  723MOL0     H95407  10.541   8.883   8.768 -0.6438  3.2798  0.0225
  723MOL0     H95408  10.793   9.060   8.686  0.1911  1.4970 -4.3800
  723MOL0     H95409  10.705   8.974   8.562  1.4384  1.3754 -0.6098
  723MOL0     H95410  10.646   9.210   8.560 -2.7557  0.1432  0.2778
  723MOL0     H95411  10.630   9.207   8.728 -0.1112  1.0040 -1.0699
  723MOL0     H95412  10.412   9.208   8.620  1.0242  0.5342  1.3937
  723MOL0     H95413  10.419   9.078   8.716 -1.1653  2.4749 -0.0598
  723MOL0     H95414  10.474   8.918   8.532  0.0433 -0.8765  3.1495
  723MOL0     H95415  10.322   8.990   8.505  0.7172 -1.7214  1.8987
  723MOL0     H95416  10.586   9.077   8.351  0.9439 -0.4548  1.9672
  723MOL0     H95417  10.424   9.160   8.342 -1.8351 -0.5010  0.3766
  723MOL0     H95418  10.655   8.960   9.100  1.8333  0.9762 -1.1691
  723MOL0     H95419  10.791   9.023   9.303 -1.3970  0.6809  1.3072
  723MOL0     H95420  11.341   8.926   9.422 -2.3366  1.0556 -1.7879
  723MOL0     H95421  11.467   8.987   9.616 -1.5631  1.7115  0.2665
  723MOL0     H95422  11.212   8.778   9.062 -3.0204  0.1497 -0.4415
  723MOL0     H95423  11.071   8.732   8.876 -0.7581  0.1884  0.8504
  723MOL0     H95424  10.853   8.950   8.382  2.1294 -0.9960  2.9439
  723MOL0     H95425  10.693   8.839   8.243 -0.1123 -0.3457 -0.8503
  723MOL0     H95426  10.618   8.696   8.068 -0.8994  1.6170  0.1511
  723MOL0     H95427  10.531   8.697   8.234  1.1496 -0.3703 -0.3206
  723MOL0     H95428  10.540   8.456   8.059  1.6025  0.4654  0.9120
  723MOL0     H95429  10.418   8.493   8.194 -0.1082 -0.8133  0.0206
  723MOL0     H95430  10.433   8.645   7.936 -2.0635 -2.2413 -3.8152
  723MOL0     H95431  10.315   8.660   8.061 -2.9526 -2.8710  1.2653
  723MOL0     H95432  10.206   8.541   7.893  0.0895  1.4648  1.1258
  723MOL0     H95433  10.338   8.423   7.878  3.0232  4.2912 -0.9954
  723MOL0     H95434  10.083   8.309   8.211 -1.2894  0.9373 -0.7994
  723MOL0     H95435  10.851   8.456   8.370 -0.1140 -0.0380  3.8619
  723MOL0     H95436  10.999   8.585   8.543 -0.8019  0.2968  0.5542
  724MOL0     O95437   8.596   3.602   9.103  0.3509 -0.7928 -0.0542
  724MOL0     C95438   8.573   3.585   8.985 -0.0329  0.7173  0.4769
  724MOL0     O95439   8.492   3.653   8.903  0.5309  0.9693  0.0183
  724MOL0     C95440   8.396   3.745   8.942 -0.6989 -0.0550 -1.2872
  724MOL0     C95441   8.357   3.761   9.078  0.2669 -0.2697 -0.2830
  724MOL0     C95442   8.271   3.870   9.118 -0.3524  1.0395 -0.5795
  724MOL0     C95443   8.204   3.943   9.010 -0.6015  0.3315  0.7946
  724MOL0     O95444   8.123   4.048   9.022 -0.6349 -0.2560 -0.1926
  724MOL0     C95445   8.037   4.068   9.135  0.8078 -0.0174 -0.8289
  724MOL0     C95446   7.907   4.028   9.101  0.3408 -0.5705 -0.4315
  724MOL0     C95447   7.809   4.093   9.201  0.4805  1.0146 -0.1574
  724MOL0     C95448   7.661   4.061   9.188  0.1832  0.2368  0.5264
  724MOL0     C95449   7.568   4.137   9.294  1.6162  0.1342 -0.6650
  724MOL0     C95450   7.411   4.114   9.277  0.7780  0.2231  0.5284
  724MOL0     C95451   7.319   4.176   9.378 -0.3389 -0.0946  0.2087
  724MOL0     C95452   7.173   4.187   9.355  0.0998  0.6152 -0.4326
  724MOL0     N95453   7.114   4.226   9.489 -0.0623  0.1851 -0.5924
  724MOL0     C95454   7.030   4.152   9.566  0.1088  0.1731 -0.1432
  724MOL0     C95455   6.982   4.246   9.653  0.5719  0.0172 -0.5399
  724MOL0     C95456   6.904   4.216   9.776  1.0141  0.0084 -0.8154
  724MOL0     C95457   6.766   4.299   9.799 -0.0367  0.6363 -0.3676
  724MOL0     C95458   6.712   4.245   9.928 -0.5457  0.3504 -0.4823
  724MOL0     C95459   6.791   4.283  10.056  0.1773 -0.4835 -0.0127
  724MOL0     O95460   6.810   4.155  10.127 -0.4220 -0.6819 -0.1863
  724MOL0     C95461   6.891   4.145  10.237 -0.1870 -0.0697 -0.7745
  724MOL0     C95462   6.890   4.019  10.287 -0.3812 -0.6043 -0.1480
  724MOL0     C95463   6.979   3.976  10.390 -0.7553  0.3322 -0.2259
  724MOL0     C95464   7.053   4.073  10.460  0.4088 -0.3594 -0.3867
  724MOL0     C95465   7.153   4.032  10.566  0.6813 -0.9268  0.8124
  724MOL0     O95466   7.206   4.139  10.633 -0.0086  0.1622 -0.3781
  724MOL0     C95467   7.297   4.109  10.740  0.7288 -0.2117 -0.4834
  724MOL0     C95468   7.285   4.195  10.849 -0.5200  0.0789  0.4039
  724MOL0     C95469   7.371   4.173  10.959 -0.4598  0.2511  0.5071
  724MOL0     C95470   7.465   4.068  10.964 -0.2950  1.3151  0.1557
  724MOL0     O95471   7.527   4.044  11.082 -0.9534  0.6685 -0.2919
  724MOL0     C95472   7.441   4.012  11.194  0.4112 -0.1484  0.7255
  724MOL0     C95473   7.515   3.936  11.302  0.2779  0.5962 -1.3514
  724MOL0     C95474   7.571   3.806  11.237 -0.6256  1.0516  0.1204
  724MOL0     C95475   7.673   3.742  11.331  0.8693 -0.0098  0.1644
  724MOL0     C95476   7.706   3.593  11.294  0.3884 -0.3747 -0.1834
  724MOL0     C95477   7.772   3.587  11.156 -0.7856  0.2887 -0.1896
  724MOL0     C95478   7.833   3.450  11.151 -0.2197  0.0852  0.4476
  724MOL0     C95479   7.906   3.459  11.015  0.0674 -0.0195 -0.5204
  724MOL0    Cl95480   8.041   3.351  11.005  0.1052  0.1049  0.1897
  724MOL0     C95481   7.479   3.986  10.847 -0.5602  0.6199 -0.3877
  724MOL0     C95482   7.397   4.017  10.739 -0.6422  1.0079  0.8705
  724MOL0     O95483   7.171   3.915  10.591  0.1934 -0.0700  0.0402
  724MOL0     C95484   7.047   4.209  10.414 -0.3125 -0.4346 -0.3833
  724MOL0     C95485   6.966   4.246  10.304 -1.1125  0.7969  0.9517
  724MOL0     N95486   7.032   4.371   9.621 -0.0672  0.0238 -0.0714
  724MOL0     N95487   7.114   4.356   9.521  0.7480 -1.0505  0.7452
  724MOL0     C95488   8.239   3.912   8.882 -0.1592 -0.9829 -0.2113
  724MOL0     C95489   8.336   3.819   8.843 -0.2746 -0.4218  0.1424
  724MOL0     C95490   8.636   3.457   8.941 -1.4238  0.3627 -0.8414
  724MOL0     C95491   8.715   3.372   9.021 -0.0521 -0.1234  1.5446
  724MOL0     C95492   8.778   3.256   8.957  0.3152 -0.5459 -0.5932
  724MOL0     C95493   8.775   3.235   8.813 -0.3569 -0.2623 -0.6496
  724MOL0     O95494   8.842   3.127   8.743  0.1247 -0.1334  0.8053
  724MOL0     C95495   8.937   3.051   8.811 -0.3269 -0.4959 -0.5548
  724MOL0     C95496   8.985   2.939   8.721 -0.4750 -0.5351  0.9098
  724MOL0     C95497   8.876   2.838   8.679  1.0559  0.3451 -0.6920
  724MOL0     C95498   8.930   2.716   8.611 -0.1035 -0.9573  0.4956
  724MOL0     C95499   8.817   2.634   8.546  0.3660  0.4561 -0.4066
  724MOL0     C95500   8.732   2.562   8.496  0.2208 -0.2912  0.2720
  724MOL0     C95501   8.694   3.325   8.741 -0.1239 -0.1284  0.7063
  724MOL0     C95502   8.619   3.429   8.804 -0.7365 -0.0964 -0.9568
  724MOL0     H95503   8.398   3.704   9.161  0.9376 -0.2025 -0.5681
  724MOL0     H95504   8.256   3.902   9.220 -1.4498  2.1217 -1.0484
  724MOL0     H95505   8.044   4.175   9.155  3.2128 -0.2382 -0.1156
  724MOL0     H95506   8.073   4.018   9.225  2.0680  0.6965 -0.9144
  724MOL0     H95507   7.902   3.919   9.101 -0.4398 -0.5742  1.3434
  724MOL0     H95508   7.882   4.058   8.999 -0.7352 -1.6359 -0.5071
  724MOL0     H95509   7.814   4.202   9.204 -4.2468  1.3989  1.0578
  724MOL0     H95510   7.838   4.067   9.303  2.0154 -1.6838 -1.1591
  724MOL0     H95511   7.621   4.095   9.092 -2.9204 -2.5009  0.6796
  724MOL0     H95512   7.660   3.952   9.182  2.9897  0.2179 -1.4310
  724MOL0     H95513   7.578   4.246   9.282 -2.7597  0.6456 -1.2254
  724MOL0     H95514   7.594   4.094   9.391  1.2669  0.4247 -0.4393
  724MOL0     H95515   7.387   4.008   9.262 -1.7930  0.8925 -0.6307
  724MOL0     H95516   7.382   4.168   9.187 -1.7865 -1.4699  0.2359
  724MOL0     H95517   7.321   4.118   9.470  1.2367  0.7298  0.7411
  724MOL0     H95518   7.364   4.273   9.403 -1.9512  0.6370  0.3887
  724MOL0     H95519   7.139   4.083   9.345  0.2978 -0.0294  3.7302
  724MOL0     H95520   7.141   4.249   9.272  1.6519 -0.7158 -2.1090
  724MOL0     H95521   7.012   4.045   9.569 -1.3746  0.3896  2.3664
  724MOL0     H95522   6.972   4.225   9.861 -1.2307  0.1214  1.0310
  724MOL0     H95523   6.889   4.108   9.776  0.9540  0.0117  0.0680
  724MOL0     H95524   6.698   4.268   9.719  0.7835 -3.6242  0.3493
  724MOL0     H95525   6.766   4.408   9.808 -0.9900  0.7574 -1.6503
  724MOL0     H95526   6.606   4.272   9.939 -1.5571 -1.8910 -3.2373
  724MOL0     H95527   6.703   4.137   9.912 -0.5920 -0.1587  2.4231
  724MOL0     H95528   6.741   4.362  10.113  2.1854  0.7755  0.1283
  724MOL0     H95529   6.888   4.316  10.016 -0.4526 -0.9980 -2.0655
  724MOL0     H95530   6.829   3.948  10.232  1.0705  0.7468 -3.8869
  724MOL0     H95531   6.991   3.870  10.409  0.0762  0.4374 -0.1251
  724MOL0     H95532   7.218   4.280  10.840 -2.9702 -1.9260 -1.9190
  724MOL0     H95533   7.355   4.244  11.040 -1.4164 -1.2601  1.7083
  724MOL0     H95534   7.356   3.947  11.168 -0.2729  1.6278 -1.8627
  724MOL0     H95535   7.403   4.108  11.228  2.1661  0.3725  1.3070
  724MOL0     H95536   7.466   3.920  11.399  4.7012 -2.8873  0.6623
  724MOL0     H95537   7.598   4.001  11.331  1.0293 -0.9298  0.1270
  724MOL0     H95538   7.621   3.834  11.145 -1.1962  3.0764  0.3688
  724MOL0     H95539   7.489   3.734  11.223  0.3239  0.4414 -2.8425
  724MOL0     H95540   7.765   3.799  11.345  2.9287 -3.2189  0.8184
  724MOL0     H95541   7.638   3.749  11.435  0.5319  0.8617  0.0067
  724MOL0     H95542   7.621   3.526  11.300 -0.8060  1.1383  0.4071
  724MOL0     H95543   7.782   3.580  11.372 -0.3871 -0.6176  0.5394
  724MOL0     H95544   7.839   3.670  11.131 -1.9094  0.9107 -1.2536
  724MOL0     H95545   7.698   3.601  11.076 -0.0800  0.6817 -0.7850
  724MOL0     H95546   7.904   3.427  11.230  0.5236 -0.7912 -0.4535
  724MOL0     H95547   7.756   3.372  11.155 -1.5353  1.3439  0.9627
  724MOL0     H95548   7.960   3.553  10.994  1.4521 -0.8676 -0.9274
  724MOL0     H95549   7.831   3.465  10.935 -0.5509  3.7296  0.1308
  724MOL0     H95550   7.552   3.906  10.844 -2.8614 -1.5880 -0.8619
  724MOL0     H95551   7.429   3.952  10.658  2.2788  0.9208  1.9598
  724MOL0     H95552   7.112   4.286  10.457 -1.6873  1.5485 -1.6899
  724MOL0     H95553   6.959   4.349  10.272  0.9696  0.4607 -0.8130
  724MOL0     H95554   8.189   3.981   8.816  2.2399 -0.2553 -1.3990
  724MOL0     H95555   8.356   3.825   8.737  0.8241  0.8212  0.4011
  724MOL0     H95556   8.718   3.390   9.128 -1.9427 -1.9055  1.9429
  724MOL0     H95557   8.845   3.188   9.008 -0.3045 -1.6538 -1.2237
  724MOL0     H95558   8.890   3.012   8.902 -4.3489  0.6064 -1.9534
  724MOL0     H95559   9.027   3.109   8.831 -0.9355  0.2486  0.0742
  724MOL0     H95560   9.019   2.987   8.629  0.0124  0.0241  1.3801
  724MOL0     H95561   9.061   2.875   8.768 -0.8210 -2.4455 -0.9376
  724MOL0     H95562   8.795   2.892   8.629  1.0868  1.2005  0.1727
  724MOL0     H95563   8.825   2.795   8.765  1.5972 -0.6771 -0.8548
  724MOL0     H95564   8.986   2.759   8.527 -0.4943 -0.9543  0.2352
  724MOL0     H95565   8.988   2.655   8.681 -0.8415 -1.2308  0.8755
  724MOL0     H95566   8.639   2.520   8.466 -0.7870  1.0766  1.2978
  724MOL0     H95567   8.679   3.322   8.633 -1.6605  3.1258  0.7047
  724MOL0     H95568   8.558   3.498   8.746 -0.9298  0.7840  0.2631
  725MOL0     O95569   2.470   4.230   8.172 -0.3837 -0.0111 -0.8315
  725MOL0     C95570   2.428   4.343   8.169  0.3124 -0.1934  1.4285
  725MOL0     O95571   2.387   4.411   8.277 -0.1035 -0.4290 -0.0725
  725MOL0     C95572   2.375   4.350   8.409  0.2095  0.0598  1.2900
  725MOL0     C95573   2.480   4.291   8.466  0.2282  0.7501  1.2409
  725MOL0     C95574   2.478   4.224   8.589  0.2896  0.0043  0.2150
  725MOL0     C95575   2.370   4.238   8.672 -0.9021 -0.2359  0.8659
  725MOL0     O95576   2.372   4.213   8.811  0.5601 -0.0027  0.0660
  725MOL0     C95577   2.495   4.182   8.870 -0.4590 -0.1203  0.5077
  725MOL0     C95578   2.496   4.169   9.020 -0.5031  0.2206 -0.2212
  725MOL0     C95579   2.632   4.184   9.087  0.2862 -0.7825  0.1368
  725MOL0     C95580   2.636   4.185   9.238  0.0981  0.5289 -0.4156
  725MOL0     C95581   2.564   4.059   9.302 -1.2363 -0.3174  0.5853
  725MOL0     C95582   2.543   4.067   9.455  0.5279 -0.0570  0.3068
  725MOL0     C95583   2.664   4.098   9.537 -0.3616  0.1018 -0.2691
  725MOL0     C95584   2.765   3.982   9.563 -0.3289  0.3380 -0.0936
  725MOL0     N95585   2.698   3.866   9.618 -0.0993  0.4694  0.1942
  725MOL0     C95586   2.647   3.854   9.740 -0.5110 -0.6604  0.5636
  725MOL0     C95587   2.604   3.727   9.745 -0.8142  0.5881 -0.3377
  725MOL0     C95588   2.542   3.648   9.856 -1.1506  0.4137  0.2331
  725MOL0     C95589   2.387   3.643   9.845 -0.2692  0.0251 -0.4079
  725MOL0     C95590   2.309   3.769   9.910 -0.2681 -0.5608 -0.4949
  725MOL0     C95591   2.163   3.728   9.923  0.4051 -0.8531  0.7660
  725MOL0     O95592   2.093   3.721   9.799 -0.0423  0.2491  0.1445
  725MOL0     C95593   1.960   3.703   9.800 -0.0391  0.3048 -0.4460
  725MOL0     C95594   1.877   3.696   9.923 -0.3419 -0.6173  1.4791
  725MOL0     C95595   1.736   3.685   9.912  0.6119 -0.2084 -0.2962
  725MOL0     C95596   1.666   3.635   9.798  0.7981  0.1250  0.0218
  725MOL0     C95597   1.525   3.600   9.805 -0.2134  0.4127 -0.1296
  725MOL0     O95598   1.483   3.548   9.924 -0.0587  0.1858 -0.2129
  725MOL0     C95599   1.351   3.513   9.946 -0.1684  0.1556 -0.0325
  725MOL0     C95600   1.316   3.376   9.978 -0.3086  0.0330  0.0274
  725MOL0     C95601   1.184   3.333   9.982 -0.4118  0.9626  0.9998
  725MOL0     C95602   1.085   3.436   9.971  0.5221  0.2695 -0.1475
  725MOL0     O95603   0.954   3.395   9.997 -0.0382 -0.5934 -0.0325
  725MOL0     C95604   0.878   3.381   9.874 -1.2567  0.1988  0.6272
  725MOL0     C95605   0.750   3.303   9.908  0.2313 -0.3800  0.1585
  725MOL0     C95606   0.673   3.345  10.036  0.7586  0.0450 -0.2408
  725MOL0     C95607   0.559   3.454  10.015 -0.2962  1.1421 -0.4549
  725MOL0     C95608   0.600   3.580   9.950  0.4611  0.0047 -0.2776
  725MOL0     C95609   0.698   3.664  10.036 -0.3263  0.0630  0.3506
  725MOL0     C95610   0.713   3.813   9.978 -0.3182  0.4565 -0.5309
  725MOL0     C95611   0.798   3.903  10.059 -0.4410 -0.0865  0.2513
  725MOL0    Cl95612   0.962   3.847  10.072 -0.0951 -0.2696 -0.1196
  725MOL0     C95613   1.115   3.576   9.950  0.4611  0.1030 -0.5745
  725MOL0     C95614   1.251   3.613   9.933 -0.7846  0.1094  0.4476
  725MOL0     O95615   1.454   3.627   9.706  0.1336 -0.1213 -0.0182
  725MOL0     C95616   1.752   3.620   9.682 -0.1062 -0.7396  0.3087
  725MOL0     C95617   1.889   3.672   9.682  0.9295  0.4587  0.4128
  725MOL0     N95618   2.636   3.666   9.623  0.8267  0.2585  0.2893
  725MOL0     N95619   2.678   3.755   9.546  0.2065 -0.7264  0.6262
  725MOL0     C95620   2.257   4.292   8.616  0.4042  0.3746 -0.1125
  725MOL0     C95621   2.258   4.355   8.483  0.3711  0.1112  0.8106
  725MOL0     C95622   2.407   4.407   8.035  0.2222 -0.1852  0.5502
  725MOL0     C95623   2.448   4.345   7.908 -0.6755  0.2787 -0.2258
  725MOL0     C95624   2.444   4.423   7.786  0.4181 -0.1694 -0.2880
  725MOL0     C95625   2.384   4.543   7.783  0.8034 -0.1527 -0.7863
  725MOL0     O95626   2.391   4.616   7.666 -0.8365  0.1538  0.4160
  725MOL0     C95627   2.450   4.749   7.679 -0.4475  0.2168  0.3076
  725MOL0     C95628   2.406   4.832   7.561 -0.6188 -0.1978  0.0348
  725MOL0     C95629   2.468   4.801   7.427  0.5086 -0.4528 -0.1183
  725MOL0     C95630   2.603   4.883   7.394  0.4148  0.0289  0.0128
  725MOL0     C95631   2.691   4.805   7.310 -0.9870  0.0012 -0.0046
  725MOL0     C95632   2.770   4.733   7.243  0.1229 -0.3866 -0.1603
  725MOL0     C95633   2.322   4.597   7.898 -0.1671 -0.5630  0.0043
  725MOL0     C95634   2.337   4.538   8.026 -0.3506 -0.0560 -0.0127
  725MOL0     H95635   2.567   4.293   8.401 -1.3491 -0.4521 -1.0440
  725MOL0     H95636   2.569   4.168   8.613 -0.4119 -2.2190 -1.9313
  725MOL0     H95637   2.560   4.266   8.844  0.7539 -1.1451  0.0873
  725MOL0     H95638   2.534   4.098   8.811  0.1208  0.4502  0.0575
  725MOL0     H95639   2.447   4.077   9.055  1.2068 -0.5496  0.2624
  725MOL0     H95640   2.428   4.246   9.057 -1.2190 -0.6712  0.3679
  725MOL0     H95641   2.686   4.272   9.050  1.5463 -0.2859  2.8828
  725MOL0     H95642   2.689   4.096   9.055 -1.0533 -1.4537 -0.4829
  725MOL0     H95643   2.740   4.182   9.272  0.6325 -0.5220 -2.0511
  725MOL0     H95644   2.582   4.275   9.268  1.2403  1.7766 -2.0221
  725MOL0     H95645   2.635   3.978   9.282  2.4081  1.8330  3.4465
  725MOL0     H95646   2.468   4.033   9.256 -0.4881 -0.1029 -1.1486
  725MOL0     H95647   2.502   3.974   9.496  2.7255 -1.8700 -1.3734
  725MOL0     H95648   2.462   4.137   9.475  1.5150  1.2967 -0.3230
  725MOL0     H95649   2.716   4.185   9.494 -3.1373  1.6369 -0.7508
  725MOL0     H95650   2.629   4.141   9.632 -0.6558  1.3644 -0.9171
  725MOL0     H95651   2.847   3.996   9.633 -1.6909 -3.1319  2.4700
  725MOL0     H95652   2.803   3.957   9.463  2.2046 -1.5180  1.2147
  725MOL0     H95653   2.658   3.924   9.822  2.3512  0.0027 -0.2671
  725MOL0     H95654   2.561   3.697   9.952  3.2861  2.4526 -1.4058
  725MOL0     H95655   2.581   3.547   9.860 -1.5866  0.2865  1.7658
  725MOL0     H95656   2.366   3.551   9.900  0.1279 -0.0882 -0.4440
  725MOL0     H95657   2.348   3.629   9.744  0.3379 -0.8706 -0.5226
  725MOL0     H95658   2.350   3.795  10.008 -2.1184 -1.6306  0.6247
  725MOL0     H95659   2.326   3.855   9.845  0.2303 -1.6064 -1.8024
  725MOL0     H95660   2.109   3.805   9.980  2.1769  1.2494 -0.2608
  725MOL0     H95661   2.155   3.629   9.970 -1.9513 -0.7980  0.6080
  725MOL0     H95662   1.921   3.720  10.020  1.0995  3.2937  0.0615
  725MOL0     H95663   1.679   3.695  10.004  0.0054 -0.3264 -0.6511
  725MOL0     H95664   1.399   3.307   9.988 -2.1765 -2.7849 -2.3892
  725MOL0     H95665   1.147   3.232  10.002 -1.3243  1.2597  0.8686
  725MOL0     H95666   0.939   3.333   9.798  1.5122  0.5117  2.4781
  725MOL0     H95667   0.853   3.481   9.837 -1.4587  1.0842  2.9654
  725MOL0     H95668   0.767   3.196   9.927 -0.1456 -0.4217  0.2701
  725MOL0     H95669   0.677   3.308   9.827 -0.1365  0.1345  0.5178
  725MOL0     H95670   0.743   3.381  10.112  1.2284  1.6619 -1.3960
  725MOL0     H95671   0.611   3.271  10.088 -0.7702  2.3439  1.3781
  725MOL0     H95672   0.483   3.408   9.952  0.7776  0.3350 -1.1911
  725MOL0     H95673   0.514   3.473  10.113  2.2223  0.0662  0.9928
  725MOL0     H95674   0.509   3.639   9.934  0.6707 -0.0839 -1.8862
  725MOL0     H95675   0.637   3.560   9.849  1.6123  2.2759 -0.3767
  725MOL0     H95676   0.798   3.621  10.033  1.1783  3.3534  0.0515
  725MOL0     H95677   0.662   3.669  10.139 -0.9315  0.7250  0.1180
  725MOL0     H95678   0.753   3.801   9.877 -0.1130  0.4082 -0.4437
  725MOL0     H95679   0.606   3.836   9.982 -1.0779 -2.2863 -2.4211
  725MOL0     H95680   0.762   3.914  10.162  1.2215  0.3053  0.8361
  725MOL0     H95681   0.797   4.001  10.012  0.0294 -0.2662 -0.1469
  725MOL0     H95682   1.031   3.643   9.939 -2.2617 -3.1148 -1.1818
  725MOL0     H95683   1.288   3.715   9.924  1.2341 -0.0576  4.4542
  725MOL0     H95684   1.695   3.576   9.601 -1.8945 -2.1171  2.1896
  725MOL0     H95685   1.942   3.653   9.589 -0.3087 -0.9797 -0.0425
  725MOL0     H95686   2.169   4.290   8.678  0.9432 -1.4796  0.6709
  725MOL0     H95687   2.174   4.400   8.433 -0.4884 -1.3034  0.9227
  725MOL0     H95688   2.501   4.250   7.900 -1.4970 -0.4201  1.8382
  725MOL0     H95689   2.500   4.382   7.703  0.4510  1.8066 -1.3019
  725MOL0     H95690   2.557   4.732   7.666 -0.1586 -0.3580  2.9724
  725MOL0     H95691   2.426   4.790   7.777 -3.8316 -0.7177 -0.0179
  725MOL0     H95692   2.299   4.817   7.545 -0.7017 -0.5517  0.8760
  725MOL0     H95693   2.427   4.939   7.572 -1.3732  0.0711 -1.0021
  725MOL0     H95694   2.396   4.816   7.345  0.1059  0.1435  0.3347
  725MOL0     H95695   2.479   4.693   7.422 -0.4087 -0.5960  0.7193
  725MOL0     H95696   2.571   4.978   7.350 -0.4220  0.3970  1.3527
  725MOL0     H95697   2.667   4.894   7.482 -0.6329 -1.2406  0.9933
  725MOL0     H95698   2.845   4.662   7.216 -2.0224 -2.5478 -0.8685
  725MOL0     H95699   2.268   4.691   7.901 -1.1135 -1.0610 -0.9611
  725MOL0     H95700   2.299   4.599   8.107  0.5682 -0.1457  0.5057
  726MOL0     O95701   1.475   7.466   3.213  0.2475  1.1144 -0.3456
  726MOL0     C95702   1.600   7.464   3.211 -1.0172 -0.6475 -0.2222
  726MOL0     O95703   1.684   7.464   3.102 -0.1281  0.2791  0.2838
  726MOL0     C95704   1.607   7.418   2.994  0.0646 -0.3066 -0.4158
  726MOL0     C95705   1.586   7.503   2.887 -0.4090  0.2062 -0.3122
  726MOL0     C95706   1.525   7.449   2.766 -0.6407 -0.7332  0.1773
  726MOL0     C95707   1.498   7.316   2.752  0.4336  0.1998  0.0099
  726MOL0     O95708   1.451   7.249   2.644 -0.3564 -0.4529  0.2913
  726MOL0     C95709   1.329   7.307   2.594 -0.3242 -0.8279  0.8965
  726MOL0     C95710   1.301   7.231   2.452  0.5398 -0.6618 -0.6463
  726MOL0     C95711   1.164   7.274   2.391  0.0498 -0.4744  1.3097
  726MOL0     C95712   1.169   7.378   2.281  0.0394 -0.7563 -0.0911
  726MOL0     C95713   1.036   7.416   2.232 -0.0028 -0.1116 -0.3496
  726MOL0     C95714   1.030   7.523   2.117 -0.2265  0.3578  0.2376
  726MOL0     C95715   1.058   7.473   1.969 -0.0150  0.6766  0.4555
  726MOL0     C95716   1.176   7.555   1.910  0.7719  0.1058 -0.1793
  726MOL0     N95717   1.302   7.528   1.965 -0.2270 -0.1760  0.6958
  726MOL0     C95718   1.360   7.407   1.944  0.0642 -0.0666 -0.2200
  726MOL0     C95719   1.457   7.406   2.038 -0.5767  0.6084  0.1856
  726MOL0     C95720   1.565   7.292   2.055 -0.0194  0.2028 -0.8504
  726MOL0     C95721   1.696   7.337   1.987 -0.6973 -0.4897  0.6427
  726MOL0     C95722   1.815   7.242   2.022  0.5350 -0.1460 -0.6932
  726MOL0     C95723   1.898   7.289   2.150  0.5894  0.4295  0.0993
  726MOL0     O95724   1.982   7.174   2.177 -1.1665  0.5276  0.9438
  726MOL0     C95725   2.049   7.164   2.303  1.1124  0.4862 -0.2007
  726MOL0     C95726   2.082   7.034   2.350  0.9002 -0.2654  0.1683
  726MOL0     C95727   2.139   7.021   2.479 -0.5377 -0.1337  0.7522
  726MOL0     C95728   2.171   7.131   2.555 -0.3306 -0.0622  0.2205
  726MOL0     C95729   2.256   7.110   2.678  0.0459 -0.2684  0.5729
  726MOL0     O95730   2.311   6.990   2.695  0.2015  0.1953  0.1629
  726MOL0     C95731   2.366   6.968   2.816 -0.6218  0.1236 -0.6005
  726MOL0     C95732   2.506   6.980   2.818  0.4149 -0.3894  0.0742
  726MOL0     C95733   2.573   6.935   2.937  0.2234 -1.4031 -0.0925
  726MOL0     C95734   2.505   6.890   3.046  0.4595 -0.0353  1.1215
  726MOL0     O95735   2.587   6.847   3.143  0.3357  0.6960 -0.0098
  726MOL0     C95736   2.527   6.738   3.237 -0.9203 -0.4564  1.0068
  726MOL0     C95737   2.650   6.684   3.326  0.2876  0.0185  1.0396
  726MOL0     C95738   2.604   6.566   3.407  1.2468  0.0738 -0.6543
  726MOL0     C95739   2.709   6.518   3.498  0.1821 -0.1264 -0.8443
  726MOL0     C95740   2.800   6.400   3.440 -0.0540  1.1079 -0.7665
  726MOL0     C95741   2.734   6.264   3.417  0.4947  1.3117 -0.3238
  726MOL0     C95742   2.821   6.166   3.341 -0.6221 -0.0019 -1.0902
  726MOL0     C95743   2.840   6.212   3.194 -0.6417 -0.1903 -0.1380
  726MOL0    Cl95744   2.989   6.130   3.135 -0.3164 -0.3078 -0.4977
  726MOL0     C95745   2.357   6.885   3.044 -0.7130  0.2309  0.0755
  726MOL0     C95746   2.288   6.933   2.926  0.3621 -0.5052  1.1481
  726MOL0     O95747   2.280   7.215   2.748 -0.0048  0.0456  0.1206
  726MOL0     C95748   2.142   7.261   2.509  0.0852  0.3176  0.1566
  726MOL0     C95749   2.079   7.278   2.388 -0.2851  0.7084 -0.5829
  726MOL0     N95750   1.459   7.529   2.100 -0.3753  0.0024 -0.0315
  726MOL0     N95751   1.367   7.602   2.058  0.0961 -0.8950 -0.3920
  726MOL0     C95752   1.543   7.236   2.858  0.5039 -0.3024 -0.5300
  726MOL0     C95753   1.588   7.279   2.982 -0.7284 -0.1723  0.3208
  726MOL0     C95754   1.650   7.480   3.337 -0.5646 -0.2922  0.3043
  726MOL0     C95755   1.790   7.453   3.365 -0.0891  0.1652 -0.3348
  726MOL0     C95756   1.833   7.452   3.497 -0.6944 -0.6078 -0.1973
  726MOL0     C95757   1.766   7.517   3.602  0.3525 -0.7212  0.0069
  726MOL0     O95758   1.825   7.540   3.728  0.0528  0.2427 -0.2751
  726MOL0     C95759   1.773   7.641   3.816 -1.2174 -0.8468 -0.0156
  726MOL0     C95760   1.889   7.686   3.906 -0.1198  0.1725  0.0272
  726MOL0     C95761   1.926   7.570   3.988 -0.1467  0.1128 -0.0392
  726MOL0     C95762   2.022   7.607   4.098  0.2581 -0.2159  0.0440
  726MOL0     C95763   2.157   7.645   4.045  0.9887 -0.8260  0.4269
  726MOL0     C95764   2.262   7.682   4.009 -0.2275  1.1879 -0.8180
  726MOL0     C95765   1.643   7.568   3.567 -1.3353  0.4940 -0.0144
  726MOL0     C95766   1.591   7.561   3.436  1.0081 -0.6285 -0.2902
  726MOL0     H95767   1.597   7.610   2.900  1.4726 -0.0869  0.8625
  726MOL0     H95768   1.499   7.515   2.684 -2.8276 -0.1698  1.2653
  726MOL0     H95769   1.328   7.416   2.579  0.8075 -0.9614 -0.3878
  726MOL0     H95770   1.255   7.284   2.670 -1.1829 -1.2299 -0.0407
  726MOL0     H95771   1.301   7.125   2.478  0.1577 -0.0839  1.9943
  726MOL0     H95772   1.383   7.250   2.381 -0.8998  1.0721 -1.9423
  726MOL0     H95773   1.105   7.306   2.477  0.2369  4.3072 -0.0640
  726MOL0     H95774   1.114   7.185   2.352 -2.7078  1.7849 -0.7543
  726MOL0     H95775   1.220   7.468   2.316  0.4470  0.5893 -3.7496
  726MOL0     H95776   1.228   7.338   2.199 -1.0367 -2.5348 -0.0516
  726MOL0     H95777   0.970   7.444   2.315  2.4607  0.2063  1.6224
  726MOL0     H95778   0.995   7.320   2.200 -0.7858  0.2445 -0.4239
  726MOL0     H95779   1.100   7.605   2.132  3.3549 -2.4625  0.1165
  726MOL0     H95780   0.925   7.554   2.115  0.5268  3.0817 -0.8330
  726MOL0     H95781   1.075   7.365   1.961  0.0254  0.8530 -2.7534
  726MOL0     H95782   0.964   7.497   1.919 -0.8737 -2.7073  0.1841
  726MOL0     H95783   1.155   7.660   1.932 -1.4342  0.3803 -3.0922
  726MOL0     H95784   1.181   7.543   1.802 -1.6754 -0.3219 -0.2865
  726MOL0     H95785   1.328   7.336   1.869  1.7986 -0.6760 -0.4043
  726MOL0     H95786   1.535   7.198   2.009 -2.4100 -0.4207  1.6755
  726MOL0     H95787   1.585   7.268   2.160  0.0856 -0.1673 -0.9527
  726MOL0     H95788   1.704   7.441   2.021  1.8576  0.1762 -1.5977
  726MOL0     H95789   1.691   7.353   1.879  1.9550  0.9970  0.6546
  726MOL0     H95790   1.776   7.140   2.023  3.3992 -1.3577  1.5003
  726MOL0     H95791   1.882   7.252   1.936 -1.6391  3.4530 -2.2075
  726MOL0     H95792   1.824   7.302   2.229 -0.4924 -0.4469 -0.7175
  726MOL0     H95793   1.954   7.377   2.119  2.6532 -1.3063 -1.4426
  726MOL0     H95794   2.065   6.941   2.297 -1.3482  0.4584 -0.5063
  726MOL0     H95795   2.138   6.925   2.530 -0.5671 -0.1995  0.6287
  726MOL0     H95796   2.572   7.006   2.737  0.5331  1.3482  0.6888
  726MOL0     H95797   2.681   6.941   2.937  0.1301  1.4919  0.2716
  726MOL0     H95798   2.468   6.659   3.189  2.0277 -1.9848 -0.3836
  726MOL0     H95799   2.463   6.793   3.306 -2.9510 -3.1286  1.4345
  726MOL0     H95800   2.678   6.764   3.395  1.4891  2.1536 -1.7321
  726MOL0     H95801   2.743   6.665   3.272  0.6976  0.4022  1.5904
  726MOL0     H95802   2.585   6.491   3.330 -2.5381  0.9829 -0.8170
  726MOL0     H95803   2.512   6.592   3.460  0.5040  1.5052 -2.5318
  726MOL0     H95804   2.780   6.601   3.508  0.1091  0.2916 -3.0705
  726MOL0     H95805   2.666   6.485   3.592  0.1489  0.0543 -0.7952
  726MOL0     H95806   2.877   6.389   3.518 -0.6504  3.2705  0.2058
  726MOL0     H95807   2.838   6.427   3.341 -1.4094  0.5022 -1.4808
  726MOL0     H95808   2.647   6.270   3.351 -1.4193 -1.4136  1.7889
  726MOL0     H95809   2.701   6.217   3.510  0.0419 -0.6551 -1.4254
  726MOL0     H95810   2.913   6.161   3.400  0.0224 -2.2157 -2.1935
  726MOL0     H95811   2.775   6.068   3.359  0.7557  0.0378  4.2185
  726MOL0     H95812   2.864   6.319   3.184 -0.9557  0.0692  1.6789
  726MOL0     H95813   2.753   6.189   3.132 -1.9730  2.5535  0.5879
  726MOL0     H95814   2.289   6.849   3.121  1.4025  0.8227  2.3349
  726MOL0     H95815   2.180   6.935   2.918  0.4948 -0.4458 -1.6976
  726MOL0     H95816   2.157   7.352   2.565 -0.2808 -1.0253  2.6142
  726MOL0     H95817   2.058   7.382   2.364 -1.1530  0.7807  0.4370
  726MOL0     H95818   1.527   7.129   2.847 -0.6259 -0.4408  1.7469
  726MOL0     H95819   1.603   7.199   3.054  2.7081 -0.2360 -0.2719
  726MOL0     H95820   1.857   7.415   3.288 -1.9066  2.8583 -3.5113
  726MOL0     H95821   1.933   7.414   3.517 -0.8752 -1.1431 -0.2984
  726MOL0     H95822   1.683   7.610   3.871 -1.6529 -1.2401 -0.9205
  726MOL0     H95823   1.743   7.727   3.755  0.7267 -0.8942 -1.1325
  726MOL0     H95824   1.970   7.725   3.844  1.2315  0.6064  1.9757
  726MOL0     H95825   1.864   7.778   3.960  2.2557  1.7285 -1.3418
  726MOL0     H95826   1.975   7.492   3.929 -0.2756  0.3298 -0.4372
  726MOL0     H95827   1.834   7.516   4.011  0.7690 -2.2387 -1.5235
  726MOL0     H95828   1.983   7.693   4.153 -1.2907 -2.4595  2.6472
  726MOL0     H95829   2.031   7.520   4.164  0.7149 -2.6822 -3.0279
  726MOL0     H95830   2.364   7.699   3.983  1.1250 -0.5593  2.6718
  726MOL0     H95831   1.589   7.615   3.649  0.2882  1.9018  0.3053
  726MOL0     H95832   1.497   7.612   3.418  0.3557 -2.3139 -2.0240
  727MOL0     O95833   8.640  10.282   1.667  0.1373 -0.1099 -0.1462
  727MOL0     C95834   8.528  10.238   1.628 -0.5404  0.4234 -0.0389
  727MOL0     O95835   8.421  10.217   1.706  0.0966  0.0701  1.0083
  727MOL0     C95836   8.437  10.245   1.836  0.0887 -1.1195 -0.6791
  727MOL0     C95837   8.357  10.166   1.925  0.3945 -2.3915  0.0200
  727MOL0     C95838   8.335  10.212   2.050  0.1011 -0.6341  0.1299
  727MOL0     C95839   8.395  10.328   2.103 -0.3674  0.1421 -0.0393
  727MOL0     O95840   8.374  10.365   2.240  0.5642 -0.2701  0.1784
  727MOL0     C95841   8.496  10.378   2.315 -0.2491  0.2473  0.3280
  727MOL0     C95842   8.456  10.451   2.446 -0.5405  0.0051  0.9124
  727MOL0     C95843   8.573  10.530   2.495  0.0335  0.0707  0.1652
  727MOL0     C95844   8.554  10.555   2.630  0.5568 -1.0305 -0.5629
  727MOL0     C95845   8.658  10.645   2.704 -0.0916 -0.0300 -0.2926
  727MOL0     C95846   8.796  10.586   2.692 -0.1008 -0.3073  0.0507
  727MOL0     C95847   8.880  10.634   2.818 -0.2785 -0.2541  0.8503
  727MOL0     C95848   8.876  10.789   2.833  0.3703 -0.2675  0.8799
  727MOL0     N95849   8.963  10.853   2.735 -0.6899 -0.1867 -0.5183
  727MOL0     C95850   8.906  10.947   2.647  0.2019 -0.6499 -1.2609
  727MOL0     C95851   9.013  11.018   2.611 -1.2819  0.7780 -0.5410
  727MOL0     C95852   9.023  11.136   2.516 -0.2250 -0.4643 -1.3814
  727MOL0     C95853   8.959  11.259   2.563  0.4860 -1.0730 -0.5328
  727MOL0     C95854   8.985  11.388   2.483 -0.3479 -1.0123  0.4335
  727MOL0     C95855   8.891  11.392   2.362  0.8524 -0.2325  0.6384
  727MOL0     O95856   8.943  11.496   2.276 -0.3845  0.2051 -0.3065
  727MOL0     C95857   8.909  11.628   2.314 -0.7832 -0.7414 -0.1604
  727MOL0     C95858   8.843  11.656   2.428 -0.2535 -0.6028 -0.1098
  727MOL0     C95859   8.838  11.785   2.479 -0.1670 -0.6695  0.1806
  727MOL0     C95860   8.905  11.882   2.408  0.1195 -1.8449  0.4568
  727MOL0     C95861   8.901  12.019   2.464  0.5358 -0.3192  0.3699
  727MOL0     O95862   8.993  12.110   2.417 -0.3837  1.0172  0.0840
  727MOL0     C95863   8.978  12.236   2.457  0.4402 -0.2749  0.1138
  727MOL0     C95864   9.064  12.284   2.557  0.4303  0.2394  0.2305
  727MOL0     C95865   9.061  12.415   2.594  0.5917  0.6276 -0.0327
  727MOL0     C95866   8.985  12.510   2.514  0.3340  0.7658  0.1934
  727MOL0     O95867   9.006  12.636   2.539  0.5180 -0.1289 -0.6916
  727MOL0     C95868   8.895  12.730   2.527  0.1429 -0.1670 -0.6048
  727MOL0     C95869   8.800  12.721   2.648 -0.3293  0.2824  0.2885
  727MOL0     C95870   8.699  12.830   2.657 -0.0589 -0.3609  0.1448
  727MOL0     C95871   8.585  12.812   2.758 -0.5366 -0.2131 -0.7794
  727MOL0     C95872   8.481  12.924   2.739  0.9457  0.9220  0.0664
  727MOL0     C95873   8.520  13.059   2.796  0.0948  0.7417  1.3483
  727MOL0     C95874   8.509  13.168   2.683  0.7788  1.2618  0.3043
  727MOL0     C95875   8.366  13.204   2.646  1.0463 -0.9001 -0.0513
  727MOL0    Cl95876   8.285  13.307   2.770  0.1831  0.0887 -0.0998
  727MOL0     C95877   8.901  12.461   2.415 -0.5946 -0.1373  0.8672
  727MOL0     C95878   8.894  12.319   2.386 -0.7044  0.0038  0.1532
  727MOL0     O95879   8.819  12.043   2.555 -0.1103  0.5320  0.0993
  727MOL0     C95880   8.976  11.852   2.292 -0.1406  0.2778  0.7379
  727MOL0     C95881   8.977  11.729   2.250 -0.7178 -0.2762 -0.2390
  727MOL0     N95882   9.125  10.949   2.661 -0.0370  0.3826 -0.4358
  727MOL0     N95883   9.097  10.850   2.734  0.3114 -0.0078  0.2566
  727MOL0     C95884   8.472  10.399   2.014  0.8117 -0.2802  0.7613
  727MOL0     C95885   8.487  10.370   1.880 -1.0862 -0.0010 -0.4643
  727MOL0     C95886   8.512  10.204   1.477  0.2691  0.2488  0.3577
  727MOL0     C95887   8.390  10.157   1.423  0.7279  0.6865 -0.4031
  727MOL0     C95888   8.385  10.141   1.286 -0.7646  1.1655 -0.2943
  727MOL0     C95889   8.502  10.149   1.202 -0.1068 -0.1244  0.2480
  727MOL0     O95890   8.511  10.120   1.069  0.3466  1.2307  0.6669
  727MOL0     C95891   8.393  10.087   0.998 -0.9015  0.3549 -0.0537
  727MOL0     C95892   8.413  10.118   0.858  0.4767  0.5915 -0.0102
  727MOL0     C95893   8.294  10.093   0.768 -0.9771 -1.7426  0.4519
  727MOL0     C95894   8.311  10.137   0.618 -0.1022 -0.1617 -0.4357
  727MOL0     C95895   8.395  10.037   0.538 -1.2604  0.4861 -0.0107
  727MOL0     C95896   8.446   9.942   0.477 -0.2965  0.3691 -0.2313
  727MOL0     C95897   8.615  10.197   1.260  0.5356 -0.1550  0.4420
  727MOL0     C95898   8.616  10.236   1.392  0.8085 -0.4956 -0.1194
  727MOL0     H95899   8.300  10.084   1.884 -2.3531 -0.7971  0.4242
  727MOL0     H95900   8.286  10.157   2.130  3.5149  0.2261  3.1146
  727MOL0     H95901   8.578  10.433   2.269 -0.1787 -0.8651 -0.9430
  727MOL0     H95902   8.529  10.279   2.350 -1.6072  1.4953  6.1265
  727MOL0     H95903   8.428  10.370   2.514 -0.1681  0.2171  1.3270
  727MOL0     H95904   8.365  10.511   2.435  0.6728  2.2374  2.2482
  727MOL0     H95905   8.568  10.624   2.440 -0.5150  0.2957  0.5952
  727MOL0     H95906   8.667  10.479   2.470 -0.2806  0.2305 -1.4190
  727MOL0     H95907   8.456  10.599   2.652  0.2379 -2.0173 -0.0010
  727MOL0     H95908   8.544  10.458   2.678  2.3850 -0.5357  0.9616
  727MOL0     H95909   8.628  10.657   2.808 -0.5405  1.3097 -0.5526
  727MOL0     H95910   8.665  10.740   2.650  1.3906  0.3133  0.4359
  727MOL0     H95911   8.844  10.601   2.595  1.0052  4.2699  1.0821
  727MOL0     H95912   8.792  10.477   2.697  0.0739 -0.4565 -2.2366
  727MOL0     H95913   8.826  10.587   2.900 -2.2036  2.8106  1.5178
  727MOL0     H95914   8.983  10.600   2.808 -0.1023  0.4364  0.1735
  727MOL0     H95915   8.910  10.815   2.934 -1.1053  0.8267  1.1270
  727MOL0     H95916   8.773  10.825   2.823  1.0623  2.2519  2.0071
  727MOL0     H95917   8.806  10.967   2.611  1.3733  3.2412 -2.8723
  727MOL0     H95918   8.995  11.103   2.415  1.0344 -0.3557 -1.7755
  727MOL0     H95919   9.130  11.154   2.525 -0.4939 -0.0018  4.1588
  727MOL0     H95920   8.982  11.282   2.667  1.0886  4.7597 -1.6569
  727MOL0     H95921   8.852  11.237   2.550  0.5976 -2.1157  0.1384
  727MOL0     H95922   8.984  11.463   2.562 -2.5104 -1.6712  1.1024
  727MOL0     H95923   9.091  11.390   2.455  0.2187  1.8442  2.3975
  727MOL0     H95924   8.787  11.411   2.389  0.3189 -0.5603 -1.0667
  727MOL0     H95925   8.878  11.299   2.305 -0.0150 -0.9141  1.8947
  727MOL0     H95926   8.782  11.584   2.483 -0.7713 -0.1850 -0.1258
  727MOL0     H95927   8.777  11.804   2.566 -2.9666 -0.5506 -1.6932
  727MOL0     H95928   9.143  12.222   2.597  0.5820  0.1920 -0.1446
  727MOL0     H95929   9.117  12.449   2.680 -0.1606 -1.8238  1.5442
  727MOL0     H95930   8.848  12.722   2.429 -0.8709  0.4460 -0.1779
  727MOL0     H95931   8.957  12.820   2.528  1.3072 -0.9412  0.0978
  727MOL0     H95932   8.858  12.705   2.739 -2.2590 -1.4596  1.3195
  727MOL0     H95933   8.730  12.641   2.621 -1.4724  2.3996 -3.9511
  727MOL0     H95934   8.657  12.835   2.557 -3.2183 -1.4037  1.2874
  727MOL0     H95935   8.749  12.921   2.692  1.3356 -0.8939 -0.3676
  727MOL0     H95936   8.544  12.711   2.752 -0.9999  0.0034 -1.4129
  727MOL0     H95937   8.631  12.822   2.856  0.4764 -1.1696 -1.1443
  727MOL0     H95938   8.389  12.899   2.791  0.5774  1.4806 -0.3064
  727MOL0     H95939   8.445  12.921   2.635 -0.5832 -1.7397  0.5765
  727MOL0     H95940   8.626  13.055   2.821 -0.2961 -1.2820  2.9497
  727MOL0     H95941   8.479  13.075   2.896  0.5589 -2.2982  2.1239
  727MOL0     H95942   8.561  13.262   2.701  1.1390  1.1310 -0.0587
  727MOL0     H95943   8.564  13.128   2.598  1.5841  3.2082 -0.1477
  727MOL0     H95944   8.290  13.129   2.622 -0.3802 -0.0971  1.6725
  727MOL0     H95945   8.363  13.264   2.554 -0.0491 -1.3884 -0.3482
  727MOL0     H95946   8.845  12.526   2.349  0.6357 -0.0867 -0.1824
  727MOL0     H95947   8.830  12.275   2.310  0.6437  0.4451 -1.2839
  727MOL0     H95948   9.021  11.931   2.234 -3.5902  2.7144  1.0856
  727MOL0     H95949   9.039  11.694   2.168  1.8432 -1.5823  2.1041
  727MOL0     H95950   8.510  10.493   2.052 -2.8951  2.1653 -0.9455
  727MOL0     H95951   8.541  10.438   1.815  0.7705 -1.4962 -0.5751
  727MOL0     H95952   8.305  10.139   1.488 -1.1708  3.9785 -1.7498
  727MOL0     H95953   8.290  10.111   1.242 -1.0860  1.8334 -0.0674
  727MOL0     H95954   8.315  10.158   1.028 -0.8942  0.8730 -1.2272
  727MOL0     H95955   8.375   9.982   1.023  1.5290 -0.4229 -1.2600
  727MOL0     H95956   8.429  10.226   0.848 -0.7372  1.0699  2.4582
  727MOL0     H95957   8.500  10.057   0.835 -0.7159 -1.2881  0.2167
  727MOL0     H95958   8.207  10.149   0.802 -0.1580 -0.8268  1.0679
  727MOL0     H95959   8.276   9.986   0.786  3.8455 -2.9543 -0.3278
  727MOL0     H95960   8.217  10.148   0.561 -1.8877  3.1261  2.7133
  727MOL0     H95961   8.365  10.231   0.625  2.1126 -1.3286 -0.9535
  727MOL0     H95962   8.486   9.853   0.433  1.8047  0.3186  1.5952
  727MOL0     H95963   8.700  10.206   1.194 -0.1634  1.0427 -0.3312
  727MOL0     H95964   8.702  10.284   1.439 -0.9501  2.8442 -0.0454
  728MOL0     O95965   3.017   8.222  10.868  0.0236 -0.0502 -0.3486
  728MOL0     C95966   3.084   8.214  10.765  1.0263  0.2963 -0.5645
  728MOL0     O95967   3.093   8.312  10.665 -0.1302  0.5542  0.3347
  728MOL0     C95968   3.009   8.421  10.661 -0.0085  0.7205  0.5662
  728MOL0     C95969   2.872   8.405  10.688 -0.4439  0.2241  0.7258
  728MOL0     C95970   2.790   8.518  10.698  0.0732 -0.2889 -0.4568
  728MOL0     C95971   2.841   8.645  10.672 -0.3393 -0.8024  0.6301
  728MOL0     O95972   2.765   8.755  10.650  0.0370 -0.7508 -0.1633
  728MOL0     C95973   2.621   8.737  10.637 -0.4357 -0.3570 -0.8962
  728MOL0     C95974   2.545   8.860  10.599 -0.2020  0.4249 -0.1644
  728MOL0     C95975   2.508   8.942  10.718 -0.8693 -0.1159 -0.8558
  728MOL0     C95976   2.433   9.071  10.690  0.7807  0.0883 -0.3489
  728MOL0     C95977   2.429   9.171  10.799 -0.7414  0.0369  0.1390
  728MOL0     C95978   2.373   9.298  10.742 -0.1477 -0.4690 -0.3862
  728MOL0     C95979   2.362   9.407  10.859 -0.2514 -0.0626 -0.3569
  728MOL0     C95980   2.263   9.508  10.811  0.1507 -0.0157  0.3104
  728MOL0     N95981   2.257   9.618  10.909  0.3682 -0.3149  0.4158
  728MOL0     C95982   2.311   9.748  10.887 -0.5712  0.1438 -0.1617
  728MOL0     C95983   2.301   9.806  11.003 -0.4525 -0.6738 -0.1758
  728MOL0     C95984   2.340   9.948  11.031  0.4669 -0.3525  1.1781
  728MOL0     C95985   2.263   9.991  11.156  0.1158 -1.0612  0.3241
  728MOL0     C95986   2.296  10.132  11.207 -0.2339  1.2208 -0.1585
  728MOL0     C95987   2.314  10.233  11.100  0.2554  0.3181 -0.0869
  728MOL0     O95988   2.347  10.357  11.157 -0.0155  0.1876  0.3754
  728MOL0     C95989   2.242  10.432  11.215  0.2672  0.4826 -0.1108
  728MOL0     C95990   2.301  10.539  11.281  0.6259 -0.6757  0.5193
  728MOL0     C95991   2.219  10.638  11.339 -0.0292  0.8162  0.3204
  728MOL0     C95992   2.080  10.632  11.337 -0.0497  0.1264  0.0850
  728MOL0     C95993   1.988  10.736  11.396 -0.1157 -0.0958  0.5025
  728MOL0     O95994   2.046  10.848  11.446  0.1855 -0.6059 -0.2457
  728MOL0     C95995   1.966  10.955  11.422 -0.4622 -0.9172  0.4290
  728MOL0     C95996   1.911  10.989  11.299 -0.3968 -0.2831 -0.4070
  728MOL0     C95997   1.820  11.099  11.288  0.1325  0.1482  0.4020
  728MOL0     C95998   1.771  11.161  11.400  0.1962  0.8541  0.0425
  728MOL0     O95999   1.680  11.261  11.382  0.1510 -0.1492  0.1160
  728MOL0     C96000   1.586  11.271  11.494 -0.1464 -0.3206  0.3844
  728MOL0     C96001   1.467  11.363  11.495 -0.1784 -0.1203  0.3572
  728MOL0     C96002   1.500  11.515  11.470  0.2427 -0.4414 -1.1352
  728MOL0     C96003   1.359  11.585  11.486 -0.7193 -0.9094 -0.2172
  728MOL0     C96004   1.340  11.730  11.428 -0.6589  0.7922 -0.1448
  728MOL0     C96005   1.428  11.827  11.518 -0.9694 -0.6139  0.4547
  728MOL0     C96006   1.376  11.964  11.474 -0.6948  0.1911  0.1454
  728MOL0     C96007   1.424  12.076  11.563  0.1806  0.1418 -0.4392
  728MOL0    Cl96008   1.331  12.073  11.715 -0.2623  0.3564  0.0530
  728MOL0     C96009   1.827  11.129  11.529 -0.2091 -0.6132  0.9400
  728MOL0     C96010   1.928  11.033  11.532 -1.2179  0.5380  0.8295
  728MOL0     O96011   1.865  10.715  11.388 -0.0081  0.4702  0.3299
  728MOL0     C96012   2.019  10.523  11.268  0.4764 -0.3744 -0.7823
  728MOL0     C96013   2.096  10.416  11.219  0.7391  0.0326 -0.0383
  728MOL0     N96014   2.218   9.732  11.088 -0.7231  0.5095  0.0305
  728MOL0     N96015   2.188   9.610  11.024  0.5915 -1.0096 -0.1231
  728MOL0     C96016   2.974   8.649  10.631 -0.2302 -0.2148  1.2402
  728MOL0     C96017   3.069   8.550  10.629 -0.5518 -0.3163 -0.4084
  728MOL0     C96018   3.166   8.087  10.750 -0.3968 -0.7773 -0.4299
  728MOL0     C96019   3.263   8.070  10.644 -0.0111 -0.3908 -0.3707
  728MOL0     C96020   3.337   7.956  10.639 -0.7658  0.0015  0.3203
  728MOL0     C96021   3.318   7.843  10.718 -0.8090 -0.1116 -0.0424
  728MOL0     O96022   3.392   7.731  10.693  0.5620  0.2672 -0.0125
  728MOL0     C96023   3.406   7.629  10.788  0.5186  0.1219  0.0568
  728MOL0     C96024   3.536   7.552  10.761  0.4061 -0.9885  0.3896
  728MOL0     C96025   3.567   7.510  10.616  0.3516 -0.4574 -1.1366
  728MOL0     C96026   3.587   7.361  10.610  0.5856  0.9625  0.7372
  728MOL0     C96027   3.617   7.322  10.475  0.2702 -0.1093  0.1181
  728MOL0     C96028   3.651   7.271  10.365 -0.2876  0.7187  0.1147
  728MOL0     C96029   3.226   7.858  10.815  0.5133  0.9788  0.1643
  728MOL0     C96030   3.148   7.974  10.838  0.0021 -0.0203 -0.3027
  728MOL0     H96031   2.836   8.303  10.700  0.8388 -0.0518  2.6085
  728MOL0     H96032   2.685   8.506  10.723 -0.3957 -0.3329 -2.2919
  728MOL0     H96033   2.578   8.708  10.733  1.5815  0.6936  0.4119
  728MOL0     H96034   2.607   8.666  10.555 -0.7231  0.5329 -1.6344
  728MOL0     H96035   2.456   8.836  10.541 -0.4454 -0.6537  0.6381
  728MOL0     H96036   2.599   8.918  10.523  1.7798  1.5287  1.9638
  728MOL0     H96037   2.603   8.975  10.760  0.4893 -1.1578 -2.9055
  728MOL0     H96038   2.459   8.883  10.796  2.7692 -1.7174  0.4721
  728MOL0     H96039   2.478   9.103  10.596  2.3703 -1.8183 -0.3048
  728MOL0     H96040   2.333   9.045  10.656  1.5350 -2.8026 -0.6437
  728MOL0     H96041   2.526   9.197  10.841 -1.3560  0.7621  1.1499
  728MOL0     H96042   2.377   9.130  10.885  0.9591  1.7503  2.0870
  728MOL0     H96043   2.277   9.278  10.694 -0.0199  1.4568 -1.5223
  728MOL0     H96044   2.430   9.345  10.662 -0.4097 -2.2171 -1.6573
  728MOL0     H96045   2.326   9.355  10.948  2.6340 -1.0552  0.3296
  728MOL0     H96046   2.458   9.453  10.883  0.0335  0.6012 -2.5291
  728MOL0     H96047   2.165   9.465  10.787  1.1042 -1.6398 -0.8924
  728MOL0     H96048   2.299   9.553  10.718  0.3058  0.1088  0.4288
  728MOL0     H96049   2.368   9.794  10.806  2.0924  0.9395  1.9890
  728MOL0     H96050   2.322  10.007  10.941 -0.7882  2.9646  3.3910
  728MOL0     H96051   2.448   9.948  11.051  1.1456  0.8224 -1.8996
  728MOL0     H96052   2.292   9.923  11.236 -1.4858 -3.4243 -0.9680
  728MOL0     H96053   2.157   9.988  11.130  0.2194 -1.8714 -0.0232
  728MOL0     H96054   2.215  10.163  11.273  0.9434  2.8038  0.6101
  728MOL0     H96055   2.384  10.132  11.272  0.2302 -0.9721 -0.6658
  728MOL0     H96056   2.219  10.247  11.047 -0.5503 -1.1820  0.9029
  728MOL0     H96057   2.395  10.198  11.036  0.9587 -0.8992  1.4022
  728MOL0     H96058   2.409  10.542  11.289  0.5428 -1.2020  2.0379
  728MOL0     H96059   2.263  10.720  11.394 -0.5898  0.9785  0.5325
  728MOL0     H96060   1.933  10.944  11.202 -1.2996 -1.4727 -0.0885
  728MOL0     H96061   1.774  11.114  11.190  0.9833 -3.4915 -0.7030
  728MOL0     H96062   1.641  11.295  11.586  0.6538  2.7968 -0.8034
  728MOL0     H96063   1.548  11.168  11.497  0.7296 -0.6564  0.1808
  728MOL0     H96064   1.410  11.342  11.586  0.2149  2.3511  1.2376
  728MOL0     H96065   1.416  11.327  11.406  1.1687  0.7113 -0.7845
  728MOL0     H96066   1.537  11.524  11.367  1.4871 -0.1596 -0.6865
  728MOL0     H96067   1.573  11.548  11.545 -0.1786 -0.5419 -0.6711
  728MOL0     H96068   1.283  11.522  11.437 -1.0078 -0.1705 -0.7367
  728MOL0     H96069   1.341  11.583  11.593 -0.2244 -0.6639 -0.1250
  728MOL0     H96070   1.234  11.754  11.438 -0.3080  2.1911  0.3865
  728MOL0     H96071   1.364  11.740  11.322  1.8637 -1.2520  0.1168
  728MOL0     H96072   1.537  11.824  11.505 -0.9877 -0.7018  0.3187
  728MOL0     H96073   1.409  11.798  11.621  2.1277 -0.1252  1.2748
  728MOL0     H96074   1.406  11.982  11.370  0.7698 -0.8909  0.3312
  728MOL0     H96075   1.268  11.972  11.481 -0.5116  1.5826  4.8812
  728MOL0     H96076   1.416  12.174  11.516 -0.0481  1.0558  1.4029
  728MOL0     H96077   1.532  12.063  11.568  0.3610  1.2468 -1.1213
  728MOL0     H96078   1.810  11.189  11.618  0.3992  1.8711 -0.5217
  728MOL0     H96079   1.962  11.009  11.633 -0.6568 -2.5756  0.0136
  728MOL0     H96080   1.911  10.509  11.270  0.2998  0.9560  0.3710
  728MOL0     H96081   2.054  10.325  11.178  1.7671 -1.6523  2.4049
  728MOL0     H96082   3.015   8.742  10.592  0.9985 -0.7184  1.2693
  728MOL0     H96083   3.174   8.576  10.616 -0.4747  0.5226  1.5569
  728MOL0     H96084   3.293   8.142  10.569 -1.6075  1.6266  0.7990
  728MOL0     H96085   3.421   7.957  10.570 -1.4928 -4.1194 -0.9111
  728MOL0     H96086   3.319   7.563  10.796  1.1425 -0.7221 -0.0176
  728MOL0     H96087   3.410   7.677  10.886 -0.3549  1.8093 -0.6767
  728MOL0     H96088   3.617   7.621  10.785 -0.5791  1.3464 -2.4612
  728MOL0     H96089   3.549   7.467  10.829 -1.3608 -2.2326 -0.7554
  728MOL0     H96090   3.641   7.567  10.558 -0.1622 -1.8528 -3.3070
  728MOL0     H96091   3.473   7.531  10.563 -0.7825  1.4157  1.4464
  728MOL0     H96092   3.662   7.315  10.676  1.6373  2.9295  0.9979
  728MOL0     H96093   3.487   7.322  10.629  0.6046 -0.1862 -1.3043
  728MOL0     H96094   3.685   7.228  10.273 -2.9268 -2.3019  0.3968
  728MOL0     H96095   3.207   7.771  10.877 -2.5393  1.7324  0.4538
  728MOL0     H96096   3.073   7.980  10.916 -0.0148 -0.4631 -0.2835
  729MOL0     O96097  10.431   3.196   7.826  0.4162 -0.1313  0.0313
  729MOL0     C96098  10.425   3.316   7.804  0.4043  0.4736 -0.6344
  729MOL0     O96099  10.529   3.402   7.835 -0.2061 -0.8446  0.2089
  729MOL0     C96100  10.647   3.353   7.872 -0.0471  0.1301  0.3335
  729MOL0     C96101  10.701   3.363   8.000 -0.8551  0.3181 -0.9822
  729MOL0     C96102  10.837   3.324   8.022 -0.5973 -0.1021 -0.3016
  729MOL0     C96103  10.915   3.278   7.921 -0.3936 -0.4506  0.4603
  729MOL0     O96104  11.053   3.254   7.952 -0.3732 -0.1934  0.3610
  729MOL0     C96105  11.148   3.237   7.844 -0.7428 -0.2569  0.3436
  729MOL0     C96106  11.278   3.245   7.927 -1.4787  0.1904 -0.0869
  729MOL0     C96107  11.388   3.174   7.846 -0.9300 -0.9713  0.5476
  729MOL0     C96108  11.531   3.196   7.888 -0.9736 -0.9402  0.3743
  729MOL0     C96109  11.641   3.111   7.816  0.5752 -0.1433  0.3432
  729MOL0     C96110  11.783   3.164   7.822 -0.3203 -1.1996  0.6377
  729MOL0     C96111  11.830   3.206   7.960 -0.4934  1.7974  0.2034
  729MOL0     C96112  11.986   3.209   7.963  0.1146  0.3265  0.5722
  729MOL0     N96113  12.056   3.077   7.965  1.4518 -0.4773 -0.0951
  729MOL0     C96114  12.167   3.043   7.896  0.9397  0.2269  0.3853
  729MOL0     C96115  12.205   2.925   7.960 -0.4954  1.1378 -0.0728
  729MOL0     C96116  12.334   2.850   7.927 -0.0917  0.1871  0.0364
  729MOL0     C96117  12.419   2.822   8.043 -0.6389 -0.0477 -0.3732
  729MOL0     C96118  12.478   2.938   8.110 -0.4411 -0.5357 -0.3674
  729MOL0     C96119  12.579   2.887   8.210 -0.7890 -0.5672 -0.1512
  729MOL0     O96120  12.639   3.002   8.281 -0.0562 -0.0907 -0.1770
  729MOL0     C96121  12.694   3.103   8.212 -1.1579  0.1546  0.4848
  729MOL0     C96122  12.650   3.232   8.231  0.2904 -0.6915  0.6720
  729MOL0     C96123  12.703   3.339   8.167 -0.3384  0.8369 -0.6769
  729MOL0     C96124  12.812   3.333   8.072  0.1370  0.1777  0.4932
  729MOL0     C96125  12.858   3.455   8.003  0.1119 -0.3398  0.2091
  729MOL0     O96126  12.837   3.576   8.065  0.0774 -0.5343 -0.5107
  729MOL0     C96127  12.907   3.692   8.041  0.2356  0.0556 -0.6143
  729MOL0     C96128  12.927   3.744   7.911 -0.0912  0.0008  0.0416
  729MOL0     C96129  13.008   3.863   7.901  0.1363  0.4491 -0.0646
  729MOL0     C96130  13.055   3.919   8.023 -0.4305  0.4946  0.5592
  729MOL0     O96131  13.091   4.053   8.023  0.1294 -0.5937 -0.5665
  729MOL0     C96132  13.132   4.125   7.909 -0.4820  0.8818 -0.6250
  729MOL0     C96133  13.279   4.098   7.872 -0.3825  0.1790 -0.5779
  729MOL0     C96134  13.328   4.201   7.773 -0.3639 -0.2551  0.3122
  729MOL0     C96135  13.462   4.173   7.711 -0.8190  0.0969 -0.1995
  729MOL0     C96136  13.483   4.290   7.603  0.3162 -0.0110 -0.1169
  729MOL0     C96137  13.605   4.278   7.524 -0.9533  0.0032 -0.6076
  729MOL0     C96138  13.612   4.361   7.396 -0.2792  0.0645 -0.9255
  729MOL0     C96139  13.539   4.499   7.403  0.0011 -0.2552  0.8571
  729MOL0    Cl96140  13.547   4.615   7.259  0.0287  0.1445  0.6904
  729MOL0     C96141  13.031   3.865   8.138 -0.2574 -0.7228  0.1059
  729MOL0     C96142  12.954   3.756   8.150  0.6299  0.8966  0.1020
  729MOL0     O96143  12.933   3.444   7.901 -0.3225 -0.1521 -0.5769
  729MOL0     C96144  12.842   3.195   8.043 -0.0842  0.0671  0.0918
  729MOL0     C96145  12.798   3.085   8.117 -0.0262 -0.5398 -0.0688
  729MOL0     N96146  12.126   2.889   8.065 -0.3697 -0.1100  0.1637
  729MOL0     N96147  12.038   2.986   8.071 -0.2392  0.2842  0.3149
  729MOL0     C96148  10.854   3.258   7.800  0.5138 -0.2352  0.6623
  729MOL0     C96149  10.721   3.295   7.770  0.6096 -1.1893  0.6187
  729MOL0     C96150  10.290   3.376   7.755  0.7857  0.1608  0.0315
  729MOL0     C96151  10.182   3.287   7.755  0.6649  0.3145 -0.2463
  729MOL0     C96152  10.059   3.342   7.718 -0.4081 -0.5026  0.4355
  729MOL0     C96153  10.054   3.464   7.658 -0.1024  0.1767  0.0205
  729MOL0     O96154   9.944   3.531   7.614 -0.6259  0.2661 -0.5924
  729MOL0     C96155   9.817   3.470   7.608  0.0892 -0.5845  0.0689
  729MOL0     C96156   9.699   3.558   7.656 -0.7594 -1.1927 -0.2004
  729MOL0     C96157   9.722   3.600   7.800 -0.2476  0.0219 -0.9379
  729MOL0     C96158   9.722   3.482   7.899  0.2782  0.1495  0.0747
  729MOL0     C96159   9.721   3.543   8.039  0.6949 -0.0006 -0.3565
  729MOL0     C96160   9.707   3.605   8.138 -0.1348  0.0125  0.1856
  729MOL0     C96161  10.157   3.549   7.662 -1.0878 -0.1839 -0.2918
  729MOL0     C96162  10.280   3.503   7.713 -0.3826 -0.1910  0.0878
  729MOL0     H96163  10.641   3.402   8.083  0.6465 -0.8242  0.7049
  729MOL0     H96164  10.882   3.337   8.120 -0.6798 -2.6944  0.1345
  729MOL0     H96165  11.147   3.318   7.769 -0.8804 -1.4819 -1.0260
  729MOL0     H96166  11.140   3.136   7.802  2.7031 -1.1912  1.5845
  729MOL0     H96167  11.278   3.193   8.023 -0.7347 -0.5331 -0.4644
  729MOL0     H96168  11.305   3.348   7.951  0.6173 -0.2824 -0.1629
  729MOL0     H96169  11.367   3.194   7.741 -1.7486 -1.3516  0.6289
  729MOL0     H96170  11.379   3.066   7.861  0.6180 -1.4575 -1.6189
  729MOL0     H96171  11.561   3.295   7.853 -1.5442 -0.6173  0.7919
  729MOL0     H96172  11.555   3.188   7.994  0.7642  1.0120  0.1960
  729MOL0     H96173  11.611   3.108   7.711  1.7154  2.5680 -0.1322
  729MOL0     H96174  11.653   3.011   7.860  1.5897  0.9094  2.6154
  729MOL0     H96175  11.783   3.259   7.767  0.7259 -1.5225  0.0567
  729MOL0     H96176  11.834   3.089   7.762  1.0240 -0.8431  1.2996
  729MOL0     H96177  11.806   3.308   7.993 -4.0017  1.0143  0.5017
  729MOL0     H96178  11.795   3.131   8.032 -2.2824  2.2952 -0.0935
  729MOL0     H96179  12.023   3.264   8.051 -0.9163 -3.5395  3.7238
  729MOL0     H96180  12.024   3.259   7.874 -1.3363  1.9140  0.7677
  729MOL0     H96181  12.203   3.096   7.808 -2.0359 -0.0509 -1.1150
  729MOL0     H96182  12.399   2.905   7.859  0.2144  3.7246  2.8436
  729MOL0     H96183  12.296   2.753   7.895 -0.4897  0.3670 -0.0445
  729MOL0     H96184  12.498   2.753   8.013 -0.6120 -0.0084 -0.3929
  729MOL0     H96185  12.355   2.768   8.113  1.8515  0.2871  2.3189
  729MOL0     H96186  12.526   3.014   8.048 -2.5542  2.4457  1.3526
  729MOL0     H96187  12.397   2.991   8.161  3.2143  1.6290  3.8550
  729MOL0     H96188  12.652   2.816   8.170 -0.0055 -0.5838  1.2236
  729MOL0     H96189  12.540   2.826   8.293 -0.9035 -0.6372 -0.2541
  729MOL0     H96190  12.559   3.253   8.287 -0.0012 -0.2530  0.0524
  729MOL0     H96191  12.664   3.434   8.202  0.3672 -0.0594  2.9627
  729MOL0     H96192  12.908   3.690   7.819 -1.3718  0.9505 -0.2789
  729MOL0     H96193  13.012   3.902   7.800 -0.6618  0.9747  0.0946
  729MOL0     H96194  13.117   4.230   7.936  0.2742  0.4032  1.9469
  729MOL0     H96195  13.068   4.119   7.821 -0.6220 -1.9028 -0.4411
  729MOL0     H96196  13.297   3.999   7.830 -1.4855 -1.1383  1.8347
  729MOL0     H96197  13.329   4.105   7.969 -1.2145 -3.7105  0.2962
  729MOL0     H96198  13.316   4.294   7.829  0.0493  0.9865 -1.5685
  729MOL0     H96199  13.261   4.201   7.687 -1.4752  1.1971  1.1305
  729MOL0     H96200  13.550   4.171   7.777 -0.0932 -2.6726 -1.1047
  729MOL0     H96201  13.468   4.074   7.665  2.1668 -0.2780  0.7331
  729MOL0     H96202  13.482   4.378   7.668  0.5396 -0.0198 -0.1031
  729MOL0     H96203  13.400   4.297   7.531  2.3622  3.1973 -2.4202
  729MOL0     H96204  13.613   4.170   7.509  0.2452 -0.0455  0.2254
  729MOL0     H96205  13.687   4.305   7.592 -0.6835 -1.4937 -0.3192
  729MOL0     H96206  13.718   4.374   7.373  0.0983 -0.0600  0.6428
  729MOL0     H96207  13.571   4.300   7.315  1.5173  0.6938 -2.3996
  729MOL0     H96208  13.585   4.551   7.488 -1.5501 -0.7465  2.0315
  729MOL0     H96209  13.433   4.477   7.410 -0.7397  1.7725 -2.1051
  729MOL0     H96210  13.082   3.908   8.224  1.4057  0.7702 -1.5490
  729MOL0     H96211  12.928   3.717   8.248 -0.2462  2.0208  0.3445
  729MOL0     H96212  12.916   3.176   7.966  0.5473  1.6906  0.2615
  729MOL0     H96213  12.831   2.986   8.088  1.4110  0.1646 -0.9559
  729MOL0     H96214  10.916   3.200   7.732  0.7212 -4.6069  4.1394
  729MOL0     H96215  10.676   3.295   7.672 -1.5060  3.4079  1.3025
  729MOL0     H96216  10.192   3.184   7.787  4.7304  0.7805  0.5898
  729MOL0     H96217   9.976   3.272   7.722 -1.1411  0.1302 -2.1376
  729MOL0     H96218   9.807   3.372   7.653 -0.3645  0.4265  2.2829
  729MOL0     H96219   9.816   3.450   7.500  1.7679  0.6128 -0.2211
  729MOL0     H96220   9.705   3.639   7.583  5.1487 -1.9689 -1.0032
  729MOL0     H96221   9.615   3.489   7.642  0.1955 -1.9962 -2.2045
  729MOL0     H96222   9.642   3.669   7.828 -0.2887  0.3173 -1.7649
  729MOL0     H96223   9.822   3.646   7.802  0.6728 -1.8770  0.1166
  729MOL0     H96224   9.628   3.428   7.886  0.2959 -0.4315  1.9756
  729MOL0     H96225   9.805   3.410   7.898 -0.6642 -1.0374  1.7716
  729MOL0     H96226   9.678   3.669   8.220 -0.4673  3.5389 -2.4480
  729MOL0     H96227  10.156   3.652   7.629 -1.5843 -1.1452 -3.6770
  729MOL0     H96228  10.366   3.566   7.734 -0.8391  1.2919 -2.1134
  730MOL0     O96229   3.949   6.189   9.605  0.1533 -0.7641  0.0377
  730MOL0     C96230   4.039   6.147   9.680 -0.2636  0.4094 -0.4581
  730MOL0     O96231   4.088   6.209   9.783  0.1298 -0.4688  0.4165
  730MOL0     C96232   4.076   6.348   9.792  0.0956 -0.4132  0.1148
  730MOL0     C96233   4.002   6.400   9.895 -0.9177  0.1193 -0.6459
  730MOL0     C96234   4.024   6.533   9.924 -0.8382 -0.1599  0.5720
  730MOL0     C96235   4.109   6.615   9.847  0.4422 -0.1292  0.3628
  730MOL0     O96236   4.117   6.751   9.858  0.5478  0.1124  0.1444
  730MOL0     C96237   4.085   6.827   9.967  0.1937  1.0669  0.8740
  730MOL0     C96238   4.107   6.969   9.930  0.4547  0.3022  0.0101
  730MOL0     C96239   4.247   7.016   9.957  0.4202  1.1680  0.1616
  730MOL0     C96240   4.279   7.039  10.104  0.3163  0.3296  0.6230
  730MOL0     C96241   4.433   7.050  10.111 -0.5330 -0.7062 -0.4360
  730MOL0     C96242   4.471   7.187  10.064  0.0684 -0.0083 -0.2269
  730MOL0     C96243   4.623   7.205  10.081 -0.6642  0.4795 -0.8221
  730MOL0     C96244   4.682   7.349  10.069 -0.4784  1.0787  0.7423
  730MOL0     N96245   4.680   7.408   9.936 -0.1373 -0.7659 -0.3830
  730MOL0     C96246   4.569   7.471   9.900 -0.9777  0.1482  0.2218
  730MOL0     C96247   4.612   7.536   9.793  0.2166 -0.2179 -0.0201
  730MOL0     C96248   4.530   7.625   9.718 -0.0840 -0.7314  0.0375
  730MOL0     C96249   4.385   7.584   9.694 -1.0834 -0.0782 -0.0264
  730MOL0     C96250   4.394   7.462   9.591  0.7285 -0.5328 -0.4066
  730MOL0     C96251   4.254   7.408   9.574  0.4470  0.1776 -0.2401
  730MOL0     O96252   4.250   7.276   9.622 -0.8485 -0.2696  0.2104
  730MOL0     C96253   4.301   7.172   9.547  0.1945 -0.0579 -0.6038
  730MOL0     C96254   4.389   7.167   9.428  0.6818  0.1025  0.3832
  730MOL0     C96255   4.431   7.048   9.371 -0.6359 -0.6831  0.1653
  730MOL0     C96256   4.389   6.926   9.415 -0.2491  0.5237  0.8796
  730MOL0     C96257   4.452   6.801   9.360  0.3779 -0.1794  0.5883
  730MOL0     O96258   4.403   6.677   9.405 -0.5435 -0.2141  0.7497
  730MOL0     C96259   4.473   6.564   9.368 -0.8387  1.0596 -0.1270
  730MOL0     C96260   4.420   6.497   9.260  0.9703  1.0110 -0.0114
  730MOL0     C96261   4.481   6.372   9.218 -0.6632 -0.3999 -0.4429
  730MOL0     C96262   4.598   6.319   9.281  0.7244 -0.9020  0.8501
  730MOL0     O96263   4.674   6.216   9.259  0.1296  0.3453  0.2835
  730MOL0     C96264   4.638   6.134   9.148 -0.0634 -0.2059 -0.8468
  730MOL0     C96265   4.729   6.003   9.166  0.3634 -0.5190 -0.1690
  730MOL0     C96266   4.874   6.026   9.131  0.1905 -0.5235  0.2682
  730MOL0     C96267   4.951   5.903   9.158  0.7557  1.2781 -0.4504
  730MOL0     C96268   5.090   5.907   9.107 -1.3030 -0.0934  0.6281
  730MOL0     C96269   5.160   5.762   9.103 -0.3432  0.2141 -0.5504
  730MOL0     C96270   5.307   5.776   9.058  0.4945 -0.1932  0.6607
  730MOL0     C96271   5.399   5.650   9.057 -0.8356  0.5699  0.4620
  730MOL0    Cl96272   5.480   5.634   8.890 -0.4585 -0.0092  0.1075
  730MOL0     C96273   4.646   6.393   9.392  0.1616  0.0687  0.1468
  730MOL0     C96274   4.579   6.506   9.435 -0.0089 -0.0043 -0.4976
  730MOL0     O96275   4.537   6.821   9.274 -0.2841  0.0210 -0.1798
  730MOL0     C96276   4.294   6.927   9.513  0.3485 -0.4842  0.5835
  730MOL0     C96277   4.243   7.047   9.573  0.3900 -0.5097  0.0298
  730MOL0     N96278   4.746   7.511   9.772  0.9256  0.3600  0.1980
  730MOL0     N96279   4.789   7.430   9.863 -0.5589 -0.3583 -0.1515
  730MOL0     C96280   4.168   6.566   9.737 -0.2206  1.0320 -0.1713
  730MOL0     C96281   4.149   6.431   9.703 -1.2108  0.4052  0.2309
  730MOL0     C96282   4.089   6.015   9.647  0.3173  0.6006  0.6112
  730MOL0     C96283   4.063   5.955   9.519 -0.7415  0.2589  0.3052
  730MOL0     C96284   4.104   5.825   9.491  1.4515  1.3592  0.7518
  730MOL0     C96285   4.171   5.751   9.590 -0.1063  0.4805 -0.1110
  730MOL0     O96286   4.208   5.621   9.584  0.1334  0.9070  0.0886
  730MOL0     C96287   4.130   5.528   9.507  0.0333 -0.6324  0.7334
  730MOL0     C96288   3.981   5.518   9.533  0.0827 -0.1550 -1.2497
  730MOL0     C96289   3.891   5.503   9.410 -0.3941  0.0286 -0.2127
  730MOL0     C96290   3.750   5.470   9.440  0.7900  0.6702  0.2231
  730MOL0     C96291   3.709   5.343   9.516 -0.2347 -0.1408  0.0625
  730MOL0     C96292   3.659   5.248   9.572 -0.1238 -1.3468 -0.4617
  730MOL0     C96293   4.190   5.810   9.718 -0.1508 -0.6610 -0.0625
  730MOL0     C96294   4.142   5.934   9.746  0.7607  0.2459 -0.3238
  730MOL0     H96295   3.933   6.333   9.946 -1.8207  2.6095  1.6485
  730MOL0     H96296   3.963   6.578  10.002 -2.9543 -0.1005 -0.9973
  730MOL0     H96297   4.136   6.794  10.059  0.7031 -0.1616  0.1746
  730MOL0     H96298   3.979   6.808   9.980  0.6027 -1.4602  1.0338
  730MOL0     H96299   4.037   7.022   9.996 -1.5394 -2.0469 -0.0580
  730MOL0     H96300   4.087   6.999   9.827 -1.1543  0.7336  0.4169
  730MOL0     H96301   4.276   7.099   9.892  1.1046  1.9713  1.4262
  730MOL0     H96302   4.310   6.932   9.926 -2.0630 -1.6471  2.1799
  730MOL0     H96303   4.216   7.120  10.140  0.7113  2.1773 -2.5069
  730MOL0     H96304   4.254   6.949  10.161  1.0293  0.2306  0.7917
  730MOL0     H96305   4.484   6.977  10.047 -0.2750 -1.0617  0.1724
  730MOL0     H96306   4.469   7.035  10.213 -1.7547 -0.0973  0.1087
  730MOL0     H96307   4.431   7.262  10.132  0.8050  0.0425  0.1627
  730MOL0     H96308   4.440   7.216   9.963 -2.4359  1.3693  0.8430
  730MOL0     H96309   4.652   7.190  10.186 -0.0479 -1.2683 -1.2124
  730MOL0     H96310   4.687   7.133  10.030 -2.3844 -2.9472  1.4105
  730MOL0     H96311   4.788   7.340  10.098  0.0943 -1.9730 -1.7487
  730MOL0     H96312   4.635   7.417  10.140 -2.0067 -0.5855  1.4022
  730MOL0     H96313   4.474   7.461   9.951 -0.5974 -3.8691  0.4616
  730MOL0     H96314   4.589   7.632   9.627  2.6568 -0.2026  1.7490
  730MOL0     H96315   4.530   7.721   9.770  2.2847 -0.9139  0.4903
  730MOL0     H96316   4.325   7.670   9.662 -0.2118  0.4059 -0.3793
  730MOL0     H96317   4.342   7.539   9.784  2.5831 -2.6239  0.6523
  730MOL0     H96318   4.403   7.503   9.490  0.9118  3.4190  1.0477
  730MOL0     H96319   4.464   7.378   9.605 -0.6635 -1.8090 -0.8150
  730MOL0     H96320   4.236   7.398   9.466 -0.0881  0.7061 -0.2077
  730MOL0     H96321   4.179   7.472   9.622 -2.1463 -1.3755 -1.9161
  730MOL0     H96322   4.425   7.259   9.384  0.4928 -0.2301 -0.4887
  730MOL0     H96323   4.505   7.060   9.292 -2.2347 -0.6643 -1.3783
  730MOL0     H96324   4.341   6.535   9.196  0.7253  1.4690  0.5519
  730MOL0     H96325   4.431   6.326   9.134  0.3952 -2.2197 -0.1180
  730MOL0     H96326   4.660   6.180   9.051  0.0944 -0.0215 -0.7244
  730MOL0     H96327   4.534   6.103   9.159  0.9801 -3.2796  2.5663
  730MOL0     H96328   4.685   5.925   9.104  2.0475 -2.4300  0.9219
  730MOL0     H96329   4.720   5.960   9.267  1.4265 -1.8452 -0.6168
  730MOL0     H96330   4.918   6.108   9.188  0.0797 -0.3305  0.0809
  730MOL0     H96331   4.877   6.039   9.022 -1.3969  0.5949  0.3249
  730MOL0     H96332   4.955   5.876   9.264 -1.8127  0.5289 -0.4760
  730MOL0     H96333   4.898   5.816   9.117  0.6867  1.2395 -0.2822
  730MOL0     H96334   5.147   5.984   9.160 -2.1489  2.7769 -2.3338
  730MOL0     H96335   5.092   5.933   9.001  1.5285 -4.6381 -0.7513
  730MOL0     H96336   5.106   5.693   9.037  0.3924  0.1626 -1.1112
  730MOL0     H96337   5.162   5.714   9.201  1.3219 -1.4014 -1.3026
  730MOL0     H96338   5.316   5.816   8.956  3.9519  0.2686  1.0099
  730MOL0     H96339   5.360   5.852   9.116 -0.4688 -0.0468  1.3640
  730MOL0     H96340   5.348   5.553   9.062  2.8703 -1.6053 -0.0903
  730MOL0     H96341   5.456   5.647   9.150 -2.0492 -1.5455  1.2157
  730MOL0     H96342   4.726   6.357   9.456 -0.2469 -0.7347  0.2176
  730MOL0     H96343   4.618   6.556   9.523 -2.3387  3.9711 -1.4827
  730MOL0     H96344   4.254   6.830   9.542 -0.7579  0.4088  2.1614
  730MOL0     H96345   4.190   7.025   9.666  2.3143  2.6594  2.0552
  730MOL0     H96346   4.233   6.627   9.675 -1.5302  0.8815 -1.7488
  730MOL0     H96347   4.199   6.391   9.615  0.1527 -0.1748  1.2408
  730MOL0     H96348   4.021   6.012   9.436 -1.2174  0.5485  0.7352
  730MOL0     H96349   4.078   5.778   9.396  0.9119  1.7715  0.6865
  730MOL0     H96350   4.170   5.427   9.520 -0.7570 -1.1085 -0.3908
  730MOL0     H96351   4.147   5.551   9.401  0.1696 -0.0914  0.8680
  730MOL0     H96352   3.968   5.436   9.605 -2.7677  0.3348 -1.0651
  730MOL0     H96353   3.943   5.604   9.589 -1.8508 -1.3651 -0.5834
  730MOL0     H96354   3.925   5.417   9.351  0.1003 -1.0017  1.5097
  730MOL0     H96355   3.888   5.584   9.336  2.1428 -1.2004 -1.8043
  730MOL0     H96356   3.729   5.550   9.513  3.8695 -0.0829  2.1291
  730MOL0     H96357   3.675   5.473   9.361 -1.6884  0.1447  2.3946
  730MOL0     H96358   3.614   5.174   9.634 -2.1576 -1.2998 -1.7953
  730MOL0     H96359   4.227   5.742   9.793  1.3901 -1.5675 -1.5710
  730MOL0     H96360   4.142   5.978   9.845 -0.4435 -2.9047  1.1810
  731MOL0     O96361   5.189   5.038  11.246 -0.6113 -0.1989 -0.2687
  731MOL0     C96362   5.110   4.957  11.194  0.1183  0.4696 -0.0949
  731MOL0     O96363   5.062   4.852  11.258  0.6123 -0.4970 -0.4633
  731MOL0     C96364   5.094   4.832  11.385 -0.0844 -0.3080 -0.1873
  731MOL0     C96365   5.045   4.919  11.482 -0.2392  0.6353  0.0224
  731MOL0     C96366   5.082   4.908  11.616 -0.7328  0.2036 -1.0700
  731MOL0     C96367   5.159   4.790  11.656  0.0719  0.0822  0.2839
  731MOL0     O96368   5.189   4.784  11.788  0.3003 -0.6894  0.2596
  731MOL0     C96369   5.253   4.667  11.844  0.1132 -0.1718 -0.1791
  731MOL0     C96370   5.262   4.704  11.994 -0.2133 -0.4736  0.1272
  731MOL0     C96371   5.327   4.604  12.085 -0.2138 -0.1534  0.7586
  731MOL0     C96372   5.238   4.474  12.101 -0.5159  1.3976 -0.0493
  731MOL0     C96373   5.298   4.389  12.217  0.8098  0.1525  0.5337
  731MOL0     C96374   5.425   4.320  12.170  0.8827 -0.6824  0.3657
  731MOL0     C96375   5.474   4.213  12.256  0.7971 -0.5164  0.0384
  731MOL0     C96376   5.596   4.147  12.214 -0.0831 -1.3995 -0.6921
  731MOL0     N96377   5.632   4.031  12.303 -0.2185  0.1036 -0.8076
  731MOL0     C96378   5.757   3.977  12.323 -0.7089 -0.0527 -0.0384
  731MOL0     C96379   5.739   3.864  12.394  0.5013  0.7284  0.8238
  731MOL0     C96380   5.825   3.754  12.442 -0.6968  0.1779  0.7708
  731MOL0     C96381   5.947   3.828  12.502  0.0748  0.3750  1.3901
  731MOL0     C96382   6.071   3.736  12.523 -0.1866  0.9761 -0.1703
  731MOL0     C96383   6.188   3.797  12.596  0.3443  0.8077  1.0132
  731MOL0     O96384   6.139   3.857  12.719 -0.9444 -0.1267  0.0765
  731MOL0     C96385   6.176   3.991  12.747  0.1285 -0.6040 -0.1454
  731MOL0     C96386   6.096   4.068  12.834  0.4752 -0.0808 -0.6735
  731MOL0     C96387   6.093   4.207  12.834 -0.6286 -0.2664 -0.1758
  731MOL0     C96388   6.183   4.281  12.756  0.1819 -0.3240  0.5061
  731MOL0     C96389   6.189   4.429  12.752  0.3962  1.0163 -0.9882
  731MOL0     O96390   6.315   4.474  12.748 -0.4379 -0.7447  0.4220
  731MOL0     C96391   6.351   4.609  12.768 -0.5500  0.0677 -0.4968
  731MOL0     C96392   6.298   4.694  12.873  0.1938  0.1034  0.7923
  731MOL0     C96393   6.341   4.822  12.866 -0.1232 -0.1650  0.1920
  731MOL0     C96394   6.432   4.873  12.779 -0.7190  0.6637 -0.0184
  731MOL0     O96395   6.467   5.006  12.784 -0.4191 -0.1309 -0.2213
  731MOL0     C96396   6.535   5.054  12.667  0.3327 -0.7616  0.7429
  731MOL0     C96397   6.512   5.206  12.657  0.0025  0.0886 -0.0847
  731MOL0     C96398   6.586   5.257  12.537  0.1833 -0.2366  0.5668
  731MOL0     C96399   6.551   5.403  12.494  0.5808 -0.8941 -1.0005
  731MOL0     C96400   6.575   5.409  12.342 -0.4328 -0.1912 -0.2849
  731MOL0     C96401   6.545   5.539  12.286 -0.4583  0.1138  0.7153
  731MOL0     C96402   6.576   5.546  12.134 -0.1003  0.1684  0.3987
  731MOL0     C96403   6.701   5.629  12.105  0.6887 -0.4261 -0.0649
  731MOL0    Cl96404   6.665   5.805  12.153  0.2356  0.8149  0.6251
  731MOL0     C96405   6.497   4.785  12.684 -1.6214 -0.5105  0.5377
  731MOL0     C96406   6.455   4.649  12.689  0.5461  0.3342  0.6639
  731MOL0     O96407   6.089   4.491  12.749  0.4078 -1.1665  0.4414
  731MOL0     C96408   6.272   4.206  12.679  0.3248 -0.1233  0.8728
  731MOL0     C96409   6.271   4.064  12.681 -0.2671  0.3069 -0.2661
  731MOL0     N96410   5.599   3.847  12.405  0.2129  0.2280 -0.2721
  731MOL0     N96411   5.543   3.938  12.344  0.0837  0.6699  0.1600
  731MOL0     C96412   5.208   4.711  11.554 -0.2269 -0.7163 -0.2038
  731MOL0     C96413   5.183   4.739  11.417  0.6726  0.8287 -0.2704
  731MOL0     C96414   5.080   4.995  11.055  0.4899 -0.6803 -0.4007
  731MOL0     C96415   4.977   4.933  10.983 -0.5280 -0.5463  1.0759
  731MOL0     C96416   4.936   4.960  10.849  0.5452  0.1781 -0.7814
  731MOL0     C96417   5.014   5.058  10.774 -0.2745  0.8519  0.8902
  731MOL0     O96418   4.988   5.101  10.655 -0.2062 -0.7351 -0.8428
  731MOL0     C96419   4.878   5.032  10.590 -0.0600 -0.3629  0.3197
  731MOL0     C96420   4.886   5.067  10.438  1.2924  0.1310  0.0743
  731MOL0     C96421   4.793   4.977  10.363  0.6967 -0.1548  0.2590
  731MOL0     C96422   4.801   5.002  10.213  0.3162  1.1807  0.1857
  731MOL0     C96423   4.735   4.887  10.141  0.9343 -0.0905 -1.1105
  731MOL0     C96424   4.695   4.792  10.081  0.1181  0.2169 -0.9134
  731MOL0     C96425   5.115   5.124  10.846  1.1503 -0.5357  0.5301
  731MOL0     C96426   5.140   5.098  10.979 -1.1259 -1.2321 -0.6742
  731MOL0     H96427   4.972   4.996  11.465 -0.4910  0.5502  0.6858
  731MOL0     H96428   5.062   4.982  11.692 -0.0906 -0.6318 -0.0447
  731MOL0     H96429   5.355   4.664  11.805 -0.7746 -0.9945 -2.6284
  731MOL0     H96430   5.193   4.580  11.816 -1.5871  2.1240 -4.7713
  731MOL0     H96431   5.160   4.728  12.025 -0.4570  1.4619 -1.9074
  731MOL0     H96432   5.323   4.795  11.999  0.9677 -1.2589  0.0930
  731MOL0     H96433   5.322   4.656  12.182 -2.9451 -0.4873  0.8761
  731MOL0     H96434   5.429   4.582  12.054  1.1485  2.3605  2.9846
  731MOL0     H96435   5.131   4.486  12.119 -0.8524 -0.8823 -0.3336
  731MOL0     H96436   5.250   4.412  12.012  3.0004  0.3372  0.9977
  731MOL0     H96437   5.217   4.326  12.255 -0.1106  1.4030  0.6734
  731MOL0     H96438   5.316   4.463  12.295 -0.8848  3.6965 -2.1562
  731MOL0     H96439   5.509   4.388  12.156 -0.9619  1.4007 -1.2313
  731MOL0     H96440   5.396   4.280  12.072 -2.5627  1.6034  0.2844
  731MOL0     H96441   5.490   4.255  12.356 -1.9665 -1.7156  1.0671
  731MOL0     H96442   5.398   4.137  12.270 -0.1552  0.8316  3.3286
  731MOL0     H96443   5.673   4.224  12.218 -1.9874  0.5928  2.6018
  731MOL0     H96444   5.580   4.112  12.112  0.4611 -2.8038 -0.3181
  731MOL0     H96445   5.855   3.999  12.284 -1.1389  0.9988 -0.5453
  731MOL0     H96446   5.853   3.678  12.370  1.6057 -0.7461  2.4991
  731MOL0     H96447   5.770   3.698  12.518 -2.0772  0.4126 -0.0303
  731MOL0     H96448   5.912   3.871  12.596 -0.5084 -1.8952  2.2860
  731MOL0     H96449   5.978   3.909  12.436 -1.5170 -0.0271  0.0785
  731MOL0     H96450   6.037   3.652  12.584 -3.1739  3.4107  1.7491
  731MOL0     H96451   6.100   3.701  12.423  1.8012  4.2096 -0.8838
  731MOL0     H96452   6.235   3.866  12.525 -0.7380 -0.2626 -0.8338
  731MOL0     H96453   6.250   3.710  12.622 -0.4502 -0.8277 -2.0840
  731MOL0     H96454   6.023   4.022  12.900  1.3827 -0.5839 -0.0005
  731MOL0     H96455   6.006   4.247  12.885 -0.1006  0.5266  0.1141
  731MOL0     H96456   6.224   4.653  12.941 -1.6539 -0.4878 -1.4341
  731MOL0     H96457   6.291   4.886  12.939  1.8543 -0.8655  2.2581
  731MOL0     H96458   6.475   5.013  12.585 -2.2053 -0.1575  2.2043
  731MOL0     H96459   6.644   5.041  12.663  0.2861 -0.9838 -1.7140
  731MOL0     H96460   6.551   5.263  12.742 -3.5433  0.7970  1.2457
  731MOL0     H96461   6.404   5.224  12.652 -0.3526 -2.1424 -2.7767
  731MOL0     H96462   6.572   5.198  12.447  0.0511  2.2469 -1.1335
  731MOL0     H96463   6.695   5.252  12.548  0.3976 -0.2148 -1.2686
  731MOL0     H96464   6.446   5.420  12.519  0.5158 -0.9356 -1.2381
  731MOL0     H96465   6.617   5.472  12.547  1.9248 -2.1570 -0.9874
  731MOL0     H96466   6.506   5.336  12.299  0.7716 -1.5053 -0.0549
  731MOL0     H96467   6.681   5.394  12.321 -0.7221 -0.7582 -1.4216
  731MOL0     H96468   6.605   5.620  12.330  0.4885 -0.5056  0.5909
  731MOL0     H96469   6.438   5.562  12.297 -0.9589 -1.5993 -0.1895
  731MOL0     H96470   6.606   5.445  12.106 -2.9216 -1.1738  1.8019
  731MOL0     H96471   6.488   5.577  12.077 -0.9372 -1.4780  0.7190
  731MOL0     H96472   6.730   5.612  12.000  1.0230 -2.5597  0.3205
  731MOL0     H96473   6.790   5.605  12.164 -0.1449  1.8637  2.2903
  731MOL0     H96474   6.579   4.806  12.616 -0.6630 -1.1837  1.4557
  731MOL0     H96475   6.509   4.585  12.620 -0.8722 -1.3499  1.0505
  731MOL0     H96476   6.346   4.252  12.615 -0.7179 -1.3296 -1.3179
  731MOL0     H96477   6.352   4.009  12.635  0.2701  0.9117 -0.0513
  731MOL0     H96478   5.273   4.632  11.590  1.5772  1.1054  0.7367
  731MOL0     H96479   5.233   4.686  11.337  0.9568  1.8214 -0.7772
  731MOL0     H96480   4.933   4.850  11.039 -1.1101 -0.0817  1.3270
  731MOL0     H96481   4.854   4.902  10.809  0.2880 -1.1335  1.5147
  731MOL0     H96482   4.784   5.056  10.641 -0.2995  2.1332 -1.1105
  731MOL0     H96483   4.900   4.926  10.598  2.6051  0.2172  1.8226
  731MOL0     H96484   4.864   5.173  10.425 -1.9693 -0.6009 -1.4526
  731MOL0     H96485   4.988   5.045  10.404  1.0355 -0.3323 -0.4068
  731MOL0     H96486   4.691   4.990  10.399  1.7026 -2.7348  4.9611
  731MOL0     H96487   4.824   4.877  10.395  1.5203  0.3218  1.0179
  731MOL0     H96488   4.755   5.100  10.199  2.5214  1.8533 -3.9784
  731MOL0     H96489   4.905   5.014  10.181  0.8936  0.0910  1.5194
  731MOL0     H96490   4.664   4.712  10.017 -2.5335 -1.2178  1.8610
  731MOL0     H96491   5.180   5.195  10.797 -1.1631  1.2642 -0.0745
  731MOL0     H96492   5.221   5.156  11.021  0.2362 -0.1942 -4.3111
  732MOL0     O96493   0.264   4.765   9.980 -0.4013  0.8998 -0.0210
  732MOL0     C96494   0.152   4.791  10.019  0.7175 -0.2409 -0.5335
  732MOL0     O96495   0.092   4.915  10.006 -0.3068 -0.3042 -0.1812
  732MOL0     C96496   0.153   5.009   9.930 -1.6778 -0.1921 -0.3070
  732MOL0     C96497   0.203   4.977   9.798 -0.3055 -0.1072  0.5947
  732MOL0     C96498   0.286   5.075   9.727 -0.5151 -0.1087  0.0760
  732MOL0     C96499   0.290   5.210   9.769 -0.2212  0.0537  0.0808
  732MOL0     O96500   0.365   5.302   9.694 -0.4029  0.6910 -0.4218
  732MOL0     C96501   0.466   5.247   9.609 -0.1739 -1.1185 -0.0807
  732MOL0     C96502   0.417   5.245   9.468 -0.1921 -0.1379  0.5857
  732MOL0     C96503   0.351   5.372   9.425  0.4643 -0.2507  0.1841
  732MOL0     C96504   0.354   5.400   9.269 -0.1761 -0.2778  0.5369
  732MOL0     C96505   0.312   5.541   9.236 -0.7994  0.1634  0.6812
  732MOL0     C96506   0.413   5.651   9.282 -0.1561 -0.0919 -0.2039
  732MOL0     C96507   0.376   5.804   9.251  0.4447 -0.4854  0.2542
  732MOL0     C96508   0.492   5.907   9.237  0.0343  0.0933  0.1678
  732MOL0     N96509   0.552   5.917   9.369 -0.1092  0.3420 -0.4758
  732MOL0     C96510   0.519   6.014   9.471  0.0756  0.7906  0.5969
  732MOL0     C96511   0.623   6.014   9.558  0.3526 -0.1275  0.7490
  732MOL0     C96512   0.630   6.094   9.680 -0.0846  0.6282 -0.1021
  732MOL0     C96513   0.643   6.247   9.644  0.9255  0.4313  0.0084
  732MOL0     C96514   0.664   6.324   9.774 -0.1026 -0.3037 -0.8721
  732MOL0     C96515   0.627   6.477   9.774  0.3563  0.0006  0.0028
  732MOL0     O96516   0.524   6.496   9.884  0.2071 -0.3821  0.6192
  732MOL0     C96517   0.462   6.617   9.905 -0.1606 -0.5278  1.4353
  732MOL0     C96518   0.353   6.613   9.993 -0.2864 -0.0278  0.1359
  732MOL0     C96519   0.268   6.720  10.013  0.3819  0.3960  0.0122
  732MOL0     C96520   0.294   6.843   9.954 -0.7233 -0.5486 -0.0235
  732MOL0     C96521   0.202   6.972   9.964  0.2585  1.0100  0.6625
  732MOL0     O96522   0.240   7.091   9.902  0.3146 -0.5070 -0.6728
  732MOL0     C96523   0.139   7.188   9.905  0.6342  0.6641 -0.4180
  732MOL0     C96524   0.137   7.287  10.007 -0.1288  0.5003  0.2592
  732MOL0     C96525   0.030   7.379  10.017 -0.3323 -0.3779  0.6562
  732MOL0     C96526  -0.049   7.398   9.904  0.4290 -0.1461  0.7629
  732MOL0     O96527  -0.138   7.500   9.907  0.2644  0.1623  0.6621
  732MOL0     C96528  -0.227   7.522  10.018  1.0988 -0.0650  0.1372
  732MOL0     C96529  -0.248   7.674  10.038 -0.4754 -0.3044  0.0620
  732MOL0     C96530  -0.116   7.726  10.098  0.4973  0.5032 -0.8031
  732MOL0     C96531  -0.116   7.881  10.110  0.9809  0.4799  0.4677
  732MOL0     C96532  -0.002   7.936  10.196  0.0476 -0.4995  0.1006
  732MOL0     C96533  -0.048   8.070  10.258  0.1926  0.1513 -0.1151
  732MOL0     C96534  -0.064   8.186  10.163  0.9963 -0.5671  0.0349
  732MOL0     C96535  -0.108   8.319  10.221  0.7488  0.1732  0.6831
  732MOL0    Cl96536  -0.135   8.451  10.101 -0.2141 -0.0717 -0.1388
  732MOL0     C96537  -0.021   7.326   9.792 -0.3656 -0.1169  0.1256
  732MOL0     C96538   0.066   7.219   9.792  0.4375 -0.5238 -0.2561
  732MOL0     O96539   0.100   6.960  10.032 -0.2179 -0.2328  0.8863
  732MOL0     C96540   0.410   6.850   9.862  0.6752 -0.5688 -0.3139
  732MOL0     C96541   0.493   6.738   9.838  0.2313  0.0903 -0.1251
  732MOL0     N96542   0.700   5.904   9.530  0.8752 -0.8862 -0.1450
  732MOL0     N96543   0.661   5.847   9.419  0.3177  1.6165  0.4155
  732MOL0     C96544   0.232   5.245   9.891  0.2999  0.5814  1.1066
  732MOL0     C96545   0.161   5.148   9.967  0.8926 -0.2718 -0.2084
  732MOL0     C96546   0.090   4.688  10.108 -0.7145 -0.1859 -0.8189
  732MOL0     C96547  -0.039   4.714  10.164  1.3291 -0.9929 -0.0904
  732MOL0     C96548  -0.108   4.619  10.239 -0.4122  0.5545 -0.6300
  732MOL0     C96549  -0.051   4.491  10.269  0.5847  0.6311  0.6340
  732MOL0     O96550  -0.120   4.391  10.334 -0.8641  0.0342 -0.3919
  732MOL0     C96551  -0.050   4.266  10.352 -0.7344 -0.7793  0.8571
  732MOL0     C96552  -0.148   4.169  10.416 -0.2318  0.5426  0.2084
  732MOL0     C96553  -0.185   4.218  10.556 -0.8418  0.2332 -0.7346
  732MOL0     C96554  -0.074   4.157  10.655  0.0989 -0.7546  0.4756
  732MOL0     C96555  -0.081   4.246  10.775  0.1106  0.6588 -0.4656
  732MOL0     C96556  -0.094   4.329  10.857 -0.9913  0.0062  0.3700
  732MOL0     C96557   0.080   4.471  10.208  0.5688 -0.1890 -1.0401
  732MOL0     C96558   0.149   4.565  10.139 -0.6818  0.2379  0.4578
  732MOL0     H96559   0.176   4.883   9.752  0.3013 -0.7057  1.4155
  732MOL0     H96560   0.311   5.040   9.627 -0.4595  1.3619 -0.4442
  732MOL0     H96561   0.496   5.146   9.641  2.3773 -0.1356  0.9401
  732MOL0     H96562   0.556   5.308   9.620  0.0250 -1.3640 -0.3257
  732MOL0     H96563   0.342   5.167   9.456 -4.6319  3.5685  1.3560
  732MOL0     H96564   0.502   5.216   9.406 -0.7871  1.0518 -0.8664
  732MOL0     H96565   0.402   5.452   9.479  2.3865 -0.5109 -1.1783
  732MOL0     H96566   0.244   5.369   9.449 -0.5233 -0.1383 -3.5242
  732MOL0     H96567   0.453   5.380   9.226 -0.0209  0.4020  0.5562
  732MOL0     H96568   0.289   5.330   9.217  3.5584 -2.6050 -1.4995
  732MOL0     H96569   0.212   5.550   9.281 -0.3239  1.2449  1.5468
  732MOL0     H96570   0.304   5.548   9.127  2.3258 -1.2782  0.2591
  732MOL0     H96571   0.510   5.627   9.237 -0.2825 -2.0876  0.5364
  732MOL0     H96572   0.424   5.635   9.389 -2.5109 -1.1495 -0.0674
  732MOL0     H96573   0.323   5.806   9.156  1.1707  2.7641 -0.1984
  732MOL0     H96574   0.303   5.834   9.328  1.7034 -1.4260  1.8900
  732MOL0     H96575   0.439   5.998   9.207 -1.9393 -1.3608 -1.0253
  732MOL0     H96576   0.562   5.871   9.161  1.0225 -3.9209  2.6616
  732MOL0     H96577   0.429   6.074   9.466  0.6256  1.5628 -0.3914
  732MOL0     H96578   0.719   6.057   9.732 -1.3073 -0.9384  0.9630
  732MOL0     H96579   0.551   6.087   9.755  0.1388  1.9384  0.2919
  732MOL0     H96580   0.561   6.284   9.582 -0.8311 -3.2665 -0.1877
  732MOL0     H96581   0.736   6.256   9.587  0.3050 -0.6629 -1.2406
  732MOL0     H96582   0.607   6.273   9.852  1.7545 -3.7810 -1.6059
  732MOL0     H96583   0.767   6.319   9.810  0.2648  1.9314 -1.4085
  732MOL0     H96584   0.585   6.505   9.678  0.5901  1.3485  0.2633
  732MOL0     H96585   0.724   6.522   9.801  1.2628 -1.6642 -0.3482
  732MOL0     H96586   0.351   6.524  10.055  2.1609 -1.7627 -2.0390
  732MOL0     H96587   0.187   6.712  10.085 -0.4010  1.1956 -0.7575
  732MOL0     H96588   0.205   7.280  10.092 -2.2543 -0.0218  2.0130
  732MOL0     H96589   0.031   7.457  10.092 -4.3273  1.5060 -0.9887
  732MOL0     H96590  -0.182   7.481  10.110 -2.0639 -3.0746  0.5954
  732MOL0     H96591  -0.318   7.461  10.013 -0.0227  1.4915  0.8319
  732MOL0     H96592  -0.327   7.702  10.109 -1.4454  2.6795 -1.9828
  732MOL0     H96593  -0.274   7.720   9.942  1.5791  0.0638 -0.3638
  732MOL0     H96594  -0.033   7.695  10.033  0.5543  0.5840 -0.7687
  732MOL0     H96595  -0.095   7.685  10.197 -2.4518  1.2409  0.2149
  732MOL0     H96596  -0.103   7.918  10.008  1.5488 -0.9701 -0.0141
  732MOL0     H96597  -0.212   7.913  10.151  0.0784 -1.7766  0.2752
  732MOL0     H96598   0.082   7.958  10.129  0.3395  2.7102  1.3778
  732MOL0     H96599   0.029   7.862  10.271 -0.7845 -0.6538  0.2978
  732MOL0     H96600   0.030   8.089  10.333  1.2306  1.5193 -1.4836
  732MOL0     H96601  -0.135   8.047  10.320  0.7292 -0.3964  0.4572
  732MOL0     H96602   0.036   8.197  10.119  1.0948 -1.8344 -0.0971
  732MOL0     H96603  -0.131   8.147  10.085  0.7494  2.1498 -1.2241
  732MOL0     H96604  -0.026   8.357  10.282  0.9530 -0.1858  0.6350
  732MOL0     H96605  -0.205   8.316  10.272 -1.8798  3.2286 -3.3958
  732MOL0     H96606  -0.086   7.342   9.707  1.5245  0.1706 -1.3354
  732MOL0     H96607   0.070   7.154   9.705 -1.1463 -2.5613  1.0890
  732MOL0     H96608   0.429   6.933   9.795 -0.8104 -1.2092 -1.6044
  732MOL0     H96609   0.582   6.743   9.776 -1.0780  3.0257 -1.9577
  732MOL0     H96610   0.247   5.346   9.927  3.4311  0.7432 -0.4001
  732MOL0     H96611   0.120   5.181  10.062  2.1617 -0.3287  0.3819
  732MOL0     H96612  -0.093   4.804  10.138  3.8175  0.4963 -0.3514
  732MOL0     H96613  -0.205   4.658  10.268 -0.5802  1.1261 -1.8840
  732MOL0     H96614   0.036   4.287  10.416 -0.7115  3.0980 -0.1590
  732MOL0     H96615  -0.019   4.230  10.253 -1.7732 -1.5997  0.8074
  732MOL0     H96616  -0.230   4.172  10.344  1.1261 -0.6303 -1.4764
  732MOL0     H96617  -0.116   4.065  10.427  3.3730  1.5072  0.1266
  732MOL0     H96618  -0.282   4.193  10.597 -0.5987 -2.4896 -1.6087
  732MOL0     H96619  -0.178   4.327  10.560  1.3271  0.1759 -1.1981
  732MOL0     H96620  -0.107   4.054  10.672 -1.1096 -1.0023 -2.7164
  732MOL0     H96621   0.025   4.148  10.611  0.4621  0.6995  0.9172
  732MOL0     H96622  -0.106   4.410  10.927 -1.9762  0.8056 -0.6898
  732MOL0     H96623   0.130   4.374  10.214  1.0158  0.0391 -0.9999
  732MOL0     H96624   0.242   4.538  10.091  1.2542  2.8582  2.3925
  733MOL0     O96625   5.263  11.204  10.315  0.0502  1.1238  0.0211
  733MOL0     C96626   5.371  11.144  10.309  0.2539 -0.7268 -0.2763
  733MOL0     O96627   5.470  11.153  10.399  0.3943 -0.0519 -1.2351
  733MOL0     C96628   5.441  11.215  10.515 -0.1959  0.0218  0.4078
  733MOL0     C96629   5.403  11.345  10.524  1.4623 -0.2689 -0.0402
  733MOL0     C96630   5.368  11.403  10.645  0.2822 -0.8719 -0.2611
  733MOL0     C96631   5.377  11.330  10.761 -0.2128 -1.4423 -0.1464
  733MOL0     O96632   5.341  11.367  10.897 -0.7876 -0.2835  0.5721
  733MOL0     C96633   5.263  11.479  10.901  0.5201  0.1498 -0.3825
  733MOL0     C96634   5.237  11.526  11.046 -1.0270 -0.7446  0.1971
  733MOL0     C96635   5.119  11.465  11.121 -0.3149 -0.1773 -0.9638
  733MOL0     C96636   5.081  11.541  11.253  0.9329  0.2943 -0.1405
  733MOL0     C96637   5.185  11.507  11.361  0.5123 -0.0279 -0.5751
  733MOL0     C96638   5.113  11.538  11.499  0.2527  0.2742 -0.0363
  733MOL0     C96639   5.077  11.691  11.511  0.3195  1.3931  0.2478
  733MOL0     C96640   5.016  11.714  11.651 -0.1923 -0.1457 -0.2151
  733MOL0     N96641   4.926  11.833  11.656  1.1606 -0.1530 -0.0733
  733MOL0     C96642   4.962  11.963  11.662  1.1621  0.7051 -0.6086
  733MOL0     C96643   4.844  12.031  11.691 -0.8568 -0.4730  0.7362
  733MOL0     C96644   4.841  12.178  11.713 -0.7741 -0.0922 -0.3647
  733MOL0     C96645   4.708  12.256  11.688  0.1349  0.0970 -0.3697
  733MOL0     C96646   4.699  12.383  11.764  0.1786  1.0040 -0.4147
  733MOL0     C96647   4.570  12.460  11.742 -0.5374  0.0380  0.4453
  733MOL0     O96648   4.540  12.492  11.606 -0.3068 -0.5760  0.0134
  733MOL0     C96649   4.436  12.561  11.553  0.1529 -0.5852  1.1916
  733MOL0     C96650   4.347  12.636  11.632 -0.7958 -0.0814  0.3096
  733MOL0     C96651   4.252  12.716  11.565 -0.8480  0.3089 -0.7595
  733MOL0     C96652   4.249  12.731  11.429 -0.1595 -0.4145  0.3876
  733MOL0     C96653   4.151  12.823  11.356 -0.5994  0.1499 -0.1356
  733MOL0     O96654   4.041  12.855  11.424 -0.6097  0.3542 -0.8774
  733MOL0     C96655   3.945  12.910  11.349  0.5253  0.8427  0.8594
  733MOL0     C96656   3.936  13.046  11.334 -0.0580 -0.1411  0.0098
  733MOL0     C96657   3.851  13.109  11.240 -0.5220  0.5580 -0.1307
  733MOL0     C96658   3.770  13.031  11.166 -0.4968  0.4616  0.3261
  733MOL0     O96659   3.685  13.089  11.067 -0.0161  0.7865  0.1264
  733MOL0     C96660   3.619  13.212  11.113 -0.6350  0.2723  0.7204
  733MOL0     C96661   3.487  13.225  11.033 -0.3008 -0.1882  0.8162
  733MOL0     C96662   3.368  13.146  11.098 -0.0768  0.0894  0.4480
  733MOL0     C96663   3.295  13.215  11.210 -0.9387 -0.1890 -0.4782
  733MOL0     C96664   3.245  13.115  11.321 -0.0399  0.7014 -0.8357
  733MOL0     C96665   3.101  13.071  11.297 -0.1686  0.3264 -0.3357
  733MOL0     C96666   3.090  12.962  11.184  0.2499  0.4088  1.1672
  733MOL0     C96667   2.948  12.901  11.172  0.4439 -0.2502  0.1733
  733MOL0    Cl96668   2.824  13.019  11.126  0.0442  0.9032  0.3405
  733MOL0     C96669   3.777  12.886  11.178  0.1102 -1.0004 -0.2909
  733MOL0     C96670   3.857  12.826  11.279  0.0408 -0.5930 -0.0495
  733MOL0     O96671   4.188  12.862  11.248  0.1046 -0.5150  1.0180
  733MOL0     C96672   4.341  12.657  11.352  0.1390  0.7544  1.1688
  733MOL0     C96673   4.429  12.568  11.413  0.7587  0.1640  0.2905
  733MOL0     N96674   4.745  11.935  11.707  0.0535 -0.4183 -0.5826
  733MOL0     N96675   4.796  11.826  11.686  0.2090  0.2189  0.2766
  733MOL0     C96676   5.431  11.206  10.749  0.1983  0.4145  1.0191
  733MOL0     C96677   5.457  11.142  10.632 -0.7523 -0.0792  0.7355
  733MOL0     C96678   5.384  11.052  10.196 -0.8516 -0.0223 -0.2482
  733MOL0     C96679   5.281  10.999  10.120  0.0768 -0.0862  0.8322
  733MOL0     C96680   5.301  10.919  10.000  0.4332  0.8351 -0.3198
  733MOL0     C96681   5.431  10.877   9.965  0.4259 -0.0600 -0.5425
  733MOL0     O96682   5.449  10.789   9.863 -0.7239  0.3410 -0.4545
  733MOL0     C96683   5.494  10.866   9.751  1.1040 -0.2998  1.1119
  733MOL0     C96684   5.645  10.880   9.735 -1.1086 -0.1578  0.5565
  733MOL0     C96685   5.682  10.930   9.596 -0.1537  1.0000 -0.2863
  733MOL0     C96686   5.830  10.970   9.596  0.6293 -0.4580 -0.5044
  733MOL0     C96687   5.872  11.013   9.461  0.8956 -1.1157  0.1744
  733MOL0     C96688   5.909  11.051   9.347  0.0138  0.2838  0.0480
  733MOL0     C96689   5.529  10.912  10.055  0.2509 -0.2433 -0.2024
  733MOL0     C96690   5.515  10.996  10.167 -0.6725 -0.7454  0.1952
  733MOL0     H96691   5.379  11.408  10.438 -3.0376  0.0957  1.1888
  733MOL0     H96692   5.350  11.510  10.646  2.1824 -0.5162  0.8384
  733MOL0     H96693   5.167  11.445  10.861 -2.4789  0.8471  5.2268
  733MOL0     H96694   5.308  11.565  10.849  1.4502  0.3089  0.6454
  733MOL0     H96695   5.233  11.636  11.050  0.8323 -0.6000 -0.7070
  733MOL0     H96696   5.330  11.501  11.097  0.0585 -0.9678 -1.7597
  733MOL0     H96697   5.160  11.370  11.154 -3.3044 -1.7835 -1.4925
  733MOL0     H96698   5.037  11.457  11.049  1.1889  3.0757 -3.2711
  733MOL0     H96699   5.071  11.649  11.236 -3.7020 -0.0027 -0.4630
  733MOL0     H96700   4.984  11.504  11.286  1.3407 -1.4013 -0.7467
  733MOL0     H96701   5.280  11.562  11.361 -1.0914  2.8889 -1.0339
  733MOL0     H96702   5.217  11.402  11.357  1.3881  0.1959  0.2548
  733MOL0     H96703   5.175  11.510  11.584 -0.4305  0.6003  0.5801
  733MOL0     H96704   5.023  11.475  11.502  0.3448  0.1758  0.6039
  733MOL0     H96705   5.161  11.757  11.491  1.0265  0.2563 -0.6877
  733MOL0     H96706   5.003  11.713  11.433  3.0003  1.2273 -2.5194
  733MOL0     H96707   5.094  11.736  11.723 -0.7543  0.8581  0.1072
  733MOL0     H96708   4.955  11.630  11.687 -2.8882  2.0663  0.7716
  733MOL0     H96709   5.062  11.999  11.640  0.8616  1.2148 -1.1665
  733MOL0     H96710   4.925  12.207  11.650  0.4000 -1.8657  0.3073
  733MOL0     H96711   4.868  12.189  11.819 -1.7935  0.3720 -0.1324
  733MOL0     H96712   4.620  12.193  11.704  0.7069 -1.2122 -2.0549
  733MOL0     H96713   4.701  12.272  11.580 -0.2131  3.3353  0.0479
  733MOL0     H96714   4.711  12.358  11.869  2.9514  1.3850 -0.5594
  733MOL0     H96715   4.784  12.451  11.747 -0.1560  1.6359  0.3847
  733MOL0     H96716   4.592  12.551  11.798 -2.2086 -0.7875  2.5946
  733MOL0     H96717   4.489  12.407  11.794  0.7466 -0.9339  1.5064
  733MOL0     H96718   4.345  12.628  11.740 -0.3342  0.4944  0.3659
  733MOL0     H96719   4.170  12.770  11.612 -0.9602 -0.3465 -0.1920
  733MOL0     H96720   4.010  13.108  11.384  0.5450 -1.2941  0.5973
  733MOL0     H96721   3.848  13.212  11.205  0.7811  0.4421 -0.6390
  733MOL0     H96722   3.682  13.301  11.105  1.4162 -0.9060  2.5647
  733MOL0     H96723   3.605  13.197  11.221 -0.7317  0.8442  0.7909
  733MOL0     H96724   3.493  13.195  10.928 -0.5601  0.0051  0.7447
  733MOL0     H96725   3.464  13.332  11.027  1.3482  0.2573  1.9394
  733MOL0     H96726   3.404  13.047  11.129 -1.5277 -0.4607  0.4763
  733MOL0     H96727   3.295  13.107  11.026  0.6641 -2.3648  0.9100
  733MOL0     H96728   3.363  13.288  11.255 -2.1683  0.0016  1.1383
  733MOL0     H96729   3.208  13.275  11.183 -2.9814 -2.5005  0.6233
  733MOL0     H96730   3.266  13.151  11.422  0.3019  1.2101 -1.0819
  733MOL0     H96731   3.306  13.025  11.316 -1.9733 -0.6589 -1.2353
  733MOL0     H96732   3.028  13.152  11.284  2.3212  2.7795 -0.0092
  733MOL0     H96733   3.062  13.018  11.384  1.1229 -1.4623 -0.8051
  733MOL0     H96734   3.125  13.001  11.088 -0.4855 -1.8958 -0.1257
  733MOL0     H96735   3.157  12.882  11.216 -2.8432 -1.2924  4.0137
  733MOL0     H96736   2.922  12.848  11.263  1.4278 -1.1073 -0.0235
  733MOL0     H96737   2.956  12.831  11.088  0.2303 -0.8092  0.6183
  733MOL0     H96738   3.708  12.823  11.124 -2.3000  0.7659  0.5195
  733MOL0     H96739   3.864  12.720  11.298  2.5624 -0.2636  1.3214
  733MOL0     H96740   4.335  12.667  11.244 -1.8176 -0.5063  1.1137
  733MOL0     H96741   4.495  12.518  11.343 -2.9096 -0.0657 -3.4090
  733MOL0     H96742   5.440  11.147  10.840  1.9796 -0.1815  0.4968
  733MOL0     H96743   5.503  11.044  10.625  0.8522  0.7135 -0.1251
  733MOL0     H96744   5.177  11.022  10.143 -0.0065  1.5429 -0.8960
  733MOL0     H96745   5.218  10.886   9.939 -2.4993  2.1085  2.6658
  733MOL0     H96746   5.465  10.971   9.739  3.1162 -0.0078 -2.6584
  733MOL0     H96747   5.455  10.805   9.669 -0.1606 -0.8372  2.0869
  733MOL0     H96748   5.680  10.946   9.815 -3.3001  1.7876  0.0187
  733MOL0     H96749   5.689  10.781   9.750  3.2720  1.4408 -0.3486
  733MOL0     H96750   5.620  11.007   9.549 -1.4766 -0.0962 -0.3737
  733MOL0     H96751   5.657  10.845   9.533 -0.3768  0.5058  0.4509
  733MOL0     H96752   5.847  11.050   9.669  0.9931 -0.8943 -0.1080
  733MOL0     H96753   5.876  10.876   9.626  0.3639 -0.3639  0.2161
  733MOL0     H96754   5.929  11.089   9.249  1.0310 -1.6866 -0.5588
  733MOL0     H96755   5.623  10.859  10.044 -0.4414 -2.1880  2.3313
  733MOL0     H96756   5.597  11.027  10.231 -0.3585 -0.7394 -0.2026
  734MOL0     O96757   4.403  10.923  10.786 -0.4909 -0.1003 -0.1661
  734MOL0     C96758   4.437  11.038  10.795  0.0132  0.0644 -1.0475
  734MOL0     O96759   4.464  11.105  10.911  0.3407 -0.5993 -0.3033
  734MOL0     C96760   4.402  11.070  11.032  0.5714 -0.1846  0.1120
  734MOL0     C96761   4.378  11.189  11.107 -0.2138  0.7242  0.6842
  734MOL0     C96762   4.314  11.174  11.230 -0.8430  0.1903 -0.6044
  734MOL0     C96763   4.289  11.047  11.295 -0.0449  0.1479  0.1166
  734MOL0     O96764   4.222  11.029  11.417 -0.3978  0.0995 -0.4482
  734MOL0     C96765   4.155  11.148  11.466  0.4769 -0.0653 -0.5502
  734MOL0     C96766   4.065  11.119  11.586  0.2198 -0.1100  0.3322
  734MOL0     C96767   3.943  11.033  11.539  0.4443  0.4710 -0.6313
  734MOL0     C96768   3.856  10.981  11.646  0.0296  0.2524  0.4516
  734MOL0     C96769   3.709  10.955  11.594 -0.2906  0.3090  0.2123
  734MOL0     C96770   3.601  10.914  11.690 -0.1404 -0.1703 -0.5860
  734MOL0     C96771   3.475  10.871  11.621  0.2797 -0.4120  0.3055
  734MOL0     C96772   3.352  10.848  11.710 -0.2749  0.2991 -0.4050
  734MOL0     N96773   3.239  10.820  11.620  0.0684  0.1467 -0.0218
  734MOL0     C96774   3.248  10.721  11.523  0.8008  1.0957 -0.8804
  734MOL0     C96775   3.176  10.767  11.423  0.8634 -0.5536  0.8161
  734MOL0     C96776   3.148  10.707  11.286 -0.0585  0.2776  0.3497
  734MOL0     C96777   3.164  10.800  11.167 -0.4589  0.8937 -1.2380
  734MOL0     C96778   3.303  10.874  11.171  0.1641 -0.0162  0.4392
  734MOL0     C96779   3.341  10.934  11.039  0.8349  0.7990  0.5652
  734MOL0     O96780   3.449  11.025  11.060 -1.0444 -0.0354  0.8577
  734MOL0     C96781   3.462  11.108  10.949  0.0660  0.0849  0.0483
  734MOL0     C96782   3.565  11.072  10.863  0.1692 -0.5379 -0.8175
  734MOL0     C96783   3.598  11.161  10.759 -0.1451  0.0560  0.3457
  734MOL0     C96784   3.523  11.283  10.732 -0.0832  0.1369 -0.6782
  734MOL0     C96785   3.554  11.366  10.621 -0.0488 -0.5579  0.3146
  734MOL0     O96786   3.658  11.323  10.537  0.3141  0.3047 -0.5384
  734MOL0     C96787   3.689  11.386  10.426 -0.3817  0.6571  0.5460
  734MOL0     C96788   3.674  11.312  10.308  0.4711 -0.3541 -0.3604
  734MOL0     C96789   3.736  11.360  10.191  0.0598  0.4091  0.2770
  734MOL0     C96790   3.789  11.492  10.185  0.7282  0.9876  0.7662
  734MOL0     O96791   3.827  11.530  10.064 -0.1847 -1.0761  0.1701
  734MOL0     C96792   3.837  11.668  10.038 -0.3188 -0.5750 -0.0343
  734MOL0     C96793   3.700  11.749  10.042 -0.3948 -0.0100  0.1067
  734MOL0     C96794   3.598  11.708   9.941  0.6190 -0.9391 -0.3489
  734MOL0     C96795   3.550  11.563   9.934 -0.4070 -0.8365 -0.7363
  734MOL0     C96796   3.480  11.523   9.801 -0.4023  0.5921  0.0079
  734MOL0     C96797   3.338  11.571   9.781 -0.2363 -0.2820  0.2626
  734MOL0     C96798   3.243  11.551   9.884  0.2304  0.4456 -0.8042
  734MOL0     C96799   3.234  11.415   9.959 -0.4990  0.1229 -0.5129
  734MOL0    Cl96800   3.081  11.416  10.059  0.2512  0.0561  0.3589
  734MOL0     C96801   3.801  11.560  10.305  0.3800  0.6472  0.9070
  734MOL0     C96802   3.757  11.510  10.425 -0.3535  0.4073 -0.2058
  734MOL0     O96803   3.478  11.464  10.600 -0.2045 -0.6156 -0.8652
  734MOL0     C96804   3.422  11.314  10.832  0.5182 -0.0493  0.6435
  734MOL0     C96805   3.389  11.229  10.934 -0.1490  0.5790 -0.2713
  734MOL0     N96806   3.111  10.881  11.460 -0.4201 -0.4637  0.0672
  734MOL0     N96807   3.148  10.908  11.579  0.3556 -0.0887  0.8865
  734MOL0     C96808   4.318  10.932  11.216  0.2576 -0.1515  1.6138
  734MOL0     C96809   4.372  10.947  11.083 -0.7297  0.3852 -0.7288
  734MOL0     C96810   4.451  11.113  10.668  0.0405  0.3858  0.8136
  734MOL0     C96811   4.399  11.061  10.544 -0.0534 -0.5109 -0.2560
  734MOL0     C96812   4.435  11.129  10.426 -0.3553 -0.2845 -0.7951
  734MOL0     C96813   4.508  11.247  10.424  0.1618 -0.0314  0.4483
  734MOL0     O96814   4.541  11.296  10.302  0.9010  0.4560  0.7944
  734MOL0     C96815   4.476  11.415  10.266  0.8023 -0.4227 -0.7211
  734MOL0     C96816   4.433  11.419  10.117  0.2063 -0.1530  0.8479
  734MOL0     C96817   4.554  11.428  10.028 -0.4073 -0.6491  0.5006
  734MOL0     C96818   4.520  11.440   9.876 -0.2135 -0.4045  0.1460
  734MOL0     C96819   4.641  11.463   9.797 -0.1529 -0.0283 -0.0244
  734MOL0     C96820   4.741  11.481   9.725  0.7199 -0.5050 -0.3472
  734MOL0     C96821   4.537  11.307  10.543  0.0459  0.2452 -1.1801
  734MOL0     C96822   4.511  11.243  10.668  0.7921  1.2399 -0.5216
  734MOL0     H96823   4.386  11.288  11.063 -2.2957  0.2168 -1.0096
  734MOL0     H96824   4.278  11.265  11.278 -0.5076  0.3061 -0.5720
  734MOL0     H96825   4.084  11.178  11.389 -0.8156 -3.6834 -0.9421
  734MOL0     H96826   4.233  11.222  11.484  1.8697 -1.3693 -1.0112
  734MOL0     H96827   4.030  11.202  11.649  0.6543 -0.8540  1.5943
  734MOL0     H96828   4.117  11.061  11.662 -2.2489 -0.6303  1.7594
  734MOL0     H96829   3.961  10.956  11.464  0.0377  2.3477 -2.7639
  734MOL0     H96830   3.871  11.100  11.490 -3.4377 -1.1162  2.3037
  734MOL0     H96831   3.887  10.880  11.675  0.7714  1.1275  2.9458
  734MOL0     H96832   3.859  11.045  11.734  1.3085  0.3664  0.3418
  734MOL0     H96833   3.720  10.877  11.518  2.2254 -0.4051  1.2029
  734MOL0     H96834   3.676  11.050  11.550  0.8383  0.4667 -0.3279
  734MOL0     H96835   3.566  11.002  11.746  1.0958  0.0075 -0.0737
  734MOL0     H96836   3.633  10.836  11.760 -2.3695  1.9039  3.0824
  734MOL0     H96837   3.463  10.949  11.545 -0.0443  0.0319  0.8025
  734MOL0     H96838   3.492  10.775  11.572 -1.1912 -1.7423  2.2395
  734MOL0     H96839   3.328  10.944  11.756  1.8871  0.8003 -0.2097
  734MOL0     H96840   3.363  10.778  11.793 -2.9911 -2.6274 -2.2800
  734MOL0     H96841   3.304  10.630  11.508 -1.0543  0.0095 -1.5121
  734MOL0     H96842   3.049  10.661  11.277  0.6215 -1.6952  2.1439
  734MOL0     H96843   3.227  10.635  11.265 -1.9571 -1.9634  0.4853
  734MOL0     H96844   3.085  10.875  11.179 -2.1951 -1.3068  2.5492
  734MOL0     H96845   3.144  10.746  11.074  1.9967  0.2927 -1.4973
  734MOL0     H96846   3.306  10.939  11.259  2.6506 -0.4162  0.7036
  734MOL0     H96847   3.386  10.804  11.186 -1.8177 -2.5353  0.3265
  734MOL0     H96848   3.251  10.984  11.003  0.7550  1.2014  1.3123
  734MOL0     H96849   3.374  10.857  10.968  1.5677  0.0594  1.6867
  734MOL0     H96850   3.607  10.973  10.875 -1.4317 -0.8545  5.4533
  734MOL0     H96851   3.687  11.138  10.702  1.6910  0.6450  2.7934
  734MOL0     H96852   3.630  11.214  10.319  1.1290 -0.6452 -0.3345
  734MOL0     H96853   3.708  11.300  10.105 -0.2356 -1.8668  1.8553
  734MOL0     H96854   3.880  11.669   9.937  0.4900 -2.1027  0.2676
  734MOL0     H96855   3.905  11.709  10.113 -1.2054 -1.3741  1.2546
  734MOL0     H96856   3.718  11.856  10.031 -1.4796 -0.0820 -4.0209
  734MOL0     H96857   3.651  11.736  10.139  0.0419 -1.1091  0.1977
  734MOL0     H96858   3.643  11.731   9.843 -1.2632 -3.2434 -1.8659
  734MOL0     H96859   3.509  11.770   9.945  2.5987  2.3327 -2.5107
  734MOL0     H96860   3.641  11.502   9.928  0.1531  0.1411 -2.8466
  734MOL0     H96861   3.488  11.548  10.023  2.1893  0.9182  1.5584
  734MOL0     H96862   3.478  11.415   9.785 -0.7039  0.3752  1.4097
  734MOL0     H96863   3.532  11.572   9.718 -0.5584 -0.7386 -0.9016
  734MOL0     H96864   3.304  11.534   9.683 -1.5551 -2.7163  1.5417
  734MOL0     H96865   3.351  11.679   9.771 -0.9512 -0.3180 -1.3774
  734MOL0     H96866   3.276  11.623   9.959 -0.2818 -0.3658  0.2298
  734MOL0     H96867   3.145  11.573   9.840 -0.6444  0.8189  1.2392
  734MOL0     H96868   3.313  11.394  10.032 -1.4792 -2.8031 -0.1403
  734MOL0     H96869   3.224  11.330   9.891 -0.5752  1.2070 -1.9028
  734MOL0     H96870   3.838  11.662  10.313 -0.6632  1.0898  0.3344
  734MOL0     H96871   3.779  11.563  10.517 -2.4397  1.6510 -0.3476
  734MOL0     H96872   3.377  11.411  10.815  1.0648 -0.1592 -1.9259
  734MOL0     H96873   3.313  11.261  11.005  0.3415 -0.6193  0.8320
  734MOL0     H96874   4.291  10.839  11.265  1.9882 -0.2064  2.5626
  734MOL0     H96875   4.376  10.860  11.018 -1.3675  0.1782 -0.4943
  734MOL0     H96876   4.348  10.966  10.554  0.9130 -0.8717  1.8287
  734MOL0     H96877   4.405  11.076  10.336 -0.4718 -0.3363 -0.7253
  734MOL0     H96878   4.542  11.496  10.299 -0.9649  1.6696 -2.0450
  734MOL0     H96879   4.382  11.418  10.323  0.1787 -2.1669 -1.5863
  734MOL0     H96880   4.377  11.333  10.082  1.4723 -1.4051  1.7878
  734MOL0     H96881   4.382  11.514  10.097  1.2345 -0.1347 -2.1511
  734MOL0     H96882   4.614  11.338  10.042  2.3051  0.7945 -0.9152
  734MOL0     H96883   4.605  11.516  10.068 -2.5701 -0.6648  3.6231
  734MOL0     H96884   4.475  11.354   9.826 -1.6454  0.3680  0.0648
  734MOL0     H96885   4.454  11.526   9.863  3.1872  2.8192  2.1880
  734MOL0     H96886   4.833  11.497   9.673 -1.4948 -1.6264 -5.2416
  734MOL0     H96887   4.605  11.392  10.541 -1.1532  1.2042 -2.0085
  734MOL0     H96888   4.560  11.276  10.759  1.2716 -1.3656  0.2366
  735MOL0     O96889   6.238   9.003   8.323  0.5656 -0.1655  0.4490
  735MOL0     C96890   6.329   8.950   8.389  0.3191  0.4759  0.1095
  735MOL0     O96891   6.398   8.832   8.347  0.0428 -0.1244 -0.2705
  735MOL0     C96892   6.327   8.762   8.248 -0.0852 -0.1909 -0.1694
  735MOL0     C96893   6.311   8.803   8.119  0.1874  0.3884  1.7608
  735MOL0     C96894   6.216   8.729   8.042 -0.3714 -0.2782  0.0995
  735MOL0     C96895   6.157   8.611   8.092  0.1348  0.2471  0.3361
  735MOL0     O96896   6.073   8.551   8.004 -0.3786 -0.6801  0.2053
  735MOL0     C96897   5.999   8.446   8.050  0.2656  0.6857  0.6774
  735MOL0     C96898   5.874   8.423   7.966 -0.0007 -0.2228  0.5941
  735MOL0     C96899   5.810   8.560   7.926 -0.3768 -0.2999  0.7179
  735MOL0     C96900   5.669   8.539   7.860 -0.8629  0.4417  0.4397
  735MOL0     C96901   5.601   8.673   7.832 -0.2741  0.3089  0.6274
  735MOL0     C96902   5.498   8.636   7.726 -0.6480 -0.5560  0.0623
  735MOL0     C96903   5.424   8.754   7.665 -0.1282  1.2377 -0.1909
  735MOL0     C96904   5.509   8.855   7.591 -1.0273  0.3710  0.0367
  735MOL0     N96905   5.439   8.904   7.470  0.3071 -0.6602 -0.0620
  735MOL0     C96906   5.330   8.989   7.474 -0.1659  0.0425 -0.7657
  735MOL0     C96907   5.262   8.967   7.356 -0.0650  0.3100  0.8264
  735MOL0     C96908   5.119   9.022   7.327 -0.3252 -0.0055 -0.3743
  735MOL0     C96909   5.032   8.913   7.260  0.4767  0.0352  0.2651
  735MOL0     C96910   4.886   8.909   7.311  0.0289  0.3432 -0.1354
  735MOL0     C96911   4.805   8.847   7.206  0.0341 -0.6082  0.9892
  735MOL0     O96912   4.672   8.829   7.249 -0.0110 -0.7843  0.1503
  735MOL0     C96913   4.580   8.770   7.177  1.0170  0.4894  0.0949
  735MOL0     C96914   4.578   8.717   7.052 -0.3460  0.6258 -0.2067
  735MOL0     C96915   4.453   8.687   6.987 -0.2853  1.3392 -0.0819
  735MOL0     C96916   4.330   8.673   7.061 -0.0108  0.1689 -0.6731
  735MOL0     C96917   4.200   8.615   7.020 -0.3352 -0.0004 -0.3567
  735MOL0     O96918   4.100   8.569   7.112  0.4430  0.2250  0.3151
  735MOL0     C96919   3.974   8.530   7.077 -0.0950 -0.6914 -0.1466
  735MOL0     C96920   3.909   8.443   7.169 -0.4488  1.2256  0.1881
  735MOL0     C96921   3.787   8.389   7.136 -0.4740  0.2587  0.6313
  735MOL0     C96922   3.726   8.434   7.021  0.8023  0.8852  0.4596
  735MOL0     O96923   3.595   8.393   6.978  0.2014  0.3351 -0.3918
  735MOL0     C96924   3.532   8.275   7.042 -0.2665  0.0061  0.4040
  735MOL0     C96925   3.402   8.238   6.966  0.0609  0.0329 -0.4468
  735MOL0     C96926   3.289   8.345   6.996 -0.4177 -0.1579 -0.0526
  735MOL0     C96927   3.151   8.274   7.002 -0.4665  0.9030 -0.3570
  735MOL0     C96928   3.040   8.383   6.997  0.0457 -0.1376  0.3498
  735MOL0     C96929   2.906   8.339   7.047 -0.3407 -0.6315  0.0672
  735MOL0     C96930   2.784   8.443   7.041 -0.4889  0.6537 -0.7678
  735MOL0     C96931   2.722   8.452   6.900  0.4536  0.5542 -0.2922
  735MOL0    Cl96932   2.670   8.292   6.832 -0.6377 -0.1652 -0.3730
  735MOL0     C96933   3.780   8.532   6.940  0.4377  0.7586 -0.2818
  735MOL0     C96934   3.909   8.578   6.964  0.4734  1.0191  0.5949
  735MOL0     O96935   4.192   8.603   6.903 -0.6758 -0.0647  0.4164
  735MOL0     C96936   4.345   8.718   7.190  0.3697  0.7275 -1.1634
  735MOL0     C96937   4.458   8.768   7.246 -1.6829 -1.2449  0.5189
  735MOL0     N96938   5.333   8.879   7.268  0.3401  0.7175 -0.1003
  735MOL0     N96939   5.427   8.843   7.348 -0.5310  0.5437  0.9105
  735MOL0     C96940   6.197   8.556   8.217  0.0708 -0.6108 -0.5132
  735MOL0     C96941   6.284   8.640   8.293 -1.1034 -0.4126  0.1760
  735MOL0     C96942   6.387   9.013   8.497 -0.1098 -0.1285  0.0214
  735MOL0     C96943   6.526   9.007   8.511  0.1182  0.1231  0.7494
  735MOL0     C96944   6.593   9.066   8.619 -0.1773  0.4904 -0.9192
  735MOL0     C96945   6.517   9.125   8.720  0.3187 -0.0563 -0.4024
  735MOL0     O96946   6.561   9.175   8.842  1.1746  0.6949  0.9849
  735MOL0     C96947   6.700   9.196   8.863  0.2738  1.1256  0.1250
  735MOL0     C96948   6.729   9.230   9.003  0.1831  0.1720  0.0861
  735MOL0     C96949   6.858   9.309   9.021 -0.9264 -0.5989  0.1897
  735MOL0     C96950   6.984   9.215   9.025  0.2308  0.4303  0.2472
  735MOL0     C96951   7.116   9.281   9.046  0.0687  1.3619 -0.2625
  735MOL0     C96952   7.220   9.325   9.055 -1.1841  0.0220  0.0325
  735MOL0     C96953   6.384   9.120   8.714  1.2671 -1.5118 -0.1875
  735MOL0     C96954   6.313   9.072   8.599 -1.1961  0.3450 -0.8157
  735MOL0     H96955   6.332   8.904   8.084 -0.9449 -0.5581 -2.1521
  735MOL0     H96956   6.184   8.770   7.946  0.2856 -0.6001 -0.2639
  735MOL0     H96957   5.969   8.462   8.154  0.2577 -1.2717  1.0110
  735MOL0     H96958   6.057   8.354   8.048 -0.2253  0.3460 -1.6117
  735MOL0     H96959   5.815   8.348   8.019  1.1744 -1.3685  0.3350
  735MOL0     H96960   5.902   8.390   7.866  0.2242  3.7388 -0.8569
  735MOL0     H96961   5.862   8.625   7.855  1.3649 -1.3226  0.9943
  735MOL0     H96962   5.799   8.633   8.007  0.3850  2.5304 -1.5459
  735MOL0     H96963   5.697   8.488   7.768  3.1493  3.6442 -0.3910
  735MOL0     H96964   5.622   8.469   7.930 -0.2177  1.5106  1.9940
  735MOL0     H96965   5.680   8.737   7.791 -0.5938  1.9702  2.4355
  735MOL0     H96966   5.555   8.713   7.923  2.1812  2.4341  1.0472
  735MOL0     H96967   5.427   8.564   7.766 -1.0369 -0.6779 -0.8309
  735MOL0     H96968   5.558   8.591   7.646  0.3824 -0.9611  1.0292
  735MOL0     H96969   5.347   8.707   7.604 -0.5156  2.8649 -1.0082
  735MOL0     H96970   5.371   8.807   7.745  1.1675  0.7083  1.0784
  735MOL0     H96971   5.605   8.813   7.562 -1.2183  0.5687 -0.9119
  735MOL0     H96972   5.511   8.942   7.657 -6.3744  2.4854 -2.0003
  735MOL0     H96973   5.309   9.051   7.561  1.3475 -1.0565  0.4451
  735MOL0     H96974   5.134   9.107   7.260  3.7961 -0.0083  0.2691
  735MOL0     H96975   5.075   9.056   7.421 -1.7046  0.3809 -1.1419
  735MOL0     H96976   5.078   8.814   7.271  0.4426  0.0180  0.2512
  735MOL0     H96977   5.029   8.937   7.153  0.9661 -1.0746 -0.0135
  735MOL0     H96978   4.870   8.848   7.400 -2.1025 -1.2487 -1.4928
  735MOL0     H96979   4.845   9.007   7.341 -2.1927  0.4255 -2.9697
  735MOL0     H96980   4.840   8.750   7.169 -2.5694 -0.3625 -2.6613
  735MOL0     H96981   4.805   8.910   7.117 -1.1960  0.2223  1.5621
  735MOL0     H96982   4.670   8.722   6.995 -0.5600  0.9301 -0.5267
  735MOL0     H96983   4.448   8.668   6.881  1.5324  2.5173 -0.4200
  735MOL0     H96984   3.980   8.431   7.250 -0.2855 -0.1888 -0.1371
  735MOL0     H96985   3.745   8.301   7.185 -0.4986 -0.2579 -0.2911
  735MOL0     H96986   3.518   8.295   7.148 -0.1170 -0.2665  0.4757
  735MOL0     H96987   3.610   8.199   7.030  2.9069  3.1599 -0.4563
  735MOL0     H96988   3.366   8.141   7.001 -0.2404  0.9237  1.9315
  735MOL0     H96989   3.429   8.236   6.860  5.0798  0.2632  0.5966
  735MOL0     H96990   3.284   8.434   6.931  0.7842  1.9775  2.5898
  735MOL0     H96991   3.327   8.390   7.087 -0.0136  2.3239 -1.3584
  735MOL0     H96992   3.135   8.208   6.916 -0.3100  1.8467 -1.1404
  735MOL0     H96993   3.143   8.215   7.093 -0.9502  0.5311 -0.6347
  735MOL0     H96994   3.019   8.402   6.892 -1.0939  1.8302  0.8872
  735MOL0     H96995   3.073   8.464   7.063  2.0290  0.6068 -1.4162
  735MOL0     H96996   2.926   8.290   7.142  0.9623  0.5785  0.4498
  735MOL0     H96997   2.879   8.251   6.989  1.8610 -0.0608 -1.9913
  735MOL0     H96998   2.715   8.397   7.113 -1.4433  1.2779 -1.2789
  735MOL0     H96999   2.825   8.533   7.088  2.8015 -0.5031 -1.1749
  735MOL0     H97000   2.788   8.505   6.831  0.1826 -0.6215 -1.4894
  735MOL0     H97001   2.640   8.524   6.908 -0.1664  0.0651 -1.9183
  735MOL0     H97002   3.725   8.552   6.849 -1.3843 -1.1553  0.3256
  735MOL0     H97003   3.952   8.658   6.905  1.5422 -0.6329 -0.9565
  735MOL0     H97004   4.261   8.727   7.257  2.6121 -1.6575  2.3239
  735MOL0     H97005   4.457   8.815   7.344  0.8221 -1.0968  0.5452
  735MOL0     H97006   6.156   8.461   8.248  1.2063 -0.9768 -0.0990
  735MOL0     H97007   6.327   8.620   8.390  1.8554  2.7714 -0.2910
  735MOL0     H97008   6.586   8.967   8.430 -1.9370 -0.0838 -0.7435
  735MOL0     H97009   6.701   9.058   8.614 -0.3387 -2.1664 -1.2621
  735MOL0     H97010   6.733   9.277   8.797 -0.1572 -0.1478 -1.7541
  735MOL0     H97011   6.758   9.107   8.838  0.5909  1.5842 -0.8536
  735MOL0     H97012   6.648   9.294   9.039  0.8855  1.6668 -0.8569
  735MOL0     H97013   6.728   9.145   9.072 -3.6069  1.3276  1.7060
  735MOL0     H97014   6.853   9.365   9.115  0.9592 -1.6962  1.0138
  735MOL0     H97015   6.869   9.376   8.935 -0.0870 -1.3321 -0.2926
  735MOL0     H97016   6.965   9.139   9.102 -0.2407  0.6204  0.3221
  735MOL0     H97017   6.994   9.162   8.929 -0.2151 -0.7008  0.8025
  735MOL0     H97018   7.318   9.360   9.082 -0.4219 -0.7042 -1.6343
  735MOL0     H97019   6.314   9.169   8.781 -1.3836 -2.2390 -2.2624
  735MOL0     H97020   6.204   9.075   8.602 -1.2883  0.9039  3.8882
  736MOL0     O97021   4.252   2.549   3.458  0.6392 -0.2761  0.0278
  736MOL0     C97022   4.366   2.584   3.429  0.3137 -0.0596  0.3046
  736MOL0     O97023   4.463   2.505   3.387  0.4783  0.3693 -0.0799
  736MOL0     C97024   4.442   2.369   3.385 -0.1032 -0.2231  0.0862
  736MOL0     C97025   4.359   2.297   3.298 -0.1989  0.3738  0.4527
  736MOL0     C97026   4.342   2.163   3.296  0.0868  0.7252  0.9402
  736MOL0     C97027   4.426   2.079   3.378  0.9328  0.1545 -0.0455
  736MOL0     O97028   4.419   1.941   3.390 -0.5000  0.5827 -0.2079
  736MOL0     C97029   4.361   1.856   3.284 -0.6751 -0.1120 -0.5012
  736MOL0     C97030   4.296   1.729   3.356 -0.2638 -0.0959 -0.5272
  736MOL0     C97031   4.241   1.616   3.263 -0.4729  0.4509 -0.1177
  736MOL0     C97032   4.103   1.647   3.208 -0.6807  1.1863 -0.7635
  736MOL0     C97033   4.047   1.536   3.128 -0.2403 -1.1307  0.0817
  736MOL0     C97034   4.017   1.420   3.213 -0.2841  0.4552  0.8922
  736MOL0     C97035   3.961   1.312   3.118 -0.1846 -0.0231  0.8974
  736MOL0     C97036   4.060   1.211   3.057  0.5149  0.5731 -0.8315
  736MOL0     N97037   4.157   1.281   2.972  0.0076  0.5423  0.3156
  736MOL0     C97038   4.290   1.283   2.996 -0.4779 -0.4268 -0.3952
  736MOL0     C97039   4.341   1.323   2.875 -0.7264 -0.6792  0.1898
  736MOL0     C97040   4.485   1.354   2.844  0.7433  0.8361  0.2794
  736MOL0     C97041   4.539   1.483   2.908 -0.0254  0.7853 -0.3398
  736MOL0     C97042   4.497   1.620   2.854  0.8783 -0.1548 -0.1911
  736MOL0     C97043   4.357   1.662   2.896  0.5109 -0.4037 -0.2650
  736MOL0     O97044   4.308   1.783   2.831  0.3229 -0.4152 -0.0396
  736MOL0     C97045   4.271   1.786   2.693 -0.0057  0.5152 -0.7089
  736MOL0     C97046   4.258   1.673   2.620 -0.0964  0.4916  0.6057
  736MOL0     C97047   4.184   1.668   2.501  0.5471  0.7100 -0.8192
  736MOL0     C97048   4.135   1.784   2.437 -0.8745 -0.1427  0.0218
  736MOL0     C97049   4.114   1.784   2.297  1.3526 -0.4853 -0.0125
  736MOL0     O97050   4.061   1.656   2.245 -0.0325 -0.7165  0.6335
  736MOL0     C97051   4.030   1.650   2.105 -0.1659  0.1188 -0.9185
  736MOL0     C97052   3.924   1.567   2.063 -1.1583  0.1987 -0.1489
  736MOL0     C97053   3.871   1.558   1.931  0.0978  1.2841 -0.3331
  736MOL0     C97054   3.929   1.628   1.834  0.3376  0.3212 -0.5974
  736MOL0     O97055   3.886   1.602   1.703 -0.0388 -0.2987 -0.3016
  736MOL0     C97056   3.964   1.656   1.593 -0.7452 -1.0244  0.3393
  736MOL0     C97057   3.913   1.610   1.455  0.3589 -0.0223  0.9336
  736MOL0     C97058   3.872   1.466   1.441  0.0986  0.5021  0.2223
  736MOL0     C97059   3.897   1.422   1.296  0.3491 -0.9841  0.0189
  736MOL0     C97060   3.905   1.273   1.281 -0.5235 -0.0317  0.1441
  736MOL0     C97061   3.909   1.245   1.131  0.1001  0.0233  0.0752
  736MOL0     C97062   3.907   1.094   1.110 -0.2953 -0.5407 -0.6336
  736MOL0     C97063   3.954   1.060   0.973  0.0810 -0.8215 -0.3738
  736MOL0    Cl97064   4.026   0.884   0.960 -0.0241  0.0254 -0.1692
  736MOL0     C97065   4.027   1.719   1.867 -0.4534  0.4319 -1.2820
  736MOL0     C97066   4.081   1.736   2.000 -0.0102  0.1093 -0.7184
  736MOL0     O97067   4.113   1.898   2.238  0.0219 -0.0923 -0.8192
  736MOL0     C97068   4.153   1.903   2.507 -0.7259  0.4544  0.1519
  736MOL0     C97069   4.224   1.903   2.635  0.1639  0.9591  0.1181
  736MOL0     N97070   4.247   1.334   2.785 -0.2006  0.1008 -0.6584
  736MOL0     N97071   4.133   1.317   2.839  0.1668 -0.2227  0.4596
  736MOL0     C97072   4.499   2.149   3.474 -0.0047  0.0323 -0.0755
  736MOL0     C97073   4.507   2.289   3.473 -0.2138 -0.8629 -0.1850
  736MOL0     C97074   4.384   2.722   3.458  0.3189 -0.2164  1.0759
  736MOL0     C97075   4.498   2.784   3.395 -0.1398 -0.2469 -0.1685
  736MOL0     C97076   4.534   2.918   3.424 -0.1749  0.5663 -0.5126
  736MOL0     C97077   4.453   2.994   3.513  0.5128  0.5188 -0.3408
  736MOL0     O97078   4.509   3.123   3.543 -0.1189 -0.4431  0.7166
  736MOL0     C97079   4.500   3.154   3.680  0.1010 -0.5895 -0.8486
  736MOL0     C97080   4.547   3.299   3.716 -0.4229  0.8208  0.1064
  736MOL0     C97081   4.497   3.323   3.863 -1.0729 -0.3817 -0.4418
  736MOL0     C97082   4.510   3.471   3.895 -0.0320 -0.2596 -0.0774
  736MOL0     C97083   4.423   3.559   3.814  0.0125 -0.9733  1.1312
  736MOL0     C97084   4.345   3.624   3.747  0.0726 -0.3249  0.5486
  736MOL0     C97085   4.343   2.929   3.579 -1.0475  0.4303 -0.4118
  736MOL0     C97086   4.309   2.798   3.553 -0.1386  0.5147  0.2642
  736MOL0     H97087   4.311   2.359   3.223  0.2056 -1.6017 -1.5041
  736MOL0     H97088   4.294   2.112   3.213 -1.8987  0.8896  1.9231
  736MOL0     H97089   4.439   1.801   3.230 -0.4662 -2.7829  2.2432
  736MOL0     H97090   4.289   1.897   3.214  1.1660 -1.0530 -3.1026
  736MOL0     H97091   4.203   1.753   3.408 -1.5341  0.4183 -2.8878
  736MOL0     H97092   4.365   1.680   3.424 -2.9033 -3.1236  0.2592
  736MOL0     H97093   4.241   1.530   3.330  0.7648  0.4637 -0.0858
  736MOL0     H97094   4.304   1.583   3.180 -1.1413 -1.0323 -0.0672
  736MOL0     H97095   4.037   1.674   3.291 -1.4988  2.0225 -1.6591
  736MOL0     H97096   4.098   1.731   3.138 -2.3289  0.5032 -1.5082
  736MOL0     H97097   4.117   1.517   3.046  3.0928  4.7934  0.9965
  736MOL0     H97098   3.949   1.566   3.090  0.8662  0.1954 -1.9003
  736MOL0     H97099   3.936   1.455   3.277 -2.4889  2.9810 -2.8448
  736MOL0     H97100   4.104   1.381   3.266  1.7135  2.8091 -0.3936
  736MOL0     H97101   3.893   1.243   3.170 -2.9608  1.5481 -0.4373
  736MOL0     H97102   3.905   1.345   3.030  1.9949 -1.7601 -1.3036
  736MOL0     H97103   4.008   1.125   3.015 -2.4093  0.6578  2.2214
  736MOL0     H97104   4.119   1.178   3.142 -1.3616 -0.7565  0.0116
  736MOL0     H97105   4.352   1.267   3.083  0.2593  1.5167 -0.5163
  736MOL0     H97106   4.509   1.354   2.737 -1.6172 -1.4349 -0.3781
  736MOL0     H97107   4.526   1.264   2.892  0.4634 -0.6923 -2.1435
  736MOL0     H97108   4.648   1.488   2.896  0.2102 -0.2655  1.1160
  736MOL0     H97109   4.519   1.480   3.016 -1.9530  0.2526 -0.6759
  736MOL0     H97110   4.572   1.695   2.880 -0.9081  2.0557 -1.0489
  736MOL0     H97111   4.490   1.624   2.745 -0.4196  0.1592 -0.1088
  736MOL0     H97112   4.356   1.675   3.004 -0.8601  0.3760 -0.3433
  736MOL0     H97113   4.296   1.577   2.866 -0.5073 -0.3926  1.6568
  736MOL0     H97114   4.290   1.575   2.653 -1.1616  0.3508  1.2694
  736MOL0     H97115   4.172   1.568   2.458 -1.5526 -0.6128  2.4680
  736MOL0     H97116   3.874   1.521   2.148 -2.6956 -1.2109 -1.7390
  736MOL0     H97117   3.796   1.483   1.908 -0.2192  1.8834 -1.3103
  736MOL0     H97118   4.070   1.632   1.611 -0.7114  0.9452  3.8279
  736MOL0     H97119   3.959   1.765   1.601 -2.3367 -1.0170 -0.3654
  736MOL0     H97120   3.996   1.635   1.388 -1.8340  1.6537 -1.3770
  736MOL0     H97121   3.828   1.664   1.413 -0.6728 -2.1578  0.1423
  736MOL0     H97122   3.767   1.452   1.468 -0.0743  1.1161 -0.0970
  736MOL0     H97123   3.915   1.389   1.505 -1.9954  0.3421  1.5088
  736MOL0     H97124   3.821   1.460   1.228  0.9267  0.0771 -0.0683
  736MOL0     H97125   3.989   1.465   1.255 -0.3539  0.6061  0.0159
  736MOL0     H97126   3.829   1.213   1.332  1.1228 -2.5639 -0.2391
  736MOL0     H97127   3.999   1.251   1.333 -2.5505 -1.1090  3.7042
  736MOL0     H97128   3.993   1.298   1.086 -1.8117  1.4931 -2.0541
  736MOL0     H97129   3.818   1.278   1.079 -0.7379 -0.6211  1.0953
  736MOL0     H97130   3.980   1.049   1.177 -0.6863 -3.0037 -1.7311
  736MOL0     H97131   3.813   1.040   1.126 -0.2124 -1.0675 -1.8204
  736MOL0     H97132   4.031   1.130   0.942  0.9655 -0.7298  1.8847
  736MOL0     H97133   3.870   1.080   0.906 -2.1024  1.0363  2.6501
  736MOL0     H97134   4.065   1.786   1.790  1.1905  0.8084 -0.1870
  736MOL0     H97135   4.147   1.822   2.010 -1.1394  0.7022  3.9174
  736MOL0     H97136   4.119   1.988   2.448 -0.7361 -0.3686 -1.0766
  736MOL0     H97137   4.234   1.999   2.684  2.1474  0.6813  0.3578
  736MOL0     H97138   4.548   2.092   3.552  0.5701 -1.3011 -1.3570
  736MOL0     H97139   4.564   2.321   3.560 -0.5775 -0.1014 -0.2144
  736MOL0     H97140   4.558   2.724   3.327  0.1053  1.0270 -1.1151
  736MOL0     H97141   4.618   2.971   3.380 -0.7802  1.4119 -0.6775
  736MOL0     H97142   4.564   3.092   3.743  1.9042  3.4561  1.6430
  736MOL0     H97143   4.397   3.136   3.712  0.4268 -0.5108  0.2726
  736MOL0     H97144   4.655   3.312   3.712 -0.5804  1.9634 -2.1568
  736MOL0     H97145   4.513   3.373   3.643  1.2366  1.9751  0.4423
  736MOL0     H97146   4.559   3.268   3.934  0.2660  0.2334 -1.0855
  736MOL0     H97147   4.400   3.275   3.877 -0.6962 -0.9401  0.3473
  736MOL0     H97148   4.487   3.498   3.998  1.7739  1.4455 -0.0732
  736MOL0     H97149   4.616   3.489   3.878 -0.6910  1.1184 -3.4141
  736MOL0     H97150   4.270   3.672   3.688 -1.6451 -1.5130  1.6746
  736MOL0     H97151   4.283   2.993   3.643 -0.1645 -0.6179  1.5554
  736MOL0     H97152   4.229   2.746   3.603 -0.4884  1.6605  0.9324
  737MOL0     O97153   0.753   1.574   8.400  1.1166  0.3317 -0.0778
  737MOL0     C97154   0.706   1.677   8.443  0.0705  1.7828 -0.5417
  737MOL0     O97155   0.605   1.685   8.532  0.0442 -0.6549  0.7539
  737MOL0     C97156   0.526   1.580   8.574 -0.2639 -0.2102  0.6869
  737MOL0     C97157   0.405   1.618   8.644  0.0093  0.2716  0.2082
  737MOL0     C97158   0.304   1.537   8.692  0.1315  0.7278  0.3761
  737MOL0     C97159   0.312   1.399   8.666 -0.1782 -0.0408 -0.5394
  737MOL0     O97160   0.217   1.326   8.740 -0.2252 -0.3247 -0.6835
  737MOL0     C97161   0.251   1.191   8.773  0.1043  0.4480  1.5576
  737MOL0     C97162   0.171   1.128   8.884 -0.3952  1.0351 -0.1809
  737MOL0     C97163   0.225   0.993   8.939  1.0122 -0.1686  0.2306
  737MOL0     C97164   0.345   1.005   9.026  0.3920 -0.8580 -0.2187
  737MOL0     C97165   0.484   1.013   8.950 -0.9522 -0.1648 -0.5292
  737MOL0     C97166   0.590   0.940   9.042 -0.2394 -0.1458 -0.4620
  737MOL0     C97167   0.726   0.971   8.982 -0.2851 -0.3187  0.8964
  737MOL0     C97168   0.836   0.928   9.080 -0.5365 -0.2409 -0.3329
  737MOL0     N97169   0.969   0.947   9.022 -0.4707  0.3091 -0.4740
  737MOL0     C97170   1.039   1.065   9.047  0.6206  0.1650  0.0061
  737MOL0     C97171   1.172   1.041   9.010  0.5762  0.2899  0.2621
  737MOL0     C97172   1.293   1.127   9.041  0.6936 -0.4768  0.8311
  737MOL0     C97173   1.413   1.113   8.953  0.2576  0.5327 -0.3215
  737MOL0     C97174   1.419   1.234   8.844  0.6735  0.9168 -0.3453
  737MOL0     C97175   1.530   1.210   8.741 -0.3953 -0.0232 -0.5372
  737MOL0     O97176   1.521   1.282   8.623  0.3337  0.7497 -0.3809
  737MOL0     C97177   1.551   1.415   8.617 -0.7571  0.1150 -0.6258
  737MOL0     C97178   1.582   1.503   8.728  0.7221 -0.9401 -0.1533
  737MOL0     C97179   1.628   1.644   8.711  0.9188  0.6561 -0.3080
  737MOL0     C97180   1.622   1.692   8.583 -0.4534 -1.0250 -0.8417
  737MOL0     C97181   1.657   1.844   8.564  0.4002  1.1344 -0.3702
  737MOL0     O97182   1.675   1.934   8.672  0.3769  1.0140 -0.7518
  737MOL0     C97183   1.715   2.053   8.632  0.1472  0.0565  0.3433
  737MOL0     C97184   1.629   2.145   8.566 -0.1813  0.1593 -0.2536
  737MOL0     C97185   1.675   2.264   8.511  0.1740 -0.2226 -0.1264
  737MOL0     C97186   1.809   2.309   8.533 -0.0856 -0.0835 -0.8042
  737MOL0     O97187   1.849   2.419   8.479 -0.7632 -0.7691 -1.3259
  737MOL0     C97188   1.965   2.493   8.531  0.2123  0.1408 -0.0956
  737MOL0     C97189   1.954   2.645   8.547 -0.6081 -0.3035  0.2042
  737MOL0     C97190   1.977   2.720   8.420 -0.1175  0.8033  0.6546
  737MOL0     C97191   2.121   2.761   8.402 -0.4218  0.3929  0.8038
  737MOL0     C97192   2.163   2.811   8.263  0.4926  0.0481 -0.1759
  737MOL0     C97193   2.092   2.949   8.250  0.6201  0.3028 -0.3503
  737MOL0     C97194   2.139   3.028   8.128 -0.1143  0.5922 -0.2457
  737MOL0     C97195   2.292   3.042   8.134 -0.0803 -0.9163 -0.1695
  737MOL0    Cl97196   2.364   3.124   8.283  0.2748  0.3181 -0.4573
  737MOL0     C97197   1.892   2.218   8.609  0.6070  0.9325  0.7596
  737MOL0     C97198   1.846   2.090   8.650 -0.9057 -0.7180  0.8844
  737MOL0     O97199   1.639   1.883   8.448  0.3461 -0.1512 -0.4908
  737MOL0     C97200   1.591   1.607   8.471  0.9452 -0.0775 -0.1380
  737MOL0     C97201   1.559   1.480   8.491 -0.6973 -0.2309  0.0564
  737MOL0     N97202   1.179   0.901   8.984 -0.0586  0.3012  0.0027
  737MOL0     N97203   1.056   0.851   8.982 -1.1983  0.0727  0.3286
  737MOL0     C97204   0.419   1.355   8.588 -0.3692  0.3166  0.3529
  737MOL0     C97205   0.520   1.441   8.541  0.7004 -0.4933 -0.9048
  737MOL0     C97206   0.761   1.796   8.392 -1.0369  0.4640  0.2573
  737MOL0     C97207   0.867   1.793   8.299 -1.0298 -0.2380  0.4146
  737MOL0     C97208   0.909   1.912   8.245 -0.0177  0.3981  0.2830
  737MOL0     C97209   0.883   2.036   8.297 -0.1626 -0.1398  0.2683
  737MOL0     O97210   0.957   2.133   8.240  0.1141 -0.4029 -0.6136
  737MOL0     C97211   0.920   2.262   8.289 -0.0520  0.2264  0.3979
  737MOL0     C97212   0.794   2.322   8.221  0.0475  0.6989 -0.2638
  737MOL0     C97213   0.811   2.314   8.065 -0.7322  0.8229  0.7962
  737MOL0     C97214   0.723   2.409   7.988 -0.7680 -0.1753  0.4558
  737MOL0     C97215   0.581   2.381   7.977 -0.2606 -0.3316 -0.0897
  737MOL0     C97216   0.469   2.339   7.982  0.3824  0.7306 -0.6021
  737MOL0     C97217   0.781   2.033   8.389  0.9268  0.1343  0.7174
  737MOL0     C97218   0.722   1.915   8.435 -0.3127 -0.2048 -0.3188
  737MOL0     H97219   0.406   1.726   8.657 -0.3898 -0.0335  3.7937
  737MOL0     H97220   0.215   1.576   8.740 -1.0121 -0.9238 -0.3450
  737MOL0     H97221   0.357   1.192   8.800  0.4957  0.2095  0.1443
  737MOL0     H97222   0.247   1.128   8.683 -2.8960  2.8783 -0.2002
  737MOL0     H97223   0.067   1.131   8.849 -0.3034 -0.3599 -0.6197
  737MOL0     H97224   0.173   1.195   8.971 -0.1915 -0.5770  1.0896
  737MOL0     H97225   0.252   0.940   8.847 -0.7758  2.0468 -1.6831
  737MOL0     H97226   0.153   0.923   8.984 -0.7386 -0.7437 -3.1801
  737MOL0     H97227   0.340   1.078   9.107 -1.0113  0.4934 -1.4356
  737MOL0     H97228   0.343   0.912   9.083 -2.0911 -0.2951  0.7612
  737MOL0     H97229   0.516   1.117   8.935  0.3748 -1.0552 -5.6692
  737MOL0     H97230   0.481   0.977   8.847  2.1393  1.8827 -1.4776
  737MOL0     H97231   0.574   0.832   9.043 -1.9570  0.0372  2.0608
  737MOL0     H97232   0.593   0.977   9.145  4.3019 -0.7379 -0.1698
  737MOL0     H97233   0.722   0.920   8.885 -2.0017 -3.0406  2.2941
  737MOL0     H97234   0.755   1.076   8.965  1.2899 -0.5201  2.1115
  737MOL0     H97235   0.811   0.824   9.105 -0.0145 -0.5657 -1.1175
  737MOL0     H97236   0.826   0.986   9.172 -1.0170 -2.4961  1.1182
  737MOL0     H97237   0.998   1.156   9.090 -0.7807  0.6324 -2.1314
  737MOL0     H97238   1.327   1.085   9.136  2.2658  1.4481  1.1795
  737MOL0     H97239   1.270   1.234   9.051 -2.9904 -1.0335 -0.1230
  737MOL0     H97240   1.398   1.017   8.904 -0.3298 -0.3496  1.4927
  737MOL0     H97241   1.502   1.109   9.016 -0.5175 -0.2633  0.7630
  737MOL0     H97242   1.325   1.254   8.793 -0.0765 -0.0283  0.6201
  737MOL0     H97243   1.438   1.331   8.891  1.1630  0.7126 -0.1046
  737MOL0     H97244   1.532   1.103   8.717  3.1608 -0.0410 -0.7003
  737MOL0     H97245   1.624   1.231   8.793 -0.9750 -0.9484  0.9277
  737MOL0     H97246   1.569   1.455   8.824 -1.0451 -0.0613  0.0937
  737MOL0     H97247   1.658   1.714   8.788  1.7882  0.5555 -0.5480
  737MOL0     H97248   1.524   2.127   8.547  0.1248 -1.0276 -0.9244
  737MOL0     H97249   1.599   2.329   8.467 -1.2429 -0.0254  2.4550
  737MOL0     H97250   2.052   2.462   8.472  1.0740 -1.0014  1.6836
  737MOL0     H97251   1.983   2.462   8.634 -4.5061 -1.0187  0.6153
  737MOL0     H97252   2.036   2.675   8.613 -0.2063  2.5204 -1.4374
  737MOL0     H97253   1.856   2.676   8.586 -0.4041 -2.4264  2.7087
  737MOL0     H97254   1.923   2.814   8.437  0.0675  0.5517  2.8520
  737MOL0     H97255   1.928   2.680   8.331  0.6727  2.5350 -0.6341
  737MOL0     H97256   2.160   2.825   8.481 -0.9428  1.1973  0.4176
  737MOL0     H97257   2.180   2.669   8.406 -1.9341 -0.5825  3.0955
  737MOL0     H97258   2.148   2.747   8.176 -3.4681 -0.1934  0.5237
  737MOL0     H97259   2.271   2.829   8.271  0.5080  0.2386 -0.7519
  737MOL0     H97260   2.125   3.009   8.335  1.0556  3.2504 -2.4166
  737MOL0     H97261   1.983   2.944   8.246  0.5087 -0.0979  2.0135
  737MOL0     H97262   2.121   2.981   8.031  2.9143 -0.6973 -0.3061
  737MOL0     H97263   2.087   3.124   8.133 -0.9537  0.0783  1.7551
  737MOL0     H97264   2.330   3.090   8.044  3.4856 -3.8628 -0.4697
  737MOL0     H97265   2.336   2.943   8.120  1.8501 -0.5274  2.2608
  737MOL0     H97266   1.990   2.251   8.643  1.4942 -0.5957 -0.1646
  737MOL0     H97267   1.920   2.021   8.690  0.3608 -0.5337 -1.0258
  737MOL0     H97268   1.586   1.656   8.374 -3.8622 -0.0578 -0.1372
  737MOL0     H97269   1.545   1.417   8.404 -3.5267  3.8904 -2.8787
  737MOL0     H97270   0.426   1.249   8.565 -2.5569  0.9376 -4.3199
  737MOL0     H97271   0.600   1.405   8.477 -0.4268 -3.4346 -0.8276
  737MOL0     H97272   0.891   1.694   8.263 -1.2507 -0.0910 -0.1418
  737MOL0     H97273   0.985   1.878   8.175 -1.9816 -3.3433 -0.2627
  737MOL0     H97274   1.004   2.325   8.261  1.4007 -2.2777 -1.1823
  737MOL0     H97275   0.904   2.266   8.397 -0.7835  1.4445  0.2694
  737MOL0     H97276   0.704   2.264   8.243  1.5037 -1.6878 -0.2514
  737MOL0     H97277   0.785   2.418   8.273 -1.3252 -0.7652  2.3986
  737MOL0     H97278   0.809   2.209   8.036  1.7288  0.7891  0.4907
  737MOL0     H97279   0.912   2.355   8.049 -0.3655 -0.5727 -0.6538
  737MOL0     H97280   0.757   2.507   8.024 -0.3108  0.0600 -0.5875
  737MOL0     H97281   0.743   2.399   7.881 -0.5323 -2.3248  0.6533
  737MOL0     H97282   0.370   2.302   8.001  1.4719 -1.2530  1.7110
  737MOL0     H97283   0.745   2.129   8.425  0.1373 -0.2133  0.8788
  737MOL0     H97284   0.648   1.904   8.514  0.1356 -1.9950 -0.1041
  738MOL0     O97285   4.979   7.193  11.373  0.3271  0.0009  0.7249
  738MOL0     C97286   4.854   7.195  11.385 -0.5156  0.0258  0.3625
  738MOL0     O97287   4.764   7.133  11.294  0.0108 -0.2333  0.0374
  738MOL0     C97288   4.797   7.052  11.194  0.0623  0.6314  0.1211
  738MOL0     C97289   4.695   6.961  11.149  0.6683 -0.9523 -0.1126
  738MOL0     C97290   4.715   6.887  11.032 -0.3701  0.6713  0.4589
  738MOL0     C97291   4.839   6.895  10.959  0.3206  0.4196 -0.4602
  738MOL0     O97292   4.851   6.809  10.848 -0.2268 -0.3468  0.2602
  738MOL0     C97293   4.960   6.731  10.837 -0.8986 -0.0881  0.4842
  738MOL0     C97294   5.031   6.757  10.701 -0.3970 -0.8854  1.4430
  738MOL0     C97295   5.088   6.636  10.648 -1.1290  0.2852  0.2003
  738MOL0     C97296   5.186   6.650  10.532 -0.2969  0.7774 -0.2116
  738MOL0     C97297   5.237   6.518  10.473 -0.8378  0.2889  0.5082
  738MOL0     C97298   5.313   6.528  10.337 -0.9105  0.1453 -0.0555
  738MOL0     C97299   5.446   6.612  10.343 -0.1342  0.7705  0.0519
  738MOL0     C97300   5.476   6.645  10.200 -1.5900  0.4864 -0.0539
  738MOL0     N97301   5.521   6.528  10.122  0.6672  0.0976  0.2714
  738MOL0     C97302   5.441   6.478  10.021  0.1565 -0.4850  0.1714
  738MOL0     C97303   5.518   6.385   9.960  0.2697  0.4209 -0.5255
  738MOL0     C97304   5.482   6.274   9.863 -0.2469 -0.7124  1.0255
  738MOL0     C97305   5.597   6.233   9.779  0.2324  0.4559 -0.2844
  738MOL0     C97306   5.559   6.120   9.694 -0.1141 -0.7843  0.4207
  738MOL0     C97307   5.673   6.054   9.626 -0.6172 -0.3540  0.5406
  738MOL0     O97308   5.763   6.005   9.730 -0.6868  0.3294  0.4875
  738MOL0     C97309   5.738   5.889   9.805 -0.1020  0.0560  0.0841
  738MOL0     C97310   5.812   5.872   9.923 -0.3846  0.0327 -0.1826
  738MOL0     C97311   5.781   5.769  10.020  1.0351 -1.0142 -0.5978
  738MOL0     C97312   5.680   5.671   9.991  0.3592  0.5232 -0.4904
  738MOL0     C97313   5.651   5.560  10.087  1.4392 -0.2849 -0.5210
  738MOL0     O97314   5.718   5.562  10.197 -0.1220  0.1049  0.3821
  738MOL0     C97315   5.696   5.475  10.301  1.3854  0.5104  0.0475
  738MOL0     C97316   5.656   5.345  10.300  0.7472  0.1467  0.3243
  738MOL0     C97317   5.620   5.268  10.410 -1.5629 -0.3124 -0.7187
  738MOL0     C97318   5.610   5.330  10.540 -0.5499 -0.0378  0.8406
  738MOL0     O97319   5.544   5.252  10.632  0.0330  0.2632  0.1184
  738MOL0     C97320   5.562   5.282  10.772 -0.5584  0.1291 -0.3306
  738MOL0     C97321   5.468   5.185  10.840 -0.5304  0.5378 -0.7951
  738MOL0     C97322   5.532   5.051  10.877  0.2470 -0.4872 -0.2702
  738MOL0     C97323   5.447   4.951  10.956 -0.3416  0.0012  0.8481
  738MOL0     C97324   5.499   4.812  10.973  0.3995  0.8499 -0.0245
  738MOL0     C97325   5.514   4.747  10.844 -0.0302  0.2220  0.4360
  738MOL0     C97326   5.577   4.600  10.864  0.1461 -0.2172  0.3394
  738MOL0     C97327   5.627   4.537  10.728  0.3584  0.0472  0.2195
  738MOL0    Cl97328   5.485   4.540  10.619  0.0615  0.1080 -0.5313
  738MOL0     C97329   5.664   5.458  10.551 -0.5937  0.0275  0.6658
  738MOL0     C97330   5.708   5.526  10.431 -0.6465  0.7255 -0.0807
  738MOL0     O97331   5.564   5.480  10.056  0.2668 -0.2463  0.1256
  738MOL0     C97332   5.610   5.687   9.873  0.5108 -0.6535  0.7196
  738MOL0     C97333   5.642   5.783   9.778 -0.3773 -1.6934 -0.5598
  738MOL0     N97334   5.650   6.382  10.024 -1.1494  0.1962  0.2815
  738MOL0     N97335   5.642   6.472  10.117 -0.9765 -0.3191  0.1974
  738MOL0     C97336   4.938   6.972  11.015  0.6115  0.6605  0.0405
  738MOL0     C97337   4.915   7.059  11.121 -0.0498 -0.1423  0.1566
  738MOL0     C97338   4.808   7.295  11.488  0.1953  0.9736 -0.4682
  738MOL0     C97339   4.676   7.285  11.537 -0.4975  0.5524 -0.1778
  738MOL0     C97340   4.629   7.375  11.643 -0.0903 -0.3660  0.4294
  738MOL0     C97341   4.720   7.461  11.705 -0.9131  0.9223 -0.1635
  738MOL0     O97342   4.680   7.541  11.803  0.4117  0.3134  0.1198
  738MOL0     C97343   4.765   7.632  11.866  0.0299  0.4407 -0.3879
  738MOL0     C97344   4.701   7.729  11.964  0.4152  0.5347  0.4844
  738MOL0     C97345   4.787   7.787  12.073 -0.7557  0.2025 -0.1008
  738MOL0     C97346   4.880   7.887  12.018 -0.2896 -0.0314  0.3295
  738MOL0     C97347   4.942   7.965  12.128  0.1540  0.2559  0.2580
  738MOL0     C97348   4.974   8.041  12.211  0.4365 -1.0104 -1.1894
  738MOL0     C97349   4.854   7.462  11.654 -0.2827 -1.3335  0.2433
  738MOL0     C97350   4.888   7.384  11.548 -0.9837 -0.2729  0.7572
  738MOL0     H97351   4.600   6.955  11.202 -0.0264  0.0837 -1.1723
  738MOL0     H97352   4.640   6.823  10.988  1.6867 -0.7698 -1.1663
  738MOL0     H97353   4.916   6.632  10.856  0.5070 -0.5129  1.7879
  738MOL0     H97354   5.033   6.754  10.915 -0.5481  0.6846 -0.0615
  738MOL0     H97355   5.112   6.830  10.706  1.8389 -2.4458 -4.1718
  738MOL0     H97356   4.948   6.781  10.634 -0.6575 -2.5893  1.1161
  738MOL0     H97357   5.010   6.563  10.624  0.4255 -1.6521  0.7177
  738MOL0     H97358   5.149   6.581  10.721 -0.7740 -3.3344 -2.5071
  738MOL0     H97359   5.140   6.707  10.451  1.4449  1.1102 -0.9948
  738MOL0     H97360   5.274   6.699  10.573  2.1175 -2.6591 -0.8348
  738MOL0     H97361   5.152   6.452  10.454 -1.0266  0.3364  1.1695
  738MOL0     H97362   5.312   6.472  10.539  0.2481 -1.3929 -1.7429
  738MOL0     H97363   5.245   6.569  10.262 -2.2358 -4.6040 -1.8077
  738MOL0     H97364   5.330   6.428  10.297 -0.1791 -0.2810  1.2896
  738MOL0     H97365   5.427   6.704  10.399  1.0202  0.9302  0.2036
  738MOL0     H97366   5.529   6.557  10.388  0.6492  2.4662  0.7499
  738MOL0     H97367   5.543   6.730  10.191  0.6063 -1.0129  1.1178
  738MOL0     H97368   5.380   6.685  10.166 -1.5239  5.0177  4.0507
  738MOL0     H97369   5.334   6.481  10.005 -0.4515 -3.3125  2.6262
  738MOL0     H97370   5.410   6.314   9.791  3.0299 -0.4867 -2.5100
  738MOL0     H97371   5.448   6.193   9.927  1.7141 -3.2070 -0.8845
  738MOL0     H97372   5.659   6.188   9.857 -0.6400 -0.0001  0.1680
  738MOL0     H97373   5.648   6.315   9.728  1.0651 -1.5736 -2.9140
  738MOL0     H97374   5.504   6.047   9.755 -1.3746 -0.3144 -0.1065
  738MOL0     H97375   5.480   6.144   9.622 -0.1135 -0.0709  0.6488
  738MOL0     H97376   5.725   6.130   9.568  1.6833 -1.9541  0.4048
  738MOL0     H97377   5.646   5.975   9.556  2.2713 -0.8151 -0.1547
  738MOL0     H97378   5.883   5.951   9.944  3.3647 -2.5524 -1.8947
  738MOL0     H97379   5.842   5.773  10.110  0.4812  2.8543 -0.1970
  738MOL0     H97380   5.626   5.294  10.209 -1.6636  0.9501  0.5988
  738MOL0     H97381   5.588   5.164  10.405  2.3030 -1.6183 -2.1019
  738MOL0     H97382   5.528   5.385  10.789 -0.1357  0.0868  0.8969
  738MOL0     H97383   5.668   5.270  10.797 -0.4565 -1.0260 -1.2540
  738MOL0     H97384   5.385   5.160  10.774  0.8511 -0.4744 -2.2413
  738MOL0     H97385   5.426   5.235  10.928  1.0798 -0.3891  0.5619
  738MOL0     H97386   5.633   5.063  10.917 -0.0763  0.8331  0.1995
  738MOL0     H97387   5.560   5.007  10.781  2.2284 -1.5587  0.7338
  738MOL0     H97388   5.419   4.998  11.051 -1.2004 -0.6852  0.9435
  738MOL0     H97389   5.349   4.947  10.908 -0.3752  0.5420  0.8630
  738MOL0     H97390   5.426   4.763  11.038 -0.6479  0.5069 -1.4162
  738MOL0     H97391   5.601   4.811  11.012  1.0136  1.2448 -1.5420
  738MOL0     H97392   5.583   4.811  10.788  0.3230  1.5430  2.2873
  738MOL0     H97393   5.420   4.748  10.787 -0.0665  0.9507  0.4988
  738MOL0     H97394   5.661   4.600  10.934  1.9425 -1.7688 -1.6837
  738MOL0     H97395   5.496   4.538  10.905 -0.1820 -0.3730 -0.5372
  738MOL0     H97396   5.667   4.436  10.740 -0.3659 -0.6580 -2.5467
  738MOL0     H97397   5.713   4.583  10.681 -0.6460 -0.1523 -1.9252
  738MOL0     H97398   5.662   5.507  10.647  0.7147  1.1237  0.1659
  738MOL0     H97399   5.751   5.625  10.447 -0.0920  0.2608  1.5184
  738MOL0     H97400   5.517   5.636   9.848  0.2166  0.7235 -1.1980
  738MOL0     H97401   5.587   5.790   9.685  2.5517  4.4309 -2.3800
  738MOL0     H97402   5.036   6.980  10.969  1.3229  2.8071  1.7646
  738MOL0     H97403   4.995   7.126  11.152 -0.8125  0.4481  0.9194
  738MOL0     H97404   4.600   7.222  11.493 -2.5755  3.3193 -0.8404
  738MOL0     H97405   4.524   7.372  11.669 -0.1415 -1.4726  0.1499
  738MOL0     H97406   4.811   7.693  11.787 -1.0246  1.0962 -0.5208
  738MOL0     H97407   4.845   7.585  11.924  0.3474  2.8943  1.2847
  738MOL0     H97408   4.660   7.814  11.908  1.3039  0.1758 -0.7321
  738MOL0     H97409   4.618   7.680  12.017 -0.0141  0.3595 -0.3250
  738MOL0     H97410   4.849   7.711  12.121 -4.0784 -1.5612  1.7159
  738MOL0     H97411   4.729   7.838  12.151 -3.1862 -0.0803 -1.6134
  738MOL0     H97412   4.954   7.821  11.971 -0.2543 -2.2495  3.2247
  738MOL0     H97413   4.834   7.952  11.942  1.6902 -0.3328 -1.2023
  738MOL0     H97414   5.021   8.078  12.300 -2.6393 -0.5681  0.3784
  738MOL0     H97415   4.926   7.533  11.695 -3.2384  2.8838 -1.1536
  738MOL0     H97416   4.987   7.395  11.505  0.2804 -1.6872  3.0563
  739MOL0     O97417   4.729  10.992   3.617 -0.7350 -0.0176  0.1856
  739MOL0     C97418   4.700  10.873   3.601 -0.2951  0.5721 -1.1524
  739MOL0     O97419   4.792  10.769   3.607 -0.1020  0.5454  0.0436
  739MOL0     C97420   4.921  10.796   3.637 -0.7034  0.6041 -0.5303
  739MOL0     C97421   5.020  10.742   3.548  1.1745 -0.6490 -0.2907
  739MOL0     C97422   5.146  10.761   3.581 -0.1672 -0.1745 -0.6702
  739MOL0     C97423   5.187  10.825   3.692 -0.8139  0.1935 -0.1695
  739MOL0     O97424   5.327  10.816   3.708  0.0271  0.1472  0.2191
  739MOL0     C97425   5.388  10.885   3.814  0.0430 -0.0932  1.0937
  739MOL0     C97426   5.450  11.015   3.755  0.2487  0.5606 -0.3473
  739MOL0     C97427   5.499  11.102   3.877  0.0090 -0.4454  0.1150
  739MOL0     C97428   5.565  11.227   3.835  0.5315  0.9160 -0.5002
  739MOL0     C97429   5.708  11.201   3.784 -0.5191  0.6202 -0.8407
  739MOL0     C97430   5.799  11.317   3.724  0.5112  0.2070 -0.6189
  739MOL0     C97431   5.938  11.272   3.688 -0.2715 -0.5495  1.3039
  739MOL0     C97432   6.016  11.370   3.606 -0.2832 -0.4386  0.0150
  739MOL0     N97433   6.155  11.328   3.577 -0.3463  0.0460  0.1108
  739MOL0     C97434   6.257  11.334   3.668  0.4317  1.2199  0.3026
  739MOL0     C97435   6.366  11.316   3.595 -0.7253  0.8315  0.0851
  739MOL0     C97436   6.513  11.291   3.644  0.4152 -0.4449  0.8244
  739MOL0     C97437   6.499  11.151   3.700  0.2160  0.6285 -0.2822
  739MOL0     C97438   6.584  11.061   3.610 -0.5578 -1.2347 -0.2790
  739MOL0     C97439   6.551  10.918   3.635 -0.2660  0.2197 -0.4310
  739MOL0     O97440   6.540  10.873   3.769  0.1607  0.3747 -0.2091
  739MOL0     C97441   6.652  10.860   3.841  0.2054 -0.4414 -0.0082
  739MOL0     C97442   6.777  10.838   3.772 -0.7048 -0.2755 -1.0158
  739MOL0     C97443   6.891  10.796   3.855  0.1655 -0.1076 -0.6861
  739MOL0     C97444   6.868  10.760   3.984  0.0020  0.4839 -0.5733
  739MOL0     C97445   6.970  10.682   4.066  0.9663  0.6365  1.0085
  739MOL0     O97446   7.079  10.636   3.999 -0.7229 -0.2378 -0.7239
  739MOL0     C97447   7.189  10.617   4.083  0.6041 -0.4263 -0.8585
  739MOL0     C97448   7.283  10.723   4.092 -0.3056 -0.0716  0.4935
  739MOL0     C97449   7.397  10.708   4.178  0.3405  0.2558  0.7248
  739MOL0     C97450   7.413  10.601   4.255 -0.0742 -0.2113 -1.3991
  739MOL0     O97451   7.513  10.591   4.349 -0.4967  0.0125 -0.3008
  739MOL0     C97452   7.505  10.517   4.472 -0.4835  0.6575  0.2318
  739MOL0     C97453   7.630  10.534   4.559 -0.2729 -0.5793  0.5162
  739MOL0     C97454   7.673  10.677   4.560 -0.3339 -0.2367 -0.6265
  739MOL0     C97455   7.773  10.697   4.676  0.1194  0.1533 -0.1505
  739MOL0     C97456   7.826  10.838   4.654  0.1540  0.0750 -0.4380
  739MOL0     C97457   7.903  10.881   4.779  0.4860  0.1376  1.0146
  739MOL0     C97458   7.927  11.040   4.767  0.6022 -0.6770  0.5861
  739MOL0     C97459   8.019  11.074   4.882 -0.3497 -1.6866  0.0233
  739MOL0    Cl97460   8.179  11.029   4.819  0.0303 -0.1370 -0.0166
  739MOL0     C97461   7.308  10.502   4.253  0.2168  0.4621 -0.7135
  739MOL0     C97462   7.199  10.507   4.165 -0.6855 -0.2379  0.7174
  739MOL0     O97463   6.937  10.666   4.181 -0.9795 -0.5692  0.0995
  739MOL0     C97464   6.743  10.789   4.050  0.4500  0.1429 -0.5785
  739MOL0     C97465   6.638  10.837   3.980  0.1473  0.4125  0.3464
  739MOL0     N97466   6.329  11.294   3.463 -0.2760 -0.7174 -0.0454
  739MOL0     N97467   6.205  11.293   3.457  0.7831  1.6277  0.2498
  739MOL0     C97468   5.094  10.889   3.776  0.7500  0.4914  0.3907
  739MOL0     C97469   4.958  10.865   3.748  0.2885 -0.4724 -0.6377
  739MOL0     C97470   4.556  10.839   3.586 -0.0974 -0.0635  1.1027
  739MOL0     C97471   4.454  10.911   3.648  1.0845  0.1098 -0.2739
  739MOL0     C97472   4.315  10.876   3.634  0.0300  1.7651  0.2673
  739MOL0     C97473   4.276  10.759   3.565 -0.5814 -0.4113 -0.4862
  739MOL0     O97474   4.150  10.718   3.573  0.3111  0.1439 -0.6319
  739MOL0     C97475   4.110  10.596   3.522  0.6506  0.1366  0.4941
  739MOL0     C97476   3.950  10.590   3.532  0.6429  0.0177  0.3391
  739MOL0     C97477   3.894  10.702   3.452  0.0335  0.0445  0.2549
  739MOL0     C97478   3.745  10.651   3.410 -0.2453 -0.5367 -0.1159
  739MOL0     C97479   3.660  10.629   3.519 -0.9319  0.1127  0.1831
  739MOL0     C97480   3.597  10.616   3.622  0.5397 -0.5895 -1.1184
  739MOL0     C97481   4.381  10.689   3.511  0.9293  0.1963 -0.4145
  739MOL0     C97482   4.516  10.726   3.520  0.1288  0.3005 -0.4132
  739MOL0     H97483   4.985  10.692   3.458  3.6326 -3.9833  0.4002
  739MOL0     H97484   5.225  10.714   3.523 -1.8520 -2.1135 -1.4958
  739MOL0     H97485   5.468  10.817   3.844  1.3389 -0.6074 -2.8713
  739MOL0     H97486   5.331  10.920   3.900  2.5185  1.7526  2.0895
  739MOL0     H97487   5.378  11.085   3.712  1.8974  2.9140  0.5489
  739MOL0     H97488   5.531  10.997   3.684  0.1787  1.2889 -0.6243
  739MOL0     H97489   5.553  11.031   3.940 -2.3577 -1.3105  1.3248
  739MOL0     H97490   5.403  11.129   3.923  0.5691  1.6221  0.1762
  739MOL0     H97491   5.505  11.275   3.757 -1.1625  2.1154  1.4331
  739MOL0     H97492   5.580  11.291   3.923 -0.6587  0.9129 -0.2720
  739MOL0     H97493   5.711  11.112   3.720 -3.2500 -0.1567 -0.0119
  739MOL0     H97494   5.762  11.174   3.875  1.0374 -0.5947 -2.0583
  739MOL0     H97495   5.806  11.399   3.796  2.1865  2.7653 -3.4267
  739MOL0     H97496   5.744  11.361   3.640  2.2277  2.6170 -0.6099
  739MOL0     H97497   5.999  11.243   3.774  0.6763 -1.0195  0.4980
  739MOL0     H97498   5.939  11.184   3.623  3.2149 -1.2461  2.0853
  739MOL0     H97499   6.026  11.471   3.645  1.2941  0.0700 -1.5442
  739MOL0     H97500   5.978  11.383   3.504 -2.3270 -0.6384  0.7013
  739MOL0     H97501   6.264  11.355   3.774  0.3256  3.8454 -0.1374
  739MOL0     H97502   6.553  11.360   3.719 -1.8137  0.6443  1.1137
  739MOL0     H97503   6.582  11.296   3.560  0.7373 -0.7278  1.0729
  739MOL0     H97504   6.393  11.130   3.717  0.1241 -0.5313 -2.0073
  739MOL0     H97505   6.553  11.146   3.795  0.6110 -0.8503 -0.5480
  739MOL0     H97506   6.565  11.074   3.504  1.5446  1.2208 -0.4421
  739MOL0     H97507   6.689  11.087   3.619 -1.2526  1.1995  2.0810
  739MOL0     H97508   6.609  10.851   3.571 -1.6710 -1.5908  0.0913
  739MOL0     H97509   6.448  10.902   3.602 -0.2155 -1.1585  0.0031
  739MOL0     H97510   6.788  10.855   3.666 -0.5677 -1.1188 -1.1400
  739MOL0     H97511   6.991  10.799   3.813 -0.7551 -2.7733 -3.4661
  739MOL0     H97512   7.262  10.808   4.027  0.8132 -1.2290 -1.4467
  739MOL0     H97513   7.466  10.790   4.192  0.0891  1.1857 -2.6175
  739MOL0     H97514   7.491  10.410   4.454 -1.6049  0.7500  0.4719
  739MOL0     H97515   7.417  10.554   4.525  1.8823  4.6193  1.8521
  739MOL0     H97516   7.714  10.477   4.518  1.0506  1.5656  0.0838
  739MOL0     H97517   7.598  10.491   4.654 -2.2172  2.4481  1.3519
  739MOL0     H97518   7.593  10.750   4.576  1.1236  1.4557 -0.7995
  739MOL0     H97519   7.712  10.709   4.463 -0.4172  0.8929 -0.3092
  739MOL0     H97520   7.722  10.697   4.773  1.6790  3.1528  0.8031
  739MOL0     H97521   7.857  10.627   4.678  0.0581  0.0244  3.1207
  739MOL0     H97522   7.735  10.895   4.637 -2.3726 -3.7664 -1.0483
  739MOL0     H97523   7.886  10.835   4.563  1.6816 -2.9531  0.5067
  739MOL0     H97524   8.006  10.843   4.773  0.8175  1.2172 -1.3522
  739MOL0     H97525   7.871  10.845   4.877 -0.3381  2.6961  1.7437
  739MOL0     H97526   7.966  11.069   4.669 -0.0473  0.8358  0.7588
  739MOL0     H97527   7.828  11.085   4.771  0.0551 -1.9080  1.7772
  739MOL0     H97528   7.994  11.025   4.976 -1.2003  1.5610  1.6183
  739MOL0     H97529   8.009  11.182   4.895  1.6393 -0.9635 -3.2444
  739MOL0     H97530   7.320  10.419   4.321  1.4504 -0.7208 -2.2779
  739MOL0     H97531   7.121  10.431   4.161 -0.5400 -0.3380 -1.7120
  739MOL0     H97532   6.728  10.759   4.153 -2.3896 -0.4517 -1.0927
  739MOL0     H97533   6.543  10.844   4.031 -1.2761 -0.9824 -1.9116
  739MOL0     H97534   5.112  10.951   3.863  2.0838  1.6994 -0.6933
  739MOL0     H97535   4.877  10.906   3.807 -0.0011  0.0968 -1.4074
  739MOL0     H97536   4.480  10.999   3.705 -1.9600  1.5710 -0.9230
  739MOL0     H97537   4.232  10.918   3.691 -0.7632 -1.2749  1.5268
  739MOL0     H97538   4.168  10.514   3.565  2.9026  1.9367  1.0361
  739MOL0     H97539   4.132  10.583   3.416 -1.0551 -0.0098  0.1151
  739MOL0     H97540   3.918  10.496   3.486 -3.9234  0.7181  1.6529
  739MOL0     H97541   3.910  10.571   3.632  0.4486 -2.0351 -0.0855
  739MOL0     H97542   3.955  10.713   3.362  2.8538  1.1143  2.1596
  739MOL0     H97543   3.904  10.792   3.513  0.0686  1.1719 -1.3397
  739MOL0     H97544   3.687  10.708   3.338  3.0454  3.1134 -0.2100
  739MOL0     H97545   3.746  10.547   3.375 -0.9680 -0.3572 -0.6794
  739MOL0     H97546   3.533  10.589   3.703  1.3832 -1.1442 -0.6191
  739MOL0     H97547   4.348  10.597   3.464 -1.1992  1.6896 -2.0062
  739MOL0     H97548   4.593  10.667   3.472  1.4779  0.6983  1.1388
  740MOL0     O97549   9.205   6.623   7.482 -0.4142 -0.5993  0.1409
  740MOL0     C97550   9.308   6.564   7.509  0.1091  0.3612  0.9073
  740MOL0     O97551   9.397   6.516   7.411 -0.3176  0.1814 -0.0822
  740MOL0     C97552   9.350   6.460   7.293  0.0282  0.1869  1.0804
  740MOL0     C97553   9.217   6.410   7.278  0.0635  0.0981  0.0463
  740MOL0     C97554   9.169   6.351   7.162  0.0622 -0.2071 -0.3167
  740MOL0     C97555   9.257   6.324   7.064 -0.8207 -0.3346  0.4404
  740MOL0     O97556   9.212   6.265   6.946 -0.3650  0.5969  0.1289
  740MOL0     C97557   9.122   6.156   6.948 -0.1454  0.0093 -0.0351
  740MOL0     C97558   9.175   6.029   7.026 -0.4740  0.4225 -0.2474
  740MOL0     C97559   9.074   5.918   7.047  0.4261 -0.2115 -2.0425
  740MOL0     C97560   9.053   5.818   6.931  0.4625  0.5283  0.2632
  740MOL0     C97561   8.942   5.717   6.954 -0.1480  0.1015 -0.1661
  740MOL0     C97562   8.973   5.588   7.029 -0.1874 -0.1645 -0.1780
  740MOL0     C97563   8.856   5.502   7.063  0.3070 -0.1435 -0.3197
  740MOL0     C97564   8.787   5.441   6.941 -0.5147  0.1264 -0.3664
  740MOL0     N97565   8.683   5.341   6.978 -0.3258 -0.3027 -0.9456
  740MOL0     C97566   8.555   5.365   7.041 -0.7416  0.3105  0.1675
  740MOL0     C97567   8.513   5.237   7.068  1.2129 -0.0865 -0.5075
  740MOL0     C97568   8.380   5.218   7.135 -0.2968  0.0411  0.5816
  740MOL0     C97569   8.302   5.110   7.057  0.2879  0.3262  0.2638
  740MOL0     C97570   8.162   5.073   7.108  0.8548 -0.1104  0.4839
  740MOL0     C97571   8.063   5.188   7.101  0.6489  0.0376  0.1443
  740MOL0     O97572   7.970   5.173   6.998 -0.3215 -0.3387  0.6753
  740MOL0     C97573   7.865   5.100   7.017  0.3484 -0.0091 -0.3401
  740MOL0     C97574   7.785   5.072   6.911  0.3084 -0.7504 -0.5423
  740MOL0     C97575   7.671   4.983   6.923 -0.0298 -0.3921 -0.5434
  740MOL0     C97576   7.647   4.936   7.055  0.2827  0.8098 -0.6217
  740MOL0     C97577   7.543   4.821   7.071 -0.0742 -0.2104 -0.1961
  740MOL0     O97578   7.436   4.818   6.993  0.4225  0.1988 -0.3360
  740MOL0     C97579   7.331   4.728   7.028 -0.3972 -0.3870 -0.6038
  740MOL0     C97580   7.265   4.653   6.928  0.9032 -1.1123  0.1926
  740MOL0     C97581   7.164   4.557   6.958  0.3650 -0.0893 -0.5097
  740MOL0     C97582   7.116   4.539   7.080  0.4813 -0.3937  0.4014
  740MOL0     O97583   7.015   4.450   7.109  0.0979  0.2077  0.1591
  740MOL0     C97584   7.046   4.351   7.213 -0.5446  0.4812 -0.2492
  740MOL0     C97585   6.915   4.278   7.227  0.2878  1.2185  0.5308
  740MOL0     C97586   6.879   4.218   7.090  0.1302 -0.0718  0.7483
  740MOL0     C97587   6.776   4.103   7.115  0.8831 -0.2792  0.6938
  740MOL0     C97588   6.767   4.023   6.988  0.4636  0.1219 -0.5004
  740MOL0     C97589   6.677   3.896   7.012  1.0304  0.0293  0.5863
  740MOL0     C97590   6.522   3.940   7.041 -1.2330  0.0582  0.2175
  740MOL0     C97591   6.424   3.871   6.942  0.4085 -0.9997  0.4484
  740MOL0    Cl97592   6.425   3.696   6.967 -0.1667 -0.3514 -0.0004
  740MOL0     C97593   7.182   4.610   7.176 -0.1502 -0.6032  0.1234
  740MOL0     C97594   7.279   4.703   7.158  0.3360 -0.2226 -0.7625
  740MOL0     O97595   7.559   4.740   7.162  0.5858 -0.1404 -0.3323
  740MOL0     C97596   7.721   4.961   7.163  0.7624  0.2835 -0.0873
  740MOL0     C97597   7.833   5.047   7.151 -0.3855  0.5965 -0.2586
  740MOL0     N97598   8.617   5.148   7.034  0.1714 -0.6916 -0.4210
  740MOL0     N97599   8.712   5.206   6.988  0.6250 -0.9177  0.7198
  740MOL0     C97600   9.386   6.369   7.070 -0.4335  0.2301  0.1411
  740MOL0     C97601   9.442   6.431   7.183 -0.9313 -0.9745  0.1208
  740MOL0     C97602   9.364   6.581   7.643  0.3164  0.7563  1.7063
  740MOL0     C97603   9.486   6.530   7.673 -0.5349  0.3208  0.5337
  740MOL0     C97604   9.547   6.550   7.798  0.0989 -0.2356 -0.0121
  740MOL0     C97605   9.473   6.613   7.893 -0.5352 -0.1297 -0.6392
  740MOL0     O97606   9.540   6.634   8.012 -0.1211 -0.0926  0.4390
  740MOL0     C97607   9.463   6.637   8.141 -0.0552  0.3106  0.0212
  740MOL0     C97608   9.526   6.728   8.251  0.3214  0.3208 -0.3529
  740MOL0     C97609   9.466   6.701   8.395 -0.6227  0.5534 -0.6009
  740MOL0     C97610   9.307   6.737   8.399  0.0695 -0.0454 -0.8676
  740MOL0     C97611   9.256   6.719   8.535 -0.7487  0.9044 -0.5175
  740MOL0     C97612   9.214   6.713   8.641  0.3636 -0.0935  0.8073
  740MOL0     C97613   9.346   6.661   7.862  0.4616  0.3499  1.0962
  740MOL0     C97614   9.294   6.649   7.735  0.5365  0.1396 -0.9694
  740MOL0     H97615   9.141   6.432   7.351  1.2375 -0.6126  1.5254
  740MOL0     H97616   9.062   6.335   7.148 -0.5786  2.8100  0.2711
  740MOL0     H97617   9.122   6.132   6.841  0.0054 -0.9104  0.1616
  740MOL0     H97618   9.025   6.193   6.979 -1.4696 -2.1779 -1.3078
  740MOL0     H97619   9.209   6.070   7.121 -2.5117  0.9284  0.3155
  740MOL0     H97620   9.269   6.003   6.976 -1.6380  1.2662 -3.0607
  740MOL0     H97621   8.975   5.962   7.060  1.1616  0.7720  0.8415
  740MOL0     H97622   9.095   5.859   7.136  0.4804  0.0230 -1.8981
  740MOL0     H97623   9.040   5.878   6.841  3.3171  2.8273  1.2468
  740MOL0     H97624   9.145   5.760   6.918  1.4192  2.1539 -0.5615
  740MOL0     H97625   8.915   5.679   6.855 -2.4542 -1.6754  1.0502
  740MOL0     H97626   8.849   5.764   6.987 -1.5844 -2.3552 -0.4229
  740MOL0     H97627   9.034   5.617   7.115  0.6059 -0.4862 -0.6114
  740MOL0     H97628   9.037   5.526   6.965 -1.8106 -0.6724 -1.3765
  740MOL0     H97629   8.898   5.424   7.127  3.6387  1.0678 -0.7867
  740MOL0     H97630   8.772   5.554   7.111  1.8129  2.1998 -0.0087
  740MOL0     H97631   8.861   5.396   6.874 -1.9937 -2.7447 -0.2273
  740MOL0     H97632   8.734   5.522   6.889 -2.7389 -1.2257 -0.3423
  740MOL0     H97633   8.498   5.456   7.057 -0.8804  0.0375  1.3701
  740MOL0     H97634   8.322   5.311   7.136  0.5968  0.6079  0.3936
  740MOL0     H97635   8.407   5.174   7.231  0.6607 -3.1146 -1.0094
  740MOL0     H97636   8.361   5.019   7.072  1.8949  1.3550  0.4472
  740MOL0     H97637   8.296   5.127   6.949  1.3589  1.7467  0.3994
  740MOL0     H97638   8.125   5.001   7.034  0.6067  1.2277 -0.7356
  740MOL0     H97639   8.156   5.038   7.212 -5.0875  0.3847  0.6629
  740MOL0     H97640   8.112   5.282   7.074  1.6077  0.2484  2.3681
  740MOL0     H97641   8.018   5.217   7.196 -1.9122  3.3048 -1.8638
  740MOL0     H97642   7.817   5.109   6.814  0.0097  0.0022 -0.3611
  740MOL0     H97643   7.632   4.945   6.829 -0.5972  1.3295 -1.0460
  740MOL0     H97644   7.303   4.664   6.827  0.2585  1.9026  0.1828
  740MOL0     H97645   7.116   4.490   6.887 -3.4683  1.5387  0.2981
  740MOL0     H97646   7.075   4.408   7.302  1.0692 -0.4609 -0.1371
  740MOL0     H97647   7.122   4.282   7.175  0.6049  0.8636  1.2527
  740MOL0     H97648   6.825   4.331   7.261  0.1992  1.2662  0.2271
  740MOL0     H97649   6.916   4.187   7.287 -3.0624  1.3215  0.9500
  740MOL0     H97650   6.973   4.177   7.053  0.2866  1.1695 -0.3029
  740MOL0     H97651   6.849   4.286   7.010  3.2294  0.4096 -0.1366
  740MOL0     H97652   6.815   4.036   7.192 -0.1551 -0.2142  1.2893
  740MOL0     H97653   6.686   4.143   7.163 -1.4733 -2.2279 -1.8009
  740MOL0     H97654   6.866   3.990   6.954 -0.2443 -0.9677 -1.5869
  740MOL0     H97655   6.732   4.096   6.914 -1.0681 -0.0896 -0.0097
  740MOL0     H97656   6.717   3.830   7.089 -0.4038  0.2612  1.5652
  740MOL0     H97657   6.673   3.858   6.910 -2.7314  0.0924  0.5696
  740MOL0     H97658   6.496   3.925   7.146  3.4327 -0.0378  1.6084
  740MOL0     H97659   6.512   4.046   7.015 -0.7189  0.0267 -0.1277
  740MOL0     H97660   6.451   3.897   6.840  0.6747  0.2564  0.8184
  740MOL0     H97661   6.326   3.908   6.973  0.6959  1.7300 -1.6317
  740MOL0     H97662   7.153   4.590   7.279  0.8033 -4.7264 -0.2318
  740MOL0     H97663   7.316   4.748   7.250  0.4948 -5.5409  2.2120
  740MOL0     H97664   7.698   4.925   7.263 -3.4817 -0.7802 -1.2566
  740MOL0     H97665   7.892   5.061   7.241 -1.0658  1.3574  0.0807
  740MOL0     H97666   9.447   6.345   6.983  0.8577 -0.3763  1.1739
  740MOL0     H97667   9.547   6.455   7.194 -0.5282 -2.6937  0.2677
  740MOL0     H97668   9.541   6.471   7.599 -0.7676  0.6211  0.1170
  740MOL0     H97669   9.648   6.520   7.822 -0.5310 -1.5363  1.1810
  740MOL0     H97670   9.451   6.532   8.170  3.2869 -0.0249  0.5897
  740MOL0     H97671   9.365   6.682   8.124  0.1573  2.1535  2.8632
  740MOL0     H97672   9.629   6.693   8.242  1.5590  4.0499 -2.4720
  740MOL0     H97673   9.521   6.829   8.210 -2.8699 -1.1416 -4.2018
  740MOL0     H97674   9.518   6.761   8.471  0.8523 -0.2264 -0.9672
  740MOL0     H97675   9.476   6.595   8.418 -0.0807  1.1767  2.5788
  740MOL0     H97676   9.298   6.840   8.362 -1.7626 -0.6670 -2.2969
  740MOL0     H97677   9.244   6.675   8.335 -0.7692 -0.1194  0.0184
  740MOL0     H97678   9.165   6.707   8.737 -0.2984 -1.4054  0.4116
  740MOL0     H97679   9.293   6.721   7.935  0.9040  2.5849 -0.3022
  740MOL0     H97680   9.197   6.692   7.711 -0.0932 -1.3180 -1.1590
  741MOL0     O97681   3.118   1.081   1.865  0.1485  0.0033 -0.0076
  741MOL0     C97682   3.124   1.203   1.868 -0.2401  0.3194 -0.1367
  741MOL0     O97683   3.168   1.279   1.975  0.2132 -0.1381  0.5227
  741MOL0     C97684   3.194   1.215   2.089 -0.0256  1.4379 -0.3986
  741MOL0     C97685   3.323   1.166   2.124  0.2445  0.1587  1.2464
  741MOL0     C97686   3.345   1.105   2.250 -0.3774  0.3761  0.3458
  741MOL0     C97687   3.251   1.110   2.351  0.0657 -0.0814  0.3892
  741MOL0     O97688   3.271   1.056   2.475 -0.5022  0.0282 -0.0154
  741MOL0     C97689   3.394   1.100   2.535 -0.2889  0.9821  0.5991
  741MOL0     C97690   3.401   1.029   2.675  0.1735 -0.3547  0.3005
  741MOL0     C97691   3.354   0.888   2.683 -0.5463  0.9710 -0.0649
  741MOL0     C97692   3.424   0.794   2.797 -0.5509  0.3546  0.4251
  741MOL0     C97693   3.364   0.655   2.808  0.3065 -0.0183  0.7982
  741MOL0     C97694   3.434   0.567   2.917 -1.0892 -0.3343  0.5002
  741MOL0     C97695   3.380   0.429   2.918 -0.1046  1.0520 -0.3346
  741MOL0     C97696   3.426   0.346   3.034  1.0034 -0.6838 -0.4057
  741MOL0     N97697   3.422   0.201   3.022 -0.1462  0.0579  0.5547
  741MOL0     C97698   3.315   0.120   3.008  0.2763 -0.0180  0.0741
  741MOL0     C97699   3.370  -0.007   2.992 -0.7963  0.1251 -0.8229
  741MOL0     C97700   3.312  -0.153   2.998 -0.2485 -0.8299  0.0566
  741MOL0     C97701   3.321  -0.231   3.120 -0.4159 -0.5077 -0.3424
  741MOL0     C97702   3.451  -0.268   3.173 -0.3557 -0.3734  0.1675
  741MOL0     C97703   3.536  -0.343   3.074  0.3653 -0.4093  0.6017
  741MOL0     O97704   3.648  -0.415   3.133 -0.3434 -0.6833  0.3075
  741MOL0     C97705   3.749  -0.337   3.182 -0.2912  0.5906 -0.4009
  741MOL0     C97706   3.784  -0.210   3.149  0.1035 -0.6036  0.0270
  741MOL0     C97707   3.896  -0.135   3.198  0.2482  0.3395 -0.1420
  741MOL0     C97708   3.984  -0.213   3.274  0.3214 -1.2191  0.0707
  741MOL0     C97709   4.090  -0.141   3.328 -0.9980  0.4354 -0.6408
  741MOL0     O97710   4.196  -0.222   3.373 -0.4756  0.1825  0.5265
  741MOL0     C97711   4.320  -0.168   3.382  0.5076  0.4442 -0.3251
  741MOL0     C97712   4.407  -0.209   3.490 -0.3045  0.0122  0.2914
  741MOL0     C97713   4.539  -0.163   3.497  0.1729 -0.0766 -0.5707
  741MOL0     C97714   4.583  -0.076   3.393  0.6137  0.0219  0.4031
  741MOL0     O97715   4.713  -0.040   3.370 -0.3652  0.0625 -0.5649
  741MOL0     C97716   4.822  -0.073   3.463 -0.8156 -0.2764 -1.0454
  741MOL0     C97717   4.958  -0.037   3.402 -0.3124 -0.1221 -0.4255
  741MOL0     C97718   4.974  -0.122   3.281 -0.4016 -0.4496  0.1140
  741MOL0     C97719   5.113  -0.112   3.243 -0.3852 -0.4742 -0.1764
  741MOL0     C97720   5.220  -0.182   3.343  0.7670 -0.8437  0.9648
  741MOL0     C97721   5.364  -0.151   3.302 -0.0549 -0.9950  0.1127
  741MOL0     C97722   5.462  -0.199   3.406  0.9208  0.5209  0.3021
  741MOL0     C97723   5.608  -0.190   3.375 -0.8250 -0.1434  1.3773
  741MOL0    Cl97724   5.660  -0.016   3.360  0.4181 -0.5495 -0.1019
  741MOL0     C97725   4.497  -0.037   3.290 -0.0487 -0.2869 -0.0116
  741MOL0     C97726   4.371  -0.089   3.286 -0.5225 -0.1622  0.8308
  741MOL0     O97727   4.088  -0.015   3.341  0.2392  0.3188 -0.4281
  741MOL0     C97728   3.958  -0.348   3.292 -0.1246 -0.0727  0.3936
  741MOL0     C97729   3.835  -0.399   3.267 -0.2378  0.6175 -0.5794
  741MOL0     N97730   3.511   0.006   2.981 -0.8695 -0.0114 -0.1971
  741MOL0     N97731   3.535   0.136   3.000 -0.1394  0.7907 -0.6677
  741MOL0     C97732   3.123   1.155   2.314 -0.1981 -0.2355 -0.3436
  741MOL0     C97733   3.102   1.211   2.193  0.5546  0.0692 -1.1075
  741MOL0     C97734   3.070   1.269   1.752 -0.4997  0.1662 -0.2227
  741MOL0     C97735   3.009   1.198   1.644 -0.0035  0.5934 -0.5903
  741MOL0     C97736   2.961   1.262   1.535  0.3908 -0.1292 -0.1602
  741MOL0     C97737   2.966   1.398   1.525  0.5076  0.1761 -0.8066
  741MOL0     O97738   2.908   1.457   1.414 -0.6574  0.0543  0.5712
  741MOL0     C97739   2.880   1.592   1.422 -0.0097 -0.1083  0.4575
  741MOL0     C97740   2.745   1.625   1.344 -0.5875  0.0618 -0.9403
  741MOL0     C97741   2.754   1.603   1.200 -0.5894 -0.7242 -0.5880
  741MOL0     C97742   2.616   1.591   1.134  1.1254 -0.4934  0.4013
  741MOL0     C97743   2.530   1.713   1.140  0.6883  0.8866  1.3078
  741MOL0     C97744   2.475   1.825   1.144  0.1246  0.7884  0.4055
  741MOL0     C97745   3.036   1.472   1.624 -0.2084  0.4771 -0.0090
  741MOL0     C97746   3.089   1.413   1.737  0.2898  0.1942  0.1028
  741MOL0     H97747   3.403   1.167   2.051  0.2547  2.4422  1.2068
  741MOL0     H97748   3.442   1.062   2.273  0.4156  0.9779 -1.6267
  741MOL0     H97749   3.418   1.206   2.544  3.6668  0.2375  0.6894
  741MOL0     H97750   3.476   1.047   2.484 -1.6616 -2.2553  1.4906
  741MOL0     H97751   3.363   1.091   2.757 -1.1540  1.1889 -1.4113
  741MOL0     H97752   3.506   1.018   2.701  0.8140  1.1371 -1.4860
  741MOL0     H97753   3.380   0.843   2.587  2.2005 -0.8478  1.4130
  741MOL0     H97754   3.247   0.883   2.705 -0.4585  2.0384  0.7157
  741MOL0     H97755   3.523   0.779   2.751 -1.7080  0.0296 -2.1401
  741MOL0     H97756   3.428   0.844   2.894  2.2974  0.8266  0.1670
  741MOL0     H97757   3.379   0.608   2.710 -0.6560  0.7627  0.2481
  741MOL0     H97758   3.257   0.661   2.833  0.6743  3.1666  2.1103
  741MOL0     H97759   3.406   0.613   3.012  1.2652  2.0665  0.1439
  741MOL0     H97760   3.543   0.561   2.908 -1.1645 -1.5388  0.3197
  741MOL0     H97761   3.271   0.437   2.918 -0.5632 -3.1221 -1.2139
  741MOL0     H97762   3.414   0.375   2.829 -3.3326  0.4855 -1.3383
  741MOL0     H97763   3.354   0.368   3.114  2.2076 -1.7225  1.0311
  741MOL0     H97764   3.522   0.385   3.068 -0.2089  1.8897  0.3215
  741MOL0     H97765   3.207   0.131   3.020  0.3202 -0.3818  0.8800
  741MOL0     H97766   3.341  -0.207   2.907 -1.0459 -3.3181  1.2048
  741MOL0     H97767   3.204  -0.136   2.994  0.0458  1.3157 -0.0696
  741MOL0     H97768   3.261  -0.320   3.100 -1.3179 -0.7428  2.8937
  741MOL0     H97769   3.269  -0.182   3.203  2.1529 -2.0707  2.3595
  741MOL0     H97770   3.497  -0.174   3.206 -1.6515  0.1233  0.6297
  741MOL0     H97771   3.433  -0.328   3.263 -0.4286  0.1139  0.4813
  741MOL0     H97772   3.564  -0.282   2.988  2.1295 -0.4904  1.0732
  741MOL0     H97773   3.472  -0.422   3.034 -1.3774  1.5544 -0.6336
  741MOL0     H97774   3.735  -0.169   3.061  1.6438  0.7885 -0.2418
  741MOL0     H97775   3.927  -0.036   3.166  0.2958 -0.1695 -1.7610
  741MOL0     H97776   4.356  -0.276   3.559 -3.5893 -0.8453 -2.6420
  741MOL0     H97777   4.598  -0.186   3.585 -1.5322 -3.0766 -0.0513
  741MOL0     H97778   4.831  -0.178   3.495 -0.4747 -0.0448 -0.3615
  741MOL0     H97779   4.801  -0.024   3.558 -2.0609 -0.7270 -1.0627
  741MOL0     H97780   5.031  -0.066   3.478 -1.7999 -1.7744  0.4398
  741MOL0     H97781   4.959   0.072   3.392 -0.7417 -0.0094  0.5843
  741MOL0     H97782   4.907  -0.093   3.200 -2.8340 -2.7535  1.1379
  741MOL0     H97783   4.955  -0.229   3.297  1.0776 -0.4423  2.2958
  741MOL0     H97784   5.131  -0.160   3.147  1.7071  1.3617 -0.8007
  741MOL0     H97785   5.146  -0.009   3.222  0.9399 -0.3110  2.2741
  741MOL0     H97786   5.203  -0.287   3.368  3.1584 -1.0990  1.7199
  741MOL0     H97787   5.212  -0.126   3.436 -1.0511  2.6413 -1.0734
  741MOL0     H97788   5.378  -0.043   3.310  1.2804 -1.1739  0.2903
  741MOL0     H97789   5.390  -0.192   3.204  3.4574  0.7644  0.1672
  741MOL0     H97790   5.454  -0.128   3.489 -1.4025  2.5776 -1.5097
  741MOL0     H97791   5.437  -0.302   3.432 -1.8354  1.3726  1.3383
  741MOL0     H97792   5.632  -0.262   3.297 -1.1082  1.3672 -0.1544
  741MOL0     H97793   5.667  -0.233   3.456  1.3286  3.5679  2.0258
  741MOL0     H97794   4.527   0.012   3.198  0.9090 -3.0909 -1.2846
  741MOL0     H97795   4.308  -0.069   3.200  0.4369  3.3211  0.8062
  741MOL0     H97796   4.031  -0.406   3.347  0.8393  0.7289 -0.0164
  741MOL0     H97797   3.810  -0.496   3.309  0.2641 -0.3934 -2.4724
  741MOL0     H97798   3.042   1.135   2.385  0.9450 -0.3747  0.9672
  741MOL0     H97799   3.001   1.244   2.169  0.4078  2.0864  1.7308
  741MOL0     H97800   2.991   1.091   1.650 -0.7460  0.7865  2.3746
  741MOL0     H97801   2.940   1.210   1.441  1.3490  1.5282 -1.3420
  741MOL0     H97802   2.961   1.659   1.393  0.6346  0.6247  3.5865
  741MOL0     H97803   2.862   1.617   1.527  1.1263 -2.3861  1.2415
  741MOL0     H97804   2.671   1.559   1.389  0.7200  0.9663  2.9372
  741MOL0     H97805   2.726   1.730   1.368  3.8109  0.5960  1.1136
  741MOL0     H97806   2.832   1.532   1.173  1.7342  1.6902 -0.7073
  741MOL0     H97807   2.804   1.684   1.146  2.5274 -2.2059 -0.1195
  741MOL0     H97808   2.645   1.574   1.030  1.6880 -1.0249  0.6379
  741MOL0     H97809   2.554   1.507   1.165 -2.0653  2.0668  1.5679
  741MOL0     H97810   2.443   1.927   1.152  2.0838  1.5047 -0.1485
  741MOL0     H97811   3.052   1.579   1.615  2.9806  0.2414  1.7695
  741MOL0     H97812   3.156   1.472   1.799  2.9350 -1.5446 -0.9461
  742MOL0     O97813   0.599   9.342  10.749  0.1587  0.1989 -0.5078
  742MOL0     C97814   0.597   9.399  10.639 -0.0137  0.8936  0.3419
  742MOL0     O97815   0.709   9.451  10.579  0.3689  0.7335  0.4841
  742MOL0     C97816   0.836   9.431  10.621 -0.9191 -0.3787 -0.2141
  742MOL0     C97817   0.936   9.463  10.529 -1.1583  0.2481  0.3649
  742MOL0     C97818   1.072   9.456  10.575 -1.3773  0.3521  0.1815
  742MOL0     C97819   1.110   9.421  10.702  0.1071 -0.0031  0.3014
  742MOL0     O97820   1.245   9.409  10.734  0.5618  1.5609  0.5701
  742MOL0     C97821   1.269   9.347  10.857  0.3404 -0.5344 -0.8640
  742MOL0     C97822   1.417   9.336  10.888  0.9748 -0.0622  0.6874
  742MOL0     C97823   1.484   9.205  10.860  0.0321 -0.1738  0.4641
  742MOL0     C97824   1.465   9.140  10.721 -0.7755  0.9341 -0.4651
  742MOL0     C97825   1.541   9.012  10.706 -0.6332  0.5403  0.5855
  742MOL0     C97826   1.490   8.893  10.793 -0.2746  0.1399 -0.5809
  742MOL0     C97827   1.585   8.775  10.767  0.0899  0.6570  0.5252
  742MOL0     C97828   1.503   8.640  10.761 -0.7118 -0.1151  0.4466
  742MOL0     N97829   1.460   8.588  10.890  0.0918 -0.0068  0.0480
  742MOL0     C97830   1.544   8.582  11.007 -0.2120  0.4964 -0.2722
  742MOL0     C97831   1.457   8.560  11.109 -0.1805 -0.0718 -0.4734
  742MOL0     C97832   1.503   8.533  11.246  0.9113 -0.3429  0.3179
  742MOL0     C97833   1.440   8.630  11.356 -0.5447  0.3240  0.7842
  742MOL0     C97834   1.464   8.782  11.332  0.2006  0.0227 -0.9862
  742MOL0     C97835   1.338   8.858  11.377  0.6820  0.1845  0.3880
  742MOL0     O97836   1.320   8.824  11.516 -0.3260  0.3525  0.5041
  742MOL0     C97837   1.198   8.838  11.575 -0.6605  0.2717 -0.2571
  742MOL0     C97838   1.097   8.923  11.543 -0.2715  0.4373  0.0286
  742MOL0     C97839   0.966   8.923  11.603 -0.3875 -0.2809 -0.6673
  742MOL0     C97840   0.932   8.827  11.699 -1.2905  0.3691 -0.0820
  742MOL0     C97841   0.801   8.823  11.759  0.7530  0.1229 -0.6563
  742MOL0     O97842   0.754   8.949  11.800  0.1783  0.6726  0.2787
  742MOL0     C97843   0.629   8.951  11.864 -0.5362 -0.0436 -0.6257
  742MOL0     C97844   0.524   9.035  11.813  0.4932  0.2027  0.6003
  742MOL0     C97845   0.405   9.052  11.896  0.8956  0.2786  0.6053
  742MOL0     C97846   0.374   8.978  12.008  0.5389 -0.2058  0.5657
  742MOL0     O97847   0.261   8.998  12.086 -0.8413  0.0326 -0.2274
  742MOL0     C97848   0.144   9.049  12.016 -0.5042  0.5510  0.7561
  742MOL0     C97849   0.108   8.958  11.895 -0.5117 -0.4828 -0.2780
  742MOL0     C97850  -0.033   8.986  11.834  0.3257 -1.2030  0.2179
  742MOL0     C97851  -0.068   8.867  11.748 -0.5697 -0.7809 -0.1498
  742MOL0     C97852  -0.195   8.887  11.653  0.0219 -0.8050 -0.4874
  742MOL0     C97853  -0.234   8.755  11.577  0.3309 -0.5557  0.0426
  742MOL0     C97854  -0.373   8.772  11.508 -0.8226 -0.1349 -0.5779
  742MOL0     C97855  -0.482   8.754  11.604 -0.6697 -0.4980 -1.1974
  742MOL0    Cl97856  -0.636   8.718  11.519  0.1180 -0.4145 -0.3093
  742MOL0     C97857   0.477   8.898  12.058 -0.3584  0.7983 -0.3435
  742MOL0     C97858   0.602   8.878  11.985  0.2660  0.4032 -0.6395
  742MOL0     O97859   0.742   8.716  11.773  0.2539 -0.0696 -1.0433
  742MOL0     C97860   1.038   8.753  11.740  0.5885 -0.0335 -0.3445
  742MOL0     C97861   1.170   8.767  11.690  0.2972 -0.0089  0.1260
  742MOL0     N97862   1.331   8.557  11.053 -0.0592 -0.3355 -0.6101
  742MOL0     N97863   1.329   8.573  10.925 -0.6291 -0.6293 -0.0039
  742MOL0     C97864   1.004   9.393  10.796  0.1693 -0.2527  0.0277
  742MOL0     C97865   0.874   9.395  10.756  0.7697  0.5273  0.1501
  742MOL0     C97866   0.472   9.406  10.567  0.3009 -0.0922 -0.5685
  742MOL0     C97867   0.458   9.489  10.446  0.4088 -0.0367  0.5815
  742MOL0     C97868   0.339   9.516  10.385  0.2173  0.7019  0.0745
  742MOL0     C97869   0.229   9.438  10.429 -0.1624  0.3318  0.1663
  742MOL0     O97870   0.117   9.459  10.346 -0.1841 -0.2722  0.4014
  742MOL0     C97871  -0.005   9.399  10.371 -0.2249 -0.5266 -0.0386
  742MOL0     C97872  -0.066   9.460  10.496 -0.4359 -0.1998  0.8064
  742MOL0     C97873  -0.041   9.609  10.513 -0.4121 -0.2357 -0.1749
  742MOL0     C97874  -0.150   9.673  10.600  0.1142  0.0315  0.2425
  742MOL0     C97875  -0.136   9.814  10.606 -0.1534  0.1549  0.1035
  742MOL0     C97876  -0.145   9.935  10.615 -0.7139  0.2501 -0.3503
  742MOL0     C97877   0.248   9.343  10.527 -0.1454  1.2139  0.8550
  742MOL0     C97878   0.370   9.325  10.595 -0.5057 -0.2708 -0.0298
  742MOL0     H97879   0.914   9.497  10.428  0.4157  1.1399  0.2902
  742MOL0     H97880   1.148   9.497  10.510 -0.4755  0.0484  1.0162
  742MOL0     H97881   1.229   9.245  10.856 -2.0153  0.3177 -1.9637
  742MOL0     H97882   1.223   9.404  10.938 -2.2081 -0.7590 -2.0701
  742MOL0     H97883   1.416   9.367  10.993 -1.3401 -2.3588  1.4658
  742MOL0     H97884   1.473   9.405  10.824  1.5911  0.4891  1.8008
  742MOL0     H97885   1.449   9.134  10.936 -1.2921  2.2104  2.2175
  742MOL0     H97886   1.589   9.234  10.851  0.5318 -2.2366 -1.1923
  742MOL0     H97887   1.357   9.140  10.704 -0.6944  0.1509 -1.0363
  742MOL0     H97888   1.520   9.211  10.659  0.3595 -0.8040 -1.5495
  742MOL0     H97889   1.646   9.030  10.727 -0.8049 -1.7152  4.2119
  742MOL0     H97890   1.525   8.980  10.603 -3.2778  1.6908  0.5583
  742MOL0     H97891   1.389   8.878  10.753 -0.5368 -1.0198  0.4575
  742MOL0     H97892   1.485   8.917  10.899  3.1452 -0.5262 -0.1516
  742MOL0     H97893   1.624   8.793  10.667 -1.9514 -2.4154 -0.9797
  742MOL0     H97894   1.668   8.775  10.838  0.2544 -0.4678  0.3641
  742MOL0     H97895   1.561   8.566  10.704  0.2623  1.2898 -0.4533
  742MOL0     H97896   1.421   8.663  10.693  0.1123 -1.5627 -1.1078
  742MOL0     H97897   1.652   8.573  11.009 -0.2854 -0.4172 -0.2848
  742MOL0     H97898   1.612   8.533  11.245  0.9092 -0.2031 -0.2430
  742MOL0     H97899   1.480   8.430  11.276  2.6529 -0.2612  2.1345
  742MOL0     H97900   1.483   8.598  11.451 -0.5020 -2.6034 -0.1461
  742MOL0     H97901   1.333   8.612  11.368 -1.0431  3.4539  2.0470
  742MOL0     H97902   1.541   8.832  11.392 -1.7321 -0.5043  2.1651
  742MOL0     H97903   1.480   8.819  11.230  0.3947  1.8054 -0.3525
  742MOL0     H97904   1.253   8.812  11.325  0.4617 -1.4243  2.0816
  742MOL0     H97905   1.357   8.966  11.372  4.2473 -0.3615 -0.0699
  742MOL0     H97906   1.119   8.992  11.461 -0.7717  1.4835  0.7548
  742MOL0     H97907   0.890   8.991  11.567 -0.3591  2.0008  3.1041
  742MOL0     H97908   0.527   9.104  11.729  0.3323  0.8858  1.1392
  742MOL0     H97909   0.335   9.125  11.855 -0.1797 -1.4141 -0.6896
  742MOL0     H97910   0.149   9.153  11.981 -3.1258  0.7421  0.7593
  742MOL0     H97911   0.062   9.031  12.086 -0.7814 -1.7592 -0.1029
  742MOL0     H97912   0.098   8.855  11.932  0.0966 -0.1399  0.8994
  742MOL0     H97913   0.185   8.941  11.819 -0.2691 -1.5810  0.1846
  742MOL0     H97914  -0.038   9.073  11.768  2.6178 -1.2256 -0.0599
  742MOL0     H97915  -0.113   8.995  11.908  1.1936 -1.0363  1.1729
  742MOL0     H97916   0.013   8.849  11.677 -2.0808 -2.0586 -1.6025
  742MOL0     H97917  -0.082   8.781  11.813 -5.0773  0.1934  0.4856
  742MOL0     H97918  -0.181   8.962  11.575 -1.0949 -1.7495 -1.6452
  742MOL0     H97919  -0.276   8.921  11.717  0.5853  1.0278 -0.7004
  742MOL0     H97920  -0.221   8.669  11.643 -1.8774  0.1437  1.5250
  742MOL0     H97921  -0.168   8.739  11.492  1.1582 -1.8239  0.8947
  742MOL0     H97922  -0.387   8.864  11.451  1.4228  0.3697 -0.4227
  742MOL0     H97923  -0.386   8.702  11.425  0.2217 -0.5504 -0.4092
  742MOL0     H97924  -0.491   8.842  11.668  1.4534 -0.5562 -0.7666
  742MOL0     H97925  -0.447   8.674  11.669  0.2837 -0.9861 -2.2666
  742MOL0     H97926   0.455   8.834  12.143 -1.7975  0.8809 -0.6253
  742MOL0     H97927   0.663   8.801  12.030 -1.6961 -0.1487  1.2201
  742MOL0     H97928   1.021   8.689  11.826 -1.9827  0.6375 -0.2810
  742MOL0     H97929   1.246   8.703  11.733  1.1402  1.1448  0.4006
  742MOL0     H97930   1.026   9.375  10.901  1.6110 -1.0539 -0.3951
  742MOL0     H97931   0.796   9.371  10.829 -0.9261 -1.2607 -2.0903
  742MOL0     H97932   0.541   9.547  10.407 -0.1538  1.1650  1.1052
  742MOL0     H97933   0.335   9.583  10.299  1.3047 -1.6251 -1.9088
  742MOL0     H97934   0.006   9.290  10.384  0.6400 -0.5073 -0.5157
  742MOL0     H97935  -0.070   9.415  10.285 -3.1026 -3.2628  1.4139
  742MOL0     H97936  -0.169   9.426  10.511 -0.3361  0.4085  3.3790
  742MOL0     H97937  -0.005   9.428  10.581  1.5195  2.1404  0.4041
  742MOL0     H97938  -0.038   9.655  10.414 -2.2110  0.1824 -0.0532
  742MOL0     H97939   0.054   9.631  10.562 -1.3322  2.5613  0.4876
  742MOL0     H97940  -0.252   9.644  10.574  1.2537 -2.3121 -2.0905
  742MOL0     H97941  -0.126   9.634  10.700 -0.3589 -0.7404  0.0622
  742MOL0     H97942  -0.146  10.042  10.622 -1.8858  0.1979  0.8552
  742MOL0     H97943   0.164   9.278  10.551  2.0787 -2.1272  0.3596
  742MOL0     H97944   0.354   9.269  10.687 -0.5971 -1.1870 -0.5815
  743MOL0     O97945   9.083   5.000   1.192 -0.7597 -0.2901  0.6999
  743MOL0     C97946   9.129   5.110   1.224 -0.6872 -0.1889 -0.3804
  743MOL0     O97947   9.262   5.120   1.274 -0.2516 -0.1315  0.1880
  743MOL0     C97948   9.312   5.001   1.303  0.1445  0.2494  0.4053
  743MOL0     C97949   9.269   4.921   1.408 -0.0433  0.1589  1.0199
  743MOL0     C97950   9.332   4.786   1.440  1.6995  0.7155 -0.7004
  743MOL0     C97951   9.446   4.750   1.373 -0.3862 -0.2699  0.0100
  743MOL0     O97952   9.516   4.638   1.398 -0.2508 -0.4913 -0.1057
  743MOL0     C97953   9.585   4.619   1.518  0.0298  0.0218 -0.4640
  743MOL0     C97954   9.716   4.717   1.541  0.0510 -0.1340  0.2667
  743MOL0     C97955   9.744   4.761   1.680 -1.1222  0.0630 -0.3852
  743MOL0     C97956   9.628   4.833   1.760 -0.8362 -0.1283  0.1849
  743MOL0     C97957   9.691   4.917   1.874 -0.9261  0.7353 -0.4635
  743MOL0     C97958   9.588   4.995   1.954  0.1233  0.2516  0.1742
  743MOL0     C97959   9.666   5.101   2.030  0.6055  0.1726  0.3656
  743MOL0     C97960   9.568   5.209   2.059 -0.2887  0.0762  0.0924
  743MOL0     N97961   9.606   5.328   2.123 -0.3426 -0.2135  0.0684
  743MOL0     C97962   9.702   5.418   2.078  0.2297  0.1330 -0.1243
  743MOL0     C97963   9.699   5.512   2.176 -0.1585 -0.6565 -0.3625
  743MOL0     C97964   9.803   5.622   2.190  0.0488  0.1570  0.1706
  743MOL0     C97965   9.757   5.729   2.102 -0.3740  0.6921  0.2272
  743MOL0     C97966   9.624   5.792   2.142 -0.1088 -0.2668 -0.7263
  743MOL0     C97967   9.598   5.918   2.054  0.5647  0.1350  0.3332
  743MOL0     O97968   9.694   6.022   2.085 -1.2686  0.2124 -0.4234
  743MOL0     C97969   9.659   6.150   2.069 -0.1765  0.4418 -0.1172
  743MOL0     C97970   9.561   6.198   1.986 -0.0098 -0.0527  0.0795
  743MOL0     C97971   9.548   6.333   1.958 -0.8602 -0.4955  0.7187
  743MOL0     C97972   9.651   6.414   2.009 -0.4362  0.1552 -0.0298
  743MOL0     C97973   9.652   6.550   1.981 -0.9432 -1.0426  0.3559
  743MOL0     O97974   9.567   6.587   1.891 -0.2741  0.5798 -0.3672
  743MOL0     C97975   9.573   6.712   1.847 -0.3017 -0.7468  0.5070
  743MOL0     C97976   9.652   6.744   1.732  0.3520 -0.7341  0.6001
  743MOL0     C97977   9.651   6.875   1.686  1.3874 -0.4075  0.1452
  743MOL0     C97978   9.559   6.965   1.736  0.4373 -0.1135 -0.1052
  743MOL0     O97979   9.557   7.096   1.698  0.8924 -0.5085  0.6560
  743MOL0     C97980   9.640   7.189   1.770  0.0111 -0.4332  0.2283
  743MOL0     C97981   9.566   7.312   1.820 -0.1024  0.3593 -0.1208
  743MOL0     C97982   9.444   7.282   1.902 -0.2840  0.5532 -1.0802
  743MOL0     C97983   9.473   7.229   2.041  0.2620 -0.0168 -0.5434
  743MOL0     C97984   9.343   7.183   2.117 -0.2579  0.3749  1.0630
  743MOL0     C97985   9.240   7.301   2.127 -0.1568  0.3637 -0.3616
  743MOL0     C97986   9.123   7.268   2.226 -0.1439  0.4367  0.5715
  743MOL0     C97987   9.045   7.399   2.251 -0.1749 -1.0579  0.0780
  743MOL0    Cl97988   8.898   7.391   2.346  0.0622  0.5725  0.2228
  743MOL0     C97989   9.470   6.921   1.842 -0.1929  0.5121 -0.0703
  743MOL0     C97990   9.492   6.801   1.900  0.1512 -0.4671 -0.2068
  743MOL0     O97991   9.745   6.621   2.031  0.3091  0.4816  1.3832
  743MOL0     C97992   9.738   6.368   2.104 -0.4973 -0.1049  0.2288
  743MOL0     C97993   9.745   6.238   2.138 -0.2924  0.2195  0.3451
  743MOL0     N97994   9.610   5.479   2.280 -0.3737  0.4077  0.5010
  743MOL0     N97995   9.568   5.359   2.249  0.0082 -0.4281  0.7215
  743MOL0     C97996   9.496   4.837   1.278 -0.1379 -0.6869  0.3049
  743MOL0     C97997   9.435   4.958   1.241 -0.0605  0.5051 -0.2715
  743MOL0     C97998   9.054   5.235   1.212  0.9762 -0.5789 -1.1859
  743MOL0     C97999   9.105   5.360   1.274 -0.5333 -0.0729  0.4552
  743MOL0     C98000   9.034   5.473   1.241 -0.2649 -0.0809 -1.0923
  743MOL0     C98001   8.927   5.479   1.154  0.0683  1.7956  0.3423
  743MOL0     O98002   8.858   5.595   1.152 -0.0200  0.4447 -0.2839
  743MOL0     C98003   8.818   5.643   1.022  0.9952 -0.2108  0.0510
  743MOL0     C98004   8.787   5.785   1.038 -0.4519 -0.8081  0.9986
  743MOL0     C98005   8.717   5.841   1.162 -1.1195 -1.1268 -1.0036
  743MOL0     C98006   8.569   5.813   1.167  0.2087  0.6502  0.1327
  743MOL0     C98007   8.485   5.872   1.063 -0.1699  0.1535 -0.3802
  743MOL0     C98008   8.413   5.917   0.978 -0.6706 -0.1846  0.0672
  743MOL0     C98009   8.877   5.362   1.098  0.3844  0.0753  0.1154
  743MOL0     C98010   8.940   5.243   1.135 -0.8618 -0.4106  0.8021
  743MOL0     H98011   9.173   4.944   1.453 -0.8148  3.0216 -1.7760
  743MOL0     H98012   9.297   4.727   1.524  2.9319  0.1111 -0.5924
  743MOL0     H98013   9.610   4.513   1.527 -3.0055 -0.6858  0.9029
  743MOL0     H98014   9.519   4.627   1.605 -1.2220 -2.4617 -1.0961
  743MOL0     H98015   9.699   4.802   1.474  3.1252 -1.9027 -3.1790
  743MOL0     H98016   9.803   4.665   1.500 -0.8659 -0.9694 -0.6755
  743MOL0     H98017   9.832   4.825   1.671  0.5481 -1.7139  1.8963
  743MOL0     H98018   9.777   4.679   1.746 -2.3604  0.8913  1.3340
  743MOL0     H98019   9.583   4.908   1.694 -1.6308  1.3694  2.3076
  743MOL0     H98020   9.562   4.760   1.808  1.4197 -2.2110  0.2828
  743MOL0     H98021   9.759   4.986   1.823 -0.3792  0.6309  0.1203
  743MOL0     H98022   9.744   4.855   1.946 -3.5550 -4.6018 -2.5078
  743MOL0     H98023   9.529   4.934   2.023  1.4849  0.6583  1.7481
  743MOL0     H98024   9.524   5.047   1.882 -0.5172 -1.3555 -0.4806
  743MOL0     H98025   9.710   5.046   2.114  0.9497 -3.5805 -2.0349
  743MOL0     H98026   9.754   5.141   1.979 -0.4996 -0.2647 -1.9836
  743MOL0     H98027   9.478   5.161   2.099  0.1086 -1.8659 -1.2017
  743MOL0     H98028   9.534   5.249   1.963  2.4859 -1.8079 -1.8397
  743MOL0     H98029   9.744   5.432   1.979 -0.5650 -0.2427 -0.5291
  743MOL0     H98030   9.902   5.590   2.154 -0.2092 -0.5790  0.1030
  743MOL0     H98031   9.804   5.658   2.293  0.9153  0.6908 -0.0125
  743MOL0     H98032   9.743   5.685   2.003 -1.3149 -1.1924  1.1448
  743MOL0     H98033   9.843   5.798   2.103  1.3749 -1.2573  3.8736
  743MOL0     H98034   9.539   5.724   2.129 -0.0614 -0.6165  0.5800
  743MOL0     H98035   9.628   5.824   2.247  0.3524 -2.0768 -0.1411
  743MOL0     H98036   9.500   5.964   2.070 -0.4387 -1.5665 -0.6547
  743MOL0     H98037   9.599   5.882   1.951 -2.5787  1.7149 -0.3738
  743MOL0     H98038   9.486   6.140   1.933 -0.5618  1.1195 -0.4682
  743MOL0     H98039   9.472   6.368   1.889  0.9196  0.5294 -0.8122
  743MOL0     H98040   9.719   6.672   1.687  1.8796 -0.6325  2.5967
  743MOL0     H98041   9.724   6.893   1.608  2.1892 -4.8087 -0.3471
  743MOL0     H98042   9.715   7.224   1.699  0.3208  3.8257  2.3818
  743MOL0     H98043   9.701   7.138   1.846  1.0611  0.2864 -0.1120
  743MOL0     H98044   9.551   7.389   1.744  2.4234  3.7590  2.4580
  743MOL0     H98045   9.642   7.366   1.879 -1.0203  2.0759 -0.4388
  743MOL0     H98046   9.370   7.220   1.851 -0.9677 -0.0430  0.5583
  743MOL0     H98047   9.397   7.381   1.911 -0.6381  0.6260 -3.2344
  743MOL0     H98048   9.527   7.134   2.038  0.2304 -0.0198 -1.1946
  743MOL0     H98049   9.523   7.309   2.096  2.4311  0.2957 -2.7980
  743MOL0     H98050   9.379   7.150   2.215  2.4284  0.0411  0.0488
  743MOL0     H98051   9.303   7.101   2.055 -0.8721  2.1946 -1.0655
  743MOL0     H98052   9.199   7.329   2.030  1.9178  0.5393 -1.2330
  743MOL0     H98053   9.288   7.397   2.149 -0.7369  0.8384 -1.1339
  743MOL0     H98054   9.051   7.194   2.189 -0.8579 -0.0663  2.8120
  743MOL0     H98055   9.154   7.218   2.318  0.2565 -2.0192 -0.8126
  743MOL0     H98056   9.020   7.441   2.153  0.5958 -2.1957 -0.6308
  743MOL0     H98057   9.106   7.473   2.303 -1.0613 -1.1842  1.3514
  743MOL0     H98058   9.396   6.995   1.871 -1.0161 -0.1172 -0.5256
  743MOL0     H98059   9.431   6.778   1.987 -0.8117 -3.0537 -1.4594
  743MOL0     H98060   9.806   6.439   2.151  1.2853  3.0376 -6.0171
  743MOL0     H98061   9.817   6.195   2.207 -0.8487 -0.2681  0.6436
  743MOL0     H98062   9.583   4.793   1.230  0.2492 -2.7318  2.6552
  743MOL0     H98063   9.459   5.018   1.154 -1.0921 -1.4618 -2.0238
  743MOL0     H98064   9.193   5.342   1.336 -0.4336 -2.6251 -0.3218
  743MOL0     H98065   9.061   5.565   1.292 -4.1133 -1.3226  3.9945
  743MOL0     H98066   8.737   5.591   0.971 -0.6873  0.1079  2.2633
  743MOL0     H98067   8.904   5.623   0.956 -1.4580 -0.3377 -3.3774
  743MOL0     H98068   8.877   5.847   1.030  0.0477 -1.6542 -0.4090
  743MOL0     H98069   8.736   5.810   0.944  3.1641  3.3770 -0.2100
  743MOL0     H98070   8.757   5.943   1.170  2.8225 -2.6705  1.9587
  743MOL0     H98071   8.760   5.800   1.254  0.8817 -0.4812 -1.6021
  743MOL0     H98072   8.552   5.705   1.174 -3.6892  1.2469  4.1330
  743MOL0     H98073   8.533   5.833   1.268 -2.3636 -0.3998 -0.5024
  743MOL0     H98074   8.349   5.966   0.907  1.4589 -0.1091 -1.9339
  743MOL0     H98075   8.794   5.360   1.028  0.4125  0.1747  0.0797
  743MOL0     H98076   8.903   5.159   1.077 -0.0281 -0.9403  1.0141
  744MOL0     O98077  11.173   4.048   8.564  0.3804 -0.1370 -0.7746
  744MOL0     C98078  11.054   4.037   8.589 -0.6783  0.4204  0.1259
  744MOL0     O98079  10.993   3.918   8.620 -0.2914 -0.2115  0.3507
  744MOL0     C98080  11.079   3.814   8.646  0.3513  1.1967 -0.1725
  744MOL0     C98081  11.113   3.720   8.549  0.4964  0.0924  0.3765
  744MOL0     C98082  11.192   3.612   8.573  1.0213 -0.5407 -0.1224
  744MOL0     C98083  11.247   3.587   8.701  0.2041 -0.0757 -0.2916
  744MOL0     O98084  11.327   3.483   8.716 -0.4438 -0.3036  0.0215
  744MOL0     C98085  11.368   3.450   8.840 -0.4972 -0.2801 -0.6881
  744MOL0     C98086  11.428   3.302   8.839 -1.3565  0.0952  0.1370
  744MOL0     C98087  11.314   3.212   8.846  0.0927  0.1388 -0.6262
  744MOL0     C98088  11.346   3.063   8.799 -1.0533 -0.1505 -0.2780
  744MOL0     C98089  11.218   2.983   8.785  0.8608 -0.2631  0.4431
  744MOL0     C98090  11.178   2.930   8.918 -0.6980 -0.7124 -0.2317
  744MOL0     C98091  11.063   2.827   8.940 -0.8476  0.1142 -0.5161
  744MOL0     C98092  11.050   2.750   9.077  0.5774 -0.6878 -0.0210
  744MOL0     N98093  10.924   2.670   9.066  0.0065  0.3613 -0.0542
  744MOL0     C98094  10.838   2.638   9.169 -0.2662 -0.4930  0.2573
  744MOL0     C98095  10.749   2.545   9.123  0.6459 -0.0468 -0.3938
  744MOL0     C98096  10.644   2.491   9.201 -0.1681 -0.2683  0.4344
  744MOL0     C98097  10.558   2.605   9.256 -0.3128  0.5043  0.4743
  744MOL0     C98098  10.511   2.712   9.159 -1.0135 -0.7196  0.9928
  744MOL0     C98099  10.416   2.650   9.055 -0.5003  0.1870  1.4498
  744MOL0     O98100  10.287   2.631   9.117  0.0583  0.1820 -0.8766
  744MOL0     C98101  10.201   2.733   9.131 -0.3799  0.4121 -0.4187
  744MOL0     C98102  10.090   2.698   9.210 -0.2230 -0.7502  0.1998
  744MOL0     C98103   9.995   2.795   9.238  0.3398  0.9478  0.3804
  744MOL0     C98104   9.998   2.925   9.198 -1.3634 -0.5620  0.7178
  744MOL0     C98105   9.893   3.018   9.227 -1.1891 -0.4754 -0.2962
  744MOL0     O98106   9.905   3.143   9.162  0.4201  1.5597 -0.4831
  744MOL0     C98107   9.837   3.256   9.189  0.1282  0.2552  0.0807
  744MOL0     C98108   9.834   3.353   9.089  0.7137 -1.2358 -0.8540
  744MOL0     C98109   9.761   3.467   9.103 -0.0464 -0.0446 -0.2566
  744MOL0     C98110   9.697   3.493   9.231  0.0732 -0.4248 -0.0953
  744MOL0     O98111   9.603   3.590   9.244 -0.2455 -1.1370  0.6343
  744MOL0     C98112   9.506   3.583   9.141 -0.4277 -0.0160  0.1745
  744MOL0     C98113   9.393   3.683   9.158 -1.2959  0.1366 -0.7346
  744MOL0     C98114   9.449   3.822   9.143  0.2711 -0.4647  0.8005
  744MOL0     C98115   9.333   3.918   9.159 -0.8050 -0.0257 -0.6069
  744MOL0     C98116   9.382   4.064   9.151 -0.7792 -1.3160 -0.7995
  744MOL0     C98117   9.255   4.156   9.190 -0.3663 -0.8875 -0.2690
  744MOL0     C98118   9.290   4.305   9.180  0.8452 -0.0259  1.2351
  744MOL0     C98119   9.365   4.354   9.304 -0.7435  1.1222  0.2940
  744MOL0    Cl98120   9.400   4.527   9.304  0.3252 -0.2150 -0.1096
  744MOL0     C98121   9.697   3.391   9.332  0.2315 -0.9970  1.0287
  744MOL0     C98122   9.761   3.268   9.309  0.3589 -0.4823 -0.0075
  744MOL0     O98123   9.799   2.981   9.287  0.1631 -0.1700  1.2553
  744MOL0     C98124  10.113   2.963   9.123  0.0679 -0.1494 -1.6995
  744MOL0     C98125  10.215   2.868   9.090  0.4762 -0.5728 -0.3242
  744MOL0     N98126  10.771   2.531   8.985 -0.0749  0.3592  0.2075
  744MOL0     N98127  10.877   2.598   8.959 -0.5358 -0.2798  0.6647
  744MOL0     C98128  11.228   3.690   8.793 -0.9964 -0.4150  1.0208
  744MOL0     C98129  11.134   3.789   8.777 -1.0054 -0.9088 -0.4795
  744MOL0     C98130  10.966   4.150   8.576 -0.6637 -0.3763 -0.9656
  744MOL0     C98131  10.981   4.263   8.494 -0.6990 -0.1885 -1.1137
  744MOL0     C98132  10.879   4.366   8.486  0.3470 -0.4734 -0.2869
  744MOL0     C98133  10.774   4.371   8.569 -0.7224  0.0903  0.0566
  744MOL0     O98134  10.687   4.471   8.569  0.4577  0.1571 -0.6409
  744MOL0     C98135  10.643   4.527   8.694 -0.4233 -0.0970 -0.0640
  744MOL0     C98136  10.746   4.594   8.774 -0.0112 -0.1461 -0.0772
  744MOL0     C98137  10.698   4.615   8.924 -0.4790 -0.4015  1.3543
  744MOL0     C98138  10.754   4.502   9.015 -0.0969  0.8298 -0.2570
  744MOL0     C98139  10.677   4.498   9.137  0.7281  0.2740  0.9259
  744MOL0     C98140  10.605   4.485   9.232 -0.4621 -0.6686 -0.1742
  744MOL0     C98141  10.757   4.259   8.646 -0.6379 -0.1089  0.5395
  744MOL0     C98142  10.848   4.151   8.650 -0.1390  1.0046  0.4502
  744MOL0     H98143  11.075   3.735   8.448  0.7258 -1.2111  0.0685
  744MOL0     H98144  11.232   3.544   8.499  2.8469 -0.7892  1.0076
  744MOL0     H98145  11.285   3.451   8.911  0.0197 -1.3954 -0.0503
  744MOL0     H98146  11.440   3.518   8.887  1.2557 -1.5428 -1.4694
  744MOL0     H98147  11.501   3.286   8.919 -0.2410  2.8287 -0.2070
  744MOL0     H98148  11.491   3.291   8.750  0.9121 -0.8890  1.7853
  744MOL0     H98149  11.231   3.261   8.795 -1.2137  1.1990  2.2866
  744MOL0     H98150  11.288   3.199   8.952  5.3692 -1.1785  0.8536
  744MOL0     H98151  11.395   3.061   8.702  0.7748 -0.2328  0.6121
  744MOL0     H98152  11.424   3.024   8.865 -0.4129 -0.8177 -1.4127
  744MOL0     H98153  11.226   2.905   8.709  1.2786  1.8057 -1.7380
  744MOL0     H98154  11.143   3.055   8.751 -0.2791 -2.5871 -2.3534
  744MOL0     H98155  11.154   3.024   8.970  1.9927  0.9711 -1.7704
  744MOL0     H98156  11.271   2.888   8.956  0.3340  0.8647 -0.8883
  744MOL0     H98157  10.966   2.868   8.911 -0.2793  1.2638 -0.8121
  744MOL0     H98158  11.076   2.748   8.865  1.5451  1.0257 -1.1439
  744MOL0     H98159  11.059   2.820   9.160  1.8108  0.9574 -1.4709
  744MOL0     H98160  11.135   2.681   9.084  0.0445 -1.4245 -0.6663
  744MOL0     H98161  10.847   2.677   9.270 -2.4728 -2.1872  1.1753
  744MOL0     H98162  10.692   2.449   9.290  1.1228  0.2632  0.0227
  744MOL0     H98163  10.596   2.417   9.136  0.5866  1.6391 -2.5044
  744MOL0     H98164  10.622   2.653   9.330  1.6811 -2.8124  1.1211
  744MOL0     H98165  10.474   2.551   9.301 -0.7084 -1.3811 -2.2636
  744MOL0     H98166  10.477   2.810   9.193 -3.7886 -1.1174 -0.3590
  744MOL0     H98167  10.602   2.738   9.103 -1.5088 -1.8971 -0.4268
  744MOL0     H98168  10.458   2.560   9.008 -1.2754  0.8374 -0.6218
  744MOL0     H98169  10.412   2.716   8.968  1.9035 -1.5297 -0.0814
  744MOL0     H98170  10.080   2.597   9.248  1.4353 -1.4446 -1.0205
  744MOL0     H98171   9.906   2.763   9.289  1.1846 -2.2689  0.0532
  744MOL0     H98172   9.890   3.330   8.999 -0.8374 -1.1823 -1.8511
  744MOL0     H98173   9.752   3.548   9.031 -3.0229  1.0372  1.1845
  744MOL0     H98174   9.455   3.487   9.134 -1.1958  0.4289 -0.5754
  744MOL0     H98175   9.560   3.611   9.050  1.3180 -0.0883  1.1554
  744MOL0     H98176   9.341   3.665   9.253 -0.2021 -0.5724 -0.2477
  744MOL0     H98177   9.315   3.657   9.086 -3.0212 -1.0112  1.4276
  744MOL0     H98178   9.486   3.833   9.041 -0.8196  1.0958  0.5377
  744MOL0     H98179   9.529   3.840   9.215  2.1352  2.0116 -1.6902
  744MOL0     H98180   9.266   3.922   9.072  0.7041 -0.6321 -1.8549
  744MOL0     H98181   9.280   3.900   9.253  1.0802 -0.0140  0.5067
  744MOL0     H98182   9.415   4.082   9.048 -0.1588 -1.8187 -0.6868
  744MOL0     H98183   9.465   4.080   9.220 -1.4115 -0.6249 -0.1720
  744MOL0     H98184   9.211   4.116   9.281 -3.8774 -2.3245 -2.3615
  744MOL0     H98185   9.173   4.147   9.118 -1.9141  0.4412  1.2400
  744MOL0     H98186   9.362   4.322   9.099 -0.2013  1.6086  0.5970
  744MOL0     H98187   9.193   4.356   9.172 -0.0367 -1.3351  2.9726
  744MOL0     H98188   9.462   4.304   9.304 -0.2156  1.8840 -3.2450
  744MOL0     H98189   9.311   4.337   9.397 -0.1251 -2.5942  0.1284
  744MOL0     H98190   9.635   3.419   9.416 -1.3055  1.0478 -0.6747
  744MOL0     H98191   9.752   3.194   9.388 -2.6548 -3.2566 -2.7063
  744MOL0     H98192  10.112   3.066   9.090 -3.3870 -0.3512 -2.5977
  744MOL0     H98193  10.305   2.905   9.043 -0.1883  0.5778 -0.7367
  744MOL0     H98194  11.285   3.685   8.885  1.6919 -0.9394 -0.5585
  744MOL0     H98195  11.105   3.847   8.864  4.0371  0.6452  0.4819
  744MOL0     H98196  11.082   4.279   8.460  1.2983 -0.9297  3.6318
  744MOL0     H98197  10.908   4.447   8.420 -1.0172  0.8727  0.7325
  744MOL0     H98198  10.591   4.454   8.757 -1.0500  0.3789 -0.0293
  744MOL0     H98199  10.562   4.599   8.678 -0.6252  1.1165  4.8353
  744MOL0     H98200  10.840   4.538   8.775  0.7225  0.9583  2.7602
  744MOL0     H98201  10.774   4.692   8.734  0.1925  0.0095  0.4362
  744MOL0     H98202  10.589   4.609   8.937 -0.6128  0.3648  0.6714
  744MOL0     H98203  10.738   4.712   8.956  2.7061 -2.6293  4.8989
  744MOL0     H98204  10.756   4.406   8.963 -1.7927  2.1794 -3.0523
  744MOL0     H98205  10.860   4.531   9.025  0.7213 -0.7548 -3.1471
  744MOL0     H98206  10.543   4.482   9.319  1.1017 -1.4419  0.9736
  744MOL0     H98207  10.675   4.256   8.717 -1.9576  0.8904 -0.8705
  744MOL0     H98208  10.816   4.072   8.718 -2.7961  1.4407 -0.1769
  745MOL0     O98209   4.009   7.997   2.831  0.3773 -0.0507 -0.3813
  745MOL0     C98210   3.907   8.016   2.767 -0.6440  0.4405  0.0288
  745MOL0     O98211   3.836   7.924   2.684  0.2082 -1.1281 -0.9452
  745MOL0     C98212   3.883   7.799   2.679 -0.2022  0.6592 -0.0199
  745MOL0     C98213   3.931   7.724   2.788  0.3596  0.1341  0.0268
  745MOL0     C98214   3.977   7.588   2.765  0.5279 -1.1484  0.4245
  745MOL0     C98215   3.942   7.524   2.648  0.2137  0.3163 -0.1603
  745MOL0     O98216   3.971   7.392   2.641 -0.4103 -0.7473  0.9669
  745MOL0     C98217   3.870   7.306   2.597 -0.5924  0.1808 -0.0086
  745MOL0     C98218   3.775   7.258   2.702 -0.2852 -0.6996 -0.1834
  745MOL0     C98219   3.680   7.144   2.667 -0.1440  0.2161 -0.5704
  745MOL0     C98220   3.742   7.002   2.687 -0.7643  0.2693 -0.2606
  745MOL0     C98221   3.663   6.883   2.646 -0.4483  0.0669  0.0577
  745MOL0     C98222   3.517   6.868   2.708 -0.2651 -1.0552  0.7792
  745MOL0     C98223   3.458   6.723   2.710 -0.1952  0.2449 -0.2104
  745MOL0     C98224   3.549   6.620   2.796  0.7483  0.8519 -0.4217
  745MOL0     N98225   3.484   6.490   2.791 -0.0759  0.2443 -0.5599
  745MOL0     C98226   3.415   6.429   2.897  0.0588  1.3408 -0.4402
  745MOL0     C98227   3.374   6.308   2.848  0.5005  0.1574 -0.5632
  745MOL0     C98228   3.287   6.204   2.911 -0.2554 -0.0886 -1.3626
  745MOL0     C98229   3.201   6.126   2.810 -0.6331 -0.5214 -0.8009
  745MOL0     C98230   3.086   6.209   2.746 -0.3844  0.9531  0.4347
  745MOL0     C98231   3.134   6.299   2.651  0.1447  0.3653 -0.6960
  745MOL0     O98232   3.032   6.357   2.570  0.4509  0.2546  0.1725
  745MOL0     C98233   3.054   6.461   2.487 -0.1303 -0.1971  0.8030
  745MOL0     C98234   2.944   6.538   2.445  0.0412 -0.3469  0.1317
  745MOL0     C98235   2.964   6.654   2.367 -0.3693  0.7322 -0.6148
  745MOL0     C98236   3.089   6.687   2.322  0.2449 -0.9467  0.1650
  745MOL0     C98237   3.101   6.819   2.247 -0.2856  0.0993  0.8634
  745MOL0     O98238   3.205   6.813   2.154  0.2295  0.5488  0.3780
  745MOL0     C98239   3.228   6.909   2.064 -0.4077  0.5096 -0.2519
  745MOL0     C98240   3.331   6.882   1.972 -0.1406  0.2546 -0.5450
  745MOL0     C98241   3.376   6.975   1.884  0.5564 -0.3145 -0.2564
  745MOL0     C98242   3.321   7.107   1.870 -1.0052  1.5802  0.0367
  745MOL0     O98243   3.373   7.209   1.794 -0.4032  0.3227  0.0717
  745MOL0     C98244   3.492   7.201   1.710 -0.7728  0.2733 -0.2773
  745MOL0     C98245   3.460   7.143   1.571 -0.6100  0.2843 -0.4162
  745MOL0     C98246   3.389   7.242   1.469 -1.5898  0.0928 -0.8347
  745MOL0     C98247   3.349   7.184   1.334 -0.0437 -1.2825  1.4752
  745MOL0     C98248   3.240   7.075   1.335 -0.6313  0.0936 -0.9313
  745MOL0     C98249   3.195   7.044   1.198 -0.9413  0.0358 -0.2054
  745MOL0     C98250   3.103   6.919   1.201  0.7394 -0.1838 -0.3021
  745MOL0     C98251   3.116   6.833   1.084 -0.1155  0.4245 -0.3739
  745MOL0    Cl98252   3.138   6.912   0.925  0.5393  0.2745 -0.7347
  745MOL0     C98253   3.214   7.130   1.950  0.4912 -0.6378  0.5356
  745MOL0     C98254   3.177   7.039   2.045 -0.0451  0.0781 -0.9559
  745MOL0     O98255   3.020   6.910   2.258 -0.4073  0.1031  0.6202
  745MOL0     C98256   3.189   6.604   2.350 -0.7279 -0.0296  0.1954
  745MOL0     C98257   3.181   6.500   2.436  0.3695  0.0411  0.9315
  745MOL0     N98258   3.428   6.294   2.720  0.1999 -0.1788 -0.1172
  745MOL0     N98259   3.492   6.406   2.685  0.7440  1.3615  0.4088
  745MOL0     C98260   3.885   7.596   2.544  0.0661 -0.2755 -0.3157
  745MOL0     C98261   3.853   7.727   2.557 -0.0001 -0.1400  0.1208
  745MOL0     C98262   3.838   8.148   2.793  0.4855  0.0159 -0.0301
  745MOL0     C98263   3.902   8.252   2.847 -0.9445  0.6641 -0.3583
  745MOL0     C98264   3.840   8.360   2.903 -0.7103 -0.0501 -0.2846
  745MOL0     C98265   3.706   8.369   2.895  1.1211  0.2275  0.2358
  745MOL0     O98266   3.647   8.482   2.954  0.6807  0.2482  0.1033
  745MOL0     C98267   3.622   8.590   2.856  1.0438 -0.2035 -0.0291
  745MOL0     C98268   3.747   8.674   2.825  0.0307  0.3764 -0.1501
  745MOL0     C98269   3.703   8.784   2.730  0.7055  0.3476 -0.2766
  745MOL0     C98270   3.816   8.884   2.707  0.0867  0.0732  0.2770
  745MOL0     C98271   3.930   8.818   2.649  0.0246  0.4168 -0.3753
  745MOL0     C98272   4.029   8.766   2.600  0.0440  1.0767  0.3434
  745MOL0     C98273   3.622   8.273   2.836 -0.6081  0.4073  0.6678
  745MOL0     C98274   3.696   8.156   2.789 -1.1000 -0.3582  0.9868
  745MOL0     H98275   3.935   7.761   2.890 -0.0920  0.6126 -0.1232
  745MOL0     H98276   4.019   7.532   2.847 -0.5698 -1.7072  0.6257
  745MOL0     H98277   3.914   7.211   2.565 -0.8570 -0.1621  0.6299
  745MOL0     H98278   3.799   7.343   2.522  1.2108  5.6962  0.5744
  745MOL0     H98279   3.705   7.341   2.711  1.7832  0.9536  1.5901
  745MOL0     H98280   3.823   7.235   2.797 -0.9452 -0.4427  0.2154
  745MOL0     H98281   3.664   7.151   2.559  0.4468  3.6614 -0.5580
  745MOL0     H98282   3.584   7.141   2.718  1.1127 -2.8431  1.9298
  745MOL0     H98283   3.837   6.995   2.633  0.4370  2.4818  1.4201
  745MOL0     H98284   3.764   6.986   2.793 -3.0606 -1.2011  0.0659
  745MOL0     H98285   3.732   6.801   2.670 -0.9925  0.6438  4.4951
  745MOL0     H98286   3.651   6.885   2.537  2.0203  1.3030 -0.2695
  745MOL0     H98287   3.442   6.921   2.649 -2.6934 -2.0605  2.7778
  745MOL0     H98288   3.514   6.911   2.809 -0.8979 -1.4959  0.9539
  745MOL0     H98289   3.352   6.717   2.736  0.2252 -2.6775  1.2053
  745MOL0     H98290   3.459   6.687   2.606 -5.7093  0.8098 -0.7622
  745MOL0     H98291   3.532   6.665   2.894  0.6723 -0.4717  0.1943
  745MOL0     H98292   3.654   6.621   2.765  0.0276  0.4332 -3.1185
  745MOL0     H98293   3.378   6.466   2.993  1.1154 -0.3404  0.6755
  745MOL0     H98294   3.230   6.262   2.984  0.3675  0.4779 -1.3188
  745MOL0     H98295   3.351   6.131   2.961  1.1530  2.1133  0.2187
  745MOL0     H98296   3.142   6.058   2.873 -1.1068  0.4956 -0.1160
  745MOL0     H98297   3.259   6.074   2.734 -2.2027 -2.5397 -0.6928
  745MOL0     H98298   3.019   6.146   2.687  0.1741 -0.4059  1.2065
  745MOL0     H98299   3.041   6.272   2.823 -3.0091  0.8205 -0.8836
  745MOL0     H98300   3.216   6.255   2.593  0.0036 -1.2859  0.3061
  745MOL0     H98301   3.185   6.382   2.702  1.2643  0.3606 -1.7491
  745MOL0     H98302   2.850   6.495   2.477 -0.4380 -0.0733 -0.8859
  745MOL0     H98303   2.885   6.721   2.334 -2.5636 -1.2151  0.4305
  745MOL0     H98304   3.378   6.784   1.978 -2.9611 -1.1879 -0.6794
  745MOL0     H98305   3.464   6.944   1.829  1.1121  1.9481 -0.7530
  745MOL0     H98306   3.566   7.144   1.768 -1.3225 -3.2686 -2.7128
  745MOL0     H98307   3.523   7.304   1.694 -1.9091  0.8103  0.8338
  745MOL0     H98308   3.394   7.057   1.586 -0.4245  0.1567 -0.3312
  745MOL0     H98309   3.552   7.102   1.527  0.1991  1.3830  0.2036
  745MOL0     H98310   3.460   7.324   1.458  1.4285 -1.9635  1.3685
  745MOL0     H98311   3.300   7.285   1.516 -1.2102 -0.4866  0.4548
  745MOL0     H98312   3.314   7.249   1.253  1.4114  0.2611  2.0308
  745MOL0     H98313   3.436   7.150   1.277 -0.8268 -0.3807 -0.3378
  745MOL0     H98314   3.149   7.106   1.388 -1.6897 -0.4568 -2.3481
  745MOL0     H98315   3.295   6.993   1.382 -1.1241  0.5572  0.5265
  745MOL0     H98316   3.281   7.026   1.133 -2.4671 -1.5402 -1.8977
  745MOL0     H98317   3.129   7.125   1.165  0.4405  1.5970  0.7338
  745MOL0     H98318   3.134   6.858   1.286  3.7717  0.0454 -1.1174
  745MOL0     H98319   2.999   6.953   1.209  0.4632 -1.0149 -0.3016
  745MOL0     H98320   3.029   6.769   1.071  0.3306  0.1283 -2.2523
  745MOL0     H98321   3.201   6.765   1.097 -2.3895 -2.1404  2.7783
  745MOL0     H98322   3.159   7.223   1.945 -0.9249 -1.4379  0.5879
  745MOL0     H98323   3.094   7.081   2.101  3.4008  4.2978  1.6337
  745MOL0     H98324   3.292   6.613   2.319 -1.4265 -3.3830 -4.0358
  745MOL0     H98325   3.273   6.449   2.464 -0.0695 -1.2003  0.2262
  745MOL0     H98326   3.879   7.544   2.449  4.7192 -0.3161 -0.8218
  745MOL0     H98327   3.810   7.782   2.474  1.3402 -0.4679 -0.8319
  745MOL0     H98328   4.011   8.248   2.844 -0.9916 -1.5060 -1.0768
  745MOL0     H98329   3.909   8.438   2.935 -0.0614 -0.3290 -0.9716
  745MOL0     H98330   3.558   8.670   2.894  0.5979 -0.8760  0.6639
  745MOL0     H98331   3.586   8.541   2.765  1.4820 -0.0399 -0.2978
  745MOL0     H98332   3.805   8.697   2.915 -0.3847 -2.0489  0.8069
  745MOL0     H98333   3.811   8.611   2.762 -1.3373 -0.2801 -0.9360
  745MOL0     H98334   3.616   8.830   2.777  0.4466 -2.2489  2.0191
  745MOL0     H98335   3.662   8.745   2.637  1.7403  1.8402 -1.4162
  745MOL0     H98336   3.786   8.958   2.633  1.3121 -1.0126 -1.3734
  745MOL0     H98337   3.859   8.923   2.800  2.5008  0.1409 -0.7813
  745MOL0     H98338   4.116   8.721   2.557 -1.5383 -0.2600 -1.6394
  745MOL0     H98339   3.515   8.288   2.845 -0.3704  1.3574  2.3574
  745MOL0     H98340   3.631   8.080   2.748 -1.5027  0.3591  0.2680
  746MOL0     O98341   0.104   3.510  11.368 -0.3040 -0.2562 -0.1805
  746MOL0     C98342   0.221   3.480  11.402  0.6025 -1.6716 -0.0322
  746MOL0     O98343   0.345   3.523  11.336  0.4602 -1.1120 -1.1009
  746MOL0     C98344   0.338   3.579  11.205  0.1420 -0.3369 -0.2432
  746MOL0     C98345   0.244   3.550  11.095  0.0476  0.9917 -0.5645
  746MOL0     C98346   0.248   3.624  10.978  0.4267  0.2291 -0.4460
  746MOL0     C98347   0.335   3.735  10.969 -0.6672  0.8058 -0.0708
  746MOL0     O98348   0.334   3.808  10.850  0.6159 -0.2548 -0.6642
  746MOL0     C98349   0.294   3.948  10.865  0.2000 -0.4405  0.9722
  746MOL0     C98350   0.236   4.000  10.731 -0.5209 -0.3134  0.7054
  746MOL0     C98351   0.308   3.956  10.604  0.3882  0.5859 -0.3192
  746MOL0     C98352   0.245   3.990  10.460  0.1479  1.2212  0.5405
  746MOL0     C98353   0.302   3.916  10.336 -0.4242  0.5577  0.3490
  746MOL0     C98354   0.275   3.760  10.341 -0.0440 -0.3209 -0.3375
  746MOL0     C98355   0.344   3.692  10.212  1.0269 -0.2167  0.3305
  746MOL0     C98356   0.237   3.662  10.102 -0.4765  0.4266  0.0379
  746MOL0     N98357   0.163   3.535  10.124 -0.0095  0.1519  0.0100
  746MOL0     C98358   0.108   3.491  10.245  0.0666 -0.4412  0.5395
  746MOL0     C98359   0.091   3.357  10.221 -0.0698 -0.6497 -1.3591
  746MOL0     C98360   0.018   3.270  10.320  0.0851  0.1367  0.5026
  746MOL0     C98361  -0.101   3.191  10.248 -0.4570 -1.0497  0.3509
  746MOL0     C98362  -0.187   3.117  10.355  0.0892 -0.4711  0.2719
  746MOL0     C98363  -0.244   3.215  10.456  0.4653 -0.1129  0.4383
  746MOL0     O98364  -0.354   3.148  10.526  0.5841  0.2051 -0.4981
  746MOL0     C98365  -0.335   3.062  10.630 -0.8989 -0.2994 -0.1961
  746MOL0     C98366  -0.225   3.062  10.719  0.8467 -0.4130  0.5792
  746MOL0     C98367  -0.227   2.981  10.833 -1.0936  0.6672 -0.6506
  746MOL0     C98368  -0.338   2.908  10.879 -0.9527 -0.5575  0.0633
  746MOL0     C98369  -0.328   2.814  10.993 -0.4835 -0.1511 -0.1725
  746MOL0     O98370  -0.211   2.796  11.059  0.3769 -0.4317 -0.0516
  746MOL0     C98371  -0.209   2.720  11.182 -0.0611 -0.0973  0.4291
  746MOL0     C98372  -0.320   2.713  11.278 -0.0813  1.5353  0.4796
  746MOL0     C98373  -0.300   2.654  11.402 -0.6204  0.4149  0.1865
  746MOL0     C98374  -0.176   2.594  11.438 -0.5002  0.7679 -0.2566
  746MOL0     O98375  -0.171   2.546  11.567  0.1958 -0.3129  0.6934
  746MOL0     C98376  -0.090   2.432  11.591 -0.2950  0.9209 -1.1224
  746MOL0     C98377  -0.120   2.392  11.739  0.2232  0.1113  1.4376
  746MOL0     C98378   0.009   2.323  11.806 -0.1597 -0.3291  0.2605
  746MOL0     C98379  -0.014   2.305  11.959 -0.3278 -0.1294 -0.9506
  746MOL0     C98380   0.110   2.248  12.028 -0.1448  0.0426 -0.8582
  746MOL0     C98381   0.092   2.220  12.184  0.1712  0.0309  0.1890
  746MOL0     C98382   0.090   2.355  12.258  0.0810  0.1389 -0.1099
  746MOL0     C98383  -0.013   2.347  12.376  0.1059  0.4907 -0.4206
  746MOL0    Cl98384  -0.190   2.372  12.329  0.0309  0.1649 -0.3692
  746MOL0     C98385  -0.074   2.584  11.343 -0.1154 -0.7960  0.9150
  746MOL0     C98386  -0.091   2.656  11.215  0.2010 -0.2966  0.0940
  746MOL0     O98387  -0.428   2.755  11.020 -0.4381 -0.0028  0.6653
  746MOL0     C98388  -0.441   2.903  10.790  0.2558  0.6690  0.2260
  746MOL0     C98389  -0.445   2.980  10.669 -0.3689 -0.2331  0.1063
  746MOL0     N98390   0.130   3.326  10.093 -0.1600  0.0267 -0.1749
  746MOL0     N98391   0.165   3.435  10.033  0.4132  0.2729  0.3304
  746MOL0     C98392   0.421   3.765  11.071 -0.4825  0.2193 -0.0649
  746MOL0     C98393   0.418   3.691  11.188 -0.3394 -0.1736 -0.1878
  746MOL0     C98394   0.229   3.395  11.529 -0.0266  0.0081 -0.4909
  746MOL0     C98395   0.357   3.367  11.569 -0.0201  0.1798  0.5981
  746MOL0     C98396   0.383   3.280  11.680 -0.7004  0.0978  0.5740
  746MOL0     C98397   0.282   3.243  11.768 -0.2558  0.1145  0.9105
  746MOL0     O98398   0.301   3.180  11.878  0.1954  0.5917  0.4471
  746MOL0     C98399   0.434   3.173  11.943  0.6463 -0.2007  0.2828
  746MOL0     C98400   0.397   3.157  12.090 -1.1514 -0.7053 -2.0908
  746MOL0     C98401   0.534   3.134  12.168  0.3575  0.7442  0.4254
  746MOL0     C98402   0.523   3.102  12.313  0.1353 -0.5019  0.4025
  746MOL0     C98403   0.470   2.968  12.346 -0.1934 -0.0649  0.0564
  746MOL0     C98404   0.445   2.857  12.370  1.1638 -1.2771 -0.0826
  746MOL0     C98405   0.147   3.275  11.730  0.6169 -0.4219 -0.1221
  746MOL0     C98406   0.119   3.344  11.609  0.7603  1.6320 -0.5369
  746MOL0     H98407   0.182   3.462  11.113  1.6907  0.2506  2.0665
  746MOL0     H98408   0.179   3.601  10.897  1.0800 -2.7034 -0.2530
  746MOL0     H98409   0.378   4.008  10.900  0.2041  0.9240 -1.2211
  746MOL0     H98410   0.212   3.951  10.937 -1.6672  0.3816 -1.0674
  746MOL0     H98411   0.242   4.109  10.725 -0.1233 -0.3866 -0.4693
  746MOL0     H98412   0.127   3.984  10.732 -0.8497  1.7465  1.5244
  746MOL0     H98413   0.316   3.847  10.608  0.8415  0.5963 -0.8593
  746MOL0     H98414   0.408   3.998  10.613  0.1858  1.0404 -0.1583
  746MOL0     H98415   0.138   3.968  10.465  0.7511 -3.1732 -1.6043
  746MOL0     H98416   0.267   4.096  10.442  0.0675  1.2778  0.7734
  746MOL0     H98417   0.409   3.936  10.326 -0.5810  0.5754 -1.6925
  746MOL0     H98418   0.250   3.948  10.245 -0.3692  2.0051  0.8057
  746MOL0     H98419   0.171   3.727  10.342 -0.3552  0.5444 -1.8057
  746MOL0     H98420   0.315   3.727  10.437  0.5529  2.4499  0.4545
  746MOL0     H98421   0.426   3.757  10.178 -0.6330  1.5620 -0.5006
  746MOL0     H98422   0.388   3.597  10.243  2.2487 -0.0629 -0.8482
  746MOL0     H98423   0.301   3.666  10.014 -0.9031  0.4928 -0.2740
  746MOL0     H98424   0.167   3.746  10.093 -0.1683  0.6972  0.1519
  746MOL0     H98425   0.089   3.551  10.333 -1.3062 -0.6915  0.4292
  746MOL0     H98426  -0.017   3.326  10.407  0.1370 -0.1455  0.7082
  746MOL0     H98427   0.082   3.188  10.357 -1.1988 -1.2662 -0.2814
  746MOL0     H98428  -0.046   3.123  10.182  0.0306 -0.8208  0.5230
  746MOL0     H98429  -0.171   3.246  10.185 -0.1660 -0.8836  0.1703
  746MOL0     H98430  -0.268   3.079  10.291 -1.2877  2.2253  0.2804
  746MOL0     H98431  -0.133   3.037  10.407  1.2524 -0.5723 -1.0173
  746MOL0     H98432  -0.281   3.309  10.417 -0.9001  1.2440  4.4810
  746MOL0     H98433  -0.162   3.247  10.521  0.5038  2.6519 -0.8576
  746MOL0     H98434  -0.137   3.121  10.699  0.6140 -1.1239 -3.4836
  746MOL0     H98435  -0.140   2.972  10.896 -2.6591 -3.5648  1.2381
  746MOL0     H98436  -0.412   2.767  11.259 -0.1823  1.9738  2.0480
  746MOL0     H98437  -0.380   2.674  11.473  0.6641  4.2094  0.7860
  746MOL0     H98438   0.016   2.457  11.587 -0.4156  1.9802  0.8772
  746MOL0     H98439  -0.109   2.345  11.528 -1.4533 -0.0440  0.4705
  746MOL0     H98440  -0.215   2.338  11.748  0.5541 -0.6088  0.7051
  746MOL0     H98441  -0.136   2.484  11.797  2.4846  0.9988  0.7591
  746MOL0     H98442   0.100   2.379  11.782  0.6975  0.8266  5.1395
  746MOL0     H98443   0.015   2.221  11.766 -0.4581 -0.4540  0.5279
  746MOL0     H98444  -0.047   2.398  12.006  1.5151 -0.6032  1.4383
  746MOL0     H98445  -0.086   2.225  11.976  1.4207 -1.5237  0.2113
  746MOL0     H98446   0.200   2.309  12.021  3.1604 -3.9165  2.4200
  746MOL0     H98447   0.126   2.145  11.993  2.0157 -0.3571  1.1250
  746MOL0     H98448   0.180   2.164  12.217  1.6121  2.1295  0.0894
  746MOL0     H98449   0.010   2.154  12.213  0.2210 -0.5360 -0.9105
  746MOL0     H98450   0.184   2.370  12.311  0.3308 -0.0704 -0.4846
  746MOL0     H98451   0.059   2.431  12.185  0.8053 -0.3314 -0.9218
  746MOL0     H98452   0.009   2.414  12.460 -2.0315 -2.5251  2.8051
  746MOL0     H98453  -0.010   2.250  12.425 -5.5740  0.7144  1.0773
  746MOL0     H98454   0.019   2.530  11.355  0.1078 -0.9515 -1.1960
  746MOL0     H98455  -0.012   2.649  11.141 -0.2542  0.7202 -0.5021
  746MOL0     H98456  -0.518   2.833  10.821  1.0397 -0.4552 -0.2877
  746MOL0     H98457  -0.526   2.983  10.596  1.7863 -0.2227 -2.4323
  746MOL0     H98458   0.487   3.850  11.058  0.4908 -0.2549  1.5353
  746MOL0     H98459   0.483   3.717  11.271 -2.8828 -1.5794  2.3914
  746MOL0     H98460   0.444   3.409  11.520  2.5957 -3.3918  1.8230
  746MOL0     H98461   0.487   3.254  11.692 -1.0567 -3.5900 -2.5137
  746MOL0     H98462   0.480   3.271  11.930  0.3100 -0.1111 -0.2375
  746MOL0     H98463   0.491   3.087  11.907 -1.8839 -2.1919  0.7672
  746MOL0     H98464   0.362   3.253  12.128 -0.9275 -1.1906 -0.5518
  746MOL0     H98465   0.326   3.077  12.111 -1.4216  0.0192 -0.0384
  746MOL0     H98466   0.605   3.216  12.157  1.3895  0.1161  2.0549
  746MOL0     H98467   0.577   3.039  12.135 -0.5476 -0.1023  1.5853
  746MOL0     H98468   0.611   3.138  12.368  1.5840 -1.5918 -1.0740
  746MOL0     H98469   0.449   3.179  12.335 -1.2246 -0.5794 -3.2552
  746MOL0     H98470   0.444   2.750  12.384  1.7126 -0.9757  2.7806
  746MOL0     H98471   0.083   3.241  11.810  1.5195  1.0564  1.2901
  746MOL0     H98472   0.020   3.364  11.570  0.3274  7.6904  2.5530
  747MOL0     O98473   1.584   4.381   0.401 -1.0556 -0.2412  0.8928
  747MOL0     C98474   1.633   4.482   0.344 -0.2051 -0.3242  0.1286
  747MOL0     O98475   1.562   4.602   0.352 -0.8306 -0.1731  0.3934
  747MOL0     C98476   1.453   4.589   0.444 -0.0226  0.4991  0.0912
  747MOL0     C98477   1.328   4.544   0.404 -0.5690  1.5700 -0.6495
  747MOL0     C98478   1.214   4.544   0.482  0.7762  0.6006  1.4276
  747MOL0     C98479   1.219   4.595   0.607 -0.7573  0.0424 -0.0218
  747MOL0     O98480   1.094   4.593   0.666 -0.8636 -0.6997 -0.8781
  747MOL0     C98481   1.109   4.559   0.803 -0.1128 -0.7481 -0.8197
  747MOL0     C98482   0.970   4.536   0.855  0.5601  0.0001  0.7825
  747MOL0     C98483   0.984   4.463   0.994 -0.5429  0.4614 -0.4308
  747MOL0     C98484   0.858   4.431   1.067 -0.3416 -0.1416  0.1833
  747MOL0     C98485   0.858   4.463   1.211  0.0909  0.6510 -0.5995
  747MOL0     C98486   0.858   4.615   1.243 -0.2114  0.0887  0.1901
  747MOL0     C98487   0.809   4.645   1.386 -0.0860  1.2055 -0.7787
  747MOL0     C98488   0.929   4.643   1.484 -0.0443  0.4940 -0.1886
  747MOL0     N98489   0.868   4.699   1.607 -0.0340  0.3252 -1.0346
  747MOL0     C98490   0.827   4.634   1.725  0.1345 -1.1573  0.7916
  747MOL0     C98491   0.813   4.734   1.822  0.0019  0.0639  0.2173
  747MOL0     C98492   0.771   4.704   1.962  0.0180  0.6134  0.6803
  747MOL0     C98493   0.894   4.674   2.046 -0.4154  0.1171 -0.3748
  747MOL0     C98494   0.854   4.680   2.195  0.1031  0.1418  0.5773
  747MOL0     C98495   0.965   4.727   2.285 -0.0224 -0.1242 -0.9662
  747MOL0     O98496   1.079   4.638   2.271  0.0124  0.4743 -0.2595
  747MOL0     C98497   1.142   4.611   2.397 -0.2485  0.1233  0.3118
  747MOL0     C98498   1.201   4.716   2.468  0.3184  0.4160  0.0467
  747MOL0     C98499   1.286   4.688   2.581  0.8231 -0.5373 -0.1264
  747MOL0     C98500   1.293   4.560   2.633 -0.3310  0.7439 -0.2621
  747MOL0     C98501   1.357   4.536   2.771  0.5996 -0.2674  0.3374
  747MOL0     O98502   1.323   4.416   2.835 -0.2077  0.0512  0.1610
  747MOL0     C98503   1.421   4.341   2.900  0.0808  0.2169  0.4402
  747MOL0     C98504   1.557   4.355   2.882 -0.5723 -0.1643 -0.2571
  747MOL0     C98505   1.647   4.280   2.968  0.4328 -0.6769 -0.3943
  747MOL0     C98506   1.604   4.189   3.067  0.9091 -0.3936  0.2330
  747MOL0     O98507   1.685   4.102   3.135 -0.1514  0.1548  0.3247
  747MOL0     C98508   1.772   4.178   3.220 -0.1322  0.3194 -0.5928
  747MOL0     C98509   1.863   4.085   3.294 -0.2447  0.0555  0.3240
  747MOL0     C98510   1.944   4.001   3.198  0.4740  0.0454 -0.2423
  747MOL0     C98511   2.062   3.938   3.250 -0.3246  0.4504  1.1709
  747MOL0     C98512   2.023   3.848   3.367 -0.3870 -0.1973  0.1490
  747MOL0     C98513   2.146   3.770   3.430  0.5671  0.1318  0.7550
  747MOL0     C98514   2.184   3.638   3.352 -0.5018  0.6864  0.8403
  747MOL0     C98515   2.284   3.560   3.443  0.8747  0.0014 -1.0144
  747MOL0    Cl98516   2.202   3.493   3.582 -0.0161  0.5691  0.2693
  747MOL0     C98517   1.466   4.164   3.073  0.5181 -0.3474 -0.5171
  747MOL0     C98518   1.375   4.237   2.986 -0.6383 -0.2359 -1.1140
  747MOL0     O98519   1.424   4.623   2.822 -0.3553 -0.3133  0.3222
  747MOL0     C98520   1.235   4.455   2.552 -0.2879  0.0395 -0.4520
  747MOL0     C98521   1.156   4.481   2.441 -0.7241  0.1589 -0.2643
  747MOL0     N98522   0.836   4.850   1.759  0.0202  0.6804 -0.2319
  747MOL0     N98523   0.867   4.827   1.631 -0.8949  0.0265 -0.0366
  747MOL0     C98524   1.350   4.639   0.653  0.0917  0.2966  0.3592
  747MOL0     C98525   1.467   4.624   0.572  0.4612 -0.3353 -0.2128
  747MOL0     C98526   1.768   4.485   0.295 -0.0895 -0.4446  0.1613
  747MOL0     C98527   1.848   4.375   0.285 -0.3731  0.3714  1.1511
  747MOL0     C98528   1.976   4.375   0.225 -0.1356 -0.2345  0.0805
  747MOL0     C98529   2.033   4.490   0.167 -0.8577 -1.5863 -0.4683
  747MOL0     O98530   2.150   4.474   0.107 -0.0986  0.6090 -0.3048
  747MOL0     C98531   2.186   4.576   0.001 -0.3107 -0.9834  0.2292
  747MOL0     C98532   2.278   4.683   0.055 -0.4445  0.2269  0.0720
  747MOL0     C98533   2.303   4.788  -0.051 -0.1220  2.1317 -0.3254
  747MOL0     C98534   2.185   4.876  -0.066 -0.2485 -0.4399  0.3185
  747MOL0     C98535   2.199   4.993  -0.158 -0.2763 -0.8324  0.1922
  747MOL0     C98536   2.207   5.097  -0.215 -0.5934  0.1814 -1.3031
  747MOL0     C98537   1.949   4.603   0.163 -0.6738  0.7014 -0.2856
  747MOL0     C98538   1.829   4.605   0.240  0.0040 -0.1828  0.9476
  747MOL0     H98539   1.314   4.500   0.306  1.0505  0.1442 -0.2887
  747MOL0     H98540   1.119   4.501   0.453  1.6475  0.7019 -1.9820
  747MOL0     H98541   1.140   4.649   0.857 -1.4729  0.0475 -1.3110
  747MOL0     H98542   1.181   4.482   0.833  0.3248  0.4956  1.5430
  747MOL0     H98543   0.911   4.482   0.781 -1.4652  2.4046  0.5034
  747MOL0     H98544   0.930   4.635   0.877  1.2004  0.6266 -0.7149
  747MOL0     H98545   1.050   4.526   1.054 -0.2920  0.0405 -0.2672
  747MOL0     H98546   1.015   4.358   0.989 -3.4328 -0.7731  3.1932
  747MOL0     H98547   0.778   4.493   1.027  2.3529  2.7158 -1.2474
  747MOL0     H98548   0.837   4.328   1.038 -2.7758  0.7831 -1.6494
  747MOL0     H98549   0.930   4.398   1.263 -0.9818 -2.5478 -2.8016
  747MOL0     H98550   0.764   4.426   1.254  1.3133  0.2898  1.9787
  747MOL0     H98551   0.786   4.658   1.174  0.8121  1.0464 -0.3218
  747MOL0     H98552   0.958   4.655   1.222  1.6034 -2.2846  3.3433
  747MOL0     H98553   0.766   4.745   1.393  0.9954  1.7602 -1.5817
  747MOL0     H98554   0.744   4.563   1.417  4.2421 -2.6444 -0.6909
  747MOL0     H98555   1.010   4.709   1.451 -0.1133  0.0885 -1.2131
  747MOL0     H98556   0.969   4.542   1.493  1.5256  0.1694 -6.3361
  747MOL0     H98557   0.824   4.526   1.736  1.7909 -1.0909  2.4309
  747MOL0     H98558   0.721   4.607   1.952  1.6701 -0.0260 -4.1071
  747MOL0     H98559   0.706   4.777   2.010 -1.4693 -1.3029  1.7453
  747MOL0     H98560   0.974   4.743   2.017  0.7788 -1.6869 -1.6232
  747MOL0     H98561   0.940   4.577   2.023 -0.7327  0.0866 -0.9055
  747MOL0     H98562   0.773   4.752   2.203 -0.2495 -0.2869  0.8936
  747MOL0     H98563   0.816   4.581   2.223 -2.1669  0.1957 -1.9172
  747MOL0     H98564   0.935   4.735   2.390 -2.0006 -0.5091 -1.4737
  747MOL0     H98565   0.995   4.829   2.257 -0.6331  0.1708 -0.5627
  747MOL0     H98566   1.164   4.814   2.438  0.8552  0.2566 -1.1511
  747MOL0     H98567   1.322   4.774   2.635  3.3578  0.6018 -3.3074
  747MOL0     H98568   1.599   4.410   2.798  0.4281  0.9445  0.9343
  747MOL0     H98569   1.754   4.299   2.961  0.7313 -0.9450  2.3564
  747MOL0     H98570   1.722   4.225   3.305 -0.8868 -2.5827  0.7027
  747MOL0     H98571   1.838   4.245   3.164  2.6092  1.1880  3.2731
  747MOL0     H98572   1.783   4.024   3.338 -2.5587  1.6737 -1.3890
  747MOL0     H98573   1.926   4.126   3.373 -0.7456  0.4182  0.5396
  747MOL0     H98574   1.972   4.054   3.106  0.0297 -1.1689 -1.1030
  747MOL0     H98575   1.869   3.927   3.169  0.0870  0.5912 -0.6722
  747MOL0     H98576   2.116   3.883   3.173 -1.9176  2.0631 -1.2300
  747MOL0     H98577   2.141   4.009   3.275 -0.1494  0.0804  1.6981
  747MOL0     H98578   1.948   3.771   3.345 -1.6072  1.1157 -0.4959
  747MOL0     H98579   1.985   3.905   3.452  3.0842 -1.9218  3.0923
  747MOL0     H98580   2.109   3.740   3.529  0.2571  0.4101  0.7241
  747MOL0     H98581   2.237   3.830   3.443 -0.7007  2.6202 -0.9454
  747MOL0     H98582   2.100   3.570   3.339  1.6482 -1.7074 -1.6800
  747MOL0     H98583   2.231   3.662   3.256 -1.5595 -0.4622  0.0139
  747MOL0     H98584   2.355   3.630   3.488 -1.2916  0.2105  2.4753
  747MOL0     H98585   2.329   3.479   3.385  0.5096 -1.4882  0.7087
  747MOL0     H98586   1.430   4.090   3.144 -1.2067 -0.3977 -1.3898
  747MOL0     H98587   1.274   4.208   3.012 -0.2280  0.4485  1.4112
  747MOL0     H98588   1.249   4.353   2.588 -4.1923 -0.3430  0.3684
  747MOL0     H98589   1.097   4.404   2.392  0.1488 -0.0319 -1.0385
  747MOL0     H98590   1.350   4.677   0.755 -1.0369  0.7487  0.2136
  747MOL0     H98591   1.556   4.675   0.607 -0.1534  4.0131 -4.0572
  747MOL0     H98592   1.815   4.277   0.317 -2.9871  0.2149 -1.5256
  747MOL0     H98593   2.042   4.290   0.236  0.3861  0.3095  1.2102
  747MOL0     H98594   2.097   4.622  -0.043  2.0794  3.5835 -0.3946
  747MOL0     H98595   2.239   4.512  -0.070  3.1193 -1.5714  3.0437
  747MOL0     H98596   2.220   4.734   0.132 -4.9138 -0.9590 -2.1803
  747MOL0     H98597   2.370   4.641   0.098  2.5074  4.1987 -1.7415
  747MOL0     H98598   2.331   4.736  -0.143 -1.0528 -1.4757  1.2682
  747MOL0     H98599   2.392   4.848  -0.026  1.0127  0.4429 -0.0955
  747MOL0     H98600   2.100   4.820  -0.106  0.9341 -3.8425  2.1073
  747MOL0     H98601   2.167   4.926   0.030 -0.2271 -1.0627  0.6534
  747MOL0     H98602   2.220   5.196  -0.255 -0.9732  1.2229  0.9753
  747MOL0     H98603   1.965   4.700   0.117 -0.5482  1.1842  0.7615
  747MOL0     H98604   1.787   4.705   0.241 -2.2974 -1.0846  0.9263
  748MOL0     O98605   7.248   7.258   8.596  0.1295  0.5707 -0.2212
  748MOL0     C98606   7.362   7.210   8.579  0.7821 -0.4322 -0.0245
  748MOL0     O98607   7.468   7.226   8.665 -0.3147 -0.1196 -0.1931
  748MOL0     C98608   7.455   7.303   8.779  0.0263  0.1460  0.4846
  748MOL0     C98609   7.351   7.284   8.867 -0.4438 -0.3721 -0.6234
  748MOL0     C98610   7.351   7.360   8.990  0.4132  0.2936 -0.1607
  748MOL0     C98611   7.448   7.450   9.014  0.0912 -0.0718  0.6353
  748MOL0     O98612   7.447   7.519   9.130  0.2578  0.3658 -0.0294
  748MOL0     C98613   7.574   7.580   9.180 -0.2474  0.6061 -0.2921
  748MOL0     C98614   7.561   7.617   9.328 -1.0126 -0.4769  0.4276
  748MOL0     C98615   7.672   7.713   9.360 -0.3231 -1.0417  0.4608
  748MOL0     C98616   7.682   7.726   9.504 -0.7361  0.5544  0.3349
  748MOL0     C98617   7.786   7.832   9.564  0.4537  0.1070 -0.4187
  748MOL0     C98618   7.735   7.974   9.559  0.1898 -0.2033  0.4105
  748MOL0     C98619   7.839   8.061   9.612  0.8056  0.0302 -0.3956
  748MOL0     C98620   7.803   8.210   9.593 -0.0579  0.2772  1.0008
  748MOL0     N98621   7.927   8.296   9.601 -0.1646 -0.3800 -0.2585
  748MOL0     C98622   7.993   8.308   9.721  0.2602 -0.0482 -0.1592
  748MOL0     C98623   8.105   8.377   9.692 -0.5528 -0.3980 -0.7937
  748MOL0     C98624   8.211   8.428   9.785 -0.2550 -0.1765  1.0563
  748MOL0     C98625   8.324   8.478   9.698  0.9341 -0.4527  0.9662
  748MOL0     C98626   8.428   8.566   9.774 -0.1383 -0.7256  0.5687
  748MOL0     C98627   8.360   8.695   9.826  0.2020  0.3183  0.0337
  748MOL0     O98628   8.463   8.790   9.852  0.1691 -0.4437  1.0661
  748MOL0     C98629   8.438   8.923   9.888  0.4162 -0.1078 -0.1518
  748MOL0     C98630   8.519   9.027   9.852  0.6804  0.4107 -0.1903
  748MOL0     C98631   8.497   9.156   9.901 -1.0561  0.2277 -0.1976
  748MOL0     C98632   8.396   9.189   9.980  0.1220  0.0111 -0.7553
  748MOL0     C98633   8.378   9.328  10.041  0.9448  0.8392  0.8224
  748MOL0     O98634   8.264   9.349  10.112  0.1576 -0.4370 -0.0069
  748MOL0     C98635   8.230   9.479  10.143  1.3729 -0.8086  0.1430
  748MOL0     C98636   8.114   9.525  10.072  0.0758  0.5518  0.2345
  748MOL0     C98637   8.086   9.660  10.077  0.2243  0.2509  0.2019
  748MOL0     C98638   8.149   9.745  10.167 -0.3805  0.0889 -0.1605
  748MOL0     O98639   8.089   9.866  10.192  0.8833 -0.5070  0.6158
  748MOL0     C98640   8.161   9.976  10.247 -0.5908 -0.2893 -0.4178
  748MOL0     C98641   8.102  10.111  10.241  0.3694  0.2397 -0.7949
  748MOL0     C98642   8.198  10.214  10.303 -0.3226 -0.6953 -0.3780
  748MOL0     C98643   8.144  10.345  10.280 -0.7322 -0.9708  0.4041
  748MOL0     C98644   8.246  10.454  10.337  0.1691 -0.3096  0.5267
  748MOL0     C98645   8.249  10.475  10.494 -0.2340  0.1561  0.1923
  748MOL0     C98646   8.370  10.554  10.538  0.4544  0.1096 -0.1806
  748MOL0     C98647   8.386  10.589  10.683  0.5378 -0.2374 -0.3082
  748MOL0    Cl98648   8.367  10.442  10.782  0.0747  0.1620  0.4164
  748MOL0     C98649   8.259   9.703  10.242  0.4926  0.7734  0.8125
  748MOL0     C98650   8.296   9.571  10.229 -0.6232 -0.9096  0.0610
  748MOL0     O98651   8.454   9.413  10.013  0.0359  0.6527 -0.6918
  748MOL0     C98652   8.315   9.089  10.020  0.5153  0.5218  0.0001
  748MOL0     C98653   8.339   8.959   9.979  0.2884  0.2324  0.5203
  748MOL0     N98654   8.098   8.404   9.553  0.4321 -0.6789 -0.4508
  748MOL0     N98655   7.986   8.365   9.504 -1.1192 -0.7093  0.5632
  748MOL0     C98656   7.542   7.485   8.911 -0.6027  0.1422  0.1051
  748MOL0     C98657   7.542   7.408   8.801 -0.6788 -0.3208  0.9407
  748MOL0     C98658   7.371   7.143   8.444  0.3945  0.7448 -0.9887
  748MOL0     C98659   7.501   7.114   8.398 -0.7187 -0.1787 -0.3582
  748MOL0     C98660   7.531   7.053   8.278  0.4988  0.8641 -0.0417
  748MOL0     C98661   7.424   7.016   8.196 -0.3533 -0.6652 -0.0569
  748MOL0     O98662   7.459   6.929   8.088 -0.5505 -0.0567 -0.1073
  748MOL0     C98663   7.392   6.946   7.959  0.2099  0.2586  0.1990
  748MOL0     C98664   7.434   6.829   7.867  0.8650 -0.1754  0.5633
  748MOL0     C98665   7.378   6.695   7.915  0.0899 -0.4363 -0.3659
  748MOL0     C98666   7.453   6.580   7.863 -0.4319  0.8130 -0.4666
  748MOL0     C98667   7.411   6.565   7.722 -1.2059  0.5713 -0.5827
  748MOL0     C98668   7.386   6.526   7.612 -0.8517 -0.1169  0.5655
  748MOL0     C98669   7.290   7.034   8.237 -0.2233 -0.3036  0.4195
  748MOL0     C98670   7.261   7.099   8.356 -0.2761 -0.3278  0.6054
  748MOL0     H98671   7.289   7.197   8.845  0.5459 -1.2362 -0.0844
  748MOL0     H98672   7.282   7.325   9.066 -0.6042 -0.6741 -1.4847
  748MOL0     H98673   7.596   7.673   9.127 -2.3142  1.2948 -0.0110
  748MOL0     H98674   7.655   7.507   9.165 -0.7714 -0.4130  1.5615
  748MOL0     H98675   7.594   7.527   9.381  0.2482 -0.7182 -0.7161
  748MOL0     H98676   7.465   7.655   9.364 -2.2620 -1.5761 -1.5384
  748MOL0     H98677   7.654   7.808   9.308 -1.8755 -0.7000  1.5603
  748MOL0     H98678   7.768   7.679   9.320 -1.3573  0.0625 -3.4260
  748MOL0     H98679   7.583   7.753   9.541 -1.9890 -1.3521 -1.3962
  748MOL0     H98680   7.716   7.630   9.544 -0.2166  0.8052  0.5103
  748MOL0     H98681   7.888   7.829   9.524  1.1888  0.7232  1.3408
  748MOL0     H98682   7.799   7.810   9.670 -1.0463  2.9350  0.4814
  748MOL0     H98683   7.644   7.982   9.619  0.7178 -2.5001  1.6174
  748MOL0     H98684   7.703   8.000   9.458 -1.1415 -2.5340  0.1579
  748MOL0     H98685   7.858   8.041   9.718 -1.1591  1.3334  0.2418
  748MOL0     H98686   7.936   8.049   9.561  2.6063  1.8438  2.3203
  748MOL0     H98687   7.733   8.245   9.670 -2.9639 -0.7375 -0.9974
  748MOL0     H98688   7.742   8.210   9.502 -0.6004  1.8082  1.3384
  748MOL0     H98689   7.978   8.277   9.824  0.0025  0.0178 -0.1750
  748MOL0     H98690   8.249   8.344   9.843 -1.2960 -1.6473 -0.3242
  748MOL0     H98691   8.183   8.510   9.852 -1.2775  3.0396 -2.8627
  748MOL0     H98692   8.286   8.530   9.610 -0.1128 -2.2445  0.3001
  748MOL0     H98693   8.381   8.390   9.665  0.8834  0.5867 -2.1524
  748MOL0     H98694   8.473   8.509   9.856  1.6221 -1.1404 -0.6162
  748MOL0     H98695   8.497   8.591   9.693 -1.8256 -0.2758 -0.7898
  748MOL0     H98696   8.298   8.685   9.915  2.0989  0.7527  1.4713
  748MOL0     H98697   8.287   8.735   9.755 -0.6504  0.8420  1.1833
  748MOL0     H98698   8.610   9.034   9.793  1.6925  3.4315  1.5104
  748MOL0     H98699   8.572   9.225   9.864 -2.6424  0.5940 -3.0026
  748MOL0     H98700   8.052   9.456  10.017  1.0430 -0.6645  0.6240
  748MOL0     H98701   8.002   9.690  10.015 -0.7202 -2.4335  0.0324
  748MOL0     H98702   8.256   9.986  10.195 -0.8446 -0.0419 -0.8409
  748MOL0     H98703   8.166   9.951  10.354 -1.5268  3.1600  0.5474
  748MOL0     H98704   8.012  10.114  10.304 -1.4480  2.0395 -3.3096
  748MOL0     H98705   8.068  10.126  10.138 -3.5358 -1.5676 -0.0009
  748MOL0     H98706   8.296  10.211  10.255  0.3122  1.0103  0.7335
  748MOL0     H98707   8.214  10.199  10.410 -1.8861 -0.2525 -0.0649
  748MOL0     H98708   8.131  10.367  10.174 -2.2718  0.2758  0.8030
  748MOL0     H98709   8.048  10.361  10.331 -0.8681 -1.9423  0.4801
  748MOL0     H98710   8.233  10.544  10.276 -2.5790 -1.4983 -0.7823
  748MOL0     H98711   8.347  10.422  10.308 -0.3759 -1.7108  0.0979
  748MOL0     H98712   8.255  10.375  10.540  1.3113  0.8498  1.5860
  748MOL0     H98713   8.158  10.514  10.540  0.2006 -0.6286  1.7706
  748MOL0     H98714   8.459  10.508  10.495 -0.8374 -1.2670 -1.5002
  748MOL0     H98715   8.338  10.646  10.487 -2.4599 -1.3779 -1.2504
  748MOL0     H98716   8.312  10.660  10.722  1.1147 -0.1343  0.6429
  748MOL0     H98717   8.488  10.622  10.707 -0.2915  0.1017  3.3165
  748MOL0     H98718   8.294   9.773  10.316 -1.0173  2.2939  0.1525
  748MOL0     H98719   8.378   9.528  10.286  2.2981  2.5794 -1.0627
  748MOL0     H98720   8.236   9.114  10.090  0.0586  2.9891 -1.2777
  748MOL0     H98721   8.271   8.884  10.016 -0.5583  0.3095 -0.8222
  748MOL0     H98722   7.624   7.556   8.919  1.1823 -1.8588  0.5339
  748MOL0     H98723   7.622   7.421   8.728  2.6788 -1.7284  4.0638
  748MOL0     H98724   7.581   7.137   8.468 -0.0024 -0.1932 -1.1597
  748MOL0     H98725   7.634   7.031   8.253  0.1371 -1.2220  0.1619
  748MOL0     H98726   7.431   7.041   7.921  2.1988  0.7315  3.1364
  748MOL0     H98727   7.283   6.947   7.970  0.2319 -2.2542  1.2814
  748MOL0     H98728   7.390   6.846   7.768 -3.4518 -1.9140  1.9435
  748MOL0     H98729   7.542   6.820   7.850  0.9423  2.7178 -1.1920
  748MOL0     H98730   7.273   6.683   7.890 -0.7444  0.5750  2.3088
  748MOL0     H98731   7.380   6.697   8.024 -0.3544  2.4825 -0.3577
  748MOL0     H98732   7.559   6.606   7.863  0.7206 -3.1737  1.2092
  748MOL0     H98733   7.452   6.485   7.917  1.8648  1.6278  1.1519
  748MOL0     H98734   7.346   6.515   7.513 -1.5254  2.3354  0.4946
  748MOL0     H98735   7.209   7.004   8.172  1.2796 -1.5492 -0.9878
  748MOL0     H98736   7.159   7.133   8.370 -0.3140  0.1801 -0.7148
  749MOL0     O98737   0.825  10.838   0.512  0.3956 -0.4163 -0.4522
  749MOL0     C98738   0.759  10.929   0.457  0.1372 -0.4561 -0.2193
  749MOL0     O98739   0.676  10.908   0.352  0.3141  0.0046  0.2397
  749MOL0     C98740   0.661  10.779   0.302  0.7653 -0.8191  0.6752
  749MOL0     C98741   0.689  10.759   0.173  0.3475  0.4300 -0.1399
  749MOL0     C98742   0.655  10.642   0.111  0.1022  0.5919  0.0645
  749MOL0     C98743   0.582  10.546   0.175 -0.2051 -0.4687 -0.5417
  749MOL0     O98744   0.540  10.436   0.102  0.3912  0.2905 -0.1782
  749MOL0     C98745   0.419  10.372   0.133 -0.1863 -0.6264 -0.3789
  749MOL0     C98746   0.285  10.449   0.099 -0.6308 -0.0039 -0.2063
  749MOL0     C98747   0.290  10.502  -0.043 -0.4445  0.0498 -0.4299
  749MOL0     C98748   0.255  10.400  -0.145  0.1708  0.1047  1.4420
  749MOL0     C98749   0.240  10.458  -0.292  0.0125  0.2457  0.0224
  749MOL0     C98750   0.360  10.540  -0.342  0.4523 -0.5696 -0.0165
  749MOL0     C98751   0.377  10.527  -0.500 -0.2319 -0.0675  0.0518
  749MOL0     C98752   0.265  10.589  -0.575 -0.0640  0.5657 -0.4610
  749MOL0     N98753   0.209  10.495  -0.671 -0.4018  0.1252 -0.1570
  749MOL0     C98754   0.159  10.529  -0.799 -0.4807 -0.0884 -1.0173
  749MOL0     C98755   0.062  10.437  -0.837 -0.5608 -1.4611 -0.4317
  749MOL0     C98756   0.011  10.416  -0.972  0.7807  0.2875 -0.2608
  749MOL0     C98757   0.113  10.412  -1.082 -0.0309  0.2362 -0.4173
  749MOL0     C98758   0.046  10.448  -1.213 -0.1588  0.0955 -0.0473
  749MOL0     C98759   0.131  10.469  -1.341 -0.3638  0.0289  0.7952
  749MOL0     O98760   0.239  10.557  -1.302  0.4675 -0.3034  0.5940
  749MOL0     C98761   0.337  10.601  -1.395 -0.1298 -0.3945  0.9158
  749MOL0     C98762   0.336  10.559  -1.534  0.6713  0.1338 -0.4495
  749MOL0     C98763   0.440  10.610  -1.621  1.0328 -0.3974  0.1842
  749MOL0     C98764   0.546  10.694  -1.577  0.5374 -0.7232 -0.0348
  749MOL0     C98765   0.656  10.734  -1.673  0.7023  0.8977  0.2972
  749MOL0     O98766   0.669  10.659  -1.793  0.6885 -0.6614  0.6159
  749MOL0     C98767   0.764  10.703  -1.889  0.7911 -0.2745  0.1487
  749MOL0     C98768   0.878  10.629  -1.902  0.3734 -0.1534  0.5945
  749MOL0     C98769   0.987  10.674  -1.961 -0.7909  0.4454  0.3940
  749MOL0     C98770   0.984  10.794  -2.024 -0.1289 -0.0934 -0.0324
  749MOL0     O98771   1.107  10.817  -2.098  0.2934 -0.6893 -0.0536
  749MOL0     C98772   1.103  10.907  -2.209  0.8606  0.9514 -0.4011
  749MOL0     C98773   1.239  10.965  -2.236  0.2540  0.1640 -0.4616
  749MOL0     C98774   1.284  11.053  -2.127  0.6044 -0.0868  0.1098
  749MOL0     C98775   1.229  11.193  -2.155 -0.8928  0.2774  0.2361
  749MOL0     C98776   1.284  11.303  -2.076  0.5715 -0.6470 -0.0996
  749MOL0     C98777   1.440  11.306  -2.064 -0.1378 -0.2590 -0.2984
  749MOL0     C98778   1.493  11.424  -1.979 -0.7440  0.3514 -0.5101
  749MOL0     C98779   1.429  11.460  -1.849 -0.7518  0.2753 -1.5629
  749MOL0    Cl98780   1.340  11.617  -1.834  0.0894  0.2320  0.5908
  749MOL0     C98781   0.880  10.879  -2.012  0.1501 -0.7434  0.2291
  749MOL0     C98782   0.766  10.831  -1.939 -0.3154 -0.1020  0.0432
  749MOL0     O98783   0.713  10.834  -1.637  0.0115 -0.5686 -0.3399
  749MOL0     C98784   0.542  10.727  -1.438  0.3234  0.4681 -0.1378
  749MOL0     C98785   0.436  10.688  -1.353  0.0996  0.8914 -0.3503
  749MOL0     N98786   0.063  10.349  -0.730 -0.5576  0.1108 -0.1559
  749MOL0     N98787   0.134  10.386  -0.629 -0.0099 -0.6065  0.5049
  749MOL0     C98788   0.538  10.573   0.300  0.4563 -0.0610 -0.2831
  749MOL0     C98789   0.575  10.690   0.368 -0.2499 -0.6313  0.6004
  749MOL0     C98790   0.785  11.065   0.493 -0.5375 -0.1365  0.0627
  749MOL0     C98791   0.900  11.102   0.558 -0.2768  0.5137  0.2052
  749MOL0     C98792   0.930  11.242   0.581  0.0862 -0.1891  0.4602
  749MOL0     C98793   0.826  11.336   0.563 -0.0077  0.6276 -0.2943
  749MOL0     O98794   0.848  11.463   0.612  0.1729  0.7356  0.3452
  749MOL0     C98795   0.742  11.547   0.604 -0.0140  1.2847  0.0315
  749MOL0     C98796   0.787  11.678   0.684  0.4230  0.0423 -0.3566
  749MOL0     C98797   0.683  11.787   0.704  0.3151 -0.1206 -0.5811
  749MOL0     C98798   0.550  11.735   0.777 -0.3108 -0.1152  0.5754
  749MOL0     C98799   0.563  11.692   0.919 -0.0728  0.1290  0.0660
  749MOL0     C98800   0.541  11.674   1.037  1.2673 -0.5163  0.2929
  749MOL0     C98801   0.706  11.287   0.501 -0.3636 -0.4829 -0.5082
  749MOL0     C98802   0.687  11.158   0.467 -1.0093 -0.0862  1.1021
  749MOL0     H98803   0.752  10.830   0.122  0.9299  0.5585  0.7435
  749MOL0     H98804   0.666  10.633   0.003  1.7435  2.0886  0.0574
  749MOL0     H98805   0.419  10.352   0.241  3.0983  0.3878 -0.0940
  749MOL0     H98806   0.417  10.284   0.068 -0.9342 -0.3233 -0.7851
  749MOL0     H98807   0.281  10.542   0.156 -1.7604 -0.1609  0.0044
  749MOL0     H98808   0.197  10.386   0.117  0.2857 -0.8142  1.8040
  749MOL0     H98809   0.387  10.551  -0.057  0.8290 -0.9541  3.5571
  749MOL0     H98810   0.211  10.578  -0.053 -0.4852  0.3061  1.5225
  749MOL0     H98811   0.327  10.317  -0.144 -2.1823 -2.0818  1.4634
  749MOL0     H98812   0.159  10.356  -0.116 -1.9826  3.2560 -0.2185
  749MOL0     H98813   0.145  10.511  -0.299 -1.1713 -1.7307  0.4202
  749MOL0     H98814   0.230  10.372  -0.359  1.7072 -0.6635  0.8825
  749MOL0     H98815   0.459  10.505  -0.311  1.9394 -1.4676 -4.9073
  749MOL0     H98816   0.359  10.649  -0.330  3.9821 -0.1879 -1.5693
  749MOL0     H98817   0.464  10.584  -0.535 -0.7715  0.5238 -0.3546
  749MOL0     H98818   0.386  10.422  -0.527  3.1880 -0.0102  0.4372
  749MOL0     H98819   0.302  10.672  -0.636 -0.0134  0.1025 -1.0780
  749MOL0     H98820   0.178  10.631  -0.525  0.3123  0.3626  0.3691
  749MOL0     H98821   0.193  10.612  -0.859 -0.0232  0.5681  0.1251
  749MOL0     H98822  -0.056  10.502  -0.987  1.0147  1.5469  4.4638
  749MOL0     H98823  -0.049  10.324  -0.969  0.6331  0.4060  0.7633
  749MOL0     H98824   0.148  10.308  -1.078 -0.2125  0.2193  1.6924
  749MOL0     H98825   0.193  10.481  -1.055  1.4613 -1.5740  0.0425
  749MOL0     H98826  -0.033  10.378  -1.241  0.4714 -0.0817 -1.4887
  749MOL0     H98827  -0.006  10.544  -1.203 -1.5105 -0.6145 -0.0473
  749MOL0     H98828   0.084  10.516  -1.428  3.2453 -2.7406 -3.0208
  749MOL0     H98829   0.170  10.372  -1.372  1.0165  1.1915 -1.4279
  749MOL0     H98830   0.251  10.502  -1.569 -1.1126  1.1029  2.0341
  749MOL0     H98831   0.447  10.574  -1.723 -0.4149 -2.3820  0.7197
  749MOL0     H98832   0.885  10.532  -1.854  1.0030  0.0825  0.9888
  749MOL0     H98833   1.076  10.612  -1.966 -0.8949  0.3407 -0.1332
  749MOL0     H98834   1.025  10.980  -2.185 -0.0435 -0.0705 -0.1269
  749MOL0     H98835   1.082  10.845  -2.296  0.3013 -2.2695  1.8238
  749MOL0     H98836   1.225  11.021  -2.328  1.5710  3.1629  1.0154
  749MOL0     H98837   1.310  10.888  -2.269 -1.1446 -0.4978 -2.0748
  749MOL0     H98838   1.393  11.046  -2.133  0.4604 -2.5295 -0.9388
  749MOL0     H98839   1.249  11.011  -2.032 -0.8767  0.5558 -0.1207
  749MOL0     H98840   1.237  11.227  -2.259  0.0266  1.8599  0.7998
  749MOL0     H98841   1.121  11.185  -2.137 -1.2801  3.2532 -0.3407
  749MOL0     H98842   1.260  11.285  -1.970  5.0418 -0.9953  1.0518
  749MOL0     H98843   1.243  11.397  -2.111  1.2708 -0.3117 -0.0389
  749MOL0     H98844   1.495  11.316  -2.158  0.0209 -4.0630 -0.7631
  749MOL0     H98845   1.485  11.213  -2.025 -1.1351 -1.1735 -1.2639
  749MOL0     H98846   1.602  11.415  -1.978 -0.5667  2.1304 -1.4327
  749MOL0     H98847   1.467  11.506  -2.047 -2.3290  1.2475  1.0800
  749MOL0     H98848   1.510  11.478  -1.779 -2.3204 -2.7445  1.3595
  749MOL0     H98849   1.369  11.380  -1.803 -0.2452 -2.3005 -4.9206
  749MOL0     H98850   0.899  10.978  -2.049 -0.1165 -0.6980  0.2111
  749MOL0     H98851   0.686  10.897  -1.909  3.6795  5.0758  0.5968
  749MOL0     H98852   0.622  10.774  -1.380 -0.2484 -1.1216  2.0672
  749MOL0     H98853   0.426  10.742  -1.260  1.3312  0.6290 -0.0505
  749MOL0     H98854   0.481  10.501   0.359  1.2066  0.8572  1.6434
  749MOL0     H98855   0.539  10.717   0.466 -1.7588  0.9124 -0.3213
  749MOL0     H98856   0.977  11.031   0.586  1.9521  1.8307 -2.1762
  749MOL0     H98857   1.024  11.266   0.628  1.4568  0.4543 -2.3659
  749MOL0     H98858   0.659  11.489   0.645  2.6145 -3.7527 -0.9670
  749MOL0     H98859   0.721  11.556   0.496  1.7182 -1.2074 -0.6056
  749MOL0     H98860   0.810  11.632   0.781  2.0258  0.7863 -0.3620
  749MOL0     H98861   0.873  11.730   0.641  0.5044 -0.1836 -0.4701
  749MOL0     H98862   0.653  11.827   0.607  2.5980  1.5451 -0.7056
  749MOL0     H98863   0.726  11.868   0.763 -0.1773 -1.5164  1.8281
  749MOL0     H98864   0.489  11.825   0.771 -2.4457 -1.5359 -0.5103
  749MOL0     H98865   0.489  11.659   0.727 -2.4822  4.0992 -3.9784
  749MOL0     H98866   0.513  11.675   1.141 -0.6290  2.7668 -0.1104
  749MOL0     H98867   0.632  11.361   0.473 -0.4085  0.8503  2.6750
  749MOL0     H98868   0.592  11.145   0.418 -0.0621 -1.1244 -0.5639
  750MOL0     O98869   6.909   5.317  10.119 -0.7484  0.1157 -0.2169
  750MOL0     C98870   6.910   5.201  10.079 -0.7237 -0.2436 -0.8518
  750MOL0     O98871   6.804   5.134  10.056  0.4106 -0.0099 -0.0612
  750MOL0     C98872   6.681   5.201  10.042  0.3273 -0.0013 -0.7416
  750MOL0     C98873   6.676   5.329   9.981 -0.7379  0.0172 -0.4898
  750MOL0     C98874   6.555   5.386   9.980  1.2051  0.0446  2.2695
  750MOL0     C98875   6.437   5.323  10.035 -0.0489 -0.5413  0.4576
  750MOL0     O98876   6.309   5.382  10.056 -0.1051  0.2473  0.9706
  750MOL0     C98877   6.205   5.332   9.964  0.2373  0.6181  0.1587
  750MOL0     C98878   6.067   5.379  10.002  0.2099  0.2390  0.1021
  750MOL0     C98879   5.963   5.295   9.936 -0.4712 -0.3592 -0.5699
  750MOL0     C98880   5.968   5.144   9.985  0.1888 -0.3868 -0.1494
  750MOL0     C98881   5.842   5.066   9.979 -0.3797 -0.5353 -0.0344
  750MOL0     C98882   5.774   5.086   9.843 -0.3829  0.4620 -0.6383
  750MOL0     C98883   5.854   5.034   9.728  0.0430  0.3157  0.1000
  750MOL0     C98884   5.785   5.059   9.589 -0.8062 -0.5723 -0.6314
  750MOL0     N98885   5.843   4.979   9.481  0.2878 -0.1962 -0.0238
  750MOL0     C98886   5.812   4.856   9.435 -0.4369 -0.4760  0.2494
  750MOL0     C98887   5.899   4.839   9.326 -0.5494  0.2363  0.4843
  750MOL0     C98888   5.903   4.700   9.255 -0.6467 -0.2764  0.0678
  750MOL0     C98889   6.011   4.674   9.151 -0.4033 -0.9423 -0.1653
  750MOL0     C98890   5.999   4.746   9.016  1.0852  0.3704  0.6771
  750MOL0     C98891   5.877   4.708   8.932  0.2160 -0.5068  0.1769
  750MOL0     O98892   5.858   4.574   8.906  0.4393  0.2550  0.3583
  750MOL0     C98893   5.770   4.548   8.801 -0.3876 -1.1221 -0.5744
  750MOL0     C98894   5.786   4.442   8.722 -0.7921  0.4396  0.2402
  750MOL0     C98895   5.712   4.434   8.602 -0.4445  0.3075 -0.2495
  750MOL0     C98896   5.603   4.516   8.573 -0.3877 -0.3434  0.0526
  750MOL0     C98897   5.533   4.512   8.442  0.8827  0.4763 -0.0900
  750MOL0     O98898   5.427   4.607   8.418 -0.7114 -0.1018 -0.5375
  750MOL0     C98899   5.328   4.605   8.319  0.3517 -0.3279  0.9109
  750MOL0     C98900   5.263   4.724   8.293  0.6707  0.6683 -0.2766
  750MOL0     C98901   5.148   4.736   8.212 -0.4726 -0.5809 -0.2868
  750MOL0     C98902   5.104   4.629   8.131 -0.4926 -0.8870  0.5537
  750MOL0     O98903   4.991   4.628   8.048  0.3730  0.1013 -0.9626
  750MOL0     C98904   4.880   4.725   8.091  0.2552 -0.6092  0.0491
  750MOL0     C98905   4.808   4.755   7.962 -0.6368  0.5865  0.8937
  750MOL0     C98906   4.700   4.857   7.977  0.2587  0.0508 -0.8368
  750MOL0     C98907   4.594   4.868   7.864 -0.9873 -0.3899 -0.0046
  750MOL0     C98908   4.480   4.945   7.909  0.2062  0.1547 -0.1011
  750MOL0     C98909   4.374   4.940   7.800 -0.5684  0.2145  0.6442
  750MOL0     C98910   4.394   5.048   7.699 -0.6819 -0.4995 -0.1571
  750MOL0     C98911   4.334   5.014   7.571 -0.3808  0.6191  0.4254
  750MOL0    Cl98912   4.304   5.154   7.470  0.0071  0.4451 -0.3133
  750MOL0     C98913   5.169   4.510   8.158  0.8072  0.5228 -0.2549
  750MOL0     C98914   5.284   4.498   8.237 -1.1608  0.2298  0.1571
  750MOL0     O98915   5.572   4.423   8.364  0.4077 -0.7767  0.1064
  750MOL0     C98916   5.574   4.604   8.676 -0.3529 -0.5508  0.3518
  750MOL0     C98917   5.657   4.626   8.780  0.4836  0.7529 -0.2592
  750MOL0     N98918   5.987   4.944   9.314  0.0745 -0.2700  0.8480
  750MOL0     N98919   5.936   5.028   9.396 -0.9470  0.5601  0.7485
  750MOL0     C98920   6.441   5.192  10.088  0.0254  0.2353 -0.3934
  750MOL0     C98921   6.568   5.128  10.088 -0.0135 -0.2060  0.7632
  750MOL0     C98922   7.037   5.137  10.049  0.0367 -1.4592 -0.2349
  750MOL0     C98923   7.043   4.997  10.027 -0.6293 -0.3709 -0.3502
  750MOL0     C98924   7.167   4.944  10.006  1.0132  0.4417 -0.6079
  750MOL0     C98925   7.286   5.018  10.001  1.1529 -0.1639  0.3766
  750MOL0     O98926   7.408   4.951   9.990  1.2102  0.7399 -0.1053
  750MOL0     C98927   7.525   5.022   9.965  0.3618 -0.0889 -0.1043
  750MOL0     C98928   7.594   5.081  10.086 -0.4398  0.7960 -0.8012
  750MOL0     C98929   7.632   4.970  10.184  0.0734  0.1804 -0.1426
  750MOL0     C98930   7.770   4.987  10.251  0.3068 -0.0324 -1.0246
  750MOL0     C98931   7.754   5.014  10.400 -1.1039 -1.1917  0.6304
  750MOL0     C98932   7.719   5.041  10.509 -0.2133  0.0262  0.2505
  750MOL0     C98933   7.272   5.158  10.009  0.7639 -0.0226  0.0489
  750MOL0     C98934   7.154   5.214  10.035  0.1741 -0.2913  0.2059
  750MOL0     H98935   6.760   5.391   9.952 -2.6930  3.4415  0.6963
  750MOL0     H98936   6.533   5.486   9.946  1.3186 -0.5173  0.4374
  750MOL0     H98937   6.213   5.223   9.961  0.4224  0.6510 -1.6742
  750MOL0     H98938   6.217   5.368   9.861 -0.1102  1.8959  0.5426
  750MOL0     H98939   6.063   5.481   9.963  0.3214  0.2856  0.2119
  750MOL0     H98940   6.050   5.384  10.110  1.6386 -1.4396  0.4669
  750MOL0     H98941   5.984   5.297   9.828 -0.0502 -1.8095 -0.5463
  750MOL0     H98942   5.864   5.340   9.949 -1.1803 -1.5402 -1.6023
  750MOL0     H98943   6.048   5.100   9.924  0.1477  0.3685 -0.7596
  750MOL0     H98944   5.993   5.135  10.091 -1.6366 -1.4052  0.2416
  750MOL0     H98945   5.778   5.110  10.056  1.2752  1.4720  0.3012
  750MOL0     H98946   5.853   4.958   9.991 -0.6323 -1.1094 -3.8765
  750MOL0     H98947   5.758   5.193   9.823 -2.0298  0.3453 -0.0910
  750MOL0     H98948   5.678   5.034   9.842  0.5218 -1.3068 -2.5855
  750MOL0     H98949   5.956   5.070   9.717  0.7801 -1.7946 -0.5320
  750MOL0     H98950   5.865   4.928   9.753 -0.6285 -0.0320 -0.9719
  750MOL0     H98951   5.797   5.167   9.571 -0.1885 -0.3175  1.0586
  750MOL0     H98952   5.677   5.044   9.589 -0.4918 -3.2903 -1.0548
  750MOL0     H98953   5.739   4.782   9.467 -2.3894  0.5978 -1.4694
  750MOL0     H98954   5.805   4.676   9.211 -0.9765  1.5938 -0.3013
  750MOL0     H98955   5.923   4.621   9.327 -1.5975 -0.2828  0.3398
  750MOL0     H98956   6.042   4.572   9.124 -1.6649 -0.5664 -3.4075
  750MOL0     H98957   6.102   4.704   9.205 -0.8155  0.5331 -0.2534
  750MOL0     H98958   5.987   4.855   9.017 -1.3006  0.1750 -0.2514
  750MOL0     H98959   6.089   4.720   8.959  0.6367  1.2732 -0.4803
  750MOL0     H98960   5.881   4.767   8.840 -2.1155 -1.5451 -0.6630
  750MOL0     H98961   5.789   4.738   8.990 -2.9320 -4.2884 -2.1172
  750MOL0     H98962   5.871   4.377   8.741 -2.3419 -1.3777  1.2897
  750MOL0     H98963   5.740   4.353   8.537  2.3795  2.3179 -1.7623
  750MOL0     H98964   5.297   4.817   8.338  0.9354 -0.7589  2.6930
  750MOL0     H98965   5.095   4.831   8.215  2.0054  0.9518 -1.8017
  750MOL0     H98966   4.904   4.817   8.145 -3.1983 -1.4409  3.4613
  750MOL0     H98967   4.808   4.672   8.154 -3.7850  2.0679 -1.8458
  750MOL0     H98968   4.770   4.656   7.933  0.8129  0.4597 -0.7002
  750MOL0     H98969   4.875   4.776   7.878 -1.2164 -0.3004  0.1923
  750MOL0     H98970   4.744   4.957   7.980 -1.2554  0.7870 -1.8332
  750MOL0     H98971   4.652   4.842   8.074  0.4707 -0.3193 -0.7885
  750MOL0     H98972   4.633   4.908   7.770 -1.8862 -0.5589 -0.4652
  750MOL0     H98973   4.560   4.767   7.841  0.5397 -1.3236  1.5614
  750MOL0     H98974   4.518   5.048   7.908 -3.6929  1.7719 -0.9245
  750MOL0     H98975   4.436   4.920   8.006  0.1392 -1.1119 -0.4349
  750MOL0     H98976   4.282   4.965   7.854  0.4642  2.7136  1.3588
  750MOL0     H98977   4.360   4.841   7.755  1.4280 -0.4500  1.3782
  750MOL0     H98978   4.355   5.145   7.730 -2.1330  0.0802 -3.3404
  750MOL0     H98979   4.500   5.072   7.689 -0.5770 -0.3986  1.1229
  750MOL0     H98980   4.250   4.953   7.605  0.5361  0.0113  1.7036
  750MOL0     H98981   4.397   4.943   7.517 -0.8913 -0.4400  1.1882
  750MOL0     H98982   5.130   4.417   8.117  1.4518 -0.0258  0.3499
  750MOL0     H98983   5.326   4.400   8.254 -1.4745  0.3341  1.5892
  750MOL0     H98984   5.488   4.669   8.666 -0.0569 -0.4671 -2.1451
  750MOL0     H98985   5.638   4.714   8.840 -4.4004 -1.0185  1.2266
  750MOL0     H98986   6.359   5.139  10.137  2.3354 -1.5529  1.8610
  750MOL0     H98987   6.584   5.038  10.147  2.6705  1.5662  2.9717
  750MOL0     H98988   6.953   4.937  10.036  0.2658 -1.8814 -1.1183
  750MOL0     H98989   7.166   4.841   9.973 -0.1605  0.1324  0.3050
  750MOL0     H98990   7.503   5.103   9.895  2.2892  1.3154  0.8237
  750MOL0     H98991   7.599   4.964   9.910 -0.0659  0.7608 -1.6137
  750MOL0     H98992   7.675   5.140  10.043  0.7429  0.2540  0.6276
  750MOL0     H98993   7.530   5.153  10.139 -0.9656  0.9864 -1.6739
  750MOL0     H98994   7.652   4.876  10.132 -0.6563 -1.3974  2.2557
  750MOL0     H98995   7.550   4.960  10.256  1.2543  2.9706  1.8182
  750MOL0     H98996   7.827   4.897  10.228  1.2009  0.3923 -0.5238
  750MOL0     H98997   7.834   5.058  10.199  1.9730 -0.8797 -0.2229
  750MOL0     H98998   7.691   5.064  10.610 -0.4605 -0.2017  0.2369
  750MOL0     H98999   7.364   5.216  10.006  1.6029 -1.2940  0.4461
  750MOL0     H99000   7.151   5.322  10.048 -2.2933 -0.2645 -0.2037
  751MOL0     O99001   3.551   1.244   8.190  0.0395  0.0695  0.0875
  751MOL0     C99002   3.502   1.309   8.101  0.1409  0.4238 -0.7303
  751MOL0     O99003   3.364   1.336   8.077 -0.4268 -0.4506  0.0990
  751MOL0     C99004   3.274   1.275   8.159 -0.3216 -0.5026  0.6268
  751MOL0     C99005   3.259   1.131   8.156 -0.1321  0.8234 -0.4747
  751MOL0     C99006   3.148   1.079   8.237  0.6175 -1.4375  0.6094
  751MOL0     C99007   3.065   1.164   8.321  0.8102  0.3927  1.0477
  751MOL0     O99008   2.978   1.115   8.414  0.1553 -0.9593 -0.7822
  751MOL0     C99009   2.927   0.990   8.390 -0.5765 -0.1798 -0.1991
  751MOL0     C99010   2.930   0.911   8.526  0.1272 -0.0684 -0.2084
  751MOL0     C99011   2.867   0.770   8.517 -0.6073  0.4942  0.8520
  751MOL0     C99012   2.895   0.686   8.642  0.5072 -0.1687 -0.0097
  751MOL0     C99013   2.834   0.752   8.775  0.2626 -0.3562  0.1630
  751MOL0     C99014   2.693   0.819   8.766  0.0184 -0.0259  0.3406
  751MOL0     C99015   2.658   0.889   8.890 -0.1442 -0.4422  0.2446
  751MOL0     C99016   2.512   0.928   8.909  0.9064 -0.3253  0.1497
  751MOL0     N99017   2.454   1.023   8.812 -0.6546  0.5822 -1.1097
  751MOL0     C99018   2.461   1.153   8.831 -1.4825  0.5182  0.7399
  751MOL0     C99019   2.375   1.203   8.739 -0.0710  0.2244  0.4634
  751MOL0     C99020   2.357   1.349   8.717  0.2434  0.9794  0.3196
  751MOL0     C99021   2.301   1.419   8.841 -0.6580  0.2708 -0.3562
  751MOL0     C99022   2.285   1.572   8.823  1.0446 -0.0855 -0.4742
  751MOL0     C99023   2.402   1.647   8.769 -0.5627 -0.3909  0.6920
  751MOL0     O99024   2.525   1.627   8.844  0.5977 -0.1375 -0.3231
  751MOL0     C99025   2.528   1.703   8.952  0.0216  0.4275  0.1171
  751MOL0     C99026   2.537   1.644   9.077 -0.1963  0.4139 -0.9340
  751MOL0     C99027   2.586   1.700   9.195  0.1903 -0.3045 -0.0926
  751MOL0     C99028   2.595   1.840   9.197  0.3618 -0.1394  0.6511
  751MOL0     C99029   2.600   1.922   9.315 -0.2221 -0.7340 -1.6347
  751MOL0     O99030   2.620   1.860   9.431  0.8470  0.3676 -0.1956
  751MOL0     C99031   2.534   1.905   9.533 -0.5510  0.2642  0.5286
  751MOL0     C99032   2.578   1.911   9.663 -0.1271 -0.0193 -0.2285
  751MOL0     C99033   2.497   1.919   9.774  0.3877  0.0314  0.2557
  751MOL0     C99034   2.356   1.929   9.763  0.3064 -0.0002  0.3119
  751MOL0     O99035   2.281   1.941   9.877  0.7308  0.3892  0.2917
  751MOL0     C99036   2.142   1.983   9.867 -0.3690  0.9019 -0.1063
  751MOL0     C99037   2.091   1.938  10.004  0.7357  0.4751 -0.4784
  751MOL0     C99038   2.137   2.016  10.131 -0.1368 -0.0284 -0.4869
  751MOL0     C99039   2.095   2.166  10.124  0.1258 -1.4314 -0.6433
  751MOL0     C99040   2.078   2.241  10.258 -0.3215 -0.1567  0.7068
  751MOL0     C99041   2.216   2.232  10.328  0.3585  0.2663  0.0296
  751MOL0     C99042   2.213   2.299  10.470 -0.0566 -0.6666  0.3018
  751MOL0     C99043   2.218   2.454  10.461  0.5898  0.0677 -0.8892
  751MOL0    Cl99044   2.056   2.524  10.437 -0.0177 -0.2573 -0.1038
  751MOL0     C99045   2.305   1.910   9.630  0.4309 -0.5353 -0.5445
  751MOL0     C99046   2.391   1.879   9.527  0.2619  0.0119 -0.0262
  751MOL0     O99047   2.593   2.045   9.302  0.4424 -0.5769  0.6528
  751MOL0     C99048   2.571   1.907   9.071 -0.4614  0.1964 -0.5145
  751MOL0     C99049   2.545   1.839   8.955  0.6934 -0.1906  0.8208
  751MOL0     N99050   2.321   1.100   8.667  0.1928 -0.0785 -0.4112
  751MOL0     N99051   2.369   0.984   8.706  0.2370 -0.6042 -0.9857
  751MOL0     C99052   3.101   1.302   8.324 -0.3635  0.9032 -0.9196
  751MOL0     C99053   3.198   1.356   8.242  0.1701  0.2294 -0.5131
  751MOL0     C99054   3.608   1.367   8.010 -0.7815  0.1589  0.3890
  751MOL0     C99055   3.742   1.370   8.037 -0.7629 -0.7181  0.7158
  751MOL0     C99056   3.826   1.439   7.950 -0.0434 -0.4745 -0.0519
  751MOL0     C99057   3.780   1.491   7.832  0.1058  0.6838 -0.2513
  751MOL0     O99058   3.860   1.553   7.742  0.1800 -0.7618  0.1528
  751MOL0     C99059   4.003   1.517   7.739  0.6086 -0.2748  0.3436
  751MOL0     C99060   4.054   1.525   7.591  0.1751  0.0299 -0.7798
  751MOL0     C99061   4.188   1.452   7.565 -0.3879  0.1719 -1.0715
  751MOL0     C99062   4.312   1.534   7.522  0.3801 -0.8105 -0.6475
  751MOL0     C99063   4.429   1.450   7.482 -0.2007 -0.4678 -0.7047
  751MOL0     C99064   4.529   1.389   7.456  0.2798 -0.2980  0.2443
  751MOL0     C99065   3.650   1.490   7.801 -0.7719  0.7947  0.3741
  751MOL0     C99066   3.563   1.426   7.886 -0.2606  0.3380  0.0801
  751MOL0     H99067   3.308   1.063   8.087 -1.2379 -1.7580  1.1110
  751MOL0     H99068   3.137   0.972   8.222  3.5855 -1.7247 -0.0346
  751MOL0     H99069   2.968   0.936   8.304 -1.8124  1.8624 -2.1817
  751MOL0     H99070   2.825   1.010   8.355  0.8673  0.0387 -5.0293
  751MOL0     H99071   2.863   0.957   8.599  0.5807 -0.4089  0.4304
  751MOL0     H99072   3.033   0.906   8.562  0.7419 -0.9393 -1.9788
  751MOL0     H99073   2.913   0.716   8.433  0.2278  2.1163  0.2189
  751MOL0     H99074   2.761   0.783   8.495 -0.4345  2.6524  1.0929
  751MOL0     H99075   2.856   0.584   8.642 -0.7482  0.2757  1.3634
  751MOL0     H99076   3.004   0.680   8.653  0.6006 -1.4038 -1.3452
  751MOL0     H99077   2.914   0.824   8.794  3.4256 -3.2479 -1.0528
  751MOL0     H99078   2.833   0.686   8.862 -2.3517  1.3784  1.5447
  751MOL0     H99079   2.612   0.746   8.761  1.4807 -1.6408 -0.8069
  751MOL0     H99080   2.684   0.891   8.685 -0.4613 -1.4269 -0.8858
  751MOL0     H99081   2.687   0.830   8.977 -0.1325  0.6859  1.0338
  751MOL0     H99082   2.725   0.975   8.898 -0.4211 -0.1538 -0.4719
  751MOL0     H99083   2.499   0.959   9.013 -0.8642 -1.6401  0.3645
  751MOL0     H99084   2.439   0.847   8.911 -2.3333  2.3903 -0.2645
  751MOL0     H99085   2.522   1.210   8.900 -1.1894  0.3124  0.6554
  751MOL0     H99086   2.282   1.360   8.638  0.9952 -1.8124 -0.9161
  751MOL0     H99087   2.453   1.380   8.677 -0.4568 -0.3527 -2.6179
  751MOL0     H99088   2.360   1.394   8.929  0.4777  2.0779 -0.5491
  751MOL0     H99089   2.207   1.376   8.876  0.6544 -1.6986  0.9165
  751MOL0     H99090   2.205   1.578   8.749 -0.8229 -1.9196  1.2654
  751MOL0     H99091   2.248   1.615   8.916 -1.2260 -0.5372 -1.1029
  751MOL0     H99092   2.369   1.751   8.774 -1.5459 -0.6724  0.1728
  751MOL0     H99093   2.427   1.616   8.667  1.9938  1.6451  0.5900
  751MOL0     H99094   2.492   1.546   9.085 -3.7548  1.9160 -0.5749
  751MOL0     H99095   2.581   1.640   9.285 -0.6980 -0.1568 -0.0395
  751MOL0     H99096   2.683   1.887   9.677 -0.2066 -0.2686 -0.0586
  751MOL0     H99097   2.539   1.931   9.874 -0.0123 -0.9146  0.5494
  751MOL0     H99098   2.085   1.919   9.799 -2.5541 -0.8999  3.1459
  751MOL0     H99099   2.142   2.092   9.864 -0.9160  1.0499  2.6084
  751MOL0     H99100   2.108   1.830  10.009 -1.3484  0.0628 -1.5506
  751MOL0     H99101   1.982   1.950  10.004  0.9274  3.3070  1.5817
  751MOL0     H99102   2.246   2.028  10.135  0.1036 -1.3982 -1.9371
  751MOL0     H99103   2.090   1.972  10.220 -4.9605  1.2815 -2.1015
  751MOL0     H99104   2.170   2.228  10.074  0.0708 -0.1327  0.8350
  751MOL0     H99105   2.005   2.183  10.064  1.5685 -0.8732 -2.7937
  751MOL0     H99106   2.003   2.177  10.307 -1.7640 -0.2959 -1.5465
  751MOL0     H99107   2.036   2.339  10.235 -2.0026 -1.4180 -2.1158
  751MOL0     H99108   2.302   2.268  10.270  1.0677 -0.3067  0.7011
  751MOL0     H99109   2.248   2.129  10.345  0.4012 -0.1797 -2.3876
  751MOL0     H99110   2.130   2.275  10.537 -0.2306  0.6568  0.5797
  751MOL0     H99111   2.293   2.257  10.532 -0.8137  1.0621  2.5806
  751MOL0     H99112   2.277   2.478  10.372  0.4579  2.1984 -0.4621
  751MOL0     H99113   2.250   2.494  10.558  0.8701 -2.0035 -0.0756
  751MOL0     H99114   2.200   1.909   9.602  0.5853 -2.0805 -1.1538
  751MOL0     H99115   2.340   1.878   9.431 -0.8919 -0.5684  0.5695
  751MOL0     H99116   2.575   2.015   9.071  4.2721  0.2362 -0.2069
  751MOL0     H99117   2.540   1.897   8.864  4.1677  1.4931  1.5459
  751MOL0     H99118   3.050   1.367   8.395  2.6003  1.2904  1.0234
  751MOL0     H99119   3.218   1.462   8.233  0.2208  0.1120 -1.9838
  751MOL0     H99120   3.786   1.349   8.134 -0.7649  0.4887  0.9983
  751MOL0     H99121   3.924   1.465   7.989  0.6055  1.4310 -2.6173
  751MOL0     H99122   4.020   1.409   7.751 -0.4175 -0.4696  0.1025
  751MOL0     H99123   4.062   1.573   7.813  1.6093 -0.1550 -0.5271
  751MOL0     H99124   3.976   1.484   7.526 -1.2224  1.4943 -0.1145
  751MOL0     H99125   4.052   1.630   7.559  1.0433 -0.2482 -1.8356
  751MOL0     H99126   4.170   1.387   7.478 -3.8123 -0.3486 -0.1256
  751MOL0     H99127   4.210   1.380   7.644 -1.7921  1.9961  1.1019
  751MOL0     H99128   4.274   1.600   7.443 -0.4531 -0.7075 -0.1704
  751MOL0     H99129   4.346   1.607   7.596 -2.1602 -0.1878  0.0116
  751MOL0     H99130   4.612   1.330   7.423 -0.2130 -0.9782  0.1811
  751MOL0     H99131   3.601   1.526   7.711 -2.6351  1.7497  1.7015
  751MOL0     H99132   3.456   1.414   7.873 -0.9433 -2.4130  5.4319
  752MOL0     O99133   6.650   8.971   6.284  0.6585  0.6343 -0.6985
  752MOL0     C99134   6.538   8.910   6.278  0.5558 -0.1928 -0.7352
  752MOL0     O99135   6.520   8.778   6.277  0.2346 -1.0441  0.6278
  752MOL0     C99136   6.626   8.707   6.240 -0.9801  0.1063 -0.5231
  752MOL0     C99137   6.698   8.622   6.318  0.4103  0.2876  0.0569
  752MOL0     C99138   6.814   8.554   6.272  0.6137 -0.2964 -0.5322
  752MOL0     C99139   6.858   8.566   6.138 -0.2172 -0.2565 -0.2563
  752MOL0     O99140   6.977   8.514   6.091 -0.2431  0.5025  0.1938
  752MOL0     C99141   7.088   8.609   6.101  0.6872  0.5406 -0.1221
  752MOL0     C99142   7.184   8.598   5.978 -0.7425  0.2206 -0.5373
  752MOL0     C99143   7.106   8.624   5.850 -0.3839  0.0403  0.1017
  752MOL0     C99144   7.201   8.666   5.733  0.1004 -0.0088 -0.2040
  752MOL0     C99145   7.120   8.712   5.601 -0.1927 -0.7992 -0.3130
  752MOL0     C99146   7.044   8.601   5.540  0.3841  0.5917  0.8047
  752MOL0     C99147   7.001   8.653   5.391  0.1887  0.1096  0.2575
  752MOL0     C99148   7.094   8.629   5.272  0.3757  1.2984 -0.4477
  752MOL0     N99149   7.046   8.669   5.142  0.4614  0.2626 -0.0102
  752MOL0     C99150   6.986   8.788   5.103  0.5378  0.2524 -0.2423
  752MOL0     C99151   7.045   8.813   4.983  0.8758 -0.4251 -0.0647
  752MOL0     C99152   7.029   8.939   4.913  0.2420 -0.0220 -0.0390
  752MOL0     C99153   6.910   8.954   4.809  0.3522 -0.5751  0.0885
  752MOL0     C99154   6.924   8.846   4.710  0.3437  0.1500  0.1449
  752MOL0     C99155   6.816   8.858   4.610  0.5775 -0.0188  0.3043
  752MOL0     O99156   6.845   8.762   4.510  0.6444  0.4409  0.2671
  752MOL0     C99157   6.757   8.745   4.405  1.3614 -0.8641  0.6334
  752MOL0     C99158   6.626   8.790   4.395  0.6138  0.4472 -0.4100
  752MOL0     C99159   6.553   8.759   4.278  0.1425  0.7079 -0.0630
  752MOL0     C99160   6.606   8.689   4.171 -0.0441 -0.1923 -0.6787
  752MOL0     C99161   6.525   8.638   4.062  0.4393 -0.8218  1.4855
  752MOL0     O99162   6.570   8.543   3.979 -0.1962  0.0846  0.4147
  752MOL0     C99163   6.487   8.501   3.877 -0.4409 -0.0770  0.3107
  752MOL0     C99164   6.382   8.409   3.900 -0.3335  0.1668 -0.9984
  752MOL0     C99165   6.296   8.372   3.798  0.0206 -0.5382  0.4628
  752MOL0     C99166   6.317   8.402   3.669 -0.5062  0.6330 -0.3406
  752MOL0     O99167   6.249   8.359   3.560  0.0860 -0.2116 -0.2132
  752MOL0     C99168   6.107   8.324   3.580  1.1461 -0.3687  0.2457
  752MOL0     C99169   6.083   8.171   3.560  0.1626 -0.0987 -0.0255
  752MOL0     C99170   6.113   8.141   3.410  1.3553  0.6426  0.5166
  752MOL0     C99171   6.134   7.992   3.393 -0.0826  0.1317 -0.4792
  752MOL0     C99172   6.235   7.940   3.283  0.5521 -0.6208  0.2337
  752MOL0     C99173   6.374   7.983   3.328 -0.7823  0.6701  0.5334
  752MOL0     C99174   6.498   7.935   3.244 -0.0706 -0.0009 -0.3665
  752MOL0     C99175   6.539   7.798   3.305 -0.1078 -0.0266  0.2531
  752MOL0    Cl99176   6.683   7.726   3.230 -0.5625 -0.4855 -0.1777
  752MOL0     C99177   6.438   8.470   3.645 -0.8599  0.3430  0.5845
  752MOL0     C99178   6.519   8.529   3.741 -0.2062 -0.5515 -0.1127
  752MOL0     O99179   6.418   8.695   4.045  0.2954 -0.0506 -0.6499
  752MOL0     C99180   6.736   8.645   4.186 -0.6886  0.0909  0.0302
  752MOL0     C99181   6.810   8.670   4.303  0.1448  0.3386 -1.2937
  752MOL0     N99182   7.136   8.712   4.953  0.4784 -0.0610 -0.2199
  752MOL0     N99183   7.121   8.611   5.044 -0.3864 -0.2682  0.2179
  752MOL0     C99184   6.777   8.640   6.057  0.4849 -0.5293  0.3298
  752MOL0     C99185   6.662   8.704   6.101  0.3753  0.5690  0.5418
  752MOL0     C99186   6.408   8.997   6.284  0.7759  1.2982  0.2749
  752MOL0     C99187   6.417   9.134   6.262  0.8832 -0.1754  0.3252
  752MOL0     C99188   6.298   9.196   6.246  0.4167 -0.0449 -0.2532
  752MOL0     C99189   6.176   9.136   6.257  0.4201 -0.1069 -0.3476
  752MOL0     O99190   6.064   9.217   6.269  0.1033  0.7345  0.6892
  752MOL0     C99191   5.968   9.198   6.153  0.0023 -0.5917  0.1393
  752MOL0     C99192   5.890   9.324   6.118 -0.1290 -0.0097 -0.0556
  752MOL0     C99193   5.959   9.412   6.015 -0.0137  0.1689 -0.6288
  752MOL0     C99194   5.873   9.445   5.901 -0.3952 -0.7974  0.2606
  752MOL0     C99195   5.935   9.549   5.818  0.0435 -0.2752 -0.3731
  752MOL0     C99196   5.962   9.625   5.727  0.1354  0.4006 -0.1154
  752MOL0     C99197   6.163   9.000   6.263 -0.1735  0.2493  0.2824
  752MOL0     C99198   6.281   8.932   6.283  0.0138 -0.4403 -0.8857
  752MOL0     H99199   6.647   8.594   6.409 -2.8621 -1.1785 -2.0508
  752MOL0     H99200   6.877   8.499   6.341  0.9996 -1.0498 -1.4628
  752MOL0     H99201   7.153   8.585   6.186  0.4826 -1.1605 -0.4038
  752MOL0     H99202   7.040   8.707   6.105 -2.4382 -0.8105 -0.7738
  752MOL0     H99203   7.243   8.507   5.966  5.4947  3.9484 -2.6979
  752MOL0     H99204   7.261   8.673   5.999 -2.4586  1.9451 -0.1117
  752MOL0     H99205   7.029   8.699   5.870 -0.6876 -0.4219  0.6744
  752MOL0     H99206   7.048   8.534   5.826 -1.4140  1.0511 -1.3695
  752MOL0     H99207   7.274   8.741   5.766  1.1990 -2.1266  2.5677
  752MOL0     H99208   7.250   8.571   5.711 -0.9759 -1.6459  3.5853
  752MOL0     H99209   7.196   8.755   5.535  0.3331  0.1241  0.8598
  752MOL0     H99210   7.051   8.793   5.628  2.7433  2.6929 -2.2932
  752MOL0     H99211   6.958   8.572   5.601  0.7220 -3.2597 -0.2643
  752MOL0     H99212   7.103   8.510   5.523 -0.2841 -0.1706  2.3101
  752MOL0     H99213   6.904   8.608   5.366  0.3012 -1.2047  2.0356
  752MOL0     H99214   6.973   8.758   5.391 -2.0791 -0.4125  1.6746
  752MOL0     H99215   7.110   8.521   5.275  2.1736  1.5427 -0.0215
  752MOL0     H99216   7.189   8.681   5.290  2.0809 -2.5774  3.4949
  752MOL0     H99217   6.911   8.849   5.152 -1.2198 -1.0179 -1.2022
  752MOL0     H99218   7.123   8.968   4.864  1.7464 -2.5599  1.1526
  752MOL0     H99219   7.027   9.021   4.985 -1.9299  0.7818 -0.9184
  752MOL0     H99220   6.916   9.050   4.757 -1.6572 -0.7873 -0.6295
  752MOL0     H99221   6.818   8.947   4.868  0.0331 -0.0939 -0.3410
  752MOL0     H99222   7.019   8.851   4.656 -0.9469 -3.0895 -2.7508
  752MOL0     H99223   6.926   8.746   4.755  2.9232 -0.6651 -1.5626
  752MOL0     H99224   6.804   8.962   4.579 -1.7924 -0.1470  0.5762
  752MOL0     H99225   6.723   8.823   4.656 -0.9569  0.6625 -2.1040
  752MOL0     H99226   6.586   8.842   4.481 -0.0933  0.5050 -0.7686
  752MOL0     H99227   6.447   8.783   4.278  0.0049  0.1362  0.0008
  752MOL0     H99228   6.360   8.378   4.002  1.8892 -2.4071 -1.2012
  752MOL0     H99229   6.211   8.307   3.816 -2.1880  1.3774 -2.1653
  752MOL0     H99230   6.049   8.375   3.503  0.0152 -3.5444 -1.1796
  752MOL0     H99231   6.062   8.350   3.677 -0.6573  1.5985 -1.0280
  752MOL0     H99232   5.983   8.132   3.585  1.0597 -4.2174 -2.1198
  752MOL0     H99233   6.158   8.128   3.627  0.0466  0.2855  0.3595
  752MOL0     H99234   6.204   8.201   3.394  1.0127  1.2410  0.7790
  752MOL0     H99235   6.041   8.173   3.335  4.6963  2.4483 -2.2170
  752MOL0     H99236   6.168   7.954   3.490  3.2828 -0.4002 -1.7479
  752MOL0     H99237   6.036   7.952   3.368 -2.0884  3.7504  0.7491
  752MOL0     H99238   6.214   7.967   3.179  4.2119 -3.1385 -1.3667
  752MOL0     H99239   6.243   7.831   3.278  0.6007 -0.5802 -0.7292
  752MOL0     H99240   6.390   7.949   3.431  1.5855 -3.9057 -1.0544
  752MOL0     H99241   6.373   8.092   3.315  3.3097  1.0653  2.0943
  752MOL0     H99242   6.466   7.932   3.140 -2.4011  4.3528  0.0063
  752MOL0     H99243   6.574   8.010   3.268 -0.9648  0.5278  0.8858
  752MOL0     H99244   6.463   7.720   3.302 -0.8593  0.7196 -1.7650
  752MOL0     H99245   6.559   7.822   3.410  1.7285  0.7170 -0.2191
  752MOL0     H99246   6.454   8.492   3.540 -1.9496 -1.1268  0.0618
  752MOL0     H99247   6.613   8.581   3.725  0.6145 -1.1477  2.3100
  752MOL0     H99248   6.768   8.582   4.104  0.0201 -1.8926  1.7403
  752MOL0     H99249   6.905   8.626   4.331 -1.1523 -0.5405  2.2395
  752MOL0     H99250   6.803   8.645   5.952  3.5124  0.7001  1.0459
  752MOL0     H99251   6.599   8.746   6.023  0.2202 -2.5618 -1.1936
  752MOL0     H99252   6.510   9.185   6.288 -1.0875  1.0616  6.5296
  752MOL0     H99253   6.300   9.302   6.224  0.9051 -0.2048 -0.9958
  752MOL0     H99254   5.895   9.121   6.180 -1.1872  0.3482 -0.3503
  752MOL0     H99255   6.030   9.173   6.066 -1.2346  1.4471 -1.4010
  752MOL0     H99256   5.792   9.282   6.096  0.9322 -1.2248 -3.0106
  752MOL0     H99257   5.882   9.379   6.212  1.4084  1.6755 -0.8350
  752MOL0     H99258   6.047   9.362   5.976  1.8969 -0.5881  3.9725
  752MOL0     H99259   6.008   9.502   6.055  2.3979 -2.0877  1.8861
  752MOL0     H99260   5.873   9.362   5.830  2.5705  0.6711 -1.6738
  752MOL0     H99261   5.775   9.475   5.938 -0.1525  2.8638 -1.6295
  752MOL0     H99262   5.972   9.695   5.647 -2.9871  0.3313 -0.6966
  752MOL0     H99263   6.067   8.949   6.272  1.4160 -3.1754 -0.6357
  752MOL0     H99264   6.267   8.825   6.297  2.2180 -0.8531 -1.4216
  753MOL0     O99265   6.584   1.675   5.297  0.5345  0.0334 -0.6527
  753MOL0     C99266   6.672   1.665   5.216  0.7582  0.0319 -0.4820
  753MOL0     O99267   6.777   1.585   5.233  0.1359  0.8186  0.0981
  753MOL0     C99268   6.759   1.481   5.319 -0.2778 -0.9112  0.7672
  753MOL0     C99269   6.669   1.372   5.283 -0.4751 -0.3909 -0.2213
  753MOL0     C99270   6.669   1.275   5.378 -0.1490  0.5999  0.6118
  753MOL0     C99271   6.736   1.281   5.502 -0.0056  0.0152  0.1044
  753MOL0     O99272   6.708   1.186   5.598 -0.0518  0.1264  0.1643
  753MOL0     C99273   6.698   1.050   5.546 -0.8762 -0.5489 -0.0984
  753MOL0     C99274   6.730   0.948   5.649  0.0327 -1.2307  0.1073
  753MOL0     C99275   6.886   0.968   5.676 -0.2853  0.4042 -0.6315
  753MOL0     C99276   6.922   0.918   5.815  0.1231 -0.2946  0.0013
  753MOL0     C99277   7.067   0.938   5.870  0.0098 -0.0229  0.8401
  753MOL0     C99278   7.172   0.870   5.765  1.3183  0.2409 -0.3018
  753MOL0     C99279   7.307   0.855   5.831  1.0238  0.3044 -0.8080
  753MOL0     C99280   7.413   0.814   5.730  0.0476  0.3355  0.9603
  753MOL0     N99281   7.485   0.939   5.674 -0.4610 -0.6653 -0.2304
  753MOL0     C99282   7.460   1.007   5.563 -0.4338 -0.3231 -0.6958
  753MOL0     C99283   7.553   1.107   5.559  0.4798 -0.1396 -0.6183
  753MOL0     C99284   7.575   1.208   5.446 -0.2651 -0.5353 -0.2518
  753MOL0     C99285   7.699   1.168   5.369 -0.2692  0.3209 -0.0154
  753MOL0     C99286   7.723   1.265   5.264 -0.1700 -0.6563  0.1105
  753MOL0     C99287   7.857   1.239   5.200  0.3042  0.3900  0.0605
  753MOL0     O99288   7.865   1.106   5.133 -0.3857 -0.0450 -0.2386
  753MOL0     C99289   7.962   1.095   5.042 -0.0455 -1.0460  0.4831
  753MOL0     C99290   7.936   1.005   4.933  0.4789 -1.0603 -0.0924
  753MOL0     C99291   8.016   1.001   4.825 -0.3904  0.2132  0.5769
  753MOL0     C99292   8.134   1.082   4.816 -0.2542  0.5456  0.9926
  753MOL0     C99293   8.206   1.104   4.692  0.1588 -0.0697 -0.0091
  753MOL0     O99294   8.144   1.142   4.580  0.0378  0.0140  0.3908
  753MOL0     C99295   8.225   1.182   4.473  1.2098  0.4065 -0.3680
  753MOL0     C99296   8.199   1.314   4.426 -0.3267  0.2751 -0.0325
  753MOL0     C99297   8.265   1.363   4.311  0.1522 -0.0477  0.4427
  753MOL0     C99298   8.360   1.287   4.250 -0.1700  0.2469 -0.0766
  753MOL0     O99299   8.428   1.345   4.149  0.0495  0.0093  0.2421
  753MOL0     C99300   8.369   1.330   4.021  0.4596 -0.3297  0.1656
  753MOL0     C99301   8.286   1.451   3.973  0.7194 -0.0100  0.1391
  753MOL0     C99302   8.230   1.445   3.826  1.2255 -0.3881 -0.3392
  753MOL0     C99303   8.158   1.583   3.787 -0.1077  0.0725  0.3590
  753MOL0     C99304   8.067   1.571   3.667 -1.1321  0.2610 -0.9118
  753MOL0     C99305   8.145   1.555   3.537 -0.9516 -0.0090 -0.9626
  753MOL0     C99306   8.055   1.578   3.418 -0.3479 -0.8228 -0.8315
  753MOL0     C99307   8.015   1.718   3.388  0.9043 -0.3436  0.4931
  753MOL0    Cl99308   8.146   1.832   3.423  0.1792  0.4482 -0.1773
  753MOL0     C99309   8.393   1.164   4.300  0.5389 -0.8192 -0.1520
  753MOL0     C99310   8.326   1.111   4.411  0.0115 -0.7163  0.1917
  753MOL0     O99311   8.321   1.109   4.715 -0.3775  0.8714 -0.0283
  753MOL0     C99312   8.172   1.157   4.932 -0.4695  0.1616  0.8716
  753MOL0     C99313   8.084   1.163   5.042 -0.7233 -0.1904 -0.0004
  753MOL0     N99314   7.635   1.101   5.674 -0.0055  0.9167  0.3096
  753MOL0     N99315   7.589   1.001   5.737 -1.5061 -0.2600  0.2659
  753MOL0     C99316   6.829   1.383   5.524  0.2061  0.6139  0.2484
  753MOL0     C99317   6.850   1.473   5.423 -0.0372 -1.0460 -0.3874
  753MOL0     C99318   6.667   1.762   5.110  0.3670 -1.0374 -0.0379
  753MOL0     C99319   6.776   1.768   5.020  0.2759  0.5129  0.4562
  753MOL0     C99320   6.774   1.867   4.918 -0.2652 -0.0142 -0.4016
  753MOL0     C99321   6.678   1.971   4.917  0.3814 -0.5543  0.1556
  753MOL0     O99322   6.678   2.064   4.817  0.5226  0.6982  0.6200
  753MOL0     C99323   6.715   2.201   4.857  0.1828  0.5489  0.5979
  753MOL0     C99324   6.610   2.304   4.835  0.8152 -0.0903  0.2229
  753MOL0     C99325   6.647   2.445   4.878 -0.0571  0.0646 -0.2162
  753MOL0     C99326   6.618   2.549   4.768  1.0042 -0.0445  1.5593
  753MOL0     C99327   6.654   2.682   4.815  0.8767 -0.2254 -0.0974
  753MOL0     C99328   6.670   2.786   4.874  0.9209 -0.2875  0.4558
  753MOL0     C99329   6.566   1.949   4.999 -0.0568 -0.2288 -0.1809
  753MOL0     C99330   6.564   1.856   5.102  0.2194  0.4080 -0.1497
  753MOL0     H99331   6.606   1.356   5.196  2.0228  1.6295 -2.5796
  753MOL0     H99332   6.601   1.193   5.358 -1.2987  1.7202 -0.1585
  753MOL0     H99333   6.756   1.034   5.455  1.1596  1.4175  0.7644
  753MOL0     H99334   6.592   1.029   5.531 -1.4147 -2.5123  4.6834
  753MOL0     H99335   6.703   0.854   5.600 -0.3483 -0.8977 -0.3252
  753MOL0     H99336   6.660   0.962   5.732 -1.7584  1.3167 -1.6786
  753MOL0     H99337   6.910   1.074   5.690  3.4069 -0.5927  2.3427
  753MOL0     H99338   6.951   0.921   5.602  0.3609 -2.0340  1.3453
  753MOL0     H99339   6.851   0.962   5.884 -1.5742 -1.7377 -0.7279
  753MOL0     H99340   6.903   0.810   5.813 -0.3814 -0.3820  3.5148
  753MOL0     H99341   7.075   0.891   5.968  2.9896 -1.7127 -0.1106
  753MOL0     H99342   7.103   1.041   5.883  1.4096 -0.7977  4.2807
  753MOL0     H99343   7.176   0.919   5.667 -0.7909  0.1944 -0.4643
  753MOL0     H99344   7.140   0.767   5.743  2.0520  0.1380 -0.9284
  753MOL0     H99345   7.334   0.949   5.880  0.1949 -1.6791  4.0538
  753MOL0     H99346   7.290   0.775   5.904 -0.1206 -0.6500 -2.0714
  753MOL0     H99347   7.369   0.752   5.652 -2.3153  1.6697  1.1539
  753MOL0     H99348   7.484   0.752   5.786  0.2301  1.3585  1.9103
  753MOL0     H99349   7.372   0.990   5.502 -0.7251  0.8656 -0.6279
  753MOL0     H99350   7.579   1.310   5.486  3.3616 -0.7395  0.1963
  753MOL0     H99351   7.487   1.202   5.381 -0.5583 -0.6051  0.1479
  753MOL0     H99352   7.681   1.074   5.316  0.2442  2.0669 -3.5546
  753MOL0     H99353   7.788   1.149   5.430  0.3181  0.3387 -0.8474
  753MOL0     H99354   7.650   1.262   5.182  0.6524 -1.3075 -0.6207
  753MOL0     H99355   7.726   1.366   5.304  2.2490 -1.1561  1.3750
  753MOL0     H99356   7.931   1.255   5.278  0.0873 -1.3110  0.6668
  753MOL0     H99357   7.869   1.312   5.120  0.1469 -0.5563 -0.8603
  753MOL0     H99358   7.835   0.967   4.940 -0.0125  0.4232  2.5483
  753MOL0     H99359   7.973   0.956   4.736 -2.8219  2.7229  0.3457
  753MOL0     H99360   8.122   1.371   4.476 -2.3540 -0.3092 -2.2659
  753MOL0     H99361   8.253   1.461   4.267 -3.0072  0.0936  1.4110
  753MOL0     H99362   8.301   1.245   4.022 -0.5838  0.4636 -0.7099
  753MOL0     H99363   8.438   1.305   3.940  1.3376  2.0762  0.0805
  753MOL0     H99364   8.350   1.540   3.986  0.4898  0.1005  0.5410
  753MOL0     H99365   8.203   1.465   4.043  2.0240  0.3537  1.6783
  753MOL0     H99366   8.170   1.354   3.818 -0.0099  0.0331  2.6628
  753MOL0     H99367   8.313   1.433   3.756  0.8174  1.4072 -1.2083
  753MOL0     H99368   8.093   1.627   3.863 -0.6637  0.7914 -0.5138
  753MOL0     H99369   8.230   1.663   3.766  1.8451 -1.3358  1.3317
  753MOL0     H99370   8.010   1.664   3.662  0.7751  1.5810  0.3638
  753MOL0     H99371   7.999   1.486   3.682  0.4969 -0.6197  2.6706
  753MOL0     H99372   8.188   1.455   3.525  0.5311  0.2202  1.6605
  753MOL0     H99373   8.226   1.628   3.534 -3.1308  2.6624  0.1168
  753MOL0     H99374   8.120   1.552   3.334 -1.7675 -0.7122 -1.9953
  753MOL0     H99375   7.964   1.518   3.429 -1.4856  0.4804 -2.5142
  753MOL0     H99376   7.924   1.745   3.443  0.3916 -1.7872  0.4026
  753MOL0     H99377   7.984   1.715   3.283  1.0561  0.4239  0.4217
  753MOL0     H99378   8.456   1.097   4.242  0.0131 -0.6896 -0.8768
  753MOL0     H99379   8.368   1.021   4.456 -1.5202 -1.5156  0.1136
  753MOL0     H99380   8.264   1.214   4.928 -1.9373  2.5940 -1.9334
  753MOL0     H99381   8.107   1.227   5.126 -3.2839  0.4250  0.2983
  753MOL0     H99382   6.894   1.381   5.612  0.2884  0.4133  0.1825
  753MOL0     H99383   6.926   1.550   5.427 -0.5533 -0.5454  0.0927
  753MOL0     H99384   6.859   1.702   5.041  0.0578 -0.8997 -2.5162
  753MOL0     H99385   6.854   1.879   4.846  1.4200 -0.1425  1.3678
  753MOL0     H99386   6.796   2.227   4.787 -1.3375  0.7494 -1.1744
  753MOL0     H99387   6.756   2.202   4.958  2.7228  2.9226 -0.3282
  753MOL0     H99388   6.562   2.296   4.737  0.6977 -3.8945  0.4464
  753MOL0     H99389   6.530   2.281   4.906 -0.0556 -2.3963 -1.4000
  753MOL0     H99390   6.750   2.457   4.912 -0.0873 -1.4701  0.5226
  753MOL0     H99391   6.584   2.472   4.964 -4.1601  2.8717 -3.6680
  753MOL0     H99392   6.684   2.536   4.682 -0.7474  1.1925 -0.0458
  753MOL0     H99393   6.514   2.538   4.737  1.9406 -1.3308 -1.5087
  753MOL0     H99394   6.704   2.876   4.921  1.3797 -0.4461  0.4391
  753MOL0     H99395   6.477   2.008   4.979 -1.6983 -2.5483 -0.1416
  753MOL0     H99396   6.482   1.831   5.168  2.2626 -3.5030  1.3036
  754MOL0     O99397   2.670   9.832   3.520 -0.6857  0.7465 -0.5980
  754MOL0     C99398   2.670   9.750   3.615 -0.5128  0.1662  0.5063
  754MOL0     O99399   2.678   9.612   3.605 -0.5004  0.0535 -0.4515
  754MOL0     C99400   2.665   9.564   3.482 -0.1002  0.6020  1.0097
  754MOL0     C99401   2.539   9.516   3.436  0.2278 -0.5308  0.3220
  754MOL0     C99402   2.520   9.477   3.299  0.1139  0.0137 -0.1596
  754MOL0     C99403   2.631   9.465   3.216  0.0428 -0.9882 -0.4711
  754MOL0     O99404   2.626   9.410   3.092 -0.4407 -0.8154  0.0240
  754MOL0     C99405   2.626   9.269   3.093  0.1853 -0.3264 -0.4142
  754MOL0     C99406   2.759   9.208   3.150 -1.1279  0.2117 -0.0622
  754MOL0     C99407   2.739   9.171   3.298  0.7197  1.1373 -0.7960
  754MOL0     C99408   2.860   9.108   3.370 -0.8335  0.1459  0.3456
  754MOL0     C99409   2.837   9.099   3.527  0.5183  0.3457 -0.2318
  754MOL0     C99410   2.774   8.969   3.575 -0.4155  0.7044 -0.1405
  754MOL0     C99411   2.711   8.979   3.707  0.2980  0.2961 -1.3072
  754MOL0     C99412   2.781   9.047   3.828  0.7271  0.7077  0.0609
  754MOL0     N99413   2.905   8.979   3.867 -0.3501 -0.1384  0.2189
  754MOL0     C99414   3.031   9.023   3.839  0.2398 -0.5935  0.2032
  754MOL0     C99415   3.106   8.946   3.920  0.5445  0.6708 -0.0979
  754MOL0     C99416   3.258   8.925   3.912 -0.9393 -0.3640 -0.6089
  754MOL0     C99417   3.338   8.991   3.798  0.7959  0.0444 -0.4256
  754MOL0     C99418   3.286   8.953   3.656 -0.4460 -0.4648 -0.0710
  754MOL0     C99419   3.377   8.905   3.540 -0.1536  0.5251 -0.1486
  754MOL0     O99420   3.468   8.807   3.583 -0.4346 -1.1470 -0.5421
  754MOL0     C99421   3.562   8.760   3.499 -0.1776 -0.9844  0.5688
  754MOL0     C99422   3.547   8.722   3.367  0.9097 -0.2536  0.2980
  754MOL0     C99423   3.656   8.669   3.296 -0.0622  0.0714 -0.1284
  754MOL0     C99424   3.774   8.632   3.356 -0.3317 -1.3528 -0.1544
  754MOL0     C99425   3.880   8.569   3.272  0.1018 -0.4539  0.8090
  754MOL0     O99426   4.001   8.534   3.340  0.1535 -0.4336  0.0105
  754MOL0     C99427   4.103   8.480   3.274 -0.2433 -0.0186  0.4250
  754MOL0     C99428   4.082   8.386   3.172 -0.1933  1.1459  0.0477
  754MOL0     C99429   4.202   8.343   3.105 -0.1987  0.7718 -0.4010
  754MOL0     C99430   4.324   8.376   3.146 -0.1523 -0.0735 -0.7406
  754MOL0     O99431   4.431   8.318   3.075  0.2800  0.3335  0.2463
  754MOL0     C99432   4.561   8.359   3.108 -0.0346  0.1525  0.1887
  754MOL0     C99433   4.674   8.278   3.025 -0.4806  0.6276 -0.6609
  754MOL0     C99434   4.677   8.119   3.048 -1.0141 -0.1802  0.2461
  754MOL0     C99435   4.729   8.047   2.923  0.3635 -0.1510 -0.8063
  754MOL0     C99436   4.783   7.909   2.960 -0.4658 -0.4896  0.3700
  754MOL0     C99437   4.833   7.833   2.843 -0.2203 -0.2072  0.4288
  754MOL0     C99438   4.904   7.699   2.873 -0.0270 -0.0531  0.5528
  754MOL0     C99439   4.807   7.605   2.948 -0.2499 -0.6460 -0.0037
  754MOL0    Cl99440   4.873   7.443   2.976  0.0479 -0.3078  1.0484
  754MOL0     C99441   4.339   8.474   3.243  0.1554 -0.2679 -0.2414
  754MOL0     C99442   4.230   8.524   3.306  0.3121 -0.0010 -0.4741
  754MOL0     O99443   3.854   8.560   3.149 -0.6164  0.3435  0.1495
  754MOL0     C99444   3.789   8.659   3.492  0.7104 -0.8608 -0.3633
  754MOL0     C99445   3.684   8.724   3.562  0.4758 -0.5521  0.1054
  754MOL0     N99446   3.026   8.885   4.015 -0.3592 -0.2885 -0.6277
  754MOL0     N99447   2.906   8.903   3.979 -0.2630 -0.3210  0.3275
  754MOL0     C99448   2.760   9.513   3.263  0.1646 -0.0099 -0.0563
  754MOL0     C99449   2.777   9.564   3.393 -1.1043 -0.2912  0.2996
  754MOL0     C99450   2.674   9.809   3.745  0.0835  0.3221 -0.2453
  754MOL0     C99451   2.723   9.735   3.857  0.7706  0.4665 -0.2841
  754MOL0     C99452   2.731   9.797   3.983  0.1327 -0.2491  0.5155
  754MOL0     C99453   2.678   9.919   4.003 -0.3729 -0.3102 -0.1866
  754MOL0     O99454   2.679   9.973   4.129 -0.3048 -0.1264  0.6120
  754MOL0     C99455   2.613   9.889   4.222  0.3858  0.4930  0.2096
  754MOL0     C99456   2.706   9.865   4.349  0.0590 -0.6316 -0.4721
  754MOL0     C99457   2.717  10.006   4.417  0.8108  0.3428  0.0551
  754MOL0     C99458   2.810   9.992   4.542 -0.5996 -0.5219  0.1536
  754MOL0     C99459   2.951   9.981   4.500  0.6176 -0.0260 -0.6009
  754MOL0     C99460   3.068   9.960   4.477 -0.5806  0.1363  0.0068
  754MOL0     C99461   2.623   9.983   3.897 -0.2146  0.2820 -0.5361
  754MOL0     C99462   2.620   9.933   3.766 -0.2016 -0.1171 -0.1170
  754MOL0     H99463   2.444   9.524   3.488 -0.3946  0.6150 -0.9298
  754MOL0     H99464   2.421   9.454   3.261 -0.1556  0.8555  0.0113
  754MOL0     H99465   2.623   9.232   2.990  1.5315 -0.1812 -0.5303
  754MOL0     H99466   2.541   9.219   3.139  1.2464 -2.4281 -0.6185
  754MOL0     H99467   2.839   9.280   3.130  0.6972 -0.1641  4.6191
  754MOL0     H99468   2.794   9.114   3.107  1.9020  0.1989  2.0806
  754MOL0     H99469   2.655   9.102   3.308  1.1505  0.8842  2.2650
  754MOL0     H99470   2.725   9.259   3.363  2.2412  1.0250 -0.2758
  754MOL0     H99471   2.887   9.012   3.323  0.7911  0.3937  0.7057
  754MOL0     H99472   2.942   9.178   3.353 -0.2410 -0.8042 -0.9492
  754MOL0     H99473   2.771   9.184   3.546  0.7005  0.5762 -0.6183
  754MOL0     H99474   2.939   9.111   3.566  0.5297  1.5612 -0.6163
  754MOL0     H99475   2.836   8.879   3.568 -3.4426 -1.6457  0.7015
  754MOL0     H99476   2.685   8.953   3.515  0.8319 -0.4260 -1.7710
  754MOL0     H99477   2.612   9.022   3.690 -1.5679 -3.4898 -1.0471
  754MOL0     H99478   2.690   8.877   3.742  1.4252  0.7152  0.7813
  754MOL0     H99479   2.702   9.048   3.903  0.1977  0.9133 -0.4914
  754MOL0     H99480   2.807   9.150   3.803  1.2138  0.4272 -0.6396
  754MOL0     H99481   3.069   9.087   3.760 -1.1992  1.6397  1.2195
  754MOL0     H99482   3.289   8.820   3.905  0.4106 -0.1816  1.6141
  754MOL0     H99483   3.282   8.956   4.014  2.0126 -2.2225 -0.6084
  754MOL0     H99484   3.440   8.956   3.811  2.2706  3.9097 -0.2401
  754MOL0     H99485   3.336   9.100   3.810  1.4786  0.0298 -0.1592
  754MOL0     H99486   3.222   8.867   3.676 -0.7619 -0.1346  0.3538
  754MOL0     H99487   3.228   9.038   3.618 -1.9644 -1.2057  0.5174
  754MOL0     H99488   3.421   8.993   3.492 -1.5837  2.2183  1.4801
  754MOL0     H99489   3.316   8.862   3.459  2.3255  0.5169 -2.1449
  754MOL0     H99490   3.453   8.737   3.315  2.1830  0.4677 -1.9512
  754MOL0     H99491   3.636   8.651   3.190  0.1033  0.2943 -0.1974
  754MOL0     H99492   3.985   8.349   3.140 -0.2204  2.2658 -1.2378
  754MOL0     H99493   4.194   8.282   3.016 -3.0461  1.9517 -1.0844
  754MOL0     H99494   4.586   8.333   3.211  2.7769 -2.0471 -0.9274
  754MOL0     H99495   4.580   8.466   3.095  0.7936  0.1443  1.2671
  754MOL0     H99496   4.774   8.317   3.048 -0.7911  0.3968  1.3000
  754MOL0     H99497   4.661   8.304   2.920 -1.5019 -0.9570 -0.9568
  754MOL0     H99498   4.576   8.083   3.071 -1.0158 -1.8344 -2.0307
  754MOL0     H99499   4.738   8.096   3.135  2.7721  1.0875 -1.8461
  754MOL0     H99500   4.644   8.020   2.860 -0.6887 -4.7504  2.1026
  754MOL0     H99501   4.811   8.107   2.881 -0.9667  3.0862  0.8558
  754MOL0     H99502   4.694   7.857   2.996 -2.1504  0.9341 -1.4680
  754MOL0     H99503   4.862   7.914   3.035 -2.1590  2.5859  2.1578
  754MOL0     H99504   4.907   7.893   2.790  1.5199 -4.3455 -2.3642
  754MOL0     H99505   4.752   7.812   2.772  0.9355  3.7003 -2.3468
  754MOL0     H99506   4.932   7.649   2.780 -0.8416 -2.1882  1.3833
  754MOL0     H99507   4.993   7.711   2.935  1.3000  0.0909 -1.3217
  754MOL0     H99508   4.715   7.595   2.890 -2.4970  0.8590  2.9914
  754MOL0     H99509   4.780   7.663   3.037 -1.1889  0.6664 -1.1005
  754MOL0     H99510   4.435   8.521   3.258  0.8290 -1.4046 -0.8788
  754MOL0     H99511   4.234   8.606   3.377  2.0433  0.0774 -0.6252
  754MOL0     H99512   3.881   8.646   3.548  1.7776  2.4627 -1.1241
  754MOL0     H99513   3.676   8.735   3.669 -1.2833 -0.8022  0.0327
  754MOL0     H99514   2.838   9.511   3.187  0.7537 -0.5497  0.5425
  754MOL0     H99515   2.878   9.595   3.421 -0.3372 -1.1976 -1.3276
  754MOL0     H99516   2.751   9.630   3.854 -0.9955 -0.0188 -1.2389
  754MOL0     H99517   2.780   9.742   4.063  2.7042  0.4970 -0.4434
  754MOL0     H99518   2.591   9.790   4.180  3.0428  0.6009 -1.6234
  754MOL0     H99519   2.522   9.934   4.263 -0.0601 -0.9112  0.8182
  754MOL0     H99520   2.668   9.785   4.413 -0.5794  0.1391  0.1268
  754MOL0     H99521   2.802   9.821   4.319  0.4831 -2.2086  2.7960
  754MOL0     H99522   2.618  10.041   4.447  0.8329  2.5175 -2.1107
  754MOL0     H99523   2.754  10.084   4.350 -1.6792 -1.1203 -3.3531
  754MOL0     H99524   2.795  10.085   4.596  2.4335 -0.9940  2.0220
  754MOL0     H99525   2.786   9.904   4.603 -0.3276 -0.9272 -0.3147
  754MOL0     H99526   3.173   9.946   4.463 -1.1892 -3.1303 -2.6033
  754MOL0     H99527   2.581  10.083   3.903  2.0278  1.2283  0.3146
  754MOL0     H99528   2.569   9.991   3.689 -2.8882  0.6464  2.0708
  755MOL0     O99529  11.004   5.387   8.196 -0.0988 -0.8655  0.5558
  755MOL0     C99530  11.070   5.335   8.109  0.2064 -0.4255  0.2529
  755MOL0     O99531  11.025   5.273   7.992  0.1598  0.0485  0.3894
  755MOL0     C99532  10.889   5.261   7.968  0.3270 -0.5728  0.2418
  755MOL0     C99533  10.831   5.135   7.971  0.0768 -0.0929 -0.1544
  755MOL0     C99534  10.694   5.121   7.947 -0.4096  0.6485 -0.5876
  755MOL0     C99535  10.608   5.226   7.925 -0.2739  0.2457 -0.0728
  755MOL0     O99536  10.477   5.192   7.904  0.9049 -1.0021 -0.4459
  755MOL0     C99537  10.371   5.290   7.889 -0.0374 -0.0447 -0.3114
  755MOL0     C99538  10.333   5.325   7.741  0.9133 -0.0059 -0.9294
  755MOL0     C99539  10.297   5.184   7.678 -0.6977 -0.2232  0.2407
  755MOL0     C99540  10.223   5.198   7.543 -0.0448  0.5285 -0.9993
  755MOL0     C99541  10.283   5.266   7.423 -0.5853 -1.0057 -0.9506
  755MOL0     C99542  10.405   5.201   7.358 -0.5377  1.2668 -1.2448
  755MOL0     C99543  10.376   5.085   7.276  0.2948 -0.0713  0.6202
  755MOL0     C99544  10.333   5.128   7.134 -0.5375 -0.4298  0.5709
  755MOL0     N99545  10.263   5.019   7.062  0.8565 -0.0419 -0.2311
  755MOL0     C99546  10.306   4.963   6.943 -0.3653 -0.3170 -0.7846
  755MOL0     C99547  10.200   4.880   6.913  0.3547 -0.5096  0.7630
  755MOL0     C99548  10.206   4.793   6.798 -1.2210  0.0286 -0.3229
  755MOL0     C99549  10.218   4.645   6.843 -0.2931 -0.6601  0.1484
  755MOL0     C99550  10.221   4.557   6.718 -1.4657 -0.2718 -0.0876
  755MOL0     C99551  10.227   4.401   6.766  0.0523 -0.4448  0.2245
  755MOL0     O99552  10.199   4.307   6.662  0.0866  0.7382 -0.0005
  755MOL0     C99553  10.067   4.262   6.648  0.1571  0.2948 -0.8876
  755MOL0     C99554  10.043   4.167   6.547  0.0519  0.1486  0.0789
  755MOL0     C99555   9.918   4.124   6.524 -0.5736  0.3165  0.2666
  755MOL0     C99556   9.807   4.171   6.594 -0.0606  0.0818  0.0557
  755MOL0     C99557   9.671   4.138   6.546  0.9884  0.9290  0.0067
  755MOL0     O99558   9.669   4.027   6.468  1.0596  0.5976 -0.4918
  755MOL0     C99559   9.553   3.968   6.430 -0.0945  0.1565 -0.0864
  755MOL0     C99560   9.544   3.939   6.291 -0.1569  0.0193 -0.2977
  755MOL0     C99561   9.443   3.874   6.234 -0.1245  0.3426 -0.5944
  755MOL0     C99562   9.334   3.831   6.315 -0.3894  0.2569 -0.5666
  755MOL0     O99563   9.228   3.770   6.245 -0.1554 -0.4025  0.4123
  755MOL0     C99564   9.105   3.843   6.257 -0.4691  0.8305  0.9769
  755MOL0     C99565   9.065   3.906   6.131  0.0584 -0.2629  0.6472
  755MOL0     C99566   8.925   3.971   6.131 -0.7712  0.1820  0.1597
  755MOL0     C99567   8.857   3.986   5.997 -0.5589  0.8148  0.0477
  755MOL0     C99568   8.725   4.060   6.007 -0.0496  0.9558  0.1960
  755MOL0     C99569   8.666   4.116   5.871 -0.4188 -0.1867  0.0265
  755MOL0     C99570   8.760   4.225   5.813  0.0467 -0.2576  0.7531
  755MOL0     C99571   8.687   4.309   5.712 -0.4768 -0.4766 -0.2810
  755MOL0    Cl99572   8.667   4.240   5.545  0.4093  0.2455 -0.0385
  755MOL0     C99573   9.331   3.872   6.453 -0.4140 -0.0612  0.3111
  755MOL0     C99574   9.440   3.933   6.507  0.3115  0.0194 -0.9858
  755MOL0     O99575   9.576   4.196   6.603  0.4612 -0.2633  0.9968
  755MOL0     C99576   9.822   4.267   6.700  0.3248  0.8188 -0.3176
  755MOL0     C99577   9.955   4.302   6.731  0.7583  0.1653  0.2964
  755MOL0     N99578  10.088   4.911   6.990 -0.8888  0.1020 -0.4679
  755MOL0     N99579  10.129   4.994   7.084 -0.0048 -0.0429 -0.2933
  755MOL0     C99580  10.664   5.349   7.922 -0.0074  0.2409  0.8019
  755MOL0     C99581  10.799   5.369   7.947  0.4847 -0.5660  0.0085
  755MOL0     C99582  11.204   5.327   8.149 -0.0222  0.2526  0.2024
  755MOL0     C99583  11.286   5.245   8.081  0.7647 -1.0149  0.5148
  755MOL0     C99584  11.416   5.239   8.126 -1.0121  0.4481  0.1566
  755MOL0     C99585  11.468   5.319   8.234 -0.1332  1.5524 -0.6368
  755MOL0     O99586  11.595   5.298   8.272 -0.0304  1.0527 -0.1986
  755MOL0     C99587  11.627   5.287   8.412 -1.0605 -0.3500 -0.1633
  755MOL0     C99588  11.593   5.160   8.478  0.4515  0.8110  0.4456
  755MOL0     C99589  11.616   5.036   8.390  0.8241 -0.0165  0.1869
  755MOL0     C99590  11.541   4.913   8.440  0.4180  1.5939  0.1880
  755MOL0     C99591  11.394   4.919   8.419 -0.8901 -1.1756  0.4240
  755MOL0     C99592  11.277   4.936   8.412 -0.2055 -0.2590 -0.1920
  755MOL0     C99593  11.387   5.412   8.296  0.2817 -0.3587  0.0241
  755MOL0     C99594  11.256   5.411   8.255 -0.1932  0.1806  0.8132
  755MOL0     H99595  10.891   5.050   8.003  0.3134 -0.5517 -1.7474
  755MOL0     H99596  10.642   5.026   7.952  1.8261 -0.7506 -1.9695
  755MOL0     H99597  10.385   5.380   7.949  1.3249 -1.2913  1.3511
  755MOL0     H99598  10.287   5.233   7.929  0.8991 -0.6075  0.9049
  755MOL0     H99599  10.414   5.379   7.692  0.2974  2.3804  0.5479
  755MOL0     H99600  10.252   5.397   7.753  2.0692  1.0093  1.6569
  755MOL0     H99601  10.240   5.113   7.739 -1.4138 -0.7652 -1.0191
  755MOL0     H99602  10.390   5.128   7.662  0.0169  0.3634  2.0341
  755MOL0     H99603  10.215   5.092   7.516  2.1837 -0.2972  1.2257
  755MOL0     H99604  10.125   5.246   7.557  0.7051  2.4484 -2.0157
  755MOL0     H99605  10.322   5.363   7.458  0.5044 -1.4602 -0.8482
  755MOL0     H99606  10.206   5.282   7.348 -2.7773  3.2964  1.8078
  755MOL0     H99607  10.462   5.169   7.445 -1.9645  2.4138  0.1696
  755MOL0     H99608  10.462   5.277   7.303  0.4790  2.0923  0.8421
  755MOL0     H99609  10.462   5.019   7.262  1.2967  0.4296  3.6585
  755MOL0     H99610  10.289   5.034   7.318 -1.3864  3.8264  2.3561
  755MOL0     H99611  10.426   5.149   7.081 -1.2755  0.0906 -0.5524
  755MOL0     H99612  10.267   5.215   7.135 -0.4072 -0.3310  0.5764
  755MOL0     H99613  10.405   4.979   6.902  0.6246 -2.6747  0.4181
  755MOL0     H99614  10.282   4.824   6.727 -1.5689 -1.4681 -1.3827
  755MOL0     H99615  10.115   4.795   6.737 -3.0078 -1.2356  2.0855
  755MOL0     H99616  10.138   4.631   6.916  0.0896  1.8166  1.1614
  755MOL0     H99617  10.308   4.649   6.904 -0.0802  2.4340 -0.2079
  755MOL0     H99618  10.132   4.568   6.656 -0.9246 -1.1786 -1.0427
  755MOL0     H99619  10.305   4.597   6.660 -2.5875  4.2473  1.0079
  755MOL0     H99620  10.153   4.379   6.844 -1.8223 -5.3157 -2.4931
  755MOL0     H99621  10.319   4.379   6.821  0.6939  0.7478 -0.3118
  755MOL0     H99622  10.123   4.136   6.480  0.1630  1.9419 -0.6705
  755MOL0     H99623   9.899   4.067   6.434 -2.6207 -0.1921  0.9573
  755MOL0     H99624   9.629   3.984   6.240 -1.0558  2.3233  0.1034
  755MOL0     H99625   9.445   3.860   6.127 -0.0841  1.8392 -0.8140
  755MOL0     H99626   9.106   3.915   6.340  3.3585  0.1713  1.6804
  755MOL0     H99627   9.021   3.776   6.279 -0.4913  0.9305  1.2006
  755MOL0     H99628   9.067   3.822   6.061  5.0390  2.0492 -2.5467
  755MOL0     H99629   9.135   3.988   6.114  0.7470 -0.4972  2.1871
  755MOL0     H99630   8.932   4.065   6.187  3.6160  0.5584 -0.6334
  755MOL0     H99631   8.853   3.906   6.181 -1.9196  0.6499 -0.8365
  755MOL0     H99632   8.922   4.043   5.930  1.6017 -0.3590  1.0431
  755MOL0     H99633   8.843   3.887   5.954  0.6855  0.5276  0.2631
  755MOL0     H99634   8.724   4.140   6.082 -1.1202  1.1286  0.0238
  755MOL0     H99635   8.656   3.981   6.041 -1.3703 -0.2540 -4.5383
  755MOL0     H99636   8.576   4.172   5.898  0.1276  0.5964  0.2705
  755MOL0     H99637   8.645   4.037   5.798  1.5801  2.3525 -3.6000
  755MOL0     H99638   8.798   4.291   5.891 -0.2093 -0.7807  1.3313
  755MOL0     H99639   8.841   4.169   5.765  1.3612  0.0127  2.5505
  755MOL0     H99640   8.748   4.399   5.702  0.0898 -0.7710  0.5062
  755MOL0     H99641   8.594   4.349   5.753 -0.4137  2.9188 -2.9307
  755MOL0     H99642   9.258   3.846   6.528  0.7703 -1.8397  0.9059
  755MOL0     H99643   9.441   3.959   6.613  0.2373 -0.0329 -0.9728
  755MOL0     H99644   9.745   4.294   6.771  1.7016  0.5661  1.3356
  755MOL0     H99645   9.965   4.338   6.833 -1.0016 -3.2998  1.8538
  755MOL0     H99646  10.590   5.422   7.892  1.0261 -0.1451 -3.3003
  755MOL0     H99647  10.835   5.471   7.936 -0.9938 -0.2221 -2.4515
  755MOL0     H99648  11.254   5.184   7.997 -1.6729  1.5471 -0.6326
  755MOL0     H99649  11.477   5.158   8.086 -3.0505 -1.7671  1.3042
  755MOL0     H99650  11.596   5.369   8.478  0.9135  0.3136  0.0110
  755MOL0     H99651  11.737   5.290   8.419 -0.9874  2.5728 -0.9950
  755MOL0     H99652  11.644   5.143   8.574  1.0509 -0.8957 -0.1452
  755MOL0     H99653  11.485   5.159   8.492 -0.3410 -1.2963 -4.0168
  755MOL0     H99654  11.725   5.022   8.392  0.8027 -0.4062 -0.9775
  755MOL0     H99655  11.602   5.050   8.283  3.9664  1.0171 -0.2076
  755MOL0     H99656  11.583   4.832   8.381  0.1221  0.6810  1.1865
  755MOL0     H99657  11.562   4.904   8.547 -0.7591 -0.3736  0.3043
  755MOL0     H99658  11.172   4.954   8.415 -0.3330 -1.0517  0.1197
  755MOL0     H99659  11.421   5.491   8.362 -1.0253  0.5001 -0.2957
  755MOL0     H99660  11.194   5.488   8.299 -0.6339  0.2877  0.0313
  756MOL0     O99661   4.237   3.498   1.414 -0.1938  0.1910  0.2544
  756MOL0     C99662   4.265   3.449   1.526 -0.1933  0.6721  0.3166
  756MOL0     O99663   4.257   3.317   1.564 -0.4053  1.0745  0.2617
  756MOL0     C99664   4.232   3.223   1.462 -0.1652 -0.0640  0.0709
  756MOL0     C99665   4.312   3.216   1.344 -0.4375  0.8449 -1.0375
  756MOL0     C99666   4.280   3.129   1.236  0.4337 -0.5715 -0.4410
  756MOL0     C99667   4.169   3.046   1.254 -0.1645 -0.3234 -0.1545
  756MOL0     O99668   4.142   2.964   1.149 -0.2221 -0.7692  0.3413
  756MOL0     C99669   4.153   2.828   1.159  0.4959  0.3809  0.5138
  756MOL0     C99670   4.069   2.761   1.039 -1.2012  0.1566 -0.6080
  756MOL0     C99671   4.096   2.833   0.905  0.5799 -0.1702 -0.6649
  756MOL0     C99672   3.991   2.782   0.802 -0.5628 -0.3858 -0.3396
  756MOL0     C99673   3.997   2.641   0.773 -0.6190  0.4840  0.5456
  756MOL0     C99674   4.097   2.608   0.663 -0.5140  0.4404 -0.2265
  756MOL0     C99675   4.084   2.469   0.593 -0.3391  0.4776 -0.8194
  756MOL0     C99676   4.222   2.427   0.523 -0.7187  0.2283  0.6080
  756MOL0     N99677   4.278   2.514   0.416 -1.0951 -0.0408 -1.1193
  756MOL0     C99678   4.411   2.536   0.394 -0.5528 -0.1839 -0.2801
  756MOL0     C99679   4.426   2.614   0.288 -0.3755  0.4352 -0.2499
  756MOL0     C99680   4.553   2.667   0.213  0.1455  0.3122  0.0489
  756MOL0     C99681   4.585   2.586   0.092 -0.0883 -0.3901 -0.1869
  756MOL0     C99682   4.477   2.551  -0.011  0.2502 -0.0156 -0.3107
  756MOL0     C99683   4.399   2.663  -0.066  0.2033 -0.7672 -0.5000
  756MOL0     O99684   4.494   2.769  -0.110  0.4739 -0.6437 -0.1852
  756MOL0     C99685   4.477   2.834  -0.222  0.0323 -0.5291  0.6100
  756MOL0     C99686   4.353   2.842  -0.301 -0.4597  0.7729 -0.7693
  756MOL0     C99687   4.348   2.924  -0.416  0.4295 -0.1965  0.5169
  756MOL0     C99688   4.451   3.015  -0.431  0.8531 -0.2466  0.2838
  756MOL0     C99689   4.453   3.125  -0.537  0.3046 -0.2516 -0.1688
  756MOL0     O99690   4.328   3.158  -0.578 -0.6274  0.8724  0.0555
  756MOL0     C99691   4.318   3.227  -0.693 -0.3931  0.3962 -0.9784
  756MOL0     C99692   4.252   3.346  -0.700  0.1393 -0.2105  0.1552
  756MOL0     C99693   4.244   3.432  -0.820  0.8698 -0.7347 -0.0264
  756MOL0     C99694   4.298   3.385  -0.947 -0.4550  0.6180 -0.3744
  756MOL0     O99695   4.277   3.457  -1.064  0.0638  0.2054  0.2589
  756MOL0     C99696   4.374   3.422  -1.169  0.4353 -0.0308 -1.3377
  756MOL0     C99697   4.379   3.546  -1.271 -0.5546 -0.5446  0.0194
  756MOL0     C99698   4.436   3.504  -1.410 -0.4481  0.3431 -0.0154
  756MOL0     C99699   4.383   3.582  -1.525 -0.2174  0.0657 -0.5171
  756MOL0     C99700   4.447   3.529  -1.652 -0.0221 -0.0219  0.2978
  756MOL0     C99701   4.365   3.587  -1.765 -0.7918 -0.3245 -0.5226
  756MOL0     C99702   4.442   3.587  -1.900 -0.3798  0.8819  0.5034
  756MOL0     C99703   4.475   3.448  -1.952 -1.1247  0.6325  0.7703
  756MOL0    Cl99704   4.325   3.343  -1.954 -0.4372 -0.0939 -0.0949
  756MOL0     C99705   4.356   3.252  -0.941 -0.1042 -0.8783 -0.4450
  756MOL0     C99706   4.373   3.180  -0.818 -0.7733 -0.1076 -0.0264
  756MOL0     O99707   4.563   3.168  -0.583  0.7911 -0.6008 -0.2146
  756MOL0     C99708   4.559   3.009  -0.352 -0.4216  0.9795 -0.6155
  756MOL0     C99709   4.578   2.918  -0.246  0.4741 -0.0243  0.1121
  756MOL0     N99710   4.293   2.655   0.256 -0.1388 -0.0085 -0.5484
  756MOL0     N99711   4.211   2.582   0.326  0.1713 -0.4990 -0.4340
  756MOL0     C99712   4.091   3.049   1.371  0.2158  0.0640  1.0785
  756MOL0     C99713   4.121   3.143   1.469  0.2737 -0.0477 -0.2699
  756MOL0     C99714   4.310   3.546   1.623 -0.1480 -1.2816 -0.5665
  756MOL0     C99715   4.305   3.516   1.764  0.4331 -0.3410  0.1336
  756MOL0     C99716   4.361   3.598   1.861  0.0846  0.0413  0.8527
  756MOL0     C99717   4.420   3.713   1.820 -0.1487  0.4511 -0.6889
  756MOL0     O99718   4.486   3.785   1.914 -0.2383  0.6344  0.5185
  756MOL0     C99719   4.527   3.923   1.883 -0.4915 -0.0005 -0.6568
  756MOL0     C99720   4.572   3.999   2.003  0.2986  0.2639 -0.1426
  756MOL0     C99721   4.696   3.929   2.066 -0.3777 -0.2947 -0.7495
  756MOL0     C99722   4.798   4.030   2.127  0.4488 -1.1250  0.9956
  756MOL0     C99723   4.736   4.108   2.229  0.6596 -0.1491 -0.0705
  756MOL0     C99724   4.684   4.171   2.317 -0.7333 -0.5078  0.0034
  756MOL0     C99725   4.426   3.754   1.684  1.0179 -0.3261  0.4210
  756MOL0     C99726   4.372   3.672   1.584  0.0412  0.7305  0.2493
  756MOL0     H99727   4.395   3.285   1.335  0.6882  0.1985  2.7582
  756MOL0     H99728   4.329   3.139   1.140 -2.2331 -0.8111 -1.9372
  756MOL0     H99729   4.104   2.804   1.255 -2.3991 -1.9381 -1.3576
  756MOL0     H99730   4.256   2.794   1.147  0.8107  1.8137 -1.1238
  756MOL0     H99731   3.963   2.767   1.064 -0.7882  0.5975  1.1679
  756MOL0     H99732   4.089   2.655   1.020 -0.8474 -0.2983  1.9424
  756MOL0     H99733   4.198   2.811   0.870  0.3811 -3.4323  0.4328
  756MOL0     H99734   4.075   2.939   0.920  1.6352 -0.2522  1.9380
  756MOL0     H99735   3.889   2.796   0.839 -0.3428 -1.8747  0.9728
  756MOL0     H99736   4.011   2.834   0.708 -1.0241 -1.3859 -1.0089
  756MOL0     H99737   3.896   2.616   0.738  0.5776  0.5092 -3.2986
  756MOL0     H99738   4.008   2.574   0.859 -0.7310 -0.1398  0.0827
  756MOL0     H99739   4.193   2.613   0.715 -0.3991  1.4028 -0.5019
  756MOL0     H99740   4.083   2.687   0.589 -3.1346  0.4711  0.1965
  756MOL0     H99741   4.044   2.392   0.660 -2.2975  1.7155 -0.4702
  756MOL0     H99742   4.010   2.492   0.516 -2.0392  1.8521  1.1137
  756MOL0     H99743   4.203   2.326   0.486  1.5526 -1.3769  3.3636
  756MOL0     H99744   4.304   2.413   0.595 -0.4436  0.1568  0.2823
  756MOL0     H99745   4.498   2.504   0.451  1.3081  0.4434 -2.6107
  756MOL0     H99746   4.634   2.684   0.286  2.2530  2.5130 -2.5867
  756MOL0     H99747   4.523   2.757   0.159  1.2712 -0.4991 -2.0117
  756MOL0     H99748   4.614   2.486   0.125  1.3291  0.0401 -0.0547
  756MOL0     H99749   4.671   2.623   0.035 -1.5393  0.9019 -1.6390
  756MOL0     H99750   4.515   2.507  -0.104  1.4905 -1.5449  0.8565
  756MOL0     H99751   4.411   2.476   0.033 -0.6765  1.1057  0.2371
  756MOL0     H99752   4.331   2.704   0.010 -1.3458  2.6706 -3.4399
  756MOL0     H99753   4.327   2.634  -0.142 -3.4145  2.2635  1.3916
  756MOL0     H99754   4.272   2.776  -0.270  0.6531 -1.0477 -1.6353
  756MOL0     H99755   4.251   2.930  -0.466 -0.4173 -0.0177  2.1187
  756MOL0     H99756   4.213   3.376  -0.603 -0.3853  0.6632 -0.3128
  756MOL0     H99757   4.194   3.527  -0.808 -0.0185 -1.2002 -0.0102
  756MOL0     H99758   4.346   3.334  -1.229  1.0242  0.7489 -2.8063
  756MOL0     H99759   4.475   3.409  -1.128  1.8359 -1.9717 -4.8955
  756MOL0     H99760   4.438   3.625  -1.224 -0.0599 -0.0229 -1.4402
  756MOL0     H99761   4.277   3.583  -1.286  0.3773  2.6164  0.8226
  756MOL0     H99762   4.398   3.403  -1.426  2.1993 -0.8302  0.5302
  756MOL0     H99763   4.545   3.511  -1.412 -0.3527  0.2549  2.0972
  756MOL0     H99764   4.274   3.585  -1.525 -0.2169  2.2431  0.3587
  756MOL0     H99765   4.410   3.686  -1.503  0.6397 -0.3915  0.7134
  756MOL0     H99766   4.458   3.421  -1.666  2.0628  0.0592  1.0095
  756MOL0     H99767   4.548   3.572  -1.649 -0.1821  0.3609  0.2893
  756MOL0     H99768   4.336   3.686  -1.729 -0.7965 -1.7936  4.1481
  756MOL0     H99769   4.266   3.541  -1.780 -0.7917 -0.7110  0.5837
  756MOL0     H99770   4.370   3.632  -1.969 -0.5222 -0.2536 -0.1210
  756MOL0     H99771   4.534   3.643  -1.887  1.3704 -1.6915 -0.0072
  756MOL0     H99772   4.559   3.409  -1.894 -0.7248 -1.6285 -1.1637
  756MOL0     H99773   4.510   3.446  -2.055  1.6323 -1.1526  1.6404
  756MOL0     H99774   4.394   3.220  -1.037  2.6869  1.5855 -0.3192
  756MOL0     H99775   4.428   3.087  -0.824 -0.7114 -0.0615 -0.1912
  756MOL0     H99776   4.645   3.074  -0.362 -0.5743  1.0038 -1.9739
  756MOL0     H99777   4.664   2.928  -0.181  1.0610  1.0160 -0.7829
  756MOL0     H99778   3.997   2.994   1.361  0.7507 -0.4614 -3.2388
  756MOL0     H99779   4.056   3.152   1.556  1.2332  1.4098  0.3527
  756MOL0     H99780   4.258   3.421   1.790  4.6518 -3.1479 -1.3707
  756MOL0     H99781   4.360   3.580   1.968  0.1171  4.5176  1.7914
  756MOL0     H99782   4.448   3.978   1.832 -1.0963 -1.5260 -1.4495
  756MOL0     H99783   4.621   3.928   1.828  1.6832  3.2842  2.8544
  756MOL0     H99784   4.596   4.099   1.967 -0.7989  1.9338  3.3847
  756MOL0     H99785   4.490   4.008   2.075  0.3684  1.2515 -0.1729
  756MOL0     H99786   4.750   3.863   1.997  0.7352 -1.7864  1.4131
  756MOL0     H99787   4.663   3.869   2.152  1.2072  0.5554  0.5204
  756MOL0     H99788   4.871   3.968   2.180  1.0595  1.2565  3.1092
  756MOL0     H99789   4.859   4.089   2.058  1.2408 -1.1929  1.6160
  756MOL0     H99790   4.638   4.246   2.379  2.2433  1.7665 -0.2933
  756MOL0     H99791   4.481   3.837   1.639  0.9973 -1.2249 -1.3765
  756MOL0     H99792   4.377   3.703   1.480 -0.3499  1.8473  0.5474
  757MOL0     O99793  10.149   6.527   2.798 -0.0619  0.1100 -0.6570
  757MOL0     C99794  10.239   6.454   2.809 -0.3957  0.6135 -0.8945
  757MOL0     O99795  10.323   6.436   2.917  0.3879  0.0994  0.2711
  757MOL0     C99796  10.328   6.528   3.016  0.4368  0.7026  0.9173
  757MOL0     C99797  10.397   6.643   3.008  0.8562  0.2035  0.6613
  757MOL0     C99798  10.400   6.743   3.103  0.6628 -0.1568  0.1248
  757MOL0     C99799  10.326   6.722   3.218 -0.5622  0.4692  0.5556
  757MOL0     O99800  10.291   6.821   3.311  0.3900  0.0849 -0.4438
  757MOL0     C99801  10.390   6.876   3.401 -0.1458  0.4800  1.0412
  757MOL0     C99802  10.443   6.773   3.498  0.1134 -0.6252  0.0467
  757MOL0     C99803  10.582   6.811   3.541  0.4208  0.1247 -0.1852
  757MOL0     C99804  10.658   6.716   3.636  0.6514  0.0677 -0.8159
  757MOL0     C99805  10.682   6.571   3.580 -0.0565 -0.1059  0.3630
  757MOL0     C99806  10.770   6.485   3.665 -0.0774 -0.3534 -0.2009
  757MOL0     C99807  10.854   6.379   3.581  0.6390  0.0147  0.2785
  757MOL0     C99808  10.773   6.322   3.466 -0.3232  0.3311 -0.1011
  757MOL0     N99809  10.805   6.182   3.449  0.1032  0.3471 -0.4944
  757MOL0     C99810  10.878   6.129   3.341  0.5130 -1.0070 -0.9621
  757MOL0     C99811  10.869   5.993   3.358 -0.0828 -0.3654 -0.7875
  757MOL0     C99812  10.955   5.891   3.286  0.0903 -0.1547 -0.0476
  757MOL0     C99813  11.001   5.785   3.385  0.1151  0.7135  0.7862
  757MOL0     C99814  11.080   5.830   3.502  1.1576  0.6478 -0.7081
  757MOL0     C99815  11.227   5.805   3.477  0.2786  0.0910 -0.4473
  757MOL0     O99816  11.295   5.841   3.594  0.2279  0.0234  0.2280
  757MOL0     C99817  11.302   5.745   3.696 -0.3654 -0.3526 -0.6842
  757MOL0     C99818  11.392   5.644   3.675 -0.8158  0.7022  0.3199
  757MOL0     C99819  11.431   5.562   3.773  0.0470 -0.8883 -0.2972
  757MOL0     C99820  11.385   5.574   3.905  0.0523  0.2742 -0.2296
  757MOL0     C99821  11.425   5.475   4.009  0.3536  1.2146  0.2563
  757MOL0     O99822  11.449   5.350   3.965  1.0130  0.1086 -0.0974
  757MOL0     C99823  11.507   5.257   4.055 -1.2447  0.0424  0.4588
  757MOL0     C99824  11.538   5.269   4.190 -0.4229  0.6351  0.6512
  757MOL0     C99825  11.597   5.156   4.259  0.0448 -0.0169 -0.3003
  757MOL0     C99826  11.618   5.033   4.197  0.8345 -0.8022 -0.6490
  757MOL0     O99827  11.643   4.919   4.269 -0.6178  0.2051  0.2875
  757MOL0     C99828  11.664   4.793   4.198 -1.0507 -0.2495  0.2398
  757MOL0     C99829  11.681   4.679   4.301 -0.7348  0.1487  0.6349
  757MOL0     C99830  11.839   4.674   4.318 -0.3192  0.1013  0.3002
  757MOL0     C99831  11.895   4.586   4.431  0.6379 -0.9354  0.5827
  757MOL0     C99832  11.862   4.429   4.427  0.5913  0.2314  0.2299
  757MOL0     C99833  11.903   4.355   4.295  0.0985  0.3855  0.5019
  757MOL0     C99834  11.900   4.202   4.310 -0.2611 -0.8656  0.5753
  757MOL0     C99835  11.758   4.142   4.327 -1.2824 -0.1973  0.5309
  757MOL0    Cl99836  11.633   4.243   4.264  0.3987 -0.4331 -0.2207
  757MOL0     C99837  11.597   5.033   4.053  0.0538  0.9359  0.0636
  757MOL0     C99838  11.551   5.148   3.988  0.3792 -0.3331  1.0094
  757MOL0     O99839  11.448   5.516   4.117  0.1722 -0.5040  0.3109
  757MOL0     C99840  11.290   5.671   3.932  0.4811 -0.6396  0.5399
  757MOL0     C99841  11.247   5.760   3.829 -0.4275 -0.0146  1.0899
  757MOL0     N99842  10.777   5.963   3.457 -0.4071 -0.1519 -0.5784
  757MOL0     N99843  10.741   6.083   3.504  0.1144 -0.4379 -0.4761
  757MOL0     C99844  10.250   6.603   3.228 -0.8194  0.7475 -0.4698
  757MOL0     C99845  10.255   6.504   3.134 -0.4329  0.4442  0.6389
  757MOL0     C99846  10.273   6.363   2.698  0.0249  0.4500 -0.6717
  757MOL0     C99847  10.246   6.401   2.561 -0.0939  0.0960  0.5211
  757MOL0     C99848  10.258   6.302   2.458 -0.2161 -0.5135  0.7280
  757MOL0     C99849  10.305   6.171   2.486 -0.7718 -0.0567 -0.5241
  757MOL0     O99850  10.331   6.065   2.400  0.1740 -0.0386 -0.1563
  757MOL0     C99851  10.275   6.066   2.272 -1.1553 -0.0828 -0.3610
  757MOL0     C99852  10.240   5.919   2.241  0.3903  0.9054  0.1794
  757MOL0     C99853  10.207   5.908   2.098  0.5838  0.1792  0.5370
  757MOL0     C99854  10.144   5.778   2.051  0.0127 -0.1153 -0.2203
  757MOL0     C99855  10.100   5.759   1.911  0.0008 -0.2017  0.5769
  757MOL0     C99856  10.070   5.746   1.799  0.2224  0.7513  0.1804
  757MOL0     C99857  10.360   6.148   2.618 -0.8542  0.1057 -0.3658
  757MOL0     C99858  10.338   6.244   2.717  0.2557 -0.1047  0.3166
  757MOL0     H99859  10.472   6.649   2.929 -0.5751  0.1308 -0.7545
  757MOL0     H99860  10.459   6.831   3.081  0.3307 -0.3731 -1.7709
  757MOL0     H99861  10.352   6.955   3.466 -0.6072  0.2181  1.0906
  757MOL0     H99862  10.477   6.920   3.351 -0.8838 -1.7307 -2.6130
  757MOL0     H99863  10.443   6.669   3.462 -1.2707  0.1739 -2.5246
  757MOL0     H99864  10.378   6.776   3.586  1.0806 -2.5036  0.8836
  757MOL0     H99865  10.581   6.908   3.591  1.2413 -0.3164  0.7190
  757MOL0     H99866  10.650   6.818   3.456  1.9521  2.8424  1.1341
  757MOL0     H99867  10.759   6.752   3.657  1.3820 -1.1317 -2.1153
  757MOL0     H99868  10.604   6.721   3.731  2.0718 -0.8278  0.0651
  757MOL0     H99869  10.709   6.586   3.475 -0.4888  0.9366  0.3875
  757MOL0     H99870  10.585   6.521   3.574  0.3530 -0.7759 -1.2597
  757MOL0     H99871  10.721   6.440   3.752 -0.3496  1.4993  0.6539
  757MOL0     H99872  10.849   6.541   3.716  2.3367 -1.9072 -2.0071
  757MOL0     H99873  10.953   6.409   3.544  0.3654 -1.4928 -1.8424
  757MOL0     H99874  10.890   6.310   3.658 -0.8238  0.5213  1.4733
  757MOL0     H99875  10.799   6.372   3.372  1.2223 -0.2694 -0.0178
  757MOL0     H99876  10.668   6.326   3.497  0.1569 -0.2474  1.6941
  757MOL0     H99877  10.952   6.175   3.276 -1.3916 -0.7863 -3.1157
  757MOL0     H99878  11.043   5.940   3.245 -0.2995  0.6383  0.0582
  757MOL0     H99879  10.895   5.842   3.209 -1.6293 -1.1711  1.8403
  757MOL0     H99880  11.052   5.699   3.338 -2.6673 -0.0377 -1.1569
  757MOL0     H99881  10.911   5.740   3.428 -1.2369  1.4091 -1.1822
  757MOL0     H99882  11.052   5.934   3.522 -2.7068 -0.5658  0.9800
  757MOL0     H99883  11.055   5.771   3.591  4.3742  1.2521  0.7316
  757MOL0     H99884  11.278   5.848   3.391  0.7002  1.4457  0.4476
  757MOL0     H99885  11.238   5.696   3.466  2.8268 -0.5487  4.9575
  757MOL0     H99886  11.445   5.646   3.581 -0.3177 -1.8574  0.4977
  757MOL0     H99887  11.502   5.485   3.745  1.9637  1.2999 -1.7666
  757MOL0     H99888  11.502   5.344   4.259 -1.8477 -0.4835  1.1834
  757MOL0     H99889  11.591   5.152   4.367 -4.3432 -2.8088 -0.3848
  757MOL0     H99890  11.748   4.803   4.129 -1.2138  2.7168  0.3501
  757MOL0     H99891  11.579   4.764   4.136 -0.6079 -0.9152 -0.0636
  757MOL0     H99892  11.639   4.585   4.265 -3.6011  2.3384 -2.3701
  757MOL0     H99893  11.628   4.702   4.394 -0.3665  2.0494  0.4122
  757MOL0     H99894  11.861   4.780   4.335  0.2616  0.0242  0.0694
  757MOL0     H99895  11.881   4.638   4.224 -1.2622 -1.1278  0.3352
  757MOL0     H99896  12.002   4.596   4.450  0.1497 -0.1666  3.4016
  757MOL0     H99897  11.859   4.626   4.527  2.6630 -0.2473  1.1084
  757MOL0     H99898  11.757   4.405   4.443  0.4972 -0.1596 -0.9130
  757MOL0     H99899  11.913   4.391   4.516  0.8060 -0.5926 -0.2283
  757MOL0     H99900  12.005   4.383   4.267 -1.0147  1.0051 -3.6450
  757MOL0     H99901  11.837   4.390   4.215  1.5852 -0.6285 -1.2271
  757MOL0     H99902  11.950   4.152   4.227 -0.9131  0.7812 -0.8702
  757MOL0     H99903  11.960   4.173   4.397 -3.4351 -2.9644  2.3025
  757MOL0     H99904  11.742   4.115   4.431  0.5512 -2.6644  0.2671
  757MOL0     H99905  11.766   4.049   4.270  0.8119  0.9960 -1.2902
  757MOL0     H99906  11.618   4.947   3.990 -0.1284 -0.5458  1.9457
  757MOL0     H99907  11.543   5.143   3.880 -0.8023  3.3422  0.7728
  757MOL0     H99908  11.249   5.684   4.032 -2.2502 -1.0239 -0.4432
  757MOL0     H99909  11.183   5.847   3.843 -2.1132 -1.4529  2.7480
  757MOL0     H99910  10.186   6.599   3.315 -3.9154  4.0410 -2.3401
  757MOL0     H99911  10.195   6.413   3.144  1.0717 -0.9005 -1.6221
  757MOL0     H99912  10.200   6.498   2.542 -3.1881 -1.0911  1.2491
  757MOL0     H99913  10.211   6.310   2.360 -0.2238 -1.5132  0.6373
  757MOL0     H99914  10.344   6.112   2.200 -0.7002  3.8576  2.2509
  757MOL0     H99915  10.182   6.125   2.276  0.3596  2.4608 -0.3404
  757MOL0     H99916  10.310   5.845   2.280  0.9888  0.7900 -1.0608
  757MOL0     H99917  10.144   5.898   2.289  0.0144 -0.7406 -1.1692
  757MOL0     H99918  10.288   5.934   2.030  0.7447  0.9565  1.0142
  757MOL0     H99919  10.141   5.992   2.073  1.2344  0.9808  1.4776
  757MOL0     H99920  10.222   5.704   2.073  1.1502  0.4939 -2.0451
  757MOL0     H99921  10.063   5.768   2.125  0.2600  1.5319  0.3147
  757MOL0     H99922  10.036   5.735   1.698  2.4759  3.4581 -1.0259
  757MOL0     H99923  10.420   6.061   2.644  0.1484  0.7669 -0.3890
  757MOL0     H99924  10.383   6.220   2.812 -0.6474 -0.1432  0.7474
  758MOL0     O99925   1.508   6.461   3.721  0.2548 -0.8142 -0.2213
  758MOL0     C99926   1.590   6.404   3.789  0.8627  0.1315  1.2145
  758MOL0     O99927   1.589   6.269   3.802 -0.3180  0.3664 -0.6277
  758MOL0     C99928   1.509   6.183   3.732 -1.4364  0.2829  0.4138
  758MOL0     C99929   1.550   6.050   3.738  0.9865  0.4434 -0.2093
  758MOL0     C99930   1.494   5.948   3.659  0.1997  0.1752  0.0160
  758MOL0     C99931   1.380   5.970   3.584 -0.3441 -0.6241  0.2638
  758MOL0     O99932   1.323   5.866   3.529  0.6065 -0.9551 -0.2692
  758MOL0     C99933   1.307   5.874   3.386 -0.4887 -0.0119 -0.4411
  758MOL0     C99934   1.230   5.750   3.334  0.8197  0.0598 -0.3122
  758MOL0     C99935   1.231   5.725   3.183 -0.3390  0.4923 -0.5734
  758MOL0     C99936   1.370   5.724   3.130 -0.1525  0.2474 -0.2575
  758MOL0     C99937   1.364   5.681   2.984 -0.6931  0.1728 -1.4317
  758MOL0     C99938   1.495   5.655   2.903  0.2752 -0.8736  0.0297
  758MOL0     C99939   1.462   5.567   2.792 -0.5886 -0.2253 -0.5316
  758MOL0     C99940   1.572   5.562   2.693  0.0856  0.4857  0.0865
  758MOL0     N99941   1.705   5.522   2.738  0.9422 -0.1339 -0.7834
  758MOL0     C99942   1.755   5.389   2.708 -0.1752 -0.0483 -0.5788
  758MOL0     C99943   1.881   5.381   2.766  0.7575  0.0434 -0.1810
  758MOL0     C99944   1.981   5.265   2.753 -0.2905 -0.6843  0.1187
  758MOL0     C99945   2.132   5.313   2.737  0.3836  0.8457  0.6308
  758MOL0     C99946   2.233   5.198   2.711 -0.2569  1.0297  0.4981
  758MOL0     C99947   2.372   5.246   2.694  0.1705 -0.2486 -0.5445
  758MOL0     O99948   2.466   5.140   2.658  0.3713 -0.1598 -0.5074
  758MOL0     C99949   2.501   5.042   2.756  1.0740 -0.3691 -0.0487
  758MOL0     C99950   2.565   4.930   2.711 -1.3509 -0.0918 -0.0343
  758MOL0     C99951   2.592   4.821   2.793 -0.6789  1.5273  0.0932
  758MOL0     C99952   2.541   4.817   2.928  0.6413 -0.1204 -0.5679
  758MOL0     C99953   2.560   4.691   2.998 -1.0555  0.9402  0.2031
  758MOL0     O99954   2.502   4.680   3.128 -0.3165  0.8270  0.0799
  758MOL0     C99955   2.522   4.564   3.201  0.6466 -0.3590  0.6239
  758MOL0     C99956   2.409   4.494   3.247  0.7346 -0.3220  0.7401
  758MOL0     C99957   2.427   4.386   3.334 -0.8933  0.6677 -0.5361
  758MOL0     C99958   2.554   4.340   3.365 -0.5379  1.1427 -0.4984
  758MOL0     O99959   2.551   4.224   3.435 -1.0333  0.4582 -0.0857
  758MOL0     C99960   2.653   4.125   3.398  0.3919 -0.4756 -0.0452
  758MOL0     C99961   2.591   4.003   3.447  0.1627  0.4704 -0.1749
  758MOL0     C99962   2.669   3.879   3.407  0.1696 -0.5804 -0.2746
  758MOL0     C99963   2.587   3.752   3.419  0.3862  0.0041  0.4038
  758MOL0     C99964   2.668   3.642   3.365  0.4399 -0.0022 -1.3159
  758MOL0     C99965   2.661   3.644   3.203  0.2568  0.0455  0.6431
  758MOL0     C99966   2.530   3.690   3.144  0.0405  0.0562  0.7632
  758MOL0     C99967   2.530   3.668   2.989 -0.3768 -0.6940 -0.1519
  758MOL0    Cl99968   2.561   3.500   2.944  0.3998  0.2130  0.0517
  758MOL0     C99969   2.673   4.399   3.313  0.2418 -0.4922 -0.8756
  758MOL0     C99970   2.655   4.521   3.246 -0.1695 -0.5693 -0.1863
  758MOL0     O99971   2.613   4.600   2.936 -0.8413  0.3783 -0.4205
  758MOL0     C99972   2.476   4.930   2.979  0.3431  1.1118 -0.1542
  758MOL0     C99973   2.461   5.047   2.898  0.2016  0.5139 -1.1381
  758MOL0     N99974   1.903   5.504   2.832  0.0741 -0.3247 -0.8621
  758MOL0     N99975   1.804   5.585   2.801  0.6358  0.3408 -0.5903
  758MOL0     C99976   1.337   6.101   3.576 -0.2613 -0.5084  1.2453
  758MOL0     C99977   1.400   6.203   3.650  1.1281  0.8439  0.5319
  758MOL0     C99978   1.687   6.484   3.877 -0.2180 -0.2604  0.1883
  758MOL0     C99979   1.802   6.428   3.946  0.1127  1.1175  0.3037
  758MOL0     C99980   1.895   6.507   4.005 -0.4781  0.0630 -0.2830
  758MOL0     C99981   1.886   6.645   4.015  0.0567 -0.0814 -0.0616
  758MOL0     O99982   1.989   6.707   4.069 -0.1566 -0.1313  0.2301
  758MOL0     C99983   1.956   6.823   4.142 -0.2296  0.0428 -0.5046
  758MOL0     C99984   2.010   6.936   4.056  1.7701 -0.0321  0.0678
  758MOL0     C99985   2.024   7.062   4.145 -0.2754 -0.3610 -0.4953
  758MOL0     C99986   2.074   7.183   4.073  0.2676 -0.3161 -0.6338
  758MOL0     C99987   1.974   7.224   3.967  0.0689 -0.0915  0.1298
  758MOL0     C99988   1.902   7.253   3.869 -0.7616 -1.0643  0.0135
  758MOL0     C99989   1.771   6.707   3.966  0.3642 -0.0262 -0.0271
  758MOL0     C99990   1.675   6.623   3.892  0.4183  0.8628 -0.5422
  758MOL0     H99991   1.638   6.022   3.795 -0.0750 -2.1077  0.2980
  758MOL0     H99992   1.521   5.843   3.666  0.8790  0.3582  0.2748
  758MOL0     H99993   1.410   5.878   3.350  1.0112  1.1792  3.4863
  758MOL0     H99994   1.255   5.967   3.362 -1.6054 -0.5475 -0.1815
  758MOL0     H99995   1.129   5.755   3.376  0.3018 -0.2392 -1.5001
  758MOL0     H99996   1.274   5.660   3.378  3.2655  1.0259 -0.6250
  758MOL0     H99997   1.180   5.807   3.132 -1.6433  2.8329  3.9679
  758MOL0     H99998   1.193   5.629   3.147  3.2384 -1.4054  0.2302
  758MOL0     H99999   1.411   5.825   3.129  2.9795 -0.9172 -1.4892
  758MOL0     H    0   1.428   5.660   3.198  1.3377  0.3680 -1.3599
  758MOL0     H    1   1.305   5.755   2.930 -1.8989 -0.1726 -0.6314
  758MOL0     H    2   1.315   5.583   2.980  0.7274 -0.5287 -3.5732
  758MOL0     H    3   1.575   5.604   2.956  1.1439 -0.0284 -0.4328
  758MOL0     H    4   1.543   5.749   2.875  3.5950 -2.4435 -0.0099
  758MOL0     H    5   1.458   5.466   2.835 -0.0879 -0.2233 -0.4683
  758MOL0     H    6   1.364   5.591   2.751 -1.1712 -1.3277  0.1863
  758MOL0     H    7   1.571   5.659   2.641 -3.1419  1.5079  1.7155
  758MOL0     H    8   1.555   5.480   2.622 -0.3587  0.3271  0.3717
  758MOL0     H    9   1.712   5.316   2.640  1.7413 -1.6899 -0.1268
  758MOL0     H   10   1.958   5.205   2.665 -0.8583  1.0605 -0.9676
  758MOL0     H   11   1.982   5.197   2.839  2.4678 -0.7261  0.1719
  758MOL0     H   12   2.152   5.374   2.825 -0.1703  0.4908  1.0065
  758MOL0     H   13   2.136   5.375   2.647 -0.1769 -1.3619 -1.0188
  758MOL0     H   14   2.223   5.133   2.798  2.1111 -0.4236 -0.2476
  758MOL0     H   15   2.204   5.148   2.618  3.3077 -0.6431  0.1458
  758MOL0     H   16   2.404   5.310   2.777  0.5250 -0.4317 -0.5385
  758MOL0     H   17   2.368   5.307   2.604 -0.1660  0.3453 -0.1401
  758MOL0     H   18   2.591   4.910   2.608  0.1562 -0.8448  0.4742
  758MOL0     H   19   2.649   4.736   2.757  0.1681  1.1866  2.0797
  758MOL0     H   20   2.314   4.528   3.206  1.3328 -2.6408 -3.0610
  758MOL0     H   21   2.342   4.332   3.373 -2.0963  3.7943  1.5473
  758MOL0     H   22   2.753   4.139   3.439 -0.0562  0.5484  0.7588
  758MOL0     H   23   2.668   4.118   3.290 -2.1056 -0.1827 -0.4812
  758MOL0     H   24   2.486   3.998   3.414 -1.1739 -1.1859  3.7125
  758MOL0     H   25   2.583   4.005   3.556 -1.2918  0.2131 -0.2455
  758MOL0     H   26   2.758   3.876   3.471  0.2026  4.7674  0.4211
  758MOL0     H   27   2.695   3.883   3.300  2.1871  0.7302  0.1941
  758MOL0     H   28   2.562   3.728   3.523  2.6202 -0.8543  0.7992
  758MOL0     H   29   2.489   3.753   3.371 -0.0797 -1.0549  1.2585
  758MOL0     H   30   2.621   3.556   3.414 -0.9697  0.9887 -0.8884
  758MOL0     H   31   2.772   3.653   3.396 -0.2112  0.0261  1.0123
  758MOL0     H   32   2.679   3.540   3.174 -5.5568 -1.9927  2.8908
  758MOL0     H   33   2.741   3.698   3.151  2.3093 -3.2759  0.0823
  758MOL0     H   34   2.445   3.642   3.195 -0.6194  2.0860  1.6698
  758MOL0     H   35   2.511   3.797   3.146 -2.5663 -0.2164 -1.7820
  758MOL0     H   36   2.607   3.724   2.936  0.9842 -1.7825  0.5842
  758MOL0     H   37   2.433   3.681   2.939  0.3257 -3.6807 -2.6344
  758MOL0     H   38   2.768   4.361   3.348  0.1169 -0.4175 -0.4465
  758MOL0     H   39   2.742   4.580   3.220  0.0112 -0.0426  1.4740
  758MOL0     H   40   2.436   4.934   3.080  0.7207  0.8955  0.0061
  758MOL0     H   41   2.412   5.127   2.952 -0.3247 -1.1679  1.0130
  758MOL0     H   42   1.250   6.138   3.524  0.1039  2.5338  2.6135
  758MOL0     H   43   1.339   6.292   3.656 -3.3052 -1.9675  1.3276
  758MOL0     H   44   1.802   6.322   3.968 -2.5582  0.6819 -1.2612
  758MOL0     H   45   1.980   6.459   4.052  0.6837  1.4862 -0.8436
  758MOL0     H   46   2.018   6.812   4.232  0.8602 -2.5994 -1.4809
  758MOL0     H   47   1.850   6.842   4.161  0.3876  3.4780  0.3457
  758MOL0     H   48   2.099   6.908   3.999  1.6182  0.4616 -0.4302
  758MOL0     H   49   1.924   6.960   3.991 -1.0510 -0.8842  3.2043
  758MOL0     H   50   2.096   7.052   4.227  1.0897  3.0486 -1.1243
  758MOL0     H   51   1.928   7.086   4.193 -0.7057 -2.5126 -0.1810
  758MOL0     H   52   2.088   7.271   4.137  3.9416 -0.1268 -1.4966
  758MOL0     H   53   2.168   7.167   4.019  1.2627  1.4228  0.4873
  758MOL0     H   54   1.843   7.269   3.781  0.8234  0.2184 -0.8848
  758MOL0     H   55   1.743   6.810   3.986  2.7072  0.4409  1.2359
  758MOL0     H   56   1.587   6.676   3.856 -1.1625  0.0439  1.8619
  759MOL0     O   57   5.811   7.745   8.135  0.5067 -0.6661  0.5175
  759MOL0     C   58   5.754   7.800   8.233 -0.3309 -0.5932  0.2556
  759MOL0     O   59   5.686   7.919   8.231  0.1442  0.2510 -0.3588
  759MOL0     C   60   5.676   7.975   8.109 -0.1091  0.2552  0.0993
  759MOL0     C   61   5.784   8.008   8.031  0.4039 -0.8599  0.5032
  759MOL0     C   62   5.764   8.077   7.910  0.3318 -0.3903 -0.3623
  759MOL0     C   63   5.634   8.100   7.871 -0.9416 -0.4723 -0.2306
  759MOL0     O   64   5.617   8.158   7.750  0.1240 -0.2819 -0.1206
  759MOL0     C   65   5.488   8.179   7.701  1.2959 -0.1976  0.6341
  759MOL0     C   66   5.499   8.256   7.573  0.9141  0.4064 -0.0432
  759MOL0     C   67   5.358   8.284   7.519  0.1785  1.3199  0.2022
  759MOL0     C   68   5.370   8.332   7.376  0.2742  0.1215  0.4970
  759MOL0     C   69   5.228   8.374   7.321 -0.5576  0.1391 -0.6692
  759MOL0     C   70   5.133   8.455   7.404 -0.5304  1.2037 -0.0014
  759MOL0     C   71   4.994   8.460   7.337  0.4267 -0.0442  0.4426
  759MOL0     C   72   4.927   8.326   7.350 -0.4714  1.1927  0.5085
  759MOL0     N   73   4.780   8.323   7.349 -0.5219 -0.0563 -0.3332
  759MOL0     C   74   4.705   8.354   7.248  0.8086 -0.5734  0.4789
  759MOL0     C   75   4.582   8.341   7.304 -0.1956 -0.6282  0.4180
  759MOL0     C   76   4.443   8.371   7.254  0.2795 -1.0647 -0.0603
  759MOL0     C   77   4.371   8.237   7.234  0.4083 -0.0183  0.1419
  759MOL0     C   78   4.248   8.263   7.135 -0.3416  0.5729 -0.2118
  759MOL0     C   79   4.194   8.143   7.087 -0.5648  0.6456  0.8498
  759MOL0     O   80   4.110   8.169   6.973 -0.1661 -0.2357 -0.6044
  759MOL0     C   81   4.007   8.085   6.937 -0.4420  0.4438 -0.6319
  759MOL0     C   82   3.922   8.154   6.852 -0.9610  0.3681  0.5934
  759MOL0     C   83   3.808   8.092   6.805  0.4826 -0.1257 -0.9547
  759MOL0     C   84   3.778   7.956   6.835 -0.6614  0.1863 -0.5138
  759MOL0     C   85   3.660   7.894   6.786  0.2751  0.6439 -0.4191
  759MOL0     O   86   3.581   7.965   6.698  0.2519 -0.0531  0.4678
  759MOL0     C   87   3.492   7.906   6.616  0.2267  0.4928  0.9088
  759MOL0     C   88   3.390   7.996   6.574 -0.2271 -0.1974 -0.5761
  759MOL0     C   89   3.284   7.960   6.504 -0.5779  0.2134 -0.6077
  759MOL0     C   90   3.272   7.827   6.450 -0.7269  0.6375  0.0575
  759MOL0     O   91   3.179   7.789   6.350  0.2828  0.2295 -1.0710
  759MOL0     C   92   3.033   7.789   6.389 -0.3597 -0.8679 -0.1550
  759MOL0     C   93   2.955   7.722   6.282 -0.7655  0.3824  0.2349
  759MOL0     C   94   2.807   7.681   6.321 -0.0919 -0.5784 -0.3559
  759MOL0     C   95   2.718   7.657   6.201  0.4755 -0.2037 -0.5484
  759MOL0     C   96   2.570   7.664   6.236  0.3893  0.2646  0.3562
  759MOL0     C   97   2.494   7.572   6.149  0.3764  0.2704 -0.0570
  759MOL0     C   98   2.352   7.612   6.153  1.5172 -0.2262  0.8196
  759MOL0     C   99   2.268   7.496   6.097  0.2436 -0.0464  0.5118
  759MOL0    Cl  100   2.254   7.366   6.208  0.0373  0.0522  0.3125
  759MOL0     C  101   3.374   7.733   6.479  0.4225  0.2187  0.6320
  759MOL0     C  102   3.487   7.771   6.560  0.2465  0.1099  0.6394
  759MOL0     O  103   3.630   7.784   6.835 -0.5228  0.0591  0.2705
  759MOL0     C  104   3.872   7.889   6.916  1.1045 -0.0028 -0.9918
  759MOL0     C  105   3.981   7.947   6.976 -0.5660 -0.0730  0.2958
  759MOL0     N  106   4.584   8.302   7.438  0.5268 -0.2705  0.7125
  759MOL0     N  107   4.705   8.304   7.467  0.4005 -0.0836  0.7239
  759MOL0     C  108   5.523   8.055   7.948 -0.1367 -0.1155 -0.0357
  759MOL0     C  109   5.541   7.987   8.067 -0.1636 -0.2158 -1.4679
  759MOL0     C  110   5.776   7.752   8.371  0.1345  0.3690  0.8206
  759MOL0     C  111   5.732   7.812   8.487  0.7106  0.8249  0.3063
  759MOL0     C  112   5.772   7.761   8.613 -0.0281  0.0749  0.8493
  759MOL0     C  113   5.849   7.648   8.624  0.2795 -0.4480 -0.0518
  759MOL0     O  114   5.890   7.610   8.748 -0.7308  0.7562 -0.2145
  759MOL0     C  115   5.791   7.536   8.820 -0.1076  0.0869 -0.0449
  759MOL0     C  116   5.848   7.441   8.917 -0.0916  0.2746  0.3323
  759MOL0     C  117   5.954   7.339   8.864  0.3082 -0.1888  0.5110
  759MOL0     C  118   5.958   7.222   8.958  0.1183 -0.7034  0.8927
  759MOL0     C  119   6.075   7.133   8.953  0.7990 -0.0418  0.1953
  759MOL0     C  120   6.154   7.045   8.933 -0.1228  0.8080  0.2684
  759MOL0     C  121   5.882   7.579   8.509 -0.3340  0.6865 -0.3536
  759MOL0     C  122   5.848   7.627   8.387  0.5228 -0.1563 -0.1312
  759MOL0     H  123   5.876   7.981   8.080 -0.7408  0.0385  3.3698
  759MOL0     H  124   5.845   8.111   7.847  1.7627  0.6478  1.8889
  759MOL0     H  125   5.437   8.247   7.770  0.0962 -0.9305  0.4873
  759MOL0     H  126   5.432   8.089   7.674 -2.6986  2.5231 -1.0811
  759MOL0     H  127   5.558   8.191   7.507  2.0098  0.2638  1.0207
  759MOL0     H  128   5.557   8.348   7.589  3.0474 -0.9882  0.8157
  759MOL0     H  129   5.314   8.360   7.584 -1.0581  0.3307  0.5535
  759MOL0     H  130   5.294   8.196   7.523  1.1907  0.6187  1.9689
  759MOL0     H  131   5.427   8.424   7.389  0.0564 -0.1291  4.9747
  759MOL0     H  132   5.422   8.263   7.309  1.7398 -1.7030  3.3087
  759MOL0     H  133   5.178   8.277   7.319 -3.4294  1.1867  4.0477
  759MOL0     H  134   5.244   8.424   7.225  2.4384  1.2801  0.3080
  759MOL0     H  135   5.178   8.555   7.406  1.1465  0.4769  0.3030
  759MOL0     H  136   5.124   8.420   7.507 -1.3714  1.5817  0.0588
  759MOL0     H  137   4.928   8.537   7.378 -1.5820 -3.0290  3.3210
  759MOL0     H  138   4.999   8.494   7.233 -0.0920 -2.6775 -0.5263
  759MOL0     H  139   4.957   8.262   7.433 -1.5255 -2.4807 -1.7057
  759MOL0     H  140   4.954   8.264   7.265 -0.3372  2.4763 -0.4069
  759MOL0     H  141   4.740   8.391   7.152  0.1244  2.9464  1.4406
  759MOL0     H  142   4.448   8.427   7.160 -0.2318 -3.9081 -1.9249
  759MOL0     H  143   4.396   8.427   7.335  3.4989  1.1239  0.4840
  759MOL0     H  144   4.320   8.208   7.326  0.3626  0.9296  0.4333
  759MOL0     H  145   4.436   8.156   7.201  0.0506 -0.7796  1.2326
  759MOL0     H  146   4.165   8.310   7.190 -0.7305 -0.2689 -0.0582
  759MOL0     H  147   4.278   8.327   7.052 -0.3207  0.3792 -0.3548
  759MOL0     H  148   4.131   8.104   7.168 -0.5268  0.7289  0.9196
  759MOL0     H  149   4.276   8.076   7.058 -0.8953 -1.0015  3.4310
  759MOL0     H  150   3.949   8.252   6.812  1.4913 -0.5346 -0.1629
  759MOL0     H  151   3.726   8.148   6.761 -3.1950 -2.4075  2.2818
  759MOL0     H  152   3.395   8.097   6.614  0.7475 -1.0518  1.5943
  759MOL0     H  153   3.205   8.027   6.472  0.4392  1.4251 -0.6532
  759MOL0     H  154   2.996   7.891   6.405  0.0133 -0.5356 -1.2631
  759MOL0     H  155   3.027   7.742   6.488  0.4264  2.5101  1.6423
  759MOL0     H  156   3.010   7.631   6.260 -0.9671  0.3682 -0.2280
  759MOL0     H  157   2.952   7.779   6.188 -0.8968  1.4079  0.8399
  759MOL0     H  158   2.782   7.772   6.377  2.8322 -0.9782  1.8245
  759MOL0     H  159   2.808   7.594   6.388  2.1938  0.5444  1.2237
  759MOL0     H  160   2.756   7.730   6.129  6.1231 -0.3701  1.7931
  759MOL0     H  161   2.738   7.567   6.142  2.1535 -0.1198 -0.1433
  759MOL0     H  162   2.537   7.767   6.219  1.3274  0.5751  0.3638
  759MOL0     H  163   2.539   7.635   6.336  0.7395 -2.1462 -0.1810
  759MOL0     H  164   2.512   7.472   6.189  0.5043  0.7121  1.0173
  759MOL0     H  165   2.524   7.581   6.044  0.8287 -1.9597 -0.1621
  759MOL0     H  166   2.317   7.620   6.257 -0.6786  0.5505  0.0569
  759MOL0     H  167   2.335   7.705   6.100 -7.4323 -1.8807 -0.7546
  759MOL0     H  168   2.315   7.459   6.005  1.3077  3.7908 -0.7272
  759MOL0     H  169   2.169   7.538   6.075  1.1576  0.9371 -2.0795
  759MOL0     H  170   3.373   7.639   6.425 -0.6247  0.1749  0.7069
  759MOL0     H  171   3.573   7.705   6.574 -1.2950 -2.4109 -0.9244
  759MOL0     H  172   3.867   7.783   6.940 -0.9659  0.5533  1.5747
  759MOL0     H  173   4.036   7.886   7.047 -2.4251 -1.1007  0.9214
  759MOL0     H  174   5.421   8.086   7.928  0.1807 -0.5306 -2.6226
  759MOL0     H  175   5.473   7.949   8.144 -0.2014  1.4336 -0.6418
  759MOL0     H  176   5.668   7.899   8.473  2.1319  1.8472 -0.0699
  759MOL0     H  177   5.755   7.831   8.694 -0.4115  0.4110  0.4850
  759MOL0     H  178   5.723   7.476   8.759 -1.5200 -0.7695  2.2724
  759MOL0     H  179   5.737   7.611   8.878  0.8014  1.2169 -0.6016
  759MOL0     H  180   5.903   7.511   8.982 -0.2846  1.0393 -0.3099
  759MOL0     H  181   5.767   7.391   8.971  0.8198 -2.2035 -0.4581
  759MOL0     H  182   6.055   7.383   8.866  0.6881 -0.5701 -3.2867
  759MOL0     H  183   5.947   7.320   8.757 -2.4105 -0.6024  0.6960
  759MOL0     H  184   5.941   7.258   9.060 -0.1769 -0.3486  0.7228
  759MOL0     H  185   5.870   7.158   8.951 -1.7957  1.6407  1.8850
  759MOL0     H  186   6.230   6.972   8.910  0.6133  1.0469  1.8485
  759MOL0     H  187   5.933   7.483   8.513 -1.7787 -0.0579  0.7523
  759MOL0     H  188   5.886   7.572   8.302 -0.0423  0.8701 -1.0730
  760MOL0     O  189   7.790   4.092   6.607 -0.2077  0.2523  0.8271
  760MOL0     C  190   7.690   4.165   6.607 -0.9038  0.1548 -0.1540
  760MOL0     O  191   7.692   4.299   6.569  0.8853  0.3912  0.4021
  760MOL0     C  192   7.806   4.369   6.543  0.8235 -0.9330  0.1830
  760MOL0     C  193   7.791   4.465   6.445 -0.0790 -0.1066 -0.3497
  760MOL0     C  194   7.896   4.549   6.410 -0.3588 -0.0013  0.4040
  760MOL0     C  195   8.019   4.542   6.484  1.2573 -0.0667  0.2650
  760MOL0     O  196   8.125   4.620   6.470 -0.5705 -0.2535  0.6720
  760MOL0     C  197   8.141   4.681   6.340 -0.9415  0.0394 -0.5367
  760MOL0     C  198   8.276   4.755   6.341 -0.3693 -0.2803  0.1114
  760MOL0     C  199   8.278   4.818   6.201 -0.5095  0.0041  0.2146
  760MOL0     C  200   8.415   4.865   6.150  0.3711 -0.2905  0.7971
  760MOL0     C  201   8.415   4.927   6.005 -1.3775  0.0237  0.6156
  760MOL0     C  202   8.553   4.995   5.981 -0.4631  0.4203  0.4929
  760MOL0     C  203   8.557   5.082   5.857 -0.4405 -0.2494  0.3945
  760MOL0     C  204   8.505   5.221   5.889 -0.6654 -0.0961  0.1691
  760MOL0     N  205   8.548   5.323   5.783  0.7825  0.5414  0.2184
  760MOL0     C  206   8.671   5.373   5.764 -0.0331  0.7410 -0.8471
  760MOL0     C  207   8.658   5.455   5.664 -0.4548  0.3141  1.0128
  760MOL0     C  208   8.760   5.545   5.600 -0.3555  0.2193  0.1072
  760MOL0     C  209   8.748   5.681   5.673  0.3320 -0.6555  0.2927
  760MOL0     C  210   8.798   5.688   5.812  1.2663  0.1864 -0.6125
  760MOL0     C  211   8.940   5.723   5.798 -0.5799 -0.3098  0.5168
  760MOL0     O  212   8.994   5.683   5.923 -0.3740 -0.5607 -0.7484
  760MOL0     C  213   9.126   5.683   5.936 -0.4902  0.2267  0.2968
  760MOL0     C  214   9.176   5.627   6.053  0.5329 -0.5739  0.2003
  760MOL0     C  215   9.312   5.623   6.076 -0.7261 -0.2698  0.1117
  760MOL0     C  216   9.408   5.671   5.982  0.1237  0.2496  0.4726
  760MOL0     C  217   9.557   5.660   6.020  0.5146 -0.7556  1.0762
  760MOL0     O  218   9.627   5.771   5.969 -0.2616  0.1130 -0.5566
  760MOL0     C  219   9.764   5.771   5.958 -0.2323  0.7905  0.5142
  760MOL0     C  220   9.835   5.650   5.936 -0.2310  0.1129  0.0084
  760MOL0     C  221   9.974   5.647   5.947  0.1826  0.6298  0.6713
  760MOL0     C  222  10.040   5.772   5.976 -0.1332 -0.0753 -0.7385
  760MOL0     O  223  10.175   5.787   5.988  0.0491  0.2885  0.1792
  760MOL0     C  224  10.249   5.680   6.056 -0.5420  0.4668 -0.2152
  760MOL0     C  225  10.326   5.743   6.167  0.8335 -0.2092  0.3450
  760MOL0     C  226  10.442   5.660   6.216  0.6005 -0.4833  0.6689
  760MOL0     C  227  10.551   5.753   6.259  0.3593 -0.5616 -0.4313
  760MOL0     C  228  10.652   5.700   6.348  0.9338 -0.0525  0.1582
  760MOL0     C  229  10.597   5.657   6.486  0.3586 -0.1451  0.7225
  760MOL0     C  230  10.709   5.609   6.571 -0.4314  0.5462  0.3378
  760MOL0     C  231  10.651   5.567   6.712 -0.2234  0.0658  1.0201
  760MOL0    Cl  232  10.794   5.503   6.799 -0.5891 -0.1083 -0.1312
  760MOL0     C  233   9.968   5.892   5.978 -0.5910 -0.1303  0.5065
  760MOL0     C  234   9.827   5.896   5.976 -0.6225 -0.2016 -0.0565
  760MOL0     O  235   9.594   5.580   6.099 -0.2081 -0.1960 -0.6409
  760MOL0     C  236   9.362   5.725   5.860 -0.7476 -0.0384  0.4210
  760MOL0     C  237   9.221   5.721   5.840 -0.0232 -0.2366  0.4774
  760MOL0     N  238   8.536   5.439   5.613  0.3558 -0.5935  0.1372
  760MOL0     N  239   8.472   5.365   5.688  0.6188  0.6868  0.5386
  760MOL0     C  240   8.029   4.437   6.573 -0.0353 -0.5239  0.0927
  760MOL0     C  241   7.926   4.346   6.600 -0.1528  0.3671 -0.2216
  760MOL0     C  242   7.563   4.107   6.652 -0.3839  0.2793 -0.3078
  760MOL0     C  243   7.459   4.196   6.676 -0.3022 -0.3032  0.5688
  760MOL0     C  244   7.332   4.137   6.718  0.3879 -0.0281 -0.2011
  760MOL0     C  245   7.306   4.001   6.748  0.5780  0.3094  0.9267
  760MOL0     O  246   7.185   3.960   6.806 -0.0169 -0.3852 -0.1117
  760MOL0     C  247   7.156   3.818   6.793  0.2365 -0.0821  0.2464
  760MOL0     C  248   7.113   3.775   6.648  0.0247  0.2125  0.0499
  760MOL0     C  249   6.967   3.821   6.618  0.1077 -0.4704  0.2125
  760MOL0     C  250   6.914   3.783   6.487 -0.5386  0.5607 -0.4971
  760MOL0     C  251   6.766   3.804   6.497  0.4320 -0.1002  0.4240
  760MOL0     C  252   6.644   3.820   6.510 -0.2177 -0.8306 -0.3428
  760MOL0     C  253   7.409   3.914   6.703  0.3130 -0.5342 -1.0212
  760MOL0     C  254   7.533   3.964   6.673  0.2525 -0.4783 -0.1270
  760MOL0     H  255   7.689   4.475   6.412 -0.9909 -1.9088  1.6934
  760MOL0     H  256   7.863   4.630   6.346  0.1507 -1.0156 -1.2018
  760MOL0     H  257   8.066   4.757   6.317  0.4887  1.6679 -0.0547
  760MOL0     H  258   8.153   4.605   6.262 -3.7199 -0.1246 -0.8873
  760MOL0     H  259   8.361   4.688   6.356  0.2762 -0.6027 -3.8686
  760MOL0     H  260   8.274   4.839   6.412  0.4808 -0.7744  0.7427
  760MOL0     H  261   8.202   4.897   6.202  0.2774  0.8267  2.9926
  760MOL0     H  262   8.240   4.748   6.126  1.7703 -0.1684 -0.8617
  760MOL0     H  263   8.452   4.936   6.224 -1.6977  2.9605 -1.0251
  760MOL0     H  264   8.480   4.778   6.158  1.4637  0.4096 -0.1144
  760MOL0     H  265   8.332   4.999   6.006 -1.0331  0.4236  1.0281
  760MOL0     H  266   8.394   4.859   5.923  1.8394  1.3141 -1.4716
  760MOL0     H  267   8.631   4.919   5.970 -1.6742 -0.7946  0.0143
  760MOL0     H  268   8.577   5.058   6.066  2.1967  0.3416 -0.1134
  760MOL0     H  269   8.661   5.096   5.828 -0.4654  2.4634  1.3620
  760MOL0     H  270   8.507   5.042   5.768  0.0999  2.7718 -1.3932
  760MOL0     H  271   8.561   5.246   5.980 -2.9241  0.5935  1.4568
  760MOL0     H  272   8.400   5.207   5.915 -0.4073 -1.1154  0.7245
  760MOL0     H  273   8.757   5.332   5.816 -0.6053 -1.6584 -1.6603
  760MOL0     H  274   8.737   5.564   5.495  2.7578 -0.8818 -0.8798
  760MOL0     H  275   8.865   5.514   5.600 -0.6475 -0.7828 -0.0036
  760MOL0     H  276   8.642   5.705   5.684 -0.0542 -3.2470  3.6896
  760MOL0     H  277   8.794   5.764   5.617 -0.0999 -0.7464 -0.2041
  760MOL0     H  278   8.740   5.772   5.851 -2.9679 -1.2818 -3.1382
  760MOL0     H  279   8.778   5.595   5.867  0.5864  0.2048 -0.8152
  760MOL0     H  280   8.964   5.827   5.773 -3.6641 -0.2439 -3.1387
  760MOL0     H  281   8.992   5.660   5.725  0.3134  0.0526  0.8167
  760MOL0     H  282   9.110   5.591   6.132 -0.0727 -1.4557 -0.6827
  760MOL0     H  283   9.353   5.584   6.169 -0.7237  0.0338  0.2411
  760MOL0     H  284   9.783   5.557   5.918  0.8028 -0.3363 -0.7808
  760MOL0     H  285  10.033   5.564   5.908  1.7295  1.5436  0.9626
  760MOL0     H  286  10.312   5.620   5.989 -2.2464 -0.5791 -0.9398
  760MOL0     H  287  10.179   5.615   6.109  0.9189 -0.8687  0.1466
  760MOL0     H  288  10.261   5.778   6.248 -0.1436 -1.5340  0.1658
  760MOL0     H  289  10.368   5.839   6.136  1.1634  0.8179  3.5845
  760MOL0     H  290  10.487   5.600   6.136  0.4816 -1.0556  1.0285
  760MOL0     H  291  10.405   5.582   6.282 -2.1003 -0.0227 -0.1898
  760MOL0     H  292  10.597   5.796   6.170 -2.0807 -2.8461 -2.9598
  760MOL0     H  293  10.489   5.832   6.302 -1.3428 -0.6495 -2.5981
  760MOL0     H  294  10.726   5.779   6.367  1.2775 -0.5316  0.8393
  760MOL0     H  295  10.705   5.617   6.301  1.0125 -1.1677  2.1547
  760MOL0     H  296  10.534   5.573   6.456  3.1748 -2.3211  0.4817
  760MOL0     H  297  10.545   5.741   6.534  1.1255  1.3349 -0.9108
  760MOL0     H  298  10.758   5.521   6.527 -1.4549 -0.7947  1.7771
  760MOL0     H  299  10.784   5.686   6.594  0.0341 -0.7806  3.8389
  760MOL0     H  300  10.583   5.488   6.682  0.1959  0.2377 -0.4573
  760MOL0     H  301  10.596   5.647   6.761  1.2683  1.7627  0.0544
  760MOL0     H  302  10.026   5.984   5.989 -1.2904  0.8858 -2.9421
  760MOL0     H  303   9.759   5.980   5.982  2.0540  2.4581 -2.9717
  760MOL0     H  304   9.429   5.760   5.782 -0.0508 -2.2354 -0.0181
  760MOL0     H  305   9.185   5.764   5.747 -0.6888  2.6187  1.9396
  760MOL0     H  306   8.132   4.431   6.607  0.8506  2.7211 -1.6593
  760MOL0     H  307   7.942   4.267   6.672  0.0806  0.7062  0.1004
  760MOL0     H  308   7.472   4.303   6.670 -0.3726 -0.3243  0.0191
  760MOL0     H  309   7.245   4.201   6.729 -1.0245 -1.8156 -0.5319
  760MOL0     H  310   7.075   3.793   6.863  0.0542 -0.5778 -0.1358
  760MOL0     H  311   7.236   3.749   6.822 -0.5488 -1.5349 -0.8926
  760MOL0     H  312   7.184   3.822   6.578 -1.5641  4.4243  0.9389
  760MOL0     H  313   7.129   3.667   6.643 -1.0887 -0.1614  2.8029
  760MOL0     H  314   6.958   3.930   6.632  4.0655  0.0711 -0.2352
  760MOL0     H  315   6.906   3.777   6.697 -1.6908 -1.1406 -1.4606
  760MOL0     H  316   6.949   3.827   6.394 -2.3111 -0.7114 -1.8332
  760MOL0     H  317   6.933   3.676   6.473  0.0102  0.7063 -0.9440
  760MOL0     H  318   6.539   3.813   6.529 -0.1741 -2.9324 -0.5496
  760MOL0     H  319   7.407   3.806   6.695 -1.5834 -0.4000 -3.5878
  760MOL0     H  320   7.616   3.898   6.653  0.5313 -1.0530  2.5256
  761MOL0     O  321   6.691   1.264  10.866  0.0584  0.3171 -0.0498
  761MOL0     C  322   6.643   1.270  10.757  1.3149 -0.4178  0.2786
  761MOL0     O  323   6.647   1.371  10.669  0.0766 -0.8063  0.3202
  761MOL0     C  324   6.727   1.478  10.696 -0.6888  0.0353  0.1540
  761MOL0     C  325   6.703   1.569  10.801 -0.6106 -0.4812 -0.3009
  761MOL0     C  326   6.795   1.678  10.821  0.8512 -0.4062 -0.0793
  761MOL0     C  327   6.900   1.686  10.742  0.3959  0.0447  1.2645
  761MOL0     O  328   6.961   1.811  10.763  0.6342  0.3989 -0.2762
  761MOL0     C  329   7.083   1.842  10.703  0.2171  0.0226  0.6203
  761MOL0     C  330   7.171   1.950  10.760 -0.7607  0.5975 -0.1719
  761MOL0     C  331   7.092   2.084  10.757  0.4329 -0.2814  0.0082
  761MOL0     C  332   7.187   2.184  10.813  0.5737 -1.2169  0.5268
  761MOL0     C  333   7.114   2.316  10.813 -0.2950 -0.3282 -0.4154
  761MOL0     C  334   7.210   2.439  10.844 -0.5908  0.9257  0.5581
  761MOL0     C  335   7.134   2.571  10.840 -0.1486  0.6065  0.3930
  761MOL0     C  336   7.081   2.601  10.705 -1.4532  0.8207  0.9065
  761MOL0     N  337   7.048   2.747  10.701 -0.1056  0.1617 -0.2020
  761MOL0     C  338   6.918   2.796  10.721  0.4275  0.1052 -0.3713
  761MOL0     C  339   6.919   2.917  10.669 -0.1920 -1.0489  0.9837
  761MOL0     C  340   6.800   3.007  10.657 -0.0205 -0.2263 -0.7846
  761MOL0     C  341   6.828   3.133  10.570  0.3601  0.1935  0.3371
  761MOL0     C  342   6.834   3.117  10.411  0.8037 -1.1884 -0.2725
  761MOL0     C  343   6.866   3.247  10.348  0.0628 -0.1451  0.1478
  761MOL0     O  344   6.848   3.240  10.205 -0.8055 -0.7653 -0.2778
  761MOL0     C  345   6.881   3.360  10.132  1.1886  1.5799  0.0945
  761MOL0     C  346   6.998   3.371  10.069 -0.3595  0.0718  0.5590
  761MOL0     C  347   7.035   3.485   9.994 -0.9267 -0.5852 -0.4665
  761MOL0     C  348   6.958   3.601  10.009  0.4184 -0.2830 -0.4134
  761MOL0     C  349   7.014   3.735   9.975 -1.4145  1.2635 -0.1737
  761MOL0     O  350   7.136   3.741   9.926 -0.0305  0.1280 -1.1970
  761MOL0     C  351   7.203   3.854   9.875  0.0718  0.1794 -0.8693
  761MOL0     C  352   7.309   3.816   9.785  0.7860  0.0329 -0.3510
  761MOL0     C  353   7.390   3.913   9.726  0.0185  0.2029 -0.1408
  761MOL0     C  354   7.356   4.046   9.747 -1.7706 -0.3558 -0.1264
  761MOL0     O  355   7.443   4.140   9.685 -0.3757 -0.0980  0.1458
  761MOL0     C  356   7.428   4.283   9.704 -0.2967  0.3263 -0.0349
  761MOL0     C  357   7.557   4.346   9.641  0.0325 -0.4271  0.1619
  761MOL0     C  358   7.683   4.328   9.724 -0.4732  0.9984 -0.3757
  761MOL0     C  359   7.810   4.404   9.675 -0.2848  0.1286  0.5573
  761MOL0     C  360   7.848   4.369   9.524  0.1439 -0.1843 -0.0402
  761MOL0     C  361   7.964   4.457   9.473 -0.2069  0.9786 -0.3345
  761MOL0     C  362   7.930   4.601   9.445  0.1231 -0.0884 -0.2733
  761MOL0     C  363   8.059   4.689   9.418 -0.0795 -0.1852 -0.2737
  761MOL0    Cl  364   7.984   4.854   9.359 -0.9086 -0.1783  0.2893
  761MOL0     C  365   7.258   4.086   9.842 -0.0783 -0.2383 -0.1470
  761MOL0     C  366   7.176   3.989   9.904  0.2744  0.6916 -0.7373
  761MOL0     O  367   6.929   3.831   9.984 -1.2948 -0.1968  0.4225
  761MOL0     C  368   6.841   3.593  10.088  0.2831  0.8900 -0.5970
  761MOL0     C  369   6.806   3.476  10.143 -0.1361 -0.6435  0.4202
  761MOL0     N  370   7.048   2.945  10.621 -0.3568 -0.4957  0.6197
  761MOL0     N  371   7.124   2.847  10.657  0.0007 -0.0525  0.6444
  761MOL0     C  372   6.918   1.605  10.631  0.3803 -0.6247  0.7533
  761MOL0     C  373   6.831   1.501  10.615 -0.8937 -0.0262  0.1175
  761MOL0     C  374   6.557   1.153  10.718 -0.4441 -0.1328  1.1193
  761MOL0     C  375   6.495   1.143  10.594  0.7074  0.3210 -0.2378
  761MOL0     C  376   6.406   1.043  10.552  0.3440 -0.6512 -0.3145
  761MOL0     C  377   6.373   0.948  10.649 -0.5888 -1.2151  0.7372
  761MOL0     O  378   6.294   0.851  10.627  0.0132  0.0146 -0.1187
  761MOL0     C  379   6.216   0.839  10.504  0.4737  1.5793 -0.3564
  761MOL0     C  380   6.151   0.691  10.505  0.1800  0.3871  0.1064
  761MOL0     C  381   6.139   0.631  10.369 -0.0088 -0.5871 -0.4633
  761MOL0     C  382   6.015   0.696  10.286 -0.2373 -0.4631 -0.5024
  761MOL0     C  383   5.880   0.680  10.342  0.0654  0.1685 -0.1505
  761MOL0     C  384   5.769   0.660  10.379 -0.2231 -0.5538  1.2360
  761MOL0     C  385   6.440   0.950  10.774 -0.0829  0.2248  0.9775
  761MOL0     C  386   6.526   1.052  10.812 -0.2038 -0.8639 -0.5817
  761MOL0     H  387   6.613   1.560  10.860 -2.0565  1.0844 -2.1439
  761MOL0     H  388   6.781   1.757  10.894  1.7858 -0.8370  0.5820
  761MOL0     H  389   7.061   1.873  10.601 -0.8806 -2.7999 -0.0852
  761MOL0     H  390   7.132   1.744  10.698 -2.5012 -1.3477 -2.1568
  761MOL0     H  391   7.274   1.956  10.724 -1.7580  2.6902 -2.9548
  761MOL0     H  392   7.201   1.935  10.864  0.0814  3.1966  0.0390
  761MOL0     H  393   7.004   2.088  10.821 -0.6173  0.6569 -1.4634
  761MOL0     H  394   7.053   2.108  10.658 -1.0197  1.3257  0.9262
  761MOL0     H  395   7.239   2.167  10.908 -0.3995 -0.7689  1.1540
  761MOL0     H  396   7.267   2.193  10.739 -1.7918 -0.5038 -2.1383
  761MOL0     H  397   7.030   2.323  10.883  0.6462 -0.1064  0.7399
  761MOL0     H  398   7.085   2.320  10.708  2.0525  0.1639 -1.0979
  761MOL0     H  399   7.292   2.439  10.771 -2.9225  1.5069 -2.2606
  761MOL0     H  400   7.250   2.416  10.943 -0.5303  0.1441  0.3628
  761MOL0     H  401   7.053   2.581  10.913  1.1005 -0.8371  2.0486
  761MOL0     H  402   7.216   2.636  10.870 -0.7328  0.9569  1.2790
  761MOL0     H  403   6.997   2.531  10.696 -0.3046 -0.5524  0.4280
  761MOL0     H  404   7.145   2.569  10.622 -3.7743  0.4261 -0.8190
  761MOL0     H  405   6.835   2.738  10.758  1.1945 -1.0608 -0.4175
  761MOL0     H  406   6.772   3.047  10.755  0.3650  0.0413 -0.7805
  761MOL0     H  407   6.719   2.956  10.606 -1.1791  3.4724 -3.0508
  761MOL0     H  408   6.915   3.184  10.613  0.5792  0.1352 -0.0366
  761MOL0     H  409   6.749   3.208  10.587 -0.1365  0.1489 -1.5894
  761MOL0     H  410   6.909   3.044  10.380  0.3216 -2.7040  1.8694
  761MOL0     H  411   6.740   3.077  10.373  1.4919 -2.7873 -0.3710
  761MOL0     H  412   6.965   3.279  10.383  1.0275 -1.9736 -0.7417
  761MOL0     H  413   6.798   3.318  10.396  0.0758  0.7619 -1.1269
  761MOL0     H  414   7.063   3.284  10.067  0.7395  0.8813 -0.7065
  761MOL0     H  415   7.131   3.489   9.944 -0.8414 -1.0062 -0.3407
  761MOL0     H  416   7.327   3.711   9.767 -0.3237 -0.3924  0.8373
  761MOL0     H  417   7.467   3.882   9.656  1.6595  1.6899  0.9117
  761MOL0     H  418   7.443   4.306   9.810  0.8946 -0.6856  0.0414
  761MOL0     H  419   7.340   4.318   9.648  1.1592 -0.1119 -2.8136
  761MOL0     H  420   7.527   4.450   9.625 -4.5324 -0.8344  3.8259
  761MOL0     H  421   7.566   4.288   9.549  1.7673 -1.2517  0.7941
  761MOL0     H  422   7.692   4.219   9.724 -1.4546  0.8984 -1.6963
  761MOL0     H  423   7.672   4.370   9.825  1.5700  1.1792 -0.1673
  761MOL0     H  424   7.792   4.512   9.682  0.8425  0.2033  3.1696
  761MOL0     H  425   7.886   4.362   9.741  2.4831  1.3282 -1.6544
  761MOL0     H  426   7.761   4.368   9.457  1.4158 -0.7946 -1.7687
  761MOL0     H  427   7.891   4.268   9.519 -0.8542 -0.6436  0.4310
  761MOL0     H  428   7.994   4.405   9.381  0.6830  1.4880 -0.3520
  761MOL0     H  429   8.052   4.451   9.538 -0.7906 -1.1259  0.3304
  761MOL0     H  430   7.852   4.611   9.369 -1.7014 -1.2933  1.3344
  761MOL0     H  431   7.882   4.648   9.532 -0.8782  0.5484 -1.1421
  761MOL0     H  432   8.116   4.649   9.334 -2.0269 -3.4234 -0.2134
  761MOL0     H  433   8.113   4.712   9.510  0.9968 -0.2157 -0.8920
  761MOL0     H  434   7.243   4.191   9.865  0.0235  0.1232 -1.5907
  761MOL0     H  435   7.111   4.025   9.983  2.9437  0.5195  1.6926
  761MOL0     H  436   6.773   3.677  10.095  0.5364  1.0064  0.9030
  761MOL0     H  437   6.715   3.473  10.203  0.3341  1.1571  1.2942
  761MOL0     H  438   6.995   1.617  10.556  0.9624 -1.8673  1.1321
  761MOL0     H  439   6.847   1.454  10.518  2.1276  0.4648  0.2785
  761MOL0     H  440   6.497   1.234  10.535  0.4942 -0.3228 -1.2535
  761MOL0     H  441   6.352   1.041  10.457 -1.3409 -0.3471  0.5929
  761MOL0     H  442   6.281   0.863  10.420  1.8867  2.9609  1.0504
  761MOL0     H  443   6.140   0.917  10.505  2.0867  3.2335 -0.9036
  761MOL0     H  444   6.211   0.620  10.563 -1.4247 -0.2583  1.0379
  761MOL0     H  445   6.053   0.697  10.553 -0.5003  2.6913 -1.3937
  761MOL0     H  446   6.116   0.524  10.376 -3.2447 -0.0749 -1.2679
  761MOL0     H  447   6.231   0.645  10.312  0.7964  2.8346  1.4611
  761MOL0     H  448   6.028   0.804  10.286 -5.7095  0.5057 -0.9407
  761MOL0     H  449   6.014   0.654  10.185 -0.6816  0.8128 -1.0465
  761MOL0     H  450   5.665   0.665  10.403 -0.1287  2.6839  1.4799
  761MOL0     H  451   6.404   0.880  10.848  0.2320  0.0549  0.9744
  761MOL0     H  452   6.570   1.056  10.911 -2.5577 -3.6547  0.7453
  762MOL0     O  453   1.527   6.449   8.285  0.4941 -0.5803 -1.3473
  762MOL0     C  454   1.525   6.502   8.180  0.1072 -0.0346 -0.2031
  762MOL0     O  455   1.608   6.605   8.143 -0.2815 -0.5310 -0.5132
  762MOL0     C  456   1.725   6.629   8.211  0.4265 -0.5140  0.0398
  762MOL0     C  457   1.766   6.761   8.216  0.0703  0.3247  0.3738
  762MOL0     C  458   1.877   6.800   8.282 -0.1834 -0.5033  0.6814
  762MOL0     C  459   1.960   6.702   8.345 -0.8349  0.0872 -0.1121
  762MOL0     O  460   2.079   6.741   8.399 -0.2145  0.2728  0.1088
  762MOL0     C  461   2.197   6.693   8.334 -0.3105 -0.9022 -0.6977
  762MOL0     C  462   2.310   6.731   8.424  0.0169 -0.4435 -0.9650
  762MOL0     C  463   2.447   6.667   8.383  0.0495 -0.0861  0.1533
  762MOL0     C  464   2.532   6.653   8.514  0.1904 -0.4162  0.1341
  762MOL0     C  465   2.693   6.676   8.499  0.4625 -0.1474 -0.6151
  762MOL0     C  466   2.762   6.713   8.631 -0.3731  0.4263 -0.4072
  762MOL0     C  467   2.774   6.574   8.715  0.0423  0.3919  0.4596
  762MOL0     C  468   2.797   6.601   8.866 -0.1892 -0.3826  0.1147
  762MOL0     N  469   2.770   6.479   8.943  0.3085  1.0236  0.3355
  762MOL0     C  470   2.664   6.469   9.032  0.3790  0.2820  0.0201
  762MOL0     C  471   2.679   6.346   9.090 -0.4989 -0.2760 -0.6501
  762MOL0     C  472   2.591   6.300   9.195  0.5026 -0.6039 -0.2557
  762MOL0     C  473   2.448   6.263   9.140 -0.0156 -0.2030 -0.0782
  762MOL0     C  474   2.446   6.156   9.037  0.7528 -0.1968  0.4355
  762MOL0     C  475   2.485   6.206   8.892  0.5855 -0.5354 -0.1670
  762MOL0     O  476   2.433   6.338   8.844  0.7376  0.7379  0.5886
  762MOL0     C  477   2.292   6.346   8.813 -0.4151  0.8516  0.0581
  762MOL0     C  478   2.240   6.475   8.825  0.4684 -0.2675  0.6397
  762MOL0     C  479   2.109   6.492   8.787  0.0128 -0.2123 -0.5148
  762MOL0     C  480   2.026   6.384   8.757  1.3514  0.3696 -0.3358
  762MOL0     C  481   1.888   6.392   8.724 -0.5738 -0.2092  0.8600
  762MOL0     O  482   1.810   6.291   8.754 -0.2482 -0.3305  0.4374
  762MOL0     C  483   1.674   6.293   8.718 -0.3496  0.2417  0.5119
  762MOL0     C  484   1.608   6.330   8.596  0.0373 -0.3088  1.0682
  762MOL0     C  485   1.471   6.321   8.575  0.4236 -0.3195 -0.6335
  762MOL0     C  486   1.399   6.242   8.665 -1.2047 -0.7902  0.0977
  762MOL0     O  487   1.265   6.233   8.644  0.1258 -0.6446 -0.2712
  762MOL0     C  488   1.177   6.295   8.741  0.3650  0.6715  0.2564
  762MOL0     C  489   1.081   6.189   8.796 -0.4420  0.0389  0.9185
  762MOL0     C  490   1.016   6.235   8.919  0.1536 -0.1864 -0.6743
  762MOL0     C  491   0.896   6.133   8.961  0.6232 -0.2717  0.1318
  762MOL0     C  492   0.795   6.207   9.057  0.5439 -0.2149 -0.5972
  762MOL0     C  493   0.846   6.213   9.206  0.5449 -0.0191  0.5316
  762MOL0     C  494   0.809   6.353   9.273 -0.3811 -0.2097 -0.8448
  762MOL0     C  495   0.655   6.355   9.291 -0.5897 -0.4794 -1.1929
  762MOL0    Cl  496   0.601   6.501   9.379 -0.0223 -0.2422  0.0079
  762MOL0     C  497   1.458   6.191   8.779  0.0248  0.0572  0.3928
  762MOL0     C  498   1.594   6.210   8.806  0.4636  0.0077  0.5414
  762MOL0     O  499   1.850   6.492   8.672  0.0581  0.5553 -0.0223
  762MOL0     C  500   2.078   6.255   8.764  0.2835 -1.2669 -0.2657
  762MOL0     C  501   2.213   6.238   8.793  1.0691  0.1138  0.6959
  762MOL0     N  502   2.789   6.280   9.046  0.8654  0.0412 -0.1451
  762MOL0     N  503   2.844   6.358   8.954 -0.5729  0.3883  0.0824
  762MOL0     C  504   1.923   6.569   8.342 -0.5470 -0.3045  0.3235
  762MOL0     C  505   1.798   6.536   8.274 -0.9590  0.8622  0.2776
  762MOL0     C  506   1.429   6.451   8.075  0.0992  0.6626 -0.4444
  762MOL0     C  507   1.293   6.439   8.109  0.3388  0.4134  1.1158
  762MOL0     C  508   1.210   6.402   7.997 -0.9583  0.0795  0.5278
  762MOL0     C  509   1.266   6.385   7.866  0.5174 -0.9198  0.0978
  762MOL0     O  510   1.183   6.367   7.761  0.1779  0.6030 -0.0085
  762MOL0     C  511   1.189   6.462   7.644  0.5403 -0.5623  0.8545
  762MOL0     C  512   1.056   6.464   7.566  0.1148 -0.0769 -0.0474
  762MOL0     C  513   1.004   6.329   7.512 -0.7124 -0.8590  0.0885
  762MOL0     C  514   1.107   6.260   7.412  0.1017  0.3538  0.0297
  762MOL0     C  515   1.032   6.142   7.363 -0.5297 -0.6660  0.1568
  762MOL0     C  516   0.993   6.043   7.315  0.7488  1.3690  0.1861
  762MOL0     C  517   1.397   6.408   7.841 -0.0047 -0.7604 -0.8629
  762MOL0     C  518   1.484   6.435   7.950  0.6476  0.4182 -0.4737
  762MOL0     H  519   1.708   6.840   8.170  1.6882  0.6729 -1.1893
  762MOL0     H  520   1.894   6.907   8.275  1.3072 -0.5604  2.4162
  762MOL0     H  521   2.208   6.762   8.249 -0.0025  1.9469  1.5151
  762MOL0     H  522   2.194   6.589   8.302 -0.1332 -0.2220 -3.1493
  762MOL0     H  523   2.275   6.712   8.526 -0.2925  1.8444 -0.5869
  762MOL0     H  524   2.317   6.840   8.423 -0.4409 -0.4074 -2.3685
  762MOL0     H  525   2.497   6.723   8.303 -0.0810  0.9645  0.7940
  762MOL0     H  526   2.430   6.564   8.350 -0.7071  0.4642 -1.2753
  762MOL0     H  527   2.491   6.730   8.581 -1.5070  0.1320 -1.4334
  762MOL0     H  528   2.512   6.559   8.566 -0.5502 -0.7975 -0.7938
  762MOL0     H  529   2.720   6.756   8.430 -0.9866  3.0038  2.1660
  762MOL0     H  530   2.729   6.577   8.469 -2.3270 -2.1197  1.9360
  762MOL0     H  531   2.703   6.793   8.677  0.4688  0.4793  0.6147
  762MOL0     H  532   2.865   6.749   8.623  0.8309 -1.9991  2.2829
  762MOL0     H  533   2.693   6.505   8.689 -2.8538  4.3070 -1.9677
  762MOL0     H  534   2.858   6.519   8.672 -0.3860  0.5952 -0.6622
  762MOL0     H  535   2.733   6.683   8.898 -0.4546 -0.4792 -0.1687
  762MOL0     H  536   2.901   6.625   8.891 -0.5907  2.0336 -0.2972
  762MOL0     H  537   2.586   6.541   9.055  1.4808  2.2101 -1.9739
  762MOL0     H  538   2.580   6.376   9.273 -1.0333 -1.3816  0.3368
  762MOL0     H  539   2.624   6.218   9.260 -1.0658 -2.9746 -2.2442
  762MOL0     H  540   2.396   6.353   9.105 -1.0588 -1.3683 -1.6464
  762MOL0     H  541   2.386   6.233   9.225 -0.5428  1.5995  0.2085
  762MOL0     H  542   2.520   6.081   9.067 -0.2538 -1.9412 -1.2255
  762MOL0     H  543   2.348   6.108   9.036  1.0214 -0.7516 -0.5012
  762MOL0     H  544   2.469   6.119   8.827  2.2935 -0.3594 -0.8832
  762MOL0     H  545   2.594   6.208   8.895  0.7206 -2.8348 -1.3246
  762MOL0     H  546   2.303   6.562   8.836 -1.9109  1.7921 -0.9208
  762MOL0     H  547   2.071   6.593   8.780 -4.2816 -1.5791  0.1600
  762MOL0     H  548   1.661   6.372   8.511 -2.4122 -3.4256 -2.3198
  762MOL0     H  549   1.420   6.372   8.494 -0.3363  1.2279  0.7552
  762MOL0     H  550   1.113   6.364   8.684 -0.0739 -0.5663 -0.7964
  762MOL0     H  551   1.227   6.327   8.833  0.1010 -0.7825  0.9321
  762MOL0     H  552   1.128   6.094   8.826  1.7771  0.1442 -1.8355
  762MOL0     H  553   1.011   6.154   8.720  0.2405  2.0757 -0.7653
  762MOL0     H  554   0.992   6.342   8.910  2.7767  0.5019 -0.1637
  762MOL0     H  555   1.090   6.236   8.998 -0.4262  2.8559 -0.0395
  762MOL0     H  556   0.842   6.106   8.870 -1.9265 -1.9168  1.9835
  762MOL0     H  557   0.944   6.046   9.007  1.0579  0.3326  0.8669
  762MOL0     H  558   0.698   6.159   9.040 -0.7533  0.7163  3.2397
  762MOL0     H  559   0.777   6.311   9.028  1.2971  0.2362  0.5048
  762MOL0     H  560   0.954   6.196   9.204  0.7160  0.9130  1.2238
  762MOL0     H  561   0.808   6.133   9.270  0.2264  1.5404  2.3797
  762MOL0     H  562   0.875   6.386   9.354  2.4162  0.2231 -3.1505
  762MOL0     H  563   0.836   6.431   9.201  0.5198 -0.9786 -1.3681
  762MOL0     H  564   0.647   6.267   9.356  3.1023 -1.2953 -1.6112
  762MOL0     H  565   0.596   6.334   9.201 -2.6235  0.1047 -0.0594
  762MOL0     H  566   1.399   6.126   8.842 -1.1238  1.3199  0.6704
  762MOL0     H  567   1.625   6.167   8.901  0.6304  1.1046  1.0065
  762MOL0     H  568   2.025   6.163   8.742  2.0021 -1.4903 -4.2079
  762MOL0     H  569   2.259   6.139   8.787 -1.6768 -1.2033 -1.0954
  762MOL0     H  570   1.992   6.500   8.389  1.8619  2.4499  1.0640
  762MOL0     H  571   1.767   6.432   8.265 -0.9698  0.9140 -0.3577
  762MOL0     H  572   1.252   6.466   8.206  0.2491 -0.8242  1.4270
  762MOL0     H  573   1.102   6.396   8.003 -1.1312  0.9100 -1.1535
  762MOL0     H  574   1.260   6.433   7.566  0.2914 -1.4462  0.9559
  762MOL0     H  575   1.203   6.567   7.670 -0.8596 -0.2409  0.4430
  762MOL0     H  576   0.972   6.512   7.616 -0.9216  1.9110 -3.3835
  762MOL0     H  577   1.079   6.528   7.480  0.3095  0.3127  0.2932
  762MOL0     H  578   0.905   6.348   7.470 -0.8422 -1.7518 -0.0287
  762MOL0     H  579   1.005   6.263   7.599  1.2651 -2.0359 -0.7829
  762MOL0     H  580   1.139   6.332   7.335  0.9059 -0.1783 -0.1411
  762MOL0     H  581   1.195   6.230   7.470  1.7480 -0.4486 -2.7071
  762MOL0     H  582   0.947   5.956   7.272  0.4008  0.9491  1.3705
  762MOL0     H  583   1.446   6.410   7.744 -3.1782  0.5544 -2.5583
  762MOL0     H  584   1.591   6.450   7.947  0.9854 -1.4081  1.0654
  763MOL0     O  585   0.885   9.026   7.117 -0.7688  0.1083  0.1789
  763MOL0     C  586   0.906   8.946   7.214 -0.3438  0.4261  0.3596
  763MOL0     O  587   0.856   8.967   7.342 -0.0128  0.5053  0.4400
  763MOL0     C  588   0.782   9.088   7.356  0.6096  0.2828  0.0268
  763MOL0     C  589   0.845   9.176   7.449  0.6251  0.2518 -0.1464
  763MOL0     C  590   0.784   9.305   7.459 -0.1783  0.2128  0.3977
  763MOL0     C  591   0.675   9.345   7.383 -0.0030  0.1916 -0.1504
  763MOL0     O  592   0.618   9.465   7.372  1.2648  0.0485 -0.0820
  763MOL0     C  593   0.662   9.559   7.462 -0.0239 -0.5897 -0.4842
  763MOL0     C  594   0.545   9.666   7.469  0.9611  1.1775  0.3921
  763MOL0     C  595   0.577   9.768   7.572 -0.2880  0.0966 -0.0320
  763MOL0     C  596   0.480   9.879   7.585  0.5070 -0.7467 -0.6281
  763MOL0     C  597   0.353   9.835   7.662 -0.9073  0.4229 -0.7194
  763MOL0     C  598   0.240   9.933   7.643 -0.1539  0.7782 -0.2864
  763MOL0     C  599   0.258  10.062   7.720 -0.2182 -0.8844 -0.5607
  763MOL0     C  600   0.119  10.126   7.737  0.3098 -0.0216 -0.1813
  763MOL0     N  601   0.097  10.225   7.632 -0.5481  0.2410  0.3079
  763MOL0     C  602  -0.011  10.232   7.545 -0.3235 -0.6702  0.1986
  763MOL0     C  603  -0.014  10.362   7.501 -0.7963  0.1981  0.1851
  763MOL0     C  604  -0.110  10.419   7.392 -1.0224 -0.6177  0.3858
  763MOL0     C  605  -0.120  10.572   7.414  0.3498 -0.0028  0.0113
  763MOL0     C  606  -0.214  10.616   7.522  0.1915  0.2122  0.0395
  763MOL0     C  607  -0.358  10.620   7.478 -0.1335 -0.4391 -0.1804
  763MOL0     O  608  -0.438  10.659   7.593  0.2502 -0.3277  0.7533
  763MOL0     C  609  -0.485  10.793   7.593 -1.0997  0.1478 -0.1000
  763MOL0     C  610  -0.587  10.806   7.685 -0.7600 -0.0222  0.2142
  763MOL0     C  611  -0.652  10.927   7.687 -0.5976  0.5059  0.3805
  763MOL0     C  612  -0.636  11.029   7.594  0.0550 -0.6098 -0.3289
  763MOL0     C  613  -0.730  11.139   7.598  0.1062  0.6225  0.5187
  763MOL0     O  614  -0.774  11.179   7.718 -0.0319  0.8079  0.3331
  763MOL0     C  615  -0.857  11.290   7.726  0.1202  0.4917 -0.0352
  763MOL0     C  616  -0.802  11.390   7.804 -0.5815  0.3854  0.1267
  763MOL0     C  617  -0.867  11.508   7.826  0.0974 -1.0148  0.1597
  763MOL0     C  618  -0.984  11.539   7.757  0.7948 -0.6140 -0.6826
  763MOL0     O  619  -1.049  11.655   7.771  1.5978 -0.3052  0.8185
  763MOL0     C  620  -1.087  11.700   7.908  0.0551 -0.0972  0.8358
  763MOL0     C  621  -1.197  11.798   7.897 -0.4074  0.3866  0.5307
  763MOL0     C  622  -1.232  11.846   8.043  0.9499  0.5923  0.3064
  763MOL0     C  623  -1.341  11.950   8.044  1.1550 -0.0273 -0.1884
  763MOL0     C  624  -1.317  12.030   8.164 -0.5753 -0.3411  0.2652
  763MOL0     C  625  -1.423  12.116   8.204 -0.8448  0.1567 -0.4856
  763MOL0     C  626  -1.386  12.179   8.335  0.1851 -1.1693 -0.2093
  763MOL0     C  627  -1.467  12.303   8.365  0.2381 -0.1435 -0.6298
  763MOL0    Cl  628  -1.430  12.353   8.529 -0.0689  0.0946 -0.3684
  763MOL0     C  629  -1.043  11.439   7.679  0.1142  1.1402 -0.7429
  763MOL0     C  630  -0.978  11.311   7.664  0.3686  0.0618  0.7708
  763MOL0     O  631  -0.760  11.185   7.492 -0.2325  0.2243 -0.3251
  763MOL0     C  632  -0.529  11.014   7.506 -0.6603 -0.6333 -0.8599
  763MOL0     C  633  -0.447  10.900   7.516 -0.5444  0.2456 -0.4695
  763MOL0     N  634   0.100  10.425   7.562  0.2366  0.1750  0.2261
  763MOL0     N  635   0.164  10.341   7.635  0.2363 -0.0400  0.1774
  763MOL0     C  636   0.620   9.254   7.292  0.0246 -0.4802  0.2187
  763MOL0     C  637   0.664   9.125   7.291  0.5918  0.5762 -0.5482
  763MOL0     C  638   0.984   8.818   7.189 -0.0755 -0.3804  0.3457
  763MOL0     C  639   1.026   8.731   7.303 -0.6725 -0.8913  0.9166
  763MOL0     C  640   1.109   8.615   7.260  0.1245 -0.0445 -0.3863
  763MOL0     C  641   1.144   8.586   7.130 -1.2846  0.4615 -0.4391
  763MOL0     O  642   1.219   8.474   7.100  0.4798 -0.0835  0.0214
  763MOL0     C  643   1.352   8.524   7.081  0.3702  0.2062 -0.7891
  763MOL0     C  644   1.444   8.398   7.099  1.0152 -1.1090 -0.6814
  763MOL0     C  645   1.584   8.434   7.048 -0.1470  0.3450  0.2566
  763MOL0     C  646   1.705   8.380   7.134  0.2219 -0.3335  0.7338
  763MOL0     C  647   1.723   8.232   7.119  0.7877 -0.4287  0.7054
  763MOL0     C  648   1.719   8.108   7.108  0.5255  0.1073 -0.3858
  763MOL0     C  649   1.097   8.658   7.033 -0.6786 -0.9049 -0.4837
  763MOL0     C  650   1.024   8.772   7.051 -0.0618 -0.3853 -1.1908
  763MOL0     H  651   0.930   9.138   7.504  1.8343  1.8784 -0.8062
  763MOL0     H  652   0.836   9.377   7.521  1.3083  1.5675 -2.2529
  763MOL0     H  653   0.747   9.614   7.421 -1.2091  0.5476 -1.5103
  763MOL0     H  654   0.674   9.525   7.565  1.7104  3.3661  0.8191
  763MOL0     H  655   0.464   9.598   7.498  1.2006 -0.6599 -2.7569
  763MOL0     H  656   0.523   9.694   7.366  1.4644  2.9670  0.7464
  763MOL0     H  657   0.672   9.818   7.552 -0.9126  1.4943  0.4183
  763MOL0     H  658   0.600   9.725   7.670  0.5576  0.7194  0.0527
  763MOL0     H  659   0.525   9.969   7.629 -2.9665  0.7940  0.1156
  763MOL0     H  660   0.450   9.902   7.483 -0.0095 -1.6957 -0.7020
  763MOL0     H  661   0.388   9.825   7.765 -1.0387  1.9128 -0.5029
  763MOL0     H  662   0.318   9.744   7.613 -2.6894  0.8168 -0.2779
  763MOL0     H  663   0.155   9.883   7.691  3.0641 -2.1608  2.9110
  763MOL0     H  664   0.229   9.946   7.535  3.0771 -0.3801 -0.8547
  763MOL0     H  665   0.299  10.034   7.818 -3.1949 -0.6132  0.8785
  763MOL0     H  666   0.338  10.120   7.673  1.0358 -2.1053  0.0138
  763MOL0     H  667   0.114  10.177   7.833 -0.9280 -1.0228  0.3238
  763MOL0     H  668   0.042  10.048   7.743 -2.8019  2.7072 -1.2537
  763MOL0     H  669  -0.075  10.150   7.515  2.2510 -1.6542 -3.1777
  763MOL0     H  670  -0.209  10.374   7.391 -1.6909  0.7860  0.1644
  763MOL0     H  671  -0.068  10.403   7.292  0.9738 -0.5553  1.1703
  763MOL0     H  672  -0.155  10.617   7.321 -1.3564 -1.3102 -0.0235
  763MOL0     H  673  -0.023  10.616   7.440 -0.2374 -0.3098  3.1284
  763MOL0     H  674  -0.194  10.542   7.600  2.7299  3.0381  2.3259
  763MOL0     H  675  -0.181  10.707   7.573  1.0030 -1.8428  3.4761
  763MOL0     H  676  -0.391  10.520   7.449 -2.4536  0.0693  0.4438
  763MOL0     H  677  -0.375  10.687   7.394 -0.0625 -1.8256 -1.3318
  763MOL0     H  678  -0.600  10.730   7.761  4.2583 -1.4567  0.0012
  763MOL0     H  679  -0.735  10.934   7.756 -1.1569  0.9076 -0.3219
  763MOL0     H  680  -0.703  11.368   7.842  0.0818  0.9312 -1.1930
  763MOL0     H  681  -0.817  11.582   7.887  2.0991 -2.2223  0.0918
  763MOL0     H  682  -1.007  11.750   7.964  0.8287  0.0645 -0.3682
  763MOL0     H  683  -1.122  11.613   7.964  0.3319 -1.3877 -0.9274
  763MOL0     H  684  -1.286  11.754   7.852  3.0380 -3.5082 -3.3464
  763MOL0     H  685  -1.159  11.883   7.839 -1.3919  0.4698 -0.0023
  763MOL0     H  686  -1.141  11.889   8.087  0.5739  2.6579 -0.7993
  763MOL0     H  687  -1.268  11.759   8.098 -0.5005  1.3710  0.6426
  763MOL0     H  688  -1.340  12.017   7.957  0.0022 -0.3584 -0.4766
  763MOL0     H  689  -1.436  11.896   8.047  0.6633  0.8214 -0.1599
  763MOL0     H  690  -1.222  12.083   8.168  0.7934 -2.6560  4.2148
  763MOL0     H  691  -1.297  11.961   8.247 -0.1894  1.2432  1.5613
  763MOL0     H  692  -1.516  12.060   8.216 -3.1146  3.9711  2.3520
  763MOL0     H  693  -1.433  12.192   8.125  0.6422 -0.2326 -1.0804
  763MOL0     H  694  -1.405  12.107   8.415 -1.6453 -1.7720 -1.1304
  763MOL0     H  695  -1.282  12.213   8.343  0.1426 -0.1438 -2.8182
  763MOL0     H  696  -1.573  12.282   8.352  0.1614 -0.1668  0.0194
  763MOL0     H  697  -1.445  12.393   8.306  1.3882  1.9763  2.7119
  763MOL0     H  698  -1.136  11.456   7.625 -0.1309  2.5382  0.0954
  763MOL0     H  699  -1.024  11.233   7.603  0.3236  0.5109  0.2208
  763MOL0     H  700  -0.503  11.095   7.439  3.6931 -0.3927  0.7697
  763MOL0     H  701  -0.356  10.878   7.461  1.4663  0.2390  2.6075
  763MOL0     H  702   0.535   9.306   7.250  0.1176 -0.1783  0.4052
  763MOL0     H  703   0.602   9.051   7.241 -1.0630  1.3762  0.2622
  763MOL0     H  704   1.011   8.765   7.405  0.6370 -1.0504  1.1792
  763MOL0     H  705   1.133   8.550   7.344 -2.7098 -0.0321  0.5320
  763MOL0     H  706   1.381   8.597   7.156 -3.0587 -1.2169  2.2404
  763MOL0     H  707   1.362   8.564   6.980 -0.7983 -1.5040 -1.6361
  763MOL0     H  708   1.447   8.364   7.203  0.5434  0.5529 -0.0900
  763MOL0     H  709   1.404   8.313   7.042  0.0267 -1.2665  0.2104
  763MOL0     H  710   1.603   8.542   7.040  0.2143  0.4768  2.4197
  763MOL0     H  711   1.587   8.381   6.952 -2.6402 -0.5713  0.6029
  763MOL0     H  712   1.797   8.430   7.104 -0.6632 -0.7188 -3.0384
  763MOL0     H  713   1.688   8.407   7.239  0.4548 -0.7375  0.8760
  763MOL0     H  714   1.712   8.006   7.078  1.3311  0.0507 -0.4171
  763MOL0     H  715   1.091   8.619   6.932 -0.2447  1.3289 -1.4498
  763MOL0     H  716   0.985   8.828   6.966 -3.2415 -0.2296  0.2124
  764MOL0     O  717  11.377   0.051   0.194  0.4081 -0.1863  0.3881
  764MOL0     C  718  11.363   0.025   0.072 -0.5405  0.0471  0.2127
  764MOL0     O  719  11.324  -0.093   0.022  0.8937  0.3140 -0.3199
  764MOL0     C  720  11.248  -0.174   0.096 -0.0066 -0.4821 -0.2385
  764MOL0     C  721  11.264  -0.318   0.091  0.5462 -0.1371 -0.7967
  764MOL0     C  722  11.192  -0.388   0.179  0.3953 -0.2722  0.7982
  764MOL0     C  723  11.105  -0.333   0.279 -0.1613  0.0836  0.0453
  764MOL0     O  724  11.049  -0.415   0.369 -0.5565  0.2717 -0.3496
  764MOL0     C  725  11.047  -0.375   0.503  0.0798  0.2618  0.4244
  764MOL0     C  726  11.186  -0.389   0.562  0.3700  0.0472  0.6784
  764MOL0     C  727  11.189  -0.409   0.718  0.7568  0.0342 -0.1677
  764MOL0     C  728  11.109  -0.533   0.771  0.0042 -0.2366  0.8396
  764MOL0     C  729  11.140  -0.571   0.920  0.5185 -0.3169  0.0960
  764MOL0     C  730  11.051  -0.668   0.982  0.1496  0.1491  0.6846
  764MOL0     C  731  10.938  -0.598   1.067 -0.4045 -0.0462 -0.3109
  764MOL0     C  732  10.924  -0.683   1.196  0.0916  1.3643 -0.0242
  764MOL0     N  733  11.005  -0.641   1.310 -1.0858  0.1397 -0.5188
  764MOL0     C  734  11.133  -0.593   1.300 -0.1771  1.0258  0.4580
  764MOL0     C  735  11.168  -0.583   1.432  1.0564  0.2360  0.0544
  764MOL0     C  736  11.299  -0.524   1.486 -0.3093 -0.6002  0.4945
  764MOL0     C  737  11.318  -0.574   1.632  0.1890 -0.5585  1.0047
  764MOL0     C  738  11.341  -0.725   1.648  0.2522 -0.2573 -0.1862
  764MOL0     C  739  11.443  -0.787   1.552 -0.4737  0.1978  0.4303
  764MOL0     O  740  11.554  -0.700   1.534 -0.4707  0.3560 -0.7076
  764MOL0     C  741  11.634  -0.715   1.643 -0.0034 -0.2384  0.7065
  764MOL0     C  742  11.641  -0.626   1.755 -0.2735 -0.2976 -0.4744
  764MOL0     C  743  11.725  -0.651   1.864  1.1848  0.1368  0.2596
  764MOL0     C  744  11.815  -0.758   1.852 -0.2372 -0.3086 -0.0411
  764MOL0     C  745  11.903  -0.777   1.963 -0.4772 -0.8035  0.3246
  764MOL0     O  746  11.861  -0.726   2.086 -1.1146  0.5699 -0.3758
  764MOL0     C  747  11.962  -0.727   2.173  0.7603  0.1643  0.2312
  764MOL0     C  748  12.071  -0.642   2.154 -0.0872 -0.1043  0.6669
  764MOL0     C  749  12.168  -0.623   2.259 -0.7103  0.1695  0.2826
  764MOL0     C  750  12.153  -0.714   2.369 -0.2366 -0.0878 -0.0606
  764MOL0     O  751  12.229  -0.720   2.480  0.0403 -0.1771 -0.9157
  764MOL0     C  752  12.364  -0.690   2.450  0.8324  0.0996 -0.1650
  764MOL0     C  753  12.428  -0.740   2.568  0.3227 -0.3922 -0.1394
  764MOL0     C  754  12.578  -0.721   2.562 -0.2991 -0.5768  0.8266
  764MOL0     C  755  12.650  -0.801   2.671 -0.6039  0.1189 -0.0430
  764MOL0     C  756  12.656  -0.952   2.636 -0.3055 -0.1591 -1.0144
  764MOL0     C  757  12.739  -0.995   2.507 -0.0937 -0.0322 -0.4110
  764MOL0     C  758  12.765  -1.141   2.503 -0.3651 -0.7619  1.3346
  764MOL0     C  759  12.874  -1.174   2.401 -0.2178 -0.3318 -0.2850
  764MOL0    Cl  760  13.039  -1.141   2.459 -0.1375 -0.0564 -0.1194
  764MOL0     C  761  12.048  -0.798   2.378 -0.6395  0.2682 -0.1908
  764MOL0     C  762  11.952  -0.807   2.277  0.8858  0.1184  1.3485
  764MOL0     O  763  12.012  -0.830   1.939  0.2454  0.3941 -0.4921
  764MOL0     C  764  11.805  -0.857   1.753 -0.0257 -0.0970  0.4059
  764MOL0     C  765  11.720  -0.825   1.648 -0.0108  0.2807  0.6460
  764MOL0     N  766  11.069  -0.622   1.515 -0.4721 -0.2713  0.3203
  764MOL0     N  767  10.969  -0.644   1.441 -0.1071 -0.4970  0.4124
  764MOL0     C  768  11.084  -0.197   0.280  0.8093 -1.4946 -0.3297
  764MOL0     C  769  11.149  -0.115   0.182 -0.5060 -0.5144 -0.5047
  764MOL0     C  770  11.402   0.126  -0.018 -1.4251 -0.0671 -0.2028
  764MOL0     C  771  11.443   0.261   0.022 -0.0964  0.4586  0.1737
  764MOL0     C  772  11.502   0.346  -0.069  0.0471 -0.1412 -0.3817
  764MOL0     C  773  11.508   0.319  -0.207  0.3180 -0.6973 -0.4553
  764MOL0     O  774  11.571   0.396  -0.300  0.0552  0.1130  0.4790
  764MOL0     C  775  11.587   0.535  -0.279 -0.2656 -0.9152 -0.2186
  764MOL0     C  776  11.451   0.615  -0.289 -1.2406 -0.3259  0.1706
  764MOL0     C  777  11.487   0.767  -0.292  0.4789 -0.4674  0.1235
  764MOL0     C  778  11.420   0.830  -0.412  0.5503 -0.0746  0.6873
  764MOL0     C  779  11.490   0.783  -0.528 -0.1931 -0.8223  0.9359
  764MOL0     C  780  11.555   0.731  -0.616  0.1485 -0.3505  0.5362
  764MOL0     C  781  11.456   0.201  -0.251  0.3360 -0.1962  0.3044
  764MOL0     C  782  11.410   0.102  -0.154 -0.1777 -0.7656  0.1253
  764MOL0     H  783  11.347  -0.368   0.040  2.0901 -0.2427  1.6736
  764MOL0     H  784  11.216  -0.494   0.190  1.4295 -0.3506 -1.5803
  764MOL0     H  785  10.985  -0.447   0.559 -1.3562  1.1328  0.0017
  764MOL0     H  786  10.996  -0.280   0.520 -1.5537 -0.5199  0.1288
  764MOL0     H  787  11.230  -0.290   0.542 -0.8353  1.1278  2.9020
  764MOL0     H  788  11.239  -0.470   0.512 -1.4519  0.4142 -2.0647
  764MOL0     H  789  11.134  -0.324   0.760 -0.8657 -1.5768  1.1393
  764MOL0     H  790  11.292  -0.426   0.749  0.7748 -4.2686 -1.8918
  764MOL0     H  791  11.004  -0.508   0.755  0.3056 -0.2243 -1.5385
  764MOL0     H  792  11.139  -0.609   0.698 -1.6212 -0.5558  0.4573
  764MOL0     H  793  11.151  -0.479   0.978  2.5258 -1.4272  1.5943
  764MOL0     H  794  11.246  -0.601   0.925  1.1808  1.8955  0.1794
  764MOL0     H  795  11.105  -0.741   1.042  0.7967  0.7035  0.7860
  764MOL0     H  796  10.991  -0.713   0.903 -2.8021  0.6265  2.4846
  764MOL0     H  797  10.964  -0.493   1.084  0.2389 -0.6309  3.0486
  764MOL0     H  798  10.843  -0.609   1.014 -1.7854  1.3292  1.7391
  764MOL0     H  799  10.952  -0.786   1.173  3.8694  2.6242 -1.9080
  764MOL0     H  800  10.823  -0.677   1.237  0.6642 -2.3174  2.4389
  764MOL0     H  801  11.203  -0.586   1.218 -0.0018  0.0243  0.5088
  764MOL0     H  802  11.288  -0.415   1.493 -1.7120 -0.4670 -2.1705
  764MOL0     H  803  11.383  -0.546   1.419  0.2633  3.5016 -0.4051
  764MOL0     H  804  11.239  -0.537   1.697  0.6169  1.3242  0.5284
  764MOL0     H  805  11.404  -0.512   1.659  1.6891 -2.5947  1.1466
  764MOL0     H  806  11.366  -0.741   1.753  1.3069  0.2814 -0.3438
  764MOL0     H  807  11.244  -0.774   1.634 -1.9256  2.8273  2.6590
  764MOL0     H  808  11.399  -0.792   1.452  0.4748  1.5436 -0.0906
  764MOL0     H  809  11.483  -0.882   1.588 -2.1879 -1.9414 -2.9331
  764MOL0     H  810  11.583  -0.537   1.736 -2.2070 -2.2768 -6.0209
  764MOL0     H  811  11.731  -0.571   1.937  0.7629  0.1149  0.3176
  764MOL0     H  812  12.081  -0.589   2.060  0.5948 -0.6025  0.4559
  764MOL0     H  813  12.255  -0.561   2.243 -2.3636  2.5286 -0.0473
  764MOL0     H  814  12.373  -0.581   2.452  0.0678  0.1608  1.5849
  764MOL0     H  815  12.409  -0.748   2.369  2.1594  2.0686 -0.9000
  764MOL0     H  816  12.394  -0.841   2.591  0.1927 -0.4209 -0.4566
  764MOL0     H  817  12.396  -0.678   2.652 -1.6291 -2.6036  0.8424
  764MOL0     H  818  12.596  -0.613   2.569 -1.3008 -0.2613 -0.7787
  764MOL0     H  819  12.613  -0.747   2.462 -2.0977  0.0730 -0.0181
  764MOL0     H  820  12.749  -0.754   2.672 -1.2495  1.5364 -0.4985
  764MOL0     H  821  12.596  -0.772   2.762  0.2909  1.5039  0.0909
  764MOL0     H  822  12.556  -0.995   2.643 -2.2281  4.0405  2.4948
  764MOL0     H  823  12.716  -0.996   2.716  1.8446  0.4396 -2.2086
  764MOL0     H  824  12.835  -0.944   2.506  0.1175 -0.3349  1.0229
  764MOL0     H  825  12.674  -0.967   2.424 -1.6040  2.2199  1.3999
  764MOL0     H  826  12.808  -1.176   2.597  2.5304 -1.1158 -0.0278
  764MOL0     H  827  12.676  -1.201   2.483 -0.2934  0.0766 -2.2175
  764MOL0     H  828  12.851  -1.131   2.303 -0.2006 -0.0433 -0.1624
  764MOL0     H  829  12.862  -1.282   2.385  3.0633 -0.8181 -0.2840
  764MOL0     H  830  12.039  -0.861   2.466  1.4000  3.1395  2.2509
  764MOL0     H  831  11.867  -0.873   2.294  0.0586  0.9451  0.5010
  764MOL0     H  832  11.866  -0.944   1.734 -1.7265 -0.9462 -1.6493
  764MOL0     H  833  11.715  -0.888   1.559  0.1746  1.6278 -0.3561
  764MOL0     H  834  11.039  -0.137   0.357 -0.1497  2.5113 -3.6432
  764MOL0     H  835  11.141  -0.007   0.192  0.1169 -0.5537  0.6199
  764MOL0     H  836  11.430   0.289   0.126 -4.0865 -0.0343 -0.0477
  764MOL0     H  837  11.535   0.444  -0.036 -1.4962  1.0173 -2.0865
  764MOL0     H  838  11.648   0.560  -0.367 -0.0081  1.3503  0.5568
  764MOL0     H  839  11.657   0.554  -0.197  0.6228 -1.8434 -0.7272
  764MOL0     H  840  11.397   0.582  -0.378 -0.8828 -0.3295 -0.0470
  764MOL0     H  841  11.393   0.598  -0.198  0.0994  1.0535  1.3328
  764MOL0     H  842  11.594   0.784  -0.277  0.7524 -3.5619  2.7267
  764MOL0     H  843  11.432   0.799  -0.203 -0.7540 -0.1484 -0.7290
  764MOL0     H  844  11.313   0.808  -0.422  0.2957  1.3903 -0.1560
  764MOL0     H  845  11.424   0.938  -0.394  1.4373  0.2782 -1.3789
  764MOL0     H  846  11.590   0.667  -0.695  0.8415 -0.0388  0.5833
  764MOL0     H  847  11.457   0.162  -0.353 -2.5160  1.9360 -0.6690
  764MOL0     H  848  11.357   0.021  -0.203 -0.7719  0.3956 -1.2412
  765MOL0     O  849   7.487   1.564   8.501  0.3169  0.0772  0.4199
  765MOL0     C  850   7.489   1.443   8.522  0.4930  0.7894  0.8536
  765MOL0     O  851   7.425   1.342   8.450 -0.3388  0.3323 -0.0075
  765MOL0     C  852   7.357   1.403   8.349 -0.8744  1.4013  0.1119
  765MOL0     C  853   7.397   1.380   8.218 -0.9837 -0.3815  0.2166
  765MOL0     C  854   7.329   1.442   8.112 -0.4710 -1.0211 -0.5308
  765MOL0     C  855   7.200   1.493   8.123 -0.0094  0.7532 -1.0316
  765MOL0     O  856   7.117   1.522   8.016 -0.0732 -0.7120 -0.2020
  765MOL0     C  857   7.114   1.664   7.989 -0.1075  0.9657 -0.6469
  765MOL0     C  858   7.009   1.675   7.885 -0.2227  0.5844  0.4996
  765MOL0     C  859   6.862   1.674   7.953 -0.7686 -0.3752 -0.8752
  765MOL0     C  860   6.763   1.650   7.844  1.3939 -0.5865 -0.8790
  765MOL0     C  861   6.613   1.649   7.896 -0.4538 -0.1112  0.0373
  765MOL0     C  862   6.573   1.564   8.007  0.5204  0.6704  0.5632
  765MOL0     C  863   6.605   1.420   7.983 -0.3358 -0.0503 -0.1280
  765MOL0     C  864   6.526   1.364   7.858  0.0230  0.7770  0.2417
  765MOL0     N  865   6.377   1.372   7.881  0.8684  0.0089  0.5069
  765MOL0     C  866   6.302   1.349   7.998 -0.9242 -0.0757 -0.2594
  765MOL0     C  867   6.170   1.357   7.956 -0.9820  0.1909  0.8548
  765MOL0     C  868   6.050   1.323   8.033  0.1191  0.6035 -1.0432
  765MOL0     C  869   6.072   1.277   8.177  0.5830  0.0656  0.5752
  765MOL0     C  870   6.123   1.391   8.270  0.1499  0.7473  0.6631
  765MOL0     C  871   6.217   1.343   8.374 -0.4907  0.6667 -0.4623
  765MOL0     O  872   6.337   1.274   8.324 -0.2836 -0.0282 -0.0408
  765MOL0     C  873   6.442   1.232   8.407 -0.9647 -0.4680 -0.6813
  765MOL0     C  874   6.465   1.285   8.532 -0.1473 -0.6663 -1.1019
  765MOL0     C  875   6.586   1.248   8.609 -0.2802 -0.0498  0.1920
  765MOL0     C  876   6.683   1.163   8.562 -0.7474  0.0184 -0.7765
  765MOL0     C  877   6.805   1.124   8.642 -0.0437 -0.3426 -0.7480
  765MOL0     O  878   6.897   1.039   8.581  0.5361  0.8418  0.0172
  765MOL0     C  879   7.025   1.036   8.638  0.0500 -0.0116  0.5734
  765MOL0     C  880   7.063   0.905   8.680  0.5066  0.0549 -0.0873
  765MOL0     C  881   7.178   0.894   8.755 -0.2693  0.0106 -0.0141
  765MOL0     C  882   7.261   1.000   8.789  0.3327  0.3485 -0.6078
  765MOL0     O  883   7.362   0.970   8.878 -0.5131  0.7615  0.2585
  765MOL0     C  884   7.430   1.079   8.940  0.1046 -0.3187 -0.4809
  765MOL0     C  885   7.517   1.046   9.065 -0.6702 -0.7141  0.8754
  765MOL0     C  886   7.641   0.959   9.026  0.2474  0.1501 -0.2039
  765MOL0     C  887   7.689   0.897   9.158 -0.3594  0.7217  0.5174
  765MOL0     C  888   7.778   0.764   9.136  0.6494 -0.1182  1.1737
  765MOL0     C  889   7.907   0.808   9.060 -0.6642  0.0448  0.0838
  765MOL0     C  890   8.004   0.688   9.032  0.0061 -0.0573  1.2522
  765MOL0     C  891   8.144   0.721   8.973 -0.3068  0.2513  0.4023
  765MOL0    Cl  892   8.224   0.563   8.926 -0.0309  0.2021 -0.2334
  765MOL0     C  893   7.228   1.134   8.738 -0.6900  0.7285  0.7949
  765MOL0     C  894   7.100   1.150   8.666  0.3369  0.5647  0.2274
  765MOL0     O  895   6.827   1.175   8.748  0.1685 -0.3299 -0.3346
  765MOL0     C  896   6.662   1.111   8.431 -0.0526 -1.0797  0.0226
  765MOL0     C  897   6.541   1.147   8.356 -0.2877 -0.8581 -0.8729
  765MOL0     N  898   6.161   1.389   7.820 -0.0224 -0.0263  0.7879
  765MOL0     N  899   6.286   1.380   7.781 -0.0506 -0.7147 -0.8103
  765MOL0     C  900   7.154   1.501   8.254  0.0419 -0.5993  0.2596
  765MOL0     C  901   7.232   1.473   8.366  0.6060 -0.8512  0.0121
  765MOL0     C  902   7.565   1.391   8.641  0.6971  0.0338 -0.5752
  765MOL0     C  903   7.632   1.263   8.635  0.2018  1.0073  0.3177
  765MOL0     C  904   7.720   1.227   8.738  0.1528 -0.3210  0.3259
  765MOL0     C  905   7.732   1.311   8.856 -1.1821  0.1409  0.8435
  765MOL0     O  906   7.809   1.250   8.959  0.4939 -0.4657 -0.2489
  765MOL0     C  907   7.847   1.327   9.073  0.4706 -0.1392  0.4345
  765MOL0     C  908   7.935   1.230   9.160 -0.6708 -0.2029  0.3704
  765MOL0     C  909   8.087   1.204   9.105 -0.0547 -0.3900  0.1742
  765MOL0     C  910   8.163   1.106   9.187 -0.3247  0.0988 -0.1651
  765MOL0     C  911   8.311   1.112   9.161 -0.1722 -0.2165 -0.1777
  765MOL0     C  912   8.429   1.110   9.155 -0.6696  0.0951 -0.0896
  765MOL0     C  913   7.667   1.428   8.866  1.6130 -0.2886  0.7811
  765MOL0     C  914   7.582   1.467   8.755 -0.6198  0.6973 -0.3438
  765MOL0     H  915   7.487   1.324   8.194  0.7078  2.0849  0.3611
  765MOL0     H  916   7.365   1.434   8.010 -1.1631  0.7869 -0.9632
  765MOL0     H  917   7.206   1.708   7.948  0.9093 -2.3516 -2.2898
  765MOL0     H  918   7.085   1.716   8.081  1.2189 -2.2523  1.7734
  765MOL0     H  919   7.013   1.594   7.813 -1.5174  1.1316 -0.2169
  765MOL0     H  920   7.034   1.767   7.830  1.9212  0.0460  0.4851
  765MOL0     H  921   6.842   1.770   8.000 -1.0372 -2.7590  4.5380
  765MOL0     H  922   6.855   1.595   8.028  2.6695 -0.6735 -0.6925
  765MOL0     H  923   6.760   1.729   7.768 -0.5373  0.4775  0.2573
  765MOL0     H  924   6.776   1.556   7.789 -1.7608 -2.6604  1.5389
  765MOL0     H  925   6.541   1.625   7.817  1.0751 -2.9981 -0.6512
  765MOL0     H  926   6.599   1.750   7.935  1.3099 -0.8214  2.7662
  765MOL0     H  927   6.464   1.577   8.017  0.3591  0.3279 -0.5921
  765MOL0     H  928   6.619   1.600   8.099 -1.0886  0.4617  1.4944
  765MOL0     H  929   6.714   1.423   7.975 -0.4663  1.8399 -2.1178
  765MOL0     H  930   6.595   1.361   8.074 -1.0445  0.5875  0.2151
  765MOL0     H  931   6.561   1.260   7.856 -2.1699 -0.0320  0.8331
  765MOL0     H  932   6.560   1.410   7.765 -0.3493  3.3510  1.3135
  765MOL0     H  933   6.348   1.322   8.092 -2.6317 -1.6388  0.1883
  765MOL0     H  934   5.990   1.244   7.985 -0.4568 -0.8353  1.8369
  765MOL0     H  935   5.994   1.416   8.038  3.0612  2.4346  0.5963
  765MOL0     H  936   6.129   1.185   8.193  0.7197  0.4636  2.6900
  765MOL0     H  937   5.974   1.247   8.215 -0.8958  0.5468 -2.5735
  765MOL0     H  938   6.166   1.468   8.204 -0.9409 -0.8167 -2.0445
  765MOL0     H  939   6.035   1.432   8.319 -1.8343 -2.3920  0.0629
  765MOL0     H  940   6.158   1.282   8.443  1.7405  0.7182  1.6480
  765MOL0     H  941   6.258   1.431   8.425  1.1734 -0.2440 -0.1512
  765MOL0     H  942   6.394   1.361   8.563  0.3879 -0.5195 -0.1875
  765MOL0     H  943   6.599   1.296   8.705 -0.7800  4.1266 -1.6098
  765MOL0     H  944   7.012   0.812   8.658  0.4232  0.7967 -3.6900
  765MOL0     H  945   7.217   0.795   8.776  1.3919  0.9330  1.5547
  765MOL0     H  946   7.366   1.150   8.994  2.7456  0.8559  1.3413
  765MOL0     H  947   7.493   1.146   8.881 -1.2124  5.1779  3.4878
  765MOL0     H  948   7.458   1.001   9.146  0.0429 -0.6033  1.4686
  765MOL0     H  949   7.558   1.144   9.092  0.6399 -0.2785 -2.2487
  765MOL0     H  950   7.716   1.013   8.967 -1.8720 -0.6191 -3.9534
  765MOL0     H  951   7.610   0.872   8.967 -0.7327 -0.4966  1.2047
  765MOL0     H  952   7.771   0.958   9.199 -0.1255 -1.0954  3.0521
  765MOL0     H  953   7.608   0.874   9.228  0.5156  1.9623  1.9901
  765MOL0     H  954   7.726   0.691   9.072  0.7216 -1.3086  2.4308
  765MOL0     H  955   7.812   0.723   9.231  2.0981 -1.6904  0.0489
  765MOL0     H  956   7.962   0.874   9.127  1.2255 -1.2876 -0.1001
  765MOL0     H  957   7.875   0.857   8.967  1.3903 -1.4734 -1.4923
  765MOL0     H  958   8.020   0.639   9.128  1.2135  0.1912  1.1956
  765MOL0     H  959   7.957   0.611   8.971 -2.8945  2.9419 -0.6445
  765MOL0     H  960   8.206   0.759   9.054  1.8738  0.0195 -1.0899
  765MOL0     H  961   8.135   0.786   8.885  0.9737 -1.8143 -1.3590
  765MOL0     H  962   7.291   1.221   8.755 -0.8034  0.6512  1.6556
  765MOL0     H  963   7.071   1.251   8.639  3.5798  1.4760 -0.2027
  765MOL0     H  964   6.724   1.040   8.378 -0.8494 -0.8991 -1.1970
  765MOL0     H  965   6.515   1.108   8.258  1.6475 -4.6021 -0.0718
  765MOL0     H  966   7.049   1.524   8.266  0.6376  2.1829  1.1962
  765MOL0     H  967   7.176   1.487   8.458 -1.3130 -0.5094 -1.1587
  765MOL0     H  968   7.631   1.191   8.553 -0.6947 -3.2311  3.6579
  765MOL0     H  969   7.778   1.135   8.726  1.1288  0.3900 -0.6423
  765MOL0     H  970   7.763   1.371   9.127  1.7874  2.4847  0.5203
  765MOL0     H  971   7.899   1.409   9.023 -2.0196 -0.9421 -4.0188
  765MOL0     H  972   7.961   1.273   9.257  0.2336 -3.5506  1.7447
  765MOL0     H  973   7.875   1.139   9.172 -0.4154 -0.4118  0.0765
  765MOL0     H  974   8.140   1.299   9.092 -2.5160  1.3292  1.9065
  765MOL0     H  975   8.080   1.150   9.010  0.5235 -2.2490  1.1553
  765MOL0     H  976   8.153   1.118   9.295  1.2266 -1.3149  0.1783
  765MOL0     H  977   8.126   1.004   9.174  2.4342 -1.2617  1.6892
  765MOL0     H  978   8.534   1.105   9.137 -0.7474  0.3422 -0.6320
  765MOL0     H  979   7.675   1.495   8.951  1.9889 -0.5759  0.9747
  765MOL0     H  980   7.519   1.555   8.761 -1.1647  0.4240 -1.8174
  766MOL0     O  981   7.865   8.774   1.075 -1.2418  0.4832 -0.9543
  766MOL0     C  982   7.843   8.682   1.159 -0.3388  0.8152  0.3104
  766MOL0     O  983   7.940   8.621   1.226 -0.1581  0.0494  0.2612
  766MOL0     C  984   8.072   8.647   1.208  0.6742 -0.2559 -0.2498
  766MOL0     C  985   8.150   8.550   1.264 -0.0787  1.5838 -0.0529
  766MOL0     C  986   8.287   8.553   1.272 -0.6363  0.0844 -0.7405
  766MOL0     C  987   8.351   8.670   1.228 -0.6526  0.4052 -0.4275
  766MOL0     O  988   8.483   8.698   1.265  0.2365  0.2045 -0.1413
  766MOL0     C  989   8.573   8.595   1.292  0.0249 -0.0438 -0.1313
  766MOL0     C  990   8.711   8.666   1.273  0.2344 -0.1734 -0.8479
  766MOL0     C  991   8.824   8.567   1.249 -0.3366  0.3044  0.4006
  766MOL0     C  992   8.961   8.636   1.283  0.1038  0.1229  0.7852
  766MOL0     C  993   9.076   8.538   1.262  0.6742 -0.0973 -0.0858
  766MOL0     C  994   9.209   8.610   1.252  0.1203  1.3256  0.6779
  766MOL0     C  995   9.313   8.518   1.190 -0.7350  0.3486 -0.0172
  766MOL0     C  996   9.447   8.568   1.187 -0.3177 -0.9896  0.0645
  766MOL0     N  997   9.547   8.471   1.145 -0.1939 -0.0812  0.6992
  766MOL0     C  998   9.530   8.371   1.050  0.1799  0.6274  0.2441
  766MOL0     C  999   9.640   8.300   1.059  0.7279  0.1747 -0.2267
  766MOL0     C 1000   9.670   8.167   0.991  0.1517 -0.1061 -0.0405
  766MOL0     C 1001   9.744   8.050   1.074 -0.7730 -0.0030  0.5179
  766MOL0     C 1002   9.650   7.969   1.162 -0.3947 -0.2902 -0.7048
  766MOL0     C 1003   9.554   8.060   1.248  0.4117 -0.4161 -0.2144
  766MOL0     O 1004   9.459   7.981   1.320 -0.2671  0.2554  0.3032
  766MOL0     C 1005   9.354   8.039   1.388  0.7967 -0.0801  0.3895
  766MOL0     C 1006   9.238   7.953   1.422 -0.3853 -0.3152  0.4894
  766MOL0     C 1007   9.133   8.002   1.497  1.0386  0.7692 -0.3396
  766MOL0     C 1008   9.135   8.138   1.537  0.5832 -1.2656 -0.4683
  766MOL0     C 1009   9.016   8.205   1.613 -1.3813  0.1549 -0.2831
  766MOL0     O 1010   9.035   8.336   1.650 -0.6973  0.0517  0.2251
  766MOL0     C 1011   8.935   8.403   1.717 -0.4210 -1.0503 -1.4191
  766MOL0     C 1012   8.805   8.418   1.684  0.1119 -1.2722  1.0757
  766MOL0     C 1013   8.719   8.515   1.745  0.7608 -0.0520 -0.2104
  766MOL0     C 1014   8.769   8.592   1.851 -0.4657 -0.1562 -0.4262
  766MOL0     O 1015   8.700   8.664   1.949  1.0963  1.0295 -0.1900
  766MOL0     C 1016   8.566   8.616   1.987  0.7949 -0.0988 -0.7576
  766MOL0     C 1017   8.490   8.708   2.087 -0.0197 -0.7532 -0.5844
  766MOL0     C 1018   8.359   8.662   2.128 -0.1953 -0.6426  0.1885
  766MOL0     C 1019   8.321   8.723   2.269 -0.7075 -0.0128  0.5211
  766MOL0     C 1020   8.187   8.684   2.313  0.7918 -0.4684 -0.5492
  766MOL0     C 1021   8.081   8.710   2.209 -0.4100 -0.5372 -0.0118
  766MOL0     C 1022   7.932   8.711   2.249 -0.6141 -1.0494 -1.1510
  766MOL0     C 1023   7.889   8.614   2.365 -0.7414 -0.4077  0.3461
  766MOL0    Cl 1024   7.722   8.638   2.400  0.3078 -0.1107 -0.1878
  766MOL0     C 1025   8.907   8.582   1.891 -0.9428 -0.1980  0.0537
  766MOL0     C 1026   8.989   8.490   1.820  0.5685  0.1403 -0.7248
  766MOL0     O 1027   8.911   8.145   1.634 -0.3680  0.4954  0.7468
  766MOL0     C 1028   9.253   8.215   1.518 -0.9333  0.4942  0.0153
  766MOL0     C 1029   9.355   8.172   1.439 -0.6755 -1.6978 -0.0505
  766MOL0     N 1030   9.728   8.363   1.141  1.0255  0.1899 -0.5762
  766MOL0     N 1031   9.675   8.463   1.198  0.0954 -0.0120  0.9323
  766MOL0     C 1032   8.274   8.766   1.165  0.1935 -0.6136  0.5507
  766MOL0     C 1033   8.140   8.757   1.155 -0.0109  0.0942 -0.3702
  766MOL0     C 1034   7.702   8.634   1.185 -0.5992  0.6431 -0.3579
  766MOL0     C 1035   7.677   8.542   1.288 -0.4046  0.2200  0.6457
  766MOL0     C 1036   7.545   8.502   1.302  0.0042 -0.6219 -0.4141
  766MOL0     C 1037   7.439   8.540   1.220 -1.1217  0.6155  0.5692
  766MOL0     O 1038   7.304   8.506   1.238  0.1484 -0.2218  0.1687
  766MOL0     C 1039   7.278   8.365   1.237 -0.2945 -0.3736  0.0687
  766MOL0     C 1040   7.146   8.341   1.305 -1.1069  0.0112 -0.6088
  766MOL0     C 1041   7.110   8.202   1.353 -0.3481 -0.3458 -0.2428
  766MOL0     C 1042   7.185   8.166   1.479  0.6615 -0.1286  0.4843
  766MOL0     C 1043   7.100   8.054   1.527  0.2311 -0.4740  0.0844
  766MOL0     C 1044   7.022   7.972   1.573 -0.7139  0.3310  0.2307
  766MOL0     C 1045   7.472   8.633   1.111  1.6627  0.5380  0.3184
  766MOL0     C 1046   7.600   8.686   1.100 -0.8555  0.9031 -0.8586
  766MOL0     H 1047   8.098   8.475   1.323  0.0230 -1.2392 -3.2510
  766MOL0     H 1048   8.341   8.468   1.313 -1.2779  0.5393  1.1968
  766MOL0     H 1049   8.560   8.516   1.217  0.0926  0.0773 -0.2715
  766MOL0     H 1050   8.555   8.562   1.395  2.8803 -0.6455  0.2641
  766MOL0     H 1051   8.731   8.724   1.363  4.4324 -4.2635  1.2840
  766MOL0     H 1052   8.717   8.740   1.193  1.7173  2.6625  1.7209
  766MOL0     H 1053   8.808   8.531   1.147 -1.8692  1.6363  0.1309
  766MOL0     H 1054   8.827   8.478   1.312 -0.1658  0.0945  0.1024
  766MOL0     H 1055   8.978   8.721   1.216  1.7085 -0.9651 -0.2595
  766MOL0     H 1056   8.970   8.659   1.390  2.0658 -1.0037  0.9052
  766MOL0     H 1057   9.062   8.483   1.168  1.4332 -0.5999  0.0848
  766MOL0     H 1058   9.094   8.470   1.346  1.6272  0.3346  0.0642
  766MOL0     H 1059   9.246   8.645   1.348  0.6918  1.9207  0.2500
  766MOL0     H 1060   9.205   8.698   1.187  3.0793  1.1712  0.1789
  766MOL0     H 1061   9.316   8.432   1.257 -1.2401  0.6935  0.4563
  766MOL0     H 1062   9.289   8.488   1.087 -1.6266 -1.3599  0.6364
  766MOL0     H 1063   9.478   8.592   1.289  1.1292 -0.3436 -0.4948
  766MOL0     H 1064   9.450   8.665   1.136 -4.1948 -1.6114 -1.7673
  766MOL0     H 1065   9.448   8.333   0.990  3.0425 -3.6894 -1.3462
  766MOL0     H 1066   9.725   8.184   0.898  1.7804  0.3894  0.9640
  766MOL0     H 1067   9.582   8.118   0.950  1.7860 -3.7189  0.3650
  766MOL0     H 1068   9.837   8.095   1.111  1.2919 -0.9282 -3.0030
  766MOL0     H 1069   9.785   7.984   0.996  0.4358 -0.5536  1.5798
  766MOL0     H 1070   9.592   7.907   1.094 -1.4062  0.9746 -1.0369
  766MOL0     H 1071   9.707   7.903   1.229 -0.4075  0.4410  0.0496
  766MOL0     H 1072   9.502   8.125   1.176  0.0599 -0.1384  0.2851
  766MOL0     H 1073   9.606   8.133   1.311  0.8820 -1.5473  0.7366
  766MOL0     H 1074   9.247   7.856   1.374  1.5216  1.4726 -3.2320
  766MOL0     H 1075   9.046   7.940   1.513  1.5938 -0.0696 -0.5090
  766MOL0     H 1076   8.775   8.361   1.597  1.0674 -1.6798  1.0125
  766MOL0     H 1077   8.616   8.520   1.709 -0.5025 -1.0341  2.8991
  766MOL0     H 1078   8.574   8.515   2.028 -0.2402 -0.7122 -1.9873
  766MOL0     H 1079   8.500   8.611   1.900 -0.4900  1.0116  0.1053
  766MOL0     H 1080   8.474   8.798   2.027 -3.6413 -0.4916  0.5453
  766MOL0     H 1081   8.545   8.718   2.180 -1.3415  1.5400  0.0340
  766MOL0     H 1082   8.364   8.554   2.145  0.8340 -0.6256  0.0550
  766MOL0     H 1083   8.290   8.688   2.047  0.6936 -1.7398 -0.9616
  766MOL0     H 1084   8.387   8.685   2.347  0.1511  0.6881  0.1582
  766MOL0     H 1085   8.337   8.831   2.270  1.5767 -0.2993  0.6246
  766MOL0     H 1086   8.167   8.751   2.397  0.2291 -2.8981  1.3612
  766MOL0     H 1087   8.183   8.580   2.347  2.1148 -0.1802  0.5975
  766MOL0     H 1088   8.093   8.624   2.143  0.6844  0.5122 -1.2263
  766MOL0     H 1089   8.094   8.808   2.164  0.3310  1.3540  3.8700
  766MOL0     H 1090   7.912   8.814   2.280  1.1129 -0.8164 -0.6817
  766MOL0     H 1091   7.868   8.689   2.163 -0.5932  0.2007 -1.5011
  766MOL0     H 1092   7.959   8.626   2.448  4.3261  1.6305 -3.7155
  766MOL0     H 1093   7.914   8.513   2.331  1.9064  0.1738  0.3340
  766MOL0     H 1094   8.958   8.638   1.968  2.0214 -3.7432  0.9600
  766MOL0     H 1095   9.095   8.500   1.840 -0.0217  3.5104  1.6964
  766MOL0     H 1096   9.277   8.311   1.562 -2.8160  0.2127  1.7991
  766MOL0     H 1097   9.444   8.234   1.429 -1.3984 -0.8368 -1.3962
  766MOL0     H 1098   8.341   8.845   1.133  0.2074 -1.2649 -1.1177
  766MOL0     H 1099   8.097   8.844   1.108  0.1042 -0.4721 -1.5636
  766MOL0     H 1100   7.763   8.509   1.344  2.3806 -0.8380 -3.7755
  766MOL0     H 1101   7.526   8.435   1.385 -2.0421  1.7969  1.2523
  766MOL0     H 1102   7.363   8.313   1.281 -2.5388 -0.9758  4.2869
  766MOL0     H 1103   7.268   8.327   1.135  1.2816 -2.2008  0.5534
  766MOL0     H 1104   7.132   8.400   1.396 -1.6577  0.9115 -1.2617
  766MOL0     H 1105   7.065   8.377   1.241 -2.5432  1.1720  1.7153
  766MOL0     H 1106   7.125   8.126   1.275 -1.3179 -0.1044 -0.6684
  766MOL0     H 1107   7.002   8.204   1.367 -0.4952 -1.7185 -1.0550
  766MOL0     H 1108   7.290   8.137   1.470  0.6944  0.1669 -0.1482
  766MOL0     H 1109   7.174   8.255   1.542 -2.5915 -0.0742  0.0285
  766MOL0     H 1110   6.954   7.901   1.614  2.6760 -2.2558  1.9026
  766MOL0     H 1111   7.404   8.657   1.030 -0.4997 -0.3710  1.7624
  766MOL0     H 1112   7.624   8.746   1.013 -0.9717 -1.3563 -2.5686
  767MOL0     O 1113   8.133   9.885   2.790 -0.7986 -0.4794 -0.5356
  767MOL0     C 1114   8.150   9.784   2.858 -0.5434  0.1939  0.4230
  767MOL0     O 1115   8.055   9.691   2.884 -0.1757 -0.7008  0.4439
  767MOL0     C 1116   7.938   9.700   2.816 -0.9981  0.4417 -0.4212
  767MOL0     C 1117   7.831   9.786   2.850 -0.8878 -0.2248 -0.3528
  767MOL0     C 1118   7.720   9.779   2.772  0.5613  0.0078 -0.2360
  767MOL0     C 1119   7.703   9.694   2.662  0.0077  0.3770  0.4510
  767MOL0     O 1120   7.576   9.701   2.610  0.3758 -0.2469  0.6720
  767MOL0     C 1121   7.568   9.638   2.474  0.2944  0.8020 -0.0572
  767MOL0     C 1122   7.417   9.642   2.440  0.3097 -0.8463  0.2734
  767MOL0     C 1123   7.349   9.791   2.438  0.7890 -0.6774  0.1572
  767MOL0     C 1124   7.356   9.868   2.305 -0.1142 -0.1332  0.1490
  767MOL0     C 1125   7.314  10.024   2.321 -0.1522  0.5650  0.6666
  767MOL0     C 1126   7.428  10.112   2.260 -0.2701  0.1923  0.0006
  767MOL0     C 1127   7.411  10.118   2.113  0.0778  0.2184  0.6014
  767MOL0     C 1128   7.523  10.191   2.057 -0.3472  0.1611 -0.9775
  767MOL0     N 1129   7.524  10.204   1.913  0.7454  0.5353  0.1221
  767MOL0     C 1130   7.637  10.209   1.848 -0.2410  0.7679  0.6963
  767MOL0     C 1131   7.612  10.165   1.720  0.2612 -0.1774  0.1084
  767MOL0     C 1132   7.709  10.192   1.613 -0.0497  0.2022 -0.6578
  767MOL0     C 1133   7.773  10.076   1.569 -0.4401 -1.0032  0.5528
  767MOL0     C 1134   7.892  10.100   1.470 -0.0987  0.0561 -0.7128
  767MOL0     C 1135   7.860  10.163   1.330 -0.3727  0.1224 -0.5097
  767MOL0     O 1136   7.981  10.199   1.250 -0.6702 -0.1925 -0.3326
  767MOL0     C 1137   7.990  10.110   1.145 -0.0293 -0.3299 -0.6170
  767MOL0     C 1138   7.985  10.160   1.016  0.0945  0.6232  0.0254
  767MOL0     C 1139   7.981  10.073   0.904 -0.3594 -0.0539 -0.4264
  767MOL0     C 1140   7.994   9.933   0.915  0.5201  1.1127  1.0957
  767MOL0     C 1141   8.021   9.844   0.795  0.6336 -0.2444 -0.5902
  767MOL0     O 1142   8.044   9.709   0.821 -0.1665 -0.1451  0.4399
  767MOL0     C 1143   8.092   9.642   0.705  0.2102  0.1649 -0.2668
  767MOL0     C 1144   8.213   9.673   0.633  0.2761  0.5848  0.3556
  767MOL0     C 1145   8.233   9.612   0.503 -0.5231 -0.2581 -0.4740
  767MOL0     C 1146   8.156   9.509   0.460  0.2432 -0.3495  0.8755
  767MOL0     O 1147   8.176   9.452   0.338 -0.5277 -0.9343 -0.3958
  767MOL0     C 1148   8.260   9.516   0.240 -0.1070  1.3872  0.0267
  767MOL0     C 1149   8.262   9.438   0.104 -0.2728 -0.2375 -0.0017
  767MOL0     C 1150   8.137   9.450   0.021 -0.9834  0.2759 -0.1719
  767MOL0     C 1151   8.123   9.365  -0.102 -0.4333 -0.4392  0.7014
  767MOL0     C 1152   8.017   9.409  -0.201  0.4641  0.2951  0.3340
  767MOL0     C 1153   8.028   9.337  -0.342  1.6578 -0.1946  0.0167
  767MOL0     C 1154   7.922   9.365  -0.440 -0.1193  0.4744  0.0851
  767MOL0     C 1155   7.952   9.288  -0.572  0.5333 -0.6653  0.7141
  767MOL0    Cl 1156   8.006   9.119  -0.554 -0.0067  0.4241 -0.1126
  767MOL0     C 1157   8.054   9.462   0.534 -0.1356  0.4997  0.6784
  767MOL0     C 1158   8.026   9.528   0.656  0.4409 -0.0554 -0.4411
  767MOL0     O 1159   8.016   9.895   0.685 -0.1209  0.6952  0.2786
  767MOL0     C 1160   8.010   9.877   1.037 -0.2416 -0.4729 -0.9195
  767MOL0     C 1161   8.009   9.965   1.152  0.7670  0.2188  0.2494
  767MOL0     N 1162   7.479  10.134   1.714 -0.3576  0.8832 -0.0928
  767MOL0     N 1163   7.424  10.165   1.827  0.5760  0.9643 -0.0956
  767MOL0     C 1164   7.803   9.603   2.645 -0.2330 -0.3404 -0.3153
  767MOL0     C 1165   7.913   9.599   2.725 -0.2502 -0.2456 -0.4028
  767MOL0     C 1166   8.287   9.768   2.934  0.2220  1.1154  0.6991
  767MOL0     C 1167   8.315   9.656   3.017  1.8098  0.4729 -0.7065
  767MOL0     C 1168   8.437   9.648   3.081 -0.0850 -0.2209 -0.2146
  767MOL0     C 1169   8.543   9.743   3.062  0.1202  0.8440  0.6504
  767MOL0     O 1170   8.671   9.739   3.124  0.3440 -0.7285 -0.5134
  767MOL0     C 1171   8.682   9.649   3.238  0.3621  0.1590 -0.2468
  767MOL0     C 1172   8.827   9.621   3.296  1.0194  0.8145  0.2545
  767MOL0     C 1173   8.932   9.574   3.199 -0.3531 -0.4638  0.4297
  767MOL0     C 1174   9.071   9.563   3.279  0.7494 -0.3936 -0.1031
  767MOL0     C 1175   9.129   9.705   3.295  1.0106  0.1397  0.2945
  767MOL0     C 1176   9.172   9.825   3.296  0.8090 -0.0291  1.0921
  767MOL0     C 1177   8.512   9.858   2.986  1.5754  0.7135 -0.6445
  767MOL0     C 1178   8.379   9.866   2.921 -0.4501  0.0898 -0.3576
  767MOL0     H 1179   7.837   9.851   2.937 -0.9011 -0.1288 -0.4230
  767MOL0     H 1180   7.631   9.836   2.795 -0.3406 -0.2537 -2.7381
  767MOL0     H 1181   7.612   9.538   2.480  1.8062  1.0863 -3.5471
  767MOL0     H 1182   7.622   9.704   2.405 -2.7645  1.2986 -2.1950
  767MOL0     H 1183   7.360   9.595   2.521  1.1592  0.8528  1.9656
  767MOL0     H 1184   7.395   9.588   2.348  1.6727  0.7752 -1.0655
  767MOL0     H 1185   7.384   9.852   2.521 -2.2933  1.3637  0.1208
  767MOL0     H 1186   7.245   9.774   2.465  0.5225 -1.5423 -1.2457
  767MOL0     H 1187   7.464   9.867   2.286 -0.5525 -2.2422 -2.9606
  767MOL0     H 1188   7.294   9.828   2.224  2.2595 -1.5967 -1.0451
  767MOL0     H 1189   7.310  10.040   2.429 -0.7769  0.7002  0.6315
  767MOL0     H 1190   7.215  10.052   2.281  0.7422 -0.1048 -2.2908
  767MOL0     H 1191   7.525  10.073   2.291  0.3182  0.4642 -1.3883
  767MOL0     H 1192   7.432  10.216   2.294  2.1595 -0.4208  1.8579
  767MOL0     H 1193   7.415  10.017   2.071  3.6883 -0.0972  1.3914
  767MOL0     H 1194   7.317  10.170   2.092 -0.9292 -2.3850 -2.0610
  767MOL0     H 1195   7.618  10.142   2.079  0.1998  1.8829  0.6844
  767MOL0     H 1196   7.533  10.294   2.093 -1.0243 -0.1940  0.3053
  767MOL0     H 1197   7.731  10.250   1.882 -1.1266  1.9566  1.8002
  767MOL0     H 1198   7.782  10.262   1.655 -0.4311  2.0665 -2.8891
  767MOL0     H 1199   7.661  10.241   1.527  3.0261 -1.9050 -3.8271
  767MOL0     H 1200   7.697  10.020   1.514 -1.8146 -0.0365  1.4138
  767MOL0     H 1201   7.798  10.017   1.658 -0.0336 -0.7480  0.6109
  767MOL0     H 1202   7.965  10.160   1.525 -1.8244 -0.9383  2.9141
  767MOL0     H 1203   7.929   9.999   1.449  0.9820 -0.3188  2.5560
  767MOL0     H 1204   7.821  10.264   1.345  0.5569  0.2820  1.0415
  767MOL0     H 1205   7.780  10.115   1.272 -3.5067  2.9292  1.1543
  767MOL0     H 1206   7.985  10.262   0.979  2.8567  0.3607 -0.8760
  767MOL0     H 1207   7.977  10.123   0.807  3.0166  1.4457  0.0523
  767MOL0     H 1208   8.285   9.743   0.674 -1.4073  3.4801 -1.3259
  767MOL0     H 1209   8.318   9.645   0.444 -0.6508  0.9362 -0.0300
  767MOL0     H 1210   8.366   9.505   0.267  0.1404 -0.6734 -1.5197
  767MOL0     H 1211   8.235   9.622   0.226 -0.5693  1.1029 -1.4617
  767MOL0     H 1212   8.284   9.338   0.142  2.3710  1.1283  2.5112
  767MOL0     H 1213   8.340   9.468   0.034 -1.6992 -0.3676 -1.7157
  767MOL0     H 1214   8.139   9.556  -0.006 -2.1780  0.0828 -1.0858
  767MOL0     H 1215   8.040   9.430   0.068 -0.5420 -2.8646 -0.3750
  767MOL0     H 1216   8.216   9.355  -0.159 -1.1664 -0.0222 -0.6021
  767MOL0     H 1217   8.101   9.262  -0.072 -2.9238 -0.3810 -0.6760
  767MOL0     H 1218   8.030   9.517  -0.218  2.2162  0.1271  0.4069
  767MOL0     H 1219   7.912   9.410  -0.172  0.3346 -0.8383 -0.0271
  767MOL0     H 1220   8.021   9.232  -0.313 -3.6457  0.2226  1.2759
  767MOL0     H 1221   8.125   9.354  -0.390  0.8795 -0.5568 -1.7751
  767MOL0     H 1222   7.825   9.335  -0.399  1.2219 -0.5989  2.7324
  767MOL0     H 1223   7.917   9.468  -0.477 -1.0430 -0.0399 -1.3008
  767MOL0     H 1224   8.024   9.344  -0.632 -1.8857  0.3002 -1.5025
  767MOL0     H 1225   7.867   9.287  -0.641  0.8202  1.5633  0.2383
  767MOL0     H 1226   7.995   9.379   0.497 -0.2989  0.8171  0.2170
  767MOL0     H 1227   7.947   9.497   0.723  0.6029  3.2018  1.4526
  767MOL0     H 1228   8.023   9.772   1.058  0.2924 -0.4795 -1.2551
  767MOL0     H 1229   7.998   9.918   1.250  0.0921  0.5967  0.3612
  767MOL0     H 1230   7.801   9.530   2.565 -0.2460 -0.3663 -0.2907
  767MOL0     H 1231   7.991   9.524   2.714  2.3461  2.1249  0.5693
  767MOL0     H 1232   8.245   9.576   3.034  2.1830 -0.0312 -1.5010
  767MOL0     H 1233   8.461   9.552   3.125  1.8586 -0.8361 -2.3728
  767MOL0     H 1234   8.646   9.553   3.199 -0.3884  0.1645  0.4219
  767MOL0     H 1235   8.614   9.679   3.318  0.7166 -1.3191  0.6560
  767MOL0     H 1236   8.876   9.711   3.335  0.7086  0.5888  1.2069
  767MOL0     H 1237   8.816   9.546   3.374 -1.4684  2.2133  1.3802
  767MOL0     H 1238   8.939   9.645   3.116 -2.2845 -1.5933 -0.7583
  767MOL0     H 1239   8.897   9.479   3.158  1.1924 -0.9070  0.0697
  767MOL0     H 1240   9.055   9.510   3.373  2.2689  1.2488  1.1489
  767MOL0     H 1241   9.134   9.505   3.210  1.4646  2.1870 -1.7737
  767MOL0     H 1242   9.206   9.926   3.303  0.3314  0.1892  0.3637
  767MOL0     H 1243   8.582   9.939   2.971  0.8809  1.2645 -0.9642
  767MOL0     H 1244   8.359   9.949   2.854  0.8455 -0.7453 -1.8459
  768MOL0     O 1245   6.823  10.591   3.420  0.6487  0.4559  0.6712
  768MOL0     C 1246   6.877  10.542   3.315  0.5886 -0.1676 -0.1539
  768MOL0     O 1247   6.956  10.615   3.234  0.3555  1.0430  0.4702
  768MOL0     C 1248   6.972  10.750   3.256 -1.0319  0.2943 -0.8651
  768MOL0     C 1249   7.100  10.812   3.236 -0.0725  0.1746 -0.2399
  768MOL0     C 1250   7.124  10.945   3.255 -0.6236  0.0757 -0.3404
  768MOL0     C 1251   7.017  11.029   3.309 -1.3200 -0.6027  0.6340
  768MOL0     O 1252   7.039  11.160   3.343 -0.2598 -0.0272  0.3048
  768MOL0     C 1253   7.170  11.214   3.312  0.0791 -0.9660  0.1151
  768MOL0     C 1254   7.177  11.370   3.323 -0.6009  0.4700  0.9931
  768MOL0     C 1255   7.314  11.425   3.292 -0.8110 -1.0795 -0.3315
  768MOL0     C 1256   7.379  11.384   3.160  0.3530  0.6346 -0.2085
  768MOL0     C 1257   7.497  11.467   3.124  0.6817 -0.4151  0.5359
  768MOL0     C 1258   7.612  11.462   3.230  0.3034  0.1297  0.5060
  768MOL0     C 1259   7.752  11.498   3.169  0.7028 -0.3582 -0.8711
  768MOL0     C 1260   7.870  11.453   3.252  0.2053  0.3693  0.5755
  768MOL0     N 1261   7.991  11.480   3.183 -0.2945  0.3855  0.3876
  768MOL0     C 1262   8.092  11.571   3.214 -0.0181 -0.2662 -0.9200
  768MOL0     C 1263   8.180  11.573   3.108 -0.0018 -0.1190 -0.8695
  768MOL0     C 1264   8.314  11.648   3.108  0.6125 -0.4768  0.2243
  768MOL0     C 1265   8.285  11.792   3.144 -0.6350 -0.0993  0.5453
  768MOL0     C 1266   8.408  11.890   3.136  0.4235  1.1814 -0.8072
  768MOL0     C 1267   8.449  11.914   2.989 -0.5230  0.8135  0.9109
  768MOL0     O 1268   8.346  11.979   2.917  0.6798  0.0171 -0.9963
  768MOL0     C 1269   8.356  12.029   2.795 -0.7479  0.8736 -0.2673
  768MOL0     C 1270   8.455  11.990   2.703 -0.2813 -0.6526 -0.4555
  768MOL0     C 1271   8.462  12.044   2.580  0.2409 -0.3551 -0.7990
  768MOL0     C 1272   8.370  12.130   2.538 -0.2069  0.3448  1.2037
  768MOL0     C 1273   8.371  12.187   2.402  1.1528 -1.0235 -0.6208
  768MOL0     O 1274   8.254  12.260   2.365  0.6731 -0.4949 -0.5329
  768MOL0     C 1275   8.190  12.263   2.238  0.4927 -0.6014 -0.8800
  768MOL0     C 1276   8.119  12.378   2.189 -0.9008  0.7545 -0.3090
  768MOL0     C 1277   8.052  12.372   2.067  0.0275  0.3060 -0.3691
  768MOL0     C 1278   8.062  12.246   1.988  0.5191 -0.6512 -0.2308
  768MOL0     O 1279   8.016  12.229   1.864  0.6087  0.3193  0.3228
  768MOL0     C 1280   7.876  12.200   1.846 -0.0195  0.5809  0.7313
  768MOL0     C 1281   7.840  12.046   1.824 -0.0462 -0.2049 -0.1066
  768MOL0     C 1282   7.853  11.960   1.955 -0.5945  0.0291 -0.5226
  768MOL0     C 1283   7.799  12.030   2.082 -0.9163  0.3851 -0.1129
  768MOL0     C 1284   7.797  11.933   2.202  0.4053 -0.2626  0.8331
  768MOL0     C 1285   7.675  11.963   2.284 -0.2150 -0.0701 -0.5581
  768MOL0     C 1286   7.672  12.094   2.363 -0.4528  0.2838  0.5179
  768MOL0     C 1287   7.782  12.100   2.475  0.2640 -0.2523  0.6714
  768MOL0    Cl 1288   7.768  12.258   2.562  0.5913 -0.1587  0.0398
  768MOL0     C 1289   8.140  12.143   2.034 -1.1159 -0.0806 -0.2508
  768MOL0     C 1290   8.198  12.150   2.158 -0.5788 -0.0866 -0.9549
  768MOL0     O 1291   8.469  12.168   2.331  0.5276 -0.1068 -0.2331
  768MOL0     C 1292   8.257  12.156   2.616  0.1815  1.1331 -0.9867
  768MOL0     C 1293   8.257  12.117   2.756  0.1977 -0.3402  1.6565
  768MOL0     N 1294   8.146  11.485   3.021  0.0312  0.0668  0.2028
  768MOL0     N 1295   8.031  11.427   3.066 -0.3484  0.3857  0.0292
  768MOL0     C 1296   6.890  10.975   3.314  0.5395  0.1904  0.8689
  768MOL0     C 1297   6.865  10.837   3.292  0.4205  0.1430  0.5831
  768MOL0     C 1298   6.855  10.400   3.285 -0.2836 -0.8833 -0.9395
  768MOL0     C 1299   6.936  10.320   3.196 -0.4837  0.6867  0.3681
  768MOL0     C 1300   6.917  10.181   3.194 -0.1235  1.7877  0.0942
  768MOL0     C 1301   6.821  10.110   3.275 -0.5870 -0.5032 -1.2470
  768MOL0     O 1302   6.824   9.973   3.292 -0.3191 -0.6976 -0.2378
  768MOL0     C 1303   6.923   9.895   3.218  0.2955 -0.3284 -1.5645
  768MOL0     C 1304   6.917   9.745   3.257 -0.6375 -0.0319 -0.0485
  768MOL0     C 1305   6.896   9.719   3.406  0.1721  0.3600  0.4628
  768MOL0     C 1306   7.026   9.752   3.475 -0.3930  0.2459  0.6254
  768MOL0     C 1307   7.013   9.746   3.616  0.3842 -0.0737  0.3711
  768MOL0     C 1308   6.996   9.738   3.731 -0.3963 -0.6443 -0.0160
  768MOL0     C 1309   6.744  10.191   3.365 -1.0202  0.2926 -0.5944
  768MOL0     C 1310   6.764  10.334   3.367  0.5547  0.2201 -1.2329
  768MOL0     H 1311   7.174  10.745   3.195  0.4829  0.8151 -0.2971
  768MOL0     H 1312   7.227  10.979   3.254 -0.4854 -0.3259 -1.7460
  768MOL0     H 1313   7.192  11.204   3.206  0.0250  2.5698 -0.3302
  768MOL0     H 1314   7.253  11.172   3.370 -0.8419 -0.2164  2.0648
  768MOL0     H 1315   7.153  11.390   3.428 -3.2674  0.8466  0.3966
  768MOL0     H 1316   7.103  11.423   3.262 -0.9288  0.7074  1.5902
  768MOL0     H 1317   7.383  11.401   3.374 -4.1890  0.3554  3.2750
  768MOL0     H 1318   7.308  11.534   3.305  2.9769 -0.8553  0.7784
  768MOL0     H 1319   7.418  11.283   3.178  1.0659  1.1714  1.4173
  768MOL0     H 1320   7.308  11.368   3.078 -1.1483 -0.4590  1.2356
  768MOL0     H 1321   7.464  11.571   3.117 -1.0071 -0.9756 -0.3461
  768MOL0     H 1322   7.528  11.433   3.025 -1.8664 -0.0613 -0.4589
  768MOL0     H 1323   7.621  11.368   3.285  3.1055 -0.0290 -0.0525
  768MOL0     H 1324   7.590  11.543   3.300 -1.1050 -0.3484  0.6453
  768MOL0     H 1325   7.749  11.441   3.076 -1.9147 -0.2360 -0.9163
  768MOL0     H 1326   7.759  11.605   3.148 -2.6097  0.0441 -0.4065
  768MOL0     H 1327   7.864  11.347   3.279  2.4144 -0.3823 -1.5557
  768MOL0     H 1328   7.876  11.506   3.348  1.7890  1.1585  0.0777
  768MOL0     H 1329   8.112  11.613   3.312  1.2649 -2.7186 -0.0326
  768MOL0     H 1330   8.365  11.634   3.013 -1.2423 -2.1118 -0.6021
  768MOL0     H 1331   8.372  11.595   3.184  1.3560  0.7262  0.5318
  768MOL0     H 1332   8.249  11.800   3.247 -0.1069 -3.8064  1.1297
  768MOL0     H 1333   8.206  11.832   3.080 -0.2176  0.9688  0.6568
  768MOL0     H 1334   8.369  11.979   3.186  3.7756  1.2531  2.1102
  768MOL0     H 1335   8.497  11.851   3.187  0.7289 -1.6252 -3.2610
  768MOL0     H 1336   8.471  11.816   2.947  1.5660  1.2917  0.7387
  768MOL0     H 1337   8.539  11.978   2.983  1.9028 -2.2775  1.8631
  768MOL0     H 1338   8.534  11.917   2.717  0.5024  0.5828  2.1994
  768MOL0     H 1339   8.544  12.012   2.516 -1.1467 -4.1688 -0.9131
  768MOL0     H 1340   8.116  12.469   2.246  0.8674  0.2521  0.6575
  768MOL0     H 1341   8.004  12.457   2.020  1.7087  1.1368 -0.6474
  768MOL0     H 1342   7.840  12.251   1.755  2.1316 -2.2457 -1.9193
  768MOL0     H 1343   7.811  12.234   1.928  0.9810  3.6362  0.4009
  768MOL0     H 1344   7.912  12.013   1.748  1.0380  4.8221 -1.6338
  768MOL0     H 1345   7.736  12.034   1.793  0.0707 -2.6030  0.2511
  768MOL0     H 1346   7.956  11.936   1.983 -1.3688 -1.1532  1.5735
  768MOL0     H 1347   7.801  11.866   1.933 -2.3881  0.2981  2.0217
  768MOL0     H 1348   7.866  12.113   2.108 -0.8343  0.8199 -1.6053
  768MOL0     H 1349   7.702  12.077   2.065 -1.1762  0.1876  0.7536
  768MOL0     H 1350   7.890  11.929   2.259  0.9729 -0.1327 -0.0726
  768MOL0     H 1351   7.775  11.829   2.173 -0.8040  0.6832 -1.9970
  768MOL0     H 1352   7.675  11.886   2.363  0.6949  0.7935  0.3167
  768MOL0     H 1353   7.584  11.954   2.225 -1.3058  0.3009  0.9821
  768MOL0     H 1354   7.682  12.176   2.292  1.2082  0.8179  1.3028
  768MOL0     H 1355   7.578  12.088   2.419 -2.6633 -0.2509 -2.9868
  768MOL0     H 1356   7.877  12.090   2.422 -0.3153  0.4642 -0.5420
  768MOL0     H 1357   7.773  12.023   2.552 -1.0639  0.7635  1.5872
  768MOL0     H 1358   8.149  12.049   1.979  2.7934  0.0746 -0.1644
  768MOL0     H 1359   8.245  12.062   2.201  2.5196  0.9844 -1.9164
  768MOL0     H 1360   8.187  12.230   2.579 -1.3367  1.3675  2.0209
  768MOL0     H 1361   8.177  12.151   2.821  1.0929  0.5620  2.3170
  768MOL0     H 1362   6.801  11.030   3.341 -0.6582  0.0857 -2.4464
  768MOL0     H 1363   6.763  10.799   3.294  0.1773  0.7808  0.7331
  768MOL0     H 1364   7.018  10.375   3.150 -2.8583  3.3085 -1.0051
  768MOL0     H 1365   6.986  10.129   3.129 -2.5944 -1.8653  0.0624
  768MOL0     H 1366   7.022   9.936   3.240  0.0329 -0.4899 -0.0135
  768MOL0     H 1367   6.917   9.897   3.109  1.4353 -0.7524 -1.6540
  768MOL0     H 1368   6.828   9.690   3.228 -0.0169 -1.7557  1.1473
  768MOL0     H 1369   7.004   9.683   3.231 -0.6427 -1.0175  2.0996
  768MOL0     H 1370   6.862   9.617   3.427 -0.4338  0.6837  1.0480
  768MOL0     H 1371   6.815   9.784   3.439  0.9525  1.7189 -0.2013
  768MOL0     H 1372   7.105   9.679   3.454 -2.4026 -2.5540  2.0203
  768MOL0     H 1373   7.055   9.850   3.438  0.6180 -0.2693  0.0276
  768MOL0     H 1374   6.989   9.734   3.838  2.1343 -2.4473  0.1631
  768MOL0     H 1375   6.673  10.136   3.425  2.3075 -1.2110  2.3695
  768MOL0     H 1376   6.703  10.385   3.442 -1.0763 -1.3243 -1.4398
  769MOL0     O 1377   3.024   5.332   7.041 -0.3735  0.2408  0.2173
  769MOL0     C 1378   3.127   5.356   6.970  0.0034  0.5166 -0.2759
  769MOL0     O 1379   3.202   5.469   6.974 -0.0216  0.0034  0.1450
  769MOL0     C 1380   3.160   5.592   7.031  0.0198 -0.3544 -0.3680
  769MOL0     C 1381   3.255   5.692   7.034 -0.5238  0.4148 -0.1413
  769MOL0     C 1382   3.225   5.823   7.075 -0.4838 -0.3137  0.0361
  769MOL0     C 1383   3.092   5.843   7.121 -2.0049 -0.3133  0.0404
  769MOL0     O 1384   3.051   5.948   7.190  0.1254 -0.5886  0.3271
  769MOL0     C 1385   3.078   6.071   7.125  0.4924 -0.0907  0.0782
  769MOL0     C 1386   3.166   6.159   7.215  0.5880  0.0132  0.4690
  769MOL0     C 1387   3.315   6.124   7.220  1.3601  0.3714 -0.3208
  769MOL0     C 1388   3.386   6.222   7.317 -0.1434 -0.9642 -0.5762
  769MOL0     C 1389   3.523   6.164   7.365 -0.1305  0.3471 -0.1913
  769MOL0     C 1390   3.606   6.279   7.422 -0.3562 -1.0899 -0.1423
  769MOL0     C 1391   3.742   6.228   7.491 -0.0319  0.6674  0.5493
  769MOL0     C 1392   3.825   6.346   7.547 -0.2049  0.1845  0.4847
  769MOL0     N 1393   3.969   6.314   7.583 -0.2207  1.0941  0.0806
  769MOL0     C 1394   4.057   6.407   7.639 -0.2410  0.9701  0.1537
  769MOL0     C 1395   4.158   6.326   7.691 -0.1055  0.0919  0.5178
  769MOL0     C 1396   4.272   6.368   7.780 -0.2561  0.0804  0.3265
  769MOL0     C 1397   4.384   6.274   7.777  0.6392 -0.0898  0.8844
  769MOL0     C 1398   4.495   6.313   7.871 -0.3940  0.0640  0.3867
  769MOL0     C 1399   4.614   6.212   7.886  0.6014 -0.4390  0.1279
  769MOL0     O 1400   4.683   6.241   8.009 -0.0687 -0.8861  0.7719
  769MOL0     C 1401   4.823   6.232   8.004  1.5139  0.1232  0.3405
  769MOL0     C 1402   4.886   6.127   7.929 -0.4416 -0.0496  0.6312
  769MOL0     C 1403   5.028   6.108   7.949  0.0767 -0.1643  0.6776
  769MOL0     C 1404   5.100   6.186   8.032 -0.9614 -1.0135  0.1313
  769MOL0     C 1405   5.247   6.164   8.061 -0.2932  0.1862 -0.2571
  769MOL0     O 1406   5.327   6.266   8.120 -0.3522 -0.1424  0.1687
  769MOL0     C 1407   5.448   6.234   8.175  0.8386 -0.2451  0.3186
  769MOL0     C 1408   5.550   6.204   8.082 -0.3827 -0.6941  0.1619
  769MOL0     C 1409   5.669   6.156   8.132  0.6023 -0.7644 -0.4151
  769MOL0     C 1410   5.695   6.139   8.267  0.3074  0.1518  0.4247
  769MOL0     O 1411   5.816   6.088   8.313 -1.0733 -0.2577  0.1719
  769MOL0     C 1412   5.888   5.967   8.271 -0.7008 -1.2267 -0.5034
  769MOL0     C 1413   5.812   5.842   8.236  0.5245  0.9314 -0.5575
  769MOL0     C 1414   5.896   5.714   8.253  0.1937  0.2625  0.2595
  769MOL0     C 1415   6.000   5.693   8.140 -0.3414 -0.5609 -0.4420
  769MOL0     C 1416   5.983   5.557   8.071 -0.9741  0.6589 -0.9184
  769MOL0     C 1417   5.865   5.546   7.976  0.0019  0.1094 -0.5007
  769MOL0     C 1418   5.861   5.648   7.856 -1.4487 -0.1828  0.3035
  769MOL0     C 1419   5.743   5.641   7.761  0.0237 -1.0959  0.8129
  769MOL0    Cl 1420   5.591   5.704   7.814 -0.2238 -0.0948 -0.4637
  769MOL0     C 1421   5.582   6.153   8.348 -0.3286 -0.4207 -0.3928
  769MOL0     C 1422   5.458   6.200   8.305  0.5959  0.1149  0.2598
  769MOL0     O 1423   5.271   6.049   8.045  0.4367  0.1624 -0.5518
  769MOL0     C 1424   5.038   6.296   8.091 -0.6775 -0.4917 -0.5099
  769MOL0     C 1425   4.903   6.316   8.080  0.7419  0.8308 -0.6677
  769MOL0     N 1426   4.131   6.194   7.661  0.2509 -0.4082  0.4335
  769MOL0     N 1427   4.011   6.188   7.610 -0.3566 -0.3399  0.0255
  769MOL0     C 1428   2.998   5.754   7.093 -0.5210  0.1701 -0.5314
  769MOL0     C 1429   3.027   5.626   7.045  0.2568 -0.6921 -0.8484
  769MOL0     C 1430   3.186   5.263   6.861 -0.2437 -0.5934 -0.6287
  769MOL0     C 1431   3.309   5.280   6.792 -0.4865  0.6855  0.0026
  769MOL0     C 1432   3.368   5.203   6.690 -0.2285  0.3825 -0.0405
  769MOL0     C 1433   3.300   5.079   6.652  0.1269 -0.4966 -1.4755
  769MOL0     O 1434   3.359   4.997   6.569 -0.5517 -0.1986  0.0306
  769MOL0     C 1435   3.310   4.862   6.559 -0.5746 -0.0960  0.6721
  769MOL0     C 1436   3.412   4.762   6.491  0.8541 -0.3776 -1.0263
  769MOL0     C 1437   3.478   4.831   6.376 -0.5158  0.8349  0.8375
  769MOL0     C 1438   3.573   4.727   6.308  0.4264  0.0159 -0.4812
  769MOL0     C 1439   3.643   4.787   6.193  0.0003  0.0220  0.2724
  769MOL0     C 1440   3.712   4.840   6.112 -0.2961  0.3324 -0.5645
  769MOL0     C 1441   3.178   5.051   6.726  0.7845 -0.3939 -0.1778
  769MOL0     C 1442   3.128   5.139   6.830  0.6543  0.0657 -0.1339
  769MOL0     H 1443   3.359   5.676   7.009  0.6434  3.7624  1.9839
  769MOL0     H 1444   3.310   5.889   7.086  0.9211 -2.3178  2.3471
  769MOL0     H 1445   2.987   6.130   7.110  1.1618  0.9119 -0.1914
  769MOL0     H 1446   3.129   6.059   7.030  0.1615 -0.5889 -0.0368
  769MOL0     H 1447   3.126   6.143   7.315  1.0427 -2.5494  0.2944
  769MOL0     H 1448   3.158   6.266   7.191 -1.6161 -0.5698 -1.8025
  769MOL0     H 1449   3.358   6.137   7.120  2.4689  0.0712  0.1004
  769MOL0     H 1450   3.327   6.017   7.242 -0.0346  0.1111 -0.7176
  769MOL0     H 1451   3.388   6.318   7.266  0.1291  0.2607  1.6144
  769MOL0     H 1452   3.327   6.239   7.408  0.6437  2.5251 -0.5797
  769MOL0     H 1453   3.570   6.122   7.276 -0.7132 -1.1677  0.1922
  769MOL0     H 1454   3.513   6.081   7.436  1.9961  2.1795  2.4646
  769MOL0     H 1455   3.546   6.336   7.494  0.0287 -0.4285 -0.3442
  769MOL0     H 1456   3.619   6.347   7.338  1.7316  0.7040  1.5098
  769MOL0     H 1457   3.732   6.148   7.565  0.8763  0.7467  0.7656
  769MOL0     H 1458   3.807   6.189   7.412  1.2288  2.3581  0.6917
  769MOL0     H 1459   3.782   6.398   7.633 -2.8086 -3.5583  1.6719
  769MOL0     H 1460   3.817   6.429   7.476 -0.7381  0.0125  0.3452
  769MOL0     H 1461   4.048   6.515   7.633 -1.0598  0.8352 -4.0072
  769MOL0     H 1462   4.232   6.377   7.881 -1.4042 -0.3874 -0.0741
  769MOL0     H 1463   4.311   6.463   7.740 -0.8230  0.0956 -0.2041
  769MOL0     H 1464   4.423   6.269   7.675 -3.5959  0.3063 -0.9699
  769MOL0     H 1465   4.349   6.172   7.795 -0.2324 -0.3358 -1.6964
  769MOL0     H 1466   4.532   6.413   7.849  2.3383 -0.8980  0.2617
  769MOL0     H 1467   4.446   6.326   7.968  0.4618 -0.0356  0.8410
  769MOL0     H 1468   4.666   6.224   7.790 -1.2685  0.2714 -0.8329
  769MOL0     H 1469   4.563   6.116   7.899 -2.8472  1.6047  3.4544
  769MOL0     H 1470   4.823   6.055   7.877  2.0336 -2.3559  0.6255
  769MOL0     H 1471   5.085   6.024   7.910 -1.0347 -1.1994  1.2098
  769MOL0     H 1472   5.534   6.209   7.975 -2.7957 -2.9708  0.2983
  769MOL0     H 1473   5.742   6.141   8.052  2.2527 -3.5500  1.4306
  769MOL0     H 1474   5.973   5.953   8.338  0.4209 -2.3227 -2.0671
  769MOL0     H 1475   5.944   5.987   8.179 -1.7555 -0.3772 -0.9883
  769MOL0     H 1476   5.752   5.848   8.145 -0.0277 -0.8002 -0.3516
  769MOL0     H 1477   5.726   5.827   8.302 -0.0661 -1.1682 -1.7021
  769MOL0     H 1478   5.832   5.625   8.251  0.8857 -0.2387 -0.8932
  769MOL0     H 1479   5.938   5.727   8.353  2.3784 -1.5558 -0.3305
  769MOL0     H 1480   5.979   5.777   8.073 -2.2979  2.4767  3.5341
  769MOL0     H 1481   6.101   5.707   8.179 -0.1069 -2.1859 -0.4112
  769MOL0     H 1482   5.967   5.484   8.151  1.2325  0.8426 -0.2464
  769MOL0     H 1483   6.076   5.537   8.018 -1.3505  0.4279 -1.4970
  769MOL0     H 1484   5.774   5.584   8.025  0.5405  0.5417  0.1938
  769MOL0     H 1485   5.842   5.445   7.942 -1.9328 -0.0053  0.9275
  769MOL0     H 1486   5.854   5.753   7.887  0.1475  0.6469 -1.9248
  769MOL0     H 1487   5.952   5.627   7.799 -0.5213  2.4743  0.6954
  769MOL0     H 1488   5.735   5.535   7.733  0.6695 -0.9531  0.0573
  769MOL0     H 1489   5.773   5.699   7.674  0.0304 -0.7248  1.0593
  769MOL0     H 1490   5.593   6.128   8.453 -0.4577  1.5316  0.1223
  769MOL0     H 1491   5.377   6.188   8.376  2.0896 -2.5976  1.6592
  769MOL0     H 1492   5.101   6.370   8.138 -0.2411  0.2779 -2.2203
  769MOL0     H 1493   4.857   6.403   8.124  1.8210  1.3061 -0.4570
  769MOL0     H 1494   2.896   5.783   7.118 -0.1112  1.2775 -0.1053
  769MOL0     H 1495   2.950   5.551   7.030  1.1850 -2.3807  2.0259
  769MOL0     H 1496   3.355   5.372   6.826 -0.4401  0.6580  0.0136
  769MOL0     H 1497   3.452   5.231   6.626  0.0370 -0.8421 -0.2585
  769MOL0     H 1498   3.213   4.865   6.508 -0.7252  2.6338  0.9386
  769MOL0     H 1499   3.289   4.818   6.658 -1.5690  0.5268  0.7526
  769MOL0     H 1500   3.496   4.745   6.559 -0.3656  2.8770  1.5842
  769MOL0     H 1501   3.365   4.668   6.459  0.2378 -0.2294 -0.5676
  769MOL0     H 1502   3.537   4.916   6.412 -0.5286  0.5855  1.4597
  769MOL0     H 1503   3.403   4.869   6.306 -0.4953  0.3485  0.5422
  769MOL0     H 1504   3.660   4.695   6.366  3.5023 -0.1032 -4.7214
  769MOL0     H 1505   3.518   4.635   6.287 -1.5269  0.7596  1.0291
  769MOL0     H 1506   3.760   4.885   6.028 -1.1553 -1.2443 -1.9484
  769MOL0     H 1507   3.131   4.954   6.711 -0.9235  0.5906 -1.5604
  769MOL0     H 1508   3.040   5.122   6.892  0.6765 -1.5654 -0.5193
  770MOL0     O 1509   5.611  10.426   7.341  0.5530 -0.2863 -0.3763
  770MOL0     C 1510   5.611  10.512   7.265  0.6665 -0.2204  0.0911
  770MOL0     O 1511   5.717  10.603   7.242  0.5371  0.6115 -0.0753
  770MOL0     C 1512   5.830  10.582   7.312  0.4264 -0.1115 -0.1780
  770MOL0     C 1513   5.943  10.617   7.247 -0.0820  0.0983 -0.5646
  770MOL0     C 1514   6.066  10.608   7.321 -0.2409 -0.4536  0.1323
  770MOL0     C 1515   6.073  10.567   7.456  0.5022 -0.3254 -0.0368
  770MOL0     O 1516   6.201  10.551   7.511 -0.0848 -0.4968 -1.2515
  770MOL0     C 1517   6.254  10.420   7.513  0.2658 -0.8207  0.4961
  770MOL0     C 1518   6.379  10.406   7.593  0.8881 -0.8323  0.2217
  770MOL0     C 1519   6.343  10.420   7.738 -0.6793 -0.4562  0.2343
  770MOL0     C 1520   6.465  10.396   7.833 -0.9145  0.1552 -0.2780
  770MOL0     C 1521   6.468  10.269   7.920  1.0230  0.5445  0.5799
  770MOL0     C 1522   6.447  10.148   7.826  0.1342  0.0179  0.2608
  770MOL0     C 1523   6.434  10.014   7.894 -0.3506  0.8230  0.8279
  770MOL0     C 1524   6.328   9.914   7.829 -0.6036  0.2180  0.8333
  770MOL0     N 1525   6.344   9.892   7.687  0.2971 -0.2759 -0.1762
  770MOL0     C 1526   6.276   9.970   7.593  0.2857 -0.8230  0.6901
  770MOL0     C 1527   6.331   9.935   7.475 -0.0795 -0.0464  0.2393
  770MOL0     C 1528   6.297   9.993   7.338 -0.3639 -1.4616 -0.0106
  770MOL0     C 1529   6.163   9.951   7.271  0.4568  0.1358  0.2322
  770MOL0     C 1530   6.132  10.024   7.143 -0.4284 -0.4309  0.0592
  770MOL0     C 1531   6.223   9.985   7.021  0.1777  0.3028  1.0977
  770MOL0     O 1532   6.198  10.093   6.925  0.2150  0.1296 -0.1522
  770MOL0     C 1533   6.226  10.059   6.793 -0.6911 -0.0923  1.7336
  770MOL0     C 1534   6.323   9.972   6.745 -0.4793 -0.0057 -0.4352
  770MOL0     C 1535   6.334   9.935   6.606  0.3753  0.0870 -0.3888
  770MOL0     C 1536   6.260  10.002   6.515 -0.4896  0.1240  0.3125
  770MOL0     C 1537   6.289   9.988   6.370 -0.0414  0.4660 -0.8606
  770MOL0     O 1538   6.400   9.905   6.344 -0.1110 -0.5691  0.3185
  770MOL0     C 1539   6.433   9.877   6.211 -1.0972  0.4342 -1.0601
  770MOL0     C 1540   6.566   9.908   6.158 -0.2792 -1.4776  0.1397
  770MOL0     C 1541   6.595   9.857   6.029  0.5854 -0.6549 -0.4109
  770MOL0     C 1542   6.508   9.769   5.965  0.7260 -0.1914  0.3138
  770MOL0     O 1543   6.567   9.717   5.856  0.4401 -0.1728  0.1806
  770MOL0     C 1544   6.531   9.578   5.819 -0.7291 -0.1637 -0.2191
  770MOL0     C 1545   6.549   9.538   5.670  0.2264 -0.2423  0.2614
  770MOL0     C 1546   6.686   9.479   5.646  0.0725  0.2839  0.6510
  770MOL0     C 1547   6.793   9.595   5.631 -0.4365  0.1620 -0.9021
  770MOL0     C 1548   6.938   9.567   5.581 -0.5875  1.0473  0.1763
  770MOL0     C 1549   7.028   9.689   5.583 -0.2371 -0.9355  0.0266
  770MOL0     C 1550   7.169   9.650   5.540 -0.3524  0.4752  0.3953
  770MOL0     C 1551   7.269   9.743   5.605  0.2340  0.1989 -0.3270
  770MOL0    Cl 1552   7.305   9.700   5.769  0.0538 -0.1215  0.0091
  770MOL0     C 1553   6.387   9.746   6.020  0.5431 -0.1540  0.8918
  770MOL0     C 1554   6.343   9.788   6.144 -1.1015  0.2428 -0.2216
  770MOL0     O 1555   6.238  10.056   6.289 -0.4807  0.2735 -0.5350
  770MOL0     C 1556   6.177  10.105   6.550 -0.1170 -0.4221  0.7355
  770MOL0     C 1557   6.160  10.142   6.686  0.0320 -0.5166  0.1885
  770MOL0     N 1558   6.445   9.847   7.500  0.4271 -0.2453 -0.7187
  770MOL0     N 1559   6.446   9.819   7.623 -0.1764  0.7338 -0.2956
  770MOL0     C 1560   5.953  10.532   7.513 -0.0419  1.0080  0.5602
  770MOL0     C 1561   5.834  10.545   7.447 -0.3218 -0.6747 -0.1831
  770MOL0     C 1562   5.491  10.540   7.187 -0.2338 -0.1415  1.0012
  770MOL0     C 1563   5.373  10.485   7.214 -0.0913  0.0305 -0.2139
  770MOL0     C 1564   5.252  10.538   7.161  0.7014  0.8288  0.0495
  770MOL0     C 1565   5.259  10.629   7.056  0.4430 -0.4558  0.2059
  770MOL0     O 1566   5.156  10.681   6.993 -0.1635 -0.0988 -0.1164
  770MOL0     C 1567   5.018  10.656   7.026  0.9610 -0.7310 -0.0825
  770MOL0     C 1568   4.973  10.737   7.155  0.5336 -0.9132  0.7223
  770MOL0     C 1569   4.835  10.703   7.195 -0.1580 -0.2843 -0.7653
  770MOL0     C 1570   4.799  10.564   7.246  0.5370 -0.4510 -0.1777
  770MOL0     C 1571   4.659  10.568   7.288 -0.2378  0.4926  0.1950
  770MOL0     C 1572   4.541  10.566   7.323 -1.3776  1.6724  0.2405
  770MOL0     C 1573   5.382  10.674   7.016 -0.1607 -1.0781 -0.1271
  770MOL0     C 1574   5.501  10.639   7.082  0.0737  0.5350 -0.4800
  770MOL0     H 1575   5.945  10.645   7.142  3.9287 -2.0033 -1.2250
  770MOL0     H 1576   6.155  10.632   7.262  1.0080  3.6843  3.1933
  770MOL0     H 1577   6.274  10.394   7.408  0.4241 -1.7359  0.7471
  770MOL0     H 1578   6.179  10.346   7.543 -0.2758 -0.7570 -0.6350
  770MOL0     H 1579   6.447  10.483   7.554 -1.3004  0.3983 -1.3540
  770MOL0     H 1580   6.429  10.311   7.572  3.4184  0.6238 -0.8372
  770MOL0     H 1581   6.263  10.353   7.770 -0.3907 -1.4378 -1.0247
  770MOL0     H 1582   6.293  10.512   7.770  1.3554  0.4457  1.0589
  770MOL0     H 1583   6.557  10.401   7.773 -0.3680 -3.0748  0.0938
  770MOL0     H 1584   6.472  10.476   7.906  1.1956  0.1976 -0.4582
  770MOL0     H 1585   6.385  10.266   7.991 -2.8839 -1.5947 -3.6334
  770MOL0     H 1586   6.565  10.267   7.971  0.4218  1.3463  1.8106
  770MOL0     H 1587   6.536  10.152   7.762 -0.3322  0.5632 -0.3675
  770MOL0     H 1588   6.359  10.169   7.764  2.3307  0.6500 -2.9326
  770MOL0     H 1589   6.527   9.958   7.903  0.2933  2.0964  2.4922
  770MOL0     H 1590   6.389  10.026   7.992 -2.0032 -2.6622  0.6342
  770MOL0     H 1591   6.223   9.942   7.841 -0.9596 -1.8799  3.3927
  770MOL0     H 1592   6.344   9.818   7.878  0.9618  0.4935  0.9120
  770MOL0     H 1593   6.202  10.046   7.614  2.3089  1.3392  0.4869
  770MOL0     H 1594   6.380   9.971   7.269  0.4794  2.6471 -0.5790
  770MOL0     H 1595   6.294  10.103   7.344  1.2513 -1.3088 -1.1428
  770MOL0     H 1596   6.076   9.978   7.332 -0.8372  1.1266 -1.9229
  770MOL0     H 1597   6.161   9.842   7.269 -0.0338  0.1443 -2.3807
  770MOL0     H 1598   6.029  10.012   7.109 -0.3903 -1.7948  0.3409
  770MOL0     H 1599   6.144  10.123   7.187 -1.0513 -1.8111  3.7408
  770MOL0     H 1600   6.202   9.883   6.990 -1.6513  1.4341 -1.8369
  770MOL0     H 1601   6.327   9.990   7.053  1.0795 -1.3822 -1.3465
  770MOL0     H 1602   6.383   9.909   6.810  1.4761 -0.0730 -2.1994
  770MOL0     H 1603   6.403   9.862   6.566  1.4300  0.4983  0.6222
  770MOL0     H 1604   6.635   9.971   6.212 -3.2946  1.9704  0.3420
  770MOL0     H 1605   6.694   9.883   5.990  0.5497 -0.5026 -0.4013
  770MOL0     H 1606   6.430   9.549   5.851 -1.4532  1.9085 -0.4933
  770MOL0     H 1607   6.593   9.518   5.886 -3.2660 -1.0372  1.4880
  770MOL0     H 1608   6.540   9.630   5.611  0.0449  0.3518  1.1876
  770MOL0     H 1609   6.472   9.466   5.641  0.5086 -0.1186 -0.8693
  770MOL0     H 1610   6.684   9.414   5.558  2.2514 -1.2900  1.6698
  770MOL0     H 1611   6.718   9.405   5.721  0.1873 -0.9790 -0.5874
  770MOL0     H 1612   6.743   9.667   5.565 -1.1106 -0.5551 -1.1804
  770MOL0     H 1613   6.805   9.657   5.720  3.5663  0.9071 -1.7497
  770MOL0     H 1614   6.932   9.520   5.482 -0.1423  1.9674 -0.2917
  770MOL0     H 1615   6.986   9.489   5.641  1.2523  2.1070  0.1326
  770MOL0     H 1616   7.026   9.726   5.686  2.8341 -1.9622  0.5440
  770MOL0     H 1617   6.981   9.760   5.515  2.2208 -0.7494 -1.5985
  770MOL0     H 1618   7.201   9.547   5.558  0.6175  0.7221  0.1349
  770MOL0     H 1619   7.175   9.658   5.431 -1.4854 -5.1961 -0.3878
  770MOL0     H 1620   7.231   9.845   5.589  0.1788 -0.0084 -1.5792
  770MOL0     H 1621   7.366   9.734   5.556  1.2007  0.5123  1.4399
  770MOL0     H 1622   6.320   9.679   5.966  3.8149 -2.5502 -0.5646
  770MOL0     H 1623   6.256   9.751   6.196 -1.5122 -0.4633 -1.3773
  770MOL0     H 1624   6.125  10.158   6.470  2.1828  2.7621  1.1358
  770MOL0     H 1625   6.099  10.230   6.706  0.0786  0.2063 -2.4411
  770MOL0     H 1626   5.945  10.508   7.619  0.3846  1.3922  0.6828
  770MOL0     H 1627   5.741  10.523   7.500 -0.6052 -3.4797 -1.6623
  770MOL0     H 1628   5.369  10.398   7.279  0.5039  0.4538  0.3984
  770MOL0     H 1629   5.159  10.494   7.197  2.1759  0.0576  3.3053
  770MOL0     H 1630   4.998  10.550   7.040 -0.8396 -0.1436  2.7166
  770MOL0     H 1631   4.950  10.686   6.946  0.3391 -5.4381 -1.6372
  770MOL0     H 1632   5.040  10.721   7.240 -0.1106  3.2504  2.2041
  770MOL0     H 1633   4.971  10.845   7.138 -2.6101 -0.7409  1.5611
  770MOL0     H 1634   4.763  10.734   7.118  0.2512  1.2551 -0.5582
  770MOL0     H 1635   4.805  10.783   7.263  0.1311  0.2489 -1.2519
  770MOL0     H 1636   4.819  10.488   7.169 -0.3318 -1.3169  0.4212
  770MOL0     H 1637   4.858  10.549   7.337 -1.6861 -2.5740  1.0369
  770MOL0     H 1638   4.436  10.546   7.336 -1.0968  0.1763  0.3427
  770MOL0     H 1639   5.385  10.738   6.929 -5.9119  0.6432  0.5531
  770MOL0     H 1640   5.596  10.673   7.040  1.7085 -2.2915  0.6533
  771MOL0     O 1641   1.012   5.318   5.520  0.5682  0.3899  0.9502
  771MOL0     C 1642   0.954   5.275   5.620 -1.2576  0.7936  0.1633
  771MOL0     O 1643   0.953   5.146   5.663 -0.1778  0.0904 -0.5924
  771MOL0     C 1644   0.895   5.054   5.583 -0.3639  0.1627  1.0468
  771MOL0     C 1645   0.954   4.927   5.576 -0.1326 -0.2771 -0.0856
  771MOL0     C 1646   0.899   4.819   5.502 -0.7076  0.3686 -0.5148
  771MOL0     C 1647   0.782   4.849   5.430 -0.1989  0.4020  0.5093
  771MOL0     O 1648   0.726   4.753   5.352 -0.1693  0.4742  0.1999
  771MOL0     C 1649   0.603   4.702   5.406  0.1691  0.6915 -0.2372
  771MOL0     C 1650   0.590   4.546   5.412 -0.0853 -0.1522  0.4315
  771MOL0     C 1651   0.598   4.511   5.262  1.2901 -0.2132  0.6211
  771MOL0     C 1652   0.664   4.371   5.253  0.1555 -1.0041 -0.2625
  771MOL0     C 1653   0.552   4.265   5.275 -0.7865  0.1908 -0.3481
  771MOL0     C 1654   0.450   4.270   5.163  0.4930 -0.4569 -0.6275
  771MOL0     C 1655   0.369   4.143   5.172  0.5552  0.2289 -0.5082
  771MOL0     C 1656   0.241   4.139   5.085  0.0306 -0.4282 -0.8459
  771MOL0     N 1657   0.126   4.221   5.142 -1.1373  0.1082 -0.1536
  771MOL0     C 1658   0.023   4.178   5.225 -0.3991  0.6315 -0.5936
  771MOL0     C 1659  -0.035   4.295   5.266  0.0615  0.1918 -0.3143
  771MOL0     C 1660  -0.161   4.304   5.358 -0.1359 -0.6153  0.6393
  771MOL0     C 1661  -0.126   4.250   5.502  0.3659  0.2794 -0.0457
  771MOL0     C 1662  -0.136   4.098   5.510 -0.0160 -0.7173  1.0055
  771MOL0     C 1663  -0.280   4.041   5.525  0.3433 -0.0805 -0.7281
  771MOL0     O 1664  -0.299   3.963   5.404 -0.2824  0.5908 -0.1042
  771MOL0     C 1665  -0.427   3.923   5.373  0.6935 -0.0896  0.8363
  771MOL0     C 1666  -0.471   3.881   5.248  0.7575  0.2635  0.1711
  771MOL0     C 1667  -0.598   3.838   5.212  0.2253  0.1294 -0.5828
  771MOL0     C 1668  -0.691   3.833   5.315  0.4549 -0.2354  0.4276
  771MOL0     C 1669  -0.841   3.808   5.285  0.3704  0.5684  0.6031
  771MOL0     O 1670  -0.940   3.843   5.379  0.1988  0.0036 -0.8062
  771MOL0     C 1671  -1.061   3.889   5.340  0.3285  0.3779 -0.0668
  771MOL0     C 1672  -1.173   3.829   5.400  0.2621  0.0345 -0.1682
  771MOL0     C 1673  -1.303   3.879   5.374 -0.2838  0.1426  0.7860
  771MOL0     C 1674  -1.313   3.981   5.271  0.4378 -0.9203 -0.1006
  771MOL0     O 1675  -1.425   4.056   5.236 -0.0016  0.3876  0.1237
  771MOL0     C 1676  -1.546   3.989   5.244  0.3045  0.3598  0.6425
  771MOL0     C 1677  -1.657   4.066   5.168  0.7959  0.7959 -0.4991
  771MOL0     C 1678  -1.630   4.057   5.022  0.1001 -0.4793  0.0696
  771MOL0     C 1679  -1.724   4.145   4.943  0.1073  1.0398  0.1439
  771MOL0     C 1680  -1.689   4.134   4.789 -0.1134 -0.1791  0.3784
  771MOL0     C 1681  -1.637   4.268   4.728 -0.5447 -0.7944 -0.0116
  771MOL0     C 1682  -1.623   4.233   4.576  0.2861  0.1996  0.1695
  771MOL0     C 1683  -1.550   4.341   4.504  0.2855 -0.3803  0.1287
  771MOL0    Cl 1684  -1.517   4.306   4.325  0.6575  0.3582  0.1365
  771MOL0     C 1685  -1.202   4.025   5.195  0.3481 -0.2676 -0.1239
  771MOL0     C 1686  -1.076   3.988   5.243 -0.6881  0.2957 -0.6175
  771MOL0     O 1687  -0.870   3.760   5.179  0.2769 -0.4769  0.1158
  771MOL0     C 1688  -0.663   3.879   5.442 -0.1561  0.4757 -0.4728
  771MOL0     C 1689  -0.533   3.924   5.472 -0.3552 -0.1710  0.2690
  771MOL0     N 1690   0.027   4.400   5.208  0.5359 -1.2606  0.1552
  771MOL0     N 1691   0.118   4.357   5.142 -0.2671  0.8076 -0.2920
  771MOL0     C 1692   0.721   4.977   5.445  0.6285 -0.4549  0.8855
  771MOL0     C 1693   0.778   5.076   5.513  0.6354  0.0794 -0.7011
  771MOL0     C 1694   0.913   5.366   5.723  0.8266 -0.3638  0.1934
  771MOL0     C 1695   0.962   5.497   5.745  0.8163  1.4066 -0.2605
  771MOL0     C 1696   0.899   5.580   5.841  0.0506  0.3692 -0.2576
  771MOL0     C 1697   0.786   5.540   5.920  0.3091  0.0820  0.2263
  771MOL0     O 1698   0.749   5.620   6.012 -0.5152 -0.4687  0.2665
  771MOL0     C 1699   0.615   5.604   6.076  0.1746 -0.1748 -0.2614
  771MOL0     C 1700   0.534   5.735   6.093 -0.2173 -0.8679  1.0812
  771MOL0     C 1701   0.457   5.781   5.964  0.4772  0.3593  0.1959
  771MOL0     C 1702   0.326   5.709   5.946  0.8205  0.6079  0.3363
  771MOL0     C 1703   0.219   5.806   5.943 -0.2708 -0.1298 -0.2868
  771MOL0     C 1704   0.125   5.879   5.955  0.4183  0.1071  0.4601
  771MOL0     C 1705   0.744   5.409   5.903  0.8425  0.2910 -0.3210
  771MOL0     C 1706   0.802   5.321   5.802  0.4069  0.6544  0.0933
  771MOL0     H 1707   1.031   4.913   5.651 -1.2013  0.0270  1.1029
  771MOL0     H 1708   0.945   4.721   5.490 -0.4268  0.5358 -0.8295
  771MOL0     H 1709   0.519   4.749   5.353  0.1703  0.5143 -0.3937
  771MOL0     H 1710   0.589   4.745   5.506  0.4990  0.1843  0.0262
  771MOL0     H 1711   0.495   4.519   5.459 -1.3762 -0.2460 -2.0514
  771MOL0     H 1712   0.674   4.497   5.463 -0.1327  0.4018  1.0397
  771MOL0     H 1713   0.660   4.575   5.199 -0.4244 -0.9233 -1.9266
  771MOL0     H 1714   0.501   4.519   5.212  1.7007  1.4334  0.0100
  771MOL0     H 1715   0.706   4.362   5.153  1.0242 -1.2518  0.1200
  771MOL0     H 1716   0.741   4.353   5.329  0.3803  1.6888  0.2519
  771MOL0     H 1717   0.495   4.273   5.368 -0.5805  1.6266 -0.3114
  771MOL0     H 1718   0.596   4.167   5.259  0.4371  0.5715  0.5537
  771MOL0     H 1719   0.510   4.270   5.071 -0.7847 -0.0600 -1.4920
  771MOL0     H 1720   0.380   4.353   5.172 -0.2791 -1.1662  0.1392
  771MOL0     H 1721   0.432   4.059   5.140  0.5645  0.5454 -1.3511
  771MOL0     H 1722   0.340   4.121   5.275 -1.7277 -3.5124 -1.7290
  771MOL0     H 1723   0.206   4.035   5.075  1.7723 -1.2089  0.6308
  771MOL0     H 1724   0.259   4.181   4.986 -2.2776 -1.9030 -1.9768
  771MOL0     H 1725   0.015   4.075   5.259  4.4452  0.7567  1.8616
  771MOL0     H 1726  -0.240   4.247   5.307 -0.0607 -0.9780  0.9249
  771MOL0     H 1727  -0.188   4.410   5.360  0.0047 -0.5812  0.6713
  771MOL0     H 1728  -0.200   4.295   5.568 -0.4196  2.4513 -2.2312
  771MOL0     H 1729  -0.020   4.268   5.525  1.5825 -4.3804 -0.9527
  771MOL0     H 1730  -0.082   4.051   5.428  0.5144  1.3179  0.1318
  771MOL0     H 1731  -0.076   4.070   5.597  0.9123  2.1364  1.4117
  771MOL0     H 1732  -0.352   4.123   5.536  0.6482  0.1678 -0.5666
  771MOL0     H 1733  -0.275   3.981   5.616  0.9987  1.3166  0.1973
  771MOL0     H 1734  -0.390   3.890   5.176  2.3686  2.3831  2.1037
  771MOL0     H 1735  -0.628   3.807   5.112 -1.9364  0.4316 -0.0771
  771MOL0     H 1736  -1.153   3.750   5.471 -0.7356 -0.6955 -0.6686
  771MOL0     H 1737  -1.391   3.840   5.423  0.2087 -1.6966  0.2789
  771MOL0     H 1738  -1.580   3.986   5.348  0.0024  2.0816  0.6245
  771MOL0     H 1739  -1.529   3.888   5.207  2.7318  0.8225  0.3580
  771MOL0     H 1740  -1.664   4.168   5.206  0.6003  0.7011 -0.2740
  771MOL0     H 1741  -1.757   4.021   5.167 -0.0748  2.5866  0.7500
  771MOL0     H 1742  -1.639   3.951   4.998 -0.3425 -0.7895  1.5067
  771MOL0     H 1743  -1.527   4.089   5.006  0.2238 -0.4284  0.9330
  771MOL0     H 1744  -1.822   4.097   4.958 -0.5334  2.8771  2.4401
  771MOL0     H 1745  -1.727   4.246   4.984 -0.4044  1.4789 -0.9342
  771MOL0     H 1746  -1.773   4.092   4.734  0.2640 -0.5961  0.1120
  771MOL0     H 1747  -1.607   4.061   4.790  0.8921  0.9175  1.1815
  771MOL0     H 1748  -1.547   4.298   4.784  0.6925 -0.5466 -2.0193
  771MOL0     H 1749  -1.713   4.346   4.734 -0.7907 -1.1457  2.2161
  771MOL0     H 1750  -1.564   4.142   4.559  1.5972  1.2094 -1.0058
  771MOL0     H 1751  -1.724   4.222   4.535 -0.6775  0.0301  2.4329
  771MOL0     H 1752  -1.451   4.333   4.549  0.5639  1.7903  0.0527
  771MOL0     H 1753  -1.595   4.439   4.523  2.0075 -0.0810  3.1637
  771MOL0     H 1754  -1.210   4.076   5.099  1.8658 -0.1848 -0.2319
  771MOL0     H 1755  -0.984   4.018   5.194 -1.0696  2.3294 -0.1625
  771MOL0     H 1756  -0.745   3.883   5.513 -1.9765  0.5813 -2.4780
  771MOL0     H 1757  -0.522   3.962   5.573  0.2260 -0.9845  0.5253
  771MOL0     H 1758   0.633   5.005   5.389  1.6309  0.6002 -0.1897
  771MOL0     H 1759   0.740   5.177   5.518  0.1965  0.0061 -2.0959
  771MOL0     H 1760   1.048   5.520   5.682  0.1751  0.1593 -1.6488
  771MOL0     H 1761   0.946   5.672   5.874  2.5520 -1.3560  1.4269
  771MOL0     H 1762   0.634   5.563   6.176  1.4503 -0.2577 -0.5138
  771MOL0     H 1763   0.546   5.537   6.025 -0.3679 -1.0088  1.5067
  771MOL0     H 1764   0.486   5.736   6.192 -1.6744  2.0453  0.4439
  771MOL0     H 1765   0.620   5.803   6.090 -1.3498  0.6113  1.1446
  771MOL0     H 1766   0.517   5.769   5.873 -0.7590 -0.7378 -0.5179
  771MOL0     H 1767   0.444   5.888   5.982 -0.7269  0.0634  1.2379
  771MOL0     H 1768   0.331   5.679   5.841 -0.2802  2.0528 -0.1626
  771MOL0     H 1769   0.318   5.620   6.009  3.7181  0.7941  1.0796
  771MOL0     H 1770   0.044   5.946   5.977 -0.3384 -1.2672  2.0035
  771MOL0     H 1771   0.673   5.367   5.973 -1.3065  1.5363 -1.6305
  771MOL0     H 1772   0.760   5.221   5.796  1.2206  0.3685 -1.1934
  772MOL0     O 1773   8.752   0.630  11.222  0.1487  0.6986 -0.5871
  772MOL0     C 1774   8.855   0.683  11.179  0.4821  0.5399  0.4954
  772MOL0     O 1775   8.855   0.803  11.127  0.1115  0.5445  0.2801
  772MOL0     C 1776   8.755   0.889  11.140  0.3154 -0.2693  1.1327
  772MOL0     C 1777   8.702   0.924  11.266 -0.4706  0.6345  0.5564
  772MOL0     C 1778   8.596   1.022  11.283  0.0362 -0.1364 -0.1083
  772MOL0     C 1779   8.548   1.079  11.165  0.3656 -0.0744 -0.1267
  772MOL0     O 1780   8.429   1.145  11.184  0.0831 -0.0502 -0.5006
  772MOL0     C 1781   8.378   1.215  11.077  0.3296  0.2202  0.8902
  772MOL0     C 1782   8.278   1.331  11.103 -0.1871 -0.5842 -0.3677
  772MOL0     C 1783   8.173   1.289  11.211  0.7263  0.2973  0.7058
  772MOL0     C 1784   8.113   1.408  11.276  0.4356  0.2252  0.2287
  772MOL0     C 1785   8.007   1.357  11.369 -0.0081 -0.0907  0.5576
  772MOL0     C 1786   7.915   1.468  11.422 -0.1802  0.3810 -0.0823
  772MOL0     C 1787   7.772   1.407  11.450  0.5460 -0.0660  0.0585
  772MOL0     C 1788   7.677   1.518  11.506  0.2455  0.2441  0.4555
  772MOL0     N 1789   7.556   1.442  11.549  0.8646 -0.6087 -0.1983
  772MOL0     C 1790   7.517   1.414  11.675 -1.0551  1.0538  0.3342
  772MOL0     C 1791   7.403   1.345  11.666 -0.6478 -1.2722  0.3893
  772MOL0     C 1792   7.322   1.298  11.783  1.2240 -0.2820 -1.1131
  772MOL0     C 1793   7.183   1.362  11.784  0.6483 -0.0961 -0.7037
  772MOL0     C 1794   7.068   1.286  11.853 -0.2343  0.2521 -0.3474
  772MOL0     C 1795   7.092   1.257  12.001  0.4410 -0.0404 -0.6674
  772MOL0     O 1796   6.978   1.195  12.058  0.3514  0.1509 -0.0140
  772MOL0     C 1797   7.006   1.063  12.097  0.7508  0.2604 -0.1440
  772MOL0     C 1798   6.957   0.952  12.030  0.4772 -0.8781  0.6317
  772MOL0     C 1799   6.968   0.826  12.071  0.6122 -0.5554 -0.1197
  772MOL0     C 1800   7.044   0.800  12.189  0.5908  0.7438 -0.1875
  772MOL0     C 1801   7.046   0.667  12.242  0.6492 -1.2299  0.1469
  772MOL0     O 1802   6.982   0.558  12.185 -0.1510 -0.2031 -0.3966
  772MOL0     C 1803   7.000   0.427  12.235  0.0011  0.3131 -0.4080
  772MOL0     C 1804   6.884   0.364  12.254 -0.1555 -0.9097  0.0807
  772MOL0     C 1805   6.870   0.226  12.286  0.2410 -0.4119 -0.1135
  772MOL0     C 1806   6.990   0.161  12.317 -0.9985  1.6881  0.1342
  772MOL0     O 1807   6.975   0.037  12.359  0.4657  0.7714 -0.3869
  772MOL0     C 1808   7.076  -0.008  12.457  0.3891 -0.9251  0.6312
  772MOL0     C 1809   7.022  -0.133  12.514 -0.1385 -0.1636 -0.9298
  772MOL0     C 1810   7.107  -0.197  12.624  0.5433  0.4226  0.1622
  772MOL0     C 1811   7.028  -0.286  12.710 -0.4932 -0.6548  0.0219
  772MOL0     C 1812   7.112  -0.341  12.822 -0.0963 -0.0194 -0.1089
  772MOL0     C 1813   7.013  -0.379  12.943 -0.8822  0.5897  0.3325
  772MOL0     C 1814   7.087  -0.412  13.071  0.4619  0.3203  0.9941
  772MOL0     C 1815   7.190  -0.306  13.120  0.1017 -0.1126 -0.5813
  772MOL0    Cl 1816   7.203  -0.322  13.306 -0.1821 -0.0088 -0.0046
  772MOL0     C 1817   7.116   0.224  12.304  0.1911 -0.5387 -0.3834
  772MOL0     C 1818   7.117   0.359  12.265 -0.1412 -0.8545 -0.6693
  772MOL0     O 1819   7.099   0.657  12.358 -1.2153 -0.4315  0.8790
  772MOL0     C 1820   7.111   0.905  12.256  0.6845  0.2531  0.2699
  772MOL0     C 1821   7.087   1.032  12.207  0.4777 -0.2331  0.1549
  772MOL0     N 1822   7.366   1.322  11.532 -0.3366  0.0035 -1.4073
  772MOL0     N 1823   7.461   1.387  11.469 -0.1172 -0.5674  0.7013
  772MOL0     C 1824   8.600   1.043  11.038 -0.5740  1.1564  0.0232
  772MOL0     C 1825   8.715   0.960  11.030 -0.5283  0.0656 -0.2876
  772MOL0     C 1826   8.989   0.608  11.174  0.3276 -0.4070  0.6885
  772MOL0     C 1827   8.969   0.471  11.144  0.3591  0.8125 -0.3888
  772MOL0     C 1828   9.079   0.389  11.116  0.4664 -0.3524 -0.6471
  772MOL0     C 1829   9.203   0.436  11.142 -0.2787  0.0653 -0.1581
  772MOL0     O 1830   9.308   0.344  11.119  0.9358  0.0370  0.3155
  772MOL0     C 1831   9.311   0.297  10.981 -0.7814 -1.2153  0.8843
  772MOL0     C 1832   9.457   0.273  10.939  0.9853 -0.1254 -1.1804
  772MOL0     C 1833   9.558   0.374  10.984  1.0689  0.0190 -0.0891
  772MOL0     C 1834   9.696   0.350  10.930  0.2817  0.3600 -0.8435
  772MOL0     C 1835   9.695   0.304  10.786 -0.3973 -0.6939 -0.1828
  772MOL0     C 1836   9.705   0.258  10.673  0.3845 -1.0859 -0.3464
  772MOL0     C 1837   9.235   0.570  11.179 -0.3723  0.7577 -0.1809
  772MOL0     C 1838   9.123   0.654  11.196  0.1813  0.5442  1.1904
  772MOL0     H 1839   8.730   0.864  11.352 -0.9620  1.7188  1.5114
  772MOL0     H 1840   8.534   1.036  11.370  1.2058 -1.6836  1.0355
  772MOL0     H 1841   8.329   1.140  11.015 -0.3863  1.8764 -0.6370
  772MOL0     H 1842   8.454   1.265  11.016  0.7383 -0.9428  0.4250
  772MOL0     H 1843   8.232   1.375  11.014 -1.0897  0.7553  0.7076
  772MOL0     H 1844   8.334   1.417  11.139  1.4226 -0.9397 -1.9106
  772MOL0     H 1845   8.223   1.232  11.290  1.6181  3.2467  2.4287
  772MOL0     H 1846   8.095   1.236  11.156  0.3546  0.3192  1.2132
  772MOL0     H 1847   8.197   1.459  11.324  0.5999  0.6984 -0.5419
  772MOL0     H 1848   8.071   1.478  11.203 -3.3866 -1.7051  0.3067
  772MOL0     H 1849   8.061   1.303  11.448 -1.4168 -1.9073  0.3439
  772MOL0     H 1850   7.941   1.288  11.317 -0.0607  0.7349 -0.4832
  772MOL0     H 1851   7.901   1.551  11.353 -2.0565  0.7389  0.6539
  772MOL0     H 1852   7.965   1.510  11.510 -1.8463  2.6238 -0.1096
  772MOL0     H 1853   7.726   1.365  11.360 -2.0593  1.0858  0.7690
  772MOL0     H 1854   7.791   1.332  11.528 -0.0955  2.4039  2.7581
  772MOL0     H 1855   7.657   1.601  11.438  1.4214 -1.3252 -1.9923
  772MOL0     H 1856   7.703   1.557  11.605 -0.2980 -3.3558  2.1794
  772MOL0     H 1857   7.574   1.437  11.764  2.7803 -1.0543 -1.3213
  772MOL0     H 1858   7.370   1.326  11.877 -1.3587 -4.5880  1.8632
  772MOL0     H 1859   7.306   1.190  11.778  2.5936 -0.5309 -0.5314
  772MOL0     H 1860   7.158   1.376  11.679 -0.7188  1.8740 -0.1755
  772MOL0     H 1861   7.199   1.460  11.830 -0.5489 -1.2452  2.4686
  772MOL0     H 1862   6.980   1.347  11.832  0.3645  1.1246 -0.3514
  772MOL0     H 1863   7.059   1.182  11.820 -4.3003 -1.3673  4.5368
  772MOL0     H 1864   7.106   1.344  12.066 -1.3574 -0.3424  0.2007
  772MOL0     H 1865   7.182   1.198  12.019  2.1407  2.8997  1.2578
  772MOL0     H 1866   6.889   0.973  11.948  0.6073  2.0594  1.1645
  772MOL0     H 1867   6.912   0.745  12.024  0.4687 -1.0417  0.8537
  772MOL0     H 1868   6.804   0.437  12.244  0.0735 -0.5797  0.6598
  772MOL0     H 1869   6.772   0.189  12.315  0.3018  0.0986  0.7882
  772MOL0     H 1870   7.095   0.074  12.527 -1.6367  0.9269 -0.8292
  772MOL0     H 1871   7.163  -0.039  12.399  0.6708  0.5102  0.2480
  772MOL0     H 1872   6.997  -0.200  12.431 -3.0866  0.3034 -0.5190
  772MOL0     H 1873   6.930  -0.091  12.557  0.3361  2.7149 -2.4542
  772MOL0     H 1874   7.170  -0.128  12.680  1.9640 -1.3661  0.8560
  772MOL0     H 1875   7.178  -0.261  12.571  1.8926  1.6796  0.3906
  772MOL0     H 1876   6.948  -0.220  12.744  0.6408  1.2222 -0.8154
  772MOL0     H 1877   6.989  -0.378  12.664  0.8341 -3.0879  3.3165
  772MOL0     H 1878   7.188  -0.270  12.857 -0.4228  0.1835  0.1940
  772MOL0     H 1879   7.170  -0.430  12.794  1.6426  0.6944  1.0730
  772MOL0     H 1880   6.948  -0.460  12.909 -3.9907  2.6739  0.8548
  772MOL0     H 1881   6.947  -0.296  12.970 -1.6339 -0.2939  1.3004
  772MOL0     H 1882   7.002  -0.417  13.140 -0.3552 -0.8031 -0.0456
  772MOL0     H 1883   7.131  -0.512  13.067  1.8169  0.9208 -0.6399
  772MOL0     H 1884   7.153  -0.206  13.095 -3.4483  0.1545  4.2808
  772MOL0     H 1885   7.285  -0.335  13.074 -0.1145 -1.8791  0.0072
  772MOL0     H 1886   7.212   0.175  12.319 -0.5009 -1.3559  1.7534
  772MOL0     H 1887   7.216   0.393  12.238 -0.2342 -0.6150 -0.7097
  772MOL0     H 1888   7.172   0.888  12.344 -0.6008 -0.6134  1.0339
  772MOL0     H 1889   7.121   1.122  12.257 -1.3712 -0.0386  1.1505
  772MOL0     H 1890   8.556   1.073  10.943 -2.4741 -0.4528  0.3284
  772MOL0     H 1891   8.767   0.952  10.935 -2.0482  0.1913 -1.1677
  772MOL0     H 1892   8.871   0.426  11.138  1.2032 -0.9165 -2.2246
  772MOL0     H 1893   9.069   0.285  11.087 -0.5400  0.1418 -2.2653
  772MOL0     H 1894   9.276   0.384  10.923 -1.3037 -1.4957  0.7707
  772MOL0     H 1895   9.242   0.213  10.970 -1.7286 -0.4215  0.5355
  772MOL0     H 1896   9.489   0.176  10.978  0.5701  0.1776 -0.0423
  772MOL0     H 1897   9.442   0.263  10.831  2.0570  0.1068 -1.3576
  772MOL0     H 1898   9.568   0.376  11.092  0.8849 -0.3106 -0.0650
  772MOL0     H 1899   9.522   0.472  10.950  1.5415  0.3657  0.3929
  772MOL0     H 1900   9.754   0.441  10.945 -1.5285  1.3956  0.1452
  772MOL0     H 1901   9.743   0.275  10.994 -0.2200  2.1394  1.7397
  772MOL0     H 1902   9.718   0.228  10.571 -0.1494 -0.0580 -0.7288
  772MOL0     H 1903   9.333   0.609  11.204 -0.9134  0.3348  3.0733
  772MOL0     H 1904   9.150   0.755  11.223 -0.7210  1.0632  0.2068
  773MOL0     O 1905  10.770   0.372   4.101 -0.1293  0.1825  0.3286
  773MOL0     C 1906  10.677   0.382   4.177  0.9264  0.2619 -0.3843
  773MOL0     O 1907  10.546   0.337   4.154  0.0392 -0.6672  0.3995
  773MOL0     C 1908  10.543   0.291   4.024  1.3006  0.1451  0.5095
  773MOL0     C 1909  10.522   0.151   3.995  0.6030 -0.4917  0.0437
  773MOL0     C 1910  10.502   0.108   3.869 -0.3446 -0.2141  0.5317
  773MOL0     C 1911  10.513   0.202   3.766  0.5556  0.7364 -0.7120
  773MOL0     O 1912  10.503   0.167   3.634 -0.0590  0.0061  0.8011
  773MOL0     C 1913  10.529   0.030   3.594  0.1071  0.8146  0.5083
  773MOL0     C 1914  10.521   0.032   3.434  0.0137  0.7802 -0.5648
  773MOL0     C 1915  10.545  -0.103   3.381  0.1449  0.1840 -0.7492
  773MOL0     C 1916  10.548  -0.099   3.224  0.4988 -0.3141 -0.6386
  773MOL0     C 1917  10.565  -0.244   3.174  0.4238  0.0617 -0.5074
  773MOL0     C 1918  10.529  -0.263   3.023  0.5465  0.4045  0.6038
  773MOL0     C 1919  10.565  -0.409   2.985  0.2325 -0.8805  0.5135
  773MOL0     C 1920  10.637  -0.407   2.848  0.7434  0.4822 -0.3664
  773MOL0     N 1921  10.696  -0.536   2.832  0.1031  0.2007 -0.0290
  773MOL0     C 1922  10.822  -0.560   2.781  0.4155  0.5632  0.5002
  773MOL0     C 1923  10.825  -0.681   2.722  0.1995 -0.0981  0.3383
  773MOL0     C 1924  10.945  -0.737   2.640 -0.0465 -0.5368  0.1777
  773MOL0     C 1925  11.050  -0.811   2.719  0.5954  0.7221 -0.1700
  773MOL0     C 1926  11.162  -0.862   2.633  0.2890  0.8449 -0.3123
  773MOL0     C 1927  11.271  -0.938   2.707  0.0263  0.3578 -0.0004
  773MOL0     O 1928  11.217  -1.056   2.759  0.2002  0.4454  0.1554
  773MOL0     C 1929  11.260  -1.182   2.731  0.8529  1.0234  1.3502
  773MOL0     C 1930  11.172  -1.288   2.738 -0.3308 -0.0245 -0.1377
  773MOL0     C 1931  11.225  -1.416   2.718 -0.8324  0.3100  0.1543
  773MOL0     C 1932  11.359  -1.448   2.694  0.1681 -1.7225 -0.0201
  773MOL0     C 1933  11.407  -1.592   2.676 -0.6431 -0.0368  0.8365
  773MOL0     O 1934  11.310  -1.675   2.666 -0.0722 -0.3187  0.3307
  773MOL0     C 1935  11.338  -1.811   2.629 -0.8195  0.7037 -0.3388
  773MOL0     C 1936  11.359  -1.834   2.483 -0.0524  0.8503 -0.2245
  773MOL0     C 1937  11.380  -1.962   2.444 -0.2503 -0.8077  0.0952
  773MOL0     C 1938  11.367  -2.078   2.528 -0.2887  0.1598 -0.2570
  773MOL0     O 1939  11.384  -2.211   2.494 -0.4192 -0.3159 -0.4184
  773MOL0     C 1940  11.434  -2.264   2.373  0.2485 -0.1192 -0.4014
  773MOL0     C 1941  11.374  -2.395   2.326  0.0664  0.1120 -0.5141
  773MOL0     C 1942  11.428  -2.439   2.190 -0.2780 -0.3294 -0.3360
  773MOL0     C 1943  11.392  -2.578   2.136 -0.7550  0.8371  0.0748
  773MOL0     C 1944  11.241  -2.619   2.151  0.5781 -0.1303  0.5700
  773MOL0     C 1945  11.211  -2.761   2.101 -0.1496  0.2655 -1.4576
  773MOL0     C 1946  11.093  -2.822   2.179  0.2335 -0.0388 -0.5804
  773MOL0     C 1947  11.080  -2.967   2.143 -0.0845 -0.5463 -0.6955
  773MOL0    Cl 1948  11.229  -3.049   2.216 -0.0144  0.2878  0.7294
  773MOL0     C 1949  11.359  -2.052   2.659 -0.1715 -0.2136  0.1743
  773MOL0     C 1950  11.345  -1.918   2.709  0.7458 -0.6868  0.2006
  773MOL0     O 1951  11.529  -1.612   2.660  0.6423  0.8277  0.4042
  773MOL0     C 1952  11.450  -1.343   2.698 -0.0618  0.1301 -0.2340
  773MOL0     C 1953  11.400  -1.217   2.712  0.4664 -0.0259  0.4345
  773MOL0     N 1954  10.705  -0.743   2.743  0.0695 -0.0246 -0.5145
  773MOL0     N 1955  10.640  -0.664   2.823 -0.3935  0.0425  0.1313
  773MOL0     C 1956  10.531   0.339   3.795  0.6140 -0.1064 -0.0384
  773MOL0     C 1957  10.557   0.373   3.924 -0.2690 -0.6202  0.3160
  773MOL0     C 1958  10.710   0.446   4.309  0.6247  0.8445  0.0676
  773MOL0     C 1959  10.823   0.510   4.339  0.0871 -0.7222  0.6702
  773MOL0     C 1960  10.853   0.562   4.470 -0.3546  0.4946 -0.1352
  773MOL0     C 1961  10.761   0.538   4.571 -0.0122  0.6199 -0.7514
  773MOL0     O 1962  10.805   0.580   4.698  0.8270 -0.0307  0.0620
  773MOL0     C 1963  10.725   0.552   4.817  0.6412 -0.5512  0.2600
  773MOL0     C 1964  10.613   0.656   4.841 -0.0241  0.1042  0.7710
  773MOL0     C 1965  10.521   0.606   4.962 -0.2367 -1.2320 -0.4834
  773MOL0     C 1966  10.565   0.668   5.099 -0.0004 -0.0786 -0.1761
  773MOL0     C 1967  10.540   0.811   5.099  0.2479 -0.2096  0.9166
  773MOL0     C 1968  10.508   0.930   5.111  0.0041 -0.2726  0.5577
  773MOL0     C 1969  10.639   0.468   4.542  0.5024 -1.0341 -0.1410
  773MOL0     C 1970  10.610   0.433   4.411 -0.2383 -0.2361  0.6102
  773MOL0     H 1971  10.508   0.080   4.076 -2.2153 -1.5242 -1.1755
  773MOL0     H 1972  10.465   0.007   3.858  1.0371 -0.5416 -1.3949
  773MOL0     H 1973  10.445  -0.033   3.623  0.3120 -0.5164 -1.5874
  773MOL0     H 1974  10.627   0.004   3.634  1.6086  4.9590  0.0794
  773MOL0     H 1975  10.584   0.106   3.383  0.8991  0.2309 -0.2826
  773MOL0     H 1976  10.418   0.052   3.403  0.2521  1.2621 -1.0794
  773MOL0     H 1977  10.463  -0.167   3.416  1.7868 -0.2201  2.7190
  773MOL0     H 1978  10.637  -0.152   3.414 -1.1075 -0.2579  2.4380
  773MOL0     H 1979  10.451  -0.064   3.190  1.3054 -0.0588 -2.8529
  773MOL0     H 1980  10.633  -0.037   3.193 -0.1155  0.7301 -0.2954
  773MOL0     H 1981  10.503  -0.311   3.235  2.6675 -1.0185  0.7068
  773MOL0     H 1982  10.667  -0.281   3.187  1.7456  2.8090 -1.9901
  773MOL0     H 1983  10.587  -0.189   2.966  0.2572  1.3891  1.5687
  773MOL0     H 1984  10.424  -0.234   3.013  0.4653  0.7994  2.4287
  773MOL0     H 1985  10.627  -0.457   3.062 -0.5175 -2.4071  0.2111
  773MOL0     H 1986  10.474  -0.465   2.962  1.2544 -2.8452  1.0684
  773MOL0     H 1987  10.719  -0.335   2.855  0.2733  0.8755  2.4793
  773MOL0     H 1988  10.578  -0.383   2.759  0.9710  4.5740  0.3638
  773MOL0     H 1989  10.897  -0.482   2.795  1.9820 -1.0673  1.6066
  773MOL0     H 1990  10.994  -0.654   2.590 -3.1313  1.2859 -0.0950
  773MOL0     H 1991  10.914  -0.787   2.549 -1.1716  0.8654 -0.2508
  773MOL0     H 1992  10.997  -0.896   2.764  1.4842 -1.2550 -2.6367
  773MOL0     H 1993  11.087  -0.752   2.803 -0.6177 -0.2108  1.0741
  773MOL0     H 1994  11.128  -0.926   2.550  2.2436 -3.4811  1.9150
  773MOL0     H 1995  11.209  -0.769   2.601  2.3145 -1.0552 -3.4118
  773MOL0     H 1996  11.315  -0.883   2.791 -0.0171  0.1962  0.1296
  773MOL0     H 1997  11.354  -0.954   2.638 -2.3144  0.5854 -3.0814
  773MOL0     H 1998  11.075  -1.255   2.774  0.6950  1.3226  1.5195
  773MOL0     H 1999  11.144  -1.487   2.707 -2.7444  2.7621 -4.1351
  773MOL0     H 2000  11.360  -1.748   2.417  0.1197 -0.5143 -2.0812
  773MOL0     H 2001  11.394  -1.989   2.340 -0.0402 -2.2792  0.4827
  773MOL0     H 2002  11.543  -2.268   2.386  0.4165  0.1836 -1.5770
  773MOL0     H 2003  11.403  -2.193   2.296 -3.0317  2.3320  2.8468
  773MOL0     H 2004  11.265  -2.392   2.322 -0.0831 -1.7850  0.6402
  773MOL0     H 2005  11.416  -2.469   2.396 -2.1583  0.0245  0.8392
  773MOL0     H 2006  11.535  -2.418   2.183 -0.7983  2.1370 -3.0638
  773MOL0     H 2007  11.388  -2.371   2.114 -0.5613 -1.6377 -1.4074
  773MOL0     H 2008  11.430  -2.584   2.034 -3.4369  0.0057 -0.9730
  773MOL0     H 2009  11.453  -2.656   2.183  1.3315  2.1267 -0.4046
  773MOL0     H 2010  11.176  -2.550   2.097  0.0974 -1.6519 -0.8999
  773MOL0     H 2011  11.225  -2.613   2.259  2.7405  0.1653  0.9318
  773MOL0     H 2012  11.297  -2.825   2.122 -1.7889 -1.1320  1.7336
  773MOL0     H 2013  11.178  -2.758   1.997  0.8649  1.6718 -1.7704
  773MOL0     H 2014  11.095  -2.812   2.288  0.7824 -1.6394 -0.4211
  773MOL0     H 2015  11.002  -2.777   2.138  0.6018 -1.8701 -3.7771
  773MOL0     H 2016  11.076  -2.984   2.035  2.8586  0.5383 -1.0735
  773MOL0     H 2017  10.995  -3.015   2.193  0.6546 -1.4595 -0.2615
  773MOL0     H 2018  11.354  -2.134   2.730  1.6731 -1.9721 -1.6165
  773MOL0     H 2019  11.347  -1.919   2.818  0.8061 -1.6016  0.1913
  773MOL0     H 2020  11.557  -1.361   2.692  0.1456 -0.6259  3.3852
  773MOL0     H 2021  11.462  -1.128   2.707 -1.9293  1.8433  1.3754
  773MOL0     H 2022  10.531   0.402   3.706  4.1897  0.9431  0.5348
  773MOL0     H 2023  10.578   0.479   3.940 -1.6419 -0.2219 -0.3564
  773MOL0     H 2024  10.906   0.537   4.274  0.3108  1.1655  1.6535
  773MOL0     H 2025  10.945   0.617   4.482  0.2831 -0.7403  0.9928
  773MOL0     H 2026  10.792   0.562   4.902 -2.6893  1.0360  2.9333
  773MOL0     H 2027  10.694   0.447   4.808  1.8928 -0.7629 -3.1058
  773MOL0     H 2028  10.662   0.749   4.872  2.8005 -0.3241 -1.9215
  773MOL0     H 2029  10.554   0.667   4.750  2.1683 -2.4932 -1.1420
  773MOL0     H 2030  10.536   0.498   4.970  2.1301 -0.8433  1.6910
  773MOL0     H 2031  10.414   0.628   4.955 -0.6541 -2.5982  0.9336
  773MOL0     H 2032  10.515   0.620   5.184 -0.7104 -0.3552 -0.7315
  773MOL0     H 2033  10.672   0.662   5.116  0.0477 -0.7959 -0.6518
  773MOL0     H 2034  10.473   1.030   5.125 -3.7832 -1.5247  1.0267
  773MOL0     H 2035  10.565   0.472   4.621  2.0666 -0.5827  1.3601
  773MOL0     H 2036  10.525   0.369   4.392 -0.7697  0.2801  1.1866
  774MOL0     O 2037  10.679   1.481   1.838 -0.1538 -0.0871 -0.3140
  774MOL0     C 2038  10.560   1.506   1.835 -1.0685  0.0524 -0.9224
  774MOL0     O 2039  10.456   1.428   1.790 -0.1776  0.0222  0.0418
  774MOL0     C 2040  10.486   1.321   1.711  0.0582  0.4905 -0.7051
  774MOL0     C 2041  10.567   1.318   1.599  0.1298  0.0883  0.1980
  774MOL0     C 2042  10.591   1.208   1.521  0.1741  0.3753  0.0634
  774MOL0     C 2043  10.522   1.089   1.550  0.3420 -0.6255  0.3052
  774MOL0     O 2044  10.530   0.969   1.484  0.0732  0.2834  0.6094
  774MOL0     C 2045  10.614   0.951   1.372 -0.1966  1.9003  0.1489
  774MOL0     C 2046  10.603   0.805   1.319  0.3193  0.8480 -0.7501
  774MOL0     C 2047  10.677   0.776   1.199 -0.6083 -0.5794 -0.3021
  774MOL0     C 2048  10.632   0.638   1.137  0.4887 -0.4966  0.0724
  774MOL0     C 2049  10.734   0.588   1.036  0.8976  0.6067 -0.5013
  774MOL0     C 2050  10.744   0.641   0.901 -0.4241 -0.2059 -0.3231
  774MOL0     C 2051  10.822   0.769   0.879  0.1854 -0.0707 -0.4466
  774MOL0     C 2052  10.872   0.776   0.734  0.1083 -1.2606  0.7326
  774MOL0     N 2053  10.907   0.904   0.670  0.7587  0.8192 -0.4098
  774MOL0     C 2054  10.911   1.030   0.718 -1.0228 -0.2507 -0.5148
  774MOL0     C 2055  10.922   1.116   0.618  0.2485  0.5189 -0.1864
  774MOL0     C 2056  10.912   1.267   0.628 -0.6951  0.2578 -0.0267
  774MOL0     C 2057  11.029   1.328   0.571  0.0159 -0.4053 -0.2016
  774MOL0     C 2058  10.984   1.464   0.529 -0.2171  0.9043  0.0253
  774MOL0     C 2059  10.932   1.558   0.637 -0.4113 -0.3984  0.9943
  774MOL0     O 2060  10.896   1.679   0.579  0.5413  0.3500  0.4523
  774MOL0     C 2061  10.760   1.691   0.534 -0.5288 -0.6798  0.1475
  774MOL0     C 2062  10.703   1.821   0.527 -0.4061  0.5681 -0.6974
  774MOL0     C 2063  10.565   1.844   0.510  0.5390 -0.1477 -0.9094
  774MOL0     C 2064  10.481   1.734   0.479 -0.7850 -0.0686 -0.0297
  774MOL0     C 2065  10.340   1.754   0.451 -0.2746  0.4873  0.0421
  774MOL0     O 2066  10.304   1.883   0.429  0.2009  0.0782  0.1863
  774MOL0     C 2067  10.182   1.929   0.405 -0.0624 -0.1326  0.5210
  774MOL0     C 2068  10.151   2.033   0.319  0.7802  0.1818  0.9313
  774MOL0     C 2069  10.021   2.078   0.299  0.2595  0.2664 -0.2002
  774MOL0     C 2070   9.917   2.033   0.379 -0.4638  1.1624  0.4428
  774MOL0     O 2071   9.793   2.052   0.346  0.3410 -0.4486 -1.0317
  774MOL0     C 2072   9.753   2.179   0.414  0.4953  0.4854 -0.8220
  774MOL0     C 2073   9.620   2.229   0.361 -0.3365  0.3416  0.9966
  774MOL0     C 2074   9.591   2.226   0.209 -0.2345  1.0352 -0.6935
  774MOL0     C 2075   9.701   2.269   0.113 -0.0143  0.4678 -0.6766
  774MOL0     C 2076   9.660   2.238  -0.032 -1.4463 -0.1264  0.8108
  774MOL0     C 2077   9.790   2.232  -0.119  0.2451 -0.7741  0.1478
  774MOL0     C 2078   9.855   2.373  -0.155 -0.7410 -0.6254  0.7829
  774MOL0     C 2079   9.972   2.351  -0.258  0.3813 -0.3976 -0.6590
  774MOL0    Cl 2080   9.937   2.303  -0.428 -0.2248 -0.3069 -0.5108
  774MOL0     C 2081   9.950   1.934   0.474 -0.0159 -0.0765 -0.0733
  774MOL0     C 2082  10.082   1.880   0.486 -0.7857 -0.2356  0.3671
  774MOL0     O 2083  10.275   1.660   0.429  0.5451 -0.0551  0.7360
  774MOL0     C 2084  10.538   1.604   0.483  0.6707  0.1839  0.6749
  774MOL0     C 2085  10.670   1.584   0.509 -0.7465  0.3890  0.4063
  774MOL0     N 2086  10.927   1.038   0.505 -0.3509  0.0924  0.0636
  774MOL0     N 2087  10.922   0.911   0.538  0.2263 -0.5401 -0.8973
  774MOL0     C 2088  10.443   1.090   1.664  0.0335 -0.5673 -0.4493
  774MOL0     C 2089  10.430   1.197   1.742  0.0644 -0.0572  1.3934
  774MOL0     C 2090  10.526   1.640   1.890  0.9746  0.1688  0.1735
  774MOL0     C 2091  10.623   1.729   1.941  0.7726  0.2436  0.1742
  774MOL0     C 2092  10.585   1.855   1.988  0.9541 -0.3139 -1.2172
  774MOL0     C 2093  10.451   1.901   1.989  0.8739  0.1051  0.1537
  774MOL0     O 2094  10.411   2.010   2.058 -0.9330  0.5676 -0.6104
  774MOL0     C 2095  10.485   2.130   2.049 -0.3370  0.4600 -0.2909
  774MOL0     C 2096  10.411   2.262   2.078  0.4672 -0.1585  0.2572
  774MOL0     C 2097  10.332   2.257   2.219 -0.7112 -0.4678  0.0333
  774MOL0     C 2098  10.186   2.292   2.216 -0.9691 -0.0823  0.9303
  774MOL0     C 2099  10.155   2.418   2.142  0.6662  0.4840  0.9281
  774MOL0     C 2100  10.136   2.507   2.067  0.8261  0.5284  0.6245
  774MOL0     C 2101  10.354   1.815   1.932 -0.6289  0.0969  1.2595
  774MOL0     C 2102  10.397   1.689   1.885 -1.0592 -0.3095 -0.4206
  774MOL0     H 2103  10.608   1.412   1.563 -0.8178  0.4008 -0.0938
  774MOL0     H 2104  10.662   1.216   1.439  3.3261 -1.0930  2.4365
  774MOL0     H 2105  10.719   0.966   1.398 -0.4110  0.4272  2.0506
  774MOL0     H 2106  10.577   1.016   1.292 -1.1660  2.3337  0.9362
  774MOL0     H 2107  10.496   0.795   1.297 -0.2448 -3.1223  2.6347
  774MOL0     H 2108  10.634   0.736   1.398 -1.3376 -0.3809 -1.1218
  774MOL0     H 2109  10.772   0.757   1.250 -1.0155 -3.3025 -0.4379
  774MOL0     H 2110  10.703   0.857   1.130 -0.0536  0.9570  1.6250
  774MOL0     H 2111  10.612   0.578   1.226 -2.8921  0.9616  0.4860
  774MOL0     H 2112  10.527   0.651   1.109  0.0314 -1.1028  1.4184
  774MOL0     H 2113  10.717   0.481   1.020  2.3923  0.5405 -1.9261
  774MOL0     H 2114  10.835   0.587   1.077  1.3806  2.2125 -1.5656
  774MOL0     H 2115  10.647   0.641   0.849  0.8543  3.0166 -3.0906
  774MOL0     H 2116  10.802   0.563   0.852  0.3361 -1.2263  2.0619
  774MOL0     H 2117  10.742   0.839   0.905  0.0974 -0.4361  0.2912
  774MOL0     H 2118  10.907   0.782   0.945 -0.9675  0.5023  0.9739
  774MOL0     H 2119  10.781   0.738   0.687  0.8221 -1.5935 -0.4150
  774MOL0     H 2120  10.940   0.697   0.701  0.4154 -0.3696 -0.9071
  774MOL0     H 2121  10.891   1.056   0.822 -0.1212 -4.2445  0.8609
  774MOL0     H 2122  10.892   1.294   0.732  0.0015  2.3951 -0.3983
  774MOL0     H 2123  10.822   1.295   0.572 -0.2184 -0.8098 -1.3820
  774MOL0     H 2124  11.074   1.271   0.489 -3.3797 -1.9962 -1.1410
  774MOL0     H 2125  11.112   1.342   0.640  3.2739  1.7944 -4.1721
  774MOL0     H 2126  11.075   1.512   0.492  1.5815 -0.6175  2.2258
  774MOL0     H 2127  10.915   1.441   0.447  0.1267 -0.2067  0.0303
  774MOL0     H 2128  11.015   1.567   0.708  2.7344 -0.9018 -2.3015
  774MOL0     H 2129  10.846   1.515   0.689 -1.7420  0.1848 -0.6457
  774MOL0     H 2130  10.781   1.891   0.555  1.5937 -1.9574  0.4506
  774MOL0     H 2131  10.526   1.945   0.518 -2.9050 -1.4615  1.3896
  774MOL0     H 2132  10.236   2.059   0.256  1.7090 -0.0775  2.0456
  774MOL0     H 2133  10.005   2.163   0.234 -1.5321  0.1335  0.0029
  774MOL0     H 2134   9.823   2.261   0.396 -2.5617  3.4195 -0.3701
  774MOL0     H 2135   9.750   2.167   0.522  3.2826 -1.1590 -0.8505
  774MOL0     H 2136   9.610   2.332   0.395  0.9375  0.3607  1.3533
  774MOL0     H 2137   9.544   2.168   0.411  0.8181 -1.2005  0.9504
  774MOL0     H 2138   9.502   2.286   0.190 -1.3528 -0.7354 -1.2291
  774MOL0     H 2139   9.572   2.120   0.195  0.4050  0.3335  2.7902
  774MOL0     H 2140   9.703   2.376   0.139 -2.6629  0.3973  0.1526
  774MOL0     H 2141   9.792   2.219   0.146 -0.7633  1.1461  2.7654
  774MOL0     H 2142   9.595   2.315  -0.073 -0.6726 -0.5165 -1.2827
  774MOL0     H 2143   9.611   2.141  -0.044 -2.2797  0.4617 -0.8340
  774MOL0     H 2144   9.760   2.179  -0.209  0.8805  0.0653 -0.5760
  774MOL0     H 2145   9.863   2.173  -0.063 -0.0946  0.5794  2.1589
  774MOL0     H 2146   9.780   2.433  -0.209  0.8186 -0.1942 -1.0252
  774MOL0     H 2147   9.887   2.399  -0.054 -0.1416 -1.2328  0.7518
  774MOL0     H 2148  10.057   2.295  -0.218  0.5499  0.2774 -0.0560
  774MOL0     H 2149  10.008   2.453  -0.276 -1.2019  0.2722 -0.2127
  774MOL0     H 2150   9.879   1.895   0.546  2.8944 -2.1445  1.9226
  774MOL0     H 2151  10.108   1.813   0.568 -0.7477 -0.3515  0.2602
  774MOL0     H 2152  10.471   1.528   0.445 -0.5523  2.3362 -1.8842
  774MOL0     H 2153  10.709   1.483   0.505 -0.6147  0.4495  0.1431
  774MOL0     H 2154  10.375   1.008   1.684  0.4599 -0.8274 -0.0528
  774MOL0     H 2155  10.345   1.185   1.808 -4.2284 -1.5633 -3.6966
  774MOL0     H 2156  10.729   1.704   1.941  0.3084 -2.0684  1.8196
  774MOL0     H 2157  10.657   1.927   2.026  0.5481 -2.0447  3.4517
  774MOL0     H 2158  10.532   2.132   1.950 -1.4992 -0.0174 -0.8727
  774MOL0     H 2159  10.568   2.120   2.119 -1.6190  0.7996  1.3461
  774MOL0     H 2160  10.486   2.342   2.084  1.7057 -1.3590  1.6664
  774MOL0     H 2161  10.343   2.279   1.994 -0.9308  0.3059  1.4468
  774MOL0     H 2162  10.385   2.327   2.284  0.9345 -0.6709 -1.0133
  774MOL0     H 2163  10.342   2.154   2.255 -4.1649 -0.5748  1.0234
  774MOL0     H 2164  10.132   2.221   2.154 -0.3239  1.4049 -1.5021
  774MOL0     H 2165  10.141   2.309   2.314 -2.5319  1.7360 -0.0295
  774MOL0     H 2166  10.132   2.588   1.997  3.2345  2.3472  2.3954
  774MOL0     H 2167  10.252   1.851   1.934  0.4404  3.6865 -0.1478
  774MOL0     H 2168  10.323   1.623   1.841 -1.0276 -0.7189  0.1355
  775MOL0     O 2169   7.540   6.048  10.593  0.0734 -0.2745  0.3479
  775MOL0     C 2170   7.451   6.112  10.656  0.6755 -0.2973  0.6887
  775MOL0     O 2171   7.457   6.150  10.780 -0.9245  0.5886 -0.4491
  775MOL0     C 2172   7.576   6.129  10.852 -0.1874  0.3487  0.5693
  775MOL0     C 2173   7.699   6.173  10.803 -0.4261  0.2137  0.0738
  775MOL0     C 2174   7.818   6.151  10.874 -0.2906 -0.0687 -0.1011
  775MOL0     C 2175   7.807   6.089  11.003  0.4606  0.6163  0.9122
  775MOL0     O 2176   7.933   6.079  11.067 -0.5832 -0.1318  0.0128
  775MOL0     C 2177   7.998   5.953  11.061  0.1880  0.6905 -0.6763
  775MOL0     C 2178   8.149   5.974  11.089  0.9379  0.5381  0.7802
  775MOL0     C 2179   8.179   5.954  11.237  1.0466 -0.2706  0.5830
  775MOL0     C 2180   8.324   5.951  11.251  0.3837  0.3080  0.8006
  775MOL0     C 2181   8.366   6.009  11.387 -0.0784  0.4674 -0.0583
  775MOL0     C 2182   8.348   6.166  11.387 -0.3235  0.2610 -0.2372
  775MOL0     C 2183   8.439   6.240  11.486  0.3372  0.2079 -0.6858
  775MOL0     C 2184   8.470   6.389  11.464  0.6338 -0.4411 -0.6492
  775MOL0     N 2185   8.588   6.404  11.378  0.0114 -0.4230 -0.6988
  775MOL0     C 2186   8.596   6.447  11.248  0.3782 -0.4860 -0.8529
  775MOL0     C 2187   8.723   6.483  11.223 -0.7058 -0.5003 -0.4972
  775MOL0     C 2188   8.785   6.513  11.088  0.0951  0.8488  0.6716
  775MOL0     C 2189   8.851   6.646  11.058 -0.1125 -0.2612  0.1939
  775MOL0     C 2190   8.888   6.669  10.909  0.5929  1.0653 -0.1630
  775MOL0     C 2191   8.938   6.813  10.891  0.1681 -0.8336 -0.1206
  775MOL0     O 2192   9.056   6.843  10.974  0.4825 -0.2818  0.2773
  775MOL0     C 2193   9.077   6.977  11.006  0.4655 -0.2039 -1.1447
  775MOL0     C 2194   9.010   7.097  10.959 -0.3337 -1.2471  0.6905
  775MOL0     C 2195   9.052   7.222  11.001  0.8066  0.6617  0.4476
  775MOL0     C 2196   9.152   7.236  11.095  0.0515  0.7336  0.4616
  775MOL0     C 2197   9.198   7.368  11.108 -0.7514  0.4590  0.1584
  775MOL0     O 2198   9.139   7.475  11.050  0.7467  0.0021  0.6911
  775MOL0     C 2199   9.197   7.599  11.046  0.2724 -0.7928  0.9003
  775MOL0     C 2200   9.274   7.657  11.156  0.7419  0.0377  0.1072
  775MOL0     C 2201   9.323   7.787  11.146  0.8263  0.0737  0.5909
  775MOL0     C 2202   9.281   7.861  11.030  0.7021 -0.2466 -0.1341
  775MOL0     O 2203   9.306   7.993  11.014 -0.9694  0.1321  0.0803
  775MOL0     C 2204   9.430   8.043  11.079 -0.2074 -0.8595 -0.3935
  775MOL0     C 2205   9.415   8.104  11.219 -0.4635  0.1394  0.0562
  775MOL0     C 2206   9.322   8.226  11.211  0.5054 -0.5866 -0.6821
  775MOL0     C 2207   9.306   8.275  11.350  0.4118 -0.0479  0.2783
  775MOL0     C 2208   9.212   8.398  11.361 -0.8378 -0.1212 -0.1688
  775MOL0     C 2209   9.071   8.388  11.299 -0.1885  0.0664 -0.2307
  775MOL0     C 2210   8.975   8.490  11.355 -0.1078 -0.1894  0.0480
  775MOL0     C 2211   8.860   8.509  11.254  0.6064 -0.1575 -0.0624
  775MOL0    Cl 2212   8.764   8.358  11.256  0.0702 -0.2027 -0.1119
  775MOL0     C 2213   9.220   7.789  10.916 -0.3405  0.4992 -0.6751
  775MOL0     C 2214   9.179   7.661  10.931 -0.3559  0.0424 -0.0667
  775MOL0     O 2215   9.293   7.369  11.184 -0.4705 -0.0610  0.2892
  775MOL0     C 2216   9.203   7.123  11.160  0.7038 -0.5290 -0.0773
  775MOL0     C 2217   9.173   6.992  11.109  0.1484  0.0916 -0.1475
  775MOL0     N 2218   8.794   6.465  11.349  0.2178 -0.3139  0.4992
  775MOL0     N 2219   8.716   6.391  11.422 -0.1776 -0.7534  0.0962
  775MOL0     C 2220   7.678   6.067  11.059  0.0537 -0.3234  0.4200
  775MOL0     C 2221   7.565   6.082  10.984 -1.1217  1.1197  0.1060
  775MOL0     C 2222   7.316   6.117  10.593  1.1566 -0.3729 -0.0531
  775MOL0     C 2223   7.204   6.178  10.658  0.1861  0.0092 -0.4627
  775MOL0     C 2224   7.076   6.195  10.597  0.3252  0.2092 -1.2186
  775MOL0     C 2225   7.053   6.160  10.467  0.2218 -0.2519  0.8098
  775MOL0     O 2226   6.921   6.169  10.429 -0.3189 -0.0459  0.5631
  775MOL0     C 2227   6.821   6.235  10.504  0.4463  0.1697 -0.4374
  775MOL0     C 2228   6.693   6.244  10.426  0.0845  0.3841 -0.5096
  775MOL0     C 2229   6.703   6.317  10.288 -0.4160 -0.1049  0.7568
  775MOL0     C 2230   6.781   6.456  10.298  0.4106  0.4406 -1.1970
  775MOL0     C 2231   6.703   6.556  10.366  0.0481 -0.2518  0.4898
  775MOL0     C 2232   6.621   6.620  10.422  0.4193  0.4074  0.7251
  775MOL0     C 2233   7.165   6.101  10.396  0.5161 -0.2582 -0.3516
  775MOL0     C 2234   7.288   6.075  10.459  0.1066  0.3671  0.8045
  775MOL0     H 2235   7.719   6.228  10.712  1.0670  1.0393  0.8578
  775MOL0     H 2236   7.916   6.191  10.850 -0.4895  1.0454  0.8280
  775MOL0     H 2237   7.980   5.919  10.958 -0.2960 -0.3345 -0.2653
  775MOL0     H 2238   7.946   5.881  11.124 -1.3404  1.4561 -1.0072
  775MOL0     H 2239   8.179   6.071  11.049 -0.8519  1.0594  0.6075
  775MOL0     H 2240   8.207   5.895  11.039  2.5869  2.7612 -1.0588
  775MOL0     H 2241   8.126   5.863  11.265 -1.9079  0.6993 -1.3780
  775MOL0     H 2242   8.131   6.040  11.284 -0.3118  0.0312 -1.2222
  775MOL0     H 2243   8.356   5.847  11.239 -0.3454  0.1488  0.1914
  775MOL0     H 2244   8.357   6.009  11.164  0.4566  2.7791  2.3654
  775MOL0     H 2245   8.475   6.000  11.383  0.0449  2.1244 -2.5561
  775MOL0     H 2246   8.321   5.968  11.477  1.0158  1.0990  0.7976
  775MOL0     H 2247   8.247   6.193  11.417 -0.3815 -2.0391  1.9546
  775MOL0     H 2248   8.376   6.201  11.287  0.7490 -2.1094 -0.8411
  775MOL0     H 2249   8.376   6.234  11.575  4.3623 -0.9050  2.4134
  775MOL0     H 2250   8.534   6.187  11.499 -0.9353 -2.7982 -2.5853
  775MOL0     H 2251   8.481   6.437  11.562 -2.4040  1.6847 -1.2098
  775MOL0     H 2252   8.381   6.434  11.422  1.5013  2.5039  0.4445
  775MOL0     H 2253   8.514   6.440  11.178  0.4905  3.2358 -1.5364
  775MOL0     H 2254   8.707   6.511  11.011  1.4604  1.1614 -0.7655
  775MOL0     H 2255   8.864   6.441  11.068 -1.1353 -0.2104 -0.5647
  775MOL0     H 2256   8.931   6.677  11.125 -0.6218 -1.0696  1.2179
  775MOL0     H 2257   8.769   6.715  11.081 -0.8848 -1.6444  1.8448
  775MOL0     H 2258   8.976   6.614  10.875 -1.1013 -0.2022 -2.8579
  775MOL0     H 2259   8.799   6.662  10.847 -1.6640  3.2140  2.5641
  775MOL0     H 2260   8.856   6.877  10.923  1.2608  0.3312  0.4509
  775MOL0     H 2261   8.964   6.836  10.787  1.1069  0.5223  0.3784
  775MOL0     H 2262   8.932   7.077  10.888  0.6541 -2.2626 -0.1496
  775MOL0     H 2263   9.000   7.308  10.961 -1.7225 -0.5550  0.9672
  775MOL0     H 2264   9.295   7.595  11.243  0.7420  1.9470  1.5263
  775MOL0     H 2265   9.349   7.841  11.236  0.3090  1.7782 -0.2382
  775MOL0     H 2266   9.456   8.115  11.000 -2.8870  3.1306  1.9795
  775MOL0     H 2267   9.512   7.970  11.077 -2.0259 -2.9994 -1.0941
  775MOL0     H 2268   9.507   8.131  11.271  0.5388 -0.1577 -1.5184
  775MOL0     H 2269   9.374   8.026  11.285  0.4418 -0.3273  0.0695
  775MOL0     H 2270   9.225   8.208  11.163  0.7294 -0.9111 -1.0183
  775MOL0     H 2271   9.379   8.303  11.159  1.2082  1.6906  3.0649
  775MOL0     H 2272   9.265   8.203  11.421  2.4739  0.4594  2.1121
  775MOL0     H 2273   9.403   8.310  11.388 -1.9338  6.0485  1.8460
  775MOL0     H 2274   9.268   8.480  11.316  0.2566 -1.8526 -2.1361
  775MOL0     H 2275   9.204   8.405  11.470 -1.1035  1.6557 -0.2736
  775MOL0     H 2276   9.029   8.293  11.334  1.4158 -0.7394 -0.4071
  775MOL0     H 2277   9.072   8.409  11.192 -2.7546  2.1108  0.0549
  775MOL0     H 2278   8.938   8.455  11.451 -2.3727  0.9892 -0.3305
  775MOL0     H 2279   9.032   8.584  11.360  0.8172 -0.7867  1.3094
  775MOL0     H 2280   8.899   8.530  11.154  4.1488  1.4581  1.4689
  775MOL0     H 2281   8.806   8.602  11.275 -0.0462  0.2112 -3.0157
  775MOL0     H 2282   9.186   7.842  10.827 -0.1361  0.1110 -0.9886
  775MOL0     H 2283   9.125   7.618  10.847 -0.6146  2.3085 -1.1495
  775MOL0     H 2284   9.264   7.146  11.247 -1.8644  0.4243  1.5585
  775MOL0     H 2285   9.233   6.903  11.127  1.6316  0.5708 -2.2333
  775MOL0     H 2286   7.681   6.028  11.160  1.2151 -2.8532 -0.5141
  775MOL0     H 2287   7.469   6.067  11.033 -0.1734  2.8206  2.6377
  775MOL0     H 2288   7.220   6.228  10.754  1.4644  1.7979 -1.5549
  775MOL0     H 2289   7.010   6.248  10.665 -0.2882 -1.6935 -0.2806
  775MOL0     H 2290   6.857   6.334  10.535 -2.7922  1.4641 -0.4296
  775MOL0     H 2291   6.806   6.186  10.601  3.4279  2.2401  1.2662
  775MOL0     H 2292   6.655   6.143  10.409  2.0039 -0.6762  1.0268
  775MOL0     H 2293   6.613   6.289  10.486 -1.1026  1.2195 -2.6235
  775MOL0     H 2294   6.608   6.326  10.234 -1.8986  0.1657  3.2516
  775MOL0     H 2295   6.777   6.266  10.224  0.1041  1.4031  0.1120
  775MOL0     H 2296   6.872   6.444  10.357 -0.8682  1.7280  1.2534
  775MOL0     H 2297   6.804   6.492  10.198 -0.3760 -0.6651 -1.7947
  775MOL0     H 2298   6.544   6.681  10.465 -0.6815 -0.6076  0.2875
  775MOL0     H 2299   7.158   6.056  10.297 -2.4340 -0.6485 -0.0558
  775MOL0     H 2300   7.361   6.026  10.395  0.9082  0.8192  1.3521
  776MOL0     O 2301   3.847   0.423   0.270 -0.1290 -0.2739  0.0028
  776MOL0     C 2302   3.894   0.348   0.191  0.1651  0.4507  0.5781
  776MOL0     O 2303   3.903   0.213   0.213 -0.6375 -0.1272  0.3269
  776MOL0     C 2304   3.894   0.167   0.344 -0.7566  0.0607 -0.0797
  776MOL0     C 2305   3.944   0.216   0.459  0.2697 -0.3054  0.9046
  776MOL0     C 2306   3.946   0.146   0.574 -0.1903 -0.0256 -0.6696
  776MOL0     C 2307   3.895   0.016   0.593 -0.9705 -0.0734 -0.4358
  776MOL0     O 2308   3.912  -0.070   0.702  0.2289  0.2142  0.1912
  776MOL0     C 2309   3.959  -0.019   0.823 -0.3287 -0.0472  0.1408
  776MOL0     C 2310   3.863  -0.051   0.924 -0.7248  0.2958 -1.1021
  776MOL0     C 2311   3.745   0.044   0.928  1.4988 -0.6113 -0.3376
  776MOL0     C 2312   3.638  -0.010   1.016 -0.5074  0.3331  0.2071
  776MOL0     C 2313   3.511   0.075   1.017 -0.1618  0.0592  0.2266
  776MOL0     C 2314   3.392   0.013   1.103  0.4260 -0.3178 -0.3170
  776MOL0     C 2315   3.275   0.104   1.110  0.2891  0.8898  0.4515
  776MOL0     C 2316   3.138   0.057   1.045 -0.2092  0.6154 -0.1136
  776MOL0     N 2317   3.021   0.159   1.053  0.4353  0.2599 -0.1942
  776MOL0     C 2318   2.893   0.126   1.020  0.1981  0.7933  0.1896
  776MOL0     C 2319   2.819   0.240   1.018 -1.0099  0.1494  0.7686
  776MOL0     C 2320   2.676   0.255   0.998 -0.7308 -0.5260  0.1453
  776MOL0     C 2321   2.642   0.267   0.846 -0.4843 -0.1864 -0.1505
  776MOL0     C 2322   2.485   0.253   0.815 -0.0001 -0.5566 -0.6016
  776MOL0     C 2323   2.471   0.261   0.670  0.1177 -0.4047  0.7410
  776MOL0     O 2324   2.509   0.387   0.618  0.3609 -0.5572 -0.1708
  776MOL0     C 2325   2.512   0.416   0.484 -1.1346 -0.1598 -0.5467
  776MOL0     C 2326   2.621   0.363   0.413 -0.4257  0.0690  0.7663
  776MOL0     C 2327   2.623   0.383   0.271 -0.0453  0.4672  0.1734
  776MOL0     C 2328   2.525   0.449   0.200 -0.2614  1.0696 -0.3305
  776MOL0     C 2329   2.523   0.472   0.053  0.3431  0.7167  0.5228
  776MOL0     O 2330   2.611   0.398  -0.016  0.0274 -0.0363 -0.3008
  776MOL0     C 2331   2.607   0.379  -0.150 -0.8393 -0.3878 -0.6315
  776MOL0     C 2332   2.514   0.302  -0.217 -0.0544 -0.0697 -0.3396
  776MOL0     C 2333   2.520   0.277  -0.360 -0.4778 -0.5552  0.8459
  776MOL0     C 2334   2.613   0.344  -0.438  1.3880  0.0514 -0.4696
  776MOL0     O 2335   2.631   0.324  -0.571 -0.5393 -0.7991  0.5051
  776MOL0     C 2336   2.599   0.200  -0.636 -0.3657  0.3889 -0.1765
  776MOL0     C 2337   2.640   0.205  -0.784 -0.0682 -0.4320 -0.2299
  776MOL0     C 2338   2.783   0.221  -0.818 -0.4217 -0.8655  0.8828
  776MOL0     C 2339   2.804   0.267  -0.970  0.5505 -0.4457 -0.8601
  776MOL0     C 2340   2.935   0.345  -1.005  0.4312 -0.2367  0.7365
  776MOL0     C 2341   3.046   0.248  -1.039 -0.3090  0.2013 -1.0023
  776MOL0     C 2342   3.160   0.321  -1.121  0.2352  0.4270  0.1457
  776MOL0     C 2343   3.282   0.222  -1.122  0.7159  0.8247 -0.2335
  776MOL0    Cl 2344   3.384   0.324  -1.223 -0.3957 -0.4268 -0.0416
  776MOL0     C 2345   2.705   0.433  -0.371 -0.7800  0.6081 -0.6501
  776MOL0     C 2346   2.703   0.453  -0.226 -0.3050 -0.5876  0.4444
  776MOL0     O 2347   2.442   0.543  -0.001 -0.2819  0.1257 -0.0108
  776MOL0     C 2348   2.415   0.501   0.277  0.4009 -0.1963 -0.3374
  776MOL0     C 2349   2.422   0.495   0.421  0.3907 -0.0211 -0.7702
  776MOL0     N 2350   2.907   0.335   1.071  0.9606 -0.5547 -0.0985
  776MOL0     N 2351   3.018   0.285   1.100 -0.7635 -0.5615 -0.0495
  776MOL0     C 2352   3.844  -0.038   0.475 -0.1013  0.0062  0.4100
  776MOL0     C 2353   3.836   0.040   0.359 -0.5512 -0.2388 -0.1850
  776MOL0     C 2354   3.964   0.393   0.071  0.5748 -0.5198 -0.0134
  776MOL0     C 2355   4.049   0.315  -0.005 -0.2852 -0.3081  0.8091
  776MOL0     C 2356   4.115   0.365  -0.115  0.0346 -0.6518  0.0295
  776MOL0     C 2357   4.106   0.502  -0.156 -0.1657 -0.2262 -0.2476
  776MOL0     O 2358   4.177   0.565  -0.260 -0.4249 -0.2007  0.6367
  776MOL0     C 2359   4.286   0.487  -0.316  0.1512 -0.3477 -0.5102
  776MOL0     C 2360   4.385   0.570  -0.404  0.4990 -0.0951 -1.2348
  776MOL0     C 2361   4.508   0.488  -0.427  0.6980 -0.6970  0.5203
  776MOL0     C 2362   4.617   0.564  -0.511  0.4756 -0.1984  0.2337
  776MOL0     C 2363   4.580   0.657  -0.612 -0.7730  0.5369 -0.1950
  776MOL0     C 2364   4.581   0.752  -0.682  0.3326 -0.0266 -0.0253
  776MOL0     C 2365   4.029   0.580  -0.068  0.1584  0.2889  0.8730
  776MOL0     C 2366   3.958   0.531   0.046 -0.0678  0.1375 -0.1095
  776MOL0     H 2367   3.996   0.311   0.465 -1.3660  0.6443  0.5437
  776MOL0     H 2368   3.985   0.197   0.662 -2.3516 -0.9454  0.9357
  776MOL0     H 2369   3.979   0.088   0.826  2.6969 -0.5288  0.1509
  776MOL0     H 2370   4.052  -0.073   0.845  0.1829  0.5736 -0.4551
  776MOL0     H 2371   3.909  -0.041   1.023 -0.1720  1.0649 -1.4266
  776MOL0     H 2372   3.835  -0.156   0.912  0.1088  0.2327 -2.8033
  776MOL0     H 2373   3.702   0.063   0.829  2.8483  1.6849 -0.5503
  776MOL0     H 2374   3.777   0.144   0.957  1.5176 -0.0448 -2.1694
  776MOL0     H 2375   3.622  -0.114   0.987  0.2977  0.1418  0.4440
  776MOL0     H 2376   3.671  -0.006   1.120  2.5371 -1.4076 -0.5946
  776MOL0     H 2377   3.476   0.092   0.914 -1.0927  0.4768  0.6021
  776MOL0     H 2378   3.541   0.170   1.060  2.0898 -0.9368  0.9812
  776MOL0     H 2379   3.431  -0.015   1.201  0.1961 -2.8185 -0.8597
  776MOL0     H 2380   3.364  -0.082   1.056  0.4983  0.0251 -1.0806
  776MOL0     H 2381   3.253   0.131   1.213 -3.1012  0.8964 -0.1389
  776MOL0     H 2382   3.302   0.203   1.071 -1.6000  1.2274 -0.1110
  776MOL0     H 2383   3.113  -0.037   1.095  2.4976  0.4597  1.0872
  776MOL0     H 2384   3.148   0.044   0.937 -1.2029  0.8198 -0.2374
  776MOL0     H 2385   2.863   0.030   0.979  2.7808  0.5749 -1.4066
  776MOL0     H 2386   2.649   0.342   1.060 -0.5932 -2.1516  2.6227
  776MOL0     H 2387   2.629   0.172   1.052 -3.0166  1.0102  0.6943
  776MOL0     H 2388   2.704   0.195   0.791 -2.0184 -1.3510 -0.4407
  776MOL0     H 2389   2.673   0.370   0.829 -0.3136 -0.1459  0.3910
  776MOL0     H 2390   2.439   0.161   0.852 -3.2726 -0.0082 -2.9245
  776MOL0     H 2391   2.431   0.337   0.858  0.9953 -1.4515  2.7035
  776MOL0     H 2392   2.373   0.255   0.622  0.5925  5.4469 -1.7677
  776MOL0     H 2393   2.537   0.182   0.633 -1.1771 -1.1358 -0.1112
  776MOL0     H 2394   2.694   0.302   0.465 -1.0864 -1.6384 -0.2457
  776MOL0     H 2395   2.715   0.362   0.217  0.5288 -2.0280  1.9418
  776MOL0     H 2396   2.448   0.251  -0.148 -2.6158  2.2246 -0.9104
  776MOL0     H 2397   2.460   0.204  -0.414 -0.7036  0.0529  0.2542
  776MOL0     H 2398   2.493   0.181  -0.622 -0.2087  0.3757  1.1300
  776MOL0     H 2399   2.647   0.116  -0.583  1.2991  3.0533  2.8991
  776MOL0     H 2400   2.581   0.288  -0.823 -0.8662 -0.7082  0.3581
  776MOL0     H 2401   2.613   0.109  -0.829  2.3096 -0.9744 -0.6523
  776MOL0     H 2402   2.842   0.132  -0.796 -1.1221 -1.6312 -0.2207
  776MOL0     H 2403   2.820   0.311  -0.768 -1.0877  0.4985 -0.9817
  776MOL0     H 2404   2.791   0.179  -1.033 -1.8152  1.1724 -2.8105
  776MOL0     H 2405   2.719   0.325  -1.007  0.4062 -0.4831 -0.5919
  776MOL0     H 2406   2.962   0.414  -0.925 -1.3138  1.6613 -0.1940
  776MOL0     H 2407   2.917   0.406  -1.094  3.0637  1.1255  1.0539
  776MOL0     H 2408   3.005   0.170  -1.104 -0.2673 -0.3125 -0.4214
  776MOL0     H 2409   3.080   0.204  -0.944  2.0403 -0.5568 -2.1194
  776MOL0     H 2410   3.125   0.312  -1.224  0.5995 -0.1212  0.0665
  776MOL0     H 2411   3.190   0.422  -1.094  4.2342 -0.1193 -1.4988
  776MOL0     H 2412   3.272   0.125  -1.171 -0.4092 -0.1116  1.7341
  776MOL0     H 2413   3.317   0.200  -1.021  0.0762 -0.3676 -0.2543
  776MOL0     H 2414   2.769   0.481  -0.444 -2.4511  0.8168 -2.0547
  776MOL0     H 2415   2.762   0.521  -0.166 -2.8027  1.8889  0.2803
  776MOL0     H 2416   2.330   0.551   0.233 -0.9685 -0.7586  1.5360
  776MOL0     H 2417   2.336   0.519   0.482  1.5958  0.5244  0.7723
  776MOL0     H 2418   3.805  -0.139   0.478 -1.1558  0.4072  0.3970
  776MOL0     H 2419   3.785  -0.010   0.278 -1.9409 -1.1161  1.1681
  776MOL0     H 2420   4.061   0.209   0.010  1.1148 -1.0121 -3.8472
  776MOL0     H 2421   4.176   0.296  -0.173 -0.9024 -0.7926 -0.8160
  776MOL0     H 2422   4.241   0.412  -0.383 -0.2933 -1.1069  0.6069
  776MOL0     H 2423   4.346   0.447  -0.234  0.9474  1.2460 -0.2763
  776MOL0     H 2424   4.329   0.595  -0.495 -2.5587  2.2665  1.1071
  776MOL0     H 2425   4.414   0.663  -0.356  1.1381 -0.9298  0.0385
  776MOL0     H 2426   4.478   0.407  -0.494  0.7482 -1.6112  1.5738
  776MOL0     H 2427   4.563   0.459  -0.337  1.9650  1.8443  0.6780
  776MOL0     H 2428   4.681   0.613  -0.438 -0.4474 -0.7715  1.4599
  776MOL0     H 2429   4.679   0.489  -0.562 -0.4498 -0.3347 -0.7380
  776MOL0     H 2430   4.563   0.844  -0.733 -0.7426 -0.1532  0.0966
  776MOL0     H 2431   4.022   0.684  -0.098 -3.7688 -0.9685 -3.7702
  776MOL0     H 2432   3.902   0.600   0.108 -0.7317 -0.6353  0.1604
  777MOL0     O 2433   1.863   4.180   9.292 -0.3240 -0.1919 -0.2204
  777MOL0     C 2434   1.836   4.112   9.195  0.1492  0.6523 -0.3136
  777MOL0     O 2435   1.855   4.150   9.068  0.0308 -0.2013 -0.0427
  777MOL0     C 2436   1.927   4.258   9.031 -0.1422 -0.6477 -0.8357
  777MOL0     C 2437   1.892   4.336   8.921 -0.1124 -0.7439 -0.1961
  777MOL0     C 2438   1.981   4.450   8.902  0.0611  0.0566 -0.0436
  777MOL0     C 2439   2.105   4.470   8.960  0.0220 -0.3930 -0.5209
  777MOL0     O 2440   2.191   4.576   8.949  0.7113  0.2659  0.2718
  777MOL0     C 2441   2.279   4.565   8.838  0.3309 -0.2061 -0.7266
  777MOL0     C 2442   2.390   4.674   8.849  0.0831 -0.1824 -0.0431
  777MOL0     C 2443   2.499   4.653   8.742  0.2069  0.0565 -0.2288
  777MOL0     C 2444   2.442   4.667   8.599 -0.2822  0.2755 -0.1245
  777MOL0     C 2445   2.563   4.652   8.500  0.6981  0.4910 -0.7654
  777MOL0     C 2446   2.516   4.715   8.371 -0.3505 -0.2277 -0.2971
  777MOL0     C 2447   2.615   4.692   8.261  0.4527  0.5033 -0.1095
  777MOL0     C 2448   2.597   4.792   8.140  0.0744  0.0716 -0.2651
  777MOL0     N 2449   2.658   4.774   8.014 -0.8039  0.0792  0.0439
  777MOL0     C 2450   2.676   4.649   7.965  0.0666 -0.5341 -1.2046
  777MOL0     C 2451   2.755   4.663   7.851  0.6466 -1.1526 -0.1517
  777MOL0     C 2452   2.777   4.546   7.757  0.9248  0.5104 -0.0888
  777MOL0     C 2453   2.861   4.604   7.647 -0.4263  0.2466  0.4249
  777MOL0     C 2454   2.905   4.495   7.541 -0.0570 -0.2748 -1.0573
  777MOL0     C 2455   3.028   4.521   7.458 -0.7671 -0.0489 -1.2278
  777MOL0     O 2456   3.030   4.417   7.353  0.4278 -0.7084  0.4194
  777MOL0     C 2457   3.071   4.472   7.229  0.8787  0.6189  0.7147
  777MOL0     C 2458   3.000   4.422   7.119 -0.4045  0.5625  0.6913
  777MOL0     C 2459   3.040   4.456   6.991  1.1595 -0.6052 -0.2767
  777MOL0     C 2460   3.137   4.549   6.966 -0.5656 -0.4475 -0.1019
  777MOL0     C 2461   3.165   4.590   6.825  0.0655 -0.9594  0.2375
  777MOL0     O 2462   3.055   4.586   6.738  0.8845  0.6437  0.4366
  777MOL0     C 2463   3.079   4.580   6.604 -0.0941  1.2102  0.9518
  777MOL0     C 2464   3.017   4.660   6.513  0.4849  0.2467  0.6728
  777MOL0     C 2465   3.047   4.646   6.375  0.0818 -0.0958  0.9221
  777MOL0     C 2466   3.138   4.551   6.324  0.4747  0.8140  0.6747
  777MOL0     O 2467   3.167   4.509   6.197 -0.8061  0.1098 -0.4188
  777MOL0     C 2468   3.133   4.600   6.099 -0.5478  0.3763 -0.3725
  777MOL0     C 2469   3.217   4.565   5.972  0.6645  0.0233  0.3304
  777MOL0     C 2470   3.369   4.603   5.982  0.0792  0.0988 -0.1965
  777MOL0     C 2471   3.433   4.548   5.859  0.4201  1.0691  0.2744
  777MOL0     C 2472   3.582   4.559   5.885 -0.4490 -0.2786 -0.3734
  777MOL0     C 2473   3.647   4.461   5.984 -1.1011 -0.0633  0.2694
  777MOL0     C 2474   3.804   4.483   5.997 -0.8835 -0.0819 -0.0038
  777MOL0     C 2475   3.870   4.388   6.101 -0.5562 -0.2454 -0.2258
  777MOL0    Cl 2476   4.042   4.406   6.118 -0.1705  0.1589  0.2902
  777MOL0     C 2477   3.202   4.469   6.420 -0.1822  0.1352  0.0761
  777MOL0     C 2478   3.173   4.482   6.552 -0.3586  0.8142  0.3752
  777MOL0     O 2479   3.280   4.609   6.793  0.3855  0.0438 -0.0673
  777MOL0     C 2480   3.201   4.604   7.075 -0.1841 -1.0594  0.0149
  777MOL0     C 2481   3.169   4.565   7.205  0.2742  0.8205 -0.7322
  777MOL0     N 2482   2.781   4.808   7.849 -0.3393 -0.1045 -0.4072
  777MOL0     N 2483   2.730   4.868   7.948  0.3950 -0.7555  0.8319
  777MOL0     C 2484   2.136   4.384   9.065  0.4729  0.5874 -0.6032
  777MOL0     C 2485   2.042   4.286   9.098  0.0139 -0.3757  0.3254
  777MOL0     C 2486   1.771   3.979   9.203 -0.5263 -0.2678  0.0784
  777MOL0     C 2487   1.704   3.955   9.333  0.4022  0.1745  0.5274
  777MOL0     C 2488   1.643   3.823   9.346 -0.7144  0.1712 -0.7486
  777MOL0     C 2489   1.651   3.727   9.247  0.6437 -1.1908  0.1107
  777MOL0     O 2490   1.583   3.613   9.253  0.6770  0.2523 -0.6287
  777MOL0     C 2491   1.456   3.613   9.317 -0.1723  0.1539 -0.2606
  777MOL0     C 2492   1.382   3.480   9.300 -0.4003  0.7949 -0.3758
  777MOL0     C 2493   1.231   3.512   9.295 -0.3289 -0.3360 -0.4707
  777MOL0     C 2494   1.144   3.388   9.296 -0.8565 -0.5526 -0.2918
  777MOL0     C 2495   1.152   3.308   9.173  0.4478  0.7310  0.3647
  777MOL0     C 2496   1.158   3.245   9.069  0.8725  0.7424 -0.1650
  777MOL0     C 2497   1.719   3.755   9.129  0.3051 -0.8885 -0.6610
  777MOL0     C 2498   1.775   3.883   9.102 -0.8158 -0.0625 -0.3381
  777MOL0     H 2499   1.803   4.324   8.860 -1.1964 -1.8334  1.5049
  777MOL0     H 2500   1.951   4.524   8.828 -0.6158  1.2378  1.3576
  777MOL0     H 2501   2.211   4.599   8.760 -2.6821 -1.8233  1.0066
  777MOL0     H 2502   2.318   4.463   8.830 -1.1099 -0.8457 -0.0435
  777MOL0     H 2503   2.428   4.675   8.952  0.7507 -2.7050 -0.1982
  777MOL0     H 2504   2.345   4.772   8.829 -1.3741 -1.3724 -3.3567
  777MOL0     H 2505   2.544   4.555   8.761 -4.5550 -1.9161  2.6551
  777MOL0     H 2506   2.574   4.729   8.763  0.6141  0.3695 -2.5374
  777MOL0     H 2507   2.364   4.592   8.582 -2.5517  2.9362 -2.2852
  777MOL0     H 2508   2.389   4.762   8.587 -0.4162  0.4766  1.6875
  777MOL0     H 2509   2.593   4.547   8.492  0.3989  0.3021  0.5017
  777MOL0     H 2510   2.646   4.703   8.550 -1.2440  0.7039  2.4761
  777MOL0     H 2511   2.501   4.822   8.388  1.8166  0.4231 -1.9298
  777MOL0     H 2512   2.422   4.667   8.343 -0.1056 -1.3963  0.8103
  777MOL0     H 2513   2.717   4.715   8.292  0.8830  0.9420 -1.7437
  777MOL0     H 2514   2.605   4.589   8.227 -1.9300  0.5037  0.4463
  777MOL0     H 2515   2.636   4.886   8.181 -0.3052 -0.2958  0.9834
  777MOL0     H 2516   2.494   4.812   8.109 -0.2351 -0.6767  0.2520
  777MOL0     H 2517   2.642   4.555   8.007 -2.8974  0.1910 -1.6988
  777MOL0     H 2518   2.684   4.504   7.719  0.0447  1.8119  0.5762
  777MOL0     H 2519   2.826   4.469   7.817  0.9947  1.4402  1.0831
  777MOL0     H 2520   2.949   4.650   7.693  0.9411  3.7969 -4.7727
  777MOL0     H 2521   2.805   4.684   7.598 -1.0408 -0.2920  0.2386
  777MOL0     H 2522   2.923   4.401   7.592 -0.0299 -0.7915 -2.0002
  777MOL0     H 2523   2.827   4.495   7.464  1.7898  0.3696 -3.0338
  777MOL0     H 2524   3.106   4.508   7.533 -2.7772 -2.1601  0.6786
  777MOL0     H 2525   3.021   4.625   7.423 -4.4609  0.4712  0.5322
  777MOL0     H 2526   2.919   4.350   7.125 -0.0028 -0.3472 -2.7207
  777MOL0     H 2527   2.973   4.409   6.919 -2.0094 -0.5319  2.3520
  777MOL0     H 2528   2.947   4.732   6.553 -1.7710 -0.4219 -1.7641
  777MOL0     H 2529   3.007   4.725   6.312  2.4468 -0.6526 -1.4582
  777MOL0     H 2530   3.153   4.704   6.126  1.8180  0.0807 -0.7634
  777MOL0     H 2531   3.026   4.591   6.077 -1.1837  2.8808  1.2799
  777MOL0     H 2532   3.176   4.619   5.886  2.4064  0.7539 -0.0657
  777MOL0     H 2533   3.205   4.458   5.955  2.1794 -0.0149 -0.6009
  777MOL0     H 2534   3.407   4.549   6.069 -3.5498 -2.7726 -0.1031
  777MOL0     H 2535   3.385   4.711   5.980 -0.6609  0.2356  0.7502
  777MOL0     H 2536   3.393   4.447   5.846 -1.6817  1.9569 -0.6891
  777MOL0     H 2537   3.405   4.591   5.762 -2.3515  0.2146  0.6028
  777MOL0     H 2538   3.599   4.660   5.923 -0.9646  0.8718 -2.9756
  777MOL0     H 2539   3.629   4.542   5.788 -1.6469 -0.3093 -0.9600
  777MOL0     H 2540   3.635   4.360   5.945  2.0070  0.1784 -1.6253
  777MOL0     H 2541   3.605   4.460   6.085 -1.9585 -0.8949 -0.0801
  777MOL0     H 2542   3.853   4.478   5.900  1.5340  5.1354  0.6247
  777MOL0     H 2543   3.820   4.587   6.026  1.4015 -0.4697  0.3233
  777MOL0     H 2544   3.851   4.283   6.079  1.3389 -0.8027  0.6595
  777MOL0     H 2545   3.830   4.413   6.200 -4.9996  3.1497 -2.4811
  777MOL0     H 2546   3.270   4.394   6.381 -0.0980  0.6295 -0.7407
  777MOL0     H 2547   3.228   4.414   6.616  1.5453  1.3221 -0.6613
  777MOL0     H 2548   3.275   4.683   7.071  0.1489 -1.2717  1.5036
  777MOL0     H 2549   3.218   4.609   7.291  0.1862 -0.2735 -0.1061
  777MOL0     H 2550   2.216   4.401   9.137 -1.5493  0.9114  1.6897
  777MOL0     H 2551   2.059   4.220   9.182 -0.0153 -2.5057 -1.2324
  777MOL0     H 2552   1.683   4.029   9.410  0.7029  0.4673  0.3358
  777MOL0     H 2553   1.598   3.800   9.442 -0.7117  0.8676 -0.5729
  777MOL0     H 2554   1.393   3.694   9.279 -1.5298 -1.2464 -1.0852
  777MOL0     H 2555   1.481   3.632   9.422 -1.2507  3.3988 -0.4776
  777MOL0     H 2556   1.412   3.418   9.215 -0.7706 -1.4268  1.0325
  777MOL0     H 2557   1.405   3.430   9.394 -0.7169 -0.3994 -0.9149
  777MOL0     H 2558   1.216   3.566   9.202  1.7108 -0.1015 -0.7090
  777MOL0     H 2559   1.194   3.567   9.382  1.4116 -0.8545  0.6564
  777MOL0     H 2560   1.167   3.332   9.387  4.0176  0.9695 -0.2723
  777MOL0     H 2561   1.042   3.426   9.299 -0.6159  0.1360 -0.4964
  777MOL0     H 2562   1.152   3.176   8.987 -0.6249 -1.2488  1.4829
  777MOL0     H 2563   1.728   3.673   9.059 -1.3589 -2.1694  0.5267
  777MOL0     H 2564   1.837   3.901   9.015 -0.5550  1.5235  0.1442
  778MOL0     O 2565   5.529   2.938   5.522  0.4693  0.9904 -0.2403
  778MOL0     C 2566   5.513   2.854   5.437 -0.8386 -0.2849  1.1942
  778MOL0     O 2567   5.417   2.866   5.328 -0.1538  0.0365  0.4844
  778MOL0     C 2568   5.324   2.966   5.333 -0.3272  0.3895 -0.5604
  778MOL0     C 2569   5.260   3.000   5.452  0.5932  1.0484 -0.1919
  778MOL0     C 2570   5.175   3.113   5.464  0.5446 -0.4236 -0.2177
  778MOL0     C 2571   5.134   3.188   5.353 -0.6968  0.1253  0.0741
  778MOL0     O 2572   5.057   3.298   5.355 -0.2485  0.8847 -0.1654
  778MOL0     C 2573   4.987   3.336   5.475  0.2411 -0.8483 -0.3598
  778MOL0     C 2574   4.861   3.406   5.427  1.0620 -0.1826 -0.0403
  778MOL0     C 2575   4.892   3.545   5.373 -1.2199  1.0131 -1.6255
  778MOL0     C 2576   4.773   3.635   5.352 -0.2788 -0.3624  0.1680
  778MOL0     C 2577   4.813   3.781   5.322 -0.3287  0.0967  0.1307
  778MOL0     C 2578   4.688   3.874   5.311  0.2952  0.1925 -0.4161
  778MOL0     C 2579   4.711   4.013   5.250  0.6237 -0.3038 -0.3271
  778MOL0     C 2580   4.692   4.129   5.354  0.2930 -0.5668 -0.0379
  778MOL0     N 2581   4.792   4.124   5.466  0.4989 -0.0965 -0.5748
  778MOL0     C 2582   4.926   4.157   5.468 -0.2423 -0.3194  0.0178
  778MOL0     C 2583   4.969   4.123   5.591 -0.6434 -0.0627  0.0201
  778MOL0     C 2584   5.116   4.136   5.634  0.2676 -0.4252 -0.7461
  778MOL0     C 2585   5.214   4.097   5.529 -0.3771  0.1977  0.2914
  778MOL0     C 2586   5.191   3.957   5.459 -0.7640  0.0445  0.1416
  778MOL0     C 2587   5.322   3.887   5.415  0.0497 -0.5706  0.1072
  778MOL0     O 2588   5.315   3.749   5.372  0.3525  0.2570  0.5003
  778MOL0     C 2589   5.243   3.716   5.252 -0.6742 -0.0398 -0.5225
  778MOL0     C 2590   5.171   3.799   5.168  0.4936 -0.8000  0.7495
  778MOL0     C 2591   5.099   3.750   5.060  0.8445 -0.1785  0.4767
  778MOL0     C 2592   5.096   3.612   5.026 -0.2276 -0.5068 -0.0373
  778MOL0     C 2593   5.010   3.553   4.918 -0.6170  0.0955 -0.9917
  778MOL0     O 2594   4.919   3.641   4.861 -0.1606 -0.5030 -0.5547
  778MOL0     C 2595   4.852   3.612   4.747  0.5389  0.3883  0.3770
  778MOL0     C 2596   4.745   3.531   4.749 -1.1815  0.8280  0.3474
  778MOL0     C 2597   4.664   3.517   4.637  0.4169 -0.0928  0.1659
  778MOL0     C 2598   4.689   3.589   4.516  0.0520  0.3654 -0.5718
  778MOL0     O 2599   4.613   3.590   4.406  0.3044 -0.5300  0.0830
  778MOL0     C 2600   4.509   3.492   4.399 -0.2230  0.1252  0.2751
  778MOL0     C 2601   4.417   3.507   4.283  0.9989  0.7452 -0.7760
  778MOL0     C 2602   4.283   3.439   4.309  0.6715  0.4404  0.4804
  778MOL0     C 2603   4.203   3.441   4.175 -1.2916  0.2557  0.0910
  778MOL0     C 2604   4.184   3.578   4.098 -1.0428  0.6912 -0.1102
  778MOL0     C 2605   4.093   3.554   3.970 -0.7301  0.0800 -0.7728
  778MOL0     C 2606   3.946   3.571   4.004  1.3529 -0.0245 -0.1072
  778MOL0     C 2607   3.861   3.641   3.906 -0.7819 -0.1992  0.5675
  778MOL0    Cl 2608   3.941   3.800   3.875 -0.3920 -0.0614  0.1261
  778MOL0     C 2609   4.798   3.677   4.516 -1.2587  0.1752 -0.8019
  778MOL0     C 2610   4.881   3.687   4.631  0.2981  0.7018 -0.7203
  778MOL0     O 2611   5.036   3.433   4.878  1.0970 -0.6056 -0.4080
  778MOL0     C 2612   5.176   3.532   5.104 -0.2695 -0.2900  0.1443
  778MOL0     C 2613   5.240   3.577   5.221  0.3676  0.6671  0.3622
  778MOL0     N 2614   4.860   4.073   5.663  0.0283  0.9146 -0.4619
  778MOL0     N 2615   4.763   4.060   5.583 -0.1654 -0.6802 -0.2337
  778MOL0     C 2616   5.209   3.150   5.233 -0.7113 -0.2173 -0.5791
  778MOL0     C 2617   5.291   3.044   5.224 -0.3321  0.3504 -1.4343
  778MOL0     C 2618   5.618   2.744   5.426  0.1544 -1.1043 -0.1538
  778MOL0     C 2619   5.703   2.708   5.536 -0.4391  0.5051  0.4244
  778MOL0     C 2620   5.785   2.596   5.527  0.0332 -0.2300  0.4421
  778MOL0     C 2621   5.803   2.541   5.402  0.1365  1.1375 -0.0055
  778MOL0     O 2622   5.887   2.431   5.393  0.5491  0.1186 -0.1002
  778MOL0     C 2623   5.883   2.339   5.278 -0.0097 -0.3266  0.3122
  778MOL0     C 2624   5.985   2.223   5.287 -0.3872 -0.6816  0.5406
  778MOL0     C 2625   6.003   2.150   5.415  0.5766 -0.1431  0.3467
  778MOL0     C 2626   6.117   2.040   5.396  0.4106  0.7622  0.1194
  778MOL0     C 2627   6.054   1.907   5.399 -0.3189  0.1484 -0.0741
  778MOL0     C 2628   6.011   1.801   5.366  0.7514 -0.6026  0.1528
  778MOL0     C 2629   5.718   2.569   5.294  0.0201  0.6161 -0.0448
  778MOL0     C 2630   5.626   2.675   5.311  0.8331  0.2138  1.1282
  778MOL0     H 2631   5.279   2.939   5.540 -1.1492 -0.1507 -0.5971
  778MOL0     H 2632   5.133   3.140   5.560 -4.3572 -0.5361 -2.0160
  778MOL0     H 2633   5.037   3.403   5.545 -1.4320 -0.6794  0.7594
  778MOL0     H 2634   4.958   3.252   5.539 -1.9824  1.8511  2.5058
  778MOL0     H 2635   4.799   3.420   5.516 -0.6901 -2.4177 -0.8354
  778MOL0     H 2636   4.818   3.339   5.353 -2.4258 -1.5966  2.9414
  778MOL0     H 2637   4.955   3.538   5.284  0.9043 -1.3017 -0.1134
  778MOL0     H 2638   4.968   3.592   5.437  0.7165 -1.7215 -1.7472
  778MOL0     H 2639   4.729   3.579   5.269  2.7194 -3.1147  0.2420
  778MOL0     H 2640   4.701   3.635   5.435 -1.6802  0.4825 -0.9961
  778MOL0     H 2641   4.869   3.777   5.229 -2.5123 -1.4069 -1.1903
  778MOL0     H 2642   4.875   3.829   5.400  0.1234 -0.3219  0.0330
  778MOL0     H 2643   4.644   3.891   5.409  0.1337 -0.3361 -0.3904
  778MOL0     H 2644   4.608   3.823   5.255  0.8532 -1.1588 -0.0124
  778MOL0     H 2645   4.816   4.008   5.220  1.1365  0.2023  1.3035
  778MOL0     H 2646   4.645   4.031   5.165 -1.4433 -0.6076  1.1293
  778MOL0     H 2647   4.599   4.106   5.406  0.3135 -0.7423 -0.0788
  778MOL0     H 2648   4.681   4.229   5.311 -1.4925 -0.3300  0.8589
  778MOL0     H 2649   4.995   4.195   5.393 -1.9679 -0.3559 -1.6397
  778MOL0     H 2650   5.140   4.065   5.713  0.5097 -0.5057 -0.8908
  778MOL0     H 2651   5.142   4.236   5.671 -3.3944  0.6685 -0.7053
  778MOL0     H 2652   5.312   4.105   5.577  0.0288 -1.7885 -0.1065
  778MOL0     H 2653   5.199   4.175   5.453 -2.9726 -1.5127 -1.0925
  778MOL0     H 2654   5.153   3.885   5.532 -1.6621 -1.1875 -1.4631
  778MOL0     H 2655   5.117   3.964   5.378  0.1076  1.0164 -0.5961
  778MOL0     H 2656   5.393   3.894   5.498 -2.4435  0.6205  2.2942
  778MOL0     H 2657   5.368   3.950   5.338 -1.3590  3.0477  1.9451
  778MOL0     H 2658   5.178   3.908   5.166 -0.6159 -0.6975 -1.9070
  778MOL0     H 2659   5.040   3.814   4.995  1.5756 -0.0369 -0.0584
  778MOL0     H 2660   4.720   3.486   4.844  0.3865 -0.7981  0.0377
  778MOL0     H 2661   4.586   3.443   4.655 -0.6825  1.2886  1.4763
  778MOL0     H 2662   4.446   3.505   4.488 -0.3912 -1.1592  0.3690
  778MOL0     H 2663   4.558   3.395   4.387  2.9359  1.6134  0.2083
  778MOL0     H 2664   4.456   3.452   4.196 -2.0656 -1.5801 -0.8743
  778MOL0     H 2665   4.390   3.612   4.268  2.9556  0.9568 -3.6646
  778MOL0     H 2666   4.231   3.497   4.385 -0.2655 -0.7982  0.8250
  778MOL0     H 2667   4.298   3.340   4.354  0.9725  0.5013  0.5168
  778MOL0     H 2668   4.251   3.373   4.105 -0.1845  2.3067 -1.2572
  778MOL0     H 2669   4.099   3.413   4.195 -0.9122 -1.0172  0.3467
  778MOL0     H 2670   4.278   3.614   4.056 -0.7467  0.3178  0.2116
  778MOL0     H 2671   4.152   3.657   4.167  1.6171  1.7607  0.0070
  778MOL0     H 2672   4.114   3.462   3.914 -2.5623 -0.0304 -1.3540
  778MOL0     H 2673   4.107   3.629   3.892 -1.6830 -1.6397 -2.7121
  778MOL0     H 2674   3.902   3.473   4.022  1.0833  0.4629  2.3405
  778MOL0     H 2675   3.941   3.628   4.098 -1.2903  0.1320 -0.2685
  778MOL0     H 2676   3.767   3.654   3.961 -0.6699  2.4224  0.2603
  778MOL0     H 2677   3.855   3.581   3.815  0.8967 -1.1655  1.0713
  778MOL0     H 2678   4.822   3.750   4.440  0.2416  4.2554  3.1531
  778MOL0     H 2679   4.970   3.748   4.631 -0.4591  1.8287 -0.6740
  778MOL0     H 2680   5.181   3.425   5.086 -0.6005 -0.0102 -1.7765
  778MOL0     H 2681   5.287   3.506   5.288 -0.4070 -0.0137  0.1924
  778MOL0     H 2682   5.217   3.215   5.146 -2.6183 -0.0260 -0.6521
  778MOL0     H 2683   5.348   3.025   5.134  1.3545  2.7863 -0.9637
  778MOL0     H 2684   5.703   2.763   5.630 -0.6635  3.4198 -1.1607
  778MOL0     H 2685   5.860   2.562   5.598  0.2811 -0.1213  0.2352
  778MOL0     H 2686   5.898   2.405   5.193 -0.6123  1.3853  1.4848
  778MOL0     H 2687   5.787   2.294   5.251  0.0773  1.3417 -3.2304
  778MOL0     H 2688   5.952   2.163   5.202 -0.6490 -0.1965  0.2974
  778MOL0     H 2689   6.079   2.263   5.245 -0.5276  1.2656  1.9461
  778MOL0     H 2690   5.912   2.110   5.461  0.5191 -0.6980 -0.2296
  778MOL0     H 2691   6.035   2.222   5.491 -1.3812  1.9598 -0.6906
  778MOL0     H 2692   6.154   2.063   5.296 -1.7069  2.2810 -0.3898
  778MOL0     H 2693   6.197   2.042   5.470 -0.1766  2.6577  0.7578
  778MOL0     H 2694   5.982   1.700   5.343 -0.9306  0.4147 -2.7942
  778MOL0     H 2695   5.725   2.534   5.192  4.3983  1.0273 -0.0400
  778MOL0     H 2696   5.563   2.705   5.228 -1.1724 -0.3887  2.3669
  779MOL0     O 2697   1.869   3.026   5.417 -0.5662 -0.1825  0.5490
  779MOL0     C 2698   1.838   2.904   5.396  0.3639 -1.4056  0.3257
  779MOL0     O 2699   1.779   2.819   5.477  0.9234 -0.1470  0.3653
  779MOL0     C 2700   1.744   2.866   5.607  0.0160  0.5915  0.2738
  779MOL0     C 2701   1.833   2.866   5.712  0.9775  0.3367  0.6758
  779MOL0     C 2702   1.802   2.911   5.838  0.5649 -0.0385 -0.3748
  779MOL0     C 2703   1.671   2.960   5.863 -0.3693  0.0205  0.4476
  779MOL0     O 2704   1.648   3.001   5.990  0.9819  0.1452  0.0122
  779MOL0     C 2705   1.514   3.028   6.027  0.7295 -0.4884 -0.0203
  779MOL0     C 2706   1.464   3.167   5.982  0.2095 -0.1944 -0.1718
  779MOL0     C 2707   1.331   3.196   6.048  0.5664 -0.3544 -0.5046
  779MOL0     C 2708   1.330   3.202   6.200 -0.5720  0.4298  0.1546
  779MOL0     C 2709   1.201   3.255   6.270 -0.6030  0.0862 -0.2364
  779MOL0     C 2710   1.066   3.224   6.213 -0.5561 -0.1533  0.3838
  779MOL0     C 2711   0.956   3.280   6.285  1.0802 -0.0093 -0.1472
  779MOL0     C 2712   0.960   3.443   6.291  0.0992  0.6450 -0.3769
  779MOL0     N 2713   0.823   3.495   6.319  0.5015 -0.5836 -0.0407
  779MOL0     C 2714   0.700   3.468   6.253  0.2955  0.1586  0.9468
  779MOL0     C 2715   0.617   3.577   6.278  0.1457 -0.2002 -0.1211
  779MOL0     C 2716   0.471   3.588   6.236  0.5713  0.4675 -0.1819
  779MOL0     C 2717   0.428   3.724   6.178 -0.7168 -0.6764  0.6458
  779MOL0     C 2718   0.301   3.728   6.093  0.4512 -0.0045 -0.2222
  779MOL0     C 2719   0.333   3.739   5.939  0.3477 -0.4607 -0.6837
  779MOL0     O 2720   0.331   3.616   5.868  0.0125 -0.1562  0.3545
  779MOL0     C 2721   0.209   3.545   5.883 -0.1413 -1.4755 -0.0813
  779MOL0     C 2722   0.208   3.408   5.898  0.3995  0.4867  0.2177
  779MOL0     C 2723   0.087   3.329   5.926  0.5358 -0.3835 -0.4995
  779MOL0     C 2724  -0.041   3.398   5.927 -0.1497  0.6724 -0.2786
  779MOL0     C 2725  -0.173   3.319   5.922  0.4279 -0.5676  0.3481
  779MOL0     O 2726  -0.289   3.392   5.901 -0.5145 -0.1139  0.1666
  779MOL0     C 2727  -0.416   3.340   5.917  1.4334 -0.1885  0.0371
  779MOL0     C 2728  -0.469   3.212   5.892  0.6409  0.7929  1.4679
  779MOL0     C 2729  -0.605   3.179   5.906  0.1176 -1.2237  0.5149
  779MOL0     C 2730  -0.690   3.276   5.957  0.4837  0.6420 -0.1641
  779MOL0     O 2731  -0.821   3.245   5.975 -0.4948 -0.3644  0.0032
  779MOL0     C 2732  -0.890   3.169   5.872  0.0807  0.5906 -0.8770
  779MOL0     C 2733  -1.012   3.098   5.948 -0.6939 -0.1273 -0.7740
  779MOL0     C 2734  -1.086   3.197   6.042  0.0610 -0.8314 -0.0748
  779MOL0     C 2735  -1.211   3.130   6.096  0.1477 -0.4616  0.0709
  779MOL0     C 2736  -1.289   3.227   6.183  0.6686  0.1480 -0.5577
  779MOL0     C 2737  -1.407   3.148   6.250  0.0484 -0.4396  0.0977
  779MOL0     C 2738  -1.530   3.122   6.168  0.2426  1.2491 -0.3411
  779MOL0     C 2739  -1.623   3.241   6.127  0.2806 -0.5185  0.0933
  779MOL0    Cl 2740  -1.534   3.350   6.009  0.2878 -0.3436  0.3333
  779MOL0     C 2741  -0.641   3.398   6.003 -0.3527  0.1353 -0.0630
  779MOL0     C 2742  -0.506   3.428   5.975  0.3086  0.9061 -0.0068
  779MOL0     O 2743  -0.171   3.197   5.930  0.3091 -0.4159  0.1069
  779MOL0     C 2744  -0.034   3.529   5.906  0.4302 -0.6527  0.4041
  779MOL0     C 2745   0.078   3.613   5.880 -0.7606  0.1102 -0.6034
  779MOL0     N 2746   0.682   3.668   6.357  0.4558 -0.4965  0.1349
  779MOL0     N 2747   0.799   3.611   6.370  0.4217  0.1269 -0.5514
  779MOL0     C 2748   1.576   2.954   5.759  0.0194  0.5928  0.6529
  779MOL0     C 2749   1.609   2.899   5.634 -0.7478  1.5968 -0.7909
  779MOL0     C 2750   1.886   2.856   5.268  0.7603  0.3711 -0.6720
  779MOL0     C 2751   1.950   2.729   5.270 -0.7974 -0.2922 -0.1680
  779MOL0     C 2752   1.975   2.661   5.144 -0.4870  0.0566 -0.6618
  779MOL0     C 2753   1.960   2.730   5.022  0.1080  0.1132 -0.6413
  779MOL0     O 2754   2.004   2.656   4.913 -0.3803  0.3249 -0.1803
  779MOL0     C 2755   1.972   2.713   4.780 -0.4710  0.2937  0.2485
  779MOL0     C 2756   2.053   2.646   4.673  0.1491 -0.4809  0.0405
  779MOL0     C 2757   1.990   2.511   4.628  0.3828  0.2305 -0.4706
  779MOL0     C 2758   2.102   2.428   4.566  1.0863  0.4492 -0.0801
  779MOL0     C 2759   2.031   2.317   4.497 -0.0546  0.1523 -0.7602
  779MOL0     C 2760   1.952   2.251   4.428 -0.0905 -0.4928 -0.5713
  779MOL0     C 2761   1.905   2.867   5.022 -0.0137 -0.1431  0.0576
  779MOL0     C 2762   1.854   2.914   5.141  0.6114 -0.0466  0.1415
  779MOL0     H 2763   1.932   2.827   5.688  0.9434  2.5074 -4.2485
  779MOL0     H 2764   1.879   2.912   5.915  0.7445  1.0436 -0.5502
  779MOL0     H 2765   1.501   3.014   6.135 -0.5051 -0.3967 -0.1422
  779MOL0     H 2766   1.440   2.957   5.990  1.7364 -1.0581 -1.0082
  779MOL0     H 2767   1.449   3.182   5.875 -0.2351  3.0024  0.2373
  779MOL0     H 2768   1.537   3.242   6.015 -0.3093 -0.6360  2.1658
  779MOL0     H 2769   1.259   3.120   6.017 -1.6686  2.2504 -2.1438
  779MOL0     H 2770   1.279   3.286   6.015 -1.5859 -0.2896  2.6633
  779MOL0     H 2771   1.338   3.096   6.227 -1.0897  1.0686  3.1037
  779MOL0     H 2772   1.421   3.250   6.234  0.2019 -1.5453  1.0248
  779MOL0     H 2773   1.221   3.361   6.287 -0.1333 -0.3219  1.9854
  779MOL0     H 2774   1.197   3.201   6.364 -0.3084  0.5737  0.0609
  779MOL0     H 2775   1.064   3.115   6.199  2.7529 -0.1352 -1.1545
  779MOL0     H 2776   1.060   3.271   6.114  1.5156 -1.3441 -0.3728
  779MOL0     H 2777   0.873   3.226   6.239  1.6767 -0.9872 -0.0994
  779MOL0     H 2778   0.952   3.240   6.387 -4.0224 -1.7225 -0.7348
  779MOL0     H 2779   0.999   3.470   6.192  0.3023 -0.9417 -0.7557
  779MOL0     H 2780   1.031   3.478   6.367  3.0316  1.3009 -3.1895
  779MOL0     H 2781   0.676   3.383   6.189 -1.0267 -0.7654  2.5700
  779MOL0     H 2782   0.413   3.570   6.327  1.5605  0.2605  0.4236
  779MOL0     H 2783   0.458   3.510   6.161  1.6233 -0.0882  0.1806
  779MOL0     H 2784   0.508   3.751   6.109 -2.2904  0.8421 -0.7014
  779MOL0     H 2785   0.423   3.792   6.264 -1.0921  0.6335 -0.3875
  779MOL0     H 2786   0.254   3.633   6.119 -1.6376  1.2519  0.9053
  779MOL0     H 2787   0.231   3.810   6.113 -0.8236 -1.0776 -0.1303
  779MOL0     H 2788   0.429   3.789   5.924  0.5319 -0.9534 -1.1748
  779MOL0     H 2789   0.261   3.812   5.900  0.3761 -1.0626 -1.8936
  779MOL0     H 2790   0.302   3.355   5.886 -2.0366 -4.2590  0.0340
  779MOL0     H 2791   0.096   3.221   5.934  3.2416 -0.4904 -3.1203
  779MOL0     H 2792  -0.403   3.139   5.846 -0.9036  0.8460 -1.0490
  779MOL0     H 2793  -0.637   3.093   5.847  1.9523  0.0449 -2.5542
  779MOL0     H 2794  -0.835   3.093   5.816 -0.8978  0.0869 -1.1648
  779MOL0     H 2795  -0.941   3.239   5.805 -0.4748  1.7931  0.7399
  779MOL0     H 2796  -0.961   3.018   6.003  1.4334 -1.2064 -3.9738
  779MOL0     H 2797  -1.073   3.046   5.874 -2.4061 -0.9530  1.1365
  779MOL0     H 2798  -1.107   3.290   5.988  2.5432 -1.9804 -3.3482
  779MOL0     H 2799  -1.024   3.230   6.127 -1.6088  0.8902  0.5332
  779MOL0     H 2800  -1.276   3.089   6.019 -0.7615 -2.0958  1.6278
  779MOL0     H 2801  -1.179   3.048   6.161  1.1020 -1.0848 -1.1615
  779MOL0     H 2802  -1.314   3.318   6.128 -0.4527  0.0905 -0.1792
  779MOL0     H 2803  -1.225   3.265   6.263  0.8625 -0.7833 -0.2520
  779MOL0     H 2804  -1.442   3.212   6.331 -0.0948  0.3757 -0.5882
  779MOL0     H 2805  -1.369   3.055   6.293 -0.0410 -1.0486 -1.0909
  779MOL0     H 2806  -1.505   3.067   6.077 -1.0192  2.4037 -1.4486
  779MOL0     H 2807  -1.591   3.049   6.222 -0.1809  1.5063 -0.4657
  779MOL0     H 2808  -1.645   3.305   6.213  0.9197 -0.3618  0.1392
  779MOL0     H 2809  -1.723   3.218   6.089  0.8701 -1.8355 -0.7087
  779MOL0     H 2810  -0.713   3.467   6.045  0.5916  1.3119 -0.3361
  779MOL0     H 2811  -0.468   3.523   6.012 -1.8090  2.2354 -1.0205
  779MOL0     H 2812  -0.121   3.592   5.899  0.8909  0.0656  0.9719
  779MOL0     H 2813   0.068   3.720   5.866  2.3068  0.7480  1.1770
  779MOL0     H 2814   1.472   2.984   5.755  0.0913  0.7561 -1.0247
  779MOL0     H 2815   1.529   2.897   5.561 -1.1380  0.5462 -0.3411
  779MOL0     H 2816   1.979   2.682   5.364  2.9435 -0.5522 -1.2728
  779MOL0     H 2817   2.002   2.556   5.139  0.5057  0.1855  1.2972
  779MOL0     H 2818   2.001   2.818   4.777 -1.3488  0.5293 -1.0027
  779MOL0     H 2819   1.865   2.711   4.757 -0.6650  1.8393  0.9127
  779MOL0     H 2820   2.062   2.704   4.581  1.7486 -0.0325  0.4518
  779MOL0     H 2821   2.151   2.640   4.722  1.7416  3.5910 -2.1730
  779MOL0     H 2822   1.917   2.525   4.548 -1.9126 -1.7170  1.1346
  779MOL0     H 2823   1.944   2.466   4.717  1.8373 -1.1477 -0.3827
  779MOL0     H 2824   2.144   2.479   4.478 -0.9050  3.2091  0.4387
  779MOL0     H 2825   2.189   2.406   4.629  1.5295  3.7742  0.6253
  779MOL0     H 2826   1.875   2.209   4.366  1.3118 -0.8158 -2.1800
  779MOL0     H 2827   1.876   2.915   4.929  1.5791  1.5435  0.3816
  779MOL0     H 2828   1.774   2.988   5.141 -2.0954 -2.6915 -2.1003
  780MOL0     O 2829   0.667   4.112  10.315  0.3635 -0.2550  0.1964
  780MOL0     C 2830   0.744   4.177  10.382 -0.1954 -0.1298  0.1654
  780MOL0     O 2831   0.826   4.125  10.479  0.5790  0.3749  0.2612
  780MOL0     C 2832   0.802   3.989  10.514 -0.2148 -0.8658  0.3150
  780MOL0     C 2833   0.729   3.954  10.633 -0.1956 -0.1729  0.0002
  780MOL0     C 2834   0.688   3.824  10.659  0.1309  0.4379  0.1970
  780MOL0     C 2835   0.729   3.719  10.564 -1.3701  0.7026 -0.0495
  780MOL0     O 2836   0.705   3.580  10.575  0.1468 -0.7784 -0.2110
  780MOL0     C 2837   0.583   3.545  10.644 -0.2338  0.5335 -0.6024
  780MOL0     C 2838   0.551   3.402  10.602 -0.1115 -0.1533 -0.1625
  780MOL0     C 2839   0.530   3.399  10.447  0.2849 -0.5022  0.1688
  780MOL0     C 2840   0.434   3.285  10.408  0.0850 -0.1191 -0.2675
  780MOL0     C 2841   0.502   3.147  10.405  0.2930  0.7491 -0.1187
  780MOL0     C 2842   0.402   3.046  10.330  1.2904 -1.0150 -0.6646
  780MOL0     C 2843   0.398   2.896  10.379 -0.6941 -0.0838  0.4591
  780MOL0     C 2844   0.313   2.892  10.505  0.3381  0.3418 -0.3670
  780MOL0     N 2845   0.311   2.755  10.556  0.3351  0.2996  0.3646
  780MOL0     C 2846   0.209   2.675  10.585  0.3801  0.6274  0.3145
  780MOL0     C 2847   0.251   2.574  10.659 -0.9702  0.3204  0.3376
  780MOL0     C 2848   0.178   2.463  10.718  0.6662 -0.2446  0.7578
  780MOL0     C 2849   0.106   2.505  10.849 -0.4168  1.0235  0.0230
  780MOL0     C 2850  -0.051   2.477  10.843 -0.5947 -0.5079 -0.3144
  780MOL0     C 2851  -0.075   2.332  10.835  0.6957  0.4460  0.1962
  780MOL0     O 2852  -0.028   2.268  10.956 -0.1018 -0.4385  0.4597
  780MOL0     C 2853  -0.101   2.274  11.074  0.2044  0.0070 -0.2725
  780MOL0     C 2854  -0.052   2.219  11.184  0.0800  0.9518 -0.7351
  780MOL0     C 2855  -0.126   2.195  11.305 -0.4670  0.8469  0.2836
  780MOL0     C 2856  -0.262   2.238  11.319 -0.0378  0.9288  0.1400
  780MOL0     C 2857  -0.338   2.225  11.445 -0.1950 -0.7924  0.5542
  780MOL0     O 2858  -0.452   2.302  11.456  0.9476 -0.0554  0.1305
  780MOL0     C 2859  -0.536   2.295  11.568  0.2475 -0.6612 -0.0612
  780MOL0     C 2860  -0.635   2.397  11.580  0.2615 -0.0383  0.3037
  780MOL0     C 2861  -0.740   2.374  11.672 -0.7542  0.3139 -0.4787
  780MOL0     C 2862  -0.749   2.268  11.755  0.1680  0.3278  0.9973
  780MOL0     O 2863  -0.833   2.259  11.854  0.0357  0.0995  0.7760
  780MOL0     C 2864  -0.952   2.341  11.849 -0.1020 -0.2386 -0.1050
  780MOL0     C 2865  -1.047   2.283  11.960 -0.5069  0.0846 -0.0245
  780MOL0     C 2866  -1.168   2.378  12.006 -0.4226  1.0209 -0.5784
  780MOL0     C 2867  -1.249   2.423  11.886 -0.2388 -0.4818  0.5088
  780MOL0     C 2868  -1.368   2.507  11.921 -0.7031  0.5351 -0.7725
  780MOL0     C 2869  -1.315   2.642  11.963 -0.4312  0.2283  0.4561
  780MOL0     C 2870  -1.432   2.730  12.011  0.5733 -0.7419  0.2244
  780MOL0     C 2871  -1.444   2.864  11.931  1.2361  0.1938  0.4888
  780MOL0    Cl 2872  -1.586   2.967  11.970  0.6940  0.1684 -0.0754
  780MOL0     C 2873  -0.654   2.166  11.744  0.2366  0.2579  0.3107
  780MOL0     C 2874  -0.540   2.188  11.658 -0.4342 -0.1616 -0.2138
  780MOL0     O 2875  -0.290   2.147  11.527  0.6497  0.0758 -0.1757
  780MOL0     C 2876  -0.302   2.325  11.204 -0.0763  0.2213 -0.1486
  780MOL0     C 2877  -0.226   2.330  11.086 -1.0018  0.3805  0.5900
  780MOL0     N 2878   0.383   2.585  10.666 -0.2669  1.1196 -0.2492
  780MOL0     N 2879   0.423   2.688  10.601 -0.1084  0.4305  0.6063
  780MOL0     C 2880   0.795   3.758  10.447  0.5509 -0.0907  0.5565
  780MOL0     C 2881   0.840   3.883  10.426  0.1334  0.1551  0.5468
  780MOL0     C 2882   0.762   4.325  10.353  0.1100  0.0140 -0.2347
  780MOL0     C 2883   0.689   4.380  10.249  0.0299 -0.3440  0.6319
  780MOL0     C 2884   0.699   4.514  10.218  0.0004 -1.0901  0.6147
  780MOL0     C 2885   0.779   4.603  10.298  1.2676 -0.5562  1.1035
  780MOL0     O 2886   0.787   4.736  10.265 -0.3305  0.0008 -0.2020
  780MOL0     C 2887   0.707   4.789  10.161  0.6714 -0.6287 -0.1558
  780MOL0     C 2888   0.731   4.945  10.160 -0.2339  0.1694 -0.1920
  780MOL0     C 2889   0.629   4.990  10.051  0.5607 -0.4272 -0.2018
  780MOL0     C 2890   0.644   5.136  10.021 -0.0554 -0.2400 -0.2951
  780MOL0     C 2891   0.564   5.232  10.100  0.3727 -0.4753 -0.5180
  780MOL0     C 2892   0.477   5.295  10.152 -0.2768 -0.1787 -0.2534
  780MOL0     C 2893   0.854   4.555  10.398  0.7182 -0.4853  0.0932
  780MOL0     C 2894   0.835   4.422  10.428  0.6937  0.2089  0.3727
  780MOL0     H 2895   0.712   4.036  10.703 -0.6022 -1.3529  1.3250
  780MOL0     H 2896   0.626   3.791  10.741 -0.2761 -2.0686 -1.0221
  780MOL0     H 2897   0.502   3.615  10.623 -3.1441 -3.0382 -2.3399
  780MOL0     H 2898   0.617   3.552  10.747  0.9884 -3.6898 -0.5649
  780MOL0     H 2899   0.467   3.355  10.655  0.1297 -1.6635 -1.0764
  780MOL0     H 2900   0.642   3.343  10.614  0.0747 -0.1945 -1.6622
  780MOL0     H 2901   0.623   3.395  10.389  0.2328 -2.2875  0.1473
  780MOL0     H 2902   0.481   3.492  10.418  0.8424  0.2951  1.7087
  780MOL0     H 2903   0.362   3.284  10.490 -1.0747 -0.1183 -1.2465
  780MOL0     H 2904   0.376   3.302  10.316 -1.6738  0.2790  0.8593
  780MOL0     H 2905   0.512   3.103  10.505  2.4945 -0.7885 -0.9374
  780MOL0     H 2906   0.603   3.139  10.364 -0.5199  0.0022 -2.1163
  780MOL0     H 2907   0.440   3.051  10.227  2.4454 -1.3555 -0.2774
  780MOL0     H 2908   0.299   3.078  10.344  0.9158 -3.1922  3.0886
  780MOL0     H 2909   0.348   2.843  10.297 -2.9701 -0.0136  1.7059
  780MOL0     H 2910   0.500   2.861  10.400 -0.5153  1.1724  1.7668
  780MOL0     H 2911   0.211   2.920  10.476 -0.7615 -3.6283 -0.8697
  780MOL0     H 2912   0.369   2.951  10.578  0.1728 -1.0810  0.9563
  780MOL0     H 2913   0.103   2.684  10.561  0.5267 -1.4029 -1.3974
  780MOL0     H 2914   0.242   2.376  10.737  0.8306  0.0794  1.7798
  780MOL0     H 2915   0.106   2.434  10.640  1.6237  2.3145 -1.2206
  780MOL0     H 2916   0.125   2.611  10.869  0.4287  0.7238  0.8417
  780MOL0     H 2917   0.154   2.451  10.931  1.0578  1.9703 -0.1787
  780MOL0     H 2918  -0.110   2.521  10.923 -3.8718 -2.3274 -1.5504
  780MOL0     H 2919  -0.095   2.528  10.756 -0.2381  1.7501  0.7355
  780MOL0     H 2920  -0.007   2.283  10.764  1.1558  0.2476  0.7610
  780MOL0     H 2921  -0.172   2.303  10.793 -0.0415 -0.6571  2.5218
  780MOL0     H 2922   0.051   2.185  11.178  0.3545  1.5379  0.4550
  780MOL0     H 2923  -0.074   2.135  11.378 -0.0152 -0.4192 -1.0367
  780MOL0     H 2924  -0.629   2.480  11.509 -1.5425 -0.6946 -0.6804
  780MOL0     H 2925  -0.810   2.453  11.697 -0.4179  0.8538 -1.1700
  780MOL0     H 2926  -1.006   2.344  11.754 -1.1144 -4.4091  0.1609
  780MOL0     H 2927  -0.919   2.439  11.884 -3.1577 -0.5078  4.2809
  780MOL0     H 2928  -0.986   2.268  12.050  1.9067  0.8689 -1.4304
  780MOL0     H 2929  -1.085   2.185  11.930 -2.0817 -0.0757  2.2983
  780MOL0     H 2930  -1.125   2.469  12.047 -2.3165  2.4122 -1.5212
  780MOL0     H 2931  -1.223   2.332  12.089  2.1109 -1.2951 -0.0458
  780MOL0     H 2932  -1.187   2.474  11.811 -3.6681  2.9878 -0.2704
  780MOL0     H 2933  -1.298   2.339  11.835 -1.5692 -0.9009  2.3954
  780MOL0     H 2934  -1.428   2.473  12.006 -0.9792  2.5361 -0.1182
  780MOL0     H 2935  -1.428   2.517  11.830  0.4827  1.7377 -1.4539
  780MOL0     H 2936  -1.269   2.682  11.872 -0.6050 -1.9993 -0.6858
  780MOL0     H 2937  -1.232   2.636  12.035  0.6624  0.1155 -0.7788
  780MOL0     H 2938  -1.522   2.669  12.022  1.5487 -2.1462  0.7796
  780MOL0     H 2939  -1.395   2.760  12.109  0.8888 -0.2835 -0.0301
  780MOL0     H 2940  -1.440   2.846  11.823  0.7588 -3.4904  0.9430
  780MOL0     H 2941  -1.345   2.908  11.944  1.0199  1.1498 -0.8772
  780MOL0     H 2942  -0.657   2.086  11.817  3.6205  1.3402  1.8487
  780MOL0     H 2943  -0.476   2.100  11.651 -0.1670 -0.2364  2.3880
  780MOL0     H 2944  -0.391   2.386  11.213 -0.2580  0.6407 -3.4536
  780MOL0     H 2945  -0.265   2.387  11.003  0.5713  1.4343  0.5266
  780MOL0     H 2946   0.817   3.676  10.379 -1.7528 -0.5409  0.2471
  780MOL0     H 2947   0.890   3.912  10.334  3.1279 -0.1490  1.9248
  780MOL0     H 2948   0.633   4.323  10.176 -0.9400  1.2551  0.0963
  780MOL0     H 2949   0.632   4.549  10.139  0.9584  0.3068  0.3994
  780MOL0     H 2950   0.600   4.768  10.174  0.0563  2.0837 -0.1568
  780MOL0     H 2951   0.729   4.747  10.062  0.5345 -0.3796 -0.2938
  780MOL0     H 2952   0.703   4.998  10.251 -2.3501  0.1755 -0.7968
  780MOL0     H 2953   0.832   4.974  10.129 -0.2863 -0.8877 -1.4508
  780MOL0     H 2954   0.524   4.973  10.077  0.4859  0.4961  0.1204
  780MOL0     H 2955   0.656   4.931   9.963 -0.2859 -3.7607  1.5955
  780MOL0     H 2956   0.749   5.168  10.018 -0.0586 -0.1427  0.5231
  780MOL0     H 2957   0.605   5.160   9.921  0.2220  0.7376 -0.1831
  780MOL0     H 2958   0.403   5.352  10.205 -3.5819 -0.1754 -4.2828
  780MOL0     H 2959   0.913   4.623  10.458  0.3253 -1.0201  1.1104
  780MOL0     H 2960   0.867   4.378  10.522  0.9521  1.9234  1.1220
  781MOL0     O 2961   4.684   7.059   5.278 -0.0410 -0.3302 -0.2010
  781MOL0     C 2962   4.784   6.995   5.234  0.7327 -0.2886  0.8568
  781MOL0     O 2963   4.856   7.025   5.118 -0.3203 -0.2887  0.5433
  781MOL0     C 2964   4.821   7.114   5.020 -0.0622 -0.4895 -0.4505
  781MOL0     C 2965   4.929   7.157   4.944 -0.5560  0.8938  0.4656
  781MOL0     C 2966   4.909   7.255   4.842  0.4992  1.0605  0.0584
  781MOL0     C 2967   4.788   7.311   4.817 -0.8553  0.2646  0.5952
  781MOL0     O 2968   4.787   7.402   4.716 -0.0041 -0.5350  0.1188
  781MOL0     C 2969   4.665   7.439   4.665  0.4155 -0.4178  0.0363
  781MOL0     C 2970   4.610   7.580   4.712  0.3937 -0.0051  0.1669
  781MOL0     C 2971   4.709   7.683   4.678  0.1900  0.1828  0.8346
  781MOL0     C 2972   4.622   7.805   4.656  0.0046 -1.3823  0.1603
  781MOL0     C 2973   4.717   7.933   4.672 -0.1469 -0.0165 -0.2277
  781MOL0     C 2974   4.722   8.001   4.804 -0.6300  0.1794  0.3049
  781MOL0     C 2975   4.811   8.124   4.814 -1.2602 -0.8019  0.4846
  781MOL0     C 2976   4.825   8.186   4.962  0.3720  0.5525  0.1507
  781MOL0     N 2977   4.699   8.170   5.035  0.2690  0.1259  0.9087
  781MOL0     C 2978   4.660   8.073   5.128  0.5848  0.9692 -0.5589
  781MOL0     C 2979   4.525   8.086   5.128 -0.6993  0.4701  0.1131
  781MOL0     C 2980   4.437   8.003   5.218  0.6668  0.4579  0.6131
  781MOL0     C 2981   4.362   8.076   5.327 -0.1097  0.0227  0.4930
  781MOL0     C 2982   4.235   7.998   5.375 -0.4868 -0.3792 -0.6254
  781MOL0     C 2983   4.183   8.052   5.499  0.5584 -0.5659 -0.1971
  781MOL0     O 2984   4.135   8.186   5.475 -0.4391 -1.2261  0.2407
  781MOL0     C 2985   4.071   8.252   5.571 -0.0790 -0.0176  0.7561
  781MOL0     C 2986   4.136   8.358   5.632 -0.5449 -0.8083  0.8883
  781MOL0     C 2987   4.067   8.440   5.719 -0.9135  0.6780 -0.4149
  781MOL0     C 2988   3.939   8.405   5.767  0.2612 -0.0185  0.1608
  781MOL0     C 2989   3.863   8.479   5.883 -0.9359  0.4977  0.0066
  781MOL0     O 2990   3.936   8.579   5.928  0.2647 -0.3936  0.3818
  781MOL0     C 2991   3.918   8.618   6.059 -0.0340 -0.7865  1.0397
  781MOL0     C 2992   3.919   8.539   6.177  0.1842  0.0910 -0.4173
  781MOL0     C 2993   3.915   8.605   6.302 -0.0333 -0.0834  0.3418
  781MOL0     C 2994   3.889   8.741   6.321  0.3132 -0.7299 -0.4453
  781MOL0     O 2995   3.902   8.826   6.429  0.3558  0.1721  0.4731
  781MOL0     C 2996   3.928   8.757   6.559  0.2881  0.0085  0.0942
  781MOL0     C 2997   3.900   8.846   6.673  0.4951 -0.3284 -0.0702
  781MOL0     C 2998   4.028   8.894   6.739 -0.8900  0.0652  0.2995
  781MOL0     C 2999   3.994   9.026   6.813 -0.7564 -0.1491 -0.9445
  781MOL0     C 3000   3.891   9.019   6.937 -0.4318 -0.1741 -0.7616
  781MOL0     C 3001   3.853   9.155   6.988  0.3986 -0.2477 -1.3574
  781MOL0     C 3002   3.776   9.154   7.111  0.5027 -0.3660 -0.0865
  781MOL0     C 3003   3.770   9.287   7.173 -0.7390 -0.2010  0.1178
  781MOL0    Cl 3004   3.902   9.419   7.153  0.0219 -0.1484 -0.0599
  781MOL0     C 3005   3.877   8.816   6.202  0.8769 -1.0683 -0.1212
  781MOL0     C 3006   3.902   8.752   6.075  0.7112 -0.8779 -0.1221
  781MOL0     O 3007   3.760   8.437   5.926  0.3414 -0.3809  0.5192
  781MOL0     C 3008   3.875   8.294   5.708  0.0016  0.1572 -0.0111
  781MOL0     C 3009   3.933   8.224   5.589  0.8973 -0.0067 -0.7000
  781MOL0     N 3010   4.483   8.188   5.046  1.1606 -0.2301 -0.3544
  781MOL0     N 3011   4.582   8.238   4.996 -0.1196  0.6684 -0.1902
  781MOL0     C 3012   4.680   7.270   4.895 -0.5465 -0.3468 -0.6701
  781MOL0     C 3013   4.694   7.165   4.994  0.4229 -0.7253 -0.5476
  781MOL0     C 3014   4.816   6.871   5.305 -0.3848  0.8824  0.4052
  781MOL0     C 3015   4.804   6.854   5.444 -0.3303 -0.2161 -1.0172
  781MOL0     C 3016   4.832   6.741   5.513  0.7052  1.0054 -0.5257
  781MOL0     C 3017   4.886   6.627   5.452  0.4840  0.5128  0.1982
  781MOL0     O 3018   4.903   6.511   5.526 -0.3728 -0.0533  0.6339
  781MOL0     C 3019   4.965   6.396   5.474 -0.4450 -0.7651 -0.2673
  781MOL0     C 3020   4.864   6.313   5.405 -0.1778 -0.0648  0.0806
  781MOL0     C 3021   4.932   6.206   5.306  0.4225  0.7198  0.2695
  781MOL0     C 3022   4.870   6.070   5.328  0.3892 -0.3583  0.3141
  781MOL0     C 3023   4.973   5.969   5.364  0.2329  0.6075  1.1287
  781MOL0     C 3024   5.077   5.901   5.378  0.5523 -0.1984  0.1143
  781MOL0     C 3025   4.904   6.636   5.313  0.1416  0.0064  0.0244
  781MOL0     C 3026   4.868   6.757   5.233  0.9246 -0.1549 -0.4060
  781MOL0     H 3027   5.029   7.116   4.943 -1.6392 -2.1021  2.0660
  781MOL0     H 3028   5.001   7.282   4.790  0.5742 -1.2542 -1.1585
  781MOL0     H 3029   4.591   7.359   4.665  0.6802 -0.6657 -0.2563
  781MOL0     H 3030   4.685   7.455   4.558  2.3846  2.2892  0.6995
  781MOL0     H 3031   4.597   7.574   4.820  2.5121 -0.1518  0.4669
  781MOL0     H 3032   4.514   7.603   4.665  0.1832 -1.0899  0.0357
  781MOL0     H 3033   4.770   7.654   4.591 -1.2711  2.4222 -1.0604
  781MOL0     H 3034   4.777   7.690   4.763 -0.0053  2.9828  0.8468
  781MOL0     H 3035   4.571   7.805   4.559  1.1386 -0.3629 -0.4652
  781MOL0     H 3036   4.529   7.802   4.714 -0.6655 -2.1100 -0.9062
  781MOL0     H 3037   4.710   7.999   4.585 -0.0732 -1.4349 -1.3514
  781MOL0     H 3038   4.820   7.896   4.671  0.2502  1.0459 -0.4134
  781MOL0     H 3039   4.751   7.928   4.880 -1.1848  1.2487  1.5953
  781MOL0     H 3040   4.621   8.020   4.843  0.4358  0.3898  3.2224
  781MOL0     H 3041   4.915   8.110   4.783 -0.8577 -0.0853  1.4612
  781MOL0     H 3042   4.764   8.206   4.759  1.0798  0.8120  0.7289
  781MOL0     H 3043   4.838   8.294   4.956 -0.6111  0.8082  2.0867
  781MOL0     H 3044   4.913   8.148   5.015 -0.2619  0.1385  0.9217
  781MOL0     H 3045   4.733   8.007   5.174 -0.5150  0.3852  0.4081
  781MOL0     H 3046   4.495   7.930   5.276  1.2931  1.1459  0.8638
  781MOL0     H 3047   4.367   7.952   5.151 -1.3912  3.8742 -0.0837
  781MOL0     H 3048   4.328   8.175   5.296 -0.1560 -0.5399 -1.3923
  781MOL0     H 3049   4.427   8.085   5.415  0.4639 -1.4832  0.2531
  781MOL0     H 3050   4.153   7.994   5.302 -0.9610 -5.6627 -0.2158
  781MOL0     H 3051   4.269   7.894   5.384  2.0706  0.3979 -0.6932
  781MOL0     H 3052   4.253   8.043   5.582  2.1871  2.3457 -1.0915
  781MOL0     H 3053   4.093   7.997   5.528 -0.3810  1.2145  0.4405
  781MOL0     H 3054   4.238   8.388   5.608 -0.9872 -0.9682 -1.3699
  781MOL0     H 3055   4.118   8.520   5.771  0.4486 -2.0540  2.8260
  781MOL0     H 3056   3.930   8.432   6.163 -1.5479  0.0829 -2.1147
  781MOL0     H 3057   3.937   8.550   6.393  2.2496 -1.7408 -1.1154
  781MOL0     H 3058   4.030   8.718   6.572  0.6706  1.1076  0.5832
  781MOL0     H 3059   3.860   8.672   6.560 -1.0124  0.9937 -0.6100
  781MOL0     H 3060   3.838   8.797   6.749  2.3576  1.7957  3.0593
  781MOL0     H 3061   3.839   8.926   6.631 -2.2317 -2.0150  0.3718
  781MOL0     H 3062   4.112   8.909   6.670  0.0527 -1.4354  1.0730
  781MOL0     H 3063   4.066   8.818   6.808  2.8366  1.0793 -0.3914
  781MOL0     H 3064   4.085   9.075   6.848 -0.2228  0.4514 -3.0069
  781MOL0     H 3065   3.953   9.091   6.734 -1.9396 -0.7731 -0.8707
  781MOL0     H 3066   3.937   8.956   7.013 -3.6906 -0.8625  0.8329
  781MOL0     H 3067   3.800   8.973   6.898 -0.6390  0.1773 -0.7040
  781MOL0     H 3068   3.813   9.218   6.909 -1.8923 -0.3677 -0.3781
  781MOL0     H 3069   3.945   9.201   7.025 -0.6313  0.8059  0.0462
  781MOL0     H 3070   3.677   9.129   7.072  0.8724 -2.5938  0.2451
  781MOL0     H 3071   3.802   9.075   7.182 -0.3645 -0.1945  0.4504
  781MOL0     H 3072   3.780   9.270   7.280  0.4137  1.4088  0.3044
  781MOL0     H 3073   3.681   9.348   7.153 -0.9202 -0.0158  1.4400
  781MOL0     H 3074   3.854   8.921   6.192 -0.4955 -1.0559  2.1919
  781MOL0     H 3075   3.901   8.819   5.990  0.6293 -0.2412  0.3793
  781MOL0     H 3076   3.780   8.262   5.749  0.3849  0.2129  0.9616
  781MOL0     H 3077   3.882   8.143   5.538  0.5421 -1.4095  1.6847
  781MOL0     H 3078   4.582   7.316   4.895  1.3353  4.4088  2.4987
  781MOL0     H 3079   4.609   7.138   5.057 -0.8373  0.6185 -1.6123
  781MOL0     H 3080   4.774   6.939   5.504 -0.3106 -1.7964  1.3940
  781MOL0     H 3081   4.812   6.732   5.619 -3.8527 -1.9173 -1.3670
  781MOL0     H 3082   5.014   6.342   5.555  2.4738  4.2189  1.7368
  781MOL0     H 3083   5.036   6.426   5.396 -0.8290  0.5650 -0.1313
  781MOL0     H 3084   4.795   6.272   5.479 -1.8241 -0.0466 -1.3727
  781MOL0     H 3085   4.809   6.383   5.342  0.8376  0.5438 -0.1595
  781MOL0     H 3086   5.039   6.197   5.328  0.1104  0.5313  1.8064
  781MOL0     H 3087   4.913   6.227   5.200  0.2107 -2.2020 -0.3639
  781MOL0     H 3088   4.803   6.078   5.414 -1.9900 -0.7105 -1.3975
  781MOL0     H 3089   4.813   6.040   5.240 -3.0974  2.5773  1.3210
  781MOL0     H 3090   5.165   5.841   5.391  0.3957 -1.6871 -3.9683
  781MOL0     H 3091   4.942   6.553   5.254  1.0423 -1.5620  2.5990
  781MOL0     H 3092   4.870   6.753   5.124 -1.6689 -1.0122 -0.4895
  782MOL0     O 3093   9.931   8.445   8.345  0.2203 -0.5452 -0.5755
  782MOL0     C 3094   9.872   8.359   8.411  0.0423 -0.9536 -0.5401
  782MOL0     O 3095   9.845   8.375   8.547 -0.2210  0.7068  0.4646
  782MOL0     C 3096   9.747   8.463   8.582  0.2893  0.6308  0.3375
  782MOL0     C 3097   9.616   8.424   8.571 -0.0143  0.3562 -0.1259
  782MOL0     C 3098   9.520   8.515   8.620  0.5761 -1.2189  0.1767
  782MOL0     C 3099   9.549   8.636   8.671  0.1030 -0.8168 -0.1910
  782MOL0     O 3100   9.430   8.709   8.702  0.5321  0.3304  0.2362
  782MOL0     C 3101   9.443   8.850   8.680  0.8179 -0.2605  0.4456
  782MOL0     C 3102   9.459   8.880   8.520  0.3520  0.2979  0.4554
  782MOL0     C 3103   9.438   9.036   8.493 -0.5262 -0.8116  0.2247
  782MOL0     C 3104   9.463   9.088   8.347 -0.1472  0.1226 -0.0618
  782MOL0     C 3105   9.442   9.244   8.332  0.3872  1.1538  0.0520
  782MOL0     C 3106   9.455   9.272   8.180  0.6255  0.1634  0.1342
  782MOL0     C 3107   9.604   9.241   8.124  0.6880 -0.2349 -0.0738
  782MOL0     C 3108   9.628   9.323   7.997 -0.8632 -0.3026  0.1911
  782MOL0     N 3109   9.644   9.465   7.999 -0.4869  0.2697  0.3587
  782MOL0     C 3110   9.556   9.560   7.940  0.1681 -0.0666  0.4651
  782MOL0     C 3111   9.619   9.685   7.951  0.8490  0.9072 -0.2467
  782MOL0     C 3112   9.551   9.807   7.883  0.1182  0.2774  0.1764
  782MOL0     C 3113   9.662   9.916   7.862 -0.7695  0.2412 -0.9850
  782MOL0     C 3114   9.782   9.886   7.761  0.0815 -0.8251  0.7948
  782MOL0     C 3115   9.733   9.903   7.617 -0.8780  0.2934 -0.4636
  782MOL0     O 3116   9.718  10.040   7.602  0.5133 -0.6266 -0.1576
  782MOL0     C 3117   9.653  10.086   7.492 -0.6568  0.5376 -0.9343
  782MOL0     C 3118   9.619  10.005   7.378 -0.5338 -0.1586  0.1471
  782MOL0     C 3119   9.553  10.079   7.271 -0.2046 -0.2645  0.2597
  782MOL0     C 3120   9.506  10.213   7.293  0.0217  0.9116  0.3180
  782MOL0     C 3121   9.437  10.277   7.175  0.7478 -0.9512 -0.0128
  782MOL0     O 3122   9.433  10.214   7.056  0.4270  0.0482 -0.8598
  782MOL0     C 3123   9.376  10.273   6.944 -0.2741  0.2263 -0.0424
  782MOL0     C 3124   9.444  10.374   6.884 -0.3124  0.4886  1.2523
  782MOL0     C 3125   9.383  10.434   6.773 -0.3095 -0.5123  0.1103
  782MOL0     C 3126   9.267  10.385   6.716  0.3040  0.1828 -0.7210
  782MOL0     O 3127   9.222  10.436   6.590 -0.6627  0.1326 -0.1203
  782MOL0     C 3128   9.137  10.545   6.608  0.0595 -0.7921 -0.1541
  782MOL0     C 3129   9.113  10.641   6.492 -0.0161  0.1706 -1.1761
  782MOL0     C 3130   9.021  10.562   6.398 -0.5585  1.0791 -0.4424
  782MOL0     C 3131   9.012  10.636   6.266 -0.3169  0.4192 -0.7374
  782MOL0     C 3132   8.918  10.576   6.157 -0.5071 -0.0588  0.3279
  782MOL0     C 3133   8.939  10.625   6.012 -0.5738 -0.3778  0.3219
  782MOL0     C 3134   8.831  10.561   5.907 -1.1040 -0.5201  0.0046
  782MOL0     C 3135   8.890  10.429   5.860 -0.9975  0.5023 -0.4558
  782MOL0    Cl 3136   8.769  10.332   5.762  0.0778  0.5452  0.1683
  782MOL0     C 3137   9.196  10.282   6.783 -0.3623 -0.1606 -0.2398
  782MOL0     C 3138   9.261  10.223   6.898  0.5734  0.1478 -0.3864
  782MOL0     O 3139   9.390  10.393   7.189 -0.3221  0.9511 -0.5788
  782MOL0     C 3140   9.542  10.284   7.404  0.3953 -0.6341  0.3483
  782MOL0     C 3141   9.608  10.222   7.499 -0.0712 -0.0676  0.5206
  782MOL0     N 3142   9.724   9.667   8.034 -0.1777  0.1402  0.1488
  782MOL0     N 3143   9.750   9.539   8.052  0.6120  0.2660  0.3897
  782MOL0     C 3144   9.684   8.680   8.681 -0.6183  0.3195 -0.1758
  782MOL0     C 3145   9.781   8.591   8.634 -0.6245 -0.1327 -0.7583
  782MOL0     C 3146   9.822   8.243   8.330  1.1913 -1.1739 -0.1449
  782MOL0     C 3147   9.758   8.133   8.382 -0.1033 -0.0312  0.0318
  782MOL0     C 3148   9.708   8.026   8.311  1.2962 -1.2148 -0.1069
  782MOL0     C 3149   9.705   8.033   8.169 -0.2670 -0.4519 -0.1706
  782MOL0     O 3150   9.650   7.941   8.091  0.5674 -0.4557 -0.2280
  782MOL0     C 3151   9.529   7.877   8.151 -0.0611 -0.0371  0.3250
  782MOL0     C 3152   9.426   7.847   8.046 -0.2319 -0.5430  0.1531
  782MOL0     C 3153   9.297   7.781   8.105 -0.0933 -0.4469 -0.3291
  782MOL0     C 3154   9.207   7.893   8.169 -0.7602 -0.5485  0.1275
  782MOL0     C 3155   9.122   7.978   8.087 -0.3843  0.0320  0.6663
  782MOL0     C 3156   9.035   8.037   8.020 -0.4345 -0.2134  0.4075
  782MOL0     C 3157   9.775   8.136   8.116  0.2730  0.0861  0.8572
  782MOL0     C 3158   9.835   8.243   8.191  0.5431 -0.2689 -0.9753
  782MOL0     H 3159   9.582   8.327   8.539 -1.4868  0.8147 -0.0224
  782MOL0     H 3160   9.414   8.493   8.614  0.2350  0.3294 -0.0617
  782MOL0     H 3161   9.528   8.897   8.730  0.1034  1.9787 -0.3204
  782MOL0     H 3162   9.356   8.899   8.724  1.6661  2.4912 -0.6800
  782MOL0     H 3163   9.388   8.821   8.460  0.4504 -0.5553  1.1710
  782MOL0     H 3164   9.555   8.842   8.483 -0.7916 -0.8886 -1.5287
  782MOL0     H 3165   9.519   9.086   8.548  0.4777  1.1450 -2.7816
  782MOL0     H 3166   9.342   9.072   8.531 -0.8232 -1.7989  0.4461
  782MOL0     H 3167   9.567   9.068   8.320  0.7904 -2.3325  4.4046
  782MOL0     H 3168   9.401   9.027   8.282  0.7088  1.2597 -2.0191
  782MOL0     H 3169   9.527   9.293   8.381  0.6609  0.1640  0.5885
  782MOL0     H 3170   9.349   9.274   8.379  0.6047 -1.2958  2.2748
  782MOL0     H 3171   9.438   9.374   8.145  0.0247 -0.9952 -3.4269
  782MOL0     H 3172   9.385   9.219   8.114 -1.5474  3.2657 -0.2696
  782MOL0     H 3173   9.677   9.281   8.194  0.6258  0.7143 -0.5413
  782MOL0     H 3174   9.618   9.133   8.114  3.3171  0.0739 -0.2768
  782MOL0     H 3175   9.544   9.306   7.929 -1.0131  1.3199 -0.0595
  782MOL0     H 3176   9.726   9.298   7.957 -0.6212 -0.1948  0.7134
  782MOL0     H 3177   9.467   9.533   7.886  2.2003  0.9037 -3.7881
  782MOL0     H 3178   9.463   9.847   7.933 -0.6094 -0.6638 -0.3223
  782MOL0     H 3179   9.498   9.780   7.791  0.5812  0.4674 -0.1507
  782MOL0     H 3180   9.700   9.933   7.963 -0.2530  1.7211 -1.4054
  782MOL0     H 3181   9.614  10.010   7.833  0.8150  0.9937 -1.2768
  782MOL0     H 3182   9.869   9.952   7.775  0.8477 -1.8270  0.8591
  782MOL0     H 3183   9.825   9.786   7.770  1.9288  0.0277  1.9940
  782MOL0     H 3184   9.648   9.838   7.597 -0.3349 -1.8403  3.2584
  782MOL0     H 3185   9.812   9.872   7.548  0.6447  0.1424  1.2574
  782MOL0     H 3186   9.639   9.899   7.363  0.6075 -0.0943  1.0155
  782MOL0     H 3187   9.529  10.022   7.182  1.6701  2.5902 -2.3052
  782MOL0     H 3188   9.543  10.409   6.911  0.7542  0.7464 -2.4160
  782MOL0     H 3189   9.431  10.515   6.720 -0.1191 -1.8400 -1.8653
  782MOL0     H 3190   9.192  10.612   6.675 -1.1684 -1.5444  1.6969
  782MOL0     H 3191   9.036  10.514   6.638 -1.2931  1.7361 -1.7266
  782MOL0     H 3192   9.203  10.680   6.443  2.3382 -3.6262 -0.2420
  782MOL0     H 3193   9.062  10.734   6.522  1.2463  0.8708 -1.1310
  782MOL0     H 3194   8.924  10.534   6.441  0.4255 -1.4372  0.3240
  782MOL0     H 3195   9.075  10.473   6.365 -1.7496  0.6959 -1.4886
  782MOL0     H 3196   8.984  10.739   6.291  0.1127  0.1313  1.0307
  782MOL0     H 3197   9.114  10.643   6.225  0.6583  4.2807  1.8014
  782MOL0     H 3198   8.813  10.593   6.180 -0.6920  0.0533 -0.5659
  782MOL0     H 3199   8.935  10.468   6.148 -3.6657 -0.5915 -0.3210
  782MOL0     H 3200   9.034  10.597   5.966 -1.2811 -1.2366 -0.6617
  782MOL0     H 3201   8.923  10.733   6.017  0.8523 -0.1930  1.3988
  782MOL0     H 3202   8.740  10.549   5.966 -0.9446  1.4364  0.7232
  782MOL0     H 3203   8.821  10.628   5.821  1.0120  1.5856  1.2798
  782MOL0     H 3204   8.914  10.371   5.950 -0.5028  1.3185 -0.0589
  782MOL0     H 3205   8.978  10.431   5.795  1.8005  3.3583  2.9933
  782MOL0     H 3206   9.111  10.248   6.725 -0.3897  1.5229 -1.2453
  782MOL0     H 3207   9.215  10.135   6.942 -2.2174  1.0811 -1.2332
  782MOL0     H 3208   9.531  10.391   7.416 -2.8534 -0.9899  1.6561
  782MOL0     H 3209   9.632  10.275   7.591 -1.7166  1.8480 -0.0910
  782MOL0     H 3210   9.714   8.780   8.709 -0.9775 -0.3690  2.9973
  782MOL0     H 3211   9.884   8.623   8.637  0.0232 -2.1590  1.4761
  782MOL0     H 3212   9.740   8.121   8.488 -0.2446 -3.1934 -0.2530
  782MOL0     H 3213   9.651   7.953   8.367 -1.0891  1.7750  1.6933
  782MOL0     H 3214   9.484   7.951   8.219  1.9225 -0.0667  1.7638
  782MOL0     H 3215   9.547   7.783   8.205  0.2927 -0.0390  0.2012
  782MOL0     H 3216   9.405   7.939   7.991  0.9960  0.8715  1.9455
  782MOL0     H 3217   9.472   7.771   7.982 -3.0005 -0.2292 -2.4408
  782MOL0     H 3218   9.333   7.710   8.181  4.8414  1.2170 -0.7571
  782MOL0     H 3219   9.240   7.728   8.029 -2.8495 -0.2649  1.4590
  782MOL0     H 3220   9.126   7.836   8.216 -2.8714 -0.8207 -3.4301
  782MOL0     H 3221   9.267   7.947   8.243 -0.1111  0.1561 -0.8824
  782MOL0     H 3222   8.986   8.105   7.953  3.3423  1.2985 -1.1517
  782MOL0     H 3223   9.797   8.151   8.010 -0.9014  4.8326  1.0861
  782MOL0     H 3224   9.870   8.324   8.128  1.5982 -0.7186 -0.9988
  783MOL0     O 3225   9.108  10.230   3.987  0.1781  0.1348  0.5084
  783MOL0     C 3226   8.989  10.250   4.021 -0.1395 -0.3144  0.5305
  783MOL0     O 3227   8.914  10.358   3.991  0.6969  0.5762  0.0722
  783MOL0     C 3228   8.969  10.462   3.920 -0.4495  0.6583  0.4014
  783MOL0     C 3229   8.944  10.470   3.782  0.5636 -0.7620  0.0861
  783MOL0     C 3230   8.995  10.582   3.712  0.2617 -0.3797 -0.1856
  783MOL0     C 3231   9.078  10.676   3.779 -0.9755  0.3175  0.5002
  783MOL0     O 3232   9.148  10.771   3.698 -0.3030  0.9015  1.1084
  783MOL0     C 3233   9.112  10.911   3.711 -0.5349  0.4366 -0.2882
  783MOL0     C 3234   9.212  10.964   3.817 -0.7796  0.2095  0.2360
  783MOL0     C 3235   9.245  11.111   3.780  0.0946  0.0001  0.0518
  783MOL0     C 3236   9.134  11.206   3.800 -0.4773 -0.0438  0.3099
  783MOL0     C 3237   9.167  11.349   3.743  0.3646  0.3887  0.1073
  783MOL0     C 3238   9.056  11.454   3.769 -0.5202 -0.6012  0.0627
  783MOL0     C 3239   9.014  11.460   3.926  0.0934 -0.2992 -0.3812
  783MOL0     C 3240   8.898  11.554   3.951  0.6826  0.3332  0.1746
  783MOL0     N 3241   8.825  11.547   4.078 -1.5063 -0.3501  0.1765
  783MOL0     C 3242   8.876  11.596   4.200  0.1040 -0.0112 -1.2626
  783MOL0     C 3243   8.766  11.596   4.285  0.0555  1.6118  0.4619
  783MOL0     C 3244   8.766  11.635   4.428 -0.7872 -0.0544  0.6863
  783MOL0     C 3245   8.644  11.733   4.443 -1.3518 -0.2324  0.4080
  783MOL0     C 3246   8.635  11.804   4.582  0.9451 -0.5373  0.2068
  783MOL0     C 3247   8.565  11.721   4.691 -0.1563 -0.2119  0.8797
  783MOL0     O 3248   8.489  11.808   4.775  0.0479 -0.0359 -0.6302
  783MOL0     C 3249   8.456  11.762   4.911 -0.3599  0.5274  0.6599
  783MOL0     C 3250   8.327  11.779   4.957  0.3591 -0.4558 -0.7120
  783MOL0     C 3251   8.307  11.755   5.099  0.6071  0.9894 -0.3597
  783MOL0     C 3252   8.402  11.694   5.186 -0.2064  1.0006  1.0205
  783MOL0     C 3253   8.382  11.676   5.330 -0.0500  0.7730 -0.1471
  783MOL0     O 3254   8.271  11.735   5.380  0.0417  0.5020  0.2912
  783MOL0     C 3255   8.233  11.692   5.507 -0.4924  0.6791  0.2055
  783MOL0     C 3256   8.179  11.567   5.535  0.3406 -0.9624 -0.9579
  783MOL0     C 3257   8.142  11.535   5.670 -0.1294  0.8111  0.0931
  783MOL0     C 3258   8.180  11.627   5.768 -0.8638  0.5263 -0.8130
  783MOL0     O 3259   8.129  11.614   5.898 -0.7131 -0.3918  0.7175
  783MOL0     C 3260   8.159  11.716   5.994  0.0831 -0.1622  0.2421
  783MOL0     C 3261   8.098  11.680   6.124 -0.0706  0.1468  0.1659
  783MOL0     C 3262   7.941  11.658   6.128 -0.2129  0.3521  0.5789
  783MOL0     C 3263   7.855  11.781   6.160 -0.9558 -0.5465  1.0499
  783MOL0     C 3264   7.712  11.745   6.200  0.2133  0.7917 -0.3003
  783MOL0     C 3265   7.636  11.688   6.080 -0.0498 -0.3546  0.4562
  783MOL0     C 3266   7.499  11.645   6.128  0.0428  0.7180  0.1129
  783MOL0     C 3267   7.489  11.503   6.187 -0.8881 -0.0202  0.6213
  783MOL0    Cl 3268   7.522  11.513   6.372 -0.0785 -0.1842 -0.1029
  783MOL0     C 3269   8.257  11.742   5.739 -0.4052 -0.9812  0.8100
  783MOL0     C 3270   8.277  11.775   5.603 -0.5420  0.8360 -0.2923
  783MOL0     O 3271   8.458  11.593   5.389  0.2947 -0.6952  0.7069
  783MOL0     C 3272   8.533  11.670   5.124  0.0766  0.4801  0.0937
  783MOL0     C 3273   8.553  11.699   4.988 -0.0260 -0.2284 -0.5041
  783MOL0     N 3274   8.659  11.568   4.207  0.2815  0.0629  0.8508
  783MOL0     N 3275   8.691  11.550   4.085 -0.1219  0.7377 -0.2856
  783MOL0     C 3276   9.090  10.666   3.916 -0.8393 -1.0059  0.1639
  783MOL0     C 3277   9.044  10.560   3.987 -0.0882  0.3247 -0.5320
  783MOL0     C 3278   8.933  10.139   4.089  0.5894 -0.6261  0.4618
  783MOL0     C 3279   9.001  10.036   4.158  0.0973 -0.5754  0.4903
  783MOL0     C 3280   8.927   9.933   4.228 -0.5850 -0.7232 -0.8413
  783MOL0     C 3281   8.786   9.923   4.225 -0.0113 -1.3003 -1.2114
  783MOL0     O 3282   8.714   9.825   4.291  0.1161 -0.2407  0.3601
  783MOL0     C 3283   8.760   9.790   4.425  1.0566 -0.6193  0.2793
  783MOL0     C 3284   8.760   9.646   4.454 -0.3096 -0.5971  0.3590
  783MOL0     C 3285   8.635   9.565   4.458  1.3747  0.5766 -0.0737
  783MOL0     C 3286   8.664   9.419   4.498  1.0012 -0.1879  0.7042
  783MOL0     C 3287   8.543   9.342   4.481  0.3112 -0.0418  0.9790
  783MOL0     C 3288   8.439   9.277   4.453 -0.8275  0.4604  0.2908
  783MOL0     C 3289   8.720  10.023   4.147 -0.3799 -0.3466 -0.6054
  783MOL0     C 3290   8.794  10.125   4.087  0.2111 -0.5473 -0.1635
  783MOL0     H 3291   8.874  10.405   3.731  1.8188 -1.7609 -0.4203
  783MOL0     H 3292   8.979  10.592   3.605 -2.6762 -2.6030 -0.0543
  783MOL0     H 3293   9.008  10.932   3.739 -0.8810 -0.3377 -0.9705
  783MOL0     H 3294   9.124  10.958   3.613 -2.2581 -0.8321 -1.1438
  783MOL0     H 3295   9.307  10.911   3.808  0.0155  1.6116  0.1885
  783MOL0     H 3296   9.160  10.968   3.913 -2.2380 -0.7876 -0.4726
  783MOL0     H 3297   9.275  11.105   3.675 -1.3957 -3.2376 -0.3287
  783MOL0     H 3298   9.334  11.144   3.833  0.1113  0.4472 -0.2465
  783MOL0     H 3299   9.044  11.168   3.751 -0.6216 -3.0780  2.5750
  783MOL0     H 3300   9.110  11.218   3.906  1.2512 -0.0451  0.7373
  783MOL0     H 3301   9.185  11.346   3.635 -1.1685  4.1690 -0.4222
  783MOL0     H 3302   9.255  11.376   3.801  1.2210 -2.5542  0.3342
  783MOL0     H 3303   8.962  11.433   3.717 -0.3698 -1.2453  0.0376
  783MOL0     H 3304   9.103  11.542   3.724 -3.2060  0.8148 -0.1490
  783MOL0     H 3305   8.981  11.363   3.963  2.1295 -0.1799  1.9973
  783MOL0     H 3306   9.094  11.490   3.994  0.3656 -4.3998  1.3889
  783MOL0     H 3307   8.813  11.544   3.883 -1.2391  4.5274  1.5390
  783MOL0     H 3308   8.933  11.658   3.943  0.5326  0.5040  1.4970
  783MOL0     H 3309   8.976  11.630   4.226 -0.3991  0.3894  0.2770
  783MOL0     H 3310   8.866  11.669   4.456  0.2338 -1.7793 -0.7147
  783MOL0     H 3311   8.754  11.544   4.487  1.6074 -1.5223 -0.9241
  783MOL0     H 3312   8.543  11.691   4.435 -1.4420  0.0741 -0.0915
  783MOL0     H 3313   8.648  11.799   4.357 -2.6808  0.5599  0.9195
  783MOL0     H 3314   8.734  11.835   4.616  0.5949  2.2435 -1.0301
  783MOL0     H 3315   8.577  11.896   4.571 -1.1129 -1.9050 -0.9747
  783MOL0     H 3316   8.657  11.684   4.737  2.5524  1.6923 -2.5314
  783MOL0     H 3317   8.508  11.638   4.648 -0.8783  1.5322 -1.7075
  783MOL0     H 3318   8.245  11.830   4.906 -0.6072  1.7925  2.6928
  783MOL0     H 3319   8.221  11.799   5.148  0.0635 -0.4784  0.0514
  783MOL0     H 3320   8.140  11.494   5.464  2.2585 -1.1853 -1.8338
  783MOL0     H 3321   8.074  11.454   5.694 -2.6038  2.5716 -0.4544
  783MOL0     H 3322   8.106  11.807   5.965 -0.6060  0.0493  2.0107
  783MOL0     H 3323   8.268  11.727   6.002  0.1605  0.7229 -1.5336
  783MOL0     H 3324   8.122  11.756   6.200 -1.9648  0.8240  0.1574
  783MOL0     H 3325   8.147  11.587   6.154  2.6545  0.4411 -2.8668
  783MOL0     H 3326   7.916  11.577   6.198 -0.5994 -0.8020 -0.8482
  783MOL0     H 3327   7.916  11.621   6.028 -2.6609 -0.0847  1.2751
  783MOL0     H 3328   7.907  11.845   6.231  1.0828 -0.7457 -0.1780
  783MOL0     H 3329   7.850  11.832   6.063  1.8876 -1.5612  0.2792
  783MOL0     H 3330   7.662  11.832   6.244  4.9470  2.9547  1.5535
  783MOL0     H 3331   7.719  11.671   6.280  1.8412  0.9198 -0.2980
  783MOL0     H 3332   7.692  11.606   6.034  0.0410 -1.9829  3.2912
  783MOL0     H 3333   7.624  11.762   6.000 -0.0085 -3.6424 -2.9077
  783MOL0     H 3334   7.457  11.724   6.191 -0.0483  0.4652  0.3724
  783MOL0     H 3335   7.446  11.622   6.035 -0.5164  2.2700  0.0143
  783MOL0     H 3336   7.552  11.432   6.133  1.2542  2.1014  0.1544
  783MOL0     H 3337   7.385  11.470   6.176 -0.6333 -0.1589 -2.2929
  783MOL0     H 3338   8.284  11.803   5.824 -1.1587  1.0119 -0.3059
  783MOL0     H 3339   8.334  11.864   5.579  0.5923 -0.0571 -1.0466
  783MOL0     H 3340   8.615  11.634   5.186 -0.3555  0.9015  0.9386
  783MOL0     H 3341   8.654  11.695   4.948 -0.4598 -0.6244 -1.6034
  783MOL0     H 3342   9.156  10.739   3.962  0.5068 -0.9609 -1.7058
  783MOL0     H 3343   9.062  10.531   4.091 -1.3240 -0.6944 -0.5741
  783MOL0     H 3344   9.109  10.045   4.153  0.2169 -1.7084  0.6409
  783MOL0     H 3345   9.002   9.874   4.279  1.1697  1.9924 -0.0744
  783MOL0     H 3346   8.696   9.846   4.495  2.7201  3.2734 -1.0057
  783MOL0     H 3347   8.861   9.828   4.441  0.5164  1.1442 -0.1954
  783MOL0     H 3348   8.834   9.597   4.390 -2.4189 -4.7663  0.7506
  783MOL0     H 3349   8.810   9.620   4.548  1.2581 -2.0307 -0.8204
  783MOL0     H 3350   8.585   9.578   4.362  1.8555 -1.1695 -0.5833
  783MOL0     H 3351   8.563   9.612   4.526  1.1445 -1.5327  1.2264
  783MOL0     H 3352   8.740   9.388   4.425  0.0995  2.6661 -1.6434
  783MOL0     H 3353   8.697   9.416   4.602 -1.5865  0.2974  1.5999
  783MOL0     H 3354   8.346   9.232   4.428  1.6791 -3.9750 -2.3496
  783MOL0     H 3355   8.615  10.017   4.123 -0.1983  0.5820 -1.7336
  783MOL0     H 3356   8.733  10.197   4.034 -0.3260 -0.5574  0.4395
  784MOL0     O 3357   9.390   6.467   5.272 -0.0777 -0.5401 -0.3064
  784MOL0     C 3358   9.487   6.441   5.204 -1.0881  1.2688  0.0435
  784MOL0     O 3359   9.576   6.340   5.241 -0.2584  0.1063  0.4560
  784MOL0     C 3360   9.571   6.279   5.374  0.6850  0.4199  0.4332
  784MOL0     C 3361   9.664   6.316   5.466  0.0297 -0.5472 -1.3300
  784MOL0     C 3362   9.668   6.257   5.595 -0.0272  0.4580  0.4282
  784MOL0     C 3363   9.576   6.158   5.626  0.1849  0.0649  0.2112
  784MOL0     O 3364   9.585   6.084   5.739  0.1561 -0.0911 -0.4506
  784MOL0     C 3365   9.513   6.143   5.853  0.1924 -0.2978  0.3453
  784MOL0     C 3366   9.429   6.049   5.932 -0.2242  0.6486  0.6221
  784MOL0     C 3367   9.382   6.116   6.069 -0.5603 -0.3485  0.4446
  784MOL0     C 3368   9.302   6.021   6.153  0.4537  0.1703 -1.1601
  784MOL0     C 3369   9.163   5.994   6.089  0.7105  0.2057  0.1767
  784MOL0     C 3370   9.081   6.119   6.133 -0.5803 -0.4147  0.8698
  784MOL0     C 3371   8.932   6.093   6.126 -0.0478  0.0638  0.0351
  784MOL0     C 3372   8.866   6.073   5.989 -0.5480  0.0189  0.3470
  784MOL0     N 3373   8.720   6.086   6.004  0.8224 -0.1657 -0.8508
  784MOL0     C 3374   8.658   6.194   6.047 -0.5751  0.7171  0.5381
  784MOL0     C 3375   8.529   6.164   6.039 -0.0938 -0.4595 -0.1277
  784MOL0     C 3376   8.433   6.272   6.040 -1.0079  0.3078 -0.0227
  784MOL0     C 3377   8.453   6.353   6.162  0.9140 -0.6519  0.1774
  784MOL0     C 3378   8.451   6.272   6.285 -0.8615 -0.1031  0.3424
  784MOL0     C 3379   8.518   6.330   6.411 -0.6265 -0.5406  0.8278
  784MOL0     O 3380   8.654   6.337   6.378 -1.1907  0.3548 -0.1660
  784MOL0     C 3381   8.739   6.248   6.435  0.3311  0.8240 -0.1251
  784MOL0     C 3382   8.706   6.114   6.462  0.1713 -0.2199  0.4795
  784MOL0     C 3383   8.804   6.023   6.499  0.4410 -0.6335 -0.5459
  784MOL0     C 3384   8.933   6.068   6.515 -0.2836 -0.9907  0.0242
  784MOL0     C 3385   9.041   5.983   6.542 -0.5197  0.4016  0.6448
  784MOL0     O 3386   9.025   5.855   6.503  0.2374  0.1713 -0.1201
  784MOL0     C 3387   9.127   5.761   6.544 -0.6809 -0.8856 -0.2059
  784MOL0     C 3388   9.262   5.765   6.495  0.7058 -0.1156 -0.9372
  784MOL0     C 3389   9.349   5.651   6.517  0.5150  0.2411 -0.0949
  784MOL0     C 3390   9.302   5.536   6.580 -0.3669 -0.2888 -0.3594
  784MOL0     O 3391   9.391   5.436   6.597 -0.1359 -0.0486  1.0987
  784MOL0     C 3392   9.379   5.331   6.690  1.2093  0.3146 -0.0662
  784MOL0     C 3393   9.488   5.216   6.683  0.0340  0.0680 -0.5737
  784MOL0     C 3394   9.632   5.263   6.676  0.0666 -0.0125  0.5370
  784MOL0     C 3395   9.681   5.303   6.819  0.2133  0.5449  0.1638
  784MOL0     C 3396   9.835   5.321   6.826  0.5248 -1.1288  0.7174
  784MOL0     C 3397   9.919   5.195   6.814  0.0019 -0.7342 -0.9444
  784MOL0     C 3398  10.070   5.220   6.754  0.7315 -0.0996 -0.5928
  784MOL0     C 3399  10.144   5.316   6.848 -0.1957 -0.1547 -1.3670
  784MOL0    Cl 3400  10.275   5.401   6.746  0.2515  0.1632  0.0978
  784MOL0     C 3401   9.174   5.537   6.643  0.1082 -0.6073  0.1085
  784MOL0     C 3402   9.096   5.653   6.625  0.9682 -0.1509 -0.0136
  784MOL0     O 3403   9.134   6.028   6.611  0.0390 -0.4831 -0.5135
  784MOL0     C 3404   8.971   6.200   6.481  0.2138 -0.3942 -1.3905
  784MOL0     C 3405   8.867   6.291   6.445 -0.6226  0.2612  0.7819
  784MOL0     N 3406   8.516   6.030   6.002  1.1243 -0.6454 -0.1028
  784MOL0     N 3407   8.634   5.988   6.015 -0.2474  0.6451  0.0894
  784MOL0     C 3408   9.455   6.141   5.547 -0.4034  0.3631  0.0100
  784MOL0     C 3409   9.463   6.193   5.413 -0.5022 -0.5557 -0.7437
  784MOL0     C 3410   9.490   6.497   5.074 -0.0664  0.6791  0.7312
  784MOL0     C 3411   9.386   6.584   5.021  0.8202  0.4528 -0.8816
  784MOL0     C 3412   9.412   6.654   4.900 -0.8803 -0.5603  0.8279
  784MOL0     C 3413   9.538   6.661   4.841  0.1613 -0.2256  0.6968
  784MOL0     O 3414   9.556   6.765   4.753  0.1881  0.5670 -0.4520
  784MOL0     C 3415   9.622   6.873   4.822  0.0879  0.4054 -0.7953
  784MOL0     C 3416   9.607   6.996   4.732 -0.0513 -1.0036 -0.5784
  784MOL0     C 3417   9.590   7.127   4.813 -0.3404  0.1153 -0.3768
  784MOL0     C 3418   9.730   7.171   4.868 -0.5696  0.6644 -0.3206
  784MOL0     C 3419   9.826   7.207   4.766 -0.4847 -0.0943  0.0705
  784MOL0     C 3420   9.912   7.222   4.680 -0.0500 -0.4772 -0.0991
  784MOL0     C 3421   9.629   6.579   4.897 -0.8334  0.0362  0.6987
  784MOL0     C 3422   9.610   6.493   5.010  0.1264  1.5007 -0.0190
  784MOL0     H 3423   9.746   6.385   5.445  1.3937 -1.2977  1.0948
  784MOL0     H 3424   9.742   6.274   5.673 -1.6382 -0.4714  2.2464
  784MOL0     H 3425   9.463   6.236   5.824  1.9437  1.1709  1.7762
  784MOL0     H 3426   9.595   6.175   5.917 -0.5509 -1.2983  1.8752
  784MOL0     H 3427   9.487   5.957   5.948 -2.6025 -0.8275  1.3009
  784MOL0     H 3428   9.340   6.028   5.873  1.3676  0.5928 -1.9374
  784MOL0     H 3429   9.339   6.215   6.054 -1.1442 -0.5961  0.4857
  784MOL0     H 3430   9.474   6.139   6.124 -0.1182 -0.3088 -0.2825
  784MOL0     H 3431   9.354   5.925   6.163  0.4039 -0.0818 -2.8850
  784MOL0     H 3432   9.287   6.058   6.254  0.5931 -1.8893 -0.3315
  784MOL0     H 3433   9.113   5.906   6.131  0.1992  0.3560 -0.1073
  784MOL0     H 3434   9.161   5.999   5.980 -0.4702  3.5776  0.2326
  784MOL0     H 3435   9.102   6.205   6.069  0.3937 -0.7143  0.7778
  784MOL0     H 3436   9.102   6.156   6.233 -0.3674 -5.0424  2.7999
  784MOL0     H 3437   8.898   6.005   6.181 -1.2478  0.3090 -0.2801
  784MOL0     H 3438   8.882   6.171   6.184 -0.9594  2.7645 -3.9525
  784MOL0     H 3439   8.889   5.989   5.922 -0.7104  1.3080 -1.4084
  784MOL0     H 3440   8.908   6.157   5.932  0.3673  0.0482  1.0619
  784MOL0     H 3441   8.691   6.297   6.056 -0.1624  0.4636  2.3913
  784MOL0     H 3442   8.331   6.239   6.020 -0.2823 -1.5161 -0.9946
  784MOL0     H 3443   8.460   6.320   5.945  3.0601  1.0592  1.3053
  784MOL0     H 3444   8.371   6.424   6.154 -0.6409 -2.5756 -2.3874
  784MOL0     H 3445   8.537   6.421   6.144 -1.1847  1.8308 -0.9003
  784MOL0     H 3446   8.348   6.277   6.321 -0.2481  1.2324  2.0180
  784MOL0     H 3447   8.488   6.169   6.274  4.8605  1.4582  1.7742
  784MOL0     H 3448   8.479   6.265   6.489 -1.1426 -2.9071 -1.2603
  784MOL0     H 3449   8.485   6.432   6.432 -2.2144 -0.7834 -0.2588
  784MOL0     H 3450   8.610   6.069   6.443  0.6602 -0.5254 -1.4866
  784MOL0     H 3451   8.781   5.919   6.514  2.7095 -1.2353 -0.8279
  784MOL0     H 3452   9.292   5.857   6.445 -1.3848  1.0216 -0.2380
  784MOL0     H 3453   9.449   5.638   6.479 -0.8760 -3.6550 -3.1803
  784MOL0     H 3454   9.289   5.274   6.665  1.5811 -0.0382 -0.6347
  784MOL0     H 3455   9.380   5.368   6.793  2.5730 -1.4187  0.5863
  784MOL0     H 3456   9.469   5.173   6.584  1.5530  1.7481 -1.6523
  784MOL0     H 3457   9.484   5.141   6.762  2.8526  1.0768  0.6676
  784MOL0     H 3458   9.657   5.327   6.591 -1.3147 -1.0375 -0.6947
  784MOL0     H 3459   9.682   5.168   6.654  1.0677  0.7944 -0.8163
  784MOL0     H 3460   9.649   5.402   6.856 -1.5119 -0.9754  3.1309
  784MOL0     H 3461   9.635   5.231   6.887 -0.1732 -2.2199 -2.8187
  784MOL0     H 3462   9.861   5.376   6.917  3.5141  3.2921 -2.4187
  784MOL0     H 3463   9.859   5.394   6.749 -0.7306 -1.4940 -0.0550
  784MOL0     H 3464   9.861   5.117   6.764 -3.3324  0.4777  0.7315
  784MOL0     H 3465   9.927   5.148   6.913 -2.1906 -1.0511 -0.8695
  784MOL0     H 3466  10.123   5.124   6.753 -1.2024 -1.2322  0.0449
  784MOL0     H 3467  10.060   5.259   6.652  2.5390  1.2297 -0.3087
  784MOL0     H 3468  10.188   5.247   6.919  0.9863  0.8651 -1.0632
  784MOL0     H 3469  10.084   5.384   6.909  1.3430 -2.6251  3.3593
  784MOL0     H 3470   9.132   5.457   6.703 -4.8107  1.2229 -0.4786
  784MOL0     H 3471   8.993   5.644   6.660  0.4856  3.0811 -0.2905
  784MOL0     H 3472   9.072   6.236   6.496  0.5948 -1.4246 -1.4459
  784MOL0     H 3473   8.888   6.395   6.422  1.7858 -0.4217 -0.3445
  784MOL0     H 3474   9.372   6.079   5.580 -0.9125  0.1135 -1.6519
  784MOL0     H 3475   9.379   6.172   5.347 -2.4546 -0.5147  1.5811
  784MOL0     H 3476   9.295   6.601   5.078 -1.6200  1.9268 -4.7953
  784MOL0     H 3477   9.345   6.725   4.852  2.4738  0.8541 -2.1403
  784MOL0     H 3478   9.726   6.843   4.832 -0.7588 -2.2673  0.8865
  784MOL0     H 3479   9.574   6.881   4.920 -1.1811 -0.3840 -1.3319
  784MOL0     H 3480   9.688   7.010   4.660 -0.4319  1.4124 -0.6243
  784MOL0     H 3481   9.510   6.997   4.682  0.8952  0.4006 -2.5414
  784MOL0     H 3482   9.532   7.100   4.901  1.3485 -3.4366 -0.1620
  784MOL0     H 3483   9.540   7.209   4.761 -3.5003  0.2652  2.5604
  784MOL0     H 3484   9.701   7.256   4.931 -1.9738  0.6533 -0.9330
  784MOL0     H 3485   9.770   7.103   4.944  0.0233  1.0660 -0.2598
  784MOL0     H 3486   9.986   7.243   4.605  0.8166  0.9343  1.0734
  784MOL0     H 3487   9.729   6.563   4.860  0.2047 -4.0339  4.3951
  784MOL0     H 3488   9.687   6.432   5.055 -0.1206  2.5618  1.9803
  785MOL0     O 3489   3.325   5.999   1.585 -0.3636  0.0699 -0.6887
  785MOL0     C 3490   3.225   6.065   1.556 -0.5105  0.0058  0.4707
  785MOL0     O 3491   3.181   6.179   1.618 -0.7229 -0.2379  0.1287
  785MOL0     C 3492   3.271   6.246   1.695  0.6828 -0.0009 -0.3968
  785MOL0     C 3493   3.356   6.203   1.799  0.0766  0.5903 -0.1621
  785MOL0     C 3494   3.438   6.292   1.860 -0.6504  0.0213 -0.4186
  785MOL0     C 3495   3.444   6.428   1.836  0.7959  0.6455  0.3010
  785MOL0     O 3496   3.540   6.497   1.900 -0.2573  0.5097  0.7975
  785MOL0     C 3497   3.551   6.485   2.041 -0.0512 -0.2446 -0.6521
  785MOL0     C 3498   3.621   6.602   2.120 -0.2073  0.2587  0.7237
  785MOL0     C 3499   3.651   6.546   2.258 -0.4307 -0.1276  0.2198
  785MOL0     C 3500   3.714   6.648   2.349 -1.4280  0.1097  0.3158
  785MOL0     C 3501   3.871   6.651   2.343 -0.4344 -0.1484  0.1222
  785MOL0     C 3502   3.943   6.755   2.427  0.2131 -0.0127  0.4241
  785MOL0     C 3503   4.095   6.752   2.392 -1.6867  0.2702 -0.6514
  785MOL0     C 3504   4.178   6.863   2.454  0.1751 -0.5382 -0.2968
  785MOL0     N 3505   4.173   6.977   2.360  0.0863 -0.1050  0.8726
  785MOL0     C 3506   4.251   6.999   2.246 -0.4981  0.3162 -0.2924
  785MOL0     C 3507   4.195   7.114   2.191 -0.7434 -0.3066  0.1851
  785MOL0     C 3508   4.245   7.179   2.067  0.7922 -0.7444  0.1823
  785MOL0     C 3509   4.151   7.153   1.949 -0.4781  0.9852 -0.5775
  785MOL0     C 3510   4.183   7.038   1.850  0.5035 -0.1013 -0.8237
  785MOL0     C 3511   4.077   7.015   1.742  0.2700  0.3922 -0.6287
  785MOL0     O 3512   4.054   7.138   1.678 -0.2053  0.0280 -0.2541
  785MOL0     C 3513   3.995   7.140   1.560  0.8163  0.5684  0.3153
  785MOL0     C 3514   3.914   7.028   1.519 -0.3436 -0.1884 -0.0483
  785MOL0     C 3515   3.834   7.034   1.415  0.6909 -0.6214 -0.0911
  785MOL0     C 3516   3.825   7.150   1.333  0.6280 -0.1259 -0.8067
  785MOL0     C 3517   3.737   7.154   1.212  0.5662  0.6639  0.9496
  785MOL0     O 3518   3.702   7.035   1.153 -0.2657  0.1605 -0.8251
  785MOL0     C 3519   3.644   7.034   1.021  0.1073 -0.1514 -0.3214
  785MOL0     C 3520   3.700   6.944   0.928  0.4793 -0.4780 -0.2453
  785MOL0     C 3521   3.635   6.930   0.807 -1.0303 -0.1392 -0.0331
  785MOL0     C 3522   3.521   6.987   0.784  0.9327  0.3985  0.6476
  785MOL0     O 3523   3.442   6.966   0.666  1.2761  0.0105  0.0218
  785MOL0     C 3524   3.445   6.841   0.596  0.0181 -0.4862 -0.2088
  785MOL0     C 3525   3.388   6.721   0.676  0.5852 -0.3445 -0.5794
  785MOL0     C 3526   3.382   6.589   0.594 -0.1334  0.1268  0.5293
  785MOL0     C 3527   3.521   6.516   0.579 -0.0001  0.2756  0.3521
  785MOL0     C 3528   3.491   6.365   0.548 -0.4204 -1.0247  0.4347
  785MOL0     C 3529   3.558   6.318   0.428  0.1479 -0.0717  0.0464
  785MOL0     C 3530   3.563   6.168   0.430 -1.1699  0.1179  0.6533
  785MOL0     C 3531   3.642   6.133   0.300 -1.1346 -0.9936  0.1150
  785MOL0    Cl 3532   3.819   6.170   0.321 -0.5073 -0.1251 -0.2693
  785MOL0     C 3533   3.477   7.088   0.865 -0.8782  1.1949 -0.0902
  785MOL0     C 3534   3.533   7.111   0.990  1.2841  0.2346  0.2722
  785MOL0     O 3535   3.707   7.260   1.166 -0.0181 -0.3784  0.0794
  785MOL0     C 3536   3.907   7.261   1.364 -0.1394  0.0742  0.5065
  785MOL0     C 3537   3.982   7.257   1.487 -0.1117  0.0846  0.4944
  785MOL0     N 3538   4.097   7.155   2.270  0.2287  0.3071  0.3677
  785MOL0     N 3539   4.075   7.075   2.367 -0.5845  0.6950  0.5769
  785MOL0     C 3540   3.357   6.473   1.734 -0.6881 -0.6324 -0.4830
  785MOL0     C 3541   3.274   6.380   1.671  0.2351 -0.5066  0.1939
  785MOL0     C 3542   3.137   6.008   1.454 -0.1929 -0.2943  1.0737
  785MOL0     C 3543   3.174   5.886   1.398 -0.1490  0.5650  1.0177
  785MOL0     C 3544   3.095   5.834   1.300 -0.6593 -0.2871  0.0374
  785MOL0     C 3545   2.992   5.901   1.241  0.6970  0.5300 -0.5450
  785MOL0     O 3546   2.908   5.841   1.149 -0.8418 -0.3838  0.1432
  785MOL0     C 3547   2.783   5.900   1.111 -0.2900  0.2944  0.5984
  785MOL0     C 3548   2.690   5.798   1.040 -0.7867  0.0199  0.2291
  785MOL0     C 3549   2.735   5.769   0.889  0.2555  0.0257  0.0676
  785MOL0     C 3550   2.657   5.642   0.849 -0.7371  0.1901  0.6006
  785MOL0     C 3551   2.693   5.607   0.715  1.0169  0.3660 -0.5745
  785MOL0     C 3552   2.735   5.604   0.602  0.4338  0.2599  0.3728
  785MOL0     C 3553   2.956   6.027   1.292 -0.0664 -0.1704  0.0196
  785MOL0     C 3554   3.029   6.078   1.403  0.7024  0.9826  0.8296
  785MOL0     H 3555   3.337   6.099   1.824  0.5250  0.7892  1.0641
  785MOL0     H 3556   3.508   6.254   1.933 -3.1736 -0.9213  1.6713
  785MOL0     H 3557   3.593   6.391   2.075  1.4830  1.0903  1.3644
  785MOL0     H 3558   3.450   6.497   2.083 -0.4713  2.9933 -2.2410
  785MOL0     H 3559   3.558   6.691   2.130 -1.6675 -0.8163  1.5457
  785MOL0     H 3560   3.708   6.632   2.061 -2.2796 -0.6750 -3.2077
  785MOL0     H 3561   3.721   6.461   2.256  1.6242  1.4841 -1.8447
  785MOL0     H 3562   3.556   6.507   2.295 -1.7848  0.3558 -2.4650
  785MOL0     H 3563   3.662   6.738   2.316 -3.2168 -0.7548  0.6370
  785MOL0     H 3564   3.691   6.614   2.450  3.7119 -1.0538  1.4144
  785MOL0     H 3565   3.903   6.661   2.239  0.4321 -0.1615  0.3802
  785MOL0     H 3566   3.913   6.557   2.379  0.2969  0.8660  2.0389
  785MOL0     H 3567   3.919   6.750   2.534 -1.5612  0.6717  0.1019
  785MOL0     H 3568   3.919   6.851   2.380 -1.9937  0.2644  1.9333
  785MOL0     H 3569   4.139   6.661   2.434 -1.6736  0.3396 -0.5154
  785MOL0     H 3570   4.103   6.749   2.283 -0.4418 -0.7888 -0.5565
  785MOL0     H 3571   4.281   6.828   2.470  0.0035 -0.5526  0.8063
  785MOL0     H 3572   4.145   6.900   2.551  0.4641  1.7390 -1.0124
  785MOL0     H 3573   4.335   6.938   2.215 -0.7794  0.2304 -0.9086
  785MOL0     H 3574   4.346   7.148   2.040  0.7355  1.3548 -2.9219
  785MOL0     H 3575   4.240   7.287   2.080 -0.3813 -1.0032  2.3891
  785MOL0     H 3576   4.145   7.241   1.884  0.0025 -1.1450 -3.6911
  785MOL0     H 3577   4.052   7.140   1.995  0.2997 -1.0325  0.6735
  785MOL0     H 3578   4.282   7.054   1.807  0.7412 -2.4799 -1.3338
  785MOL0     H 3579   4.190   6.944   1.906 -1.3371 -1.4611 -2.7266
  785MOL0     H 3580   3.985   6.979   1.789 -0.0389 -0.8124 -2.0723
  785MOL0     H 3581   4.118   6.948   1.665 -2.7627  0.5204 -2.5063
  785MOL0     H 3582   3.914   6.932   1.568 -0.9200  0.4121  1.1738
  785MOL0     H 3583   3.790   6.936   1.399  0.2018 -1.0758  3.1993
  785MOL0     H 3584   3.791   6.888   0.945 -0.3836 -2.4744 -1.7511
  785MOL0     H 3585   3.683   6.851   0.750  1.4278  0.7230  0.7191
  785MOL0     H 3586   3.547   6.839   0.557  0.5127  0.7692  0.9659
  785MOL0     H 3587   3.380   6.851   0.509 -1.6936  0.2753  1.1041
  785MOL0     H 3588   3.291   6.746   0.719  0.9320  0.1767 -0.0713
  785MOL0     H 3589   3.453   6.711   0.763 -1.7357 -1.1517  1.1582
  785MOL0     H 3590   3.352   6.619   0.493 -2.0349 -0.1645  0.9581
  785MOL0     H 3591   3.306   6.533   0.649  1.3278  0.2157  2.7793
  785MOL0     H 3592   3.579   6.563   0.500 -1.3808  0.6705 -0.4611
  785MOL0     H 3593   3.572   6.511   0.676 -2.2963  0.0071  1.6358
  785MOL0     H 3594   3.383   6.349   0.540 -0.3705 -0.8505 -0.8981
  785MOL0     H 3595   3.527   6.307   0.633 -1.3736 -3.6156 -0.8402
  785MOL0     H 3596   3.658   6.359   0.411 -0.8408  1.4948 -2.7044
  785MOL0     H 3597   3.493   6.344   0.344  1.8964 -1.0440 -1.6953
  785MOL0     H 3598   3.624   6.132   0.514 -3.4587 -0.3157  2.2160
  785MOL0     H 3599   3.469   6.113   0.428  0.4192 -2.8607 -2.6772
  785MOL0     H 3600   3.607   6.185   0.210 -3.6725  0.2022  1.6717
  785MOL0     H 3601   3.626   6.027   0.279 -2.0726 -1.3180  2.2234
  785MOL0     H 3602   3.400   7.156   0.831 -2.1590  2.0959  4.0861
  785MOL0     H 3603   3.504   7.202   1.041 -0.0504  1.5236 -2.5451
  785MOL0     H 3604   3.907   7.358   1.315  0.6757  0.7649  1.7929
  785MOL0     H 3605   4.027   7.349   1.524  1.9142  1.4223 -4.4445
  785MOL0     H 3606   3.364   6.579   1.712  3.6407  0.4700  4.2199
  785MOL0     H 3607   3.210   6.412   1.589 -0.2710 -3.6173 -0.7568
  785MOL0     H 3608   3.268   5.835   1.419  0.1940  0.4240 -0.6964
  785MOL0     H 3609   3.110   5.733   1.263 -1.9417 -1.6153  2.8559
  785MOL0     H 3610   2.796   5.990   1.050  0.3050 -1.4534 -2.0135
  785MOL0     H 3611   2.723   5.928   1.198  0.2997 -1.8431  1.7441
  785MOL0     H 3612   2.694   5.703   1.093  1.1033 -0.3445 -0.4639
  785MOL0     H 3613   2.583   5.820   1.040 -0.4944  2.4411  4.3139
  785MOL0     H 3614   2.842   5.747   0.882  0.8953  1.4563  3.6556
  785MOL0     H 3615   2.722   5.846   0.813 -0.0423  1.3533  1.4248
  785MOL0     H 3616   2.700   5.554   0.897 -2.3573 -1.3221 -0.6160
  785MOL0     H 3617   2.550   5.654   0.868 -0.7722  1.7684 -0.4117
  785MOL0     H 3618   2.776   5.611   0.503 -2.2995 -0.2875 -0.8741
  785MOL0     H 3619   2.886   6.097   1.249  2.5928  0.3873 -3.9450
  785MOL0     H 3620   3.002   6.169   1.455 -2.2253  0.0693  1.0564
  786MOL0     O 3621   2.012   1.054   1.373  0.2751  0.4841 -0.3693
  786MOL0     C 3622   2.115   0.981   1.353  0.2302 -0.5784 -0.0626
  786MOL0     O 3623   2.174   0.946   1.236  0.0938 -0.7952  0.1940
  786MOL0     C 3624   2.100   0.981   1.123  0.3639 -0.2711 -0.3632
  786MOL0     C 3625   2.156   1.057   1.021  0.4274 -0.6988  0.5815
  786MOL0     C 3626   2.088   1.078   0.902  0.0390  0.1050  0.3510
  786MOL0     C 3627   1.953   1.032   0.881  0.4081  0.6124  0.1547
  786MOL0     O 3628   1.894   1.053   0.762  0.5105 -0.7062  0.4974
  786MOL0     C 3629   1.761   0.999   0.730 -0.4857  0.4351  0.7502
  786MOL0     C 3630   1.707   1.028   0.582 -0.0825 -0.1754 -0.8697
  786MOL0     C 3631   1.814   0.993   0.477  0.0426  0.8003 -0.2097
  786MOL0     C 3632   1.780   1.058   0.335 -0.7904 -0.1369  0.0569
  786MOL0     C 3633   1.665   0.992   0.255 -0.0499  0.4686  0.0042
  786MOL0     C 3634   1.706   0.971   0.111 -0.0837 -0.1942  0.4326
  786MOL0     C 3635   1.776   0.836   0.094  0.5438 -0.8782  0.5176
  786MOL0     C 3636   1.825   0.819  -0.049  0.4077 -0.1491  0.5057
  786MOL0     N 3637   1.849   0.671  -0.066  0.2280 -0.5470 -0.1087
  786MOL0     C 3638   1.762   0.570  -0.091 -0.1901  0.5525  0.2260
  786MOL0     C 3639   1.833   0.458  -0.095 -0.4727 -0.1155 -0.1746
  786MOL0     C 3640   1.787   0.318  -0.112  0.5833  0.3281  0.1762
  786MOL0     C 3641   1.883   0.236  -0.203  0.4760 -0.7281  0.6443
  786MOL0     C 3642   1.831   0.092  -0.232 -0.4238 -0.0222 -0.9058
  786MOL0     C 3643   1.900   0.032  -0.361 -0.5381 -0.0350 -0.3600
  786MOL0     O 3644   1.867   0.106  -0.476 -0.3284  0.6107  0.3198
  786MOL0     C 3645   1.948   0.085  -0.586  0.8697  0.0386  1.0983
  786MOL0     C 3646   2.051   0.001  -0.618  0.2346  0.2622  0.3306
  786MOL0     C 3647   2.132   0.024  -0.722 -0.4446  0.1138  0.4331
  786MOL0     C 3648   2.118   0.136  -0.816  0.6703 -0.0119 -0.0780
  786MOL0     C 3649   2.214   0.167  -0.928  0.5011  0.3318  0.7129
  786MOL0     O 3650   2.332   0.098  -0.928  0.1401 -0.1771  0.0910
  786MOL0     C 3651   2.401   0.103  -1.046 -0.7759  0.5142 -1.3109
  786MOL0     C 3652   2.422  -0.016  -1.113  0.5775 -0.2862 -0.1135
  786MOL0     C 3653   2.503  -0.033  -1.227  0.6821 -0.4009 -0.2291
  786MOL0     C 3654   2.553   0.077  -1.288 -0.2242  0.1591 -0.0879
  786MOL0     O 3655   2.632   0.063  -1.399 -0.1801  0.2884 -0.2117
  786MOL0     C 3656   2.732   0.166  -1.414  0.6248  0.5665 -0.4488
  786MOL0     C 3657   2.782   0.175  -1.565 -0.7534  0.1662 -0.6688
  786MOL0     C 3658   2.824   0.043  -1.641 -0.4227  0.3371 -1.0404
  786MOL0     C 3659   2.889   0.080  -1.771  0.2223 -0.3578  0.0946
  786MOL0     C 3660   2.928  -0.040  -1.850  0.2123  0.1298 -0.2096
  786MOL0     C 3661   2.949  -0.016  -1.992  0.5536  0.0261 -0.0781
  786MOL0     C 3662   3.069   0.071  -2.040  0.0713  0.3380 -0.6530
  786MOL0     C 3663   3.103   0.016  -2.173  0.1221  0.0703 -0.2111
  786MOL0    Cl 3664   2.964  -0.011  -2.287 -0.3387  0.0227  0.1294
  786MOL0     C 3665   2.517   0.200  -1.235 -0.5016 -0.2376 -0.8181
  786MOL0     C 3666   2.452   0.213  -1.111 -0.1414 -1.1453 -0.4862
  786MOL0     O 3667   2.161   0.220  -1.027 -0.5944 -0.5508  0.0974
  786MOL0     C 3668   2.000   0.207  -0.797 -0.7363 -0.9034  0.6280
  786MOL0     C 3669   1.924   0.188  -0.680 -0.7997  0.1904  0.5570
  786MOL0     N 3670   1.966   0.493  -0.077 -0.2549  0.4929  0.0695
  786MOL0     N 3671   1.977   0.624  -0.064  0.7987  0.1089  0.5263
  786MOL0     C 3672   1.889   0.966   0.990 -1.8419  0.4029  0.4638
  786MOL0     C 3673   1.964   0.934   1.103 -0.5643  0.3579  0.5617
  786MOL0     C 3674   2.195   0.934   1.477 -0.3556 -0.6676  0.2633
  786MOL0     C 3675   2.304   0.846   1.477  0.5622  0.3847 -0.6234
  786MOL0     C 3676   2.366   0.816   1.598 -0.1134  0.7415 -0.9132
  786MOL0     C 3677   2.324   0.865   1.717  0.5436 -0.5482 -0.2511
  786MOL0     O 3678   2.370   0.837   1.847  0.0769  0.1658  0.1010
  786MOL0     C 3679   2.445   0.721   1.882 -0.0440 -0.2213 -0.3757
  786MOL0     C 3680   2.368   0.586   1.873 -0.3182 -0.1781  0.3256
  786MOL0     C 3681   2.230   0.584   1.929  0.0010  0.3279 -0.5286
  786MOL0     C 3682   2.148   0.456   1.908  0.1653 -1.0798  0.0043
  786MOL0     C 3683   2.006   0.495   1.921  0.2301  0.4053  0.3112
  786MOL0     C 3684   1.886   0.513   1.926  0.0705  0.4641  0.3064
  786MOL0     C 3685   2.212   0.947   1.710  0.7016 -0.0067 -0.1838
  786MOL0     C 3686   2.141   0.989   1.591 -0.7859  1.0930 -0.7527
  786MOL0     H 3687   2.260   1.087   1.015  1.0863 -2.5528  2.0000
  786MOL0     H 3688   2.142   1.128   0.823 -1.2134 -1.9606 -1.9478
  786MOL0     H 3689   1.679   1.032   0.795  0.4003 -2.9447  3.9631
  786MOL0     H 3690   1.754   0.891   0.750  2.0457  0.1337  0.3628
  786MOL0     H 3691   1.672   1.131   0.574 -0.0252  0.2198  2.5733
  786MOL0     H 3692   1.617   0.967   0.566 -1.2832  0.6441  2.0221
  786MOL0     H 3693   1.811   0.885   0.461  0.6239  0.7217  0.1536
  786MOL0     H 3694   1.917   1.023   0.498 -0.0091 -0.0001  1.3365
  786MOL0     H 3695   1.761   1.163   0.361 -0.0672 -0.7505  3.5703
  786MOL0     H 3696   1.875   1.055   0.281  0.1532  0.1116  1.6244
  786MOL0     H 3697   1.587   1.068   0.263  0.8664  1.3403  1.1072
  786MOL0     H 3698   1.634   0.894   0.294 -1.6071  1.2325  0.7912
  786MOL0     H 3699   1.772   1.054   0.083 -1.7796  2.7369  4.1349
  786MOL0     H 3700   1.615   0.970   0.051 -0.3197 -3.5113  0.6811
  786MOL0     H 3701   1.868   0.831   0.153  1.7067  1.5449 -0.9103
  786MOL0     H 3702   1.694   0.772   0.126 -1.2999  1.0247 -0.1369
  786MOL0     H 3703   1.915   0.881  -0.052 -1.5375  2.9667  1.4355
  786MOL0     H 3704   1.760   0.867  -0.123  2.0370  1.2415 -0.0869
  786MOL0     H 3705   1.654   0.582  -0.102 -0.5696 -1.6694  1.0626
  786MOL0     H 3706   1.689   0.315  -0.160  0.1037  0.0205  1.1644
  786MOL0     H 3707   1.794   0.274  -0.012 -0.1513  2.0942  1.0540
  786MOL0     H 3708   1.987   0.219  -0.173  0.2522 -3.6210  0.0744
  786MOL0     H 3709   1.890   0.288  -0.299 -2.1830  2.2263  1.8719
  786MOL0     H 3710   1.845   0.028  -0.145  3.8272  0.3921 -1.1022
  786MOL0     H 3711   1.727   0.115  -0.259 -0.4802  1.5685  0.4766
  786MOL0     H 3712   1.861  -0.066  -0.390  1.9994 -1.7527  1.6086
  786MOL0     H 3713   2.009   0.035  -0.350 -0.7467  2.1062  2.0175
  786MOL0     H 3714   2.067  -0.069  -0.537 -0.0600 -1.7721 -1.2467
  786MOL0     H 3715   2.220  -0.037  -0.741 -0.5558 -0.5883  1.9749
  786MOL0     H 3716   2.377  -0.107  -1.074 -3.3410  2.4724  2.5365
  786MOL0     H 3717   2.528  -0.133  -1.260  2.3681  0.8874 -3.2229
  786MOL0     H 3718   2.815   0.153  -1.343  2.4242  0.4907 -2.4815
  786MOL0     H 3719   2.701   0.269  -1.397  1.0285  0.6018  0.1069
  786MOL0     H 3720   2.869   0.241  -1.557  0.8818 -1.8941 -0.4508
  786MOL0     H 3721   2.708   0.231  -1.621 -0.6346  2.7917  1.5690
  786MOL0     H 3722   2.733  -0.015  -1.656  0.0679 -0.9976  0.7920
  786MOL0     H 3723   2.901  -0.018  -1.591 -0.3664  2.0297  1.1150
  786MOL0     H 3724   2.808   0.134  -1.820  1.6612  2.8508  1.0068
  786MOL0     H 3725   2.973   0.148  -1.760  1.0434 -1.5740  1.7880
  786MOL0     H 3726   2.853  -0.118  -1.837 -1.4403  1.2395 -2.3377
  786MOL0     H 3727   3.018  -0.086  -1.808 -0.8608 -3.0951 -1.1704
  786MOL0     H 3728   2.860   0.026  -2.040 -0.0468 -2.5104 -1.4228
  786MOL0     H 3729   2.954  -0.120  -2.026 -2.5306 -0.3363  0.3009
  786MOL0     H 3730   3.049   0.178  -2.047 -0.1094  0.2312 -2.0679
  786MOL0     H 3731   3.151   0.062  -1.968 -1.8300 -0.4469  1.5483
  786MOL0     H 3732   3.144  -0.086  -2.170 -2.6543 -1.2579 -2.2425
  786MOL0     H 3733   3.177   0.080  -2.222  1.9902 -0.4751  1.7457
  786MOL0     H 3734   2.546   0.299  -1.269  0.5568 -0.3203 -0.1917
  786MOL0     H 3735   2.451   0.309  -1.059  3.0024  0.2293 -2.6110
  786MOL0     H 3736   1.971   0.298  -0.849  3.9113  0.7195  0.4108
  786MOL0     H 3737   1.848   0.260  -0.653 -1.9195 -0.7767  0.0711
  786MOL0     H 3738   1.788   0.927   0.991 -2.4028  1.6698 -1.2882
  786MOL0     H 3739   1.919   0.874   1.181 -0.9899  2.5437  2.1125
  786MOL0     H 3740   2.349   0.806   1.387  0.3654 -2.3844  0.3942
  786MOL0     H 3741   2.453   0.754   1.581  2.0088  3.4405 -0.6455
  786MOL0     H 3742   2.484   0.739   1.982 -4.0232  1.5415  1.0382
  786MOL0     H 3743   2.529   0.705   1.813 -0.2840 -0.2887 -0.6579
  786MOL0     H 3744   2.361   0.572   1.765  2.1761 -1.7392  0.2818
  786MOL0     H 3745   2.431   0.506   1.914 -1.7946 -1.7333 -0.3381
  786MOL0     H 3746   2.181   0.667   1.877 -0.6443 -0.2911 -0.9272
  786MOL0     H 3747   2.235   0.606   2.036 -2.1534  1.3073 -0.5805
  786MOL0     H 3748   2.156   0.422   1.804 -0.3009  0.7321 -0.6638
  786MOL0     H 3749   2.176   0.373   1.974  0.8106  0.4417  1.6984
  786MOL0     H 3750   1.779   0.516   1.940 -0.1336  0.7718 -1.2012
  786MOL0     H 3751   2.177   0.983   1.807 -2.3374 -0.3134 -1.0631
  786MOL0     H 3752   2.054   1.054   1.593 -0.3239  1.7163 -0.5163
  787MOL0     O 3753   0.881   0.024   9.785 -0.2095 -0.0272  0.1052
  787MOL0     C 3754   0.943   0.053   9.684  0.0850  0.4255  0.1642
  787MOL0     O 3755   1.041   0.158   9.678  0.0572  0.1660  0.3346
  787MOL0     C 3756   1.055   0.239   9.780  0.5940 -0.3012 -0.3518
  787MOL0     C 3757   0.977   0.344   9.808  0.8481 -0.6976 -0.0745
  787MOL0     C 3758   1.009   0.426   9.919  0.2169 -0.3023 -0.4863
  787MOL0     C 3759   1.121   0.407   9.998 -0.2889  0.3839  0.8466
  787MOL0     O 3760   1.125   0.495  10.097 -0.0348  0.6343  0.0313
  787MOL0     C 3761   1.260   0.542  10.124  0.0703 -0.2103  0.3341
  787MOL0     C 3762   1.239   0.667  10.213  0.5774 -0.5067 -0.7401
  787MOL0     C 3763   1.316   0.785  10.161 -0.1716  1.0354  0.1827
  787MOL0     C 3764   1.301   0.905  10.251  0.8983  1.2033  0.1317
  787MOL0     C 3765   1.201   1.008  10.205 -0.0097  0.0686  0.5726
  787MOL0     C 3766   1.251   1.144  10.247 -0.5112 -0.3526 -0.3775
  787MOL0     C 3767   1.135   1.256  10.263 -0.2956  1.2731  0.4830
  787MOL0     C 3768   1.195   1.388  10.235 -0.5017 -0.8851 -0.5030
  787MOL0     N 3769   1.089   1.499  10.246 -0.2819 -0.5033  0.5985
  787MOL0     C 3770   1.027   1.533  10.365 -0.0508  0.3046  0.5683
  787MOL0     C 3771   0.908   1.585  10.333  0.8676  0.4899  1.3798
  787MOL0     C 3772   0.803   1.636  10.419  0.0499  0.1166 -0.2590
  787MOL0     C 3773   0.695   1.524  10.415 -0.4828 -0.1333  0.8727
  787MOL0     C 3774   0.724   1.385  10.482 -0.4362  0.4909 -0.0696
  787MOL0     C 3775   0.705   1.394  10.636  1.4459  0.2301 -0.1125
  787MOL0     O 3776   0.779   1.288  10.696  0.6105 -0.1383 -0.4146
  787MOL0     C 3777   0.759   1.268  10.831 -0.9368 -0.5016  0.5038
  787MOL0     C 3778   0.818   1.155  10.879 -0.5917 -0.9958 -0.5570
  787MOL0     C 3779   0.834   1.124  11.014 -0.7379  0.1649 -0.0123
  787MOL0     C 3780   0.776   1.202  11.104 -0.6984 -0.5268  0.8412
  787MOL0     C 3781   0.781   1.166  11.250 -0.1001 -0.5253  0.1706
  787MOL0     O 3782   0.850   1.050  11.286  0.6436 -0.2158  0.9490
  787MOL0     C 3783   0.855   1.012  11.416 -0.0544 -0.3939  0.4812
  787MOL0     C 3784   0.907   1.087  11.523  0.7494 -0.4514 -0.5462
  787MOL0     C 3785   0.908   1.040  11.654 -0.0600  0.8553  0.1186
  787MOL0     C 3786   0.851   0.915  11.687 -0.3824 -0.0375  0.2150
  787MOL0     O 3787   0.858   0.879  11.825  0.4780  0.1637 -0.0266
  787MOL0     C 3788   0.786   0.753  11.856  0.9691 -0.0028 -0.0478
  787MOL0     C 3789   0.804   0.706  11.996  0.0682  0.8469  1.2041
  787MOL0     C 3790   0.687   0.758  12.080  0.0411 -0.0762  0.1606
  787MOL0     C 3791   0.724   0.745  12.223  0.0636  0.4226 -0.2339
  787MOL0     C 3792   0.590   0.740  12.294  0.7091  0.2687 -0.0778
  787MOL0     C 3793   0.591   0.745  12.450 -0.0442  0.4206 -0.3385
  787MOL0     C 3794   0.451   0.734  12.514 -0.1451 -0.5319  0.4554
  787MOL0     C 3795   0.413   0.587  12.544 -0.3590 -0.3607  0.0997
  787MOL0    Cl 3796   0.513   0.533  12.671 -0.3648 -0.0002 -0.6113
  787MOL0     C 3797   0.796   0.837  11.587  0.9803 -0.3213  0.5976
  787MOL0     C 3798   0.812   0.881  11.454  0.8632 -0.5183  0.3139
  787MOL0     O 3799   0.713   1.238  11.321 -0.3390 -0.3104 -0.5085
  787MOL0     C 3800   0.707   1.321  11.061  0.4400  0.3898 -0.0786
  787MOL0     C 3801   0.707   1.358  10.925 -0.1407 -0.0752 -0.1585
  787MOL0     N 3802   0.904   1.594  10.193 -0.0788  0.0256 -0.1624
  787MOL0     N 3803   1.010   1.537  10.144  0.5034  0.0149 -0.1301
  787MOL0     C 3804   1.200   0.307   9.973 -0.1902  1.1922  1.0175
  787MOL0     C 3805   1.164   0.217   9.870 -0.2022 -0.2530 -0.8685
  787MOL0     C 3806   0.913  -0.016   9.553 -0.0443  0.0497 -0.2051
  787MOL0     C 3807   0.853  -0.144   9.552 -0.1787  0.3444  0.8133
  787MOL0     C 3808   0.823  -0.212   9.435  1.0551  0.1495  0.7421
  787MOL0     C 3809   0.858  -0.156   9.314  0.8119  0.0226 -0.5432
  787MOL0     O 3810   0.828  -0.240   9.209  0.0643  0.2342  1.0818
  787MOL0     C 3811   0.911  -0.240   9.085  0.4088 -0.2952 -0.4115
  787MOL0     C 3812   0.880  -0.354   8.988 -1.3715  0.2398  0.4067
  787MOL0     C 3813   0.980  -0.349   8.876 -0.8452 -0.3917  0.7316
  787MOL0     C 3814   0.900  -0.335   8.743 -0.5816 -0.0911  0.1108
  787MOL0     C 3815   0.969  -0.320   8.611  0.5114 -0.4071 -0.7901
  787MOL0     C 3816   1.015  -0.335   8.499 -0.7740 -0.5225  0.1303
  787MOL0     C 3817   0.917  -0.032   9.307 -0.3594 -0.2463  0.1669
  787MOL0     C 3818   0.946   0.038   9.426  0.3210 -0.6764  1.0294
  787MOL0     H 3819   0.901   0.369   9.736 -0.0665 -0.5644  0.9057
  787MOL0     H 3820   0.944   0.507   9.951 -0.7209 -0.6123 -1.5252
  787MOL0     H 3821   1.316   0.576  10.036 -0.7067 -0.8241 -0.4118
  787MOL0     H 3822   1.322   0.474  10.183  0.3515 -1.5967 -1.5015
  787MOL0     H 3823   1.285   0.642  10.310  2.1019  4.1460 -0.0078
  787MOL0     H 3824   1.131   0.676  10.223  0.6883 -0.0416  0.1500
  787MOL0     H 3825   1.292   0.809  10.056 -1.0433 -2.6857 -0.6014
  787MOL0     H 3826   1.424   0.768  10.157 -0.6912 -2.8251 -1.9512
  787MOL0     H 3827   1.278   0.871  10.352  1.4295  3.1040  0.9213
  787MOL0     H 3828   1.394   0.962  10.261  0.2571  2.2762  0.1410
  787MOL0     H 3829   1.096   0.991  10.232 -0.1567  2.3477  1.6722
  787MOL0     H 3830   1.202   1.005  10.096  2.1825  0.5817  0.5335
  787MOL0     H 3831   1.329   1.171  10.175 -0.0718 -1.9924 -0.5402
  787MOL0     H 3832   1.299   1.129  10.343  0.0861 -0.1024 -0.6327
  787MOL0     H 3833   1.053   1.234  10.194 -0.9326  3.9787  0.2317
  787MOL0     H 3834   1.093   1.253  10.364  0.0698 -0.3511  0.5988
  787MOL0     H 3835   1.240   1.386  10.135 -1.6232  0.9327 -1.0955
  787MOL0     H 3836   1.278   1.407  10.303  0.3024  0.4246 -1.7798
  787MOL0     H 3837   1.075   1.521  10.462  1.2666  0.9664  0.0340
  787MOL0     H 3838   0.753   1.723  10.377 -0.2481  0.9460  1.7222
  787MOL0     H 3839   0.833   1.663  10.520  0.6664  0.5602 -0.5579
  787MOL0     H 3840   0.671   1.505  10.310  3.7880 -1.4042 -0.1123
  787MOL0     H 3841   0.607   1.562  10.467 -0.4271  0.0115  0.8619
  787MOL0     H 3842   0.664   1.302  10.445 -0.8676  0.4102  0.7780
  787MOL0     H 3843   0.829   1.364  10.460 -0.1464  2.1637 -0.3942
  787MOL0     H 3844   0.603   1.390  10.676  1.7494  1.9276  0.9825
  787MOL0     H 3845   0.743   1.494  10.661  1.8847  1.0598 -3.6279
  787MOL0     H 3846   0.868   1.084  10.813  2.5472 -0.0260  0.5892
  787MOL0     H 3847   0.900   1.045  11.050 -1.9248 -0.8348  0.0517
  787MOL0     H 3848   0.949   1.185  11.503  1.1889 -0.8842 -1.9024
  787MOL0     H 3849   0.957   1.092  11.736 -1.0388 -2.0764  2.7978
  787MOL0     H 3850   0.825   0.668  11.799  1.7550 -0.2209  0.7907
  787MOL0     H 3851   0.682   0.746  11.822  0.6459 -0.6178  1.0081
  787MOL0     H 3852   0.904   0.741  12.022  0.4971  1.1124 -0.6754
  787MOL0     H 3853   0.798   0.598  12.005 -0.1587  0.6862 -0.4676
  787MOL0     H 3854   0.594   0.712  12.045  0.1841 -0.0781 -0.2195
  787MOL0     H 3855   0.698   0.865  12.059  0.8161 -0.4637 -1.6027
  787MOL0     H 3856   0.794   0.663  12.245 -0.0625  0.6716  1.2393
  787MOL0     H 3857   0.770   0.842  12.245 -3.0751  1.8966  0.3632
  787MOL0     H 3858   0.547   0.647  12.256  3.5090 -2.1787  2.3325
  787MOL0     H 3859   0.532   0.829  12.269  1.3282  1.0308  1.1269
  787MOL0     H 3860   0.634   0.843  12.472 -2.3010  1.3518  0.2301
  787MOL0     H 3861   0.650   0.661  12.487 -0.2377  0.3731 -0.1331
  787MOL0     H 3862   0.458   0.785  12.610  0.4068  0.9757 -0.3488
  787MOL0     H 3863   0.376   0.777  12.448 -0.4695 -2.0579 -0.2179
  787MOL0     H 3864   0.416   0.529  12.451  0.1198  3.0516 -2.2057
  787MOL0     H 3865   0.313   0.595  12.587 -0.0636  1.5265  0.5403
  787MOL0     H 3866   0.761   0.735  11.590  0.8147 -0.2995 -0.2105
  787MOL0     H 3867   0.795   0.811  11.373  2.0998  2.1706 -2.4515
  787MOL0     H 3868   0.661   1.384  11.136  1.5418 -0.7170  1.6023
  787MOL0     H 3869   0.665   1.456  10.904 -1.1616 -0.8448 -1.9323
  787MOL0     H 3870   1.293   0.294  10.027 -0.2488 -3.0780  0.4283
  787MOL0     H 3871   1.235   0.139   9.846 -1.1431 -2.1904  2.0493
  787MOL0     H 3872   0.821  -0.185   9.647 -2.8122  3.0111  1.2237
  787MOL0     H 3873   0.772  -0.307   9.434  1.5124 -0.1139 -1.1924
  787MOL0     H 3874   1.017  -0.258   9.106  0.4754  2.8000  3.0678
  787MOL0     H 3875   0.898  -0.147   9.028  0.6700 -0.8298 -1.3553
  787MOL0     H 3876   0.895  -0.453   9.030  1.6495 -0.8449 -2.7727
  787MOL0     H 3877   0.777  -0.335   8.954 -1.7505 -0.0179  1.3794
  787MOL0     H 3878   1.043  -0.437   8.889 -3.0129 -1.8209  2.2516
  787MOL0     H 3879   1.050  -0.265   8.878  1.0866 -1.8085 -1.4973
  787MOL0     H 3880   0.833  -0.419   8.727 -1.6912  0.9763 -1.0474
  787MOL0     H 3881   0.847  -0.239   8.748  2.9190  1.9715  1.6405
  787MOL0     H 3882   1.060  -0.329   8.403 -3.1169  1.2173 -0.9578
  787MOL0     H 3883   0.923   0.013   9.208 -1.1363 -2.3305 -0.8793
  787MOL0     H 3884   1.008   0.122   9.395  1.3629 -1.9100 -0.3689
  788MOL0     O 3885   7.598   0.718   9.448 -0.6669 -0.0555  0.6432
  788MOL0     C 3886   7.555   0.606   9.461  0.4363  0.5749 -0.0126
  788MOL0     O 3887   7.477   0.545   9.372  1.0330  0.5335 -0.0565
  788MOL0     C 3888   7.391   0.613   9.293  0.1526 -0.4056 -0.0504
  788MOL0     C 3889   7.316   0.720   9.352 -0.7834 -0.3181  0.1864
  788MOL0     C 3890   7.217   0.789   9.293  0.0720  0.1724  0.3255
  788MOL0     C 3891   7.189   0.754   9.154 -0.3397 -0.3333  0.3664
  788MOL0     O 3892   7.085   0.815   9.075 -0.3906  0.9185  0.1281
  788MOL0     C 3893   7.074   0.959   9.084 -0.6959  0.4293 -0.2423
  788MOL0     C 3894   6.929   0.997   9.127 -0.7619 -0.3111 -0.3630
  788MOL0     C 3895   6.928   1.147   9.162  0.4779 -0.3264 -0.0303
  788MOL0     C 3896   6.782   1.194   9.169  0.3488 -0.0694  0.9363
  788MOL0     C 3897   6.782   1.334   9.208  0.3221  0.0541  0.2571
  788MOL0     C 3898   6.639   1.382   9.237  0.4489 -1.3105 -0.1785
  788MOL0     C 3899   6.641   1.528   9.256 -0.1262 -0.3292 -0.3024
  788MOL0     C 3900   6.563   1.563   9.381 -0.7481 -0.3542  1.5720
  788MOL0     N 3901   6.418   1.535   9.402 -0.5011 -0.1838 -0.1964
  788MOL0     C 3902   6.320   1.579   9.318  0.3908  0.2117  0.3468
  788MOL0     C 3903   6.214   1.528   9.380  0.8303 -0.7098 -0.7546
  788MOL0     C 3904   6.078   1.553   9.325  0.5877 -0.1193  0.6458
  788MOL0     C 3905   6.046   1.435   9.221  0.4765 -0.0488  0.5870
  788MOL0     C 3906   5.901   1.459   9.171 -0.1152 -0.1972 -0.0586
  788MOL0     C 3907   5.793   1.471   9.282  0.1118  0.5647  0.2882
  788MOL0     O 3908   5.757   1.597   9.338  0.2327  0.8535 -1.0631
  788MOL0     C 3909   5.634   1.655   9.304 -0.4298 -0.4227 -0.3052
  788MOL0     C 3910   5.562   1.635   9.186  0.0144 -0.1595 -0.2338
  788MOL0     C 3911   5.435   1.696   9.165 -0.0885  0.4541 -0.2926
  788MOL0     C 3912   5.380   1.771   9.274 -1.8193 -1.2922  0.6060
  788MOL0     C 3913   5.250   1.821   9.257  0.8055  0.3430 -0.8579
  788MOL0     O 3914   5.211   1.913   9.351  0.2494  0.2314  0.1515
  788MOL0     C 3915   5.101   1.991   9.329 -1.0710  0.0687 -0.6575
  788MOL0     C 3916   5.090   2.055   9.203  1.3921 -0.6862 -0.6026
  788MOL0     C 3917   4.970   2.116   9.163  0.8603  0.0236  0.9538
  788MOL0     C 3918   4.875   2.143   9.271  0.0682 -0.8923  0.1823
  788MOL0     O 3919   4.758   2.215   9.246 -0.2831 -0.1776 -0.2128
  788MOL0     C 3920   4.727   2.267   9.118  0.9485 -0.0499  0.3842
  788MOL0     C 3921   4.583   2.294   9.090  0.1833 -0.0688 -0.1239
  788MOL0     C 3922   4.535   2.423   9.165  0.3266 -0.3638 -0.3612
  788MOL0     C 3923   4.388   2.461   9.140  0.4736  0.4572  0.4064
  788MOL0     C 3924   4.294   2.336   9.145  1.0704  0.4235 -1.0756
  788MOL0     C 3925   4.297   2.258   9.281 -0.9390  0.3206 -0.1456
  788MOL0     C 3926   4.183   2.155   9.296  0.5264 -0.1254 -0.7764
  788MOL0     C 3927   4.193   2.078   9.426  0.3583  0.0895 -0.2091
  788MOL0    Cl 3928   4.066   1.959   9.431  0.4019  0.0974  0.0015
  788MOL0     C 3929   4.908   2.114   9.403 -0.3331  0.3133 -0.0842
  788MOL0     C 3930   5.020   2.040   9.433  0.9772  0.2950 -0.3504
  788MOL0     O 3931   5.186   1.778   9.168  0.9233 -0.2619  0.1939
  788MOL0     C 3932   5.458   1.791   9.391 -1.0943  0.4478 -0.5054
  788MOL0     C 3933   5.580   1.738   9.408 -0.6142 -0.6663  0.0320
  788MOL0     N 3934   6.246   1.460   9.499  0.0321  1.2391 -0.0363
  788MOL0     N 3935   6.370   1.467   9.517 -0.9936 -0.4259 -0.0552
  788MOL0     C 3936   7.258   0.647   9.095 -0.1709 -0.8690  0.3566
  788MOL0     C 3937   7.357   0.575   9.165  0.2184 -0.5279  0.5378
  788MOL0     C 3938   7.614   0.528   9.574  0.1034 -0.3664  0.5882
  788MOL0     C 3939   7.685   0.596   9.674 -0.7501  0.2473  0.1452
  788MOL0     C 3940   7.742   0.523   9.776 -0.3638  0.2573 -0.1475
  788MOL0     C 3941   7.715   0.382   9.786  0.0789  0.2736 -0.3604
  788MOL0     O 3942   7.773   0.305   9.887 -0.5422  0.3666  0.3453
  788MOL0     C 3943   7.898   0.346   9.937  0.1309  0.4095  0.5041
  788MOL0     C 3944   7.955   0.220  10.006 -0.6692  0.3594 -0.4514
  788MOL0     C 3945   8.018   0.124   9.910 -0.4391  0.3935 -0.5552
  788MOL0     C 3946   7.928   0.048   9.819  0.9121  0.4427  0.3952
  788MOL0     C 3947   8.004  -0.059   9.750 -0.8302  1.3088  0.0743
  788MOL0     C 3948   8.060  -0.148   9.690  0.2908 -0.0670 -0.4359
  788MOL0     C 3949   7.628   0.323   9.700  0.4177  0.3094  0.6025
  788MOL0     C 3950   7.576   0.394   9.589  0.0423 -0.3426 -0.1740
  788MOL0     H 3951   7.320   0.755   9.454 -1.5716 -0.0725  0.1401
  788MOL0     H 3952   7.160   0.862   9.350  1.1901  2.0603 -0.8711
  788MOL0     H 3953   7.091   0.990   8.980  0.9383  0.6747  0.0633
  788MOL0     H 3954   7.148   1.005   9.151  1.9799 -0.4426 -2.4102
  788MOL0     H 3955   6.913   0.948   9.223  2.4197 -0.6154  0.1177
  788MOL0     H 3956   6.859   0.966   9.049  0.5406 -1.1215 -1.2517
  788MOL0     H 3957   6.985   1.207   9.090  0.6130 -3.2979 -2.5901
  788MOL0     H 3958   6.984   1.161   9.255  1.6734  0.1064 -0.7836
  788MOL0     H 3959   6.728   1.167   9.078  1.2421 -2.5894  1.0598
  788MOL0     H 3960   6.728   1.131   9.239  1.9625 -1.5901  0.9123
  788MOL0     H 3961   6.830   1.381   9.121  2.0198 -1.8238  0.1093
  788MOL0     H 3962   6.839   1.339   9.302 -5.0469 -1.1454  4.0233
  788MOL0     H 3963   6.591   1.335   9.324 -2.5225  1.8391  0.0725
  788MOL0     H 3964   6.581   1.362   9.147  1.7380  1.9960 -1.8929
  788MOL0     H 3965   6.739   1.570   9.283 -2.0213  2.9889  2.2650
  788MOL0     H 3966   6.608   1.578   9.164 -0.0273 -1.1302 -0.7852
  788MOL0     H 3967   6.575   1.671   9.397 -0.8603  0.0361 -0.7224
  788MOL0     H 3968   6.607   1.508   9.465  0.5607 -0.4229  0.8622
  788MOL0     H 3969   6.320   1.648   9.234  1.6525  0.5709  0.6266
  788MOL0     H 3970   6.062   1.645   9.269 -2.4780 -1.1500 -0.4052
  788MOL0     H 3971   6.005   1.538   9.405 -0.6001 -4.2743 -0.9041
  788MOL0     H 3972   6.051   1.336   9.268 -0.3376 -0.3925 -0.0308
  788MOL0     H 3973   6.116   1.439   9.138  0.1855 -2.2766  0.1737
  788MOL0     H 3974   5.905   1.543   9.101  0.1518 -0.0092  0.1812
  788MOL0     H 3975   5.870   1.378   9.104 -4.7595 -0.8843  2.5283
  788MOL0     H 3976   5.824   1.402   9.361  1.1512 -0.9139 -1.3372
  788MOL0     H 3977   5.699   1.427   9.248 -0.0791 -0.0374  1.5215
  788MOL0     H 3978   5.620   1.590   9.106 -0.9920 -3.9573  0.9709
  788MOL0     H 3979   5.378   1.683   9.074 -1.2042 -1.6211  0.6291
  788MOL0     H 3980   5.163   2.056   9.122  1.0764  0.3751 -0.8920
  788MOL0     H 3981   4.953   2.128   9.057  4.6926 -2.3754 -0.1078
  788MOL0     H 3982   4.746   2.201   9.033 -1.7593 -0.4008 -0.0282
  788MOL0     H 3983   4.776   2.364   9.106 -1.3070  1.2419  1.2044
  788MOL0     H 3984   4.525   2.206   9.118 -2.6698  2.1482  1.5204
  788MOL0     H 3985   4.572   2.301   8.981  2.5867  0.9028 -0.3535
  788MOL0     H 3986   4.594   2.511   9.138  0.0571 -0.5355 -1.5260
  788MOL0     H 3987   4.553   2.395   9.270  1.1168 -0.6320 -0.5631
  788MOL0     H 3988   4.351   2.536   9.211 -0.0562 -2.2955  3.3243
  788MOL0     H 3989   4.386   2.492   9.036 -2.7769  0.0638  0.2518
  788MOL0     H 3990   4.312   2.265   9.064 -0.7430  0.9684 -2.0087
  788MOL0     H 3991   4.189   2.364   9.136  0.5761 -0.9600  0.0289
  788MOL0     H 3992   4.278   2.334   9.357 -1.2023 -0.5435  0.6805
  788MOL0     H 3993   4.396   2.212   9.290 -0.4318  1.7434  2.2053
  788MOL0     H 3994   4.092   2.215   9.301  0.8982  0.3579  0.4865
  788MOL0     H 3995   4.164   2.094   9.207 -3.1723 -0.1851 -0.1154
  788MOL0     H 3996   4.175   2.139   9.515 -1.6894 -1.8174  0.7914
  788MOL0     H 3997   4.286   2.020   9.431  0.8855  0.4840 -3.4635
  788MOL0     H 3998   4.843   2.143   9.486  3.3853 -1.8537  4.0110
  788MOL0     H 3999   5.036   2.013   9.537  1.3813  0.9200 -0.2501
  788MOL0     H 4000   5.409   1.846   9.471 -2.0280 -0.5035 -0.3967
  788MOL0     H 4001   5.632   1.743   9.503  1.3647 -2.2050 -0.8861
  788MOL0     H 4002   7.238   0.623   8.991 -2.1933  0.9003  0.2579
  788MOL0     H 4003   7.404   0.501   9.101  0.4500 -0.3835  0.5375
  788MOL0     H 4004   7.720   0.697   9.657 -1.2827  0.4222  0.0508
  788MOL0     H 4005   7.808   0.577   9.842  0.6009 -1.1082  0.0461
  788MOL0     H 4006   7.882   0.428  10.008 -0.5161  0.4714  0.2866
  788MOL0     H 4007   7.968   0.376   9.859 -0.0206 -0.4018  0.0516
  788MOL0     H 4008   8.038   0.251  10.070  1.8957  0.2273 -3.4298
  788MOL0     H 4009   7.869   0.181  10.061 -3.5186  3.5344 -2.2518
  788MOL0     H 4010   8.071   0.057   9.979 -1.7855 -1.2402 -1.0185
  788MOL0     H 4011   8.091   0.179   9.851  1.1419  0.9467  1.7814
  788MOL0     H 4012   7.851  -0.010   9.871  1.6678 -0.0177  1.0289
  788MOL0     H 4013   7.887   0.121   9.748  0.5472  2.3721  2.4773
  788MOL0     H 4014   8.106  -0.230   9.639  2.3400 -0.1774  1.4354
  788MOL0     H 4015   7.623   0.216   9.712  2.4961  0.0551 -0.3330
  788MOL0     H 4016   7.517   0.341   9.515  1.5332 -0.0187 -1.6532
  789MOL0     O 4017   6.601   2.820  10.880 -0.5183  0.2532 -0.1353
  789MOL0     C 4018   6.513   2.778  10.958  0.8623  0.0674 -0.3723
  789MOL0     O 4019   6.430   2.681  10.939 -0.6131 -0.3185 -0.0730
  789MOL0     C 4020   6.426   2.600  10.828 -0.3347  0.6148 -0.0521
  789MOL0     C 4021   6.534   2.513  10.786 -0.2872  0.6097  0.0921
  789MOL0     C 4022   6.531   2.435  10.667  0.5582 -0.5859 -0.3815
  789MOL0     C 4023   6.419   2.438  10.589  0.6607  1.0021 -0.3426
  789MOL0     O 4024   6.413   2.376  10.462 -0.2282 -0.4995 -0.3658
  789MOL0     C 4025   6.321   2.279  10.422  0.0574 -0.0029  0.7197
  789MOL0     C 4026   6.364   2.232  10.284  0.4299  0.5630 -1.1979
  789MOL0     C 4027   6.508   2.206  10.252  0.4918  0.4210  0.5594
  789MOL0     C 4028   6.542   2.066  10.267  0.7304 -0.5833  0.7533
  789MOL0     C 4029   6.690   2.042  10.271  0.6439 -0.1400  0.5041
  789MOL0     C 4030   6.729   1.946  10.166 -0.5990  1.1604  0.2559
  789MOL0     C 4031   6.878   1.900  10.188  0.0026 -0.3472  1.2000
  789MOL0     C 4032   6.897   1.790  10.301 -0.1448  0.1559  0.2955
  789MOL0     N 4033   7.014   1.722  10.254 -0.5474 -0.5080  0.5400
  789MOL0     C 4034   7.013   1.625  10.151  1.4282 -0.0024  0.0069
  789MOL0     C 4035   7.125   1.556  10.174 -0.7303 -1.2947  0.0998
  789MOL0     C 4036   7.174   1.433  10.095  0.1003  0.0132  0.3462
  789MOL0     C 4037   7.073   1.313  10.089 -0.3755  0.0791  0.2131
  789MOL0     C 4038   7.046   1.253  10.225  0.8320 -0.0811 -0.0676
  789MOL0     C 4039   6.983   1.116  10.223  0.1808  0.4177 -0.0325
  789MOL0     O 4040   6.911   1.093  10.349 -0.5272  0.0476 -1.0403
  789MOL0     C 4041   6.831   0.990  10.371  0.1885 -0.1865  0.9017
  789MOL0     C 4042   6.762   0.921  10.270 -0.9381 -1.3097 -1.0003
  789MOL0     C 4043   6.692   0.803  10.295 -0.0645 -0.0179 -0.4995
  789MOL0     C 4044   6.665   0.769  10.433 -0.3755 -0.2708 -0.6359
  789MOL0     C 4045   6.581   0.650  10.460  0.1787 -0.4004  0.0112
  789MOL0     O 4046   6.597   0.588  10.579 -0.7457 -1.0979  0.3991
  789MOL0     C 4047   6.571   0.449  10.594  0.0237  0.1492  0.2096
  789MOL0     C 4048   6.670   0.366  10.638 -0.6637 -0.0598  0.2168
  789MOL0     C 4049   6.638   0.228  10.642  0.0995 -1.6316 -0.5818
  789MOL0     C 4050   6.510   0.184  10.619 -0.8006  0.8059  0.4234
  789MOL0     O 4051   6.466   0.053  10.624  0.2843  0.0985  0.3813
  789MOL0     C 4052   6.521  -0.041  10.718 -1.0305  0.0785 -0.1936
  789MOL0     C 4053   6.464  -0.171  10.690 -0.0438  0.1355 -0.1259
  789MOL0     C 4054   6.517  -0.233  10.561  0.8435 -0.2957 -0.1941
  789MOL0     C 4055   6.450  -0.369  10.520 -0.5657  0.0978 -0.4133
  789MOL0     C 4056   6.538  -0.444  10.428  0.3135 -0.4371  0.5872
  789MOL0     C 4057   6.552  -0.372  10.293 -0.1193  0.1882  0.1017
  789MOL0     C 4058   6.592  -0.460  10.179 -0.9685 -1.2875  1.4008
  789MOL0     C 4059   6.666  -0.397  10.061  0.5807  0.5000  0.3860
  789MOL0    Cl 4060   6.563  -0.256  10.003  0.8111  0.1851  0.1392
  789MOL0     C 4061   6.410   0.276  10.578 -0.4789  0.0893 -0.8582
  789MOL0     C 4062   6.446   0.403  10.556  0.8856 -0.6647 -0.8521
  789MOL0     O 4063   6.501   0.616  10.375  0.3294  0.0914  0.6869
  789MOL0     C 4064   6.719   0.853  10.534  0.0534  0.1598 -0.1638
  789MOL0     C 4065   6.802   0.948  10.496  0.3445 -0.5983 -0.0938
  789MOL0     N 4066   7.191   1.612  10.275 -0.4870 -0.6724 -0.2724
  789MOL0     N 4067   7.130   1.713  10.320  0.0507 -0.1584 -0.1247
  789MOL0     C 4068   6.304   2.522  10.630 -0.0389  0.0339 -0.3820
  789MOL0     C 4069   6.305   2.592  10.755 -0.1511  0.5432  0.2586
  789MOL0     C 4070   6.498   2.846  11.093  0.7470  0.5410 -0.8642
  789MOL0     C 4071   6.408   2.809  11.199  0.0854  0.7673  0.9665
  789MOL0     C 4072   6.423   2.853  11.326  0.5007 -0.0072  0.3370
  789MOL0     C 4073   6.508   2.968  11.343 -0.0434 -0.3818 -0.8340
  789MOL0     O 4074   6.514   3.005  11.477  0.1883  0.6345 -0.2368
  789MOL0     C 4075   6.566   3.141  11.500  1.4827  0.3262 -0.4344
  789MOL0     C 4076   6.713   3.166  11.511  0.2190 -0.9526 -0.2410
  789MOL0     C 4077   6.775   3.100  11.633  0.0417 -0.1377  0.3540
  789MOL0     C 4078   6.717   3.160  11.759  0.4475 -0.4703  0.0330
  789MOL0     C 4079   6.727   3.308  11.760  0.0770  1.2146  0.7285
  789MOL0     C 4080   6.745   3.428  11.777  0.2371  0.3225  0.1917
  789MOL0     C 4081   6.591   3.014  11.234  0.8067  0.6413  0.1322
  789MOL0     C 4082   6.587   2.954  11.110 -0.3150 -0.1290 -0.5074
  789MOL0     H 4083   6.631   2.511  10.835 -0.9259  3.0329  1.6384
  789MOL0     H 4084   6.608   2.365  10.638  0.8685  0.4892 -2.2987
  789MOL0     H 4085   6.217   2.313  10.415 -0.2278 -0.8705  0.5241
  789MOL0     H 4086   6.322   2.201  10.500  1.2545  0.5515  1.2865
  789MOL0     H 4087   6.308   2.295  10.214  0.1055  2.3900  0.6018
  789MOL0     H 4088   6.314   2.135  10.288  0.1153  0.7579  0.8795
  789MOL0     H 4089   6.574   2.265  10.316  0.5117 -0.9432  1.8545
  789MOL0     H 4090   6.523   2.228  10.146 -1.7661 -0.1971  0.0578
  789MOL0     H 4091   6.490   2.024  10.354 -0.0246 -2.3390 -0.4846
  789MOL0     H 4092   6.501   2.003  10.188  0.0497  1.3775 -0.5330
  789MOL0     H 4093   6.722   2.004  10.368 -0.1232 -2.4390 -0.0698
  789MOL0     H 4094   6.752   2.131  10.258  1.0457 -0.2517  1.5872
  789MOL0     H 4095   6.728   1.986  10.064 -3.2142 -2.0263 -1.1381
  789MOL0     H 4096   6.669   1.855  10.170 -0.0454  0.7319 -0.7387
  789MOL0     H 4097   6.896   1.853  10.091 -2.5199 -1.2379  1.0988
  789MOL0     H 4098   6.937   1.992  10.199 -1.6528  0.9809 -0.4456
  789MOL0     H 4099   6.819   1.713  10.302 -0.4795  0.4881  0.2634
  789MOL0     H 4100   6.907   1.828  10.403 -3.6680 -0.7251  1.0925
  789MOL0     H 4101   6.937   1.590  10.081 -0.8542  0.5943  2.0449
  789MOL0     H 4102   7.267   1.396  10.139 -0.5184 -3.0134 -0.7123
  789MOL0     H 4103   7.192   1.470   9.993  1.9590 -0.6296  0.3897
  789MOL0     H 4104   7.100   1.231  10.022 -2.4833 -1.5849  1.2901
  789MOL0     H 4105   6.981   1.354  10.046 -0.0398  0.4967 -0.1259
  789MOL0     H 4106   7.145   1.253  10.272  0.0479  2.3564  1.7994
  789MOL0     H 4107   6.985   1.321  10.285 -0.0772 -1.6342  0.8481
  789MOL0     H 4108   7.040   1.028  10.192 -2.2727 -0.6410 -1.7827
  789MOL0     H 4109   6.907   1.122  10.145  1.0735 -1.5709 -1.1189
  789MOL0     H 4110   6.788   0.949  10.168  0.6344  1.5469  0.0473
  789MOL0     H 4111   6.653   0.736  10.219 -0.3399 -0.6721  0.2085
  789MOL0     H 4112   6.769   0.406  10.656 -0.7830  0.9936 -1.2834
  789MOL0     H 4113   6.721   0.169  10.679  0.8762 -0.7455 -0.8590
  789MOL0     H 4114   6.480  -0.007  10.814 -0.6519  0.1455 -0.0549
  789MOL0     H 4115   6.628  -0.037  10.741 -1.1666 -0.4993  0.5721
  789MOL0     H 4116   6.355  -0.162  10.678 -0.0601  0.4500  0.2112
  789MOL0     H 4117   6.494  -0.229  10.778 -1.5411 -1.2127 -0.4516
  789MOL0     H 4118   6.625  -0.247  10.571  0.8844 -1.2649 -1.6992
  789MOL0     H 4119   6.504  -0.160  10.481  1.2289  1.1375  0.9996
  789MOL0     H 4120   6.442  -0.430  10.611 -1.1032  2.0872  0.9272
  789MOL0     H 4121   6.354  -0.348  10.471 -0.8161  1.4827  0.6155
  789MOL0     H 4122   6.495  -0.543  10.412 -0.4136 -0.1377  0.6215
  789MOL0     H 4123   6.638  -0.453  10.470  0.3605 -2.2493  0.1607
  789MOL0     H 4124   6.644  -0.313  10.306  0.3853 -0.9576  2.1984
  789MOL0     H 4125   6.464  -0.321  10.255 -0.3158 -1.9600 -2.7083
  789MOL0     H 4126   6.664  -0.535  10.215  1.6824  1.4392  2.1731
  789MOL0     H 4127   6.511  -0.517  10.132  0.4805 -0.7802 -2.0553
  789MOL0     H 4128   6.680  -0.474   9.985  1.4367  1.0780 -0.0570
  789MOL0     H 4129   6.764  -0.358  10.092 -0.1771  4.3387 -1.4403
  789MOL0     H 4130   6.312   0.236  10.556 -1.5744  2.4453 -0.5373
  789MOL0     H 4131   6.369   0.474  10.529  0.7352 -0.1045  0.8763
  789MOL0     H 4132   6.712   0.827  10.639  0.1316 -1.0892 -0.4545
  789MOL0     H 4133   6.832   1.010  10.580 -4.7688  0.0766  1.5941
  789MOL0     H 4134   6.218   2.534  10.564 -2.3442  2.1559  2.7166
  789MOL0     H 4135   6.229   2.666  10.777  1.0042  1.7699  0.2831
  789MOL0     H 4136   6.337   2.729  11.181 -0.1990  1.6442 -2.7738
  789MOL0     H 4137   6.356   2.809  11.399  1.2122  0.0239  1.0326
  789MOL0     H 4138   6.522   3.162  11.597 -0.9230  2.1417 -1.8184
  789MOL0     H 4139   6.531   3.224  11.439  1.1655  1.3004  1.0318
  789MOL0     H 4140   6.765   3.127  11.423  1.8513 -1.1853  0.7774
  789MOL0     H 4141   6.741   3.272  11.509  2.3508 -1.3059 -5.5893
  789MOL0     H 4142   6.882   3.123  11.639  0.0006 -0.1916  1.5299
  789MOL0     H 4143   6.760   2.992  11.644  1.9777 -0.5444 -0.5900
  789MOL0     H 4144   6.612   3.132  11.773  0.7053 -0.6003  1.9275
  789MOL0     H 4145   6.770   3.112  11.842 -2.0659 -0.1243  1.9866
  789MOL0     H 4146   6.763   3.533  11.777 -1.6576  0.6969  1.6053
  789MOL0     H 4147   6.653   3.102  11.251  0.0091  0.9790  1.4201
  789MOL0     H 4148   6.656   2.989  11.034 -0.7533  0.6261 -0.5655
  790MOL0     O 4149   8.249   2.566   1.879 -1.2143 -0.1290 -0.4546
  790MOL0     C 4150   8.337   2.510   1.956  0.3768 -0.2755 -0.1845
  790MOL0     O 4151   8.430   2.413   1.917 -0.6645 -0.3946 -0.1843
  790MOL0     C 4152   8.439   2.361   1.791 -0.9264 -0.7370  0.3659
  790MOL0     C 4153   8.476   2.228   1.776 -0.3344 -0.6916  0.1482
  790MOL0     C 4154   8.457   2.164   1.650 -0.8472 -0.1264  0.3462
  790MOL0     C 4155   8.414   2.232   1.535 -0.2254 -0.1354  0.1538
  790MOL0     O 4156   8.428   2.147   1.432  0.6984 -0.5315  0.0020
  790MOL0     C 4157   8.384   2.190   1.301  0.9663  0.8109 -0.1789
  790MOL0     C 4158   8.406   2.076   1.206 -0.0664  0.5137  1.1196
  790MOL0     C 4159   8.561   2.061   1.188  0.1196 -0.0546 -0.8646
  790MOL0     C 4160   8.603   1.931   1.113  0.6947  0.0135  0.0084
  790MOL0     C 4161   8.744   1.944   1.059 -0.1628  0.6143  1.0156
  790MOL0     C 4162   8.790   1.822   0.974  0.8431 -1.7896 -0.0819
  790MOL0     C 4163   8.942   1.804   0.941  0.6715  0.2455  0.3580
  790MOL0     C 4164   8.944   1.709   0.825  0.7526 -0.9561  0.2660
  790MOL0     N 4165   9.073   1.647   0.790  0.1804  0.3868  0.3591
  790MOL0     C 4166   9.134   1.554   0.867 -0.5086  0.1488 -0.2701
  790MOL0     C 4167   9.260   1.535   0.810 -1.3051 -0.1029 -0.2595
  790MOL0     C 4168   9.364   1.467   0.891 -0.4699 -0.4626  0.9082
  790MOL0     C 4169   9.475   1.566   0.935  1.4151  0.4689  0.1790
  790MOL0     C 4170   9.570   1.503   1.032 -0.7164  0.8796  0.2302
  790MOL0     C 4171   9.698   1.574   1.043 -1.0165  0.5203 -0.3075
  790MOL0     O 4172   9.675   1.693   1.104 -0.2433 -0.7994  0.6775
  790MOL0     C 4173   9.779   1.772   1.133  0.2983 -1.1680 -0.1267
  790MOL0     C 4174   9.915   1.738   1.118  0.3701  0.4784 -0.5201
  790MOL0     C 4175  10.014   1.829   1.163  0.5094  0.1264  0.4305
  790MOL0     C 4176   9.980   1.952   1.229 -0.1232  0.0410  0.6117
  790MOL0     C 4177  10.086   2.026   1.291  0.3691  0.0200  1.1214
  790MOL0     O 4178  10.193   1.967   1.349  0.2084  0.1169  0.2715
  790MOL0     C 4179  10.288   2.052   1.414  1.3563  0.4662  1.2965
  790MOL0     C 4180  10.429   2.061   1.388  0.5819  0.6454  0.5296
  790MOL0     C 4181  10.504   2.170   1.449  0.1046 -0.0566  1.2956
  790MOL0     C 4182  10.454   2.250   1.548  0.6970  0.2029 -0.3387
  790MOL0     O 4183  10.533   2.349   1.590 -0.4070  0.0041 -0.5707
  790MOL0     C 4184  10.489   2.416   1.702  0.0507  0.6501 -0.2079
  790MOL0     C 4185  10.603   2.484   1.775 -0.1865 -0.4015  0.2694
  790MOL0     C 4186  10.707   2.565   1.687  0.4905  0.4385  0.8934
  790MOL0     C 4187  10.828   2.628   1.759 -0.4790 -0.5672 -0.2232
  790MOL0     C 4188  10.914   2.521   1.823 -0.4401  0.5517  0.4983
  790MOL0     C 4189  11.026   2.575   1.912  0.7333 -0.1596  0.1283
  790MOL0     C 4190  11.113   2.475   1.976  0.1021  1.0772 -0.2921
  790MOL0     C 4191  11.230   2.535   2.049  0.6145 -0.1579 -0.6472
  790MOL0    Cl 4192  11.177   2.536   2.218  0.5252  0.1488  0.1438
  790MOL0     C 4193  10.312   2.237   1.570 -0.7476  0.2874 -0.0043
  790MOL0     C 4194  10.232   2.137   1.510  0.1862 -0.1813 -0.8999
  790MOL0     O 4195  10.071   2.151   1.267  0.0049  1.0251 -0.1709
  790MOL0     C 4196   9.849   1.975   1.241 -0.2268 -0.8538  0.0148
  790MOL0     C 4197   9.749   1.892   1.190 -0.4954 -0.8532 -0.4083
  790MOL0     N 4198   9.266   1.623   0.702 -0.3084  0.6715 -0.3737
  790MOL0     N 4199   9.157   1.686   0.692 -0.2226  0.0726  0.2855
  790MOL0     C 4200   8.392   2.373   1.544  0.1177  0.8970  0.1442
  790MOL0     C 4201   8.404   2.435   1.670  0.1945 -0.5243  0.0370
  790MOL0     C 4202   8.344   2.534   2.094  1.0537 -0.4397 -0.6660
  790MOL0     C 4203   8.454   2.509   2.168 -0.3526 -0.2050  0.2383
  790MOL0     C 4204   8.464   2.534   2.302 -0.4665  0.0934 -0.7667
  790MOL0     C 4205   8.352   2.567   2.379  1.0513  0.2267  0.1829
  790MOL0     O 4206   8.359   2.575   2.518 -0.9771  0.4681 -0.1561
  790MOL0     C 4207   8.354   2.446   2.581 -0.6890 -0.3223 -0.9329
  790MOL0     C 4208   8.317   2.466   2.730 -0.2731  0.5421  0.9973
  790MOL0     C 4209   8.447   2.525   2.797  0.6435 -0.5412 -0.4098
  790MOL0     C 4210   8.409   2.571   2.935 -0.4596  0.0629  0.5598
  790MOL0     C 4211   8.530   2.599   3.015  0.4932 -0.6059 -0.4062
  790MOL0     C 4212   8.625   2.640   3.073 -1.2822  0.5100 -0.0945
  790MOL0     C 4213   8.234   2.613   2.300 -1.1057 -0.0759 -0.4937
  790MOL0     C 4214   8.233   2.588   2.164 -0.4325  0.2344 -0.1739
  790MOL0     H 4215   8.508   2.180   1.868 -1.0104 -1.2259  0.1049
  790MOL0     H 4216   8.477   2.057   1.643  1.2672  0.1815  0.8252
  790MOL0     H 4217   8.439   2.274   1.259 -1.5264  1.3367 -2.6565
  790MOL0     H 4218   8.278   2.214   1.313  1.2497  0.8739  3.6816
  790MOL0     H 4219   8.363   2.126   1.119 -0.6041  1.0421  1.6790
  790MOL0     H 4220   8.342   1.992   1.234 -2.3733  2.7277  3.0123
  790MOL0     H 4221   8.606   2.037   1.285  1.1632  1.2782 -0.9860
  790MOL0     H 4222   8.604   2.146   1.133  0.2220 -0.2218 -1.0482
  790MOL0     H 4223   8.590   1.857   1.193 -2.4600 -1.2537 -1.4892
  790MOL0     H 4224   8.534   1.907   1.031 -0.8862  1.2082  0.9334
  790MOL0     H 4225   8.820   1.958   1.136 -1.2990  0.9469  2.1220
  790MOL0     H 4226   8.741   2.028   0.989 -2.8668 -0.6220 -0.4998
  790MOL0     H 4227   8.733   1.842   0.883 -0.6524  1.2670  1.3814
  790MOL0     H 4228   8.765   1.729   1.025 -1.6335  1.1703  4.7896
  790MOL0     H 4229   8.980   1.904   0.921 -0.2381  0.3225 -1.1296
  790MOL0     H 4230   8.991   1.754   1.025  1.5917  1.0834  0.3346
  790MOL0     H 4231   8.900   1.763   0.741  1.9785  1.2741  0.9684
  790MOL0     H 4232   8.871   1.630   0.844 -1.1785  0.3403 -1.3511
  790MOL0     H 4233   9.094   1.521   0.962 -0.6062  0.8934 -0.0441
  790MOL0     H 4234   9.402   1.390   0.824  2.5262  3.5650 -2.4944
  790MOL0     H 4235   9.328   1.415   0.981  0.9814 -1.5049  0.9247
  790MOL0     H 4236   9.429   1.655   0.978  1.4091  0.9969 -0.8889
  790MOL0     H 4237   9.523   1.587   0.839 -1.4503 -0.2463 -1.5493
  790MOL0     H 4238   9.532   1.491   1.134 -3.4988  1.6941 -0.6291
  790MOL0     H 4239   9.600   1.401   1.006  0.2003  0.6180  2.1355
  790MOL0     H 4240   9.754   1.569   0.949 -3.9484 -1.6698 -2.1265
  790MOL0     H 4241   9.757   1.508   1.106 -0.7724  0.4545 -0.6030
  790MOL0     H 4242   9.963   1.659   1.061  0.0797  1.3250 -1.9848
  790MOL0     H 4243  10.119   1.803   1.154  0.4620  0.5201 -2.5245
  790MOL0     H 4244  10.455   2.008   1.297 -1.2444  1.5390 -0.5756
  790MOL0     H 4245  10.596   2.208   1.404 -0.1434  3.0387  3.1018
  790MOL0     H 4246  10.448   2.341   1.771 -2.9226  2.1737 -0.1358
  790MOL0     H 4247  10.414   2.491   1.674  1.8364  2.2375 -0.9917
  790MOL0     H 4248  10.650   2.400   1.827 -1.9074  0.6467  3.8694
  790MOL0     H 4249  10.568   2.550   1.854 -1.7334  0.1898 -0.8635
  790MOL0     H 4250  10.656   2.644   1.632  0.1138 -0.2081  0.2933
  790MOL0     H 4251  10.751   2.502   1.610 -2.3749  0.7171 -1.0990
  790MOL0     H 4252  10.890   2.683   1.688  0.7292 -5.1414 -3.1840
  790MOL0     H 4253  10.798   2.683   1.849 -0.5100 -1.5913  0.4139
  790MOL0     H 4254  10.954   2.439   1.762 -0.7491  1.1064 -0.4665
  790MOL0     H 4255  10.829   2.475   1.875 -2.7651  1.3830 -2.2503
  790MOL0     H 4256  10.976   2.629   1.993 -2.8258 -3.2072  0.2338
  790MOL0     H 4257  11.081   2.655   1.861 -0.2507  0.0816 -0.5935
  790MOL0     H 4258  11.051   2.411   2.040  1.3496  0.1496  0.0018
  790MOL0     H 4259  11.160   2.408   1.904 -1.5376 -0.9398  0.4327
  790MOL0     H 4260  11.240   2.640   2.018  0.8818 -0.0886 -0.3272
  790MOL0     H 4261  11.305   2.462   2.018 -1.4662 -1.9472 -1.8146
  790MOL0     H 4262  10.272   2.310   1.640  2.2324 -1.0306  3.3799
  790MOL0     H 4263  10.125   2.130   1.530 -1.1015  0.0244 -6.2233
  790MOL0     H 4264   9.823   2.068   1.291  1.5342 -0.4393  0.2037
  790MOL0     H 4265   9.649   1.934   1.202  0.5764  1.3794  1.6381
  790MOL0     H 4266   8.357   2.425   1.456 -2.8055  0.6119  1.0263
  790MOL0     H 4267   8.394   2.542   1.682 -1.7403 -0.9382  3.3348
  790MOL0     H 4268   8.543   2.471   2.119 -0.5106 -2.9901  1.9124
  790MOL0     H 4269   8.559   2.509   2.348 -0.9410 -2.1810 -0.9072
  790MOL0     H 4270   8.444   2.384   2.571 -0.2213  0.2797 -0.5651
  790MOL0     H 4271   8.268   2.392   2.542 -0.8809 -1.3023  0.7494
  790MOL0     H 4272   8.234   2.535   2.750 -0.0470  0.9270  0.6010
  790MOL0     H 4273   8.290   2.371   2.777  0.2195  0.9435  2.1250
  790MOL0     H 4274   8.483   2.609   2.737  3.5964 -0.0684  1.7605
  790MOL0     H 4275   8.538   2.463   2.797  1.3494  0.4513  0.4835
  790MOL0     H 4276   8.346   2.658   2.921 -0.1064  0.2665  0.2044
  790MOL0     H 4277   8.357   2.487   2.981 -0.5006 -0.5900 -0.6407
  790MOL0     H 4278   8.714   2.677   3.119 -0.5009 -0.9810 -0.3480
  790MOL0     H 4279   8.153   2.668   2.348 -1.0693  1.0610 -1.6768
  790MOL0     H 4280   8.145   2.609   2.104 -0.1009 -3.5264 -2.2643
  791MOL0     O 4281   5.428   4.931   4.416 -0.7478 -0.5638 -0.1879
  791MOL0     C 4282   5.489   5.038   4.458 -0.0833 -0.1167  0.3834
  791MOL0     O 4283   5.452   5.173   4.436  0.3673 -0.1491  0.7358
  791MOL0     C 4284   5.341   5.177   4.352  0.3782  0.3051 -0.4176
  791MOL0     C 4285   5.367   5.167   4.214  1.3941 -0.1774  0.9688
  791MOL0     C 4286   5.253   5.173   4.125 -0.1204 -0.1054  0.1064
  791MOL0     C 4287   5.124   5.175   4.171  1.5007  0.7068 -0.3084
  791MOL0     O 4288   5.011   5.167   4.089  0.3793 -0.4849 -0.5136
  791MOL0     C 4289   5.017   5.169   3.949 -0.8338 -0.6224  0.0641
  791MOL0     C 4290   4.883   5.153   3.879 -0.0285  0.0771  0.6910
  791MOL0     C 4291   4.785   5.256   3.947 -0.8008  0.3908 -0.4237
  791MOL0     C 4292   4.673   5.297   3.855 -0.5480 -0.2555 -0.1365
  791MOL0     C 4293   4.714   5.392   3.746 -0.4387 -0.4119  0.2467
  791MOL0     C 4294   4.588   5.426   3.662  0.2250 -0.1140 -1.4901
  791MOL0     C 4295   4.613   5.466   3.518 -0.7601 -0.0114  0.2573
  791MOL0     C 4296   4.480   5.473   3.433 -0.6102  0.7500 -1.0550
  791MOL0     N 4297   4.509   5.467   3.290 -0.0405  0.6455  0.5921
  791MOL0     C 4298   4.566   5.565   3.208 -0.2365 -0.3304 -0.5079
  791MOL0     C 4299   4.582   5.504   3.089  0.0305 -0.2724  1.4561
  791MOL0     C 4300   4.650   5.561   2.959 -0.3868  0.0430  0.1372
  791MOL0     C 4301   4.640   5.485   2.829 -0.2252  0.6529 -0.8278
  791MOL0     C 4302   4.594   5.575   2.711  0.3935 -1.1102 -0.1239
  791MOL0     C 4303   4.715   5.662   2.661  0.2184 -0.2750 -0.7718
  791MOL0     O 4304   4.682   5.673   2.522 -0.0331 -0.0037 -0.6479
  791MOL0     C 4305   4.750   5.755   2.449  1.4178  0.3814  0.1751
  791MOL0     C 4306   4.677   5.812   2.342  0.5590 -0.3374  0.2149
  791MOL0     C 4307   4.734   5.900   2.245 -0.9064  0.9455 -0.7560
  791MOL0     C 4308   4.868   5.929   2.260  0.1726 -0.0353 -0.4087
  791MOL0     C 4309   4.941   6.016   2.154 -0.3631 -0.6504 -0.0557
  791MOL0     O 4310   4.880   6.037   2.038 -0.2014 -0.4880  0.3517
  791MOL0     C 4311   4.940   6.103   1.939  0.4547  0.2301 -0.1150
  791MOL0     C 4312   4.997   6.030   1.828 -0.2377  0.0030 -1.4693
  791MOL0     C 4313   5.069   6.087   1.731  0.3127 -0.6891  0.5836
  791MOL0     C 4314   5.086   6.228   1.740 -0.1625 -0.5193  0.2882
  791MOL0     O 4315   5.148   6.308   1.650  0.2488 -0.1340  0.6364
  791MOL0     C 4316   5.098   6.278   1.513 -0.2054  0.0600 -0.5334
  791MOL0     C 4317   5.096   6.420   1.446  0.7837 -0.3590  0.2680
  791MOL0     C 4318   5.008   6.402   1.316  1.2028 -0.2815 -1.0194
  791MOL0     C 4319   5.100   6.360   1.201 -0.1113 -1.3826  0.0083
  791MOL0     C 4320   5.023   6.361   1.071  0.1197  0.7201 -0.2970
  791MOL0     C 4321   4.960   6.215   1.041 -0.4269  0.0805 -0.6440
  791MOL0     C 4322   5.077   6.121   0.988  1.2495  0.5340  0.1786
  791MOL0     C 4323   5.034   5.984   0.942 -0.4148  0.4768  0.0559
  791MOL0    Cl 4324   4.912   5.917   1.049 -0.0222  0.0821  0.4052
  791MOL0     C 4325   5.025   6.299   1.845  0.3710 -0.2540  1.2313
  791MOL0     C 4326   4.961   6.237   1.947 -0.2165 -0.4881  0.1161
  791MOL0     O 4327   5.051   6.057   2.183 -0.4503  0.2730  0.7480
  791MOL0     C 4328   4.942   5.870   2.368 -0.8917  0.6069  0.3818
  791MOL0     C 4329   4.877   5.791   2.470 -1.3370  0.1362  0.4658
  791MOL0     N 4330   4.518   5.375   3.094 -0.8101  0.2431 -0.8748
  791MOL0     N 4331   4.483   5.355   3.214 -0.1811  0.4484 -0.0893
  791MOL0     C 4332   5.099   5.177   4.311 -1.4506  0.0552  1.1697
  791MOL0     C 4333   5.214   5.165   4.400  0.0491  0.1696  0.2791
  791MOL0     C 4334   5.599   5.025   4.561 -0.4150 -0.0677 -0.2387
  791MOL0     C 4335   5.655   5.128   4.630 -0.9018 -0.4109  0.1302
  791MOL0     C 4336   5.749   5.109   4.741 -0.1583 -0.0915  0.4508
  791MOL0     C 4337   5.806   4.982   4.772  0.3830 -0.3329  0.0826
  791MOL0     O 4338   5.886   4.944   4.877  0.2685 -0.8287  0.0140
  791MOL0     C 4339   5.893   5.021   4.993 -0.0417 -0.4867  1.4178
  791MOL0     C 4340   5.955   4.944   5.111 -1.1734 -0.0395  0.7698
  791MOL0     C 4341   5.937   4.797   5.127  0.2924  0.0134  0.1407
  791MOL0     C 4342   6.022   4.737   5.244  0.1533 -0.5782 -0.3743
  791MOL0     C 4343   5.961   4.778   5.369  0.0871  0.4102 -0.2735
  791MOL0     C 4344   5.908   4.805   5.475  0.1192  0.2119  0.1164
  791MOL0     C 4345   5.770   4.884   4.671 -0.2856  1.0620  0.1837
  791MOL0     C 4346   5.660   4.898   4.577 -0.0793 -0.5449 -0.2111
  791MOL0     H 4347   5.470   5.149   4.186  1.4135  1.6775 -0.3296
  791MOL0     H 4348   5.266   5.163   4.018  0.2722  0.8434  0.0507
  791MOL0     H 4349   5.089   5.091   3.923  1.6353  0.9644  1.6714
  791MOL0     H 4350   5.056   5.268   3.924  0.0793 -0.9588  0.1033
  791MOL0     H 4351   4.840   5.053   3.895 -2.3661  1.0691  1.0594
  791MOL0     H 4352   4.894   5.181   3.774 -0.5985 -1.4301  0.2047
  791MOL0     H 4353   4.835   5.347   3.981  1.4492  0.0984 -2.6229
  791MOL0     H 4354   4.741   5.209   4.035  0.9365 -1.7421 -0.5853
  791MOL0     H 4355   4.644   5.201   3.812  0.7843 -1.8323  2.2972
  791MOL0     H 4356   4.595   5.350   3.910  1.1410 -1.2411  3.4678
  791MOL0     H 4357   4.791   5.350   3.681  0.8425  2.1611 -0.0240
  791MOL0     H 4358   4.752   5.482   3.794 -2.0831 -0.2378  1.3077
  791MOL0     H 4359   4.539   5.515   3.702  1.6234 -0.0833  0.2861
  791MOL0     H 4360   4.523   5.337   3.665  1.1025 -0.7415 -0.7758
  791MOL0     H 4361   4.660   5.564   3.509 -1.5705  0.4764  1.1484
  791MOL0     H 4362   4.682   5.392   3.476 -1.7083 -0.1705 -1.1130
  791MOL0     H 4363   4.420   5.556   3.470  1.0670  0.9984  1.3729
  791MOL0     H 4364   4.420   5.382   3.445  1.6947 -0.8614 -0.8943
  791MOL0     H 4365   4.597   5.661   3.248  0.1868 -0.9743  0.7749
  791MOL0     H 4366   4.755   5.587   2.974 -0.1102 -0.1140 -1.3004
  791MOL0     H 4367   4.594   5.653   2.943 -0.5203  0.0017  0.3778
  791MOL0     H 4368   4.575   5.399   2.849 -0.5546  1.4078  1.6341
  791MOL0     H 4369   4.734   5.439   2.799 -2.5163 -1.7459 -5.2922
  791MOL0     H 4370   4.558   5.510   2.631  1.2366 -1.0878 -0.5265
  791MOL0     H 4371   4.507   5.635   2.738 -1.4642 -2.9422 -1.6754
  791MOL0     H 4372   4.815   5.622   2.685  0.3408  0.5690  0.2200
  791MOL0     H 4373   4.711   5.757   2.715 -2.5580 -0.7285 -0.0445
  791MOL0     H 4374   4.574   5.779   2.332 -0.3130  2.4548 -1.1553
  791MOL0     H 4375   4.685   5.931   2.153 -0.1501  0.7377 -1.2383
  791MOL0     H 4376   4.978   5.924   1.842  2.1412 -0.0721  2.6539
  791MOL0     H 4377   5.114   6.034   1.647  2.8234  0.3528  1.1660
  791MOL0     H 4378   5.001   6.229   1.504 -1.7924  3.1773 -2.2925
  791MOL0     H 4379   5.168   6.205   1.469 -1.4723 -1.8484  0.4921
  791MOL0     H 4380   5.193   6.458   1.413 -1.1355  1.7633 -3.6505
  791MOL0     H 4381   5.037   6.491   1.504 -1.8377 -2.7069  0.7027
  791MOL0     H 4382   4.956   6.496   1.295 -1.9895 -1.1460  2.0715
  791MOL0     H 4383   4.923   6.338   1.339  1.6968  0.1883  2.8796
  791MOL0     H 4384   5.175   6.438   1.187 -1.0839 -0.6644 -1.3279
  791MOL0     H 4385   5.138   6.259   1.222 -3.5115 -2.4947  1.5152
  791MOL0     H 4386   5.081   6.391   0.983  0.0532 -1.9759 -1.3574
  791MOL0     H 4387   4.940   6.433   1.073  0.1905  0.8308  2.5991
  791MOL0     H 4388   4.867   6.216   0.983 -2.8405 -2.7443  2.7799
  791MOL0     H 4389   4.920   6.172   1.133 -0.8918 -1.0265 -1.3474
  791MOL0     H 4390   5.120   6.179   0.906  0.5494 -0.9660 -1.3072
  791MOL0     H 4391   5.161   6.112   1.058 -1.3264 -0.1042  3.4315
  791MOL0     H 4392   5.122   5.918   0.948  0.6275  1.7167 -0.9044
  791MOL0     H 4393   5.012   5.991   0.835 -0.0632 -0.0645 -0.0589
  791MOL0     H 4394   5.020   6.407   1.844 -3.3206 -0.3070  1.7478
  791MOL0     H 4395   4.912   6.293   2.027 -0.1028  0.7241 -0.6361
  791MOL0     H 4396   5.047   5.895   2.380 -0.7944  0.2140  0.3575
  791MOL0     H 4397   4.943   5.766   2.552 -1.5614 -2.0220  0.0482
  791MOL0     H 4398   5.006   5.179   4.365 -2.1912  1.2820 -0.0700
  791MOL0     H 4399   5.204   5.158   4.508  2.0861 -0.9209  0.4481
  791MOL0     H 4400   5.623   5.229   4.605 -1.3674 -0.4737  0.4522
  791MOL0     H 4401   5.773   5.194   4.803  0.3021  2.7695 -3.2815
  791MOL0     H 4402   5.792   5.054   5.021 -1.6505 -3.8420  0.0831
  791MOL0     H 4403   5.953   5.109   4.969 -2.2260  0.6470 -0.1792
  791MOL0     H 4404   6.062   4.952   5.091 -0.6925 -1.1282  2.6824
  791MOL0     H 4405   5.943   4.991   5.209  0.3544  1.3734  0.3140
  791MOL0     H 4406   5.969   4.745   5.036 -2.3674  2.1976 -2.2381
  791MOL0     H 4407   5.831   4.770   5.136  0.2337  0.7673  2.4869
  791MOL0     H 4408   6.012   4.628   5.252 -3.1112 -0.3560  0.0146
  791MOL0     H 4409   6.126   4.771   5.233 -0.6416  1.6627 -1.5496
  791MOL0     H 4410   5.855   4.815   5.568 -1.5839 -2.6572 -0.4043
  791MOL0     H 4411   5.805   4.782   4.677 -0.9586  0.6056 -2.3508
  791MOL0     H 4412   5.615   4.816   4.523 -2.4819  0.8003 -0.3577
  792MOL0     O 4413   1.146   1.917   2.897 -0.7813 -0.2123  0.6651
  792MOL0     C 4414   1.207   1.907   3.001  0.0339  0.8614  0.2202
  792MOL0     O 4415   1.202   1.799   3.077 -1.0554  0.3473 -0.2911
  792MOL0     C 4416   1.098   1.710   3.052  0.8242 -0.6109  0.3175
  792MOL0     C 4417   1.098   1.629   2.933 -0.3311 -0.7404  0.7767
  792MOL0     C 4418   0.986   1.543   2.903 -0.3411 -0.1906  0.4498
  792MOL0     C 4419   0.879   1.532   2.997 -1.7408 -0.6358  0.0723
  792MOL0     O 4420   0.760   1.474   2.963 -0.2013  0.7082 -1.0786
  792MOL0     C 4421   0.748   1.389   2.850  0.9887  0.3939 -0.3684
  792MOL0     C 4422   0.614   1.309   2.858 -0.7844 -0.4706 -0.0660
  792MOL0     C 4423   0.531   1.346   2.727  0.2731  0.5719 -0.0061
  792MOL0     C 4424   0.420   1.255   2.691 -0.5379 -0.2549 -0.5769
  792MOL0     C 4425   0.391   1.265   2.547  0.4224 -0.7457  0.0900
  792MOL0     C 4426   0.312   1.142   2.505  0.1117 -0.0984 -0.6169
  792MOL0     C 4427   0.249   1.183   2.367 -0.3922  0.1090 -0.4638
  792MOL0     C 4428   0.151   1.076   2.317 -0.0384 -0.4566 -0.2160
  792MOL0     N 4429   0.118   1.114   2.175  0.6088 -1.1485  0.9563
  792MOL0     C 4430  -0.007   1.152   2.135 -0.4366  0.6408  0.8023
  792MOL0     C 4431   0.003   1.162   1.996  0.4096  0.7236 -0.4899
  792MOL0     C 4432  -0.113   1.211   1.909 -0.0371 -0.4808  0.0292
  792MOL0     C 4433  -0.143   1.359   1.946 -0.2034 -0.0732  0.0450
  792MOL0     C 4434  -0.263   1.432   1.869 -0.0938 -0.8886 -0.6627
  792MOL0     C 4435  -0.269   1.430   1.712 -0.0699  0.0029 -0.3830
  792MOL0     O 4436  -0.346   1.542   1.675 -0.1058  1.3408  1.2576
  792MOL0     C 4437  -0.396   1.534   1.549 -0.9025 -1.4186 -0.0767
  792MOL0     C 4438  -0.528   1.507   1.519 -0.1421  0.4570  0.1219
  792MOL0     C 4439  -0.553   1.473   1.389  0.5045 -0.0475  0.5993
  792MOL0     C 4440  -0.464   1.491   1.283 -0.0647 -0.1025  0.0453
  792MOL0     C 4441  -0.510   1.448   1.152 -0.5089  0.6136 -0.4532
  792MOL0     O 4442  -0.615   1.368   1.155 -0.3058 -0.5600  0.5945
  792MOL0     C 4443  -0.678   1.333   1.040  0.0911  0.4167 -0.7958
  792MOL0     C 4444  -0.680   1.196   1.010 -0.1493  0.0918  0.5186
  792MOL0     C 4445  -0.767   1.159   0.903 -0.8047  0.1542 -0.1110
  792MOL0     C 4446  -0.835   1.255   0.826 -0.7145 -0.1805 -0.4989
  792MOL0     O 4447  -0.920   1.224   0.726 -0.0614 -0.4348  0.7492
  792MOL0     C 4448  -0.898   1.102   0.647 -0.3991 -0.6491  0.3838
  792MOL0     C 4449  -0.988   1.103   0.526  0.2664 -0.1600 -0.1789
  792MOL0     C 4450  -0.987   0.958   0.456 -0.1088 -0.3196 -0.5309
  792MOL0     C 4451  -0.976   0.828   0.533  0.1056  0.3695  0.1928
  792MOL0     C 4452  -1.086   0.807   0.650  0.1839  0.4656  0.5276
  792MOL0     C 4453  -1.071   0.663   0.712 -0.4678  0.9686  0.2086
  792MOL0     C 4454  -1.186   0.640   0.809 -0.6857 -0.1296 -1.3107
  792MOL0     C 4455  -1.168   0.517   0.899 -0.2157 -0.1536 -0.5545
  792MOL0    Cl 4456  -1.181   0.365   0.814 -0.0125  0.6311 -0.4495
  792MOL0     C 4457  -0.824   1.389   0.850  0.1706 -0.5737 -0.3286
  792MOL0     C 4458  -0.741   1.427   0.956  0.8559 -0.9893 -1.0224
  792MOL0     O 4459  -0.454   1.492   1.050  0.6247  0.3894 -0.6828
  792MOL0     C 4460  -0.335   1.543   1.305 -0.6022  0.1547  0.1039
  792MOL0     C 4461  -0.301   1.560   1.443  0.2613 -0.2458  0.3996
  792MOL0     N 4462   0.127   1.117   1.955  0.0392  0.1511 -0.7961
  792MOL0     N 4463   0.190   1.101   2.066  0.6136  0.1864  0.0848
  792MOL0     C 4464   0.887   1.607   3.115 -0.0817 -0.4129  0.4304
  792MOL0     C 4465   0.995   1.695   3.141  0.4757 -0.6118 -0.6061
  792MOL0     C 4466   1.303   2.013   3.043 -0.0420 -0.1230 -0.0335
  792MOL0     C 4467   1.391   1.989   3.146 -0.0630 -0.1360  0.3624
  792MOL0     C 4468   1.483   2.086   3.188  0.9897 -0.2967  0.3364
  792MOL0     C 4469   1.505   2.196   3.112  0.0676  0.1644  0.3869
  792MOL0     O 4470   1.603   2.291   3.139 -0.2722  1.1094  0.2865
  792MOL0     C 4471   1.637   2.334   3.271  0.5054  0.7223 -1.0497
  792MOL0     C 4472   1.515   2.390   3.350 -0.0595  0.0663  0.0292
  792MOL0     C 4473   1.461   2.520   3.284 -0.0655  0.8895 -0.3986
  792MOL0     C 4474   1.312   2.514   3.261 -0.5494  0.6526 -0.1547
  792MOL0     C 4475   1.242   2.509   3.394  0.6658 -0.6186  0.6507
  792MOL0     C 4476   1.197   2.498   3.508  0.4862 -0.1940 -0.1241
  792MOL0     C 4477   1.430   2.215   2.994  0.3812 -0.7238  0.2817
  792MOL0     C 4478   1.330   2.124   2.959  0.0880 -0.0237  0.2271
  792MOL0     H 4479   1.169   1.645   2.852 -2.9476  2.2634 -1.0993
  792MOL0     H 4480   0.989   1.497   2.805 -1.4024  1.7878 -0.5539
  792MOL0     H 4481   0.834   1.322   2.837  0.0382 -0.3789 -3.1838
  792MOL0     H 4482   0.753   1.446   2.757  1.0699  0.6523 -0.2102
  792MOL0     H 4483   0.567   1.328   2.956 -2.1129 -2.9041 -0.1532
  792MOL0     H 4484   0.616   1.200   2.862 -4.9095 -0.6748  2.0429
  792MOL0     H 4485   0.602   1.323   2.646  0.7761 -2.7226  1.1868
  792MOL0     H 4486   0.494   1.448   2.720 -0.6268  0.1650 -3.7378
  792MOL0     H 4487   0.465   1.155   2.696 -1.0717 -0.4481  1.1390
  792MOL0     H 4488   0.325   1.257   2.746  1.1731  0.5490  2.5800
  792MOL0     H 4489   0.480   1.264   2.482 -0.7126 -1.5046 -1.5046
  792MOL0     H 4490   0.339   1.361   2.539  3.4006  1.2334  2.1212
  792MOL0     H 4491   0.236   1.108   2.575 -0.3661  0.3637 -0.9003
  792MOL0     H 4492   0.382   1.059   2.493  1.3061  1.0167 -1.6678
  792MOL0     H 4493   0.196   1.279   2.368  0.7584  0.7538  0.0997
  792MOL0     H 4494   0.329   1.204   2.295 -0.5220  0.4360 -0.5152
  792MOL0     H 4495   0.055   1.072   2.369 -0.5765 -0.9582 -1.2198
  792MOL0     H 4496   0.204   0.981   2.324 -1.0613 -0.8961  3.1576
  792MOL0     H 4497  -0.086   1.195   2.195  0.5157 -0.4733  2.9625
  792MOL0     H 4498  -0.195   1.140   1.920 -0.9342  0.5462  0.0920
  792MOL0     H 4499  -0.083   1.192   1.806 -0.1768 -1.7162  0.2005
  792MOL0     H 4500  -0.057   1.427   1.950 -2.4538  3.0816 -0.6209
  792MOL0     H 4501  -0.189   1.363   2.046 -0.2623  3.0231 -0.0099
  792MOL0     H 4502  -0.355   1.387   1.908 -0.1693  0.8599  1.3643
  792MOL0     H 4503  -0.245   1.536   1.898  2.3765 -1.6626  0.8731
  792MOL0     H 4504  -0.317   1.333   1.694  0.3434 -0.1999 -0.4108
  792MOL0     H 4505  -0.171   1.430   1.663 -0.5856 -0.8001 -1.4694
  792MOL0     H 4506  -0.596   1.491   1.602  0.6760 -0.6341  0.6199
  792MOL0     H 4507  -0.654   1.435   1.375  0.5524 -0.6471  1.7614
  792MOL0     H 4508  -0.645   1.120   1.079 -2.2462 -3.1887 -1.7454
  792MOL0     H 4509  -0.785   1.055   0.877 -2.9784  0.9495 -2.0875
  792MOL0     H 4510  -0.920   1.013   0.707 -0.8255 -1.7833 -1.3756
  792MOL0     H 4511  -0.796   1.100   0.606 -0.8351  2.7983 -1.1547
  792MOL0     H 4512  -0.957   1.177   0.451 -2.9110 -0.6170 -2.1063
  792MOL0     H 4513  -1.086   1.138   0.558  2.1284  4.6502  1.2409
  792MOL0     H 4514  -0.910   0.953   0.378  0.2508  0.9752 -0.2877
  792MOL0     H 4515  -1.084   0.954   0.405  0.1537 -2.7063 -0.9210
  792MOL0     H 4516  -0.986   0.747   0.461 -2.4469  0.5175  0.2717
  792MOL0     H 4517  -0.877   0.825   0.579  0.0188  0.4115  0.3824
  792MOL0     H 4518  -1.187   0.819   0.611 -0.9787 -1.1257  2.8473
  792MOL0     H 4519  -1.084   0.871   0.739 -1.0573 -0.9830  1.6558
  792MOL0     H 4520  -0.975   0.662   0.765  1.8478  2.4337 -3.5501
  792MOL0     H 4521  -1.063   0.583   0.637  3.1769  2.4089 -1.1741
  792MOL0     H 4522  -1.193   0.730   0.871  0.2211 -0.9393  0.0169
  792MOL0     H 4523  -1.284   0.627   0.762 -0.5492 -0.8562 -1.4086
  792MOL0     H 4524  -1.242   0.520   0.979  1.2891 -1.0232  0.9550
  792MOL0     H 4525  -1.071   0.522   0.951  0.5658 -0.1103 -1.9670
  792MOL0     H 4526  -0.880   1.467   0.798  1.6723  1.3438  0.7686
  792MOL0     H 4527  -0.739   1.534   0.974 -4.7119 -0.8091  0.5668
  792MOL0     H 4528  -0.267   1.557   1.220  0.4796 -3.3382  0.2644
  792MOL0     H 4529  -0.203   1.605   1.461  0.0649  2.1012 -3.2649
  792MOL0     H 4530   0.823   1.603   3.202  0.8545  2.5556  1.3834
  792MOL0     H 4531   0.994   1.765   3.224 -2.3189 -3.1842  1.7900
  792MOL0     H 4532   1.382   1.903   3.212 -3.0009  1.3225  2.0716
  792MOL0     H 4533   1.523   2.072   3.288 -1.0095 -1.8056  0.9889
  792MOL0     H 4534   1.712   2.411   3.249  2.3368 -0.8165 -0.5078
  792MOL0     H 4535   1.692   2.253   3.320  0.4893  0.6922 -1.0818
  792MOL0     H 4536   1.442   2.309   3.357 -0.3523  0.3305  0.0702
  792MOL0     H 4537   1.550   2.412   3.451  1.5511 -0.5284 -0.3666
  792MOL0     H 4538   1.509   2.533   3.186 -1.2428 -0.5375 -1.2149
  792MOL0     H 4539   1.486   2.597   3.357  3.2062 -1.2159  0.9494
  792MOL0     H 4540   1.278   2.610   3.219 -0.6530  1.1732  1.0650
  792MOL0     H 4541   1.291   2.426   3.199  0.7442  2.0269 -2.7341
  792MOL0     H 4542   1.167   2.481   3.610 -2.7831 -2.5565 -1.3379
  792MOL0     H 4543   1.451   2.307   2.941  2.7585 -2.1523 -1.4675
  792MOL0     H 4544   1.273   2.123   2.867 -0.9707 -2.5265  0.8205
  793MOL0     O 4545   1.916  10.537   7.251 -0.5910 -0.2835  0.6907
  793MOL0     C 4546   2.023  10.536   7.208 -0.0621  0.2227  0.9049
  793MOL0     O 4547   2.078  10.635   7.125 -0.0792  0.3023 -0.9782
  793MOL0     C 4548   1.994  10.712   7.058  0.3426  0.3230 -0.8292
  793MOL0     C 4549   1.888  10.788   7.111  0.1896 -1.1020 -0.2813
  793MOL0     C 4550   1.824  10.886   7.027 -0.5625  0.5820  0.1002
  793MOL0     C 4551   1.862  10.911   6.896 -0.9249  0.5086  0.0489
  793MOL0     O 4552   1.802  10.993   6.812  0.1689 -0.3813  0.4210
  793MOL0     C 4553   1.803  11.122   6.847  0.2887 -0.1241 -0.3677
  793MOL0     C 4554   1.941  11.188   6.846 -0.3232 -0.6989 -0.5950
  793MOL0     C 4555   1.923  11.342   6.885 -0.2235 -0.3140 -0.0401
  793MOL0     C 4556   1.898  11.351   7.037 -0.3099 -0.6296 -0.6215
  793MOL0     C 4557   1.761  11.417   7.081  0.2879  0.1219  0.0441
  793MOL0     C 4558   1.759  11.569   7.040  0.1574  0.5537 -0.2844
  793MOL0     C 4559   1.612  11.629   7.050  0.6333 -0.6734  0.4183
  793MOL0     C 4560   1.546  11.626   7.188  0.4081  0.2452  0.4794
  793MOL0     N 4561   1.582  11.744   7.261  0.3855 -0.3575 -0.1923
  793MOL0     C 4562   1.502  11.846   7.320  0.2565  0.8002  0.7729
  793MOL0     C 4563   1.591  11.925   7.373 -0.4966 -0.2811  0.1010
  793MOL0     C 4564   1.562  12.046   7.451 -0.0579  1.1647  0.0733
  793MOL0     C 4565   1.529  12.008   7.606  0.0644  0.5348  0.7774
  793MOL0     C 4566   1.640  11.961   7.696 -0.8820  1.0374 -0.3226
  793MOL0     C 4567   1.776  12.032   7.664  0.8420  0.3266  0.2703
  793MOL0     O 4568   1.782  12.157   7.739 -0.0815 -0.4891  0.5016
  793MOL0     C 4569   1.721  12.265   7.685  1.3598 -0.3690  0.3700
  793MOL0     C 4570   1.613  12.320   7.757  0.0784  0.4219  1.2118
  793MOL0     C 4571   1.576  12.457   7.730  1.1797  0.9310 -0.0613
  793MOL0     C 4572   1.632  12.528   7.623 -0.8248 -0.1925 -0.0341
  793MOL0     C 4573   1.571  12.650   7.592 -0.0971 -0.0853  0.2431
  793MOL0     O 4574   1.457  12.692   7.664  0.4617  0.2476 -0.1659
  793MOL0     C 4575   1.408  12.820   7.661 -0.7235  0.2822 -0.0509
  793MOL0     C 4576   1.483  12.944   7.679  0.1155  0.2294  0.1068
  793MOL0     C 4577   1.423  13.069   7.687  0.3451 -0.3681 -0.0479
  793MOL0     C 4578   1.283  13.077   7.699 -0.6482  0.3549  0.3570
  793MOL0     O 4579   1.205  13.191   7.715 -0.2216  0.4044 -0.3776
  793MOL0     C 4580   1.266  13.320   7.706  0.1329 -0.0925 -0.2659
  793MOL0     C 4581   1.157  13.425   7.733 -0.1758  0.3746 -0.1173
  793MOL0     C 4582   1.167  13.571   7.693  0.7106 -0.7816  0.2338
  793MOL0     C 4583   1.034  13.640   7.688 -0.0777 -1.1496 -0.6689
  793MOL0     C 4584   1.050  13.793   7.675 -0.6808  0.5182 -0.9381
  793MOL0     C 4585   1.097  13.833   7.536 -0.4539  0.8354  0.2562
  793MOL0     C 4586   1.248  13.873   7.526  0.3107 -0.7756 -0.4311
  793MOL0     C 4587   1.301  13.833   7.397  0.6665  0.2626 -0.4648
  793MOL0    Cl 4588   1.199  13.874   7.248  0.1780 -0.6181  0.6528
  793MOL0     C 4589   1.203  12.955   7.684 -0.3345 -0.1208 -0.9514
  793MOL0     C 4590   1.265  12.831   7.673  0.2038 -0.3017 -0.3576
  793MOL0     O 4591   1.625  12.728   7.517  0.7682  0.0125  0.0303
  793MOL0     C 4592   1.735  12.467   7.554 -0.0487 -0.0617 -0.3381
  793MOL0     C 4593   1.783  12.335   7.582  0.4688 -0.0790 -0.4304
  793MOL0     N 4594   1.718  11.894   7.323  0.1374 -0.5912 -0.3975
  793MOL0     N 4595   1.713  11.784   7.263 -0.9822  0.8530 -0.9994
  793MOL0     C 4596   1.959  10.828   6.850  0.4864 -0.1640  0.4049
  793MOL0     C 4597   2.032  10.736   6.925  0.2588  0.5393  0.0171
  793MOL0     C 4598   2.103  10.410   7.225 -0.1864  0.0515  1.2100
  793MOL0     C 4599   2.068  10.304   7.310  0.0931  1.0461  0.4966
  793MOL0     C 4600   2.138  10.184   7.305  0.0493 -0.2684  0.4366
  793MOL0     C 4601   2.252  10.169   7.227  1.8299 -0.8103  0.4276
  793MOL0     O 4602   2.327  10.056   7.257 -0.1663  0.2940 -0.4192
  793MOL0     C 4603   2.472  10.039   7.216 -0.4724 -0.5977  1.4350
  793MOL0     C 4604   2.535   9.920   7.289 -0.0736  0.4973 -1.3846
  793MOL0     C 4605   2.541   9.937   7.445  0.0427  1.2429  0.2293
  793MOL0     C 4606   2.619   9.815   7.498  0.4615  0.0297  0.1466
  793MOL0     C 4607   2.642   9.827   7.642  0.0706 -0.1725 -0.5779
  793MOL0     C 4608   2.668   9.832   7.761  0.3020 -1.1292 -0.1019
  793MOL0     C 4609   2.296  10.282   7.154 -0.7066  0.4294  0.7481
  793MOL0     C 4610   2.219  10.401   7.151 -0.5877  0.5019 -0.3101
  793MOL0     H 4611   1.848  10.762   7.208 -0.7383 -2.0718 -0.9033
  793MOL0     H 4612   1.744  10.944   7.071 -2.0735 -0.6882 -0.8899
  793MOL0     H 4613   1.757  11.147   6.943  3.1276 -0.8569  1.2927
  793MOL0     H 4614   1.750  11.165   6.761 -1.8761 -1.9622 -0.0289
  793MOL0     H 4615   1.994  11.176   6.751 -0.6854 -1.5876 -0.6969
  793MOL0     H 4616   2.001  11.138   6.922 -0.1972 -0.2316 -0.3851
  793MOL0     H 4617   1.833  11.388   6.844  2.3794  4.3410 -1.1850
  793MOL0     H 4618   2.003  11.406   6.848 -0.2252 -0.5670 -0.4839
  793MOL0     H 4619   1.902  11.248   7.074  1.9840 -0.5929 -0.5776
  793MOL0     H 4620   1.980  11.406   7.085  0.7996 -0.5632 -2.5079
  793MOL0     H 4621   1.749  11.409   7.189  2.4857 -0.4635  0.2853
  793MOL0     H 4622   1.673  11.370   7.035  1.4835 -2.6215  0.4039
  793MOL0     H 4623   1.796  11.580   6.937  2.5696 -0.6164  0.3873
  793MOL0     H 4624   1.823  11.616   7.115 -1.6562 -0.4866  2.0158
  793MOL0     H 4625   1.587  11.732   7.020  0.1517 -0.2348  2.2008
  793MOL0     H 4626   1.542  11.562   7.001 -1.0715 -0.5060  2.4605
  793MOL0     H 4627   1.572  11.539   7.248 -1.4144 -0.5074  0.2461
  793MOL0     H 4628   1.438  11.607   7.185  0.6406 -1.3291  1.2717
  793MOL0     H 4629   1.394  11.851   7.328  0.0792  0.2384 -0.9674
  793MOL0     H 4630   1.473  12.081   7.398 -2.0483 -0.3988  2.1724
  793MOL0     H 4631   1.633  12.128   7.455  1.0073  0.2589  3.6814
  793MOL0     H 4632   1.451  11.931   7.607 -0.4826  1.0553 -0.1300
  793MOL0     H 4633   1.483  12.096   7.653 -1.0244  0.8507 -0.7874
  793MOL0     H 4634   1.607  11.972   7.799 -2.3729 -1.3973 -0.4481
  793MOL0     H 4635   1.658  11.855   7.672  1.5701  1.8667 -2.7145
  793MOL0     H 4636   1.793  12.048   7.558  0.7313 -3.0840 -0.3984
  793MOL0     H 4637   1.864  11.970   7.688  0.5982  0.2510  0.9990
  793MOL0     H 4638   1.584  12.265   7.846 -0.8026  0.1725  0.7808
  793MOL0     H 4639   1.495  12.495   7.791  1.2344  2.8130 -1.0985
  793MOL0     H 4640   1.591  12.945   7.687  0.1636 -2.3864  0.4253
  793MOL0     H 4641   1.479  13.159   7.711 -0.4953  1.2992 -3.5639
  793MOL0     H 4642   1.313  13.337   7.609  0.8155  1.9519  0.3611
  793MOL0     H 4643   1.349  13.319   7.777 -0.1036  0.5760  0.0415
  793MOL0     H 4644   1.153  13.423   7.842 -0.2806 -2.8703 -0.0838
  793MOL0     H 4645   1.062  13.393   7.689 -0.5004  2.9872 -1.5611
  793MOL0     H 4646   1.204  13.567   7.590 -4.9007 -0.7714 -2.1141
  793MOL0     H 4647   1.231  13.618   7.768 -0.6755  0.5053  0.6561
  793MOL0     H 4648   0.982  13.600   7.601  0.1621  1.6839 -2.2354
  793MOL0     H 4649   0.979  13.622   7.781 -1.0312 -2.1016 -1.4070
  793MOL0     H 4650   1.104  13.827   7.764 -0.1247 -2.7240  0.1173
  793MOL0     H 4651   0.956  13.849   7.683  0.0625  1.8221 -1.0185
  793MOL0     H 4652   1.059  13.932   7.510  1.4588  1.8886  1.1963
  793MOL0     H 4653   1.070  13.767   7.453  1.2230  0.2155  0.1714
  793MOL0     H 4654   1.254  13.981   7.541 -1.7855 -0.7377  0.5616
  793MOL0     H 4655   1.299  13.823   7.609  0.3059  0.5816  0.4184
  793MOL0     H 4656   1.333  13.729   7.400  0.5487  0.2000  3.7344
  793MOL0     H 4657   1.401  13.878   7.387  0.2306  1.2265 -0.6011
  793MOL0     H 4658   1.099  12.948   7.715 -0.4514 -1.3338 -1.5412
  793MOL0     H 4659   1.197  12.747   7.672  0.3272 -0.5707  2.9529
  793MOL0     H 4660   1.773  12.527   7.471 -0.2222  3.6324  2.0024
  793MOL0     H 4661   1.871  12.292   7.534  1.6710  2.1016 -0.3162
  793MOL0     H 4662   1.985  10.830   6.745  0.3445  0.8629  0.3758
  793MOL0     H 4663   2.119  10.683   6.885 -0.0250  0.2229 -0.1823
  793MOL0     H 4664   1.984  10.287   7.377  0.5402 -1.5357  0.5048
  793MOL0     H 4665   2.123  10.104   7.376 -1.6807 -0.8578 -0.5177
  793MOL0     H 4666   2.519  10.137   7.228 -0.3651 -0.5931  0.9787
  793MOL0     H 4667   2.458  10.020   7.110 -2.9082  2.0508  1.1560
  793MOL0     H 4668   2.469   9.840   7.254  0.3882  0.8465 -3.2083
  793MOL0     H 4669   2.636   9.888   7.258  0.0503  1.4265 -1.9950
  793MOL0     H 4670   2.446   9.942   7.498  1.7629  3.1785  3.4833
  793MOL0     H 4671   2.590  10.030   7.476  0.0295  0.9718  1.1101
  793MOL0     H 4672   2.562   9.722   7.488  3.4831 -2.2559  2.0567
  793MOL0     H 4673   2.710   9.801   7.439 -0.1521 -2.7003 -0.2883
  793MOL0     H 4674   2.687   9.838   7.866 -1.0734  0.0006  0.1125
  793MOL0     H 4675   2.386  10.284   7.093  1.4552  1.2825  3.7072
  793MOL0     H 4676   2.255  10.479   7.085 -1.2930 -0.0988 -1.4462
  794MOL0     O 4677   8.447   6.771   5.149  0.4588  0.7110  0.1552
  794MOL0     C 4678   8.547   6.837   5.182 -0.4669  0.7888 -0.4382
  794MOL0     O 4679   8.655   6.876   5.109 -0.3543  0.2872 -0.6501
  794MOL0     C 4680   8.668   6.841   4.977  0.0738 -0.0876  0.1708
  794MOL0     C 4681   8.636   6.717   4.932  0.1765  1.0091 -0.5351
  794MOL0     C 4682   8.642   6.663   4.803  0.6388 -0.9105 -0.1004
  794MOL0     C 4683   8.672   6.749   4.699  0.4537  0.1950 -0.6441
  794MOL0     O 4684   8.657   6.710   4.568 -0.3416 -0.1461  0.2170
  794MOL0     C 4685   8.538   6.635   4.526 -0.7113 -0.8542 -0.2184
  794MOL0     C 4686   8.446   6.728   4.450  0.5611 -0.1999 -0.0791
  794MOL0     C 4687   8.306   6.657   4.431  0.3405 -0.2169  0.5546
  794MOL0     C 4688   8.213   6.739   4.331  0.2999 -0.4373 -0.0142
  794MOL0     C 4689   8.069   6.696   4.342  0.2365 -0.3609  0.4797
  794MOL0     C 4690   8.042   6.550   4.328  0.3335 -1.1057  0.1531
  794MOL0     C 4691   7.896   6.513   4.302  0.5955  0.1413 -0.0770
  794MOL0     C 4692   7.880   6.379   4.228  0.5237 -0.5878  0.4166
  794MOL0     N 4693   7.816   6.404   4.097 -0.2370 -0.5272 -0.1911
  794MOL0     C 4694   7.830   6.508   4.002  0.7013 -0.5831  0.6872
  794MOL0     C 4695   7.755   6.465   3.901  0.3066  0.7267  0.1586
  794MOL0     C 4696   7.739   6.548   3.780  0.6551  0.5230  0.8253
  794MOL0     C 4697   7.707   6.702   3.818  0.6058 -1.2864 -0.4980
  794MOL0     C 4698   7.588   6.718   3.911 -0.1661 -0.5857  0.7549
  794MOL0     C 4699   7.519   6.843   3.866 -0.2403 -0.4630 -0.8569
  794MOL0     O 4700   7.413   6.842   3.772 -0.1423 -0.3673  0.6181
  794MOL0     C 4701   7.331   6.953   3.773 -0.4664 -0.4243  1.3996
  794MOL0     C 4702   7.369   7.079   3.747 -0.4931 -0.2353 -0.1231
  794MOL0     C 4703   7.282   7.192   3.762  0.4480  0.1395 -0.3964
  794MOL0     C 4704   7.148   7.168   3.775  0.2563  0.5218 -0.6605
  794MOL0     C 4705   7.051   7.275   3.755 -0.7535 -0.0334  0.2934
  794MOL0     O 4706   6.927   7.255   3.795  0.0012  0.7528 -0.0289
  794MOL0     C 4707   6.823   7.322   3.742 -0.0863  0.2269 -0.1695
  794MOL0     C 4708   6.829   7.371   3.610 -0.4369  0.5434 -0.4352
  794MOL0     C 4709   6.719   7.428   3.551  0.2629  0.0443  0.0617
  794MOL0     C 4710   6.602   7.444   3.620 -0.7150 -0.3530 -0.6084
  794MOL0     O 4711   6.497   7.502   3.565  0.5884 -0.5777  0.3965
  794MOL0     C 4712   6.453   7.434   3.442 -0.2840 -1.1580  0.0481
  794MOL0     C 4713   6.303   7.442   3.423 -0.7886 -0.7212  0.0018
  794MOL0     C 4714   6.225   7.383   3.541  0.8498 -0.0542 -0.3164
  794MOL0     C 4715   6.074   7.372   3.511  0.5134  0.3273 -0.4030
  794MOL0     C 4716   5.995   7.488   3.566 -0.9526  0.1383  0.4408
  794MOL0     C 4717   5.974   7.494   3.719  0.2272  0.2769  0.8755
  794MOL0     C 4718   5.863   7.596   3.753 -0.1639 -1.0295  0.9894
  794MOL0     C 4719   5.845   7.623   3.897  0.6776  1.1485  0.9239
  794MOL0    Cl 4720   5.711   7.734   3.934 -0.4294  0.5134 -0.2298
  794MOL0     C 4721   6.600   7.400   3.753 -0.0434  0.3014 -0.2734
  794MOL0     C 4722   6.710   7.344   3.820  0.0925  0.0980 -0.5191
  794MOL0     O 4723   7.094   7.373   3.694  0.8300  0.0874  0.2751
  794MOL0     C 4724   7.108   7.043   3.815  0.6933  0.3114  1.1115
  794MOL0     C 4725   7.196   6.930   3.810 -0.9742  0.1193  0.4166
  794MOL0     N 4726   7.692   6.351   3.935  1.8624 -0.0301 -0.7192
  794MOL0     N 4727   7.717   6.313   4.052 -1.1579 -0.6910 -0.3409
  794MOL0     C 4728   8.698   6.879   4.739  1.0529 -0.9082 -1.2674
  794MOL0     C 4729   8.691   6.934   4.874  1.0528 -0.4862 -0.6551
  794MOL0     C 4730   8.555   6.863   5.321  0.0762 -0.4959  0.2412
  794MOL0     C 4731   8.670   6.921   5.372 -0.2771 -0.2522  0.3511
  794MOL0     C 4732   8.698   6.914   5.506  0.1173 -0.1093 -0.1255
  794MOL0     C 4733   8.600   6.865   5.593  0.2441 -0.4850  0.5353
  794MOL0     O 4734   8.610   6.853   5.730  0.3181  0.7338 -0.3309
  794MOL0     C 4735   8.728   6.859   5.804 -0.2843  0.2955  0.7099
  794MOL0     C 4736   8.737   6.739   5.895  0.1755  0.0278 -0.7429
  794MOL0     C 4737   8.837   6.642   5.827  0.0228  0.6650  0.5993
  794MOL0     C 4738   8.846   6.500   5.886 -0.3399  0.0958  0.5572
  794MOL0     C 4739   8.860   6.500   6.039  0.5238  0.0487  0.1565
  794MOL0     C 4740   8.881   6.498   6.158 -0.4482 -0.4298  0.2635
  794MOL0     C 4741   8.476   6.819   5.551 -1.2388 -0.0613 -1.4292
  794MOL0     C 4742   8.456   6.817   5.416  0.2197 -0.5253  0.9259
  794MOL0     H 4743   8.609   6.643   5.007 -3.0425  0.1769 -2.3608
  794MOL0     H 4744   8.618   6.560   4.781  3.1310 -1.8568  1.1846
  794MOL0     H 4745   8.468   6.600   4.603  0.3040 -1.3732  0.4931
  794MOL0     H 4746   8.565   6.552   4.460 -0.4108 -0.6189 -0.3921
  794MOL0     H 4747   8.479   6.761   4.351 -0.2596  1.3244  0.1194
  794MOL0     H 4748   8.420   6.818   4.508 -1.9930 -1.1028  0.3079
  794MOL0     H 4749   8.264   6.649   4.532  1.7327  1.6917  1.3504
  794MOL0     H 4750   8.324   6.558   4.388 -1.6843  0.3250 -1.7452
  794MOL0     H 4751   8.220   6.841   4.369 -1.6229 -0.4673  0.5079
  794MOL0     H 4752   8.236   6.725   4.225 -3.3915 -0.6228 -0.9128
  794MOL0     H 4753   8.012   6.752   4.267  2.1609  0.8868 -0.1402
  794MOL0     H 4754   8.034   6.740   4.436 -0.0411  2.1908 -0.7272
  794MOL0     H 4755   8.088   6.491   4.408  1.9959 -1.9306 -1.3268
  794MOL0     H 4756   8.103   6.523   4.241  1.6487  0.4799  0.5129
  794MOL0     H 4757   7.865   6.501   4.406 -3.2291  0.2203 -1.0396
  794MOL0     H 4758   7.831   6.593   4.266  0.2369 -0.2862 -0.3891
  794MOL0     H 4759   7.813   6.320   4.292 -1.5034 -0.7604 -1.7055
  794MOL0     H 4760   7.978   6.331   4.219  0.8698 -0.3719  2.5563
  794MOL0     H 4761   7.896   6.591   3.983 -0.8049  0.7340  1.0337
  794MOL0     H 4762   7.661   6.497   3.723  2.2537 -1.7863  0.5567
  794MOL0     H 4763   7.826   6.541   3.714 -1.7154 -1.9745 -2.3624
  794MOL0     H 4764   7.701   6.749   3.719  2.4310 -0.8104 -0.4042
  794MOL0     H 4765   7.778   6.768   3.867 -1.0906  0.3037 -0.0846
  794MOL0     H 4766   7.521   6.632   3.902 -2.7169  1.5105 -3.4795
  794MOL0     H 4767   7.620   6.742   4.013  0.1237  1.1956  0.2785
  794MOL0     H 4768   7.593   6.907   3.817  1.4680 -0.0816  1.9951
  794MOL0     H 4769   7.484   6.893   3.957  2.5171 -3.3776  2.0813
  794MOL0     H 4770   7.475   7.080   3.725 -0.7855 -3.1071 -2.3942
  794MOL0     H 4771   7.320   7.292   3.743 -2.3728  1.5941  1.0242
  794MOL0     H 4772   6.901   7.343   3.533 -1.1093 -0.0576 -0.8576
  794MOL0     H 4773   6.727   7.457   3.447 -1.7775  1.0014  0.1375
  794MOL0     H 4774   6.468   7.326   3.439 -1.7407 -1.5053  2.4395
  794MOL0     H 4775   6.513   7.471   3.358 -0.7932 -0.8459 -0.1801
  794MOL0     H 4776   6.279   7.389   3.331 -3.8530  0.1399  0.1970
  794MOL0     H 4777   6.270   7.546   3.410  2.3681  0.5705  1.1895
  794MOL0     H 4778   6.253   7.435   3.633 -1.5924 -0.3174  0.6347
  794MOL0     H 4779   6.245   7.275   3.549  0.3126 -0.2558 -1.5963
  794MOL0     H 4780   6.049   7.377   3.405 -5.3573  1.5340  0.7053
  794MOL0     H 4781   6.031   7.277   3.545  3.5807 -0.9649  0.2265
  794MOL0     H 4782   5.898   7.492   3.517  0.7176  0.1464 -3.1565
  794MOL0     H 4783   6.046   7.581   3.542 -3.8760  2.8924  3.8331
  794MOL0     H 4784   6.068   7.531   3.761  2.5559 -1.7670 -2.1789
  794MOL0     H 4785   5.948   7.396   3.758 -0.1080 -0.5712 -1.3824
  794MOL0     H 4786   5.892   7.683   3.694  0.6565 -3.5351 -2.5980
  794MOL0     H 4787   5.772   7.554   3.709  0.3097 -0.4608 -0.5864
  794MOL0     H 4788   5.931   7.668   3.947 -0.1500 -1.3255  4.9577
  794MOL0     H 4789   5.826   7.529   3.949  2.7819  0.4243  0.4857
  794MOL0     H 4790   6.508   7.418   3.807 -1.2084 -1.8375 -1.4166
  794MOL0     H 4791   6.693   7.315   3.923  1.7601 -0.3925 -0.3597
  794MOL0     H 4792   7.003   7.017   3.817  0.4596  1.0883  0.0929
  794MOL0     H 4793   7.153   6.832   3.828 -0.6218  0.3002  2.4469
  794MOL0     H 4794   8.721   6.936   4.650 -3.2242  2.6250 -0.4336
  794MOL0     H 4795   8.704   7.038   4.900 -1.7390  0.0484 -1.0783
  794MOL0     H 4796   8.736   6.978   5.307 -2.4108  0.6120 -1.1651
  794MOL0     H 4797   8.794   6.943   5.547 -1.1076  1.4000  1.8706
  794MOL0     H 4798   8.721   6.950   5.865  1.0196  1.5849 -0.9321
  794MOL0     H 4799   8.817   6.862   5.739 -0.0545 -1.2798  0.9173
  794MOL0     H 4800   8.771   6.766   5.995 -1.7452 -0.5495  0.1102
  794MOL0     H 4801   8.639   6.694   5.912  1.1760 -0.6659  4.8635
  794MOL0     H 4802   8.939   6.681   5.829  0.5902 -0.7408  2.5537
  794MOL0     H 4803   8.812   6.632   5.721 -0.8869 -0.5383  0.9046
  794MOL0     H 4804   8.762   6.445   5.845 -0.0025  2.4236 -3.8446
  794MOL0     H 4805   8.936   6.446   5.856 -1.8557 -3.1037  1.3025
  794MOL0     H 4806   8.899   6.523   6.260  1.5461  0.0985 -0.1673
  794MOL0     H 4807   8.416   6.780   5.632 -3.5410 -0.3104 -3.1510
  794MOL0     H 4808   8.364   6.767   5.386 -1.6262  0.3952  4.5408
  795MOL0     O 4809   8.379   8.354   7.240  0.6959 -0.2249 -0.3586
  795MOL0     C 4810   8.460   8.401   7.160 -0.1681 -0.1630 -0.2578
  795MOL0     O 4811   8.442   8.521   7.095  0.3817 -0.7619 -0.1494
  795MOL0     C 4812   8.309   8.551   7.074 -0.4166 -0.3536  0.6819
  795MOL0     C 4813   8.250   8.650   7.150 -0.2402  0.4529 -0.0596
  795MOL0     C 4814   8.116   8.687   7.127 -0.2062 -0.3542  0.3515
  795MOL0     C 4815   8.044   8.633   7.017  0.0626 -0.1987 -1.0014
  795MOL0     O 4816   7.913   8.651   6.999  0.0466 -0.5551  0.1130
  795MOL0     C 4817   7.868   8.700   6.872  0.9155  0.4617  0.4644
  795MOL0     C 4818   7.919   8.840   6.843  1.4749 -0.5028  0.0369
  795MOL0     C 4819   8.069   8.848   6.805  0.3361 -0.3357  0.3048
  795MOL0     C 4820   8.089   8.973   6.732 -0.3480 -0.6009  0.1570
  795MOL0     C 4821   8.237   9.015   6.710 -0.2506 -0.1037 -0.8254
  795MOL0     C 4822   8.323   8.902   6.667 -0.6266  0.6087 -1.2756
  795MOL0     C 4823   8.460   8.962   6.653 -0.0678 -0.0699 -0.1883
  795MOL0     C 4824   8.568   8.857   6.611 -0.3492  0.4089 -0.8844
  795MOL0     N 4825   8.704   8.886   6.673  0.0231  0.5927  0.0005
  795MOL0     C 4826   8.787   8.993   6.650 -0.9069  0.1787 -0.3699
  795MOL0     C 4827   8.890   8.990   6.738 -1.1871  0.1414 -0.2970
  795MOL0     C 4828   9.014   9.080   6.743 -0.3906  0.5278  0.9772
  795MOL0     C 4829   8.996   9.226   6.773 -0.8397  0.2043  0.8110
  795MOL0     C 4830   8.935   9.251   6.918  0.2188 -0.0575 -0.1313
  795MOL0     C 4831   8.793   9.320   6.910  0.4928  0.6172 -0.0365
  795MOL0     O 4832   8.705   9.249   6.815  0.3352  0.1902  0.1656
  795MOL0     C 4833   8.580   9.321   6.800  0.1489  0.1223 -0.4740
  795MOL0     C 4834   8.495   9.356   6.911  0.8299  0.0006  0.0640
  795MOL0     C 4835   8.397   9.460   6.888 -1.2303  0.8687  0.2020
  795MOL0     C 4836   8.347   9.483   6.759 -0.3694 -0.0335 -0.8726
  795MOL0     C 4837   8.240   9.581   6.729 -0.6399 -0.2017  0.1536
  795MOL0     O 4838   8.193   9.573   6.606  0.4392 -0.2699  0.4757
  795MOL0     C 4839   8.094   9.661   6.556  0.8516 -0.0188 -0.3820
  795MOL0     C 4840   7.979   9.609   6.488  0.2578  0.2577 -0.2631
  795MOL0     C 4841   7.875   9.691   6.445  0.0089 -0.1846  0.1942
  795MOL0     C 4842   7.879   9.833   6.459  0.5651 -0.3449 -0.4754
  795MOL0     O 4843   7.771   9.912   6.420 -0.2225  0.1628  0.3376
  795MOL0     C 4844   7.722  10.001   6.521  0.4826 -0.4330 -0.9266
  795MOL0     C 4845   7.568  10.012   6.522  0.2834 -0.1033 -1.0386
  795MOL0     C 4846   7.510  10.020   6.389 -0.4516 -0.2534  0.6815
  795MOL0     C 4847   7.359  10.020   6.378  0.3363 -0.5114  1.0139
  795MOL0     C 4848   7.314  10.055   6.236  0.7081  0.5234  0.0244
  795MOL0     C 4849   7.201   9.973   6.177  0.4426  0.0890 -0.9834
  795MOL0     C 4850   7.213   9.969   6.025  0.5548 -0.1582  0.2307
  795MOL0     C 4851   7.103   9.891   5.956 -0.1256 -0.0108  0.1019
  795MOL0    Cl 4852   6.935   9.942   6.003  0.0692  0.0389  0.4949
  795MOL0     C 4853   7.989   9.886   6.530  0.0571  1.6103 -0.1859
  795MOL0     C 4854   8.098   9.804   6.575 -0.4611  0.7329 -1.1134
  795MOL0     O 4855   8.204   9.667   6.814  0.8579 -0.2252  0.3414
  795MOL0     C 4856   8.412   9.417   6.650  0.0587 -0.1324  1.1444
  795MOL0     C 4857   8.524   9.342   6.673  0.3398  0.0648  0.2991
  795MOL0     N 4858   8.868   8.886   6.825  0.4861  0.0315  0.5389
  795MOL0     N 4859   8.764   8.818   6.781 -0.6542 -0.3260  0.8431
  795MOL0     C 4860   8.110   8.545   6.922  0.5281 -0.1241 -0.3700
  795MOL0     C 4861   8.239   8.505   6.955  0.2236 -0.3868  0.4924
  795MOL0     C 4862   8.596   8.333   7.147  0.1861 -1.1335  0.6211
  795MOL0     C 4863   8.706   8.388   7.073 -0.9808  1.0040 -0.2413
  795MOL0     C 4864   8.837   8.333   7.096  0.2014  0.7035  0.0990
  795MOL0     C 4865   8.847   8.214   7.162 -0.3836 -0.1721  0.4465
  795MOL0     O 4866   8.973   8.161   7.178  0.4000 -0.2210 -0.2743
  795MOL0     C 4867   8.990   8.064   7.074 -0.6252  0.0885 -0.2335
  795MOL0     C 4868   9.125   7.991   7.114  1.2819 -1.0140 -0.1192
  795MOL0     C 4869   9.234   8.089   7.153 -1.9133 -1.0890 -0.7812
  795MOL0     C 4870   9.370   8.017   7.177 -0.1030  0.0488 -1.4872
  795MOL0     C 4871   9.465   8.120   7.214  0.2398 -0.5095 -0.1410
  795MOL0     C 4872   9.535   8.208   7.253  1.2553  0.4771  0.1433
  795MOL0     C 4873   8.744   8.166   7.233 -0.2727  0.5503 -0.7336
  795MOL0     C 4874   8.614   8.216   7.226 -0.3371 -0.0783  0.0822
  795MOL0     H 4875   8.310   8.697   7.227 -1.5436 -0.9210  1.9083
  795MOL0     H 4876   8.049   8.748   7.186  0.1528  0.2242  0.1699
  795MOL0     H 4877   7.760   8.712   6.882  0.9869 -0.7531  3.6673
  795MOL0     H 4878   7.881   8.630   6.789 -0.1187  2.5059 -1.5527
  795MOL0     H 4879   7.895   8.904   6.929 -0.7842 -1.5260  0.2156
  795MOL0     H 4880   7.862   8.861   6.752 -0.2972  0.1945  1.2581
  795MOL0     H 4881   8.103   8.767   6.740  2.9495  0.4931  0.5341
  795MOL0     H 4882   8.123   8.833   6.899 -2.4682 -2.2844  1.7360
  795MOL0     H 4883   8.043   8.973   6.633  1.9492 -3.1154 -1.0342
  795MOL0     H 4884   8.026   9.046   6.784  0.0807  0.4520 -0.7544
  795MOL0     H 4885   8.286   9.063   6.795 -0.9738 -1.3746  0.3554
  795MOL0     H 4886   8.237   9.089   6.630  1.6141  1.5996  0.6471
  795MOL0     H 4887   8.278   8.850   6.582 -4.4347 -1.4937  1.6817
  795MOL0     H 4888   8.335   8.822   6.741 -0.5806  1.0376 -0.8100
  795MOL0     H 4889   8.465   9.042   6.579  1.3338  0.9419  0.9276
  795MOL0     H 4890   8.482   9.011   6.749 -1.1001  1.7049 -0.8181
  795MOL0     H 4891   8.583   8.859   6.503  1.8032 -2.5260 -0.7609
  795MOL0     H 4892   8.547   8.753   6.638  2.5478 -0.3426 -1.2067
  795MOL0     H 4893   8.781   9.064   6.568  0.9400 -0.1603 -0.8398
  795MOL0     H 4894   9.073   9.069   6.651  1.9382 -0.8452  2.5114
  795MOL0     H 4895   9.076   9.038   6.823  0.8586 -3.6100 -1.7853
  795MOL0     H 4896   8.928   9.277   6.704  1.2611  2.4075  0.2629
  795MOL0     H 4897   9.097   9.266   6.770 -1.3333  1.5911  1.6714
  795MOL0     H 4898   8.923   9.153   6.965 -0.5799  0.3797  0.5929
  795MOL0     H 4899   9.006   9.312   6.975 -0.3120 -0.2667  0.7610
  795MOL0     H 4900   8.816   9.423   6.881  2.7656 -0.0592 -0.8007
  795MOL0     H 4901   8.751   9.331   7.011  1.7290 -1.3753  0.7371
  795MOL0     H 4902   8.516   9.319   7.011  0.6373  0.4205  0.2634
  795MOL0     H 4903   8.337   9.497   6.970 -0.9329 -0.1963  0.9124
  795MOL0     H 4904   7.956   9.503   6.489 -0.0664  0.2992  1.7004
  795MOL0     H 4905   7.780   9.659   6.404  0.8578 -2.6122 -0.0647
  795MOL0     H 4906   7.776  10.096   6.512  3.6050 -2.1502 -1.5852
  795MOL0     H 4907   7.759   9.983   6.622 -0.1546 -0.7584 -0.7483
  795MOL0     H 4908   7.553  10.108   6.572  0.8495  0.5787 -2.1396
  795MOL0     H 4909   7.526   9.921   6.567  1.0946 -0.7682 -1.5906
  795MOL0     H 4910   7.554   9.945   6.322  0.5479  2.2055 -1.6045
  795MOL0     H 4911   7.536  10.118   6.347  1.5839  0.8914  4.1149
  795MOL0     H 4912   7.326   9.916   6.388 -0.0302 -0.3191  2.0278
  795MOL0     H 4913   7.309  10.076   6.457 -2.0352 -2.7554  1.2672
  795MOL0     H 4914   7.403  10.037   6.176  1.4434  0.0911  1.2161
  795MOL0     H 4915   7.304  10.163   6.229 -0.0071  0.6436  2.0748
  795MOL0     H 4916   7.103  10.007   6.212  1.6519  1.6650  1.1244
  795MOL0     H 4917   7.200   9.876   6.226 -0.0185 -0.1007 -1.3555
  795MOL0     H 4918   7.220  10.058   5.962  2.2917 -1.8981 -2.2376
  795MOL0     H 4919   7.309   9.920   6.006  0.8434  0.9320 -1.2775
  795MOL0     H 4920   7.099   9.782   5.972 -3.0584 -0.6091 -3.5185
  795MOL0     H 4921   7.123   9.897   5.849  3.9778 -1.7936  0.5560
  795MOL0     H 4922   7.994   9.995   6.530  0.1441  1.6082 -0.5837
  795MOL0     H 4923   8.172   9.839   6.647  0.2524 -2.3915 -0.1648
  795MOL0     H 4924   8.372   9.443   6.552 -0.9265  0.1333  1.5957
  795MOL0     H 4925   8.578   9.300   6.588 -0.0133 -3.6447  1.7243
  795MOL0     H 4926   8.059   8.503   6.835  0.5833 -0.6980 -0.1279
  795MOL0     H 4927   8.302   8.433   6.904 -0.4386 -0.0297 -0.8764
  795MOL0     H 4928   8.699   8.491   7.041 -0.3879  0.6165 -1.6784
  795MOL0     H 4929   8.922   8.390   7.059  1.9277 -1.2486  0.8782
  795MOL0     H 4930   9.007   8.130   6.989  1.4289  0.4805  0.4291
  795MOL0     H 4931   8.897   8.006   7.075 -0.5776  0.0026  1.2306
  795MOL0     H 4932   9.111   7.928   7.202  1.4125  0.8959  1.3486
  795MOL0     H 4933   9.145   7.925   7.029 -0.7369  0.1055 -1.5898
  795MOL0     H 4934   9.206   8.140   7.245 -0.1970  0.3077 -0.9537
  795MOL0     H 4935   9.250   8.177   7.088 -1.3111 -0.8381 -0.3069
  795MOL0     H 4936   9.366   7.948   7.261  1.1920 -1.1804 -2.3773
  795MOL0     H 4937   9.397   7.965   7.084  0.0680 -1.1807 -0.7553
  795MOL0     H 4938   9.598   8.294   7.266  0.2815  0.9509  1.9324
  795MOL0     H 4939   8.765   8.078   7.294 -1.1051  0.1800 -0.9709
  795MOL0     H 4940   8.543   8.168   7.293 -0.1665 -1.1229 -0.4572
  796MOL0     O 4941   3.666   8.212   5.197  0.0894  0.2283 -0.4256
  796MOL0     C 4942   3.677   8.329   5.155  0.0729  0.4735 -0.6126
  796MOL0     O 4943   3.715   8.357   5.033 -0.4188  0.3098 -0.7199
  796MOL0     C 4944   3.725   8.259   4.934  0.0001 -0.9872 -0.3990
  796MOL0     C 4945   3.800   8.294   4.823 -0.0998 -0.6984  1.1096
  796MOL0     C 4946   3.812   8.205   4.722  0.0914  0.6916  0.0258
  796MOL0     C 4947   3.734   8.084   4.702 -0.4376 -0.1849  0.4370
  796MOL0     O 4948   3.755   8.006   4.594  0.8464 -0.3555 -0.1166
  796MOL0     C 4949   3.792   7.872   4.624 -0.4878  1.0555 -0.5247
  796MOL0     C 4950   3.871   7.789   4.510 -0.1656  0.0183  0.2980
  796MOL0     C 4951   3.841   7.827   4.359 -0.2590  0.7598  0.1244
  796MOL0     C 4952   3.690   7.795   4.346 -0.2988 -0.9346 -0.4813
  796MOL0     C 4953   3.643   7.847   4.218 -0.1660  0.6515  0.9524
  796MOL0     C 4954   3.524   7.769   4.164 -0.0342 -0.1772 -0.5921
  796MOL0     C 4955   3.542   7.637   4.110 -0.2593  0.3122 -0.4783
  796MOL0     C 4956   3.427   7.584   4.026  0.4880 -0.2059  0.2240
  796MOL0     N 4957   3.303   7.561   4.108  0.1630 -0.2974 -0.6685
  796MOL0     C 4958   3.270   7.434   4.160  0.2056 -0.0783  0.4248
  796MOL0     C 4959   3.163   7.468   4.232  1.5378 -0.7641 -0.3736
  796MOL0     C 4960   3.080   7.379   4.311 -0.1490  0.3447 -0.6695
  796MOL0     C 4961   3.173   7.308   4.413 -0.4353 -0.2058  1.0143
  796MOL0     C 4962   3.087   7.212   4.497 -0.3167  0.1178  0.4785
  796MOL0     C 4963   3.162   7.169   4.620  0.1188 -0.0619  0.0066
  796MOL0     O 4964   3.187   7.282   4.712  0.3888  0.6042  1.3723
  796MOL0     C 4965   3.270   7.264   4.818 -0.4591 -0.1027  0.6856
  796MOL0     C 4966   3.271   7.378   4.898 -0.7815  1.0032  0.0194
  796MOL0     C 4967   3.341   7.384   5.019  0.5566 -1.0967  0.0423
  796MOL0     C 4968   3.433   7.279   5.052  0.5402  0.3837 -0.9016
  796MOL0     C 4969   3.515   7.284   5.166  0.5337  1.3802 -0.1985
  796MOL0     O 4970   3.632   7.217   5.155 -0.2204  0.4766 -0.5979
  796MOL0     C 4971   3.724   7.234   5.256  1.2396  0.1024 -0.6376
  796MOL0     C 4972   3.785   7.353   5.290  0.0320  0.0805 -0.2647
  796MOL0     C 4973   3.884   7.357   5.386 -0.3635  0.2667 -0.0734
  796MOL0     C 4974   3.928   7.241   5.447 -0.3933  0.7238 -0.6472
  796MOL0     O 4975   4.032   7.247   5.541  0.4596  0.1521  0.9832
  796MOL0     C 4976   4.168   7.260   5.496 -0.3216  0.4757 -0.3295
  796MOL0     C 4977   4.250   7.314   5.601  0.4289 -0.3194  0.1216
  796MOL0     C 4978   4.238   7.466   5.611 -0.0832 -1.1077 -0.3484
  796MOL0     C 4979   4.339   7.510   5.724 -1.3308 -0.8461  0.9515
  796MOL0     C 4980   4.355   7.659   5.717  0.1495 -0.3482 -0.2444
  796MOL0     C 4981   4.418   7.739   5.828 -0.3285 -0.3236 -0.6241
  796MOL0     C 4982   4.448   7.889   5.770  0.1516  0.6183 -0.4209
  796MOL0     C 4983   4.470   7.995   5.872  0.4640  0.6092 -0.2981
  796MOL0    Cl 4984   4.646   7.987   5.916  0.0386  0.2348 -0.0879
  796MOL0     C 4985   3.881   7.116   5.401  0.0812 -0.2397 -0.6598
  796MOL0     C 4986   3.771   7.121   5.313 -0.2728  0.7279  0.1911
  796MOL0     O 4987   3.479   7.329   5.272  0.3363 -0.0596  0.8239
  796MOL0     C 4988   3.420   7.157   4.978  0.5671 -0.1932  0.3059
  796MOL0     C 4989   3.337   7.153   4.867 -0.5692 -0.3899 -0.2784
  796MOL0     N 4990   3.126   7.606   4.212 -0.2867 -0.5197 -0.2759
  796MOL0     N 4991   3.212   7.654   4.132  0.1376 -1.8045  0.1736
  796MOL0     C 4992   3.643   8.059   4.808 -0.8007 -0.2412  0.2165
  796MOL0     C 4993   3.647   8.140   4.920  0.0760  0.2338  0.1733
  796MOL0     C 4994   3.656   8.448   5.248  0.9605  0.3914 -0.8726
  796MOL0     C 4995   3.619   8.433   5.378 -0.1634 -0.0927 -0.4547
  796MOL0     C 4996   3.594   8.549   5.460 -0.0559  0.7957  1.0224
  796MOL0     C 4997   3.586   8.676   5.404 -0.5322  0.6158  0.4230
  796MOL0     O 4998   3.566   8.794   5.467  0.8092  0.0693  0.2912
  796MOL0     C 4999   3.469   8.786   5.573  0.3836 -0.9338  0.5282
  796MOL0     C 5000   3.534   8.798   5.708 -0.1717  0.6823 -0.1372
  796MOL0     C 5001   3.440   8.774   5.825 -0.3555 -0.0505  0.6292
  796MOL0     C 5002   3.308   8.853   5.840 -0.2182 -0.0754  0.9528
  796MOL0     C 5003   3.352   8.987   5.811 -0.4701  0.1572  1.0070
  796MOL0     C 5004   3.397   9.102   5.798  0.0029  0.8148 -0.2653
  796MOL0     C 5005   3.625   8.681   5.271 -0.0558 -0.6551  0.3290
  796MOL0     C 5006   3.654   8.575   5.191 -0.6506  0.3492 -0.4148
  796MOL0     H 5007   3.871   8.376   4.818  0.7113 -1.2076  3.3357
  796MOL0     H 5008   3.880   8.233   4.642  2.9884  0.8783  2.3873
  796MOL0     H 5009   3.701   7.819   4.651  1.5408 -2.0615  0.8424
  796MOL0     H 5010   3.857   7.870   4.712 -0.8914 -2.1214 -0.1819
  796MOL0     H 5011   3.856   7.681   4.515  0.3028 -0.1073 -0.6896
  796MOL0     H 5012   3.977   7.803   4.531 -0.4309 -1.2541  2.7343
  796MOL0     H 5013   3.895   7.758   4.294 -2.1061 -1.4978  0.8600
  796MOL0     H 5014   3.870   7.931   4.341 -1.3422  1.6282  2.8639
  796MOL0     H 5015   3.673   7.687   4.347  2.8640 -1.5207  0.4788
  796MOL0     H 5016   3.624   7.832   4.424 -1.2379  0.0442 -1.6850
  796MOL0     H 5017   3.722   7.837   4.143 -1.9228  2.0049 -1.2243
  796MOL0     H 5018   3.613   7.951   4.235  1.4942  1.4216 -0.5261
  796MOL0     H 5019   3.493   7.847   4.094  2.2471  0.8328 -0.5549
  796MOL0     H 5020   3.442   7.758   4.236  0.1776  0.1950 -0.2935
  796MOL0     H 5021   3.622   7.647   4.037 -0.6427 -1.2723 -1.1676
  796MOL0     H 5022   3.555   7.556   4.183 -2.9354 -1.0786 -1.3889
  796MOL0     H 5023   3.452   7.482   3.996 -1.4910 -1.9774  3.8691
  796MOL0     H 5024   3.404   7.643   3.937 -0.8094  1.5395  1.6516
  796MOL0     H 5025   3.323   7.341   4.140  1.2457  1.1218 -3.3122
  796MOL0     H 5026   3.030   7.300   4.253 -2.3054  1.1203  0.0200
  796MOL0     H 5027   3.007   7.433   4.372  1.3269 -1.1895  2.7367
  796MOL0     H 5028   3.224   7.378   4.479  1.1896 -2.6777  2.5455
  796MOL0     H 5029   3.248   7.249   4.360  0.0674  2.1262 -1.0058
  796MOL0     H 5030   2.994   7.264   4.522 -1.1264 -1.1515  0.2199
  796MOL0     H 5031   3.056   7.123   4.441  1.2092 -0.8207  1.0796
  796MOL0     H 5032   3.260   7.132   4.586 -0.0039 -1.8267  1.4409
  796MOL0     H 5033   3.102   7.093   4.671 -0.7028 -1.4822 -2.8668
  796MOL0     H 5034   3.202   7.458   4.872 -0.5042  1.1323 -0.3366
  796MOL0     H 5035   3.337   7.478   5.074 -0.2893 -0.6495 -0.7521
  796MOL0     H 5036   3.750   7.446   5.245  1.2916  2.7153  3.6590
  796MOL0     H 5037   3.930   7.453   5.409 -2.0258  1.1638 -0.3067
  796MOL0     H 5038   4.171   7.323   5.407 -3.0091  2.9305  1.1369
  796MOL0     H 5039   4.217   7.165   5.475 -0.2226  0.9125 -2.2127
  796MOL0     H 5040   4.355   7.286   5.585  1.8157  1.4270  4.6069
  796MOL0     H 5041   4.234   7.257   5.693  0.7823 -3.5577 -1.6799
  796MOL0     H 5042   4.133   7.489   5.631 -0.2198 -3.1324  1.5919
  796MOL0     H 5043   4.263   7.516   5.516 -0.8808 -4.2967 -2.3799
  796MOL0     H 5044   4.289   7.479   5.816 -3.4816 -3.4252 -0.9335
  796MOL0     H 5045   4.440   7.471   5.708 -0.5091  1.3985  0.2729
  796MOL0     H 5046   4.255   7.700   5.697  0.5484  0.7372 -0.1048
  796MOL0     H 5047   4.417   7.673   5.628 -2.3224  1.2034 -1.8737
  796MOL0     H 5048   4.501   7.689   5.879 -3.0741 -0.8178  3.9877
  796MOL0     H 5049   4.348   7.744   5.912  0.9032 -0.5899  0.4585
  796MOL0     H 5050   4.524   7.889   5.691 -1.1913  2.5537 -1.8119
  796MOL0     H 5051   4.353   7.916   5.723 -0.9924  0.7222  1.8172
  796MOL0     H 5052   4.412   7.973   5.962 -1.7660 -0.2305 -1.8646
  796MOL0     H 5053   4.445   8.094   5.833 -1.0070 -0.1728 -1.3956
  796MOL0     H 5054   3.934   7.029   5.439  1.6579 -0.9627 -4.1121
  796MOL0     H 5055   3.730   7.030   5.269 -1.2576  2.8665 -3.7637
  796MOL0     H 5056   3.470   7.066   5.007  1.5089  0.4320  0.7070
  796MOL0     H 5057   3.338   7.063   4.806 -0.8001 -0.2213 -0.5307
  796MOL0     H 5058   3.564   7.986   4.823 -2.1598  0.8982 -1.0173
  796MOL0     H 5059   3.569   8.117   4.991  0.4541  0.7162  0.7600
  796MOL0     H 5060   3.628   8.343   5.437  2.0045  1.4827  1.8772
  796MOL0     H 5061   3.567   8.527   5.562 -0.5229 -0.4585  0.6508
  796MOL0     H 5062   3.403   8.699   5.566  0.5609 -1.4882  3.8056
  796MOL0     H 5063   3.401   8.872   5.564  1.7716  0.3611  1.6933
  796MOL0     H 5064   3.611   8.720   5.710  0.4590  1.2218 -1.6288
  796MOL0     H 5065   3.600   8.885   5.722  1.8713 -0.3637 -2.5631
  796MOL0     H 5066   3.492   8.808   5.916 -2.0803  1.8282  0.9871
  796MOL0     H 5067   3.414   8.668   5.824 -2.5858  0.4390 -1.4868
  796MOL0     H 5068   3.227   8.823   5.773 -1.5540 -1.4855  3.0653
  796MOL0     H 5069   3.271   8.847   5.943 -1.9394 -0.5820  0.3435
  796MOL0     H 5070   3.428   9.201   5.828  1.8564 -0.1456  1.2518
  796MOL0     H 5071   3.621   8.781   5.230  1.4163 -0.1850  1.2443
  796MOL0     H 5072   3.688   8.582   5.088 -0.8804 -1.1555 -0.6214
  797MOL0     O 5073   4.826   3.564   3.961  0.9372 -0.1328  0.0986
  797MOL0     C 5074   4.886   3.657   3.914 -0.2298  0.4530 -0.0653
  797MOL0     O 5075   4.838   3.781   3.905 -0.3694 -0.3653  0.5109
  797MOL0     C 5076   4.740   3.817   3.995  0.7837  0.7778 -1.1270
  797MOL0     C 5077   4.615   3.850   3.950 -0.0302 -0.4272 -0.0620
  797MOL0     C 5078   4.516   3.907   4.032  0.3224 -0.8068 -0.1355
  797MOL0     C 5079   4.551   3.932   4.167 -0.2918  0.9424  0.3527
  797MOL0     O 5080   4.453   3.981   4.244 -0.6761 -0.5902 -0.0323
  797MOL0     C 5081   4.439   3.895   4.359  0.0285  0.8634 -0.2128
  797MOL0     C 5082   4.292   3.894   4.410  0.5464  0.2571  0.6128
  797MOL0     C 5083   4.293   3.820   4.546 -0.5528 -0.2473 -0.6009
  797MOL0     C 5084   4.152   3.794   4.596 -0.7413  0.3443  0.3788
  797MOL0     C 5085   4.080   3.933   4.625 -0.3761  0.9656 -0.4857
  797MOL0     C 5086   3.961   3.908   4.717  0.0073  1.0455  0.1146
  797MOL0     C 5087   3.850   3.814   4.663 -0.9962  0.3609 -0.1264
  797MOL0     C 5088   3.795   3.867   4.526  0.1555 -0.4105  0.5401
  797MOL0     N 5089   3.717   3.756   4.468  0.1790  0.4387 -0.3691
  797MOL0     C 5090   3.590   3.705   4.497  0.5023  0.4610 -0.0241
  797MOL0     C 5091   3.546   3.632   4.389 -0.6438 -0.0853  0.7095
  797MOL0     C 5092   3.417   3.567   4.376  0.1644 -0.0876  0.4628
  797MOL0     C 5093   3.392   3.452   4.475  0.2606 -1.7937  0.5843
  797MOL0     C 5094   3.248   3.398   4.468 -0.2688 -0.6560  0.8448
  797MOL0     C 5095   3.258   3.259   4.534  0.2046  0.0897 -0.0986
  797MOL0     O 5096   3.146   3.182   4.499  0.4520 -0.5859 -0.0231
  797MOL0     C 5097   3.041   3.178   4.585  0.5603 -0.0848 -0.0568
  797MOL0     C 5098   3.027   3.274   4.691  0.3746 -1.1543  0.0581
  797MOL0     C 5099   2.908   3.264   4.772  0.4853 -0.6117 -0.7560
  797MOL0     C 5100   2.809   3.166   4.767 -0.5260  0.0703  0.4382
  797MOL0     C 5101   2.687   3.170   4.849 -1.2154 -0.3216 -0.3344
  797MOL0     O 5102   2.665   3.296   4.896 -0.1648  0.9019 -0.3370
  797MOL0     C 5103   2.590   3.327   5.004  0.3433  0.4422 -0.8347
  797MOL0     C 5104   2.535   3.449   5.014  0.7751  1.0638 -0.1015
  797MOL0     C 5105   2.444   3.474   5.117 -0.0467  0.8665 -0.6548
  797MOL0     C 5106   2.424   3.380   5.218 -0.4990  0.9804  0.6463
  797MOL0     O 5107   2.328   3.425   5.303 -0.3362  0.7675 -0.6920
  797MOL0     C 5108   2.271   3.318   5.383 -0.5597  0.4353  0.2760
  797MOL0     C 5109   2.182   3.385   5.482 -0.2779  0.3862 -0.5868
  797MOL0     C 5110   2.269   3.473   5.571  0.4301 -0.2121  1.3280
  797MOL0     C 5111   2.198   3.516   5.701  0.7481 -0.2120  0.1185
  797MOL0     C 5112   2.056   3.576   5.688  0.2345 -0.1103  1.0772
  797MOL0     C 5113   2.067   3.712   5.620 -0.6600 -0.1041  0.4304
  797MOL0     C 5114   1.939   3.771   5.570 -0.1306  1.2229  1.0695
  797MOL0     C 5115   1.902   3.697   5.441  0.4655  0.6036 -0.1694
  797MOL0    Cl 5116   2.021   3.768   5.313 -0.2548 -0.1543 -0.2408
  797MOL0     C 5117   2.497   3.262   5.225  0.5181  0.1279  0.6271
  797MOL0     C 5118   2.569   3.228   5.102 -0.4526 -0.8492  0.0977
  797MOL0     O 5119   2.616   3.068   4.870  0.6818  0.1439 -0.2951
  797MOL0     C 5120   2.834   3.072   4.666  0.4422 -0.9057  0.3776
  797MOL0     C 5121   2.942   3.083   4.573  0.3063  0.5549  0.4334
  797MOL0     N 5122   3.662   3.604   4.317 -0.2427 -0.3379 -0.3247
  797MOL0     N 5123   3.761   3.676   4.369 -0.0561  0.0913  0.5557
  797MOL0     C 5124   4.684   3.891   4.215  0.4448  0.3015  0.6682
  797MOL0     C 5125   4.776   3.839   4.123  0.5497 -0.6088 -0.6407
  797MOL0     C 5126   5.023   3.638   3.872  0.4194 -0.3625 -1.1456
  797MOL0     C 5127   5.086   3.716   3.777 -0.4617 -0.1267 -0.6392
  797MOL0     C 5128   5.220   3.691   3.734  0.3832 -0.0786  0.3708
  797MOL0     C 5129   5.291   3.588   3.787  0.0442 -1.5001  0.7555
  797MOL0     O 5130   5.420   3.573   3.741 -0.6118  0.1754  0.0263
  797MOL0     C 5131   5.511   3.477   3.794  0.5465  0.5719  0.3199
  797MOL0     C 5132   5.639   3.485   3.707  0.8918 -0.1779 -0.1773
  797MOL0     C 5133   5.715   3.618   3.701  0.1975  0.5308 -0.2680
  797MOL0     C 5134   5.807   3.624   3.827 -0.3124 -0.3846  0.4049
  797MOL0     C 5135   5.876   3.749   3.850 -0.1472 -0.0518 -0.0420
  797MOL0     C 5136   5.938   3.854   3.876  0.7319  0.1675  0.6958
  797MOL0     C 5137   5.235   3.514   3.889  0.0499  0.0863 -0.4606
  797MOL0     C 5138   5.103   3.536   3.939 -0.9772  0.3811  0.9864
  797MOL0     H 5139   4.597   3.842   3.844 -0.7771  3.7312 -0.4394
  797MOL0     H 5140   4.421   3.939   3.988  1.3628  0.0955 -1.8715
  797MOL0     H 5141   4.497   3.927   4.446 -2.0009  0.0824  1.5077
  797MOL0     H 5142   4.458   3.794   4.322 -1.0719  0.3972  0.4609
  797MOL0     H 5143   4.223   3.855   4.334  0.7696  2.8224 -1.0485
  797MOL0     H 5144   4.262   3.998   4.423 -2.4361 -0.4287 -0.0380
  797MOL0     H 5145   4.357   3.883   4.609  1.9534 -3.9022  0.8908
  797MOL0     H 5146   4.349   3.726   4.541  2.3337  1.3479 -1.0591
  797MOL0     H 5147   4.103   3.749   4.509  0.5512  1.4250 -0.9672
  797MOL0     H 5148   4.165   3.728   4.682  2.6941 -0.0684 -0.3147
  797MOL0     H 5149   4.062   3.994   4.536 -0.4969 -0.3458 -1.3688
  797MOL0     H 5150   4.158   3.992   4.675 -1.0681  0.8087  0.8113
  797MOL0     H 5151   3.910   4.005   4.728 -0.1512  0.7811  2.1654
  797MOL0     H 5152   3.987   3.868   4.815 -5.1680  0.4599  1.5876
  797MOL0     H 5153   3.881   3.709   4.655 -0.7779  0.0711  3.0654
  797MOL0     H 5154   3.771   3.807   4.738  0.5715 -2.1259  1.4376
  797MOL0     H 5155   3.874   3.903   4.460 -0.2323 -0.8925 -0.1990
  797MOL0     H 5156   3.736   3.956   4.550  0.0286 -0.8633  2.0185
  797MOL0     H 5157   3.523   3.731   4.579  0.9105  1.3378  0.0435
  797MOL0     H 5158   3.408   3.527   4.275 -1.8840  1.4951 -0.0517
  797MOL0     H 5159   3.337   3.640   4.392  2.4416  2.2953  1.5451
  797MOL0     H 5160   3.400   3.490   4.578 -0.7549  2.7081 -0.7864
  797MOL0     H 5161   3.465   3.372   4.455 -0.7181 -1.7384 -4.3117
  797MOL0     H 5162   3.180   3.470   4.515  2.2281  3.4230 -1.1637
  797MOL0     H 5163   3.226   3.382   4.362  0.2205 -1.0868  0.8056
  797MOL0     H 5164   3.271   3.266   4.642  0.0732  0.2418 -0.0924
  797MOL0     H 5165   3.351   3.211   4.502  0.6636  1.9544 -1.7760
  797MOL0     H 5166   3.094   3.356   4.717 -0.7823 -0.2594  0.3069
  797MOL0     H 5167   2.897   3.333   4.855  0.8069 -2.1448  0.6145
  797MOL0     H 5168   2.553   3.522   4.936 -1.2396  0.1456 -1.5326
  797MOL0     H 5169   2.409   3.576   5.126  2.8070  1.7612  3.5520
  797MOL0     H 5170   2.342   3.253   5.435 -1.5060  0.1767  1.2728
  797MOL0     H 5171   2.201   3.254   5.329 -0.1508  1.7596 -1.9631
  797MOL0     H 5172   2.128   3.324   5.555  0.0639  1.3104  0.4744
  797MOL0     H 5173   2.114   3.448   5.424  0.8911 -0.2382 -2.7298
  797MOL0     H 5174   2.302   3.559   5.512 -3.6509 -0.9007 -2.4647
  797MOL0     H 5175   2.356   3.411   5.596  1.2661  0.5633  0.4111
  797MOL0     H 5176   2.204   3.429   5.766 -0.7184 -0.9023 -0.6300
  797MOL0     H 5177   2.257   3.586   5.760 -1.0327  0.8319  0.7369
  797MOL0     H 5178   2.018   3.589   5.790 -2.1079  4.8603 -0.0816
  797MOL0     H 5179   1.991   3.503   5.639 -1.2637  0.0330  2.7516
  797MOL0     H 5180   2.135   3.696   5.536 -1.2017 -0.2503  0.0179
  797MOL0     H 5181   2.107   3.784   5.692 -0.6326  0.6344 -0.3131
  797MOL0     H 5182   1.861   3.757   5.646 -0.6388 -0.5556  0.2723
  797MOL0     H 5183   1.953   3.876   5.544  0.6878  0.4164 -2.2776
  797MOL0     H 5184   1.796   3.718   5.421  1.3187  3.0789 -2.6815
  797MOL0     H 5185   1.917   3.589   5.443  1.2143  0.7041  0.0929
  797MOL0     H 5186   2.485   3.210   5.319 -0.1927  1.0138  1.0397
  797MOL0     H 5187   2.636   3.142   5.100 -0.0254 -0.5133 -1.3300
  797MOL0     H 5188   2.767   2.986   4.657  0.5951 -1.0968  0.9917
  797MOL0     H 5189   2.941   3.005   4.497  2.1983  0.5924  0.3178
  797MOL0     H 5190   4.727   3.899   4.314  3.9861  2.4253 -0.8662
  797MOL0     H 5191   4.874   3.803   4.153  3.2417  5.3868 -0.9135
  797MOL0     H 5192   5.030   3.796   3.730 -1.2929 -0.4929 -0.2906
  797MOL0     H 5193   5.260   3.757   3.658 -0.3423  0.8292  0.7562
  797MOL0     H 5194   5.474   3.374   3.791  2.6654 -0.2505 -3.2192
  797MOL0     H 5195   5.537   3.513   3.894 -1.5387 -2.4881  2.1214
  797MOL0     H 5196   5.698   3.396   3.728 -2.1138 -2.4077 -0.5516
  797MOL0     H 5197   5.602   3.467   3.605 -1.7142  1.7028  0.3429
  797MOL0     H 5198   5.656   3.709   3.691 -1.5322 -0.6678 -1.7047
  797MOL0     H 5199   5.776   3.617   3.610  0.1388  3.4862 -0.4352
  797MOL0     H 5200   5.750   3.617   3.920 -0.8984 -0.1018  0.0731
  797MOL0     H 5201   5.887   3.549   3.820  2.1536  2.2342 -2.1206
  797MOL0     H 5202   5.981   3.949   3.900  0.8310  0.8695 -1.9395
  797MOL0     H 5203   5.302   3.451   3.945 -1.3145  0.5803  1.8562
  797MOL0     H 5204   5.072   3.485   4.030 -1.1399 -0.5764  0.4074
  798MOL0     O 5205   2.919   3.613   5.071  0.5802 -0.0370  1.0218
  798MOL0     C 5206   2.869   3.546   5.165 -0.0255 -0.7456  0.6614
  798MOL0     O 5207   2.895   3.415   5.196 -0.2995 -0.3399 -0.5828
  798MOL0     C 5208   2.985   3.340   5.132  0.6840 -0.6507  0.1613
  798MOL0     C 5209   2.958   3.198   5.124 -0.4499  1.0280 -0.6799
  798MOL0     C 5210   3.047   3.122   5.049 -0.0169  1.7075  0.0378
  798MOL0     C 5211   3.162   3.171   4.991  0.7716 -0.6667 -0.1417
  798MOL0     O 5212   3.243   3.087   4.919  0.2837  0.2145 -0.0411
  798MOL0     C 5213   3.378   3.118   4.914 -0.2724 -0.3262 -0.2666
  798MOL0     C 5214   3.450   2.992   4.860 -0.1468  0.0476 -0.3161
  798MOL0     C 5215   3.603   3.001   4.887 -0.5470 -0.0391  0.1451
  798MOL0     C 5216   3.672   2.970   4.756  1.0067  0.3651 -0.0654
  798MOL0     C 5217   3.820   3.001   4.759 -0.2786  0.0973  0.6149
  798MOL0     C 5218   3.874   2.969   4.621 -0.6738 -0.3820 -0.6930
  798MOL0     C 5219   3.998   2.898   4.649 -0.1053 -1.2470  0.0925
  798MOL0     C 5220   4.098   2.998   4.712 -0.5615 -0.1784  0.5046
  798MOL0     N 5221   4.219   2.921   4.743 -0.0257  0.4789 -0.3434
  798MOL0     C 5222   4.315   2.859   4.670 -0.5782 -0.0784  1.3382
  798MOL0     C 5223   4.389   2.782   4.743  0.6093 -1.0972 -0.4379
  798MOL0     C 5224   4.512   2.697   4.709  1.0434  0.8035  0.2892
  798MOL0     C 5225   4.636   2.726   4.796  0.1606  0.0630  0.0809
  798MOL0     C 5226   4.765   2.742   4.700 -0.3759  0.0301 -0.4265
  798MOL0     C 5227   4.859   2.642   4.762  1.1895 -0.4575  1.3203
  798MOL0     O 5228   4.844   2.501   4.728  0.3439 -1.2266  0.2462
  798MOL0     C 5229   4.936   2.415   4.780 -0.8191  0.4572 -0.2304
  798MOL0     C 5230   4.892   2.286   4.755 -0.6598 -0.7909  0.6324
  798MOL0     C 5231   4.969   2.181   4.801 -0.1147  0.7639 -0.1110
  798MOL0     C 5232   5.083   2.196   4.879 -0.0713 -0.1586 -0.2951
  798MOL0     C 5233   5.156   2.077   4.931  0.5484  0.1283  0.0272
  798MOL0     O 5234   5.138   1.960   4.854 -0.5860 -0.1571 -0.4517
  798MOL0     C 5235   5.191   1.829   4.875  0.7967 -0.1931  0.1230
  798MOL0     C 5236   5.285   1.800   4.972 -0.6641  0.0713  0.3248
  798MOL0     C 5237   5.314   1.656   4.992 -0.1343 -0.8002 -0.4977
  798MOL0     C 5238   5.271   1.560   4.903 -0.6372  0.3825 -0.4284
  798MOL0     O 5239   5.306   1.431   4.935  0.2221  0.0529 -0.4984
  798MOL0     C 5240   5.199   1.339   4.926  0.3023  0.0725 -0.5548
  798MOL0     C 5241   5.240   1.216   5.014 -0.4440  0.5253 -0.4532
  798MOL0     C 5242   5.357   1.125   4.970  0.0863 -1.3091 -0.5309
  798MOL0     C 5243   5.379   1.041   5.092  0.4634  0.6577 -1.2603
  798MOL0     C 5244   5.469   0.925   5.091  0.3660  1.1427 -0.2960
  798MOL0     C 5245   5.437   0.812   4.987  0.5184 -0.2373  0.4658
  798MOL0     C 5246   5.507   0.675   5.016  0.7497  0.0543  0.1971
  798MOL0     C 5247   5.662   0.698   4.994  0.5519  1.5469  0.5737
  798MOL0    Cl 5248   5.713   0.766   4.840  0.2592  0.2928  0.1582
  798MOL0     C 5249   5.192   1.598   4.797  0.7509  0.0603  0.1658
  798MOL0     C 5250   5.148   1.729   4.788 -0.9285 -0.7198 -0.8826
  798MOL0     O 5251   5.199   2.073   5.043  0.6270 -0.6809  0.8276
  798MOL0     C 5252   5.127   2.324   4.908  0.6254 -0.4854  0.4153
  798MOL0     C 5253   5.058   2.440   4.852 -0.2982  0.4782  0.0135
  798MOL0     N 5254   4.342   2.804   4.873 -0.2392  0.0095  0.1511
  798MOL0     N 5255   4.240   2.879   4.874  0.1872 -0.1020  0.1921
  798MOL0     C 5256   3.178   3.308   5.001 -0.5762 -0.4969 -0.4097
  798MOL0     C 5257   3.091   3.394   5.061  0.2749 -0.4084 -0.3939
  798MOL0     C 5258   2.771   3.627   5.244 -0.0933  0.0466 -0.7704
  798MOL0     C 5259   2.726   3.593   5.376 -0.0250 -0.5399 -0.4903
  798MOL0     C 5260   2.627   3.660   5.444  0.2174 -0.2363 -0.3061
  798MOL0     C 5261   2.580   3.777   5.387  0.3172  0.3502  0.7635
  798MOL0     O 5262   2.505   3.858   5.476 -0.0520 -0.3684 -0.2431
  798MOL0     C 5263   2.496   4.004   5.432  0.4554  0.9411 -0.5680
  798MOL0     C 5264   2.378   4.054   5.349  1.2604 -0.0902 -0.5940
  798MOL0     C 5265   2.243   4.080   5.426  0.0822 -0.2157 -0.8149
  798MOL0     C 5266   2.214   4.203   5.507 -1.1779  0.9847 -0.1025
  798MOL0     C 5267   2.294   4.225   5.622 -0.2102  0.0172  0.3407
  798MOL0     C 5268   2.353   4.278   5.719  0.3488 -0.2148 -0.3640
  798MOL0     C 5269   2.613   3.818   5.264 -1.0414  0.5792  0.4153
  798MOL0     C 5270   2.711   3.739   5.192  0.3983 -0.5347 -0.1062
  798MOL0     H 5271   2.868   3.153   5.164 -0.3080  1.2096 -0.1486
  798MOL0     H 5272   3.022   3.017   5.039  1.6344  1.0124  2.1718
  798MOL0     H 5273   3.422   3.129   5.014 -1.0538  2.8767 -0.1662
  798MOL0     H 5274   3.391   3.205   4.850  0.1471  0.4185  0.8033
  798MOL0     H 5275   3.426   2.973   4.755  2.3558 -1.6818 -0.6472
  798MOL0     H 5276   3.415   2.900   4.906  1.1308 -0.7154 -0.8190
  798MOL0     H 5277   3.623   2.943   4.978  0.7954  0.5665  0.2454
  798MOL0     H 5278   3.627   3.106   4.901 -1.6485  0.7359 -3.0334
  798MOL0     H 5279   3.658   2.864   4.733 -1.7764  0.3874  1.1184
  798MOL0     H 5280   3.623   3.031   4.679 -0.6942 -0.2561  0.4817
  798MOL0     H 5281   3.865   2.951   4.845 -2.4754 -1.6602  0.8446
  798MOL0     H 5282   3.826   3.109   4.777  1.2551  0.1724 -0.2184
  798MOL0     H 5283   3.877   3.061   4.562  2.5308 -1.0780 -1.7945
  798MOL0     H 5284   3.806   2.896   4.576 -2.7279  1.2244 -0.3489
  798MOL0     H 5285   3.984   2.810   4.712 -1.2643  1.0833  3.4049
  798MOL0     H 5286   4.043   2.869   4.554 -0.4626 -1.6059  0.0303
  798MOL0     H 5287   4.068   3.045   4.806  2.1767 -2.0473  2.4827
  798MOL0     H 5288   4.131   3.072   4.639 -2.7743 -2.5589 -3.1972
  798MOL0     H 5289   4.341   2.871   4.565 -2.3365  0.8298  0.9619
  798MOL0     H 5290   4.534   2.716   4.603  0.4166 -0.6392 -0.1376
  798MOL0     H 5291   4.489   2.591   4.726 -1.2505  0.6952 -2.7208
  798MOL0     H 5292   4.645   2.649   4.873  1.4243  0.1164  0.0035
  798MOL0     H 5293   4.621   2.814   4.859  0.3164 -0.7307  1.2507
  798MOL0     H 5294   4.750   2.736   4.591 -0.2347  1.3925 -0.5398
  798MOL0     H 5295   4.808   2.841   4.715  2.7358 -1.2966  0.0045
  798MOL0     H 5296   4.869   2.655   4.870  4.1164 -2.1526  1.3621
  798MOL0     H 5297   4.955   2.662   4.714 -0.8697 -0.9392 -3.5840
  798MOL0     H 5298   4.798   2.263   4.707  0.2907 -2.3067 -0.6261
  798MOL0     H 5299   4.926   2.083   4.781  0.0083  1.0851 -2.2067
  798MOL0     H 5300   5.325   1.877   5.036 -3.2293  1.0347  0.9064
  798MOL0     H 5301   5.382   1.633   5.074  0.4156  1.2113 -0.3438
  798MOL0     H 5302   5.175   1.316   4.822  2.5755 -2.5525 -0.6186
  798MOL0     H 5303   5.114   1.384   4.978  0.0545 -0.0764 -0.8269
  798MOL0     H 5304   5.144   1.167   5.032 -0.0395 -1.6897 -3.5314
  798MOL0     H 5305   5.270   1.266   5.107 -3.4612  0.4551  0.6579
  798MOL0     H 5306   5.445   1.188   4.950 -2.2836  3.2286  1.7990
  798MOL0     H 5307   5.336   1.068   4.880 -0.9039  1.1401 -1.9623
  798MOL0     H 5308   5.410   1.095   5.182 -1.0337 -4.0042  2.4831
  798MOL0     H 5309   5.284   0.996   5.124  1.4046 -1.2931 -1.0852
  798MOL0     H 5310   5.483   0.877   5.188  1.5383 -2.8544 -2.1939
  798MOL0     H 5311   5.568   0.970   5.080  0.2426  1.1905 -1.3557
  798MOL0     H 5312   5.462   0.850   4.888  1.3100  0.1425  0.8014
  798MOL0     H 5313   5.330   0.793   4.976 -0.2043  4.2340 -2.7474
  798MOL0     H 5314   5.476   0.636   5.113  1.9525 -2.3539 -0.3211
  798MOL0     H 5315   5.480   0.599   4.942  0.7903  1.9394 -1.8768
  798MOL0     H 5316   5.707   0.599   5.006 -1.3931  0.7852  2.2868
  798MOL0     H 5317   5.692   0.763   5.077 -0.4916  1.0825  1.3483
  798MOL0     H 5318   5.159   1.519   4.730 -1.6556  0.6510  0.5677
  798MOL0     H 5319   5.082   1.754   4.705  0.6696  0.6935 -1.8068
  798MOL0     H 5320   5.214   2.339   4.971  0.0193  1.6401  0.8214
  798MOL0     H 5321   5.085   2.543   4.876 -1.9080  0.7715  0.6696
  798MOL0     H 5322   3.261   3.356   4.951 -0.2646 -1.8928 -1.3051
  798MOL0     H 5323   3.108   3.501   5.063  1.6532 -0.6019 -0.7923
  798MOL0     H 5324   2.756   3.502   5.426  1.2541  0.9004  1.5049
  798MOL0     H 5325   2.584   3.623   5.536 -1.0023  2.7592  0.4723
  798MOL0     H 5326   2.594   4.032   5.395  1.0021  3.6002  2.4168
  798MOL0     H 5327   2.501   4.066   5.522  0.6518  1.6801 -1.0835
  798MOL0     H 5328   2.412   4.150   5.309  3.1493  0.1131  1.3014
  798MOL0     H 5329   2.364   3.994   5.258 -1.8054  0.5987 -0.6636
  798MOL0     H 5330   2.224   4.000   5.498  0.1124  2.0571  1.8720
  798MOL0     H 5331   2.160   4.066   5.356 -2.2045 -0.0430  1.6750
  798MOL0     H 5332   2.220   4.284   5.434  3.0566  0.2497 -0.8464
  798MOL0     H 5333   2.110   4.197   5.538 -0.5929 -0.3395  1.8451
  798MOL0     H 5334   2.399   4.318   5.807 -0.9389 -1.0544  0.7333
  798MOL0     H 5335   2.573   3.911   5.226 -1.0175  1.4426  2.3746
  798MOL0     H 5336   2.724   3.765   5.088 -1.1495  3.9727  0.6270
  799MOL0     O 5337   2.060   7.894   5.488 -0.0478 -0.6016  0.0603
  799MOL0     C 5338   2.043   7.957   5.589  0.1088  0.2685  0.1996
  799MOL0     O 5339   2.129   7.965   5.692 -0.3931 -0.2061 -0.0593
  799MOL0     C 5340   2.261   7.923   5.691  1.0430  0.2591  0.2580
  799MOL0     C 5341   2.312   7.884   5.814 -0.1931  0.4158  0.5343
  799MOL0     C 5342   2.444   7.844   5.844  0.5434  0.1573 -0.1498
  799MOL0     C 5343   2.535   7.845   5.740  0.2709  0.7409  0.1358
  799MOL0     O 5344   2.671   7.813   5.772  0.4565 -0.2569  0.2041
  799MOL0     C 5345   2.761   7.773   5.667 -0.6482 -0.3477 -0.2142
  799MOL0     C 5346   2.899   7.766   5.733  0.0316  0.0373 -0.1932
  799MOL0     C 5347   3.012   7.703   5.636  0.0365 -0.2991 -1.0176
  799MOL0     C 5348   3.065   7.811   5.542  0.1139 -0.0027  0.1481
  799MOL0     C 5349   3.143   7.751   5.419 -0.0857  0.3821  0.8776
  799MOL0     C 5350   3.224   7.850   5.330 -0.1920 -0.4621  0.0179
  799MOL0     C 5351   3.338   7.774   5.250 -0.3022 -0.8546 -0.5029
  799MOL0     C 5352   3.395   7.867   5.144  1.3122  0.3936  0.2713
  799MOL0     N 5353   3.514   7.810   5.089 -0.2366  0.5149  0.1907
  799MOL0     C 5354   3.642   7.835   5.140 -0.5473  0.3558 -0.5595
  799MOL0     C 5355   3.720   7.741   5.083 -0.3830  0.1456  0.1210
  799MOL0     C 5356   3.865   7.709   5.103  0.2439 -0.0953  1.0741
  799MOL0     C 5357   3.951   7.737   4.975  0.6066 -0.1445 -0.2263
  799MOL0     C 5358   3.931   7.634   4.859  0.7215 -0.0742  0.2601
  799MOL0     C 5359   4.048   7.635   4.755 -0.1151  1.0758  0.8321
  799MOL0     O 5360   4.154   7.555   4.812 -0.1441 -0.6244 -0.0318
  799MOL0     C 5361   4.165   7.419   4.784  0.0544 -0.1626 -0.2423
  799MOL0     C 5362   4.277   7.351   4.833  1.0729 -0.6288 -0.0899
  799MOL0     C 5363   4.305   7.221   4.801 -0.6989  0.2419  0.1993
  799MOL0     C 5364   4.215   7.141   4.724 -0.7330  0.9054  0.1077
  799MOL0     C 5365   4.244   6.996   4.714  0.1765  0.6262 -0.5977
  799MOL0     O 5366   4.316   6.945   4.809 -0.4777 -0.0118 -0.7325
  799MOL0     C 5367   4.368   6.816   4.819  0.1311  0.3158 -1.1531
  799MOL0     C 5368   4.322   6.702   4.752 -0.5908 -0.8385 -0.5838
  799MOL0     C 5369   4.364   6.570   4.784  0.4375 -0.5881 -1.1668
  799MOL0     C 5370   4.457   6.557   4.892 -0.3050 -0.3484  0.1102
  799MOL0     O 5371   4.481   6.427   4.933  0.3908 -0.3519 -0.1388
  799MOL0     C 5372   4.615   6.391   4.977 -0.5543 -0.4979 -0.6979
  799MOL0     C 5373   4.628   6.241   4.951  0.0641  0.1561 -0.5212
  799MOL0     C 5374   4.567   6.190   4.825  0.0001 -0.0988  0.4022
  799MOL0     C 5375   4.651   6.263   4.710  0.7871  0.1106 -0.5029
  799MOL0     C 5376   4.596   6.210   4.569  0.3898 -0.4659  0.1291
  799MOL0     C 5377   4.661   6.294   4.461 -0.0865  0.1301 -0.1099
  799MOL0     C 5378   4.629   6.240   4.323  0.1413  0.3105  0.9390
  799MOL0     C 5379   4.486   6.226   4.278 -1.3836  0.5621 -0.1721
  799MOL0    Cl 5380   4.441   6.381   4.191 -0.3027 -0.1602  0.5163
  799MOL0     C 5381   4.516   6.665   4.955 -0.4083 -0.6692  0.8434
  799MOL0     C 5382   4.463   6.795   4.917  1.6412 -1.1599 -1.4937
  799MOL0     O 5383   4.190   6.932   4.621 -0.4614 -0.0271 -0.2000
  799MOL0     C 5384   4.094   7.203   4.682 -0.8607 -0.3095 -1.2967
  799MOL0     C 5385   4.076   7.336   4.714 -0.1383 -0.2008  0.0866
  799MOL0     N 5386   3.642   7.669   4.988 -1.2152 -0.1125 -0.9059
  799MOL0     N 5387   3.522   7.711   4.996 -0.2817 -0.2374 -0.1866
  799MOL0     C 5388   2.485   7.882   5.606 -0.9927  0.2187 -0.1520
  799MOL0     C 5389   2.355   7.931   5.586 -0.6228 -0.2089  0.1214
  799MOL0     C 5390   1.927   8.047   5.609 -0.3142  0.1736  0.1763
  799MOL0     C 5391   1.904   8.129   5.730  0.2044  0.2808 -0.9479
  799MOL0     C 5392   1.781   8.200   5.728 -1.1479  0.4925 -0.2622
  799MOL0     C 5393   1.698   8.210   5.615 -0.4433  0.5491  0.0344
  799MOL0     O 5394   1.585   8.284   5.603  0.1102 -0.4958  0.6551
  799MOL0     C 5395   1.489   8.273   5.706  1.1684  0.0477 -0.0641
  799MOL0     C 5396   1.421   8.134   5.694  0.2748 -0.1562  0.2851
  799MOL0     C 5397   1.297   8.104   5.777  0.6411 -0.1638 -0.0684
  799MOL0     C 5398   1.176   8.199   5.746  0.4340 -0.1072  0.7402
  799MOL0     C 5399   1.068   8.171   5.843 -0.0090  0.6549 -0.5473
  799MOL0     C 5400   0.987   8.166   5.939  0.0223 -0.0625 -0.1261
  799MOL0     C 5401   1.732   8.137   5.498 -0.3182 -0.4147 -0.4236
  799MOL0     C 5402   1.843   8.056   5.495 -0.4895  0.4113  0.2893
  799MOL0     H 5403   2.237   7.883   5.892  1.4883 -1.3531  2.2398
  799MOL0     H 5404   2.469   7.805   5.942 -1.0649  0.2010  0.3059
  799MOL0     H 5405   2.756   7.847   5.586  1.2341  0.4281  0.3216
  799MOL0     H 5406   2.726   7.679   5.625 -1.7952  1.4237 -3.6489
  799MOL0     H 5407   2.890   7.708   5.826 -2.9399  1.6292  0.6361
  799MOL0     H 5408   2.926   7.863   5.776  0.0056  0.5857 -1.3805
  799MOL0     H 5409   2.966   7.623   5.579 -2.4138  1.1158 -1.1413
  799MOL0     H 5410   3.103   7.674   5.690  1.2904  1.9010 -1.7812
  799MOL0     H 5411   2.979   7.873   5.515 -1.0627 -0.7772  1.9612
  799MOL0     H 5412   3.141   7.871   5.593 -1.2052  1.8752  0.0340
  799MOL0     H 5413   3.074   7.690   5.359  0.1124 -1.0888  2.0640
  799MOL0     H 5414   3.215   7.680   5.461  0.0678  1.8442  3.2549
  799MOL0     H 5415   3.289   7.917   5.387 -0.6358  0.8874 -1.0014
  799MOL0     H 5416   3.163   7.913   5.265  1.5780 -0.6890 -1.9566
  799MOL0     H 5417   3.420   7.759   5.322 -0.9288 -1.1751  0.1600
  799MOL0     H 5418   3.310   7.681   5.200  3.0278 -2.0403 -0.4514
  799MOL0     H 5419   3.416   7.966   5.187  0.4476  0.6083  0.2178
  799MOL0     H 5420   3.331   7.878   5.057 -0.6536 -1.0281  1.4666
  799MOL0     H 5421   3.683   7.914   5.202  3.0842 -1.2003 -0.6765
  799MOL0     H 5422   3.873   7.603   5.129  1.8746 -0.9438 -2.3075
  799MOL0     H 5423   3.901   7.775   5.183 -1.2104  1.4100  0.5479
  799MOL0     H 5424   4.052   7.740   5.018 -0.2087  1.1003  1.6759
  799MOL0     H 5425   3.934   7.838   4.937 -0.0351  0.7901  2.3375
  799MOL0     H 5426   3.942   7.544   4.920  1.3521  0.8584  1.5759
  799MOL0     H 5427   3.838   7.634   4.801  0.4866 -1.4625  0.5926
  799MOL0     H 5428   4.089   7.733   4.727 -0.1341  0.6508 -0.7862
  799MOL0     H 5429   4.010   7.604   4.657  1.9123 -2.3111  0.9658
  799MOL0     H 5430   4.346   7.411   4.889 -1.8470  0.5922  2.4883
  799MOL0     H 5431   4.388   7.163   4.841  0.1986  0.1869 -1.6475
  799MOL0     H 5432   4.244   6.723   4.679  0.1442  2.1780 -0.6122
  799MOL0     H 5433   4.317   6.484   4.737 -2.8543  0.9251 -0.9251
  799MOL0     H 5434   4.621   6.401   5.086  1.7947  2.2709 -0.9487
  799MOL0     H 5435   4.698   6.449   4.934  0.1919 -1.0527 -0.0164
  799MOL0     H 5436   4.562   6.197   5.026 -1.4605 -1.4764 -2.6851
  799MOL0     H 5437   4.731   6.206   4.955 -0.3013 -0.9199 -0.1761
  799MOL0     H 5438   4.460   6.209   4.816  0.3251  2.5816  1.3438
  799MOL0     H 5439   4.574   6.081   4.818  0.0939 -0.2182  1.9078
  799MOL0     H 5440   4.633   6.371   4.715 -0.7785 -0.0543 -1.6454
  799MOL0     H 5441   4.759   6.249   4.718  0.8853  0.7291 -0.7114
  799MOL0     H 5442   4.487   6.210   4.564  0.4202 -1.3033 -0.8064
  799MOL0     H 5443   4.628   6.109   4.543  1.1803  0.0880 -1.1569
  799MOL0     H 5444   4.767   6.279   4.482 -0.4831 -1.9130  0.7827
  799MOL0     H 5445   4.636   6.400   4.475 -0.1553  0.1040 -0.0276
  799MOL0     H 5446   4.685   6.298   4.249 -0.1488 -1.9413 -1.1664
  799MOL0     H 5447   4.689   6.149   4.310  0.8014  0.6139  1.7587
  799MOL0     H 5448   4.410   6.210   4.355 -1.4566  3.0046  0.3764
  799MOL0     H 5449   4.475   6.146   4.205  0.9543  0.3953 -0.4179
  799MOL0     H 5450   4.569   6.643   5.047 -2.7590  1.0921  2.7704
  799MOL0     H 5451   4.473   6.879   4.984 -4.0555 -1.5093  0.2607
  799MOL0     H 5452   4.009   7.145   4.647 -0.7225  0.5667 -3.2364
  799MOL0     H 5453   3.980   7.369   4.674  1.2506 -0.2090 -3.6263
  799MOL0     H 5454   2.564   7.888   5.531 -0.4281 -0.3440  0.3887
  799MOL0     H 5455   2.333   7.981   5.492 -0.1900  0.9498  0.6174
  799MOL0     H 5456   1.978   8.139   5.809  1.6249  3.0402 -2.4719
  799MOL0     H 5457   1.750   8.271   5.803 -0.3268 -1.0386  1.6080
  799MOL0     H 5458   1.414   8.346   5.673  1.6702 -0.9040 -3.7557
  799MOL0     H 5459   1.523   8.287   5.809  0.0675 -3.3603  0.9059
  799MOL0     H 5460   1.394   8.125   5.589 -1.5851  1.4769  0.5760
  799MOL0     H 5461   1.498   8.059   5.718  0.1870  0.1823  1.7300
  799MOL0     H 5462   1.326   8.121   5.881  3.0056  0.8557 -0.8281
  799MOL0     H 5463   1.272   7.997   5.769 -1.0708  0.2748 -0.9851
  799MOL0     H 5464   1.192   8.307   5.738 -1.7269  0.1503 -1.5078
  799MOL0     H 5465   1.136   8.169   5.648  0.1112  1.9161  0.1980
  799MOL0     H 5466   0.915   8.182   6.017  0.4347 -1.2784  0.5240
  799MOL0     H 5467   1.675   8.158   5.408  3.4848  4.1784 -2.1696
  799MOL0     H 5468   1.866   8.014   5.398 -0.0280 -0.8465  0.9120
  800MOL0     O 5469   9.979   5.348   1.326  0.4193 -0.9341  0.2951
  800MOL0     C 5470  10.027   5.465   1.358  0.3562  0.1064 -0.4681
  800MOL0     O 5471  10.163   5.488   1.368  0.5160  0.5343  0.1689
  800MOL0     C 5472  10.231   5.365   1.352  0.6123  0.6977  0.0284
  800MOL0     C 5473  10.257   5.289   1.469 -0.0559  1.2884  0.3204
  800MOL0     C 5474  10.329   5.173   1.464  0.4224 -0.0625 -0.1121
  800MOL0     C 5475  10.355   5.117   1.346 -0.6056  0.5733  0.3475
  800MOL0     O 5476  10.413   4.988   1.340 -0.1592  0.9389 -0.4822
  800MOL0     C 5477  10.337   4.887   1.263 -0.1104  0.4583 -1.2035
  800MOL0     C 5478  10.407   4.754   1.288 -0.3835 -0.8361 -0.2089
  800MOL0     C 5479  10.558   4.756   1.268  0.1873 -1.2969  0.5579
  800MOL0     C 5480  10.628   4.619   1.271 -0.6254  0.0695  0.3931
  800MOL0     C 5481  10.778   4.642   1.277  0.1642  0.2224  0.0942
  800MOL0     C 5482  10.864   4.526   1.334  0.0857 -0.3725 -1.0506
  800MOL0     C 5483  10.814   4.441   1.459 -0.1881 -0.1265 -0.0363
  800MOL0     C 5484  10.904   4.330   1.505  0.6655 -0.4086 -0.0661
  800MOL0     N 5485  11.036   4.381   1.524 -0.5534 -0.3665 -0.3414
  800MOL0     C 5486  11.075   4.499   1.593  0.5108  0.2224 -0.2805
  800MOL0     C 5487  11.205   4.519   1.556 -0.7829  1.1930 -0.7427
  800MOL0     C 5488  11.304   4.631   1.597  0.7539  0.6373  0.0122
  800MOL0     C 5489  11.294   4.663   1.738 -0.4334 -0.0544 -0.3346
  800MOL0     C 5490  11.359   4.547   1.830 -0.2898 -0.4725 -0.4838
  800MOL0     C 5491  11.418   4.601   1.950 -0.4393 -0.1549 -0.1789
  800MOL0     O 5492  11.550   4.658   1.915 -0.2157 -0.5034 -0.0665
  800MOL0     C 5493  11.629   4.708   2.011 -0.0206 -0.0272  0.5768
  800MOL0     C 5494  11.717   4.807   1.965  0.3485 -0.1084  0.8730
  800MOL0     C 5495  11.817   4.863   2.042  0.2642  0.6064  0.1269
  800MOL0     C 5496  11.834   4.822   2.169 -0.3266 -0.3568  0.5064
  800MOL0     C 5497  11.940   4.874   2.254 -0.6337 -0.9139 -0.0525
  800MOL0     O 5498  12.003   4.989   2.213 -0.6150 -1.0270 -0.3487
  800MOL0     C 5499  12.099   5.038   2.308  0.5336  0.0483  0.5512
  800MOL0     C 5500  12.070   5.061   2.444  0.6408  0.0941  0.2765
  800MOL0     C 5501  12.175   5.107   2.529  0.2137  0.5456 -0.4070
  800MOL0     C 5502  12.296   5.141   2.474  0.1620  0.4978  0.1493
  800MOL0     O 5503  12.379   5.199   2.562  0.0749  0.1779  0.2405
  800MOL0     C 5504  12.516   5.152   2.583 -1.0441 -0.4001 -0.6973
  800MOL0     C 5505  12.519   5.029   2.668 -0.0500 -0.3811  0.6503
  800MOL0     C 5506  12.478   5.069   2.812 -0.6113  0.1707  0.5792
  800MOL0     C 5507  12.584   5.171   2.874  1.0192  0.0739  0.3876
  800MOL0     C 5508  12.582   5.143   3.023  0.5481  0.9461  0.2066
  800MOL0     C 5509  12.653   5.250   3.097 -0.2327  0.2822  0.0674
  800MOL0     C 5510  12.675   5.199   3.242  0.3043  0.2379 -0.1501
  800MOL0     C 5511  12.561   5.244   3.326  0.2157 -0.4603 -0.4663
  800MOL0    Cl 5512  12.566   5.186   3.500 -0.1212  0.1302 -0.3889
  800MOL0     C 5513  12.318   5.119   2.335 -0.1200  0.9021  0.0324
  800MOL0     C 5514  12.226   5.063   2.255  0.7774 -0.4810  0.1747
  800MOL0     O 5515  11.967   4.814   2.361  0.6352  0.2120 -0.0114
  800MOL0     C 5516  11.742   4.728   2.222 -0.2375  0.0942 -0.2770
  800MOL0     C 5517  11.632   4.670   2.139  0.0767  0.0094 -0.1164
  800MOL0     N 5518  11.243   4.410   1.486 -0.5384 -0.2104 -0.2165
  800MOL0     N 5519  11.149   4.327   1.465  1.4048 -0.5175 -0.7782
  800MOL0     C 5520  10.336   5.196   1.225 -0.9775 -1.1117  0.3122
  800MOL0     C 5521  10.275   5.317   1.231  0.2731  0.2794  0.7044
  800MOL0     C 5522   9.942   5.583   1.388  0.3973  1.1804  0.4849
  800MOL0     C 5523   9.808   5.557   1.416  0.8721 -0.0712  0.2847
  800MOL0     C 5524   9.720   5.661   1.454  0.2466  1.1548 -0.3660
  800MOL0     C 5525   9.766   5.792   1.471  0.0633 -1.0540  0.3555
  800MOL0     O 5526   9.676   5.887   1.499  0.0669  0.3454 -0.5018
  800MOL0     C 5527   9.722   6.029   1.512 -0.9568 -0.3790 -0.5327
  800MOL0     C 5528   9.753   6.050   1.663 -0.7256 -0.3099  0.0362
  800MOL0     C 5529   9.884   6.140   1.691 -0.8020 -0.1066  0.3726
  800MOL0     C 5530   9.869   6.294   1.695  0.7589  0.2405  0.5640
  800MOL0     C 5531   9.839   6.351   1.561  0.2396  0.1641 -0.0728
  800MOL0     C 5532   9.822   6.387   1.450  0.2555 -0.7691  0.6764
  800MOL0     C 5533   9.902   5.816   1.442 -0.4835  0.3295  0.4967
  800MOL0     C 5534   9.986   5.713   1.397 -0.1191 -0.1353 -1.1414
  800MOL0     H 5535  10.220   5.327   1.564  0.7325  0.0461  1.1631
  800MOL0     H 5536  10.354   5.113   1.551  2.1669  1.6686  0.6621
  800MOL0     H 5537  10.337   4.915   1.157 -0.2259  1.2831 -0.9932
  800MOL0     H 5538  10.241   4.877   1.315  1.5309  1.3930  2.2749
  800MOL0     H 5539  10.354   4.672   1.238  0.4636 -1.6491  0.2000
  800MOL0     H 5540  10.408   4.738   1.396 -1.1439 -2.3083 -0.3931
  800MOL0     H 5541  10.605   4.830   1.333  0.6541 -2.3792  1.4879
  800MOL0     H 5542  10.568   4.796   1.167 -1.9607  1.0063  1.1672
  800MOL0     H 5543  10.602   4.557   1.357 -4.2319 -0.2518 -0.7391
  800MOL0     H 5544  10.598   4.569   1.179 -1.2207 -1.7366  1.5123
  800MOL0     H 5545  10.805   4.728   1.339  3.9610 -0.9685  0.3433
  800MOL0     H 5546  10.810   4.665   1.175 -1.0937  0.0637 -0.3569
  800MOL0     H 5547  10.949   4.587   1.366 -0.4098 -0.0315 -0.3610
  800MOL0     H 5548  10.892   4.459   1.252 -2.5497  0.8669 -3.0968
  800MOL0     H 5549  10.793   4.505   1.545  3.3346  1.4980 -0.1958
  800MOL0     H 5550  10.723   4.387   1.433 -0.4657  0.2827  0.0752
  800MOL0     H 5551  10.901   4.253   1.427 -1.3630  0.9451 -1.4017
  800MOL0     H 5552  10.858   4.285   1.593 -1.8928 -1.0686 -1.6325
  800MOL0     H 5553  11.011   4.552   1.662 -0.2887 -1.2376  0.1428
  800MOL0     H 5554  11.269   4.710   1.530 -1.3376 -1.1826 -1.1545
  800MOL0     H 5555  11.403   4.605   1.559  0.0940  0.1784 -1.4388
  800MOL0     H 5556  11.191   4.679   1.772  0.1834  1.8706  0.8067
  800MOL0     H 5557  11.351   4.755   1.752 -1.5443  0.7467 -0.8951
  800MOL0     H 5558  11.279   4.477   1.855 -1.1297  0.9281  0.8871
  800MOL0     H 5559  11.440   4.496   1.777 -0.1220 -0.3074 -0.3897
  800MOL0     H 5560  11.407   4.518   2.021 -2.5267 -0.6242 -0.9603
  800MOL0     H 5561  11.354   4.679   1.991  0.3711  2.3898 -3.3117
  800MOL0     H 5562  11.714   4.829   1.859  0.7560 -1.4464  0.5639
  800MOL0     H 5563  11.881   4.941   2.001  1.4181  0.4051  1.4524
  800MOL0     H 5564  11.976   5.039   2.493  0.5831 -0.7995 -0.2214
  800MOL0     H 5565  12.163   5.127   2.635 -1.5661 -2.3674  0.0283
  800MOL0     H 5566  12.577   5.239   2.611 -1.0722  0.2106 -2.3558
  800MOL0     H 5567  12.556   5.135   2.482  2.2023  0.3185  0.3578
  800MOL0     H 5568  12.615   4.978   2.655  1.3973  1.5427  2.9897
  800MOL0     H 5569  12.447   4.958   2.627 -3.4675  2.6888  0.8529
  800MOL0     H 5570  12.469   4.980   2.875  0.4160 -0.2964  0.0955
  800MOL0     H 5571  12.382   5.121   2.818  0.3299  2.1474 -0.5149
  800MOL0     H 5572  12.684   5.158   2.830  0.4462  1.4304 -1.4351
  800MOL0     H 5573  12.558   5.276   2.860  2.0444  0.4794  1.3562
  800MOL0     H 5574  12.617   5.041   3.037 -1.2118  0.2257 -0.2750
  800MOL0     H 5575  12.477   5.133   3.053  0.3909 -5.1652 -1.1347
  800MOL0     H 5576  12.599   5.345   3.099 -0.4328  0.1614  1.2078
  800MOL0     H 5577  12.753   5.262   3.052  0.3328 -1.3190  0.8182
  800MOL0     H 5578  12.676   5.090   3.245  0.4428  0.1899 -1.4407
  800MOL0     H 5579  12.772   5.236   3.276  1.3170 -2.1021 -0.3624
  800MOL0     H 5580  12.463   5.208   3.292  0.5723 -0.7401 -1.2425
  800MOL0     H 5581  12.546   5.352   3.325 -0.8263 -0.5886 -1.3604
  800MOL0     H 5582  12.413   5.147   2.292  0.7627  1.5620  2.2866
  800MOL0     H 5583  12.240   5.052   2.148  0.0956 -1.2796  0.1590
  800MOL0     H 5584  11.747   4.688   2.323 -1.5772  2.8131  0.9766
  800MOL0     H 5585  11.551   4.613   2.184 -1.0486 -1.4614 -3.6338
  800MOL0     H 5586  10.368   5.159   1.128 -0.2908  0.2798 -0.0202
  800MOL0     H 5587  10.253   5.382   1.146 -1.4034  1.3373  1.8734
  800MOL0     H 5588   9.767   5.457   1.426  1.2405 -0.1005  1.9053
  800MOL0     H 5589   9.613   5.646   1.459  0.3311  0.9658  1.8584
  800MOL0     H 5590   9.640   6.096   1.489 -1.0927 -0.2002  0.4293
  800MOL0     H 5591   9.793   6.053   1.433  0.9649  2.1729  1.7725
  800MOL0     H 5592   9.664   6.087   1.713 -0.4521  0.5931 -0.1172
  800MOL0     H 5593   9.764   5.952   1.711  0.5711 -0.4533 -0.5033
  800MOL0     H 5594   9.973   6.104   1.639 -0.8852 -0.8417  0.7170
  800MOL0     H 5595   9.921   6.122   1.793  0.7433 -0.6286 -0.2429
  800MOL0     H 5596   9.774   6.307   1.749 -0.5240  0.0014 -1.5219
  800MOL0     H 5597   9.947   6.355   1.742 -1.8562  2.7614  1.9956
  800MOL0     H 5598   9.801   6.407   1.347 -0.2936  0.4376  1.0070
  800MOL0     H 5599   9.936   5.919   1.452 -3.5769  1.4877  0.2435
  800MOL0     H 5600  10.090   5.732   1.373  0.2259  0.7694  0.8460
  801MOL0     O 5601   3.845   0.491  10.539  0.2545  0.3750 -0.3211
  801MOL0     C 5602   3.891   0.441  10.643  0.1061 -0.1381  0.0054
  801MOL0     O 5603   4.021   0.419  10.667  1.0925  0.4132 -0.4545
  801MOL0     C 5604   4.112   0.461  10.571  0.3683 -0.3967  0.5614
  801MOL0     C 5605   4.191   0.588  10.584  0.2985  0.4476 -0.0897
  801MOL0     C 5606   4.273   0.628  10.481 -0.3983 -0.0755  0.1902
  801MOL0     C 5607   4.311   0.537  10.379  0.2032 -0.2271  0.1090
  801MOL0     O 5608   4.414   0.554  10.290 -0.1465 -0.1808  0.3462
  801MOL0     C 5609   4.440   0.690  10.248 -0.0863 -0.1829 -0.0674
  801MOL0     C 5610   4.539   0.703  10.129  0.4960 -0.9449 -0.1395
  801MOL0     C 5611   4.604   0.843  10.109  0.6509  0.2643 -0.3347
  801MOL0     C 5612   4.679   0.835   9.981 -1.0523 -0.7750 -0.0928
  801MOL0     C 5613   4.782   0.946   9.962 -0.2140 -0.1854 -0.3888
  801MOL0     C 5614   4.734   1.081  10.011  0.3847 -0.1191  0.2452
  801MOL0     C 5615   4.620   1.133   9.922  0.8898  0.3374  0.4951
  801MOL0     C 5616   4.541   1.232  10.008  0.2395 -0.0371  0.3051
  801MOL0     N 5617   4.634   1.340  10.049 -0.8231 -0.2609 -0.0709
  801MOL0     C 5618   4.639   1.404  10.165 -1.5237 -0.2813 -0.4532
  801MOL0     C 5619   4.710   1.515  10.149 -0.1493 -0.5594 -0.0066
  801MOL0     C 5620   4.714   1.636  10.244  0.5709 -0.6451 -0.6268
  801MOL0     C 5621   4.661   1.762  10.178  0.6112 -0.8702  0.0430
  801MOL0     C 5622   4.706   1.867  10.268  0.1172 -0.0143  0.3407
  801MOL0     C 5623   4.668   2.007  10.223  0.4645  0.4755 -0.6603
  801MOL0     O 5624   4.530   2.052  10.192 -0.4578  0.0905 -0.6395
  801MOL0     C 5625   4.431   2.049  10.283 -0.3391 -0.6603  0.5727
  801MOL0     C 5626   4.423   2.012  10.418 -0.0784 -0.7378 -0.2739
  801MOL0     C 5627   4.308   2.029  10.499  0.9027  0.1920  0.0580
  801MOL0     C 5628   4.190   2.072  10.441  0.3220  0.1817  0.2092
  801MOL0     C 5629   4.074   2.086  10.527  0.2246  1.0797  0.2125
  801MOL0     O 5630   3.947   2.069  10.467 -0.6950  1.4453  0.0656
  801MOL0     C 5631   3.842   2.050  10.557 -0.7938 -0.5576  0.6881
  801MOL0     C 5632   3.721   2.093  10.502 -0.2991 -1.2850 -0.1243
  801MOL0     C 5633   3.599   2.067  10.575 -0.2675 -0.0318 -0.8577
  801MOL0     C 5634   3.597   2.002  10.704  0.4281 -0.4812 -0.1036
  801MOL0     O 5635   3.475   1.973  10.776 -0.3450 -0.4354 -0.2982
  801MOL0     C 5636   3.362   2.066  10.767 -0.0993 -0.1085 -0.0534
  801MOL0     C 5637   3.257   2.020  10.866  0.6460  0.3878 -0.5551
  801MOL0     C 5638   3.172   1.900  10.808  0.4419 -0.6160 -1.0226
  801MOL0     C 5639   3.030   1.905  10.872 -0.2729 -0.0547  0.2044
  801MOL0     C 5640   2.922   1.941  10.771 -0.1400  1.1243  0.3100
  801MOL0     C 5641   2.785   1.885  10.801 -0.4766  0.3100  0.3501
  801MOL0     C 5642   2.730   1.962  10.923  0.6223 -0.4672  0.8942
  801MOL0     C 5643   2.580   1.976  10.916  0.7018  0.0522  0.9293
  801MOL0    Cl 5644   2.494   1.812  10.881  0.0064 -0.0182 -0.5620
  801MOL0     C 5645   3.716   1.958  10.752  0.2111  0.7185 -0.1389
  801MOL0     C 5646   3.835   1.974  10.671 -0.5393 -0.1212 -0.3064
  801MOL0     O 5647   4.100   2.099  10.646  0.3575 -0.5194  0.0583
  801MOL0     C 5648   4.188   2.104  10.304  0.0696 -0.0655 -0.0481
  801MOL0     C 5649   4.310   2.096  10.228  1.2029 -0.1691 -0.2140
  801MOL0     N 5650   4.761   1.519  10.017 -0.4362 -0.6521 -0.1094
  801MOL0     N 5651   4.728   1.401   9.971 -0.0478 -0.1610 -0.0101
  801MOL0     C 5652   4.254   0.410  10.379 -0.2167 -0.0063  0.2441
  801MOL0     C 5653   4.149   0.376  10.464  0.2889  0.5870 -0.3515
  801MOL0     C 5654   3.787   0.374  10.737 -0.0599  0.2050 -0.6826
  801MOL0     C 5655   3.659   0.354  10.696  0.3609 -0.2702 -0.8435
  801MOL0     C 5656   3.579   0.271  10.766  0.9179 -0.1167 -0.2510
  801MOL0     C 5657   3.613   0.224  10.893  0.2096  0.7087  0.1347
  801MOL0     O 5658   3.531   0.151  10.970  0.0450  0.3253 -0.2607
  801MOL0     C 5659   3.474   0.213  11.081  0.2543 -0.4408 -0.3919
  801MOL0     C 5660   3.313   0.219  11.072 -0.5632  0.7334  0.3941
  801MOL0     C 5661   3.237   0.280  11.186  0.3934 -0.2933  0.8471
  801MOL0     C 5662   3.079   0.270  11.176  0.1856  0.4884  0.1331
  801MOL0     C 5663   3.035   0.294  11.039  0.6261  1.3103  0.0805
  801MOL0     C 5664   3.002   0.306  10.927 -1.0245  0.4466 -0.8234
  801MOL0     C 5665   3.744   0.252  10.946  0.0223  0.8625  0.0736
  801MOL0     C 5666   3.827   0.322  10.861  0.3365 -0.5484  0.0627
  801MOL0     H 5667   4.184   0.655  10.669 -1.3072  0.1123  0.0845
  801MOL0     H 5668   4.329   0.720  10.477  2.4714 -1.5951 -5.3749
  801MOL0     H 5669   4.482   0.755  10.325  3.0599  1.5651 -2.9602
  801MOL0     H 5670   4.345   0.737  10.221 -1.2165 -2.8356 -1.0057
  801MOL0     H 5671   4.494   0.682  10.031 -2.0389 -1.6378  1.0880
  801MOL0     H 5672   4.617   0.628  10.148  3.1946  1.3514 -1.3959
  801MOL0     H 5673   4.674   0.859  10.191 -0.5650 -0.4350  0.8739
  801MOL0     H 5674   4.527   0.920  10.108  0.8919  0.5188 -1.7038
  801MOL0     H 5675   4.740   0.745   9.968 -0.4815 -0.4365  0.2192
  801MOL0     H 5676   4.609   0.840   9.897 -0.7478  0.8882 -0.2867
  801MOL0     H 5677   4.823   0.960   9.862 -1.0698 -1.9205 -1.0077
  801MOL0     H 5678   4.860   0.928  10.037  0.0025  1.3888 -0.1889
  801MOL0     H 5679   4.813   1.156  10.008  0.6293 -0.3617  0.5508
  801MOL0     H 5680   4.701   1.083  10.116 -1.1896  1.9432 -0.2131
  801MOL0     H 5681   4.651   1.178   9.827  0.8599 -0.4774  0.0923
  801MOL0     H 5682   4.547   1.053   9.905  0.7406  0.9356 -2.0351
  801MOL0     H 5683   4.498   1.182  10.096  1.2162  1.0905  1.4633
  801MOL0     H 5684   4.467   1.284   9.948  1.4578  1.3617 -0.0304
  801MOL0     H 5685   4.587   1.367  10.253  1.7828 -2.2649  0.8855
  801MOL0     H 5686   4.820   1.650  10.266  0.5695 -0.2599 -0.8543
  801MOL0     H 5687   4.669   1.611  10.340  2.3230 -1.1118  0.1233
  801MOL0     H 5688   4.552   1.767  10.172  0.6654  0.5870 -0.2598
  801MOL0     H 5689   4.692   1.783  10.075  0.6283 -1.6670 -0.1162
  801MOL0     H 5690   4.654   1.856  10.364 -0.9157 -0.5686 -0.2654
  801MOL0     H 5691   4.814   1.854  10.280  0.2148 -1.3197 -1.4521
  801MOL0     H 5692   4.720   2.021  10.127  4.2563 -3.7937  0.4396
  801MOL0     H 5693   4.700   2.082  10.296  0.1548  2.5626 -2.5422
  801MOL0     H 5694   4.514   1.977  10.464 -1.0420 -4.7839 -1.0557
  801MOL0     H 5695   4.317   1.998  10.603  1.0727 -1.2879 -0.3765
  801MOL0     H 5696   3.717   2.130  10.400  2.9764 -2.5021 -0.8018
  801MOL0     H 5697   3.514   2.116  10.528  1.3256  0.8263 -2.9926
  801MOL0     H 5698   3.323   2.080  10.666  2.3035  1.9501 -0.8018
  801MOL0     H 5699   3.383   2.164  10.811 -0.8909  0.1141 -0.1624
  801MOL0     H 5700   3.185   2.102  10.866  0.8420  0.6157  1.5902
  801MOL0     H 5701   3.300   1.996  10.964  2.3646 -3.7463 -2.0889
  801MOL0     H 5702   3.223   1.812  10.847  3.2475  0.2434 -2.4842
  801MOL0     H 5703   3.175   1.905  10.699 -2.1927  1.2822 -1.1133
  801MOL0     H 5704   3.002   1.812  10.922 -3.8003  2.0229  2.5318
  801MOL0     H 5705   3.024   1.977  10.954 -1.2451 -1.2932  1.2673
  801MOL0     H 5706   2.940   1.888  10.677 -1.5871 -0.0776  0.6726
  801MOL0     H 5707   2.922   2.048  10.749  0.2928  0.4774 -3.5434
  801MOL0     H 5708   2.792   1.776  10.804  0.4444  0.3594  0.2478
  801MOL0     H 5709   2.724   1.902  10.712  1.5378 -2.4248 -1.7253
  801MOL0     H 5710   2.762   1.908  11.013  0.1638  0.7691  1.8317
  801MOL0     H 5711   2.772   2.063  10.928 -0.4572 -0.0003  0.6854
  801MOL0     H 5712   2.556   2.048  10.837 -1.2656  0.6100  1.9816
  801MOL0     H 5713   2.544   2.029  11.004 -1.3039  0.3585 -0.0181
  801MOL0     H 5714   3.717   1.890  10.836 -2.6110  0.4462 -0.2530
  801MOL0     H 5715   3.922   1.917  10.704  0.8723  2.0039 -0.1335
  801MOL0     H 5716   4.110   2.160  10.253 -0.7293 -0.2205  0.9839
  801MOL0     H 5717   4.296   2.126  10.124 -1.1127  0.2547  0.1624
  801MOL0     H 5718   4.267   0.345  10.293  0.4420  0.5562 -0.0861
  801MOL0     H 5719   4.085   0.291  10.441 -2.3223  2.2572  0.3120
  801MOL0     H 5720   3.633   0.387  10.596  0.3953  0.0045 -0.7603
  801MOL0     H 5721   3.478   0.257  10.728 -0.9432  2.1188  3.2677
  801MOL0     H 5722   3.509   0.317  11.088 -2.9470  0.6317  1.5710
  801MOL0     H 5723   3.487   0.169  11.180 -5.4881  0.8317  1.2775
  801MOL0     H 5724   3.289   0.275  10.981 -2.0834 -1.5259 -0.7128
  801MOL0     H 5725   3.276   0.127  11.025 -0.2921  0.3193  0.9771
  801MOL0     H 5726   3.252   0.389  11.188 -1.8903  0.0674  0.8840
  801MOL0     H 5727   3.271   0.227  11.275 -0.5847 -0.6113  1.0445
  801MOL0     H 5728   3.063   0.164  11.197  1.9633  0.1373 -0.1181
  801MOL0     H 5729   3.029   0.341  11.243  0.3523 -1.3492  2.3440
  801MOL0     H 5730   2.985   0.307  10.821 -0.8567  1.9639 -0.8509
  801MOL0     H 5731   3.780   0.217  11.042 -2.0413 -2.9818 -0.3322
  801MOL0     H 5732   3.931   0.338  10.887  0.2137 -0.5469  0.5782
  802MOL0     O 5733   8.876   5.535   3.481 -0.4566 -1.0973 -0.9800
  802MOL0     C 5734   8.961   5.540   3.398 -0.5292  0.1598 -0.2924
  802MOL0     O 5735   8.946   5.488   3.274  0.4488 -0.0769 -0.0690
  802MOL0     C 5736   8.833   5.407   3.252 -0.8207 -0.3780  0.2546
  802MOL0     C 5737   8.693   5.458   3.254 -0.4052  0.2974 -1.2950
  802MOL0     C 5738   8.581   5.378   3.220  0.2987  0.4963 -0.0458
  802MOL0     C 5739   8.603   5.247   3.185 -0.1870 -0.2841  0.3392
  802MOL0     O 5740   8.490   5.179   3.137 -0.6126 -0.7444 -0.7841
  802MOL0     C 5741   8.439   5.050   3.182  0.2099 -0.0171 -0.9214
  802MOL0     C 5742   8.357   5.055   3.312 -0.6150  0.0998  0.5326
  802MOL0     C 5743   8.258   5.179   3.319 -0.5597  0.2179 -0.8231
  802MOL0     C 5744   8.156   5.146   3.425  0.1423  0.3417 -0.2685
  802MOL0     C 5745   8.044   5.055   3.381  0.3745 -0.0945 -0.1483
  802MOL0     C 5746   7.953   5.106   3.269 -1.2695 -0.1834  0.0703
  802MOL0     C 5747   7.896   5.250   3.288 -0.4064 -0.1158  0.6745
  802MOL0     C 5748   7.800   5.264   3.407 -0.5808  0.0545  0.1800
  802MOL0     N 5749   7.852   5.339   3.522  0.7666  0.2196  0.0021
  802MOL0     C 5750   7.908   5.463   3.526 -0.3236 -0.0614  0.6585
  802MOL0     C 5751   7.902   5.502   3.651  0.0536  0.8356 -0.2576
  802MOL0     C 5752   7.948   5.637   3.693  0.5160  0.1692 -0.5873
  802MOL0     C 5753   8.094   5.680   3.666  0.9161  0.6242  0.8268
  802MOL0     C 5754   8.151   5.784   3.755 -1.0662 -0.6464 -0.1465
  802MOL0     C 5755   8.282   5.835   3.694  0.0381 -0.1378 -0.0113
  802MOL0     O 5756   8.381   5.732   3.680  0.8052 -0.4082 -0.3533
  802MOL0     C 5757   8.481   5.753   3.580 -0.1748 -0.2807  1.1275
  802MOL0     C 5758   8.449   5.757   3.443  0.3517 -0.3108  1.0104
  802MOL0     C 5759   8.541   5.795   3.345 -0.5970  0.3246 -0.7158
  802MOL0     C 5760   8.678   5.810   3.381  0.3614 -0.1358  0.5067
  802MOL0     C 5761   8.786   5.852   3.288  1.1048  0.3001 -0.1545
  802MOL0     O 5762   8.909   5.888   3.340 -1.0327 -0.2841 -0.1248
  802MOL0     C 5763   8.993   5.960   3.258  0.7372  0.6790 -0.4959
  802MOL0     C 5764   9.073   5.906   3.152  0.4712 -0.4206 -0.7848
  802MOL0     C 5765   9.165   5.986   3.079 -0.2197  0.3538  0.2596
  802MOL0     C 5766   9.169   6.126   3.108 -0.0045  0.9861  0.1889
  802MOL0     O 5767   9.250   6.194   3.032 -0.3743  0.2255 -0.0931
  802MOL0     C 5768   9.306   6.316   3.079  1.2627  0.1039 -0.3510
  802MOL0     C 5769   9.387   6.383   2.966 -0.5569 -0.9146 -0.4523
  802MOL0     C 5770   9.293   6.396   2.840 -0.4311  0.6883 -0.2809
  802MOL0     C 5771   9.376   6.485   2.748  0.0240 -0.0573  1.3870
  802MOL0     C 5772   9.304   6.475   2.614  0.6692 -0.5476  0.4125
  802MOL0     C 5773   9.163   6.548   2.617 -1.0814  0.3826 -0.7113
  802MOL0     C 5774   9.114   6.590   2.483  0.0424 -0.6022  0.0216
  802MOL0     C 5775   9.205   6.687   2.411 -0.6159  0.6221  0.1435
  802MOL0    Cl 5776   9.113   6.757   2.289 -0.3134 -0.2797  0.2408
  802MOL0     C 5777   9.092   6.175   3.220 -0.2303  0.0245  0.4531
  802MOL0     C 5778   9.007   6.091   3.288 -0.7830  0.4922  0.5016
  802MOL0     O 5779   8.747   5.880   3.177  0.0342  0.0129 -0.2437
  802MOL0     C 5780   8.710   5.794   3.518  0.1990 -1.0953  0.0239
  802MOL0     C 5781   8.616   5.758   3.611 -0.4567  0.0603  0.0193
  802MOL0     N 5782   7.863   5.390   3.731  0.6616  0.0722  0.9191
  802MOL0     N 5783   7.830   5.295   3.647 -0.0752 -0.0995 -0.2283
  802MOL0     C 5784   8.729   5.191   3.185  0.1002 -0.0851  0.0821
  802MOL0     C 5785   8.842   5.269   3.227  0.2156  0.4421 -0.5648
  802MOL0     C 5786   9.074   5.620   3.429 -0.4135 -0.2970  0.7747
  802MOL0     C 5787   9.088   5.691   3.552  0.6451  0.3700  0.0398
  802MOL0     C 5788   9.213   5.759   3.566  0.5457  0.0886 -0.2702
  802MOL0     C 5789   9.315   5.769   3.470  0.1917  0.3861 -0.2047
  802MOL0     O 5790   9.422   5.848   3.494  0.6159 -0.2918 -0.1440
  802MOL0     C 5791   9.538   5.836   3.413 -0.6875 -0.1000  0.3618
  802MOL0     C 5792   9.654   5.927   3.472  0.6553 -0.0487 -0.3450
  802MOL0     C 5793   9.776   5.920   3.372 -0.6119  0.9651 -0.5956
  802MOL0     C 5794   9.824   5.782   3.323  0.4147  0.6000  0.6010
  802MOL0     C 5795   9.823   5.671   3.423 -0.4472  0.5646  0.3057
  802MOL0     C 5796   9.818   5.581   3.511  0.3688 -0.1894 -0.1806
  802MOL0     C 5797   9.286   5.711   3.351 -1.1267  0.9604  0.0692
  802MOL0     C 5798   9.179   5.633   3.331  0.4801  0.1751  0.4090
  802MOL0     H 5799   8.674   5.561   3.284  4.8879  0.7735  1.7265
  802MOL0     H 5800   8.480   5.418   3.220 -0.1631 -0.2914 -3.4814
  802MOL0     H 5801   8.525   4.985   3.199  0.5405  0.5021 -0.5620
  802MOL0     H 5802   8.373   5.002   3.109 -0.6684  0.4612 -0.4646
  802MOL0     H 5803   8.425   5.044   3.397 -1.2521 -2.9505  0.7700
  802MOL0     H 5804   8.305   4.959   3.303  1.1000 -0.6641 -3.3897
  802MOL0     H 5805   8.224   5.212   3.220 -1.0428  1.5639 -0.2389
  802MOL0     H 5806   8.317   5.268   3.341  1.4924 -0.4301 -3.2511
  802MOL0     H 5807   8.207   5.110   3.515 -0.8986  1.2592  0.7108
  802MOL0     H 5808   8.113   5.240   3.460  1.5057  0.0371  2.4621
  802MOL0     H 5809   7.963   5.050   3.456  1.0801 -0.3240  0.6119
  802MOL0     H 5810   8.081   4.954   3.362  2.8491  0.2768  2.1372
  802MOL0     H 5811   7.866   5.040   3.255 -1.2551 -0.2416  0.2498
  802MOL0     H 5812   7.999   5.104   3.170 -0.9094 -0.6892  0.2479
  802MOL0     H 5813   7.980   5.320   3.293  0.5341 -0.4856 -4.2616
  802MOL0     H 5814   7.840   5.259   3.194  2.0562 -0.8029 -0.9703
  802MOL0     H 5815   7.760   5.166   3.436 -3.1244  0.2260 -2.2782
  802MOL0     H 5816   7.704   5.306   3.376 -1.6695 -2.1063  0.3654
  802MOL0     H 5817   7.936   5.512   3.433  0.1786 -0.7469  0.4405
  802MOL0     H 5818   7.935   5.640   3.802 -1.8748 -0.3679 -0.7980
  802MOL0     H 5819   7.873   5.705   3.653 -2.0401  0.1779  3.6637
  802MOL0     H 5820   8.090   5.721   3.564  0.2234 -0.6584  0.3145
  802MOL0     H 5821   8.156   5.590   3.670  0.0036 -0.2942 -2.4689
  802MOL0     H 5822   8.088   5.873   3.766 -0.6141 -0.3227 -0.1661
  802MOL0     H 5823   8.168   5.735   3.851 -3.5407 -0.5144  0.4407
  802MOL0     H 5824   8.333   5.921   3.737  0.9162 -0.2103 -0.8721
  802MOL0     H 5825   8.247   5.877   3.599  1.5175  1.1421 -0.0204
  802MOL0     H 5826   8.345   5.746   3.413  0.1270  1.3709  1.0932
  802MOL0     H 5827   8.504   5.796   3.243 -2.1736 -2.9418 -0.3040
  802MOL0     H 5828   9.042   5.808   3.116 -1.8727  0.3979 -1.1714
  802MOL0     H 5829   9.228   5.950   2.998  0.3984  2.1858 -0.1138
  802MOL0     H 5830   9.368   6.287   3.164 -2.7462  0.1358  2.9218
  802MOL0     H 5831   9.237   6.393   3.116  2.3922  1.4528 -0.9674
  802MOL0     H 5832   9.477   6.326   2.941  1.2934  1.0515  1.3600
  802MOL0     H 5833   9.413   6.482   3.004  0.9849 -1.6727  0.5494
  802MOL0     H 5834   9.197   6.438   2.870  0.2941 -0.3100  4.0122
  802MOL0     H 5835   9.268   6.301   2.792 -1.4707  2.2130 -3.0229
  802MOL0     H 5836   9.381   6.588   2.784 -2.7095  0.4854  0.4152
  802MOL0     H 5837   9.477   6.446   2.729 -0.9168 -1.8317 -0.3028
  802MOL0     H 5838   9.281   6.377   2.570 -3.1440  0.7047 -0.7253
  802MOL0     H 5839   9.375   6.528   2.550  1.6039 -1.1823  0.8911
  802MOL0     H 5840   9.181   6.638   2.676 -3.1090  0.2337  0.1994
  802MOL0     H 5841   9.083   6.487   2.659 -1.9856  0.2694 -2.4787
  802MOL0     H 5842   9.098   6.512   2.409 -1.0771 -3.2143  2.7990
  802MOL0     H 5843   9.019   6.643   2.496 -1.2154 -2.8737  0.5803
  802MOL0     H 5844   9.295   6.638   2.373 -0.7256 -0.3069  1.0272
  802MOL0     H 5845   9.234   6.770   2.477  0.5629  0.0113  0.4242
  802MOL0     H 5846   9.102   6.279   3.249  0.1334  0.7757 -2.0935
  802MOL0     H 5847   8.954   6.122   3.378 -0.1644  0.0445  1.0372
  802MOL0     H 5848   8.817   5.794   3.536  0.5692  0.2131 -1.8366
  802MOL0     H 5849   8.661   5.733   3.707  1.1872  0.1083 -0.7105
  802MOL0     H 5850   8.747   5.087   3.158 -0.4139 -0.1324 -0.0848
  802MOL0     H 5851   8.939   5.220   3.222 -0.6373 -1.7571  1.7495
  802MOL0     H 5852   9.011   5.686   3.628 -0.1770  1.2990 -0.7035
  802MOL0     H 5853   9.227   5.808   3.662  0.7034  0.1793 -0.3394
  802MOL0     H 5854   9.533   5.878   3.312 -0.0325  1.1010  0.8096
  802MOL0     H 5855   9.566   5.730   3.409 -2.6117 -0.6470  0.5223
  802MOL0     H 5856   9.611   6.027   3.471 -0.5814 -0.5620 -1.0145
  802MOL0     H 5857   9.681   5.892   3.572 -2.0092  0.9295  0.8174
  802MOL0     H 5858   9.855   5.961   3.435 -1.4197  1.1753  0.3070
  802MOL0     H 5859   9.756   5.977   3.281 -1.4311 -0.7471 -1.5308
  802MOL0     H 5860   9.758   5.742   3.245  1.1343  1.7445 -0.6421
  802MOL0     H 5861   9.925   5.783   3.281 -0.3419 -1.9667 -1.5848
  802MOL0     H 5862   9.799   5.498   3.576  0.6978 -0.2466 -0.1580
  802MOL0     H 5863   9.357   5.723   3.269 -2.5914 -1.0384 -1.6220
  802MOL0     H 5864   9.162   5.582   3.237 -1.1647 -1.2515  1.4206
  803MOL0     O 5865  10.478   4.270  10.597 -0.4291 -0.7308 -0.4548
  803MOL0     C 5866  10.551   4.281  10.503  0.3642  0.8877  0.6809
  803MOL0     O 5867  10.690   4.304  10.517 -0.4761  0.1794 -0.1365
  803MOL0     C 5868  10.740   4.362  10.629  0.6892  0.0286  0.6259
  803MOL0     C 5869  10.845   4.289  10.694  1.0535 -1.0608  0.9908
  803MOL0     C 5870  10.915   4.350  10.797 -0.6822  0.4109 -0.3368
  803MOL0     C 5871  10.873   4.476  10.858 -0.3467  0.4261  0.7897
  803MOL0     O 5872  10.934   4.544  10.959  0.6523 -0.7661  0.1443
  803MOL0     C 5873  11.077   4.529  10.988  0.4238 -0.3752 -0.4746
  803MOL0     C 5874  11.109   4.582  11.128 -0.3200  0.0834 -0.4616
  803MOL0     C 5875  11.128   4.728  11.129 -0.0157 -0.1753  0.1048
  803MOL0     C 5876  11.152   4.782  11.270 -0.3090  0.1032 -0.1495
  803MOL0     C 5877  11.194   4.922  11.250  0.6377  0.3133  0.2113
  803MOL0     C 5878  11.253   4.984  11.386 -0.8732 -0.9200 -0.0459
  803MOL0     C 5879  11.302   5.115  11.340 -0.0639 -0.4591 -0.6446
  803MOL0     C 5880  11.336   5.209  11.442 -0.0688  0.6720 -0.0051
  803MOL0     N 5881  11.453   5.152  11.520  0.6300  0.7401 -0.2865
  803MOL0     C 5882  11.583   5.201  11.503 -0.1282  0.6906  0.1528
  803MOL0     C 5883  11.650   5.157  11.612  0.4473 -0.8040  0.5541
  803MOL0     C 5884  11.806   5.169  11.636  0.7962 -0.0222  0.3308
  803MOL0     C 5885  11.889   5.133  11.505  0.0281  0.1832 -0.4646
  803MOL0     C 5886  12.038   5.143  11.531 -0.0139 -0.7656  0.4903
  803MOL0     C 5887  12.115   5.072  11.417  0.4361  0.6836 -0.8882
  803MOL0     O 5888  12.191   5.171  11.343  0.2328  0.6262 -0.3229
  803MOL0     C 5889  12.312   5.192  11.384 -0.6526 -1.3725  0.6883
  803MOL0     C 5890  12.344   5.305  11.467  0.3183  0.7165 -0.7952
  803MOL0     C 5891  12.468   5.321  11.510 -0.4031 -0.8591 -1.1611
  803MOL0     C 5892  12.577   5.230  11.483  0.4095 -0.0431 -0.0748
  803MOL0     C 5893  12.714   5.254  11.522  0.9044  0.3784 -0.1952
  803MOL0     O 5894  12.741   5.379  11.557  0.1826 -0.2547  0.3131
  803MOL0     C 5895  12.868   5.425  11.565 -0.8363  0.0320  1.0791
  803MOL0     C 5896  12.910   5.523  11.471 -0.0123  0.7153 -0.2322
  803MOL0     C 5897  13.035   5.568  11.469 -0.2814  0.0869 -0.9756
  803MOL0     C 5898  13.132   5.527  11.576 -1.1087 -0.3344 -0.4474
  803MOL0     O 5899  13.260   5.578  11.599 -0.1698  0.1447  0.4020
  803MOL0     C 5900  13.298   5.692  11.523  0.0169  0.8547  1.2538
  803MOL0     C 5901  13.426   5.747  11.570  0.7325  0.0035  0.2596
  803MOL0     C 5902  13.531   5.795  11.468 -0.2831 -0.7800 -0.4595
  803MOL0     C 5903  13.656   5.846  11.539 -0.6798 -0.7441 -0.3999
  803MOL0     C 5904  13.761   5.900  11.447 -0.7262 -0.5026  1.3263
  803MOL0     C 5905  13.710   6.002  11.346 -0.6586  0.4373 -0.0801
  803MOL0     C 5906  13.828   6.052  11.263 -0.6873 -0.1216 -0.1123
  803MOL0     C 5907  13.929   6.137  11.339 -0.2991  0.4240 -1.1391
  803MOL0    Cl 5908  13.874   6.245  11.457 -0.0984  0.2430  0.3113
  803MOL0     C 5909  13.092   5.420  11.656  0.8183 -0.7915 -0.6737
  803MOL0     C 5910  12.959   5.370  11.655 -0.7966 -0.1407  0.3614
  803MOL0     O 5911  12.791   5.167  11.488 -0.4542  0.2738 -1.2408
  803MOL0     C 5912  12.539   5.111  11.406 -0.0312  0.8872  0.7783
  803MOL0     C 5913  12.415   5.104  11.348 -0.4490 -0.0029 -0.3488
  803MOL0     N 5914  11.560   5.102  11.707  0.7311 -0.0738  0.6242
  803MOL0     N 5915  11.448   5.094  11.651  0.6838 -0.0666 -0.2032
  803MOL0     C 5916  10.758   4.533  10.816 -0.6984  0.3852 -0.5299
  803MOL0     C 5917  10.695   4.479  10.702 -0.3003 -0.2724  0.0882
  803MOL0     C 5918  10.491   4.244  10.368  0.6500 -0.5403 -0.8736
  803MOL0     C 5919  10.352   4.247  10.339 -0.2359 -0.4342 -0.8785
  803MOL0     C 5920  10.299   4.214  10.215  0.3825  0.3243 -0.9460
  803MOL0     C 5921  10.388   4.178  10.115 -0.2397 -0.3626  0.5133
  803MOL0     O 5922  10.343   4.154   9.988 -0.2711  0.3222 -1.0396
  803MOL0     C 5923  10.212   4.176   9.937 -0.0899  0.1234 -0.9289
  803MOL0     C 5924  10.221   4.133   9.797  0.4254  0.0239  0.3899
  803MOL0     C 5925  10.242   3.977   9.784 -0.6856 -0.0298 -1.0780
  803MOL0     C 5926  10.246   3.928   9.636  0.1543  0.2620 -1.2483
  803MOL0     C 5927  10.251   3.783   9.627  0.2160 -0.9713 -0.4773
  803MOL0     C 5928  10.269   3.664   9.631  1.2092  0.5496  0.0107
  803MOL0     C 5929  10.523   4.173  10.135  0.0380 -0.9597  0.7188
  803MOL0     C 5930  10.578   4.206  10.263 -0.2321 -0.4048 -0.0315
  803MOL0     H 5931  10.880   4.215  10.623 -2.0619 -0.2472 -1.6461
  803MOL0     H 5932  11.008   4.297  10.811 -2.2847 -2.1613  1.3505
  803MOL0     H 5933  11.144   4.581  10.919 -2.2215  0.4635 -2.5966
  803MOL0     H 5934  11.098   4.422  10.986  1.2476 -0.2181 -0.6856
  803MOL0     H 5935  11.204   4.537  11.159 -1.1888 -1.8662 -0.4368
  803MOL0     H 5936  11.035   4.551  11.202  3.0684 -0.9113  2.7746
  803MOL0     H 5937  11.042   4.783  11.088 -0.3941 -1.6804 -1.2312
  803MOL0     H 5938  11.203   4.747  11.051 -2.1119  2.5571 -1.4733
  803MOL0     H 5939  11.068   4.768  11.339  0.5264  2.5802  1.4921
  803MOL0     H 5940  11.240   4.727  11.304 -0.2339 -0.7218 -1.6030
  803MOL0     H 5941  11.100   4.971  11.221 -0.0394 -1.4494 -0.6717
  803MOL0     H 5942  11.274   4.926  11.177 -0.1061 -6.4202 -1.6224
  803MOL0     H 5943  11.343   4.933  11.421  0.2868 -0.6575 -2.4393
  803MOL0     H 5944  11.177   4.988  11.465 -0.6168  2.0921  0.1533
  803MOL0     H 5945  11.392   5.099  11.279  0.4993 -1.6691  0.4720
  803MOL0     H 5946  11.241   5.174  11.271  2.7628  2.3132 -1.0243
  803MOL0     H 5947  11.247   5.233  11.502 -1.6207  1.1835 -2.3813
  803MOL0     H 5948  11.359   5.303  11.390 -0.8079 -0.0147 -1.6139
  803MOL0     H 5949  11.625   5.262  11.423 -1.4369 -0.2846 -1.3413
  803MOL0     H 5950  11.823   5.107  11.724 -2.5102  1.0595  1.8934
  803MOL0     H 5951  11.819   5.272  11.672 -3.1802  0.2475  1.4294
  803MOL0     H 5952  11.859   5.213  11.436  4.6001  3.9745  1.3723
  803MOL0     H 5953  11.862   5.033  11.471  3.6688 -0.0467 -3.3014
  803MOL0     H 5954  12.074   5.244  11.551  0.6732 -1.1732  1.3983
  803MOL0     H 5955  12.049   5.088  11.624 -1.5699  1.1364  1.8756
  803MOL0     H 5956  12.043   5.015  11.358  0.4490  0.3036 -0.5427
  803MOL0     H 5957  12.184   4.995  11.454  3.2774  2.8750 -1.2172
  803MOL0     H 5958  12.276   5.383  11.500 -0.6704 -1.3008  2.4232
  803MOL0     H 5959  12.488   5.410  11.569  0.5833  0.3856 -3.2720
  803MOL0     H 5960  12.841   5.564  11.398 -2.5135  0.5001  1.8451
  803MOL0     H 5961  13.062   5.639  11.391  0.4522  0.9490  0.0296
  803MOL0     H 5962  13.222   5.769  11.509 -1.1968 -0.6270 -0.7284
  803MOL0     H 5963  13.319   5.658  11.421 -1.5441 -0.7184  1.4073
  803MOL0     H 5964  13.474   5.657  11.610  0.5710 -1.3235 -2.3066
  803MOL0     H 5965  13.406   5.826  11.644  4.9649  1.9101 -0.3240
  803MOL0     H 5966  13.481   5.876  11.416  0.9063  0.3674  0.1371
  803MOL0     H 5967  13.551   5.701  11.416 -0.1302 -1.1292  0.2118
  803MOL0     H 5968  13.638   5.930  11.607  0.2121 -0.4911 -0.4567
  803MOL0     H 5969  13.696   5.768  11.604 -1.1785  0.5175  1.5211
  803MOL0     H 5970  13.819   5.823  11.395  3.0267  0.3490  3.9018
  803MOL0     H 5971  13.834   5.957  11.504 -0.4055 -0.8447  1.2558
  803MOL0     H 5972  13.669   6.084  11.406  0.1708  2.0703 -1.6760
  803MOL0     H 5973  13.640   5.961  11.273 -0.8604  3.1376 -1.5264
  803MOL0     H 5974  13.875   5.974  11.201  0.5703  1.0019 -0.6390
  803MOL0     H 5975  13.788   6.125  11.192 -0.6593  1.1089  1.1074
  803MOL0     H 5976  14.000   6.203  11.288 -0.7492  2.0250  0.2430
  803MOL0     H 5977  13.999   6.068  11.388 -1.2595  1.9235  2.6314
  803MOL0     H 5978  13.154   5.385  11.737 -1.6286 -1.3528  1.0503
  803MOL0     H 5979  12.913   5.298  11.722 -1.9035  1.6267  1.5753
  803MOL0     H 5980  12.608   5.034  11.372 -0.6468  0.1139  1.2340
  803MOL0     H 5981  12.389   5.014  11.292 -0.5428  0.0225 -0.3472
  803MOL0     H 5982  10.726   4.624  10.866 -0.0020  3.4724 -5.0987
  803MOL0     H 5983  10.627   4.546  10.650 -0.6394  0.2412  1.1735
  803MOL0     H 5984  10.284   4.283  10.416  2.7682  2.9877  0.5225
  803MOL0     H 5985  10.197   4.241  10.190  0.3212  1.0771  0.0889
  803MOL0     H 5986  10.177   4.274   9.970  1.0314 -0.4258  2.2471
  803MOL0     H 5987  10.137   4.108   9.976 -0.5198  0.3702 -1.3143
  803MOL0     H 5988  10.120   4.139   9.755 -0.2409 -3.3211  1.2252
  803MOL0     H 5989  10.296   4.192   9.744  0.0472  1.4320  1.3585
  803MOL0     H 5990  10.161   3.931   9.840 -0.4526 -0.2860 -0.9486
  803MOL0     H 5991  10.330   3.956   9.847 -0.4327  2.4047 -0.4988
  803MOL0     H 5992  10.156   3.961   9.582  0.3293 -1.8461 -2.9712
  803MOL0     H 5993  10.333   3.968   9.583  2.9387 -2.7910  0.6704
  803MOL0     H 5994  10.269   3.557   9.626 -1.7832  0.4871 -0.5389
  803MOL0     H 5995  10.587   4.138  10.054 -3.0974  0.0703 -2.4436
  803MOL0     H 5996  10.683   4.187  10.280 -0.7635 -2.0744  1.7786
  804MOL0     O 5997  10.826   1.799   2.320 -0.2752 -0.1578  0.7760
  804MOL0     C 5998  10.800   1.695   2.380 -0.1036  0.3024 -0.0819
  804MOL0     O 5999  10.896   1.593   2.414 -0.0707  0.9166  0.6443
  804MOL0     C 6000  11.025   1.616   2.368 -0.1810 -0.7724 -0.4536
  804MOL0     C 6001  11.124   1.659   2.463  0.0663 -0.0278 -0.2617
  804MOL0     C 6002  11.258   1.681   2.424 -0.6290  0.3115 -0.0894
  804MOL0     C 6003  11.296   1.668   2.290 -1.0290  1.1025  0.6278
  804MOL0     O 6004  11.434   1.675   2.273 -0.1530  0.2211 -0.0107
  804MOL0     C 6005  11.500   1.582   2.181 -0.4653 -0.7462 -0.1653
  804MOL0     C 6006  11.655   1.584   2.216  0.2492  1.1825  0.2469
  804MOL0     C 6007  11.722   1.494   2.109  0.3262  0.6113 -0.8018
  804MOL0     C 6008  11.873   1.464   2.141  0.3586  0.3831  0.6655
  804MOL0     C 6009  11.924   1.342   2.069 -2.0122 -0.0109  0.9992
  804MOL0     C 6010  11.936   1.368   1.921 -0.7091  0.6442  0.1542
  804MOL0     C 6011  12.043   1.462   1.850 -0.0837 -1.3617  0.1383
  804MOL0     C 6012  12.179   1.468   1.928  1.0761  0.4427 -0.4168
  804MOL0     N 6013  12.256   1.351   1.879 -0.4977 -0.4817  0.2330
  804MOL0     C 6014  12.387   1.332   1.929  0.9348  0.2026  0.2573
  804MOL0     C 6015  12.445   1.227   1.869  0.4216  0.5381  0.2547
  804MOL0     C 6016  12.579   1.158   1.864  1.4173 -0.2187  1.1456
  804MOL0     C 6017  12.698   1.255   1.840 -0.4176 -0.0324  0.6246
  804MOL0     C 6018  12.745   1.352   1.951  0.2086  0.5172 -0.0429
  804MOL0     C 6019  12.862   1.285   2.016  0.5007 -0.3053  1.2438
  804MOL0     O 6020  12.917   1.370   2.116  0.0140  0.2447  0.6265
  804MOL0     C 6021  12.998   1.306   2.206  0.7346 -0.4509  0.0141
  804MOL0     C 6022  13.127   1.342   2.219 -0.1662  0.7459  0.1484
  804MOL0     C 6023  13.221   1.297   2.307 -0.4129 -0.0995 -0.3473
  804MOL0     C 6024  13.168   1.225   2.416 -0.2134  1.0849  0.0361
  804MOL0     C 6025  13.246   1.184   2.536 -0.8774 -0.0826  0.2381
  804MOL0     O 6026  13.374   1.167   2.521 -0.3306 -0.8562  0.7620
  804MOL0     C 6027  13.458   1.184   2.629 -0.6741 -0.2421 -0.7899
  804MOL0     C 6028  13.443   1.295   2.713 -0.4078 -0.2794  0.4111
  804MOL0     C 6029  13.534   1.308   2.823 -0.5160  0.0903  0.4752
  804MOL0     C 6030  13.629   1.213   2.845 -0.7518 -0.7707 -0.8072
  804MOL0     O 6031  13.709   1.224   2.960 -0.0025 -0.4207  0.1757
  804MOL0     C 6032  13.696   1.345   3.046  0.3309  0.8628  0.4450
  804MOL0     C 6033  13.767   1.318   3.177 -0.1854  0.5965 -0.6879
  804MOL0     C 6034  13.912   1.356   3.189  0.5713 -1.2093  0.2917
  804MOL0     C 6035  13.977   1.302   3.318 -0.3473 -0.1358 -0.3259
  804MOL0     C 6036  14.129   1.319   3.285  0.1601 -0.3477 -0.1432
  804MOL0     C 6037  14.220   1.197   3.331  0.4640  0.0390  0.7143
  804MOL0     C 6038  14.213   1.183   3.485 -0.0200  0.9479 -0.1879
  804MOL0     C 6039  14.304   1.079   3.542  0.6386 -0.5332 -0.6744
  804MOL0    Cl 6040  14.283   0.917   3.480  0.2679 -0.1700 -0.0620
  804MOL0     C 6041  13.656   1.101   2.761  0.6910 -0.5234  1.4489
  804MOL0     C 6042  13.556   1.084   2.659 -0.3531 -0.3310  0.3034
  804MOL0     O 6043  13.183   1.168   2.641  0.5974  0.0859 -0.6783
  804MOL0     C 6044  13.031   1.184   2.406 -0.2929 -0.3188 -0.5659
  804MOL0     C 6045  12.945   1.223   2.300  0.2389 -0.7178 -1.1146
  804MOL0     N 6046  12.343   1.170   1.790  0.1003 -0.1891  0.4311
  804MOL0     N 6047  12.228   1.248   1.793 -1.7289  0.0391  0.3791
  804MOL0     C 6048  11.200   1.626   2.194 -0.0647 -0.0797 -0.1783
  804MOL0     C 6049  11.071   1.602   2.235 -0.1647 -0.2812  0.0770
  804MOL0     C 6050  10.673   1.675   2.452  0.2582  0.2307  0.6923
  804MOL0     C 6051  10.547   1.713   2.387  0.0996 -1.3172  0.3016
  804MOL0     C 6052  10.430   1.696   2.445  1.6213  0.4011  0.3438
  804MOL0     C 6053  10.419   1.634   2.566 -0.2824 -0.3030 -0.5513
  804MOL0     O 6054  10.303   1.626   2.618  0.9980 -0.1622  0.3800
  804MOL0     C 6055  10.214   1.532   2.560 -0.1666  0.7658 -0.1909
  804MOL0     C 6056  10.239   1.405   2.640 -0.6791 -1.4099  0.6190
  804MOL0     C 6057  10.141   1.298   2.608 -0.0585  1.1485 -0.2771
  804MOL0     C 6058  10.122   1.200   2.732 -0.1138  0.5813  0.1504
  804MOL0     C 6059   9.987   1.126   2.725 -0.3848  0.6832 -0.0267
  804MOL0     C 6060   9.884   1.066   2.708  0.6404 -0.3152 -0.1218
  804MOL0     C 6061  10.536   1.592   2.638 -0.5329  0.0895  0.0520
  804MOL0     C 6062  10.664   1.628   2.585 -0.4231  0.1768 -0.1558
  804MOL0     H 6063  11.104   1.668   2.570 -2.0688 -1.2753 -0.5136
  804MOL0     H 6064  11.331   1.707   2.500  1.5176 -0.1860 -1.8939
  804MOL0     H 6065  11.488   1.630   2.084 -1.5153  0.5559  0.5740
  804MOL0     H 6066  11.469   1.478   2.196  1.3474 -1.2712  0.1915
  804MOL0     H 6067  11.671   1.546   2.317 -1.1484  0.0340  0.0729
  804MOL0     H 6068  11.689   1.688   2.219 -3.7499  2.6607  2.4342
  804MOL0     H 6069  11.702   1.545   2.015 -1.5861 -1.4268 -1.6195
  804MOL0     H 6070  11.673   1.396   2.111  1.1086  0.1938 -1.5754
  804MOL0     H 6071  11.931   1.551   2.110  0.6405  0.3351  1.0555
  804MOL0     H 6072  11.884   1.435   2.246 -0.5349 -3.5176 -0.1719
  804MOL0     H 6073  11.860   1.257   2.094 -1.9284 -0.1225  0.8324
  804MOL0     H 6074  12.022   1.312   2.107 -1.2566  1.3446  0.2094
  804MOL0     H 6075  11.836   1.405   1.897 -0.8812  1.1874  1.6466
  804MOL0     H 6076  11.949   1.282   1.854  1.1827  2.3257 -1.7907
  804MOL0     H 6077  12.064   1.431   1.747  5.9816  2.7406 -0.3813
  804MOL0     H 6078  12.007   1.564   1.837 -0.6652 -1.5877 -0.0542
  804MOL0     H 6079  12.170   1.444   2.034  1.6888 -2.2493 -0.8979
  804MOL0     H 6080  12.236   1.560   1.915 -2.6360  2.8277 -1.5692
  804MOL0     H 6081  12.436   1.410   1.987  3.0497 -1.0232  0.2288
  804MOL0     H 6082  12.579   1.083   1.785  0.0079  1.9913 -1.0993
  804MOL0     H 6083  12.584   1.112   1.963 -0.5128  2.4686  2.6116
  804MOL0     H 6084  12.666   1.317   1.756  1.8053 -0.0817 -0.3375
  804MOL0     H 6085  12.785   1.198   1.804  0.2144  2.3151 -1.8919
  804MOL0     H 6086  12.778   1.444   1.902  3.6331 -0.7354 -0.3834
  804MOL0     H 6087  12.661   1.376   2.017  1.2228 -2.6780  2.6720
  804MOL0     H 6088  12.944   1.259   1.949 -0.6165  1.4531 -0.9044
  804MOL0     H 6089  12.816   1.196   2.062 -0.0688 -1.0081 -0.5835
  804MOL0     H 6090  13.157   1.414   2.143  0.0479  1.3030  0.7568
  804MOL0     H 6091  13.328   1.315   2.304 -0.2198 -0.6936  1.6872
  804MOL0     H 6092  13.367   1.369   2.689 -1.0518 -0.4963  1.6713
  804MOL0     H 6093  13.533   1.402   2.877  1.0055  0.9399 -0.8704
  804MOL0     H 6094  13.597   1.376   3.080  1.6075  1.5609  3.9549
  804MOL0     H 6095  13.740   1.429   2.992  0.4724  1.8978  2.0952
  804MOL0     H 6096  13.765   1.210   3.194  0.6671  0.1699 -2.9465
  804MOL0     H 6097  13.720   1.368   3.262  0.4070 -1.4614  0.9216
  804MOL0     H 6098  13.912   1.466   3.186 -2.1411 -1.1461 -0.5503
  804MOL0     H 6099  13.963   1.315   3.101  2.2076 -1.0773  1.1473
  804MOL0     H 6100  13.946   1.339   3.416 -1.1648 -2.5038  0.3932
  804MOL0     H 6101  13.957   1.194   3.321 -4.0678  0.4806  1.1619
  804MOL0     H 6102  14.164   1.404   3.345  0.5079 -1.8888  1.9496
  804MOL0     H 6103  14.152   1.345   3.182 -0.0756  2.0468  0.3503
  804MOL0     H 6104  14.323   1.192   3.295 -0.1749 -0.5382 -1.1401
  804MOL0     H 6105  14.180   1.107   3.285 -0.8969  1.8604 -1.8974
  804MOL0     H 6106  14.251   1.279   3.522 -0.9959  1.2692  0.0158
  804MOL0     H 6107  14.113   1.163   3.525  0.1990  3.0139  1.6383
  804MOL0     H 6108  14.286   1.073   3.650  0.7292  0.4989 -0.5904
  804MOL0     H 6109  14.408   1.112   3.553  1.0356 -2.3627  1.9612
  804MOL0     H 6110  13.732   1.028   2.784  0.0691 -1.6596  0.0667
  804MOL0     H 6111  13.570   0.997   2.596 -1.8312 -0.4376  0.0931
  804MOL0     H 6112  12.988   1.121   2.483  0.2457  1.1095  0.9607
  804MOL0     H 6113  12.839   1.202   2.302 -0.1968  1.1729 -1.6786
  804MOL0     H 6114  11.237   1.609   2.094  3.3399  1.3135  0.7298
  804MOL0     H 6115  11.014   1.564   2.151  3.5094 -1.4877 -2.1187
  804MOL0     H 6116  10.548   1.747   2.284 -1.9369  2.0407  1.2504
  804MOL0     H 6117  10.338   1.726   2.396 -0.3407 -1.2468  2.7627
  804MOL0     H 6118  10.225   1.507   2.454  0.8158  1.3754 -0.2478
  804MOL0     H 6119  10.117   1.579   2.573  0.2003  2.0806 -1.7908
  804MOL0     H 6120  10.346   1.383   2.634 -0.0191  1.2459  1.1444
  804MOL0     H 6121  10.237   1.444   2.742  2.2043 -1.4626  0.7681
  804MOL0     H 6122  10.168   1.244   2.517  3.3471  0.6709  0.8769
  804MOL0     H 6123  10.042   1.337   2.582  0.5753  2.5779 -0.6335
  804MOL0     H 6124  10.212   1.137   2.728  0.5121  1.5194 -1.1232
  804MOL0     H 6125  10.122   1.263   2.822 -0.4818  0.9051 -0.0769
  804MOL0     H 6126   9.792   1.018   2.682  0.0357  0.2305  0.9478
  804MOL0     H 6127  10.528   1.552   2.738 -0.6523  2.0544  0.8854
  804MOL0     H 6128  10.750   1.604   2.646 -0.9834  0.3444  0.7090
  805MOL0     O 6129   1.237   6.563   8.431  0.7584  0.0181 -0.6254
  805MOL0     C 6130   1.135   6.606   8.490 -0.7413  0.1815 -0.9663
  805MOL0     O 6131   1.005   6.574   8.460 -0.4379  0.0110  0.2470
  805MOL0     C 6132   0.977   6.482   8.365  0.6006 -0.2472 -0.4088
  805MOL0     C 6133   1.034   6.355   8.340  0.1671 -0.2472 -1.1235
  805MOL0     C 6134   0.994   6.271   8.235  0.8119 -0.2107  0.0433
  805MOL0     C 6135   0.887   6.315   8.154  0.7616 -1.0142 -0.7223
  805MOL0     O 6136   0.862   6.236   8.043  0.3114 -0.0238  0.7190
  805MOL0     C 6137   0.757   6.277   7.952  0.1215  0.3058 -0.3242
  805MOL0     C 6138   0.781   6.186   7.828 -0.1488 -0.2920 -0.3331
  805MOL0     C 6139   0.669   6.190   7.722  0.0791  0.2958 -0.2347
  805MOL0     C 6140   0.710   6.109   7.600  0.6393 -0.1158  0.9740
  805MOL0     C 6141   0.715   5.961   7.627  0.6572  0.4616 -0.2717
  805MOL0     C 6142   0.573   5.905   7.622 -0.5737  0.0413 -0.2425
  805MOL0     C 6143   0.581   5.751   7.653 -0.4385  0.7956 -1.0261
  805MOL0     C 6144   0.451   5.694   7.713  0.2753  0.3324 -0.1045
  805MOL0     N 6145   0.353   5.660   7.610  0.7213  1.2736  0.2243
  805MOL0     C 6146   0.243   5.738   7.599 -0.5955 -0.5719 -0.3142
  805MOL0     C 6147   0.182   5.687   7.490 -1.1074 -1.3956  1.3547
  805MOL0     C 6148   0.069   5.752   7.407  0.0611 -0.6199 -0.3111
  805MOL0     C 6149   0.113   5.800   7.267  0.7168  0.1845 -0.5013
  805MOL0     C 6150   0.230   5.888   7.275  0.4510  0.5959 -0.3479
  805MOL0     C 6151   0.366   5.823   7.249 -0.9775 -0.0870  0.7228
  805MOL0     O 6152   0.479   5.916   7.257 -0.1673  0.2669 -0.1135
  805MOL0     C 6153   0.526   5.982   7.143 -0.2256 -0.0861  0.0503
  805MOL0     C 6154   0.449   6.018   7.034  0.2192 -0.4532  0.5968
  805MOL0     C 6155   0.511   6.056   6.913 -0.5782 -1.1513 -0.1481
  805MOL0     C 6156   0.650   6.080   6.906 -0.2588  0.5415 -0.7114
  805MOL0     C 6157   0.724   6.106   6.782 -0.1552  0.5382  0.4657
  805MOL0     O 6158   0.663   6.069   6.671 -0.6911 -0.1858  0.5302
  805MOL0     C 6159   0.734   6.063   6.547  0.0436  0.0262 -0.0104
  805MOL0     C 6160   0.724   5.937   6.480 -0.0864  0.6715  0.1243
  805MOL0     C 6161   0.755   5.923   6.349 -0.7611  0.9582  0.1548
  805MOL0     C 6162   0.808   6.036   6.286  0.7540  0.6609  0.2213
  805MOL0     O 6163   0.826   6.023   6.147 -0.2639 -0.3324 -0.7150
  805MOL0     C 6164   0.820   6.137   6.060 -0.1352 -0.1356 -0.2037
  805MOL0     C 6165   0.805   6.102   5.907 -0.5778 -0.4190 -0.4444
  805MOL0     C 6166   0.943   6.042   5.867  0.1844  0.0451 -0.6978
  805MOL0     C 6167   0.943   5.980   5.732  0.6078 -0.6301  0.0901
  805MOL0     C 6168   1.075   5.930   5.702  0.8264  0.7811 -0.4694
  805MOL0     C 6169   1.065   5.850   5.574  0.6539 -0.1861 -0.0519
  805MOL0     C 6170   1.202   5.837   5.520  0.2842 -0.5658  0.1577
  805MOL0     C 6171   1.246   5.960   5.426 -1.3830 -0.0209 -0.0794
  805MOL0    Cl 6172   1.148   5.950   5.283 -0.5659 -0.0673  0.0566
  805MOL0     C 6173   0.829   6.151   6.351  0.0624 -1.3367  0.5314
  805MOL0     C 6174   0.791   6.171   6.487 -0.3156 -0.7863  0.2750
  805MOL0     O 6175   0.844   6.142   6.789  0.3323  0.2834 -0.6168
  805MOL0     C 6176   0.721   6.066   7.028 -0.3420  0.3314  0.8188
  805MOL0     C 6177   0.660   6.021   7.146  0.8955 -0.4626 -0.0234
  805MOL0     N 6178   0.252   5.573   7.448  0.3802  0.2353  0.1900
  805MOL0     N 6179   0.346   5.548   7.526  0.3473 -0.0157 -0.2324
  805MOL0     C 6180   0.810   6.430   8.185  0.3249 -0.2216 -0.9713
  805MOL0     C 6181   0.851   6.505   8.290  0.1186  0.0379  0.0936
  805MOL0     C 6182   1.167   6.701   8.602 -1.1730  0.6682 -0.5698
  805MOL0     C 6183   1.062   6.756   8.679  1.2124 -0.4118 -1.6269
  805MOL0     C 6184   1.100   6.851   8.776 -0.5351 -0.2163  0.2974
  805MOL0     C 6185   1.237   6.881   8.812 -0.6405 -0.2089  0.2338
  805MOL0     O 6186   1.276   6.969   8.910 -0.2222 -1.1743 -0.4188
  805MOL0     C 6187   1.186   7.050   8.993  0.6014  0.3887  0.7587
  805MOL0     C 6188   1.143   6.989   9.128  0.5352  0.1720  0.3471
  805MOL0     C 6189   1.259   6.962   9.224  0.6622  0.6738  0.6725
  805MOL0     C 6190   1.203   6.924   9.360  0.4296  0.2837 -1.6465
  805MOL0     C 6191   1.302   6.890   9.455 -0.1366  0.1095 -0.0792
  805MOL0     C 6192   1.390   6.863   9.532  0.7283 -1.3502 -0.4347
  805MOL0     C 6193   1.336   6.824   8.734  0.1313 -0.1169 -0.1956
  805MOL0     C 6194   1.303   6.743   8.629  0.0542 -0.7405  0.0256
  805MOL0     H 6195   1.115   6.319   8.403 -0.6785  0.5879  0.5128
  805MOL0     H 6196   1.039   6.172   8.231 -2.5645 -1.9361  1.2444
  805MOL0     H 6197   0.754   6.381   7.919  4.8756  0.4862 -0.8032
  805MOL0     H 6198   0.666   6.240   8.001 -0.7962  2.4802 -0.2694
  805MOL0     H 6199   0.800   6.085   7.867  0.6215 -1.0816 -2.5999
  805MOL0     H 6200   0.878   6.216   7.786 -0.5231 -0.0056 -0.9925
  805MOL0     H 6201   0.658   6.293   7.686  1.3189  0.6652  0.3751
  805MOL0     H 6202   0.574   6.146   7.756  1.1437 -1.7994  0.2012
  805MOL0     H 6203   0.638   6.135   7.521 -0.2465 -1.7713  1.2078
  805MOL0     H 6204   0.804   6.134   7.549 -0.9737 -0.7986 -2.6867
  805MOL0     H 6205   0.774   5.934   7.716  0.4374 -2.1197 -0.8172
  805MOL0     H 6206   0.773   5.915   7.547  1.3195  2.3475 -0.9226
  805MOL0     H 6207   0.540   5.932   7.521  0.2480  1.5968 -0.1293
  805MOL0     H 6208   0.512   5.954   7.699  1.0217  2.4988 -0.4009
  805MOL0     H 6209   0.610   5.687   7.569 -0.2876 -3.1633  1.7235
  805MOL0     H 6210   0.658   5.734   7.729 -0.2133  0.9215 -1.2258
  805MOL0     H 6211   0.407   5.768   7.782  0.5684  0.1376  0.3004
  805MOL0     H 6212   0.474   5.600   7.763 -1.0986 -0.3822 -0.7790
  805MOL0     H 6213   0.214   5.818   7.666 -2.0263 -1.1734 -0.1760
  805MOL0     H 6214   0.027   5.833   7.467  0.7394 -1.1744  0.9384
  805MOL0     H 6215  -0.007   5.674   7.392 -3.5395  2.7920 -1.7427
  805MOL0     H 6216   0.032   5.865   7.234 -0.3304 -0.2696  1.1004
  805MOL0     H 6217   0.131   5.714   7.201  2.6244  0.6975 -0.7081
  805MOL0     H 6218   0.209   5.968   7.203  0.1622  1.6259  0.8431
  805MOL0     H 6219   0.229   5.930   7.375  0.2398 -0.4452  0.0976
  805MOL0     H 6220   0.363   5.777   7.149 -1.4569 -0.3075  0.8392
  805MOL0     H 6221   0.393   5.756   7.330  2.4481  1.5554  1.1429
  805MOL0     H 6222   0.344   5.990   7.032  0.5205 -1.6750  0.9957
  805MOL0     H 6223   0.448   6.055   6.825 -2.0294 -0.9881  0.8523
  805MOL0     H 6224   0.680   5.855   6.537  3.2702 -2.3057 -1.1917
  805MOL0     H 6225   0.727   5.832   6.296 -1.0812 -0.5945  2.7576
  805MOL0     H 6226   0.905   6.203   6.077  0.6004 -0.9642 -0.5644
  805MOL0     H 6227   0.731   6.197   6.080 -0.3923 -0.6869  0.3589
  805MOL0     H 6228   0.805   6.192   5.844 -0.4422 -1.0873 -1.4142
  805MOL0     H 6229   0.719   6.036   5.897 -0.6246 -0.3512 -0.4932
  805MOL0     H 6230   0.956   5.954   5.931 -3.6830 -2.4520 -2.9180
  805MOL0     H 6231   1.019   6.119   5.883  0.5656 -0.8831  2.8067
  805MOL0     H 6232   0.860   5.909   5.737  0.8377 -0.8538  1.0282
  805MOL0     H 6233   0.924   6.055   5.656 -0.7249  1.2215  2.1535
  805MOL0     H 6234   1.110   5.866   5.784 -3.4052 -0.5415  0.5247
  805MOL0     H 6235   1.148   6.009   5.686 -0.0906  1.6640 -0.3504
  805MOL0     H 6236   1.012   5.911   5.501 -0.1760 -0.7045  0.1048
  805MOL0     H 6237   1.031   5.747   5.588  1.9266 -0.8130 -1.3112
  805MOL0     H 6238   1.266   5.827   5.608 -0.6344 -0.3220  0.8701
  805MOL0     H 6239   1.225   5.748   5.461  1.7377 -1.7949  2.4389
  805MOL0     H 6240   1.351   5.933   5.416 -1.7698 -2.3744  1.3825
  805MOL0     H 6241   1.243   6.061   5.470  1.1929 -0.3488  1.0485
  805MOL0     H 6242   0.869   6.235   6.295  0.9465  0.7173  3.9068
  805MOL0     H 6243   0.794   6.275   6.520 -1.5261 -0.8214  0.5272
  805MOL0     H 6244   0.822   6.107   7.033 -0.8475  1.5975  1.0748
  805MOL0     H 6245   0.711   5.999   7.239 -0.4032  1.4007  1.2109
  805MOL0     H 6246   0.723   6.461   8.129 -0.9091  0.8873  1.4183
  805MOL0     H 6247   0.801   6.602   8.295  1.7610  0.8612  1.1684
  805MOL0     H 6248   0.958   6.727   8.676  0.4900  1.8628 -0.6462
  805MOL0     H 6249   1.026   6.904   8.836  1.6271  1.9614  1.2001
  805MOL0     H 6250   1.094   7.063   8.935  0.5641 -0.9990  0.4790
  805MOL0     H 6251   1.237   7.145   9.015  1.5781  1.3781 -4.3797
  805MOL0     H 6252   1.071   7.059   9.171 -0.2438  0.5076 -1.4275
  805MOL0     H 6253   1.075   6.904   9.114 -0.0964  0.9097 -1.1922
  805MOL0     H 6254   1.307   7.058   9.245  0.9113 -0.0724  4.0118
  805MOL0     H 6255   1.335   6.888   9.195 -0.7492 -0.7420  0.4606
  805MOL0     H 6256   1.143   7.000   9.412 -0.5354 -1.3475 -0.3066
  805MOL0     H 6257   1.149   6.830   9.349  0.3721  0.1995 -0.6796
  805MOL0     H 6258   1.474   6.846   9.597  0.1129  2.4414  1.6999
  805MOL0     H 6259   1.434   6.869   8.748 -1.2913  2.0340  4.9561
  805MOL0     H 6260   1.391   6.712   8.574  2.2188  0.6473  2.5192
  806MOL0     O 6261   9.540   3.551  10.858  0.5123  0.4430  0.4090
  806MOL0     C 6262   9.507   3.511  10.748 -0.1672 -0.2658 -0.5054
  806MOL0     O 6263   9.418   3.570  10.660 -0.1769  0.5180  0.5092
  806MOL0     C 6264   9.422   3.709  10.653 -1.0260  0.3267  0.3055
  806MOL0     C 6265   9.424   3.801  10.760  0.2869 -0.3828  0.6843
  806MOL0     C 6266   9.442   3.935  10.730 -0.2274  0.6537 -0.5216
  806MOL0     C 6267   9.462   3.983  10.605 -0.4462  0.1501  0.7634
  806MOL0     O 6268   9.445   4.124  10.589  0.0937  0.3690 -0.2657
  806MOL0     C 6269   9.432   4.188  10.456 -0.7350 -1.0793 -0.1142
  806MOL0     C 6270   9.396   4.336  10.480 -0.0430 -0.0997  0.3724
  806MOL0     C 6271   9.371   4.425  10.350 -0.2487  0.8742 -0.5978
  806MOL0     C 6272   9.262   4.529  10.392  0.4746 -0.7687 -0.0455
  806MOL0     C 6273   9.191   4.599  10.277 -0.2061  0.4195 -0.2787
  806MOL0     C 6274   9.098   4.710  10.331 -0.7860  0.6637 -0.7830
  806MOL0     C 6275   9.027   4.787  10.230  0.0704 -0.7452  0.3903
  806MOL0     C 6276   8.979   4.924  10.284 -0.4562 -0.3693 -0.5652
  806MOL0     N 6277   8.917   5.016  10.186 -0.5363  0.1907  0.4839
  806MOL0     C 6278   8.973   5.056  10.064 -0.2474 -0.3797 -0.9387
  806MOL0     C 6279   8.920   5.180  10.044 -0.6109 -0.2797  0.0267
  806MOL0     C 6280   8.936   5.263   9.919  0.3405 -0.0239  0.0615
  806MOL0     C 6281   8.803   5.298   9.860  0.2553  0.2760  0.0136
  806MOL0     C 6282   8.723   5.197   9.776 -0.8018 -0.5433  0.1763
  806MOL0     C 6283   8.724   5.048   9.819  0.9587 -0.3652  0.0920
  806MOL0     O 6284   8.847   4.979   9.780  0.4645  0.5752  0.8293
  806MOL0     C 6285   8.864   4.850   9.833 -0.6476 -0.5885  1.0055
  806MOL0     C 6286   8.776   4.795   9.921  0.3791  0.1253  0.0977
  806MOL0     C 6287   8.803   4.663   9.975  0.4225  0.3815  0.2515
  806MOL0     C 6288   8.929   4.597   9.940  0.8171 -0.2598 -0.3961
  806MOL0     C 6289   8.962   4.468   9.985 -0.9956  0.5391 -1.3716
  806MOL0     O 6290   9.022   4.387   9.894  0.3356  0.3362 -0.1531
  806MOL0     C 6291   9.074   4.267   9.938  0.6973  0.5204 -0.7024
  806MOL0     C 6292   9.046   4.153   9.861 -0.5185 -0.6893 -0.3039
  806MOL0     C 6293   9.093   4.026   9.895 -0.1458  0.4776 -0.6069
  806MOL0     C 6294   9.162   4.012  10.013  0.3283  0.0652  0.1764
  806MOL0     O 6295   9.211   3.883  10.023 -0.9172 -0.8026 -0.5605
  806MOL0     C 6296   9.203   3.836  10.156  0.2559  0.1764  0.6515
  806MOL0     C 6297   9.235   3.680  10.145 -0.2168 -1.3376  0.7872
  806MOL0     C 6298   9.374   3.641  10.091  0.5089  0.1144 -0.8283
  806MOL0     C 6299   9.393   3.495  10.119  0.0139 -0.1360  0.1254
  806MOL0     C 6300   9.544   3.454  10.110 -0.2851 -0.2314 -0.1332
  806MOL0     C 6301   9.580   3.309  10.145 -0.0778  0.2593  0.1502
  806MOL0     C 6302   9.728   3.292  10.121 -0.8578  0.5101  0.0614
  806MOL0     C 6303   9.774   3.154  10.173 -0.0814 -0.1885  0.3934
  806MOL0    Cl 6304   9.897   3.073  10.090 -0.3900 -0.1923  0.0893
  806MOL0     C 6305   9.193   4.128  10.098  0.2273  0.7116 -0.0159
  806MOL0     C 6306   9.142   4.252  10.057 -0.1663  0.1834 -0.0691
  806MOL0     O 6307   8.908   4.432  10.085 -0.5081 -0.3149 -0.2615
  806MOL0     C 6308   9.012   4.661   9.850 -0.6312  0.0714  0.9849
  806MOL0     C 6309   8.978   4.790   9.794  0.6346  0.2818  0.2144
  806MOL0     N 6310   8.837   5.207  10.148 -0.1458 -0.5024 -0.5093
  806MOL0     N 6311   8.830   5.109  10.224  0.2646 -0.2858 -0.0542
  806MOL0     C 6312   9.475   3.892  10.496  0.4448 -0.3628 -0.8300
  806MOL0     C 6313   9.454   3.761  10.521  0.1383  0.7832 -0.5665
  806MOL0     C 6314   9.527   3.363  10.724  0.3252 -0.3870  0.1653
  806MOL0     C 6315   9.522   3.312  10.594 -0.0269 -0.2525 -0.3837
  806MOL0     C 6316   9.525   3.173  10.565  0.0003  0.9679  0.3325
  806MOL0     C 6317   9.545   3.095  10.674  0.0537  0.5466  0.8702
  806MOL0     O 6318   9.546   2.961  10.665 -0.1650  0.1440 -0.2563
  806MOL0     C 6319   9.473   2.904  10.550  0.3619  0.4520 -0.5206
  806MOL0     C 6320   9.498   2.758  10.550  0.2439  0.8580  0.1666
  806MOL0     C 6321   9.395   2.676  10.453 -0.0888 -0.2222 -0.2112
  806MOL0     C 6322   9.439   2.684  10.305 -1.0748 -0.1977  0.0057
  806MOL0     C 6323   9.423   2.828  10.256 -0.0281  0.2095 -0.5746
  806MOL0     C 6324   9.410   2.931  10.201  0.2666  0.3220  0.6263
  806MOL0     C 6325   9.566   3.144  10.805 -0.1022  0.0608  0.3924
  806MOL0     C 6326   9.552   3.279  10.829 -0.8196  0.2610  0.2260
  806MOL0     H 6327   9.402   3.766  10.860  0.7786  0.2087  1.0114
  806MOL0     H 6328   9.453   4.006  10.812  0.6485  0.7753 -0.7356
  806MOL0     H 6329   9.361   4.137  10.391 -0.4816  0.7454 -1.9412
  806MOL0     H 6330   9.530   4.189  10.406  0.4890 -2.1404  2.1119
  806MOL0     H 6331   9.486   4.375  10.528 -0.1973 -1.1807  1.6013
  806MOL0     H 6332   9.305   4.345  10.539 -2.9023 -0.1734 -3.5939
  806MOL0     H 6333   9.344   4.350  10.275  0.8900 -2.7264  2.3027
  806MOL0     H 6334   9.462   4.473  10.313  2.2805 -0.7747  2.8511
  806MOL0     H 6335   9.181   4.478  10.446 -0.6331 -1.9786 -2.6733
  806MOL0     H 6336   9.308   4.597  10.465 -2.9471  2.9444 -1.0338
  806MOL0     H 6337   9.140   4.520  10.221 -0.5141  1.8132 -2.0438
  806MOL0     H 6338   9.269   4.638  10.211  1.9143 -1.8116  0.7426
  806MOL0     H 6339   9.163   4.778  10.387  0.4001  1.0572 -2.5674
  806MOL0     H 6340   9.036   4.671  10.412  0.9194  0.4364  0.4662
  806MOL0     H 6341   9.076   4.805  10.134 -1.6735  0.4423 -0.3434
  806MOL0     H 6342   8.934   4.739  10.197 -0.7734 -0.5569  2.3364
  806MOL0     H 6343   9.061   4.984  10.324 -2.1711  1.1879  0.8140
  806MOL0     H 6344   8.908   4.911  10.366  1.1749  2.7186  1.5508
  806MOL0     H 6345   9.042   5.009   9.996 -0.1467  2.4676 -2.9937
  806MOL0     H 6346   8.995   5.201   9.851 -0.3561 -0.2742 -0.3172
  806MOL0     H 6347   8.997   5.352   9.939  1.8911  0.4408 -5.1335
  806MOL0     H 6348   8.827   5.382   9.795 -0.4879  0.2519 -0.2993
  806MOL0     H 6349   8.734   5.342   9.933 -0.4955 -1.2735  0.2833
  806MOL0     H 6350   8.627   5.247   9.783 -1.4094 -1.8761  2.1004
  806MOL0     H 6351   8.752   5.199   9.670 -0.8818  2.0308  0.1588
  806MOL0     H 6352   8.639   5.004   9.767  0.7172  0.3444 -0.1235
  806MOL0     H 6353   8.712   5.042   9.927 -3.0280 -0.3254 -0.2132
  806MOL0     H 6354   8.680   4.839   9.945 -0.9064 -2.2983 -0.2750
  806MOL0     H 6355   8.734   4.625  10.049 -0.4590 -0.2412 -0.8564
  806MOL0     H 6356   9.007   4.170   9.762  0.5856  0.1639 -0.6114
  806MOL0     H 6357   9.070   3.938   9.836 -2.3857  0.6324 -0.0470
  806MOL0     H 6358   9.103   3.859  10.195  0.1782  1.3427 -0.1755
  806MOL0     H 6359   9.276   3.872  10.229 -0.2507 -0.0800  1.3003
  806MOL0     H 6360   9.162   3.649  10.070 -0.6317 -1.7259  1.3448
  806MOL0     H 6361   9.220   3.638  10.245 -1.6776 -0.1165  1.1259
  806MOL0     H 6362   9.454   3.694  10.144  1.7542 -2.3383 -0.1014
  806MOL0     H 6363   9.379   3.680   9.989 -0.3810  1.8411 -0.2679
  806MOL0     H 6364   9.350   3.465  10.215  4.2264  3.1370  3.4401
  806MOL0     H 6365   9.339   3.435  10.045 -0.8016  1.0993 -0.3116
  806MOL0     H 6366   9.598   3.525  10.173 -2.0513  2.8208 -1.8190
  806MOL0     H 6367   9.571   3.466  10.004 -1.4535  4.1590 -0.1104
  806MOL0     H 6368   9.527   3.236  10.084  0.7948 -1.3059  1.1779
  806MOL0     H 6369   9.559   3.285  10.250 -1.8838 -0.3985 -0.3295
  806MOL0     H 6370   9.754   3.284  10.014  0.7689 -3.4336  0.5612
  806MOL0     H 6371   9.787   3.372  10.166  2.9419 -2.1511  0.3718
  806MOL0     H 6372   9.688   3.087  10.180  0.2312 -0.7633 -0.9087
  806MOL0     H 6373   9.807   3.180  10.274 -1.7382  2.0604  0.4207
  806MOL0     H 6374   9.238   4.107  10.194 -0.6883  0.7001  0.4130
  806MOL0     H 6375   9.139   4.333  10.129 -4.0903  1.5555 -1.4848
  806MOL0     H 6376   9.106   4.610   9.831  0.4853  0.2594  5.1616
  806MOL0     H 6377   9.042   4.833   9.718  1.2499 -1.0897 -0.0786
  806MOL0     H 6378   9.488   3.920  10.392 -1.8938  0.2955 -0.9874
  806MOL0     H 6379   9.477   3.691  10.441 -1.2373 -0.2549 -0.0786
  806MOL0     H 6380   9.512   3.384  10.513  0.5216 -0.3847 -0.5765
  806MOL0     H 6381   9.531   3.145  10.460 -1.2174  1.9221 -0.0235
  806MOL0     H 6382   9.486   2.953  10.454 -2.2771  1.3692 -0.4980
  806MOL0     H 6383   9.367   2.916  10.576  0.6541 -1.3112  1.8943
  806MOL0     H 6384   9.597   2.711  10.547 -0.8483 -1.5862 -0.0382
  806MOL0     H 6385   9.469   2.732  10.652 -2.1245 -1.9328 -1.0755
  806MOL0     H 6386   9.296   2.715  10.480  0.5468 -0.0539  2.0370
  806MOL0     H 6387   9.382   2.572  10.484 -3.9090 -0.4827 -2.0288
  806MOL0     H 6388   9.541   2.645  10.297 -0.9372 -0.3234  1.8030
  806MOL0     H 6389   9.372   2.624  10.243 -0.3463 -0.1387 -0.8528
  806MOL0     H 6390   9.391   3.023  10.149 -1.5775  1.4302  3.0615
  806MOL0     H 6391   9.587   3.081  10.891 -0.9955 -0.5600  0.1686
  806MOL0     H 6392   9.578   3.322  10.925  3.4830  1.0544 -1.0655
  807MOL0     O 6393   1.638  11.101   1.907  0.7163  1.3407 -0.4491
  807MOL0     C 6394   1.664  11.186   1.985  0.3362 -0.8507 -0.5318
  807MOL0     O 6395   1.573  11.276   2.035 -1.0376 -0.8805 -0.0004
  807MOL0     C 6396   1.443  11.270   1.981 -0.4885 -0.6594  0.7149
  807MOL0     C 6397   1.424  11.266   1.843 -0.5262 -1.4625 -0.9122
  807MOL0     C 6398   1.303  11.263   1.798  0.8652  0.3467  0.3980
  807MOL0     C 6399   1.197  11.259   1.888  0.5406  0.0598 -0.9806
  807MOL0     O 6400   1.072  11.263   1.838  0.1496  0.0305  0.1160
  807MOL0     C 6401   0.999  11.136   1.852  0.2377 -0.5396 -0.0062
  807MOL0     C 6402   0.852  11.155   1.829 -0.0383  0.1402 -0.2934
  807MOL0     C 6403   0.774  11.019   1.818  1.2530 -0.3823  0.2306
  807MOL0     C 6404   0.795  10.970   1.678 -0.2492 -0.6583  0.1479
  807MOL0     C 6405   0.703  10.849   1.647  0.4576 -0.5723  0.2517
  807MOL0     C 6406   0.759  10.765   1.528  0.7592 -0.9711  0.3777
  807MOL0     C 6407   0.648  10.684   1.457 -0.2104  0.2650  0.1916
  807MOL0     C 6408   0.530  10.758   1.402 -0.3140 -1.2874 -1.0256
  807MOL0     N 6409   0.460  10.681   1.303 -0.0722 -0.0167  0.4008
  807MOL0     C 6410   0.326  10.697   1.290  1.0934  0.0171 -0.0086
  807MOL0     C 6411   0.283  10.624   1.182  0.1881  0.3212 -0.7303
  807MOL0     C 6412   0.146  10.619   1.118  0.3607  0.0855  0.3733
  807MOL0     C 6413   0.070  10.483   1.126 -0.0442  0.1408  0.3850
  807MOL0     C 6414   0.000  10.443   1.260 -0.9003  0.3317 -0.9563
  807MOL0     C 6415  -0.016  10.293   1.281 -0.3023  0.2438 -0.6817
  807MOL0     O 6416  -0.090  10.255   1.400  0.5907  0.9309  0.2747
  807MOL0     C 6417  -0.031  10.256   1.522  0.0431 -0.0762  0.0207
  807MOL0     C 6418   0.112  10.232   1.537  0.3049 -1.0588  0.1772
  807MOL0     C 6419   0.169  10.250   1.661  0.3934  0.5247 -0.5046
  807MOL0     C 6420   0.100  10.304   1.775 -0.4486 -0.5855  0.0128
  807MOL0     C 6421   0.155  10.305   1.905  0.0413 -0.1717 -0.7056
  807MOL0     O 6422   0.068  10.323   2.005 -0.3897 -0.2895  0.8561
  807MOL0     C 6423   0.116  10.358   2.130  0.0392  0.5332 -0.6472
  807MOL0     C 6424   0.153  10.256   2.219  0.2347  0.3355 -0.5871
  807MOL0     C 6425   0.171  10.289   2.354  0.0764 -0.9101 -0.0515
  807MOL0     C 6426   0.169  10.425   2.393 -0.6429 -0.4078 -0.8402
  807MOL0     O 6427   0.218  10.442   2.520  0.7829  0.0459 -0.3755
  807MOL0     C 6428   0.229  10.580   2.573  0.7034 -1.2422 -0.1423
  807MOL0     C 6429   0.232  10.575   2.726  0.4053  0.3533  0.6216
  807MOL0     C 6430   0.266  10.722   2.783 -0.4309 -0.2585  0.4151
  807MOL0     C 6431   0.411  10.768   2.743 -1.5388 -0.1570  0.0231
  807MOL0     C 6432   0.470  10.887   2.826 -0.1962 -0.6083 -0.3493
  807MOL0     C 6433   0.535  10.839   2.964 -0.3304  0.2691  0.2225
  807MOL0     C 6434   0.671  10.772   2.964  0.5628  0.0742 -0.6777
  807MOL0     C 6435   0.727  10.775   3.104 -0.3584  0.1260 -0.7101
  807MOL0    Cl 6436   0.904  10.726   3.113 -0.2659 -0.1152  0.4139
  807MOL0     C 6437   0.156  10.530   2.301  0.3476  0.1771  0.0783
  807MOL0     C 6438   0.123  10.492   2.167  0.0675 -0.2708  0.5591
  807MOL0     O 6439   0.272  10.277   1.922 -0.7764  0.1206 -0.0604
  807MOL0     C 6440  -0.034  10.321   1.755  0.3303  1.2805  0.1825
  807MOL0     C 6441  -0.095  10.294   1.630  0.4779  0.0212 -0.3256
  807MOL0     N 6442   0.404  10.567   1.141  0.5918  0.8214  0.9314
  807MOL0     N 6443   0.510  10.603   1.206  0.2833 -0.6913  0.2013
  807MOL0     C 6444   1.214  11.252   2.023  0.3070  0.4988 -0.4918
  807MOL0     C 6445   1.342  11.264   2.075  0.1630 -0.2365  0.7220
  807MOL0     C 6446   1.801  11.183   2.045 -1.0902 -0.2873 -0.7485
  807MOL0     C 6447   1.826  11.230   2.176  0.2775 -0.0375  0.0670
  807MOL0     C 6448   1.950  11.206   2.239 -0.2468 -0.5071 -0.0228
  807MOL0     C 6449   2.062  11.152   2.173  1.1777  0.0214 -0.6977
  807MOL0     O 6450   2.185  11.134   2.228  1.0735  0.1091 -0.2523
  807MOL0     C 6451   2.187  11.090   2.367  0.0031  0.8400  0.2971
  807MOL0     C 6452   2.240  11.205   2.463 -0.6381 -0.3749 -0.6561
  807MOL0     C 6453   2.340  11.168   2.574 -0.8514  0.4570 -0.5496
  807MOL0     C 6454   2.369  11.281   2.680 -0.5695  0.7723  0.7514
  807MOL0     C 6455   2.405  11.196   2.797  0.6596 -0.5747  0.3999
  807MOL0     C 6456   2.425  11.143   2.904 -0.6077  0.3718 -0.7461
  807MOL0     C 6457   2.032  11.109   2.048 -0.1267  0.9981  0.3279
  807MOL0     C 6458   1.911  11.131   1.981  0.0086 -0.7641  0.7033
  807MOL0     H 6459   1.503  11.278   1.770  0.2876 -2.9708 -0.3319
  807MOL0     H 6460   1.282  11.273   1.692 -0.9140 -2.2445  0.4192
  807MOL0     H 6461   1.015  11.107   1.956 -1.4775 -0.5658  0.2708
  807MOL0     H 6462   1.041  11.071   1.774 -0.1006  1.4092 -1.8882
  807MOL0     H 6463   0.830  11.227   1.749  3.6627  0.0118 -1.5897
  807MOL0     H 6464   0.817  11.203   1.921  0.1351 -0.4893  0.1066
  807MOL0     H 6465   0.666  11.036   1.828  0.9022  0.2417 -3.1649
  807MOL0     H 6466   0.807  10.941   1.887 -0.5665 -0.0286  1.5576
  807MOL0     H 6467   0.786  11.051   1.606 -1.1654  0.3148  1.3149
  807MOL0     H 6468   0.897  10.931   1.671 -1.1517 -2.9688 -0.9952
  807MOL0     H 6469   0.602  10.885   1.629  1.0392  0.7204 -0.6370
  807MOL0     H 6470   0.703  10.777   1.730 -0.4179 -0.5588  0.2643
  807MOL0     H 6471   0.842  10.710   1.573  1.8064  1.4409  1.6005
  807MOL0     H 6472   0.814  10.831   1.461  0.0641 -0.3899  0.3682
  807MOL0     H 6473   0.701  10.649   1.368  3.0402 -0.8537  2.3787
  807MOL0     H 6474   0.620  10.602   1.523  0.0123  0.2244  0.2366
  807MOL0     H 6475   0.556  10.855   1.358 -3.0707 -0.6299 -1.4126
  807MOL0     H 6476   0.467  10.778   1.490  2.3608  1.3521  0.4604
  807MOL0     H 6477   0.248  10.753   1.342 -0.6686  0.3088 -2.7585
  807MOL0     H 6478   0.171  10.636   1.012 -0.1190  0.2903  0.2907
  807MOL0     H 6479   0.084  10.703   1.149 -1.5651 -1.4919  0.9748
  807MOL0     H 6480   0.144  10.407   1.104  0.7780  1.0478 -0.0281
  807MOL0     H 6481  -0.010  10.480   1.052  0.3744 -0.1625 -0.0577
  807MOL0     H 6482   0.060  10.476   1.346 -0.8861  0.1677 -0.9036
  807MOL0     H 6483  -0.096  10.494   1.268 -0.6270  0.6634  0.5355
  807MOL0     H 6484   0.083  10.247   1.286  0.3767  1.3988 -2.4884
  807MOL0     H 6485  -0.060  10.251   1.190 -0.3175  1.5320 -1.2903
  807MOL0     H 6486   0.168  10.198   1.450 -2.4745 -1.2485 -1.6708
  807MOL0     H 6487   0.273  10.231   1.686 -0.1966 -0.0298  1.7932
  807MOL0     H 6488   0.157  10.152   2.187 -0.8265  0.1097 -0.0420
  807MOL0     H 6489   0.215  10.221   2.426  2.9722  1.6955  0.8713
  807MOL0     H 6490   0.148  10.649   2.549  0.0782 -1.2357  1.8714
  807MOL0     H 6491   0.327  10.618   2.541  1.2224 -2.3440  0.0834
  807MOL0     H 6492   0.310  10.505   2.759  0.4646  0.0708 -0.0781
  807MOL0     H 6493   0.137  10.543   2.770  1.7670 -4.0944  0.8979
  807MOL0     H 6494   0.266  10.726   2.892  1.7359  1.1019  0.4343
  807MOL0     H 6495   0.210  10.802   2.733  0.9488  1.8190  1.9851
  807MOL0     H 6496   0.484  10.688   2.759  0.0995  1.6253  2.1451
  807MOL0     H 6497   0.416  10.797   2.637 -3.4155 -0.1957 -0.1105
  807MOL0     H 6498   0.391  10.951   2.867  2.9286  1.1599  3.6331
  807MOL0     H 6499   0.539  10.955   2.774 -0.1426  1.2696  1.9825
  807MOL0     H 6500   0.467  10.768   3.012  0.6487  1.0242  2.9006
  807MOL0     H 6501   0.530  10.924   3.032 -1.2992 -0.0862  0.6129
  807MOL0     H 6502   0.655  10.670   2.930 -2.4864  0.1748  0.1360
  807MOL0     H 6503   0.735  10.810   2.884  0.4929 -0.1646 -0.8490
  807MOL0     H 6504   0.662  10.713   3.167  0.8517  2.4442  3.1708
  807MOL0     H 6505   0.729  10.868   3.161 -2.1793 -0.9150  1.1967
  807MOL0     H 6506   0.164  10.634   2.331 -3.5492 -0.3409  3.8661
  807MOL0     H 6507   0.112  10.564   2.087 -1.2552 -0.2083  0.7841
  807MOL0     H 6508  -0.100  10.360   1.832 -0.8121 -0.3067  0.0594
  807MOL0     H 6509  -0.198  10.325   1.612  0.9053  1.4349 -0.4581
  807MOL0     H 6510   1.124  11.245   2.084  2.5425 -0.6219  2.9293
  807MOL0     H 6511   1.356  11.256   2.183  0.7889 -0.8633  0.6035
  807MOL0     H 6512   1.743  11.260   2.240  1.8624 -0.8184  2.6321
  807MOL0     H 6513   1.951  11.252   2.338 -2.9091 -0.8997  0.2556
  807MOL0     H 6514   2.246  10.999   2.378 -2.5512 -1.3475 -2.4246
  807MOL0     H 6515   2.090  11.046   2.394  0.2733 -2.1936 -3.0099
  807MOL0     H 6516   2.296  11.280   2.406  0.7907 -0.9578 -0.0763
  807MOL0     H 6517   2.153  11.252   2.509  0.7748  3.4377 -1.4495
  807MOL0     H 6518   2.439  11.147   2.532 -1.4732 -4.8628 -0.0922
  807MOL0     H 6519   2.297  11.082   2.627 -0.4382  1.8166  2.1817
  807MOL0     H 6520   2.453  11.341   2.644 -0.0473 -1.0337 -1.2962
  807MOL0     H 6521   2.288  11.354   2.685  0.4689  2.0054  0.1021
  807MOL0     H 6522   2.433  11.130   3.010 -2.7686 -1.0491 -0.6947
  807MOL0     H 6523   2.117  11.081   1.986 -1.5157 -0.0908 -1.1569
  807MOL0     H 6524   1.904  11.077   1.887 -2.0994 -2.5393  1.7971
  808MOL0     O 6525   2.490   0.589   2.230  0.1341  0.1232  0.3529
  808MOL0     C 6526   2.458   0.621   2.348  0.3108 -0.0761  0.6093
  808MOL0     O 6527   2.396   0.733   2.383  0.2498  0.1077 -0.3957
  808MOL0     C 6528   2.394   0.840   2.298  0.9098 -0.9890 -1.2392
  808MOL0     C 6529   2.492   0.942   2.309  0.5855 -0.0375  0.1246
  808MOL0     C 6530   2.485   1.056   2.224  0.6168  0.5859 -0.6935
  808MOL0     C 6531   2.362   1.079   2.157  0.0135 -0.1267  0.5448
  808MOL0     O 6532   2.352   1.194   2.087 -1.0878  1.2171  0.3766
  808MOL0     C 6533   2.225   1.268   2.084  0.0013 -0.1860  0.2539
  808MOL0     C 6534   2.211   1.339   2.221 -0.7719  0.0585  0.4099
  808MOL0     C 6535   2.309   1.449   2.255 -0.7082 -0.0104  0.4757
  808MOL0     C 6536   2.432   1.394   2.344 -0.2460 -0.9384  0.7582
  808MOL0     C 6537   2.399   1.342   2.482  0.6218  0.1871 -0.2982
  808MOL0     C 6538   2.346   1.447   2.585  0.7608 -0.1799  0.0871
  808MOL0     C 6539   2.429   1.470   2.709  0.4266 -0.1811  1.4683
  808MOL0     C 6540   2.566   1.517   2.683 -0.5207  0.0785  0.0341
  808MOL0     N 6541   2.642   1.537   2.805 -0.0905  1.2040  0.3109
  808MOL0     C 6542   2.626   1.648   2.893 -0.1380 -0.4594  0.3549
  808MOL0     C 6543   2.716   1.634   2.992 -0.2984 -0.1991  0.4087
  808MOL0     C 6544   2.728   1.701   3.123 -0.0781 -0.1828 -0.0781
  808MOL0     C 6545   2.857   1.782   3.125 -0.0533 -1.0489 -0.0837
  808MOL0     C 6546   2.836   1.883   3.241  0.1789 -0.3020  0.6555
  808MOL0     C 6547   2.959   1.966   3.272  0.0270 -0.2864  0.7239
  808MOL0     O 6548   2.959   2.092   3.199 -0.4131  0.1011  0.7923
  808MOL0     C 6549   3.028   2.187   3.263  0.2660 -0.4503 -0.2935
  808MOL0     C 6550   3.122   2.175   3.365 -0.6429 -0.0651  0.2035
  808MOL0     C 6551   3.189   2.287   3.426  0.3475  0.1516  1.0051
  808MOL0     C 6552   3.144   2.416   3.387  0.3268  0.1260 -0.0645
  808MOL0     C 6553   3.205   2.535   3.460  0.7061 -0.7521 -0.1663
  808MOL0     O 6554   3.300   2.519   3.556 -0.5287 -0.0568  0.3355
  808MOL0     C 6555   3.344   2.639   3.617 -0.0643 -0.6459 -0.4277
  808MOL0     C 6556   3.416   2.736   3.543 -1.2246  0.1012 -0.9554
  808MOL0     C 6557   3.449   2.855   3.601 -0.1865  0.3876  0.0178
  808MOL0     C 6558   3.414   2.871   3.736  0.1199 -0.5334 -0.3542
  808MOL0     O 6559   3.440   2.996   3.795 -0.2032  0.2066 -0.4042
  808MOL0     C 6560   3.575   3.020   3.832 -0.8342  0.3088  0.0660
  808MOL0     C 6561   3.576   3.173   3.877  1.1658  0.2027 -0.1484
  808MOL0     C 6562   3.723   3.222   3.888 -0.0661 -0.6457  0.1869
  808MOL0     C 6563   3.812   3.210   3.764  0.0339  0.1831  0.2483
  808MOL0     C 6564   3.942   3.271   3.795 -0.2980 -0.6036  1.1209
  808MOL0     C 6565   4.048   3.239   3.703 -1.0758 -0.1792  0.7502
  808MOL0     C 6566   4.052   3.346   3.591  0.2645  0.4879 -0.6543
  808MOL0     C 6567   4.167   3.329   3.489  0.5569 -0.1348  0.7529
  808MOL0    Cl 6568   4.190   3.441   3.351  0.1852 -0.1857 -0.1813
  808MOL0     C 6569   3.346   2.779   3.814  0.4084  0.2623  0.2095
  808MOL0     C 6570   3.307   2.659   3.754  0.0542 -0.4518 -1.7129
  808MOL0     O 6571   3.151   2.640   3.427 -0.2260  0.6161  0.6102
  808MOL0     C 6572   3.040   2.435   3.290 -0.5653 -0.6941 -0.2439
  808MOL0     C 6573   2.987   2.320   3.224 -0.1359  1.0207  0.7828
  808MOL0     N 6574   2.789   1.517   2.952 -0.0795 -0.3254 -0.8224
  808MOL0     N 6575   2.748   1.466   2.844  0.5338  0.2654  0.3320
  808MOL0     C 6576   2.272   0.975   2.141  0.4181 -0.4405  0.7514
  808MOL0     C 6577   2.285   0.852   2.215 -0.5699 -0.6060 -0.2897
  808MOL0     C 6578   2.489   0.521   2.456  0.2189  1.2112  0.7074
  808MOL0     C 6579   2.484   0.560   2.592 -0.3145 -0.3001  1.0213
  808MOL0     C 6580   2.504   0.468   2.694 -0.1720  0.5665 -0.9589
  808MOL0     C 6581   2.519   0.334   2.669  0.7147  0.7867 -0.2622
  808MOL0     O 6582   2.549   0.248   2.774 -0.0765 -0.8449  0.5890
  808MOL0     C 6583   2.543   0.288   2.914  0.3469  0.3104  1.1449
  808MOL0     C 6584   2.581   0.176   3.001 -0.6967  0.5365  0.1676
  808MOL0     C 6585   2.736   0.169   3.025 -0.2656 -0.0741  0.3808
  808MOL0     C 6586   2.767   0.044   3.098 -0.2255 -0.3424 -0.4248
  808MOL0     C 6587   2.901   0.032   3.145 -0.8932  1.3003  0.3794
  808MOL0     C 6588   3.021   0.010   3.177  0.1901 -0.0934  0.2774
  808MOL0     C 6589   2.524   0.295   2.533 -0.0291  0.2442 -0.9169
  808MOL0     C 6590   2.518   0.389   2.429 -0.8246  0.3538  0.1960
  808MOL0     H 6591   2.575   0.919   2.375 -2.4406 -0.6684  4.0883
  808MOL0     H 6592   2.559   1.135   2.230 -0.7063  2.0422 -2.3302
  808MOL0     H 6593   2.137   1.207   2.065  0.7780 -1.8368  1.7483
  808MOL0     H 6594   2.244   1.348   2.012  0.6836  0.6293  1.3035
  808MOL0     H 6595   2.181   1.268   2.298 -1.5618  1.4684  1.4392
  808MOL0     H 6596   2.115   1.389   2.204  0.5182  2.9430  0.9051
  808MOL0     H 6597   2.258   1.523   2.318 -1.6502 -0.4073  0.1961
  808MOL0     H 6598   2.342   1.518   2.177 -1.6483  1.5567  1.3958
  808MOL0     H 6599   2.492   1.325   2.285 -1.0627 -3.2980  2.5043
  808MOL0     H 6600   2.495   1.484   2.355 -2.5543  0.7773  0.6938
  808MOL0     H 6601   2.485   1.284   2.513  0.7946  1.5951  2.0444
  808MOL0     H 6602   2.314   1.273   2.471  1.1862 -0.7003  0.7815
  808MOL0     H 6603   2.244   1.422   2.615 -0.2423  1.6070 -1.5767
  808MOL0     H 6604   2.330   1.546   2.541 -2.0315  0.3978  2.1540
  808MOL0     H 6605   2.375   1.546   2.767  0.2169  0.6946  0.1543
  808MOL0     H 6606   2.433   1.384   2.777 -1.6205  0.3131  2.3074
  808MOL0     H 6607   2.556   1.610   2.627 -0.8446  0.2063  0.2980
  808MOL0     H 6608   2.603   1.438   2.616  0.1947 -0.5040  1.0961
  808MOL0     H 6609   2.547   1.721   2.878  0.0559 -0.4073 -0.4344
  808MOL0     H 6610   2.726   1.627   3.204  1.0349  0.0028  0.1313
  808MOL0     H 6611   2.637   1.761   3.134 -0.0745 -0.2695  0.4252
  808MOL0     H 6612   2.860   1.830   3.027 -1.4541  0.5933  0.6286
  808MOL0     H 6613   2.946   1.721   3.145  1.4304  0.2613 -2.2625
  808MOL0     H 6614   2.755   1.955   3.233  1.1173  1.3591  4.1329
  808MOL0     H 6615   2.822   1.827   3.334 -1.6365  1.6084  1.6037
  808MOL0     H 6616   3.048   1.904   3.259 -0.7088 -2.2058  3.8123
  808MOL0     H 6617   2.945   1.986   3.379  1.2838 -1.2648  1.0994
  808MOL0     H 6618   3.142   2.076   3.405  2.6095  0.8395  1.1112
  808MOL0     H 6619   3.259   2.280   3.508 -1.8205 -1.7891  2.8276
  808MOL0     H 6620   3.459   2.714   3.446  1.2214  0.9517 -0.1466
  808MOL0     H 6621   3.494   2.934   3.541  0.4002 -1.1311 -1.6129
  808MOL0     H 6622   3.634   3.007   3.741 -0.2803  0.9780  0.3209
  808MOL0     H 6623   3.617   2.947   3.901  2.6564 -1.6758 -3.7000
  808MOL0     H 6624   3.525   3.172   3.974 -0.1669  2.8312 -0.7294
  808MOL0     H 6625   3.519   3.222   3.797 -0.6414  0.6878  1.3644
  808MOL0     H 6626   3.769   3.169   3.972 -0.3151 -1.3928 -0.1402
  808MOL0     H 6627   3.714   3.327   3.916 -0.9551 -0.2585 -1.4561
  808MOL0     H 6628   3.825   3.102   3.749  2.0274  0.1248  1.8722
  808MOL0     H 6629   3.757   3.247   3.678 -1.0236 -0.3488  0.6644
  808MOL0     H 6630   3.972   3.237   3.894 -0.7273 -0.1602  1.4108
  808MOL0     H 6631   3.938   3.381   3.792  0.1705 -0.6072 -0.0341
  808MOL0     H 6632   4.053   3.135   3.668  4.2399 -0.2472  0.9562
  808MOL0     H 6633   4.138   3.242   3.763  0.5421 -3.3916 -1.2348
  808MOL0     H 6634   3.963   3.336   3.529  0.2042  0.0830 -0.5065
  808MOL0     H 6635   4.068   3.447   3.630 -1.7961  0.7716 -0.4663
  808MOL0     H 6636   4.158   3.224   3.461 -0.6080 -1.3609  4.9736
  808MOL0     H 6637   4.255   3.349   3.551  0.5697  1.5488  0.2299
  808MOL0     H 6638   3.311   2.807   3.913 -2.9595 -0.3073 -0.6862
  808MOL0     H 6639   3.257   2.585   3.815 -0.6371  0.8009 -0.6891
  808MOL0     H 6640   2.999   2.528   3.253 -2.5736 -1.2748  0.4138
  808MOL0     H 6641   2.911   2.324   3.147  0.5365 -0.5741 -0.0112
  808MOL0     H 6642   2.190   0.998   2.073  1.7284  0.3427 -0.6320
  808MOL0     H 6643   2.210   0.777   2.190 -0.8677 -0.0813 -1.0296
  808MOL0     H 6644   2.445   0.658   2.620  0.1536  0.8298 -1.9672
  808MOL0     H 6645   2.500   0.515   2.792 -0.7332  0.3240 -0.8560
  808MOL0     H 6646   2.441   0.315   2.944 -0.1560 -1.9835  1.6863
  808MOL0     H 6647   2.614   0.370   2.925  1.9631 -0.5179 -2.0080
  808MOL0     H 6648   2.539   0.187   3.101 -2.3781 -0.7961 -0.3347
  808MOL0     H 6649   2.551   0.080   2.958 -1.4896  0.6769  0.4008
  808MOL0     H 6650   2.758   0.254   3.091 -0.5754  2.3274 -2.3666
  808MOL0     H 6651   2.794   0.191   2.935 -0.4240  1.2478  0.5726
  808MOL0     H 6652   2.703   0.038   3.187  0.6914 -1.8873  0.1633
  808MOL0     H 6653   2.748  -0.048   3.043  1.3639 -0.6422 -0.5062
  808MOL0     H 6654   3.125  -0.013   3.186  0.1529 -0.1171  0.6605
  808MOL0     H 6655   2.539   0.188   2.522  1.3534 -0.0659  2.7721
  808MOL0     H 6656   2.498   0.366   2.324  1.2628  3.0085 -0.9157
  809MOL0     O 6657   9.075   4.544   3.479  0.0884 -0.3742 -0.2548
  809MOL0     C 6658   9.174   4.588   3.414  0.0429  0.7450  0.4784
  809MOL0     O 6659   9.274   4.509   3.356  0.5296 -0.3249  0.3925
  809MOL0     C 6660   9.240   4.385   3.325  0.1302  0.4508 -0.8277
  809MOL0     C 6661   9.328   4.286   3.364  0.3853 -0.2266 -0.5169
  809MOL0     C 6662   9.314   4.152   3.320  0.0550 -0.5479 -0.6232
  809MOL0     C 6663   9.202   4.114   3.246 -0.5587  0.3698  0.4447
  809MOL0     O 6664   9.189   3.984   3.197 -0.3447 -0.5228 -0.1573
  809MOL0     C 6665   9.266   3.872   3.250  0.3685  0.5233 -0.0852
  809MOL0     C 6666   9.216   3.742   3.199 -0.1037 -0.3430 -0.6301
  809MOL0     C 6667   9.331   3.632   3.222  0.1329 -0.2347 -0.1367
  809MOL0     C 6668   9.350   3.617   3.371 -0.1254  0.8186 -0.9318
  809MOL0     C 6669   9.437   3.488   3.408  0.4829 -0.0053  0.0125
  809MOL0     C 6670   9.424   3.452   3.552 -0.2400 -0.5197 -0.8496
  809MOL0     C 6671   9.459   3.303   3.575  0.7397  0.5663  0.5829
  809MOL0     C 6672   9.613   3.284   3.567  0.5421 -0.0090 -0.2930
  809MOL0     N 6673   9.679   3.268   3.703  0.4977 -0.5136 -0.2700
  809MOL0     C 6674   9.702   3.369   3.793 -0.9593 -0.6524  0.1504
  809MOL0     C 6675   9.765   3.314   3.900  0.7573  0.4042  0.9205
  809MOL0     C 6676   9.795   3.378   4.032 -0.0520 -0.4770 -0.9069
  809MOL0     C 6677   9.669   3.363   4.126  0.6348  0.8196 -1.3229
  809MOL0     C 6678   9.706   3.396   4.274 -0.4255 -0.1137  0.4984
  809MOL0     C 6679   9.587   3.351   4.350 -0.1892 -0.4360 -0.5787
  809MOL0     O 6680   9.573   3.208   4.361  0.5751  0.0085 -0.6681
  809MOL0     C 6681   9.461   3.154   4.421 -0.7438 -0.1731  0.2356
  809MOL0     C 6682   9.420   3.030   4.396  0.6942  0.8967 -0.8282
  809MOL0     C 6683   9.310   2.977   4.464  0.4735  0.9462  0.2449
  809MOL0     C 6684   9.225   3.054   4.531 -0.1554 -0.0709 -0.5219
  809MOL0     C 6685   9.105   3.018   4.606  0.9112  0.5157  0.3297
  809MOL0     O 6686   9.040   2.899   4.558 -0.2177  0.1842  0.4630
  809MOL0     C 6687   8.920   2.859   4.622  0.7731  0.3093 -0.4901
  809MOL0     C 6688   8.886   2.874   4.752 -0.1501  0.1610 -0.4940
  809MOL0     C 6689   8.782   2.799   4.805 -0.3351  0.5782 -0.1519
  809MOL0     C 6690   8.703   2.716   4.729  0.6700  0.4658  0.2500
  809MOL0     O 6691   8.603   2.650   4.800  0.4388  0.2954 -0.2800
  809MOL0     C 6692   8.568   2.519   4.755  0.2857 -0.3088  0.8841
  809MOL0     C 6693   8.520   2.449   4.885 -0.1108  0.0140  0.9730
  809MOL0     C 6694   8.411   2.520   4.968 -0.3977 -0.3027 -0.6456
  809MOL0     C 6695   8.268   2.467   4.946  0.1600  0.5451 -1.0024
  809MOL0     C 6696   8.170   2.568   5.013 -0.0208 -0.6010  0.4729
  809MOL0     C 6697   8.026   2.549   4.965  1.5212  0.2675 -0.8275
  809MOL0     C 6698   7.971   2.409   4.995 -0.0398 -0.2110  0.3122
  809MOL0     C 6699   7.980   2.369   5.137 -1.0880 -0.4154  1.0476
  809MOL0    Cl 6700   7.924   2.216   5.184 -0.2432  0.0351  0.3066
  809MOL0     C 6701   8.723   2.719   4.594  0.0724 -0.0105  0.3019
  809MOL0     C 6702   8.826   2.792   4.540 -0.6026  0.5631  0.1228
  809MOL0     O 6703   9.051   3.098   4.687  0.1063  0.5736 -0.7206
  809MOL0     C 6704   9.261   3.187   4.536  0.0486 -1.4577 -0.5093
  809MOL0     C 6705   9.381   3.237   4.498  0.3059  0.1404  0.3305
  809MOL0     N 6706   9.811   3.187   3.866 -0.3308 -0.5060 -0.3617
  809MOL0     N 6707   9.751   3.161   3.752  0.9886 -0.6555  0.1543
  809MOL0     C 6708   9.104   4.215   3.218 -0.4025 -0.3634  0.6014
  809MOL0     C 6709   9.127   4.349   3.249 -0.9686 -0.5621  0.3657
  809MOL0     C 6710   9.193   4.731   3.394  0.0935 -0.3650 -0.8411
  809MOL0     C 6711   9.099   4.828   3.435  0.3736  0.1689 -0.0752
  809MOL0     C 6712   9.125   4.969   3.420 -0.3263  0.0067  0.2219
  809MOL0     C 6713   9.238   5.014   3.354  0.8355  0.0521 -1.0527
  809MOL0     O 6714   9.256   5.147   3.362  0.1776  0.4678  1.0108
  809MOL0     C 6715   9.259   5.213   3.235 -0.2887 -0.2721  0.9399
  809MOL0     C 6716   9.362   5.330   3.257  0.4182  0.1660  0.6444
  809MOL0     C 6717   9.511   5.294   3.268 -0.8162  0.1431  0.0379
  809MOL0     C 6718   9.597   5.424   3.276 -0.4366 -0.4721 -0.6633
  809MOL0     C 6719   9.593   5.502   3.152  0.3163 -0.6395 -0.1602
  809MOL0     C 6720   9.608   5.550   3.045 -0.0436 -0.7880  0.5975
  809MOL0     C 6721   9.325   4.915   3.312  0.5314 -0.0942 -0.3841
  809MOL0     C 6722   9.298   4.780   3.334 -0.9843 -0.2388  0.3648
  809MOL0     H 6723   9.408   4.319   3.430 -1.7501  0.3906  1.9581
  809MOL0     H 6724   9.394   4.089   3.356  1.6369  0.4908 -2.1403
  809MOL0     H 6725   9.243   3.875   3.356 -1.1659  3.6699 -0.3872
  809MOL0     H 6726   9.371   3.877   3.220 -0.3102  1.2708 -2.6192
  809MOL0     H 6727   9.177   3.754   3.098 -4.2393  4.4758  1.1739
  809MOL0     H 6728   9.126   3.716   3.255 -1.0915  0.1219 -1.9716
  809MOL0     H 6729   9.422   3.658   3.168 -0.8468  1.3704 -1.0881
  809MOL0     H 6730   9.295   3.532   3.192  0.2859 -0.8500  1.6282
  809MOL0     H 6731   9.403   3.704   3.409 -0.5235 -0.6127  3.4190
  809MOL0     H 6732   9.255   3.611   3.425  1.1864  3.1799  1.8488
  809MOL0     H 6733   9.543   3.502   3.384  0.8652 -0.3349  1.4284
  809MOL0     H 6734   9.395   3.406   3.349 -0.8924  2.4259 -2.6558
  809MOL0     H 6735   9.324   3.461   3.596  0.8216  2.2787  1.3121
  809MOL0     H 6736   9.491   3.512   3.614 -1.7530  0.1214  0.2140
  809MOL0     H 6737   9.419   3.261   3.668 -1.1367 -1.8058 -1.1644
  809MOL0     H 6738   9.417   3.233   3.502  1.2691  2.3152 -1.5064
  809MOL0     H 6739   9.656   3.354   3.495  1.1402  0.7848  0.8025
  809MOL0     H 6740   9.629   3.184   3.526  0.7771 -0.1158  0.0516
  809MOL0     H 6741   9.655   3.467   3.788 -0.1235 -0.3075 -2.5841
  809MOL0     H 6742   9.824   3.483   4.019  1.7462 -0.9629 -1.1761
  809MOL0     H 6743   9.882   3.338   4.086  0.8942 -1.2366 -2.8995
  809MOL0     H 6744   9.631   3.261   4.123 -1.6394  1.5693 -0.3628
  809MOL0     H 6745   9.591   3.434   4.097  0.1541  1.0842  0.4744
  809MOL0     H 6746   9.793   3.342   4.312 -0.5933  0.5338  1.8766
  809MOL0     H 6747   9.720   3.505   4.277  0.9093 -0.2632  3.5277
  809MOL0     H 6748   9.489   3.386   4.315  1.3156  2.9012 -1.8994
  809MOL0     H 6749   9.599   3.395   4.450  0.0152  2.2971 -1.7146
  809MOL0     H 6750   9.470   2.955   4.334  2.0438 -0.2650  1.5234
  809MOL0     H 6751   9.306   2.869   4.471 -1.1632  1.0877  2.3588
  809MOL0     H 6752   8.948   2.917   4.830  1.0032 -1.8648 -0.1985
  809MOL0     H 6753   8.765   2.808   4.912  2.3263  4.0250  0.1586
  809MOL0     H 6754   8.650   2.461   4.711 -1.2117 -1.0896 -0.9834
  809MOL0     H 6755   8.485   2.519   4.684 -0.9119 -2.9344  2.1240
  809MOL0     H 6756   8.608   2.460   4.948 -1.2645  1.7895  2.3742
  809MOL0     H 6757   8.500   2.342   4.872  2.1503 -0.5584  1.7967
  809MOL0     H 6758   8.412   2.626   4.941 -0.3615 -1.5058 -6.8128
  809MOL0     H 6759   8.437   2.511   5.074 -1.0512 -1.6163 -0.5856
  809MOL0     H 6760   8.263   2.466   4.837  0.6147  0.6737 -1.0243
  809MOL0     H 6761   8.260   2.368   4.994 -0.5970  2.6143  3.7088
  809MOL0     H 6762   8.204   2.669   4.989  1.4392 -1.1450  0.0958
  809MOL0     H 6763   8.187   2.558   5.121 -0.6614  0.3602  0.6751
  809MOL0     H 6764   8.023   2.569   4.857 -0.6659 -0.3285 -0.9270
  809MOL0     H 6765   7.956   2.624   5.002 -0.1589 -1.3950 -0.4477
  809MOL0     H 6766   7.865   2.400   4.969  0.3062  1.6826 -2.1410
  809MOL0     H 6767   8.018   2.336   4.928 -1.9877 -0.8059 -0.4868
  809MOL0     H 6768   7.942   2.450   5.201  1.6582  0.8291  1.2508
  809MOL0     H 6769   8.087   2.357   5.154 -0.4836  1.5964 -0.8428
  809MOL0     H 6770   8.672   2.673   4.510 -0.8563  0.9278  0.3424
  809MOL0     H 6771   8.844   2.786   4.433 -0.2877  1.6268  0.1062
  809MOL0     H 6772   9.195   3.248   4.596  3.1770 -0.0809  1.8441
  809MOL0     H 6773   9.397   3.342   4.517 -0.9106  0.2046  1.0747
  809MOL0     H 6774   9.028   4.179   3.149 -0.4476 -0.8348  0.8954
  809MOL0     H 6775   9.062   4.420   3.200  1.2574  2.3039  1.2638
  809MOL0     H 6776   9.005   4.805   3.484  0.0232  2.4371  0.4190
  809MOL0     H 6777   9.050   5.036   3.460 -1.6036 -0.1157 -1.7724
  809MOL0     H 6778   9.160   5.247   3.204  1.2356  1.5141 -2.5713
  809MOL0     H 6779   9.296   5.144   3.159 -1.8022 -1.3220  1.1117
  809MOL0     H 6780   9.353   5.408   3.182  0.5603  2.0427  2.4926
  809MOL0     H 6781   9.338   5.383   3.350  0.7025  1.7655 -0.1640
  809MOL0     H 6782   9.543   5.241   3.179 -1.5853  0.6036 -0.5227
  809MOL0     H 6783   9.525   5.235   3.359 -0.1993 -0.0114 -0.1475
  809MOL0     H 6784   9.570   5.489   3.360 -0.7648 -2.1912  0.6313
  809MOL0     H 6785   9.696   5.388   3.306 -2.3623 -4.0257  2.3377
  809MOL0     H 6786   9.613   5.598   2.950 -3.0312 -1.1880  0.1242
  809MOL0     H 6787   9.417   4.932   3.257  0.2284  0.8204 -0.6338
  809MOL0     H 6788   9.381   4.717   3.303 -1.0377  0.5157 -1.4176
  810MOL0     O 6789   9.651   0.619   8.570 -0.2073 -0.5309  0.3326
  810MOL0     C 6790   9.733   0.541   8.604  0.1289 -0.3905 -0.7693
  810MOL0     O 6791   9.807   0.549   8.719 -0.9669 -0.3644 -0.3824
  810MOL0     C 6792   9.824   0.658   8.805  0.9627  0.1524 -0.3100
  810MOL0     C 6793   9.717   0.749   8.832 -1.2373  0.5447  0.8718
  810MOL0     C 6794   9.741   0.855   8.922 -0.4228  0.5888 -0.9369
  810MOL0     C 6795   9.875   0.880   8.972 -0.7216 -0.7244 -0.8852
  810MOL0     O 6796   9.910   0.993   9.045  0.6632 -0.6939 -0.6973
  810MOL0     C 6797  10.038   1.042   9.047 -0.9570 -0.7579 -0.8377
  810MOL0     C 6798  10.048   1.188   9.091  0.9932  0.2440  0.8216
  810MOL0     C 6799   9.971   1.208   9.214  0.6480 -0.4396  1.7820
  810MOL0     C 6800  10.017   1.341   9.275  0.2834 -0.5823  0.2365
  810MOL0     C 6801  10.130   1.314   9.373 -0.2748 -0.6835  0.3017
  810MOL0     C 6802  10.212   1.432   9.398  0.2684 -0.1568  0.3898
  810MOL0     C 6803  10.316   1.470   9.293 -0.3320  0.2302 -0.3977
  810MOL0     C 6804  10.318   1.623   9.271  0.6130  0.4472  0.8989
  810MOL0     N 6805  10.377   1.687   9.383 -0.7881  0.7300 -0.6310
  810MOL0     C 6806  10.311   1.732   9.500  0.2797 -0.7121  0.1238
  810MOL0     C 6807  10.418   1.762   9.577  0.1885 -0.2844 -0.1551
  810MOL0     C 6808  10.408   1.799   9.725  0.4889 -0.0147 -0.1099
  810MOL0     C 6809  10.408   1.952   9.754 -1.3570  0.9289  0.0232
  810MOL0     C 6810  10.391   1.980   9.904 -0.2568  0.2097  0.3508
  810MOL0     C 6811  10.397   2.127   9.952 -0.0397 -0.9744 -0.3040
  810MOL0     O 6812  10.530   2.175   9.917  0.7231 -0.4668 -0.0702
  810MOL0     C 6813  10.560   2.315   9.937 -0.1097 -0.1900 -0.0006
  810MOL0     C 6814  10.475   2.414   9.976  0.5607 -0.6818  0.0688
  810MOL0     C 6815  10.507   2.550   9.982  0.6105  0.0440 -0.1542
  810MOL0     C 6816  10.641   2.589   9.948 -0.2493 -0.1952  0.3690
  810MOL0     C 6817  10.679   2.730   9.943 -0.8460 -0.3727 -0.7973
  810MOL0     O 6818  10.586   2.813   9.954  0.3367 -0.1512  0.7938
  810MOL0     C 6819  10.601   2.951   9.938  0.9099 -0.1432  0.5477
  810MOL0     C 6820  10.714   3.037   9.961 -0.1458 -0.3518  0.2278
  810MOL0     C 6821  10.702   3.169   9.928 -0.2955 -0.7991  0.6016
  810MOL0     C 6822  10.587   3.229   9.882  0.3944 -0.0537 -0.1799
  810MOL0     O 6823  10.568   3.361   9.867  0.7154 -0.4895 -0.4349
  810MOL0     C 6824  10.679   3.458   9.886  0.2178  0.5852 -0.0590
  810MOL0     C 6825  10.621   3.582   9.836  0.9777 -1.4070  0.8658
  810MOL0     C 6826  10.723   3.699   9.839 -0.1357 -0.0774  0.0608
  810MOL0     C 6827  10.654   3.822   9.768  0.3948 -0.5907  0.0787
  810MOL0     C 6828  10.677   3.961   9.837 -0.0998  0.2310  0.2554
  810MOL0     C 6829  10.677   4.065   9.721  0.0166  0.0898 -0.1795
  810MOL0     C 6830  10.687   4.205   9.779  0.0824  0.6192 -1.0056
  810MOL0     C 6831  10.691   4.301   9.667  0.3636 -0.9989 -0.3062
  810MOL0    Cl 6832  10.727   4.461   9.723 -0.2338  0.0632 -0.1290
  810MOL0     C 6833  10.472   3.150   9.873 -0.4118 -0.5407  0.7486
  810MOL0     C 6834  10.477   3.011   9.902 -0.5200 -1.0458  0.0018
  810MOL0     O 6835  10.798   2.758   9.949  0.6779 -0.6031 -0.3506
  810MOL0     C 6836  10.734   2.479   9.912 -0.0396  0.1443 -0.3957
  810MOL0     C 6837  10.692   2.345   9.904  0.0357  0.9759 -0.4438
  810MOL0     N 6838  10.533   1.736   9.504 -0.1243  0.7492  0.4835
  810MOL0     N 6839  10.510   1.696   9.388  0.2196  0.0953  0.1241
  810MOL0     C 6840   9.974   0.794   8.930  0.5915 -0.2053 -0.8553
  810MOL0     C 6841   9.946   0.677   8.865  0.6509 -0.8747  0.6996
  810MOL0     C 6842   9.752   0.437   8.508  0.4700  1.2120  0.1977
  810MOL0     C 6843   9.874   0.356   8.499  0.0030 -0.4146 -0.2947
  810MOL0     C 6844   9.884   0.254   8.400 -0.2070 -0.4625  0.3366
  810MOL0     C 6845   9.782   0.217   8.312  0.7634 -0.8119 -0.3971
  810MOL0     O 6846   9.802   0.123   8.219 -0.6487  0.3436  0.8902
  810MOL0     C 6847   9.744   0.135   8.089 -0.1725  0.5368  1.2212
  810MOL0     C 6848   9.614   0.067   8.086  0.2233 -0.5401 -0.1302
  810MOL0     C 6849   9.642  -0.085   8.099  0.3091 -0.0791 -0.3132
  810MOL0     C 6850   9.517  -0.166   8.053 -0.2509 -0.3745  0.1509
  810MOL0     C 6851   9.566  -0.305   8.056 -0.6755  1.3049  1.0859
  810MOL0     C 6852   9.615  -0.411   8.034 -0.4894  0.3143 -0.5276
  810MOL0     C 6853   9.672   0.303   8.312 -0.4907  0.7219 -0.2640
  810MOL0     C 6854   9.661   0.403   8.410 -0.1512  0.2946  0.2023
  810MOL0     H 6855   9.621   0.729   8.786 -0.5022 -1.5731  0.1247
  810MOL0     H 6856   9.665   0.932   8.928 -0.9043  0.0170  1.3493
  810MOL0     H 6857  10.085   1.047   8.949 -1.2485 -2.6495 -1.1225
  810MOL0     H 6858  10.101   0.982   9.113 -2.7033 -1.2579  0.4721
  810MOL0     H 6859  10.007   1.255   9.015 -0.2173 -0.0550  1.1953
  810MOL0     H 6860  10.154   1.211   9.105  1.4794 -0.9841 -0.5641
  810MOL0     H 6861   9.986   1.125   9.283  1.9365 -0.5166  1.4218
  810MOL0     H 6862   9.867   1.203   9.180  0.0357 -3.2164  3.7391
  810MOL0     H 6863  10.025   1.413   9.193 -0.0954  0.1310  0.8085
  810MOL0     H 6864   9.929   1.380   9.328 -1.0853 -1.5335 -1.2278
  810MOL0     H 6865  10.199   1.229   9.367 -1.2234 -1.7607  2.9625
  810MOL0     H 6866  10.091   1.294   9.473  0.6817  2.0155  1.3045
  810MOL0     H 6867  10.255   1.434   9.499  0.4185 -2.4793  0.4261
  810MOL0     H 6868  10.139   1.513   9.406 -0.5650 -0.9084  0.4596
  810MOL0     H 6869  10.419   1.440   9.316 -1.4123 -1.1827  3.3437
  810MOL0     H 6870  10.289   1.429   9.195 -3.3025 -1.8230  1.1356
  810MOL0     H 6871  10.216   1.661   9.259  0.1409 -1.3279 -1.4158
  810MOL0     H 6872  10.378   1.647   9.183  3.5098  1.2910  2.9593
  810MOL0     H 6873  10.208   1.742   9.532  0.4953 -1.5461  1.1753
  810MOL0     H 6874  10.492   1.745   9.769 -0.2681 -2.3193 -1.3196
  810MOL0     H 6875  10.332   1.737   9.775  2.9027 -3.9774 -0.9164
  810MOL0     H 6876  10.345   2.000   9.678 -4.3357 -3.7304 -0.8620
  810MOL0     H 6877  10.514   1.972   9.735 -1.2402  0.3737  0.0781
  810MOL0     H 6878  10.294   1.932   9.917 -1.1821  2.3911  2.1188
  810MOL0     H 6879  10.464   1.932   9.969 -0.7872  3.7499  3.9559
  810MOL0     H 6880  10.369   2.135  10.057  2.0182 -1.5556  0.3542
  810MOL0     H 6881  10.319   2.180   9.897 -0.5136 -1.2490  0.1058
  810MOL0     H 6882  10.379   2.364   9.991  0.4175 -0.3581  0.2266
  810MOL0     H 6883  10.435   2.623  10.018  0.5419 -0.7544  1.3908
  810MOL0     H 6884  10.811   2.999   9.991 -0.0961 -2.9810 -2.6603
  810MOL0     H 6885  10.784   3.237   9.950 -1.0627  0.6075 -0.7149
  810MOL0     H 6886  10.770   3.428   9.834 -0.6044 -1.6967 -0.2828
  810MOL0     H 6887  10.706   3.464   9.992  2.5286  1.3151 -0.6353
  810MOL0     H 6888  10.533   3.610   9.895  2.2106 -0.9147  2.5433
  810MOL0     H 6889  10.584   3.575   9.733 -1.6431  3.8866  1.0944
  810MOL0     H 6890  10.817   3.678   9.785 -0.6689 -1.9445 -0.2420
  810MOL0     H 6891  10.753   3.729   9.939  0.1422 -0.5479  0.1274
  810MOL0     H 6892  10.698   3.828   9.668  1.4709 -1.9167  0.4374
  810MOL0     H 6893  10.547   3.799   9.770 -0.2433  2.0960  0.5838
  810MOL0     H 6894  10.774   3.956   9.887 -0.8109  1.3476  1.8226
  810MOL0     H 6895  10.600   3.993   9.907 -0.9129  2.2070 -1.4180
  810MOL0     H 6896  10.585   4.077   9.662  0.0653  0.0187 -0.2690
  810MOL0     H 6897  10.751   4.045   9.644 -2.0005 -0.7431 -2.0147
  810MOL0     H 6898  10.608   4.228   9.851 -1.0901 -1.4228 -1.5817
  810MOL0     H 6899  10.785   4.215   9.827 -1.0334  2.0202  1.1784
  810MOL0     H 6900  10.598   4.301   9.610 -1.4493 -0.4093  2.4639
  810MOL0     H 6901  10.773   4.291   9.595 -0.4568  0.0808 -1.4150
  810MOL0     H 6902  10.371   3.181   9.850 -1.3425 -2.2837  2.1925
  810MOL0     H 6903  10.385   2.956   9.892 -0.3438 -1.4163  0.4086
  810MOL0     H 6904  10.838   2.495   9.886  0.5997 -1.0472  1.2176
  810MOL0     H 6905  10.768   2.270   9.885  0.0816 -0.7951  4.9445
  810MOL0     H 6906  10.081   0.792   8.952  0.7369 -2.1201 -1.5471
  810MOL0     H 6907  10.029   0.615   8.832  1.8830  1.0083  0.0962
  810MOL0     H 6908   9.956   0.368   8.569  0.4932  1.4301 -1.1055
  810MOL0     H 6909   9.978   0.200   8.407  1.6586  2.6910  1.9528
  810MOL0     H 6910   9.809   0.091   8.013 -2.2840 -3.2153  1.3963
  810MOL0     H 6911   9.726   0.240   8.064 -0.6844  0.0411 -0.6318
  810MOL0     H 6912   9.540   0.116   8.150  0.6624  0.1339 -0.1230
  810MOL0     H 6913   9.583   0.088   7.983  0.6001  4.0616  0.4496
  810MOL0     H 6914   9.657  -0.106   8.205 -1.5594 -0.6427 -0.1226
  810MOL0     H 6915   9.732  -0.118   8.046  0.9969 -3.5273  2.6341
  810MOL0     H 6916   9.429  -0.155   8.117  0.9639 -0.6733  1.9374
  810MOL0     H 6917   9.491  -0.140   7.950  2.5704  1.4982 -0.2055
  810MOL0     H 6918   9.658  -0.498   7.988  3.1220 -0.1375  3.0930
  810MOL0     H 6919   9.598   0.290   8.234 -1.6889 -1.1433  1.1103
  810MOL0     H 6920   9.578   0.469   8.388  1.0012  2.0919  0.9967
  811MOL0     O 6921   4.173  10.947   1.947 -0.3932 -0.3774  0.1738
  811MOL0     C 6922   4.113  10.852   1.986  1.0382  0.6698 -0.6602
  811MOL0     O 6923   4.154  10.782   2.092  0.5427 -0.1049  0.0162
  811MOL0     C 6924   4.262  10.818   2.159 -1.1125  0.0747 -0.5726
  811MOL0     C 6925   4.391  10.823   2.091 -0.0323  0.5071 -0.0653
  811MOL0     C 6926   4.510  10.852   2.159  0.0571  0.7615  0.4146
  811MOL0     C 6927   4.510  10.868   2.289  0.5090 -0.8073  0.8526
  811MOL0     O 6928   4.623  10.898   2.356  0.8144 -0.4531 -0.1046
  811MOL0     C 6929   4.735  10.812   2.337 -0.8512 -0.0337 -0.6130
  811MOL0     C 6930   4.835  10.829   2.458 -0.1041 -0.7284  0.4414
  811MOL0     C 6931   4.958  10.744   2.411  0.1695 -0.5060 -0.3960
  811MOL0     C 6932   5.046  10.714   2.534  0.1640 -0.6456  0.2204
  811MOL0     C 6933   5.179  10.655   2.505  0.5511 -0.5805  0.7681
  811MOL0     C 6934   5.281  10.695   2.605 -0.0531 -0.0671 -0.3403
  811MOL0     C 6935   5.411  10.632   2.581  0.2270 -0.1935 -0.3010
  811MOL0     C 6936   5.495  10.610   2.700 -0.3663 -0.4500  0.2434
  811MOL0     N 6937   5.618  10.553   2.640 -0.3668  0.0030 -0.5032
  811MOL0     C 6938   5.704  10.616   2.546 -0.0608 -0.4297 -0.0145
  811MOL0     C 6939   5.771  10.524   2.477 -1.2884  0.2836  0.7184
  811MOL0     C 6940   5.869  10.568   2.360 -0.2683  0.1908 -0.0759
  811MOL0     C 6941   6.003  10.624   2.405  0.0731  0.3251 -0.1418
  811MOL0     C 6942   6.089  10.529   2.493 -0.1927  0.0018  0.1660
  811MOL0     C 6943   6.214  10.597   2.533  1.2884  0.1745 -1.0068
  811MOL0     O 6944   6.310  10.504   2.479 -0.3746  0.2241  0.1663
  811MOL0     C 6945   6.419  10.548   2.415 -0.2356 -0.3394 -0.1803
  811MOL0     C 6946   6.502  10.444   2.365  0.7746  0.3433 -0.1381
  811MOL0     C 6947   6.619  10.475   2.299  0.4035  0.9629 -0.0796
  811MOL0     C 6948   6.655  10.605   2.275  0.1632 -0.6404 -0.0258
  811MOL0     C 6949   6.789  10.630   2.198  0.2059  0.5585  0.2276
  811MOL0     O 6950   6.878  10.524   2.188  0.0899  0.6812 -0.0968
  811MOL0     C 6951   6.992  10.532   2.111  0.6822  0.3855  0.2857
  811MOL0     C 6952   7.116  10.498   2.162  0.7857 -0.0115  0.3829
  811MOL0     C 6953   7.235  10.506   2.092  0.5029 -0.3431 -1.3722
  811MOL0     C 6954   7.241  10.537   1.960  1.3497  0.1237  0.1095
  811MOL0     O 6955   7.362  10.542   1.893  0.0259 -0.9452 -0.4359
  811MOL0     C 6956   7.369  10.521   1.754 -0.0131  0.3081 -0.2537
  811MOL0     C 6957   7.482  10.594   1.689 -0.6303 -1.1089 -0.1420
  811MOL0     C 6958   7.608  10.621   1.782 -0.0097  0.3516  0.7350
  811MOL0     C 6959   7.720  10.675   1.697  0.2663  0.4058  0.4513
  811MOL0     C 6960   7.793  10.565   1.617 -0.2251 -0.7492 -0.5934
  811MOL0     C 6961   7.923  10.613   1.540 -1.0210  0.3654 -0.6426
  811MOL0     C 6962   8.008  10.487   1.508 -0.9343 -1.3320 -0.6746
  811MOL0     C 6963   8.080  10.512   1.376 -0.1923 -0.0113 -0.1930
  811MOL0    Cl 6964   7.960  10.539   1.246 -0.3192 -0.4101  0.0918
  811MOL0     C 6965   7.117  10.571   1.904  0.2926  0.6858  0.0823
  811MOL0     C 6966   6.990  10.577   1.979  0.0232 -0.7129  0.1990
  811MOL0     O 6967   6.812  10.744   2.159  0.0522  0.0691  0.4308
  811MOL0     C 6968   6.562  10.708   2.315 -0.4669 -0.5700 -0.1313
  811MOL0     C 6969   6.453  10.674   2.387 -0.3465 -0.2734 -0.4085
  811MOL0     N 6970   5.742  10.402   2.533 -0.3396 -0.6050  0.5680
  811MOL0     N 6971   5.657  10.421   2.627 -1.2144  0.1038  0.2637
  811MOL0     C 6972   4.388  10.869   2.358 -0.7082  0.1332 -0.0355
  811MOL0     C 6973   4.263  10.846   2.301  0.2339  0.0666 -0.7933
  811MOL0     C 6974   3.990  10.808   1.909  0.0192 -0.8174 -0.6134
  811MOL0     C 6975   3.962  10.680   1.862  0.8870  1.1050 -0.1577
  811MOL0     C 6976   3.843  10.647   1.795  0.6012 -0.3856 -0.4232
  811MOL0     C 6977   3.746  10.747   1.761 -0.1422  0.3350  0.8114
  811MOL0     O 6978   3.643  10.743   1.665 -0.2258  0.1600 -0.3751
  811MOL0     C 6979   3.633  10.612   1.598  0.4089  0.4005  0.6423
  811MOL0     C 6980   3.509  10.614   1.515  0.2128 -0.4879 -0.1648
  811MOL0     C 6981   3.503  10.482   1.431 -0.2100  0.1635  0.6057
  811MOL0     C 6982   3.366  10.463   1.353  0.6681 -0.0519  0.5802
  811MOL0     C 6983   3.367  10.549   1.229 -0.8647 -0.2267 -1.2007
  811MOL0     C 6984   3.360  10.617   1.130 -0.8891  0.0139  0.7222
  811MOL0     C 6985   3.778  10.872   1.806 -0.3037  0.1582  0.3248
  811MOL0     C 6986   3.897  10.906   1.869 -0.9043  0.8537 -0.0168
  811MOL0     H 6987   4.397  10.783   1.991  3.5057 -1.6828  0.8468
  811MOL0     H 6988   4.602  10.853   2.101 -0.1784  0.4077  0.0247
  811MOL0     H 6989   4.783  10.847   2.245 -0.7250  0.5519 -0.3295
  811MOL0     H 6990   4.705  10.708   2.328 -3.0010  0.6769 -2.9161
  811MOL0     H 6991   4.795  10.804   2.556  2.4860  1.7443  2.3005
  811MOL0     H 6992   4.866  10.934   2.465 -2.0860  0.1731 -2.2333
  811MOL0     H 6993   5.016  10.803   2.340 -0.1828  2.5770  1.6769
  811MOL0     H 6994   4.925  10.649   2.366 -2.8541 -0.4850  1.4390
  811MOL0     H 6995   5.059  10.812   2.581  2.4124 -0.6394 -0.2956
  811MOL0     H 6996   4.984  10.651   2.599 -1.3901  0.5324 -0.0590
  811MOL0     H 6997   5.211  10.693   2.407 -0.0787  1.9584  1.4801
  811MOL0     H 6998   5.183  10.546   2.498  2.0356 -0.6932  2.4667
  811MOL0     H 6999   5.245  10.655   2.701 -1.1819 -3.2093 -1.9280
  811MOL0     H 7000   5.299  10.803   2.599  2.9581  0.0907  4.8378
  811MOL0     H 7001   5.399  10.532   2.539  1.8232  0.1255 -1.6131
  811MOL0     H 7002   5.458  10.698   2.507  2.8347 -2.5338 -0.9215
  811MOL0     H 7003   5.455  10.538   2.772 -0.1185 -1.1037 -0.2595
  811MOL0     H 7004   5.506  10.706   2.751 -0.5077  0.0328 -0.6148
  811MOL0     H 7005   5.712  10.722   2.529  0.8440  0.0527  2.8140
  811MOL0     H 7006   5.835  10.651   2.298 -1.0396  2.0277  2.6357
  811MOL0     H 7007   5.883  10.478   2.299  0.4792 -0.4608  1.0381
  811MOL0     H 7008   5.992  10.702   2.482  2.1841  0.1482  0.3857
  811MOL0     H 7009   6.067  10.654   2.322  1.7446 -3.2587 -0.3472
  811MOL0     H 7010   6.048  10.475   2.579 -0.5907 -1.3567 -0.8309
  811MOL0     H 7011   6.107  10.442   2.429  1.2486  1.2441 -1.1724
  811MOL0     H 7012   6.217  10.607   2.642  1.7734 -2.3972 -0.7086
  811MOL0     H 7013   6.228  10.697   2.492  1.0636  0.8958  0.5818
  811MOL0     H 7014   6.465  10.345   2.390 -2.0889  1.3047 -0.1926
  811MOL0     H 7015   6.676  10.384   2.283  0.7098  0.8291  1.5874
  811MOL0     H 7016   7.119  10.476   2.268 -2.2491  2.7868  1.2314
  811MOL0     H 7017   7.323  10.465   2.142  0.3614  0.7622 -0.1466
  811MOL0     H 7018   7.282  10.550   1.695 -0.4510 -2.0628 -0.8948
  811MOL0     H 7019   7.371  10.412   1.747 -0.9530  0.3633 -1.6568
  811MOL0     H 7020   7.445  10.685   1.642 -0.0893 -1.2275 -0.8198
  811MOL0     H 7021   7.518  10.528   1.609 -1.1367 -0.5783 -0.8145
  811MOL0     H 7022   7.648  10.533   1.832 -1.4032 -0.2709  0.7846
  811MOL0     H 7023   7.568  10.691   1.856 -2.3891 -0.9378  0.7663
  811MOL0     H 7024   7.668  10.739   1.626 -0.2537 -0.7592 -0.2387
  811MOL0     H 7025   7.791  10.735   1.756 -0.5795  2.5766 -0.6342
  811MOL0     H 7026   7.730  10.519   1.541  0.1419 -1.3263 -0.5525
  811MOL0     H 7027   7.818  10.491   1.694  1.2582  0.4517  0.1382
  811MOL0     H 7028   7.984  10.681   1.599 -0.3419 -1.8393  1.3585
  811MOL0     H 7029   7.903  10.665   1.446 -0.1086  2.0497  0.0543
  811MOL0     H 7030   8.087  10.473   1.583 -0.3998  1.1816 -0.6642
  811MOL0     H 7031   7.938  10.403   1.512 -0.3110 -1.8085  1.1380
  811MOL0     H 7032   8.136  10.420   1.360  0.3837 -0.3009  2.9044
  811MOL0     H 7033   8.155  10.591   1.384  0.5893 -0.6982 -0.7201
  811MOL0     H 7034   7.116  10.601   1.800  2.6155 -1.1189 -0.5554
  811MOL0     H 7035   6.903  10.613   1.923 -0.7242 -0.0285  1.7362
  811MOL0     H 7036   6.594  10.810   2.296  1.1847 -1.4443 -2.4916
  811MOL0     H 7037   6.387  10.754   2.419  0.3012 -0.7633  2.3822
  811MOL0     H 7038   4.390  10.887   2.465 -1.5851 -0.3917  0.0818
  811MOL0     H 7039   4.171  10.840   2.357 -0.7644 -1.9746 -2.5085
  811MOL0     H 7040   4.024  10.592   1.876 -0.7819 -0.3716 -1.5938
  811MOL0     H 7041   3.827  10.545   1.760  1.3802 -1.3054  1.6988
  811MOL0     H 7042   3.637  10.531   1.671  0.3427  2.3609  2.9471
  811MOL0     H 7043   3.720  10.591   1.535 -1.2917 -2.2509 -1.0079
  811MOL0     H 7044   3.432  10.631   1.590  1.7903  1.4589  1.1035
  811MOL0     H 7045   3.517  10.699   1.447 -2.9413 -2.0312 -2.7290
  811MOL0     H 7046   3.507  10.390   1.491 -4.4692  1.7714  3.7845
  811MOL0     H 7047   3.579  10.487   1.352  1.6617  0.3772  2.3430
  811MOL0     H 7048   3.353  10.360   1.318 -0.3042  0.6832 -1.3798
  811MOL0     H 7049   3.285  10.485   1.423  0.7380  0.4018  0.5243
  811MOL0     H 7050   3.356  10.686   1.048  0.1731 -0.5380  0.1844
  811MOL0     H 7051   3.707  10.951   1.784 -2.9963 -2.4376 -1.1991
  811MOL0     H 7052   3.923  11.011   1.881 -0.9465  0.7522  0.9946
  812MOL0     O 7053   6.809   8.566   1.959  0.9031  0.5049 -0.4301
  812MOL0     C 7054   6.841   8.467   1.895  0.3290  1.0805  0.1293
  812MOL0     O 7055   6.914   8.462   1.772  0.3842 -0.0993 -1.0794
  812MOL0     C 7056   6.958   8.579   1.713  0.3638  0.9113 -0.7549
  812MOL0     C 7057   6.995   8.585   1.581  0.9077  0.4826  1.0219
  812MOL0     C 7058   7.045   8.690   1.516 -0.6731 -0.6769 -0.6322
  812MOL0     C 7059   7.061   8.808   1.587  0.3711 -0.1449 -0.0977
  812MOL0     O 7060   7.114   8.932   1.547 -0.5848  0.8108 -0.5829
  812MOL0     C 7061   7.126   8.968   1.415  0.1649 -0.6323 -0.1841
  812MOL0     C 7062   7.144   9.117   1.401 -1.0312 -0.4769 -0.1521
  812MOL0     C 7063   7.286   9.164   1.412  0.1546  0.7865 -0.8632
  812MOL0     C 7064   7.290   9.314   1.419 -0.6094 -0.1816 -0.0002
  812MOL0     C 7065   7.423   9.368   1.371 -0.5151 -0.2756 -0.6030
  812MOL0     C 7066   7.426   9.516   1.361 -0.2850 -0.3243  0.0393
  812MOL0     C 7067   7.406   9.578   1.499  0.3070 -0.1975  0.3809
  812MOL0     C 7068   7.467   9.713   1.530  0.4743 -0.8910  0.5577
  812MOL0     N 7069   7.609   9.716   1.492 -0.3731  0.3584  0.1569
  812MOL0     C 7070   7.710   9.654   1.566  0.1271 -0.9314  0.6362
  812MOL0     C 7071   7.818   9.685   1.496 -0.5759 -0.1025 -0.9463
  812MOL0     C 7072   7.955   9.636   1.512 -0.6816  0.6509  0.5146
  812MOL0     C 7073   8.026   9.661   1.643 -0.0159  0.6198 -1.3617
  812MOL0     C 7074   8.079   9.800   1.658 -0.6884  0.6736 -0.1845
  812MOL0     C 7075   8.132   9.811   1.801 -0.0538 -0.4772 -0.2101
  812MOL0     O 7076   8.260   9.755   1.815  0.3446  0.0166  0.1583
  812MOL0     C 7077   8.331   9.795   1.924 -0.6537 -0.6014  0.1735
  812MOL0     C 7078   8.459   9.858   1.899 -0.1083 -0.2614 -0.6738
  812MOL0     C 7079   8.529   9.900   2.014 -0.7426 -0.0873 -0.0290
  812MOL0     C 7080   8.478   9.879   2.145 -0.3401 -0.3244  0.4516
  812MOL0     C 7081   8.553   9.914   2.262  0.5597 -0.9541  0.4791
  812MOL0     O 7082   8.482   9.986   2.363 -0.5610  0.3741 -0.3927
  812MOL0     C 7083   8.545  10.015   2.483 -0.0543 -0.0034 -0.8030
  812MOL0     C 7084   8.683  10.031   2.496 -0.2505 -0.2538  0.3646
  812MOL0     C 7085   8.743  10.076   2.615  0.2136 -0.5902  0.3273
  812MOL0     C 7086   8.653  10.101   2.723  0.5652  0.5938 -0.6227
  812MOL0     O 7087   8.684  10.159   2.841 -0.1308 -0.0328 -0.2534
  812MOL0     C 7088   8.808  10.211   2.865 -0.2247  0.1826  0.1070
  812MOL0     C 7089   8.803  10.280   3.005  0.1307 -0.7947  0.4053
  812MOL0     C 7090   8.754  10.192   3.118 -0.5676 -0.7583  0.1257
  812MOL0     C 7091   8.835  10.073   3.146 -0.0433  0.5603  0.0237
  812MOL0     C 7092   8.820  10.029   3.288  0.1553 -0.0565  0.4133
  812MOL0     C 7093   8.900  10.115   3.377 -0.1902 -0.1523  1.8268
  812MOL0     C 7094   8.915  10.065   3.526 -0.7683 -0.9579  0.3169
  812MOL0     C 7095   9.002  10.151   3.616  0.6396 -0.8902 -0.0316
  812MOL0    Cl 7096   9.163  10.152   3.550  0.2265 -0.2218  0.0579
  812MOL0     C 7097   8.515  10.087   2.703 -0.7787  0.7498  0.6435
  812MOL0     C 7098   8.462  10.042   2.582  0.0106 -0.6620 -0.2307
  812MOL0     O 7099   8.663   9.866   2.268 -0.1668 -0.3836  0.3992
  812MOL0     C 7100   8.351   9.817   2.161  0.2646  0.0097 -0.6583
  812MOL0     C 7101   8.280   9.773   2.055  0.1952  0.3272 -0.3218
  812MOL0     N 7102   7.777   9.749   1.375  0.0906 -0.4819 -0.6683
  812MOL0     N 7103   7.653   9.775   1.378  0.0275 -1.4978  0.0462
  812MOL0     C 7104   7.013   8.817   1.714 -0.0151  0.9049  0.5806
  812MOL0     C 7105   6.965   8.705   1.775  0.1442 -0.3191  0.3981
  812MOL0     C 7106   6.776   8.329   1.917  0.6711  0.4622  0.6385
  812MOL0     C 7107   6.687   8.325   2.029  0.5449 -0.9264  0.4780
  812MOL0     C 7108   6.639   8.200   2.065 -0.1537 -0.4625  0.1327
  812MOL0     C 7109   6.661   8.084   1.981  0.5237  0.5282 -0.7628
  812MOL0     O 7110   6.595   7.963   2.004 -0.2474  0.2679  0.1889
  812MOL0     C 7111   6.536   7.943   2.137  0.6570  0.9996 -0.1917
  812MOL0     C 7112   6.488   7.791   2.155  0.3210 -0.0956 -1.2676
  812MOL0     C 7113   6.600   7.690   2.171  0.4834  0.3521 -0.0030
  812MOL0     C 7114   6.665   7.659   2.048 -0.2025  0.0128 -0.1256
  812MOL0     C 7115   6.741   7.531   2.020  0.5125  0.0316  0.3226
  812MOL0     C 7116   6.785   7.423   2.013 -0.6194  0.1124  0.5264
  812MOL0     C 7117   6.722   8.099   1.858 -0.2744 -0.2946 -0.6887
  812MOL0     C 7118   6.787   8.217   1.832 -0.2489 -0.2394  0.2340
  812MOL0     H 7119   6.976   8.489   1.535 -2.1014  2.2518 -1.8148
  812MOL0     H 7120   7.082   8.670   1.416  6.1065 -2.8453  1.7722
  812MOL0     H 7121   7.030   8.940   1.369 -1.4494  1.4143  1.7651
  812MOL0     H 7122   7.206   8.917   1.360  0.4886  0.5911 -0.8796
  812MOL0     H 7123   7.070   9.163   1.468 -1.2543  1.1086 -1.4288
  812MOL0     H 7124   7.100   9.134   1.303 -3.3366 -1.9798  0.5386
  812MOL0     H 7125   7.337   9.136   1.319 -0.8797  0.4491 -1.3504
  812MOL0     H 7126   7.338   9.125   1.499 -1.9054 -0.7568 -0.2433
  812MOL0     H 7127   7.215   9.367   1.360 -1.2459 -2.0399 -0.9485
  812MOL0     H 7128   7.267   9.342   1.522 -3.7871 -0.2514 -0.5956
  812MOL0     H 7129   7.457   9.327   1.276  2.5452 -1.4173  0.8370
  812MOL0     H 7130   7.493   9.339   1.450 -0.4121 -0.5382 -0.7896
  812MOL0     H 7131   7.345   9.548   1.295  0.5053 -1.6355 -1.6372
  812MOL0     H 7132   7.525   9.535   1.317 -0.3294  1.6536  0.6970
  812MOL0     H 7133   7.299   9.599   1.502  0.1301 -0.7191 -1.4501
  812MOL0     H 7134   7.432   9.509   1.581 -1.8175 -1.5126  0.0146
  812MOL0     H 7135   7.447   9.721   1.637 -0.6412 -2.1282  0.4660
  812MOL0     H 7136   7.410   9.796   1.488 -1.3911 -3.7324 -3.1756
  812MOL0     H 7137   7.696   9.602   1.661  0.2583  1.8693  2.2932
  812MOL0     H 7138   8.022   9.658   1.429  0.2390 -1.5693  0.6134
  812MOL0     H 7139   7.950   9.528   1.496  0.7067  0.7276 -0.6600
  812MOL0     H 7140   8.110   9.592   1.661 -1.4413 -0.7103  0.6331
  812MOL0     H 7141   7.950   9.635   1.717 -0.1195 -1.5680 -2.1587
  812MOL0     H 7142   8.167   9.797   1.592  0.0239 -1.0586  0.7680
  812MOL0     H 7143   8.016   9.888   1.642  1.9450  2.7860  0.3102
  812MOL0     H 7144   8.067   9.760   1.872  2.3766  0.3871  2.8994
  812MOL0     H 7145   8.126   9.917   1.831 -1.7640 -1.4095  3.3745
  812MOL0     H 7146   8.485   9.879   1.796 -1.4055  4.4945 -0.2895
  812MOL0     H 7147   8.622   9.952   1.999  1.0402 -2.4250  2.0956
  812MOL0     H 7148   8.753  10.029   2.413 -0.3574  0.4913  0.2532
  812MOL0     H 7149   8.850  10.096   2.610  0.4154 -1.7971 -0.7164
  812MOL0     H 7150   8.836  10.272   2.779 -1.3098  0.6459  0.0722
  812MOL0     H 7151   8.885  10.133   2.874 -0.6984 -0.1686  1.5181
  812MOL0     H 7152   8.754  10.378   2.999  1.5467 -0.1574 -1.4995
  812MOL0     H 7153   8.907  10.306   3.024  0.4724 -2.2513  0.7034
  812MOL0     H 7154   8.650  10.162   3.103 -0.7813 -0.6268  1.2376
  812MOL0     H 7155   8.752  10.261   3.203 -1.1167 -0.4914 -0.0977
  812MOL0     H 7156   8.821   9.985   3.083  0.2318 -0.2875  1.1095
  812MOL0     H 7157   8.940  10.103   3.139 -0.1965  1.6431  1.6777
  812MOL0     H 7158   8.870   9.931   3.296  0.2131 -0.6434 -4.2032
  812MOL0     H 7159   8.716  10.023   3.321  0.5208 -3.8896  1.3930
  812MOL0     H 7160   8.849  10.210   3.394  2.4874  1.1837  2.9613
  812MOL0     H 7161   8.999  10.127   3.333 -1.0858  2.1777  0.3022
  812MOL0     H 7162   8.822  10.036   3.575  0.5086 -0.5177  3.2147
  812MOL0     H 7163   8.960   9.966   3.532 -2.6474 -1.8032  5.8589
  812MOL0     H 7164   9.012  10.101   3.713  1.7456 -0.7211 -0.0488
  812MOL0     H 7165   8.959  10.251   3.628  2.9864 -0.0518  2.2491
  812MOL0     H 7166   8.448  10.114   2.784  1.0950  1.1291  2.1243
  812MOL0     H 7167   8.357  10.031   2.556  0.2017 -4.5240  0.0332
  812MOL0     H 7168   8.327   9.799   2.265  0.7554 -0.7249 -0.6673
  812MOL0     H 7169   8.188   9.723   2.082 -1.4290  2.6280 -1.2963
  812MOL0     H 7170   7.019   8.916   1.756  0.5749 -0.3930  3.8625
  812MOL0     H 7171   6.932   8.724   1.876 -0.2388  0.3740  0.1495
  812MOL0     H 7172   6.671   8.411   2.093  2.1385  1.0095 -1.5799
  812MOL0     H 7173   6.582   8.197   2.157  0.7223 -1.6278  0.6636
  812MOL0     H 7174   6.450   8.009   2.146 -0.2661  0.0322 -1.5615
  812MOL0     H 7175   6.600   7.970   2.222 -2.4094 -2.3507  3.5831
  812MOL0     H 7176   6.429   7.791   2.246  0.5560 -0.8185 -1.1100
  812MOL0     H 7177   6.421   7.762   2.073 -0.5799  1.6118 -1.1923
  812MOL0     H 7178   6.563   7.598   2.215  3.8552 -1.6022 -0.8971
  812MOL0     H 7179   6.681   7.719   2.238  0.5987 -1.3785  0.6582
  812MOL0     H 7180   6.591   7.658   1.967  0.7544  1.5247 -1.0683
  812MOL0     H 7181   6.736   7.739   2.024 -0.7283  1.2297  2.1096
  812MOL0     H 7182   6.830   7.328   1.995  1.9218  0.9876  1.7898
  812MOL0     H 7183   6.736   8.019   1.786  0.7284 -0.3073 -0.4999
  812MOL0     H 7184   6.837   8.233   1.737 -0.6795  0.2532  0.0865
  813MOL0     O 7185   5.898   3.429   9.198 -0.6284  0.8153  0.0256
  813MOL0     C 7186   5.798   3.499   9.213 -1.2455 -0.3988  0.0391
  813MOL0     O 7187   5.769   3.551   9.337  0.5728 -0.3084  0.9882
  813MOL0     C 7188   5.859   3.530   9.438 -0.9758  0.0566  0.8103
  813MOL0     C 7189   5.972   3.610   9.443  0.1301 -0.8781  0.1609
  813MOL0     C 7190   6.084   3.566   9.512 -0.4027 -1.0209 -0.1999
  813MOL0     C 7191   6.097   3.442   9.572  0.1133  0.4135  0.3025
  813MOL0     O 7192   6.205   3.367   9.618  0.4629  0.0295  1.1500
  813MOL0     C 7193   6.334   3.427   9.586 -0.3510 -0.4687 -0.2591
  813MOL0     C 7194   6.458   3.357   9.648 -0.0398 -0.8356  0.5918
  813MOL0     C 7195   6.432   3.335   9.802  0.2123 -0.1131 -0.4709
  813MOL0     C 7196   6.560   3.268   9.858  0.6690 -1.0358  0.2140
  813MOL0     C 7197   6.535   3.221  10.004 -0.3676  0.1300  0.6600
  813MOL0     C 7198   6.455   3.299  10.107  0.9679 -0.1666  0.5435
  813MOL0     C 7199   6.453   3.240  10.248  0.6025 -0.1244  0.7060
  813MOL0     C 7200   6.375   3.338  10.345 -0.2781  0.2526  0.6987
  813MOL0     N 7201   6.442   3.461  10.365 -0.2366  0.1029 -0.8212
  813MOL0     C 7202   6.399   3.593  10.343 -0.2553  1.4274  0.6864
  813MOL0     C 7203   6.485   3.678  10.400  0.0578  0.8184  0.0704
  813MOL0     C 7204   6.473   3.834  10.414 -1.3964  0.8962 -0.2165
  813MOL0     C 7205   6.444   3.861  10.554  0.2182 -0.5603  0.1963
  813MOL0     C 7206   6.553   3.816  10.663  0.6580  0.4125  0.5888
  813MOL0     C 7207   6.688   3.886  10.630  0.7254  0.2805 -0.5069
  813MOL0     O 7208   6.663   4.024  10.587 -0.1597 -0.0855 -0.1313
  813MOL0     C 7209   6.707   4.128  10.662  0.0939  0.3086  0.8546
  813MOL0     C 7210   6.731   4.121  10.807  0.6793  0.0674  0.4424
  813MOL0     C 7211   6.760   4.241  10.878 -0.4396  0.0280 -0.5105
  813MOL0     C 7212   6.763   4.361  10.816 -1.0656 -0.0242 -0.1451
  813MOL0     C 7213   6.803   4.480  10.899  0.7572 -0.2390  0.3658
  813MOL0     O 7214   6.805   4.606  10.835  0.4821  0.5983  0.3586
  813MOL0     C 7215   6.848   4.718  10.911 -0.5120  0.1343  0.2436
  813MOL0     C 7216   6.771   4.834  10.882  0.2981  0.6821 -0.0395
  813MOL0     C 7217   6.818   4.961  10.937 -0.1072  0.1496  0.1878
  813MOL0     C 7218   6.932   4.968  11.011  0.5804  0.3879 -0.4498
  813MOL0     O 7219   6.978   5.086  11.051  0.2510 -1.2195 -0.7799
  813MOL0     C 7220   7.103   5.135  11.004  1.5575  0.3464 -0.0161
  813MOL0     C 7221   7.093   5.279  11.009 -0.9019 -0.5321 -0.6341
  813MOL0     C 7222   7.091   5.334  11.157  0.2392 -0.6786  0.2700
  813MOL0     C 7223   7.049   5.478  11.156  0.6157 -0.2060 -1.2157
  813MOL0     C 7224   7.067   5.546  11.293  0.0167  0.6064  1.0655
  813MOL0     C 7225   7.003   5.487  11.416  0.0128  0.4102 -0.6896
  813MOL0     C 7226   7.080   5.520  11.543 -0.9188  0.5390 -0.3252
  813MOL0     C 7227   7.004   5.456  11.664  1.1701 -0.1189  0.0261
  813MOL0    Cl 7228   7.070   5.509  11.824  0.0032 -0.1604  0.4491
  813MOL0     C 7229   7.001   4.849  11.050  0.7129 -0.6866  0.3853
  813MOL0     C 7230   6.961   4.723  11.003  0.5337 -0.0069  0.3106
  813MOL0     O 7231   6.833   4.466  11.012  0.0400  0.9739  0.2152
  813MOL0     C 7232   6.741   4.362  10.674 -0.9192  0.0503  1.2283
  813MOL0     C 7233   6.709   4.250  10.603 -0.1187 -0.5800 -0.5110
  813MOL0     N 7234   6.595   3.594  10.447  0.4632 -0.1385 -0.2324
  813MOL0     N 7235   6.570   3.470  10.427  0.1065 -1.0943 -0.4475
  813MOL0     C 7236   5.984   3.372   9.581 -0.5892  0.2512 -0.8816
  813MOL0     C 7237   5.861   3.417   9.533 -0.7118 -0.2713 -0.4705
  813MOL0     C 7238   5.714   3.521   9.103 -0.3722 -0.1528  0.4319
  813MOL0     C 7239   5.758   3.489   8.968 -0.6439  0.0390 -0.3440
  813MOL0     C 7240   5.683   3.516   8.861 -0.3746 -0.5096  0.9300
  813MOL0     C 7241   5.559   3.575   8.876 -0.2346 -0.2971  0.2077
  813MOL0     O 7242   5.504   3.620   8.757  0.0650  0.6994  0.6020
  813MOL0     C 7243   5.379   3.677   8.761  0.4080 -0.1540 -0.2535
  813MOL0     C 7244   5.344   3.720   8.617 -0.0368  0.0856 -1.0063
  813MOL0     C 7245   5.247   3.624   8.555 -0.1635 -0.4287  0.1160
  813MOL0     C 7246   5.328   3.522   8.471 -0.1931  0.1109 -1.6240
  813MOL0     C 7247   5.327   3.395   8.553  0.0097 -0.2666  0.8120
  813MOL0     C 7248   5.310   3.285   8.600 -0.3574 -0.1350  0.1569
  813MOL0     C 7249   5.506   3.604   9.001  0.6880  0.5067 -0.2104
  813MOL0     C 7250   5.583   3.573   9.117  0.7791 -0.1759  0.9811
  813MOL0     H 7251   5.970   3.699   9.380 -2.1165 -0.9739  0.0382
  813MOL0     H 7252   6.168   3.632   9.491  1.8986 -3.7295 -0.1470
  813MOL0     H 7253   6.342   3.527   9.629  0.4238 -0.6816  0.1225
  813MOL0     H 7254   6.349   3.435   9.478 -0.3592 -0.7748 -0.2841
  813MOL0     H 7255   6.551   3.405   9.616 -1.0300  1.0252  0.3920
  813MOL0     H 7256   6.451   3.255   9.609  1.1089 -0.3194 -1.0536
  813MOL0     H 7257   6.350   3.263   9.815  1.1000 -0.5955  3.6894
  813MOL0     H 7258   6.402   3.415   9.870 -3.1208 -1.3488 -0.2704
  813MOL0     H 7259   6.585   3.180   9.799 -2.0982 -0.8076 -1.4683
  813MOL0     H 7260   6.642   3.341   9.861 -0.8596  1.1471 -3.8143
  813MOL0     H 7261   6.627   3.188  10.052 -0.5448  0.2259  1.0682
  813MOL0     H 7262   6.470   3.133   9.994 -0.6566  0.4126 -0.0107
  813MOL0     H 7263   6.355   3.321  10.067  1.0182  0.8811  0.9692
  813MOL0     H 7264   6.510   3.394  10.112 -0.1892  1.3504 -6.0003
  813MOL0     H 7265   6.400   3.145  10.233 -0.3323  0.5077 -0.1657
  813MOL0     H 7266   6.557   3.236  10.280  1.7633  0.4633 -2.5406
  813MOL0     H 7267   6.354   3.280  10.436  2.5487 -2.7294 -0.3419
  813MOL0     H 7268   6.278   3.359  10.298 -0.6473 -0.0939  1.2966
  813MOL0     H 7269   6.303   3.607  10.294  0.7094 -1.3122 -2.3191
  813MOL0     H 7270   6.388   3.872  10.357 -2.7349  0.8130  1.6028
  813MOL0     H 7271   6.568   3.882  10.388 -1.3401 -0.6919 -3.3171
  813MOL0     H 7272   6.357   3.800  10.583 -1.1474  1.9328  1.7209
  813MOL0     H 7273   6.401   3.962  10.559 -0.6632 -0.8586 -0.9714
  813MOL0     H 7274   6.524   3.849  10.763 -1.8336  0.9129 -0.2023
  813MOL0     H 7275   6.560   3.707  10.662 -3.1177 -0.0201  2.2445
  813MOL0     H 7276   6.736   3.836  10.546 -0.5537 -2.3398  0.2005
  813MOL0     H 7277   6.755   3.873  10.715 -1.6382 -1.7851  1.1912
  813MOL0     H 7278   6.721   4.030  10.864  3.5216 -0.0489  0.9159
  813MOL0     H 7279   6.792   4.229  10.981 -1.7817  1.8041  0.1523
  813MOL0     H 7280   6.687   4.827  10.814  1.9647 -0.7728 -2.0958
  813MOL0     H 7281   6.787   5.059  10.902  1.7311  0.6385 -0.2028
  813MOL0     H 7282   7.116   5.105  10.900  2.6031  1.3226 -0.1975
  813MOL0     H 7283   7.195   5.112  11.058  1.9575 -0.6161 -1.0646
  813MOL0     H 7284   7.002   5.308  10.956 -1.3726  0.7713  0.8195
  813MOL0     H 7285   7.184   5.296  10.951  0.6329 -0.3269  1.6978
  813MOL0     H 7286   7.184   5.323  11.212 -0.5895 -2.9130  1.3520
  813MOL0     H 7287   7.016   5.282  11.218 -1.3174  0.4972 -0.5419
  813MOL0     H 7288   7.118   5.538  11.097  1.1211  0.6269  0.1869
  813MOL0     H 7289   6.945   5.494  11.124 -0.4478 -2.9099  0.4996
  813MOL0     H 7290   7.038   5.651  11.280  2.4144  0.9712 -3.0325
  813MOL0     H 7291   7.175   5.552  11.311  0.3220  0.0666 -0.4163
  813MOL0     H 7292   6.998   5.378  11.412 -1.1517  0.4698 -3.9491
  813MOL0     H 7293   6.904   5.532  11.428 -1.1070 -2.4485  2.1407
  813MOL0     H 7294   7.182   5.482  11.545 -0.2457  2.2406 -0.4371
  813MOL0     H 7295   7.092   5.628  11.548  1.2514  0.3387 -0.3724
  813MOL0     H 7296   7.010   5.347  11.658  0.9859 -0.2547  1.7454
  813MOL0     H 7297   6.899   5.487  11.667  0.5275 -2.0025 -1.3173
  813MOL0     H 7298   7.086   4.839  11.117 -1.1275 -1.7410  2.7048
  813MOL0     H 7299   7.030   4.640  11.017 -0.2710 -0.5102  1.4763
  813MOL0     H 7300   6.759   4.457  10.623  1.3350 -0.2064  1.4211
  813MOL0     H 7301   6.715   4.258  10.495 -0.2562  1.6961 -0.3880
  813MOL0     H 7302   5.981   3.275   9.628 -2.7635  1.0802  0.8712
  813MOL0     H 7303   5.775   3.352   9.548 -0.9634  0.6877  3.0821
  813MOL0     H 7304   5.853   3.452   8.932 -1.7995 -4.0398  0.2143
  813MOL0     H 7305   5.706   3.499   8.756 -0.5644 -0.4539  0.8782
  813MOL0     H 7306   5.384   3.763   8.828  1.1010  0.9843 -1.7400
  813MOL0     H 7307   5.314   3.593   8.788  2.7858 -2.9511 -2.5259
  813MOL0     H 7308   5.291   3.815   8.628 -0.6514 -0.2782 -0.7860
  813MOL0     H 7309   5.426   3.745   8.548  0.3746 -1.0647 -0.9620
  813MOL0     H 7310   5.186   3.687   8.490  1.3946  1.0052 -0.0257
  813MOL0     H 7311   5.176   3.577   8.624 -1.5498  0.7656 -0.4497
  813MOL0     H 7312   5.273   3.496   8.380 -3.8287 -3.7682  1.3087
  813MOL0     H 7313   5.430   3.559   8.455  0.4644  1.3275  3.5484
  813MOL0     H 7314   5.315   3.196   8.659 -0.4147  1.2857  2.4582
  813MOL0     H 7315   5.409   3.652   9.015  0.2895 -0.0275 -1.0088
  813MOL0     H 7316   5.532   3.600   9.209 -0.8578 -0.1307  0.1048
  814MOL0     O 7317   9.052   1.640   4.639 -0.5043 -0.5151 -0.2257
  814MOL0     C 7318   9.096   1.705   4.540  0.1144  0.2018 -0.6007
  814MOL0     O 7319   9.053   1.829   4.502 -0.0976  0.0966  0.2905
  814MOL0     C 7320   8.932   1.890   4.526  0.1138  0.5722 -1.2098
  814MOL0     C 7321   8.904   2.005   4.463 -0.6648 -1.3826  0.2676
  814MOL0     C 7322   8.780   2.073   4.479  0.7684  0.4687  0.0778
  814MOL0     C 7323   8.674   2.006   4.540  0.6563 -0.1589  0.2328
  814MOL0     O 7324   8.544   2.048   4.558  0.3223  0.6630 -0.6008
  814MOL0     C 7325   8.522   2.173   4.505 -0.5331 -0.4646 -0.3792
  814MOL0     C 7326   8.384   2.228   4.562 -0.2840 -0.3505  0.8420
  814MOL0     C 7327   8.281   2.117   4.576 -0.0688 -0.5690 -0.1126
  814MOL0     C 7328   8.151   2.165   4.615 -0.6480 -0.1344  0.0246
  814MOL0     C 7329   8.037   2.075   4.594  0.3049  0.0177  0.2379
  814MOL0     C 7330   7.904   2.154   4.602  0.6085  0.2114  0.2072
  814MOL0     C 7331   7.795   2.042   4.572  0.6223  0.9401 -0.0220
  814MOL0     C 7332   7.661   2.084   4.518 -0.1982  0.0322  0.1425
  814MOL0     N 7333   7.564   1.968   4.503 -0.2664  0.3270 -0.1848
  814MOL0     C 7334   7.492   1.905   4.602 -0.4378  0.3594 -0.3114
  814MOL0     C 7335   7.443   1.793   4.540  0.4783 -0.2198 -0.3524
  814MOL0     C 7336   7.385   1.674   4.610 -0.9480  0.2682 -0.7848
  814MOL0     C 7337   7.239   1.713   4.639 -0.0520  0.4071 -0.2277
  814MOL0     C 7338   7.154   1.712   4.504  0.5397 -0.1708 -0.4331
  814MOL0     C 7339   7.148   1.592   4.413  0.6559  0.6180  0.2582
  814MOL0     O 7340   7.056   1.616   4.305  0.4887  0.1740 -0.4920
  814MOL0     C 7341   7.081   1.708   4.211 -0.0067 -0.0622 -0.4850
  814MOL0     C 7342   7.200   1.771   4.196 -0.9152 -0.4484  0.3130
  814MOL0     C 7343   7.218   1.873   4.102 -0.2397 -0.4863  0.0382
  814MOL0     C 7344   7.120   1.914   4.008  1.2805 -0.0363 -0.7913
  814MOL0     C 7345   7.139   2.023   3.912 -0.5329  0.1041  0.2978
  814MOL0     O 7346   7.036   2.085   3.864  0.2347  0.5503  0.8493
  814MOL0     C 7347   7.040   2.155   3.743  0.1970 -0.0747 -0.5592
  814MOL0     C 7348   7.152   2.205   3.677  0.4018 -0.3234 -0.8422
  814MOL0     C 7349   7.145   2.289   3.570 -0.0438  0.9463  0.4713
  814MOL0     C 7350   7.024   2.302   3.506  0.4012 -0.0556  0.5447
  814MOL0     O 7351   6.999   2.388   3.404 -0.1728 -0.7580 -0.4969
  814MOL0     C 7352   7.077   2.362   3.289  0.5776 -0.3442 -0.0138
  814MOL0     C 7353   7.026   2.447   3.170  1.0242  0.8094  0.2621
  814MOL0     C 7354   6.876   2.435   3.129  0.6589 -1.1233 -1.0701
  814MOL0     C 7355   6.837   2.308   3.063  0.6416 -0.3286 -0.5160
  814MOL0     C 7356   6.679   2.289   3.046 -0.0358  0.2739 -0.3426
  814MOL0     C 7357   6.645   2.144   2.977 -0.1674 -0.3033  0.2872
  814MOL0     C 7358   6.491   2.132   2.959 -0.0015  1.1139  0.4346
  814MOL0     C 7359   6.465   1.985   2.940 -0.5649 -0.1928 -0.1485
  814MOL0    Cl 7360   6.300   1.969   2.911 -0.0239 -0.0635  0.0134
  814MOL0     C 7361   6.901   2.261   3.575 -0.2465 -0.4240 -0.4849
  814MOL0     C 7362   6.913   2.196   3.699 -1.2666  0.5687 -1.0230
  814MOL0     O 7363   7.256   2.035   3.878  0.3556  0.8420 -0.3116
  814MOL0     C 7364   7.003   1.845   4.024 -0.2650  0.4155  0.0769
  814MOL0     C 7365   6.976   1.744   4.121  0.4598 -0.0596  0.3378
  814MOL0     N 7366   7.489   1.792   4.413  0.7353  0.0682  0.7386
  814MOL0     N 7367   7.551   1.898   4.388 -0.1767 -0.8179  0.1385
  814MOL0     C 7368   8.701   1.883   4.592 -0.5926  0.5125  0.9384
  814MOL0     C 7369   8.827   1.827   4.582  0.3655 -0.1274  0.2419
  814MOL0     C 7370   9.218   1.647   4.475 -0.0621  0.2968  0.4875
  814MOL0     C 7371   9.275   1.524   4.524  0.7766  0.9079  0.4472
  814MOL0     C 7372   9.384   1.469   4.462 -0.8215  0.5483 -0.2803
  814MOL0     C 7373   9.447   1.535   4.356 -0.1624 -0.4576 -0.7430
  814MOL0     O 7374   9.575   1.500   4.312 -0.3202 -0.3284  0.7416
  814MOL0     C 7375   9.665   1.433   4.406  0.4643  0.0559 -0.2076
  814MOL0     C 7376   9.814   1.444   4.371  0.4156 -0.3528 -0.0071
  814MOL0     C 7377   9.898   1.356   4.462 -0.3768 -0.8194 -0.1262
  814MOL0     C 7378  10.044   1.372   4.441 -1.0177  0.6992 -0.9561
  814MOL0     C 7379  10.106   1.256   4.366  1.6888  0.0922 -0.6746
  814MOL0     C 7380  10.144   1.165   4.300 -0.7459 -0.2097 -0.1023
  814MOL0     C 7381   9.384   1.642   4.294 -0.0053  0.2934  0.0925
  814MOL0     C 7382   9.271   1.689   4.354 -0.2032 -0.0377  0.5060
  814MOL0     H 7383   8.978   2.058   4.405 -2.0895 -0.9426 -1.2181
  814MOL0     H 7384   8.764   2.165   4.424  0.6391 -0.0150 -0.7169
  814MOL0     H 7385   8.526   2.174   4.396  1.8458 -0.6209 -0.3509
  814MOL0     H 7386   8.602   2.241   4.535 -0.0909 -0.0668 -2.3191
  814MOL0     H 7387   8.363   2.305   4.487  3.5866 -0.6693 -0.8009
  814MOL0     H 7388   8.395   2.278   4.659  1.1208  3.4676 -1.0435
  814MOL0     H 7389   8.324   2.050   4.652  4.3694  1.8126 -0.1911
  814MOL0     H 7390   8.285   2.066   4.479  2.1832 -3.2086  1.2217
  814MOL0     H 7391   8.163   2.201   4.717  0.7244 -0.0233 -0.1520
  814MOL0     H 7392   8.130   2.261   4.567 -0.2493  0.2876  0.6706
  814MOL0     H 7393   8.032   2.002   4.675  1.9747  0.7578  1.0529
  814MOL0     H 7394   8.035   2.031   4.493  1.6707 -0.6143  0.4616
  814MOL0     H 7395   7.909   2.225   4.519  1.6748  2.0418  1.7452
  814MOL0     H 7396   7.886   2.214   4.692 -2.1712 -0.0855 -0.0678
  814MOL0     H 7397   7.826   1.965   4.500 -1.0577 -1.2854  1.5054
  814MOL0     H 7398   7.768   1.990   4.665 -0.1602 -0.5022 -1.0093
  814MOL0     H 7399   7.675   2.139   4.424 -2.2890  2.2877  1.0514
  814MOL0     H 7400   7.621   2.164   4.580 -1.2977  0.7824 -1.4576
  814MOL0     H 7401   7.503   1.949   4.701  1.8170  1.4038 -0.9526
  814MOL0     H 7402   7.429   1.652   4.708 -2.7210  0.3965  0.0803
  814MOL0     H 7403   7.398   1.579   4.557 -1.4006 -0.2045 -0.0733
  814MOL0     H 7404   7.224   1.809   4.689  2.4777  0.9651 -0.3984
  814MOL0     H 7405   7.187   1.630   4.688 -3.2408  1.6582 -1.2048
  814MOL0     H 7406   7.052   1.750   4.518  0.3955 -0.2488 -1.2702
  814MOL0     H 7407   7.196   1.790   4.440 -2.5676  0.8470 -1.4655
  814MOL0     H 7408   7.116   1.505   4.471  0.9789 -0.9169 -1.7316
  814MOL0     H 7409   7.252   1.581   4.378  0.5288 -0.6244  0.2264
  814MOL0     H 7410   7.290   1.730   4.239 -0.0719 -0.4397 -1.3756
  814MOL0     H 7411   7.320   1.898   4.073 -0.9255  1.1236 -1.1623
  814MOL0     H 7412   7.248   2.199   3.727  1.3602 -1.1890 -2.6506
  814MOL0     H 7413   7.234   2.343   3.541 -2.2610  6.0713  2.0796
  814MOL0     H 7414   7.074   2.255   3.266  1.3328 -0.9821  2.5152
  814MOL0     H 7415   7.182   2.387   3.306  0.0621  1.3824  0.8932
  814MOL0     H 7416   7.083   2.426   3.079 -1.0514 -2.0085 -0.5482
  814MOL0     H 7417   7.044   2.549   3.205 -0.6680  1.3187 -0.2230
  814MOL0     H 7418   6.854   2.514   3.056 -0.1737 -0.5608 -0.2296
  814MOL0     H 7419   6.821   2.441   3.223  0.1894 -3.0314 -1.1806
  814MOL0     H 7420   6.888   2.304   2.967  2.1373  0.6705  0.2050
  814MOL0     H 7421   6.871   2.224   3.125 -0.0067 -0.5116 -0.4026
  814MOL0     H 7422   6.645   2.375   2.988  0.2266 -0.4680 -1.6458
  814MOL0     H 7423   6.628   2.297   3.143  2.7429 -2.9089  1.6348
  814MOL0     H 7424   6.692   2.071   3.044  0.6864  0.9196  1.0678
  814MOL0     H 7425   6.684   2.128   2.876 -1.3194 -1.3539 -0.0103
  814MOL0     H 7426   6.431   2.178   3.038  0.6642  1.5951  0.6688
  814MOL0     H 7427   6.454   2.189   2.874  0.9646 -1.2075 -1.6536
  814MOL0     H 7428   6.503   1.924   3.022  1.2398  1.3678  0.2578
  814MOL0     H 7429   6.521   1.950   2.853  1.0155  1.1834  0.2527
  814MOL0     H 7430   6.807   2.293   3.532 -2.2624 -1.1695  2.9429
  814MOL0     H 7431   6.829   2.173   3.764 -1.9280  1.7059 -1.4484
  814MOL0     H 7432   6.917   1.886   3.972  2.5551  3.2692 -2.8671
  814MOL0     H 7433   6.885   1.689   4.141  0.9828  0.5973  6.5723
  814MOL0     H 7434   8.624   1.831   4.648 -0.0567 -1.4409 -0.0671
  814MOL0     H 7435   8.835   1.732   4.635 -0.7833 -0.7706 -0.7050
  814MOL0     H 7436   9.224   1.481   4.610 -0.7308  0.4832 -0.6092
  814MOL0     H 7437   9.410   1.367   4.489 -1.3611  0.8279  1.3932
  814MOL0     H 7438   9.649   1.325   4.406  1.7362 -0.1542  0.7979
  814MOL0     H 7439   9.647   1.459   4.511  0.4120 -2.8741  0.5917
  814MOL0     H 7440   9.840   1.429   4.265 -0.0776  2.9568 -0.7206
  814MOL0     H 7441   9.832   1.551   4.388  2.8354 -0.4460 -1.4858
  814MOL0     H 7442   9.867   1.252   4.447 -3.9507  0.3839 -2.1636
  814MOL0     H 7443   9.873   1.376   4.567  1.1733  1.8304 -0.1645
  814MOL0     H 7444  10.076   1.459   4.384  2.1742  0.8041  0.7524
  814MOL0     H 7445  10.089   1.378   4.541  0.9311 -0.6264 -1.6918
  814MOL0     H 7446  10.181   1.076   4.254  3.8713  0.9541  0.8410
  814MOL0     H 7447   9.441   1.675   4.207  1.2920 -1.0062  0.4120
  814MOL0     H 7448   9.218   1.762   4.295  3.0849  0.3320 -2.3018
  815MOL0     O 7449   4.119   1.972   1.421 -0.3824 -0.0848 -0.9404
  815MOL0     C 7450   4.207   2.050   1.421 -0.3985 -0.8743  0.4194
  815MOL0     O 7451   4.214   2.167   1.505  0.5773  0.2465 -0.7783
  815MOL0     C 7452   4.136   2.182   1.610  0.8456 -0.0067 -0.7898
  815MOL0     C 7453   4.102   2.086   1.706  0.7795 -0.1634 -0.0068
  815MOL0     C 7454   4.019   2.110   1.816 -0.0596 -0.4979 -0.5779
  815MOL0     C 7455   3.978   2.240   1.837  0.4481  0.6999 -0.1299
  815MOL0     O 7456   3.916   2.268   1.962  0.4700  0.1938  1.1603
  815MOL0     C 7457   3.872   2.405   1.978 -0.2997  0.3889  0.6087
  815MOL0     C 7458   3.779   2.428   2.090  0.7619  1.1370 -0.3517
  815MOL0     C 7459   3.731   2.573   2.100  0.3818  0.1297 -0.5022
  815MOL0     C 7460   3.827   2.656   2.184  0.2350  0.2912  0.3761
  815MOL0     C 7461   3.784   2.805   2.179  0.1433  0.1384 -0.1298
  815MOL0     C 7462   3.641   2.820   2.229  0.1509 -0.6072 -0.1177
  815MOL0     C 7463   3.626   2.958   2.294 -0.3207 -0.5593  0.7113
  815MOL0     C 7464   3.721   2.966   2.417  0.5611  0.8826  0.6217
  815MOL0     N 7465   3.668   3.041   2.533  0.8022  0.0527  0.6755
  815MOL0     C 7466   3.551   3.023   2.605  0.8431 -0.9191 -0.9301
  815MOL0     C 7467   3.560   3.110   2.701  0.1781  0.3242 -0.3244
  815MOL0     C 7468   3.466   3.123   2.817 -0.2043 -0.2001 -0.9276
  815MOL0     C 7469   3.460   2.993   2.893  1.2747  0.8680 -0.2355
  815MOL0     C 7470   3.371   3.008   3.017  0.8234 -0.7775 -0.0209
  815MOL0     C 7471   3.343   2.871   3.074  0.4266 -0.1060  0.0006
  815MOL0     O 7472   3.472   2.826   3.126 -0.4863 -1.1247 -0.5059
  815MOL0     C 7473   3.471   2.699   3.170  0.0047 -0.1940 -0.3513
  815MOL0     C 7474   3.377   2.602   3.142  0.8968 -0.3699  0.2584
  815MOL0     C 7475   3.389   2.474   3.184 -0.1103  1.1217 -0.3334
  815MOL0     C 7476   3.492   2.430   3.257  0.2564  0.3546 -0.4797
  815MOL0     C 7477   3.516   2.288   3.302  0.6703  0.4773 -0.1316
  815MOL0     O 7478   3.448   2.196   3.234 -0.1549  0.4002 -0.7928
  815MOL0     C 7479   3.421   2.073   3.291 -0.1465 -0.7509  0.0836
  815MOL0     C 7480   3.429   2.022   3.421 -0.3140  0.1704 -0.8239
  815MOL0     C 7481   3.396   1.894   3.458  0.8208 -0.1602  0.2923
  815MOL0     C 7482   3.336   1.803   3.369  0.1156 -0.1459 -0.0476
  815MOL0     O 7483   3.301   1.692   3.422 -0.1449  0.0615 -0.2399
  815MOL0     C 7484   3.167   1.652   3.391  0.6250  0.9226 -0.6687
  815MOL0     C 7485   3.104   1.546   3.481 -0.3299  0.1614  0.7392
  815MOL0     C 7486   3.132   1.593   3.624  0.0857 -0.0498  0.2756
  815MOL0     C 7487   3.086   1.490   3.734  0.7263 -0.2600 -0.7957
  815MOL0     C 7488   3.117   1.540   3.867 -0.1446 -0.4310  0.7130
  815MOL0     C 7489   3.026   1.496   3.977  0.7301 -0.0375 -0.8051
  815MOL0     C 7490   3.036   1.567   4.109 -0.9973 -0.0570 -0.2331
  815MOL0     C 7491   2.987   1.712   4.107 -0.1124 -0.0556 -0.2163
  815MOL0    Cl 7492   2.813   1.728   4.086 -0.1491  0.6907 -0.2247
  815MOL0     C 7493   3.308   1.859   3.237 -0.5830  0.0257  0.2896
  815MOL0     C 7494   3.351   1.989   3.205  0.8318  0.0847  0.2036
  815MOL0     O 7495   3.596   2.275   3.394 -0.4432  0.5383 -0.1199
  815MOL0     C 7496   3.597   2.525   3.277  0.2253 -0.6360 -0.5253
  815MOL0     C 7497   3.588   2.659   3.233 -0.9828  0.8528 -0.0962
  815MOL0     N 7498   3.679   3.178   2.699  0.0482  0.6267 -0.3343
  815MOL0     N 7499   3.737   3.146   2.586 -0.1497  0.1800 -0.5456
  815MOL0     C 7500   4.019   2.344   1.743 -0.0196 -0.9613  0.2694
  815MOL0     C 7501   4.089   2.314   1.627 -0.8856 -0.0756 -0.4541
  815MOL0     C 7502   4.324   2.021   1.330  0.2766 -0.0153  0.7592
  815MOL0     C 7503   4.437   2.107   1.327  0.5639  0.3850  0.7493
  815MOL0     C 7504   4.537   2.087   1.231  0.0987  0.1560  0.2064
  815MOL0     C 7505   4.530   1.969   1.149  0.3987  0.6104  0.1729
  815MOL0     O 7506   4.625   1.954   1.049  0.1767 -0.3703  0.1378
  815MOL0     C 7507   4.602   1.908   0.923 -0.1301  0.2916  0.2856
  815MOL0     C 7508   4.736   1.898   0.849  1.3165 -0.3165  0.0737
  815MOL0     C 7509   4.716   1.795   0.735  0.8864 -0.2461  0.8045
  815MOL0     C 7510   4.825   1.809   0.628 -0.2115  0.2063  0.0025
  815MOL0     C 7511   4.858   1.944   0.578 -0.1004 -0.1172 -0.6676
  815MOL0     C 7512   4.895   2.044   0.531  1.0823 -0.3101  0.2340
  815MOL0     C 7513   4.427   1.880   1.162  0.4052 -0.0124 -0.9076
  815MOL0     C 7514   4.323   1.907   1.254  0.6153 -0.2629  0.4248
  815MOL0     H 7515   4.163   1.997   1.693  4.8663  2.3136  0.1587
  815MOL0     H 7516   4.008   2.040   1.899 -0.3227  0.0232 -0.1687
  815MOL0     H 7517   3.814   2.421   1.886  0.5999 -3.9058 -0.9138
  815MOL0     H 7518   3.954   2.476   1.997 -3.2314  3.1714  4.4430
  815MOL0     H 7519   3.815   2.387   2.185 -0.8360 -1.1270 -0.6390
  815MOL0     H 7520   3.693   2.367   2.061  3.3108 -3.0136  0.0828
  815MOL0     H 7521   3.637   2.566   2.156  0.8323  2.2296  0.6100
  815MOL0     H 7522   3.721   2.621   2.002 -0.8282  0.4936 -0.2159
  815MOL0     H 7523   3.808   2.610   2.281 -0.4263  0.3456  0.2762
  815MOL0     H 7524   3.931   2.640   2.151 -0.2123 -3.1120  0.2378
  815MOL0     H 7525   3.792   2.834   2.074  0.5962  0.2496 -0.0670
  815MOL0     H 7526   3.863   2.868   2.220  1.3106  0.5557 -2.8019
  815MOL0     H 7527   3.616   2.745   2.306  1.0851 -1.3820 -0.5429
  815MOL0     H 7528   3.569   2.804   2.149 -1.6999  2.9244  0.6528
  815MOL0     H 7529   3.654   3.040   2.227  0.9797 -1.4047  0.1760
  815MOL0     H 7530   3.525   2.977   2.332  0.7673  0.6407  3.2523
  815MOL0     H 7531   3.806   3.030   2.389  0.1899  1.8184  1.5475
  815MOL0     H 7532   3.752   2.866   2.446  1.0176  0.1570 -2.0677
  815MOL0     H 7533   3.465   2.957   2.610  0.6538 -0.8394 -2.5958
  815MOL0     H 7534   3.370   3.151   2.773 -0.7023  0.3561  0.4464
  815MOL0     H 7535   3.493   3.199   2.891 -2.0665  0.0383 -0.4495
  815MOL0     H 7536   3.560   2.965   2.928  1.1691 -1.1602 -1.3638
  815MOL0     H 7537   3.437   2.903   2.835  2.4916 -0.1055  0.7122
  815MOL0     H 7538   3.418   3.078   3.085  2.1546 -2.2980  0.6958
  815MOL0     H 7539   3.277   3.061   2.998  2.5543  2.0973 -1.2033
  815MOL0     H 7540   3.305   2.823   2.984 -0.0374 -0.0693  0.1762
  815MOL0     H 7541   3.261   2.870   3.146 -0.6355 -0.0184 -1.1676
  815MOL0     H 7542   3.286   2.636   3.093 -2.6031 -1.5978  5.1661
  815MOL0     H 7543   3.324   2.392   3.156 -0.1395  0.6272  1.0985
  815MOL0     H 7544   3.465   2.088   3.499  0.6492 -1.2250 -0.0552
  815MOL0     H 7545   3.418   1.858   3.558 -0.2284  0.7661  0.8833
  815MOL0     H 7546   3.171   1.608   3.291  4.4741 -2.4567  0.6926
  815MOL0     H 7547   3.099   1.737   3.402 -1.7698 -1.1371  1.5601
  815MOL0     H 7548   3.161   1.456   3.458 -1.0078 -0.1082  0.1154
  815MOL0     H 7549   2.998   1.524   3.469 -0.1675 -0.7500  0.9218
  815MOL0     H 7550   3.102   1.696   3.648  3.8296  0.9820  1.2209
  815MOL0     H 7551   3.240   1.589   3.641  0.1443 -2.4905 -0.3622
  815MOL0     H 7552   2.978   1.476   3.722  0.7824  0.6067 -2.7350
  815MOL0     H 7553   3.120   1.388   3.720 -2.4487 -1.4763 -0.4768
  815MOL0     H 7554   3.124   1.649   3.863  2.4668 -0.5237  1.2936
  815MOL0     H 7555   3.219   1.510   3.893 -0.5092 -1.3703  1.1330
  815MOL0     H 7556   3.053   1.391   3.996 -1.6286 -0.3779  1.0893
  815MOL0     H 7557   2.923   1.499   3.940 -0.1874  0.8617  1.6451
  815MOL0     H 7558   2.978   1.513   4.185  1.5164  0.9197  2.5761
  815MOL0     H 7559   3.141   1.558   4.136 -1.0958  0.9963  0.5291
  815MOL0     H 7560   3.041   1.779   4.040 -1.0350  1.3277  0.3779
  815MOL0     H 7561   3.008   1.775   4.195  0.9869  0.7620 -1.0451
  815MOL0     H 7562   3.245   1.809   3.165 -1.2744  1.1772  0.0730
  815MOL0     H 7563   3.319   2.032   3.111 -0.0524  0.2032  0.5442
  815MOL0     H 7564   3.693   2.501   3.320 -0.9653 -1.0073  2.1595
  815MOL0     H 7565   3.674   2.725   3.242 -0.2727 -0.1880  0.8407
  815MOL0     H 7566   3.988   2.448   1.745 -1.2395 -1.2898  3.2677
  815MOL0     H 7567   4.113   2.374   1.540 -1.7822 -0.7257 -1.1728
  815MOL0     H 7568   4.441   2.196   1.389  1.4005 -1.0315  2.8292
  815MOL0     H 7569   4.617   2.160   1.223  2.3103 -2.3326 -4.5975
  815MOL0     H 7570   4.539   1.982   0.873 -0.4273  0.7630  1.3402
  815MOL0     H 7571   4.557   1.809   0.936  1.8040 -0.8476 -1.0724
  815MOL0     H 7572   4.753   2.003   0.822 -0.7616 -0.0155 -0.1846
  815MOL0     H 7573   4.811   1.872   0.925  0.6000 -0.8835  0.6041
  815MOL0     H 7574   4.619   1.795   0.685  0.7295 -5.3980  0.5456
  815MOL0     H 7575   4.725   1.695   0.779  0.7888  0.7602  3.2825
  815MOL0     H 7576   4.918   1.777   0.676 -0.1843  0.7697  0.3329
  815MOL0     H 7577   4.810   1.741   0.543 -1.8290  0.2344  0.2227
  815MOL0     H 7578   4.927   2.139   0.493  0.3148 -0.5197 -0.9830
  815MOL0     H 7579   4.418   1.792   1.098 -0.0847  0.5986 -1.7080
  815MOL0     H 7580   4.241   1.837   1.265 -0.6654  0.7691 -1.8799
  816MOL0     O 7581   2.379   9.218   7.976  0.2667  1.1084 -0.4245
  816MOL0     C 7582   2.299   9.124   7.961 -0.0761 -0.3061  0.5652
  816MOL0     O 7583   2.303   8.995   8.004 -0.5289  0.0977 -1.0699
  816MOL0     C 7584   2.387   8.961   8.105  0.0555  0.6119  0.4209
  816MOL0     C 7585   2.336   8.916   8.225  0.7574 -0.2863 -0.2201
  816MOL0     C 7586   2.416   8.867   8.328  0.1558  0.1269  0.1298
  816MOL0     C 7587   2.555   8.873   8.313  0.5528 -0.0642 -0.1184
  816MOL0     O 7588   2.628   8.825   8.425  0.2193  0.0811  0.4599
  816MOL0     C 7589   2.755   8.772   8.406 -0.1825 -1.1115  0.3051
  816MOL0     C 7590   2.818   8.719   8.525  0.2474 -0.3443 -0.2555
  816MOL0     C 7591   2.845   8.832   8.628  0.2934  0.5623 -0.7424
  816MOL0     C 7592   2.915   8.793   8.751 -0.3839  0.3457  0.3077
  816MOL0     C 7593   2.812   8.760   8.872 -1.1131 -0.6195  0.1467
  816MOL0     C 7594   2.867   8.654   8.968 -0.1460  0.5410  0.1513
  816MOL0     C 7595   2.980   8.703   9.063  0.4758 -0.2104  0.3212
  816MOL0     C 7596   2.957   8.827   9.152  0.5405  0.7223  0.0758
  816MOL0     N 7597   3.089   8.870   9.208  0.2537  0.0733  0.2425
  816MOL0     C 7598   3.113   8.951   9.318  0.2244  0.0478  0.4887
  816MOL0     C 7599   3.252   8.966   9.323 -0.8808 -0.1291 -0.1955
  816MOL0     C 7600   3.331   9.050   9.427  0.7211 -0.5992 -0.6971
  816MOL0     C 7601   3.367   8.972   9.550 -0.0135  0.2030 -0.1715
  816MOL0     C 7602   3.254   8.921   9.632  0.6956 -0.8980 -0.6534
  816MOL0     C 7603   3.180   9.033   9.723 -1.4798  0.1995 -0.2635
  816MOL0     O 7604   3.073   9.093   9.650 -0.1815 -0.6586 -0.2197
  816MOL0     C 7605   2.965   9.134   9.718 -0.0423 -0.2874 -0.6831
  816MOL0     C 7606   2.842   9.083   9.687  0.1164  0.2847 -0.7325
  816MOL0     C 7607   2.721   9.129   9.752  0.0329  0.0248 -0.2712
  816MOL0     C 7608   2.725   9.242   9.842  0.0520 -0.0773  0.2316
  816MOL0     C 7609   2.610   9.304   9.906  0.3363  0.0556 -0.3660
  816MOL0     O 7610   2.623   9.392  10.014 -0.4133 -0.3368  0.0780
  816MOL0     C 7611   2.512   9.404  10.096 -0.3854  0.5055  0.2221
  816MOL0     C 7612   2.486   9.318  10.205 -0.9715 -1.4479  0.0900
  816MOL0     C 7613   2.369   9.332  10.281 -0.1955 -0.0117 -0.8750
  816MOL0     C 7614   2.281   9.432  10.260  0.4729 -0.8508  0.5546
  816MOL0     O 7615   2.181   9.435  10.352 -0.0114  0.4299  0.0244
  816MOL0     C 7616   2.057   9.506  10.316 -1.1555 -0.3021  0.1480
  816MOL0     C 7617   2.038   9.652  10.379  0.5151  0.3558 -0.4941
  816MOL0     C 7618   2.032   9.645  10.541 -0.2417 -0.9285 -0.4600
  816MOL0     C 7619   2.033   9.787  10.600 -0.1826  0.1081  0.8844
  816MOL0     C 7620   1.968   9.791  10.736  0.0656  0.2364 -0.7089
  816MOL0     C 7621   1.993   9.924  10.791 -0.4455 -0.3222 -0.3864
  816MOL0     C 7622   1.901   9.942  10.915  1.2266  0.4318  0.2097
  816MOL0     C 7623   1.920  10.087  10.983 -0.0473  0.3649 -0.6499
  816MOL0    Cl 7624   1.883  10.226  10.875 -0.2328 -0.6188  0.6766
  816MOL0     C 7625   2.309   9.524  10.156  0.8667 -0.3393 -0.2571
  816MOL0     C 7626   2.419   9.501  10.075 -0.6169 -0.4078 -1.1611
  816MOL0     O 7627   2.505   9.250   9.870  0.7484 -0.0206  0.4154
  816MOL0     C 7628   2.854   9.298   9.864 -0.1203  0.0413 -0.1453
  816MOL0     C 7629   2.971   9.248   9.802 -0.6585  0.1794 -0.6808
  816MOL0     N 7630   3.307   8.888   9.220 -0.1295  0.2192 -0.1330
  816MOL0     N 7631   3.204   8.845   9.160 -0.3859  0.0199 -0.0561
  816MOL0     C 7632   2.607   8.916   8.200  0.4991 -0.4029 -0.1012
  816MOL0     C 7633   2.529   8.956   8.091  0.3592 -0.5364  0.0624
  816MOL0     C 7634   2.182   9.170   7.878  0.1522 -0.5804  0.0462
  816MOL0     C 7635   2.076   9.086   7.842  1.3452 -0.3764 -0.8280
  816MOL0     C 7636   1.970   9.120   7.757  0.1318 -0.3174 -0.0438
  816MOL0     C 7637   1.974   9.252   7.707  0.8581  0.3018 -0.0840
  816MOL0     O 7638   1.865   9.291   7.631 -0.3225  0.3985 -0.2196
  816MOL0     C 7639   1.833   9.438   7.630 -0.4257  0.4626  0.4024
  816MOL0     C 7640   1.693   9.466   7.587 -0.1337 -0.5191  0.5128
  816MOL0     C 7641   1.595   9.432   7.702  0.3676 -0.2143 -0.5656
  816MOL0     C 7642   1.454   9.481   7.676 -0.2428  0.5792  0.6255
  816MOL0     C 7643   1.396   9.402   7.565 -0.4861  0.1461  0.1712
  816MOL0     C 7644   1.345   9.328   7.486 -0.4536 -0.2748 -0.4583
  816MOL0     C 7645   2.067   9.337   7.757  0.1078  0.2444  1.0269
  816MOL0     C 7646   2.172   9.298   7.837 -0.4815  0.2739 -0.5897
  816MOL0     H 7647   2.227   8.914   8.227  0.7788 -1.4449  0.6998
  816MOL0     H 7648   2.358   8.842   8.416 -0.5938  0.5636 -0.2227
  816MOL0     H 7649   2.825   8.850   8.375  0.1810 -1.8421 -0.7843
  816MOL0     H 7650   2.748   8.698   8.326 -5.2819 -0.5740 -0.1260
  816MOL0     H 7651   2.903   8.657   8.496 -1.5059 -3.2644  0.3883
  816MOL0     H 7652   2.749   8.644   8.564  2.8318 -2.5629  0.3758
  816MOL0     H 7653   2.744   8.863   8.655 -1.5513 -2.0204 -3.9312
  816MOL0     H 7654   2.894   8.907   8.564 -1.9961  1.3762 -1.6287
  816MOL0     H 7655   2.975   8.706   8.726  0.9067  1.6198 -1.2411
  816MOL0     H 7656   2.989   8.870   8.774  0.2954 -0.5308  1.1221
  816MOL0     H 7657   2.721   8.728   8.822 -0.8482 -0.7709 -0.2440
  816MOL0     H 7658   2.783   8.850   8.926  2.3311  2.1566 -2.1648
  816MOL0     H 7659   2.908   8.578   8.901  0.8634  1.6005 -0.4709
  816MOL0     H 7660   2.785   8.621   9.032 -2.3784  0.6018 -2.5171
  816MOL0     H 7661   2.984   8.622   9.136 -2.9685  1.4433  2.6556
  816MOL0     H 7662   3.076   8.715   9.012 -1.0156 -0.3259 -2.8008
  816MOL0     H 7663   2.892   8.804   9.238 -0.6090  3.8574  0.1849
  816MOL0     H 7664   2.915   8.908   9.091  1.4805  2.2972  1.4213
  816MOL0     H 7665   3.033   8.989   9.381 -0.9819  0.2407 -1.0775
  816MOL0     H 7666   3.273   9.136   9.462 -0.2715 -2.2252  1.9861
  816MOL0     H 7667   3.425   9.087   9.384  0.0977  2.4905  0.3408
  816MOL0     H 7668   3.423   9.037   9.618  0.9212 -0.2884 -0.4618
  816MOL0     H 7669   3.426   8.885   9.522 -1.1529 -0.9764  0.9532
  816MOL0     H 7670   3.174   8.864   9.582  0.5297 -1.8590  0.6653
  816MOL0     H 7671   3.296   8.846   9.699  2.4724 -0.1585 -0.8834
  816MOL0     H 7672   3.253   9.105   9.759 -1.8589 -0.9825  3.1709
  816MOL0     H 7673   3.144   8.975   9.808 -1.1705 -0.7074 -0.7420
  816MOL0     H 7674   2.839   9.007   9.610 -2.6710  0.9310 -1.3715
  816MOL0     H 7675   2.627   9.077   9.732  0.9859 -1.4817 -1.0882
  816MOL0     H 7676   2.557   9.241  10.233 -0.8974 -1.3191  0.2610
  816MOL0     H 7677   2.350   9.250  10.350 -1.9514  0.1401 -1.1486
  816MOL0     H 7678   1.976   9.444  10.356 -1.9301 -0.3730 -1.4236
  816MOL0     H 7679   2.053   9.501  10.207  0.1413  0.1761  0.0666
  816MOL0     H 7680   1.942   9.693  10.346 -0.2766 -0.8567  0.2312
  816MOL0     H 7681   2.096   9.734  10.334 -3.0878  1.8757 -2.7805
  816MOL0     H 7682   2.105   9.571  10.574 -1.7560 -2.6479 -0.7971
  816MOL0     H 7683   1.934   9.600  10.554 -0.8939  0.7362  0.7675
  816MOL0     H 7684   2.139   9.806  10.619  0.8094 -1.2225 -2.5020
  816MOL0     H 7685   1.982   9.864  10.541 -0.7636  0.2088  1.5040
  816MOL0     H 7686   2.006   9.707  10.794  2.7563  1.3603 -0.6795
  816MOL0     H 7687   1.862   9.763  10.734  0.1676 -0.2160 -0.0421
  816MOL0     H 7688   1.965  10.003  10.720  0.9869  1.4982  0.9641
  816MOL0     H 7689   2.099   9.940  10.812 -1.3079 -0.0230  5.3570
  816MOL0     H 7690   1.799   9.939  10.876  0.8396  4.3904  0.5084
  816MOL0     H 7691   1.925   9.858  10.981  1.5726 -0.0471 -0.5036
  816MOL0     H 7692   2.025  10.105  11.009  0.5224 -1.3417 -1.5839
  816MOL0     H 7693   1.862  10.104  11.074 -1.1285  1.3241 -1.5080
  816MOL0     H 7694   2.248   9.613  10.141 -0.2363 -0.1452  4.0930
  816MOL0     H 7695   2.413   9.558   9.983 -1.9750 -2.2764 -2.3130
  816MOL0     H 7696   2.860   9.377   9.939 -2.3705  0.8659 -0.7542
  816MOL0     H 7697   3.062   9.297   9.836 -1.2969 -1.4002  4.0525
  816MOL0     H 7698   2.713   8.941   8.199 -0.6323  6.2977  0.5052
  816MOL0     H 7699   2.568   9.004   8.002 -1.2470  0.6730 -0.0473
  816MOL0     H 7700   2.079   8.982   7.870 -0.2062 -0.7202 -1.7809
  816MOL0     H 7701   1.890   9.054   7.726 -1.0229  2.4906 -3.8122
  816MOL0     H 7702   1.897   9.486   7.556 -1.3049  3.7787  1.6059
  816MOL0     H 7703   1.851   9.495   7.722  1.7218  0.7868 -0.1512
  816MOL0     H 7704   1.687   9.566   7.545 -2.6995 -1.4810 -1.7013
  816MOL0     H 7705   1.672   9.405   7.499  5.8768 -1.1742 -0.8536
  816MOL0     H 7706   1.631   9.479   7.794 -0.1071  0.5278 -0.7488
  816MOL0     H 7707   1.586   9.325   7.726 -1.2473  0.3202  1.4962
  816MOL0     H 7708   1.400   9.487   7.771  0.5649  0.5458  1.0989
  816MOL0     H 7709   1.463   9.581   7.634 -1.0311  0.5153  0.2862
  816MOL0     H 7710   1.297   9.244   7.439  1.6692 -1.3297 -0.8510
  816MOL0     H 7711   2.066   9.437   7.714  0.1734 -0.1995 -0.0294
  816MOL0     H 7712   2.252   9.371   7.852  0.5214 -1.3565  3.3350
  817MOL0     O 7713   9.420   7.529   4.140  0.1243 -0.3714 -0.5880
  817MOL0     C 7714   9.435   7.423   4.076  0.0364  1.0359 -0.7279
  817MOL0     O 7715   9.534   7.334   4.091 -0.3810  0.2276 -0.8161
  817MOL0     C 7716   9.658   7.385   4.139  1.1151  0.1504  0.5618
  817MOL0     C 7717   9.714   7.335   4.260  0.2841  0.8722  0.9644
  817MOL0     C 7718   9.834   7.383   4.305 -0.4338 -0.8441 -0.0720
  817MOL0     C 7719   9.910   7.477   4.233  0.0289 -0.9174 -0.1226
  817MOL0     O 7720  10.026   7.516   4.292  0.2415 -0.6285  0.5800
  817MOL0     C 7721  10.096   7.635   4.248  0.8973 -0.3682 -0.2183
  817MOL0     C 7722  10.212   7.661   4.336  0.5979  1.5059  0.0326
  817MOL0     C 7723  10.159   7.685   4.475 -0.5923 -1.1600  0.1599
  817MOL0     C 7724  10.274   7.729   4.560 -0.7204  0.2810  0.9560
  817MOL0     C 7725  10.392   7.624   4.563 -0.3844  0.6538 -0.9193
  817MOL0     C 7726  10.484   7.662   4.678 -0.1045 -0.0842 -0.6848
  817MOL0     C 7727  10.608   7.576   4.714  0.3405  0.1180 -0.5923
  817MOL0     C 7728  10.733   7.638   4.645  0.3538 -0.9442  0.1998
  817MOL0     N 7729  10.851   7.550   4.670  0.0654  0.1051 -0.5912
  817MOL0     C 7730  10.922   7.545   4.788  0.5812 -0.6929  0.2346
  817MOL0     C 7731  11.007   7.443   4.777 -0.1651 -0.6419  0.3870
  817MOL0     C 7732  11.103   7.394   4.886  0.3433  0.4645 -0.7877
  817MOL0     C 7733  11.103   7.240   4.909 -0.5276 -0.0907  0.1436
  817MOL0     C 7734  10.972   7.176   4.938 -0.2437 -0.6529 -1.0407
  817MOL0     C 7735  10.983   7.028   4.974 -0.3543 -0.4572 -0.2645
  817MOL0     O 7736  11.092   6.951   4.914 -0.1724 -0.4702  0.5939
  817MOL0     C 7737  11.125   6.827   4.966 -0.9294  0.6110  0.0092
  817MOL0     C 7738  11.095   6.770   5.096  0.0966  0.2379  0.5848
  817MOL0     C 7739  11.158   6.647   5.137  0.6218  0.0489  1.0641
  817MOL0     C 7740  11.231   6.571   5.053  0.4939  0.6114 -0.4710
  817MOL0     C 7741  11.279   6.441   5.098 -0.4070  0.4079 -0.4183
  817MOL0     O 7742  11.363   6.377   5.011 -0.4643 -0.1118  0.3979
  817MOL0     C 7743  11.454   6.280   5.054  0.1030 -1.2572  0.2219
  817MOL0     C 7744  11.423   6.148   5.052  0.4594  0.2597 -0.8189
  817MOL0     C 7745  11.524   6.054   5.097 -0.0565  0.3045  0.9214
  817MOL0     C 7746  11.639   6.095   5.156 -0.4337 -0.0175 -0.3846
  817MOL0     O 7747  11.717   5.993   5.211 -0.3913 -0.3725 -0.6167
  817MOL0     C 7748  11.850   5.996   5.175 -0.8147 -0.0194  0.1301
  817MOL0     C 7749  11.881   5.851   5.157  0.0329  0.4851  0.3381
  817MOL0     C 7750  12.020   5.844   5.089 -0.8799  0.0528 -0.0835
  817MOL0     C 7751  12.042   5.709   5.030 -0.1927  0.4813 -0.1413
  817MOL0     C 7752  12.178   5.676   4.970 -0.1459 -1.1865  0.6835
  817MOL0     C 7753  12.296   5.663   5.062 -0.4544  0.9906 -0.9723
  817MOL0     C 7754  12.281   5.530   5.147  0.2934  1.2872  0.1205
  817MOL0     C 7755  12.397   5.423   5.159  0.5370 -0.9188  0.8447
  817MOL0    Cl 7756  12.548   5.518   5.191  0.3401 -0.1644 -0.2969
  817MOL0     C 7757  11.676   6.226   5.156  0.5626 -1.4168  1.0485
  817MOL0     C 7758  11.587   6.325   5.103 -0.7967 -0.4870  0.6429
  817MOL0     O 7759  11.265   6.403   5.213  0.2713  0.3253 -0.4869
  817MOL0     C 7760  11.259   6.622   4.926 -0.3015  0.1192 -0.0529
  817MOL0     C 7761  11.207   6.740   4.878  1.3810 -0.6285  0.3468
  817MOL0     N 7762  10.987   7.388   4.648 -1.1536 -0.0209  1.0264
  817MOL0     N 7763  10.904   7.464   4.580  0.4950 -0.2132  0.3843
  817MOL0     C 7764   9.851   7.533   4.117 -0.0534 -0.7394 -0.4953
  817MOL0     C 7765   9.723   7.495   4.076  0.2510  0.0172 -0.1114
  817MOL0     C 7766   9.321   7.383   3.989 -0.1717  1.0388  0.4091
  817MOL0     C 7767   9.194   7.448   3.986  0.4743 -0.2249 -0.8830
  817MOL0     C 7768   9.104   7.392   3.901  0.5718 -1.1877  1.1914
  817MOL0     C 7769   9.123   7.278   3.829 -0.0254 -0.3096  0.4981
  817MOL0     O 7770   9.026   7.222   3.751 -0.6147  0.9876 -0.7938
  817MOL0     C 7771   8.911   7.294   3.702  0.6124 -0.1930  0.6974
  817MOL0     C 7772   8.826   7.187   3.626  0.7215  0.1703  0.7453
  817MOL0     C 7773   8.675   7.212   3.616 -0.7600  0.1798  0.3209
  817MOL0     C 7774   8.596   7.085   3.578 -0.3517  0.7616  0.4035
  817MOL0     C 7775   8.451   7.097   3.573  1.1364  1.6810 -0.2032
  817MOL0     C 7776   8.327   7.104   3.591 -1.1107  0.1423 -1.0688
  817MOL0     C 7777   9.243   7.206   3.847 -0.9887  0.4081  0.3935
  817MOL0     C 7778   9.347   7.259   3.924 -1.0199  1.3336  0.1280
  817MOL0     H 7779   9.658   7.272   4.328 -3.7319  1.8895 -1.1132
  817MOL0     H 7780   9.875   7.348   4.399  0.7915 -0.4040 -0.4257
  817MOL0     H 7781  10.031   7.723   4.254 -0.7067 -1.5729  1.1151
  817MOL0     H 7782  10.132   7.634   4.145  1.1795 -0.3080 -0.1207
  817MOL0     H 7783  10.271   7.745   4.298 -0.9070  1.1042 -3.6267
  817MOL0     H 7784  10.275   7.572   4.337 -0.1507  0.8676  3.7019
  817MOL0     H 7785  10.110   7.599   4.522  2.1931 -3.2844 -0.5620
  817MOL0     H 7786  10.088   7.768   4.464 -1.6057 -2.1383 -0.9690
  817MOL0     H 7787  10.311   7.828   4.532  1.3686 -1.5043 -3.6214
  817MOL0     H 7788  10.240   7.726   4.664  1.5041 -0.9894  1.7160
  817MOL0     H 7789  10.452   7.617   4.472 -0.3314 -2.3006 -0.7497
  817MOL0     H 7790  10.351   7.523   4.576  1.1724  0.1784  0.8751
  817MOL0     H 7791  10.433   7.651   4.774  1.9314 -0.8641  0.3671
  817MOL0     H 7792  10.520   7.766   4.673 -0.0724 -0.1118 -1.0298
  817MOL0     H 7793  10.623   7.586   4.822  0.9669 -0.1916 -0.6470
  817MOL0     H 7794  10.598   7.471   4.686  1.5083 -0.4048  0.8555
  817MOL0     H 7795  10.740   7.735   4.694  0.0818  0.2550 -1.9954
  817MOL0     H 7796  10.729   7.647   4.536  1.5603 -1.3849  0.1073
  817MOL0     H 7797  10.916   7.604   4.878  2.5971 -1.5671  0.9984
  817MOL0     H 7798  11.061   7.437   4.978  0.1606  1.1492 -1.1844
  817MOL0     H 7799  11.204   7.436   4.879  0.6041 -0.1990 -1.1076
  817MOL0     H 7800  11.171   7.221   4.993 -0.9081  0.6102  0.6196
  817MOL0     H 7801  11.156   7.191   4.826 -1.4769 -0.8928 -0.0009
  817MOL0     H 7802  10.928   7.233   5.020 -0.3350 -0.1323 -1.4496
  817MOL0     H 7803  10.907   7.186   4.850 -0.9188  0.5201 -0.4246
  817MOL0     H 7804  10.893   6.981   4.934  1.1252 -2.5430 -1.3055
  817MOL0     H 7805  10.987   7.023   5.083  0.5004  0.5356 -0.2326
  817MOL0     H 7806  11.029   6.824   5.163 -1.4870  0.2282 -0.8910
  817MOL0     H 7807  11.126   6.620   5.238 -1.7296 -0.8619  0.1499
  817MOL0     H 7808  11.325   6.120   5.015 -0.2601 -0.5099  1.4937
  817MOL0     H 7809  11.500   5.949   5.089 -1.8294  0.7288  0.1552
  817MOL0     H 7810  11.909   6.035   5.259 -2.5982  0.2577  1.3145
  817MOL0     H 7811  11.854   6.049   5.080 -0.7143 -0.7643 -0.2884
  817MOL0     H 7812  11.798   5.813   5.095 -2.5381 -0.2690  3.9267
  817MOL0     H 7813  11.901   5.796   5.249  6.1594 -0.7266 -1.2789
  817MOL0     H 7814  12.100   5.861   5.162  1.4438  0.6077 -2.6199
  817MOL0     H 7815  12.046   5.919   5.013  0.1792  1.6585  1.7626
  817MOL0     H 7816  12.006   5.636   5.103 -1.3251  2.2094  1.1248
  817MOL0     H 7817  11.975   5.691   4.946 -1.0169 -1.1700  0.8259
  817MOL0     H 7818  12.196   5.759   4.901 -0.4506 -0.4753  1.4522
  817MOL0     H 7819  12.166   5.587   4.907  1.7930 -0.5382 -0.6872
  817MOL0     H 7820  12.318   5.752   5.121  3.4922  1.0711 -2.2570
  817MOL0     H 7821  12.382   5.640   4.999  1.6485  1.1978  1.6516
  817MOL0     H 7822  12.282   5.559   5.253  1.2799 -0.5382  0.6621
  817MOL0     H 7823  12.191   5.475   5.121  0.2263  0.6707  1.5512
  817MOL0     H 7824  12.401   5.367   5.065  1.3346  2.0322 -1.0029
  817MOL0     H 7825  12.376   5.359   5.245 -0.4504  2.0981  3.0107
  817MOL0     H 7826  11.768   6.257   5.204 -0.2567 -0.2615  1.9496
  817MOL0     H 7827  11.607   6.432   5.108  0.1196 -0.7190  3.3167
  817MOL0     H 7828  11.324   6.561   4.864  1.4007 -0.7731  2.4649
  817MOL0     H 7829  11.217   6.770   4.774 -1.5318 -1.0849 -0.1405
  817MOL0     H 7830   9.906   7.608   4.061  1.9398 -3.4129 -2.3535
  817MOL0     H 7831   9.667   7.555   4.006 -0.2221  1.3983  1.3708
  817MOL0     H 7832   9.180   7.533   4.052 -0.0172 -1.4205  0.5999
  817MOL0     H 7833   9.004   7.434   3.908  0.4087 -1.0740 -1.1590
  817MOL0     H 7834   8.943   7.369   3.629  0.6973  0.5966  1.5130
  817MOL0     H 7835   8.851   7.342   3.780  0.0433  2.4912 -1.2357
  817MOL0     H 7836   8.864   7.177   3.523 -3.3783  0.9472 -1.0601
  817MOL0     H 7837   8.835   7.097   3.687 -1.3034 -1.5668 -1.3325
  817MOL0     H 7838   8.666   7.290   3.541  2.4184 -0.5058 -0.9747
  817MOL0     H 7839   8.630   7.229   3.714 -0.8565  1.0854  0.1262
  817MOL0     H 7840   8.627   7.050   3.480 -1.0119  0.8647  0.1510
  817MOL0     H 7841   8.608   7.007   3.654 -2.0761  3.7779  4.1115
  817MOL0     H 7842   8.222   7.103   3.611 -0.7393 -2.2806  1.4182
  817MOL0     H 7843   9.248   7.108   3.801  0.4388 -0.9635  3.2664
  817MOL0     H 7844   9.439   7.208   3.897  0.7457  4.5019 -0.3246
  818MOL0     O 7845   8.275   9.801   7.546  0.4042 -0.0880 -0.1045
  818MOL0     C 7846   8.227   9.801   7.436 -0.1382  0.1158  0.6731
  818MOL0     O 7847   8.204   9.913   7.358  0.0246 -0.6557 -0.6073
  818MOL0     C 7848   8.246  10.042   7.401 -0.9624 -1.2920  0.5272
  818MOL0     C 7849   8.286  10.133   7.302  0.1546  0.0377  0.3655
  818MOL0     C 7850   8.367  10.243   7.325  1.0293  0.5733 -0.2264
  818MOL0     C 7851   8.393  10.273   7.459  0.8360 -0.7426  0.5662
  818MOL0     O 7852   8.454  10.390   7.484 -0.0971  0.4800 -0.2471
  818MOL0     C 7853   8.410  10.461   7.606  1.2230 -0.1140  0.9470
  818MOL0     C 7854   8.447  10.610   7.599  0.2230  0.2523 -0.1312
  818MOL0     C 7855   8.386  10.697   7.708  0.8463 -0.4296  0.1210
  818MOL0     C 7856   8.237  10.665   7.751 -0.2983  0.3024  1.4184
  818MOL0     C 7857   8.132  10.690   7.640  0.2647  0.9276 -0.6018
  818MOL0     C 7858   7.994  10.626   7.668  0.2531  0.5299 -0.5797
  818MOL0     C 7859   7.920  10.686   7.782 -0.0322 -0.0196  0.3613
  818MOL0     C 7860   7.923  10.843   7.792  0.1970  1.6462  0.6141
  818MOL0     N 7861   7.841  10.906   7.896  0.2805  0.5243 -0.2170
  818MOL0     C 7862   7.706  10.947   7.892 -0.2212 -0.1848  0.8356
  818MOL0     C 7863   7.687  11.022   8.006 -0.2236 -0.1068 -1.1246
  818MOL0     C 7864   7.558  11.089   8.054 -0.1763  0.4134  0.0739
  818MOL0     C 7865   7.493  10.997   8.169  0.5090 -0.3209 -0.1124
  818MOL0     C 7866   7.476  11.077   8.301  0.5222 -0.1304 -0.0043
  818MOL0     C 7867   7.377  11.196   8.285  0.0470  0.7145 -0.4880
  818MOL0     O 7868   7.246  11.160   8.271  0.5483  0.3897 -0.4445
  818MOL0     C 7869   7.157  11.158   8.376 -0.4806  0.2867  0.6206
  818MOL0     C 7870   7.088  11.275   8.403 -0.0529  0.0957  0.0273
  818MOL0     C 7871   6.998  11.273   8.505 -0.0693  0.3245 -0.3546
  818MOL0     C 7872   6.970  11.152   8.577 -0.1316  0.4049 -0.4174
  818MOL0     C 7873   6.865  11.148   8.681  0.3028  0.4535  0.8425
  818MOL0     O 7874   6.802  11.026   8.719  0.2929  0.4848 -0.7592
  818MOL0     C 7875   6.721  11.011   8.836  0.4214 -0.3325 -0.3424
  818MOL0     C 7876   6.619  10.917   8.822 -0.1916 -0.3714  0.4231
  818MOL0     C 7877   6.518  10.912   8.922  0.9457 -0.1832  0.1939
  818MOL0     C 7878   6.524  10.994   9.036  0.7609  0.1314 -0.8315
  818MOL0     O 7879   6.424  11.001   9.128 -0.8923  0.2714 -0.5081
  818MOL0     C 7880   6.333  10.890   9.134 -0.2984 -0.3483 -0.0129
  818MOL0     C 7881   6.221  10.914   9.031 -0.1441 -0.6591 -0.9823
  818MOL0     C 7882   6.114  10.805   9.052  0.1132 -0.3980 -0.5491
  818MOL0     C 7883   6.149  10.670   8.976  0.1913  0.5582 -0.8224
  818MOL0     C 7884   6.071  10.542   9.029  0.1404  0.1075  0.7650
  818MOL0     C 7885   6.014  10.533   9.175  0.2960 -0.2199 -0.9823
  818MOL0     C 7886   6.134  10.530   9.279  0.3285  0.0704 -0.5230
  818MOL0     C 7887   6.097  10.471   9.416  0.2978  0.1297  0.5245
  818MOL0    Cl 7888   5.947  10.551   9.484 -0.3326 -0.2857  0.1082
  818MOL0     C 7889   6.622  11.087   9.044  0.3430 -0.3685 -0.6065
  818MOL0     C 7890   6.718  11.100   8.947 -0.4891  0.4259 -0.8424
  818MOL0     O 7891   6.834  11.259   8.722  0.2655  0.5113  0.5674
  818MOL0     C 7892   7.043  11.034   8.545 -0.0749 -0.2633 -0.8315
  818MOL0     C 7893   7.127  11.032   8.437 -0.7811  0.7216  0.4797
  818MOL0     N 7894   7.801  11.011   8.087 -0.2525 -0.9836  0.7940
  818MOL0     N 7895   7.892  10.951   8.016  0.4257  0.1139 -0.4886
  818MOL0     C 7896   8.348  10.195   7.566  0.5006  0.1254  1.1825
  818MOL0     C 7897   8.285  10.081   7.530  0.6075  0.6426  0.4526
  818MOL0     C 7898   8.189   9.668   7.380 -0.2818  0.5842  0.1173
  818MOL0     C 7899   8.157   9.666   7.243 -0.2675  1.1776  0.7804
  818MOL0     C 7900   8.121   9.536   7.190  0.2895 -0.5405 -0.0591
  818MOL0     C 7901   8.110   9.423   7.272  0.9063 -0.2139 -0.1788
  818MOL0     O 7902   8.059   9.303   7.229 -0.2421  0.3493 -0.3749
  818MOL0     C 7903   8.118   9.255   7.107  0.7336  0.8046  0.2689
  818MOL0     C 7904   8.258   9.206   7.110 -0.0869  0.7257 -0.1459
  818MOL0     C 7905   8.259   9.085   7.213 -0.3930 -0.4298 -0.4189
  818MOL0     C 7906   8.404   9.042   7.263 -0.8449  0.2238  0.1684
  818MOL0     C 7907   8.496   9.028   7.159 -0.9471  0.3123  0.0659
  818MOL0     C 7908   8.575   9.026   7.069  0.6767  0.7238  0.3435
  818MOL0     C 7909   8.143   9.436   7.407 -0.4405  0.8673 -0.8484
  818MOL0     C 7910   8.177   9.550   7.461 -0.2576 -0.4440  0.2536
  818MOL0     H 7911   8.260  10.099   7.202  1.9485 -1.8262  0.4484
  818MOL0     H 7912   8.386  10.317   7.248 -4.1317  3.1826  0.5242
  818MOL0     H 7913   8.463  10.419   7.691  0.9191  1.3864  1.9165
  818MOL0     H 7914   8.304  10.445   7.626  0.5752  0.7873 -1.4055
  818MOL0     H 7915   8.413  10.644   7.501  0.0357  0.4488  0.0026
  818MOL0     H 7916   8.556  10.612   7.589  0.4267 -4.1265 -1.1216
  818MOL0     H 7917   8.399  10.799   7.671  2.8603  0.3446  2.7050
  818MOL0     H 7918   8.446  10.692   7.799 -1.7118  3.0336  2.2325
  818MOL0     H 7919   8.235  10.562   7.790  0.7974 -1.7237 -3.1240
  818MOL0     H 7920   8.202  10.727   7.834  0.6913  2.5378  0.2432
  818MOL0     H 7921   8.168  10.649   7.545 -2.4719 -0.6270 -1.0664
  818MOL0     H 7922   8.119  10.798   7.628  0.6613  1.3829  2.2718
  818MOL0     H 7923   8.011  10.519   7.687  0.2204  0.3933 -1.2618
  818MOL0     H 7924   7.928  10.630   7.580  2.4333  0.0362 -2.3297
  818MOL0     H 7925   7.815  10.661   7.768 -0.9708  4.0227 -1.2098
  818MOL0     H 7926   7.942  10.639   7.878  2.3926 -0.6878 -0.4295
  818MOL0     H 7927   7.900  10.884   7.693  1.0843  1.5923  0.3728
  818MOL0     H 7928   8.029  10.869   7.805  0.5086  0.9965 -0.4930
  818MOL0     H 7929   7.632  10.930   7.815  0.9896 -0.3238 -0.3274
  818MOL0     H 7930   7.483  11.112   7.978  0.0853  1.8978  0.2326
  818MOL0     H 7931   7.594  11.181   8.101 -2.2453  1.7666 -0.8163
  818MOL0     H 7932   7.548  10.903   8.183 -1.5032 -1.7464 -1.2761
  818MOL0     H 7933   7.391  10.973   8.140 -0.5144  1.8646  1.4078
  818MOL0     H 7934   7.443  11.009   8.379 -3.8637  2.2629  0.5879
  818MOL0     H 7935   7.567  11.125   8.337  0.9992 -0.6373 -0.5115
  818MOL0     H 7936   7.404  11.257   8.199  0.2186  1.8275  0.3308
  818MOL0     H 7937   7.385  11.249   8.381  1.2105  0.8726 -0.6561
  818MOL0     H 7938   7.104  11.368   8.350  1.2483  0.6649  1.3435
  818MOL0     H 7939   6.923  11.351   8.520  0.7644  1.1137 -0.2521
  818MOL0     H 7940   6.618  10.856   8.732 -0.7885 -0.3154  0.3827
  818MOL0     H 7941   6.451  10.829   8.901  0.3051  0.9433 -2.7056
  818MOL0     H 7942   6.288  10.880   9.233 -2.6856  0.9404 -0.8799
  818MOL0     H 7943   6.375  10.791   9.115  0.3584 -0.2068  0.6402
  818MOL0     H 7944   6.268  10.914   8.933  0.7603  1.5166 -0.6047
  818MOL0     H 7945   6.176  11.011   9.052  0.4630 -0.7569  1.0614
  818MOL0     H 7946   6.015  10.835   9.016  0.9278  3.2582 -0.1892
  818MOL0     H 7947   6.097  10.797   9.160  0.4160  2.7567 -0.1588
  818MOL0     H 7948   6.151  10.671   8.867  3.7154 -1.8973 -0.9588
  818MOL0     H 7949   6.252  10.649   9.009 -1.2551 -3.4396  1.8947
  818MOL0     H 7950   6.143  10.460   9.020  1.3764  1.1037  1.3872
  818MOL0     H 7951   5.991  10.525   8.956  0.4983 -1.3625  0.6859
  818MOL0     H 7952   5.951  10.444   9.189 -0.1380 -0.0061 -1.5389
  818MOL0     H 7953   5.946  10.618   9.186 -1.3383 -1.5588 -0.2211
  818MOL0     H 7954   6.218  10.474   9.237  1.7606  0.9602  1.0573
  818MOL0     H 7955   6.166  10.632   9.300 -0.4287  0.1239  0.4379
  818MOL0     H 7956   6.180  10.503   9.481  0.1429  2.6549 -0.4212
  818MOL0     H 7957   6.092  10.363   9.397  1.6508  0.5460 -2.7128
  818MOL0     H 7958   6.625  11.150   9.133  1.4036  1.2440 -1.7383
  818MOL0     H 7959   6.794  11.175   8.965  1.5981 -1.4988 -1.2726
  818MOL0     H 7960   7.046  10.943   8.604 -0.0749 -0.2896 -0.8728
  818MOL0     H 7961   7.173  10.940   8.403 -1.4101  0.2279  0.9538
  818MOL0     H 7962   8.358  10.217   7.672 -0.7932  0.2052  1.3080
  818MOL0     H 7963   8.248  10.021   7.612 -1.6174  0.6695 -0.4671
  818MOL0     H 7964   8.151   9.750   7.173 -3.4425  0.9964  0.6937
  818MOL0     H 7965   8.099   9.524   7.084  0.7412  1.3839 -0.3999
  818MOL0     H 7966   8.101   9.331   7.030  0.1567  0.3213 -0.0935
  818MOL0     H 7967   8.053   9.177   7.067  3.1998 -0.8040 -0.8230
  818MOL0     H 7968   8.293   9.180   7.009 -0.1057 -1.4822  0.3723
  818MOL0     H 7969   8.321   9.287   7.148  0.2937 -1.3999  4.3681
  818MOL0     H 7970   8.211   8.997   7.168 -2.4709 -0.3059  1.3811
  818MOL0     H 7971   8.199   9.089   7.304 -1.4938 -2.9158 -0.9420
  818MOL0     H 7972   8.450   9.119   7.326 -1.9907  1.1866 -0.1355
  818MOL0     H 7973   8.396   8.943   7.309  0.4201  0.0950  0.1450
  818MOL0     H 7974   8.648   9.023   6.990 -1.0922 -0.2897 -1.3263
  818MOL0     H 7975   8.140   9.348   7.470  0.8988  1.1573 -0.3469
  818MOL0     H 7976   8.187   9.560   7.569 -1.0413  2.4956  0.1421
  819MOL0     O 7977  10.907   8.391   8.812  0.5945  0.3532  1.2217
  819MOL0     C 7978  10.862   8.320   8.899 -1.2932 -0.2175 -0.2376
  819MOL0     O 7979  10.938   8.257   8.999 -0.3231  0.5345 -0.2959
  819MOL0     C 7980  11.062   8.304   9.007 -0.1328  0.0973  0.1341
  819MOL0     C 7981  11.091   8.425   9.072 -0.1750  0.9404  0.4266
  819MOL0     C 7982  11.220   8.461   9.091 -0.0061 -0.2656  0.4578
  819MOL0     C 7983  11.329   8.382   9.042  0.4039 -1.4429  0.4806
  819MOL0     O 7984  11.463   8.407   9.056  0.0265 -0.0547  0.4108
  819MOL0     C 7985  11.500   8.546   9.053 -0.1979 -1.4971  0.0181
  819MOL0     C 7986  11.649   8.563   9.034 -0.6670  0.3146 -0.2565
  819MOL0     C 7987  11.685   8.700   8.985 -0.3359 -0.2753  0.1949
  819MOL0     C 7988  11.841   8.716   8.977  0.3811 -0.1186  0.0102
  819MOL0     C 7989  11.871   8.855   8.917 -0.2601  0.9645  0.1826
  819MOL0     C 7990  12.016   8.873   8.875  0.2422 -0.1080 -0.4178
  819MOL0     C 7991  12.044   9.023   8.840 -0.7107 -0.3946 -0.5622
  819MOL0     C 7992  12.065   9.119   8.956 -0.1078  1.3080  0.2356
  819MOL0     N 7993  12.203   9.155   8.961  0.2275 -0.2128 -0.6974
  819MOL0     C 7994  12.303   9.061   8.977 -0.3807 -0.4601 -0.6085
  819MOL0     C 7995  12.420   9.124   8.975  0.0610 -1.3585  0.1468
  819MOL0     C 7996  12.550   9.061   8.988 -0.0856  0.6054  0.6317
  819MOL0     C 7997  12.662   9.148   9.030 -0.8953  0.3560 -0.3970
  819MOL0     C 7998  12.795   9.069   9.039  0.5861  0.9123 -0.0825
  819MOL0     C 7999  12.914   9.142   9.095  0.6300 -0.3606 -0.3911
  819MOL0     O 8000  12.949   9.257   9.009  0.8617 -0.3387  0.2861
  819MOL0     C 8001  13.081   9.290   9.008  0.9923  0.0493 -0.3028
  819MOL0     C 8002  13.129   9.346   8.890 -0.4877  0.7989 -0.6369
  819MOL0     C 8003  13.270   9.349   8.863  0.6021  0.2895 -0.1046
  819MOL0     C 8004  13.361   9.290   8.960 -0.2547 -0.3915  0.1940
  819MOL0     C 8005  13.512   9.297   8.932 -0.4817  0.9148  0.0338
  819MOL0     O 8006  13.597   9.273   9.033  0.4082  0.2804 -0.5874
  819MOL0     C 8007  13.733   9.252   9.013 -0.0950  0.0936  0.5869
  819MOL0     C 8008  13.819   9.358   9.042 -0.6887 -0.0608 -0.0034
  819MOL0     C 8009  13.955   9.354   9.013  0.3509  0.6028  0.1020
  819MOL0     C 8010  14.014   9.231   8.977 -0.2291 -0.1478  0.5675
  819MOL0     O 8011  14.151   9.239   8.953  0.0862 -0.1128 -0.2861
  819MOL0     C 8012  14.203   9.157   8.853 -0.1158 -1.2354  0.2936
  819MOL0     C 8013  14.352   9.143   8.858 -0.0148 -1.2825 -0.1130
  819MOL0     C 8014  14.432   9.277   8.870  0.9554 -0.0078 -0.9415
  819MOL0     C 8015  14.584   9.261   8.891 -1.3201 -0.3902 -1.0690
  819MOL0     C 8016  14.623   9.195   9.020  0.6135 -0.7305 -0.0622
  819MOL0     C 8017  14.758   9.237   9.081  0.2473 -0.2207 -0.0061
  819MOL0     C 8018  14.746   9.379   9.135  0.8123 -1.2316  0.4801
  819MOL0     C 8019  14.859   9.399   9.236 -0.1221 -0.0083 -0.4024
  819MOL0    Cl 8020  15.018   9.368   9.161 -0.3798 -0.2601  0.8461
  819MOL0     C 8021  13.928   9.124   8.952  0.6610 -0.1696  0.4792
  819MOL0     C 8022  13.789   9.135   8.958  0.1313 -0.3771  0.1142
  819MOL0     O 8023  13.544   9.301   8.810  0.0645  0.1257  0.9489
  819MOL0     C 8024  13.307   9.254   9.080 -0.2608  0.2270 -0.7218
  819MOL0     C 8025  13.176   9.258   9.103  0.0274  1.5207 -0.1435
  819MOL0     N 8026  12.386   9.260   8.961  0.2528  0.3425  0.4045
  819MOL0     N 8027  12.259   9.273   8.955 -0.2144 -1.4674  0.2332
  819MOL0     C 8028  11.300   8.267   8.968 -0.4498 -0.2910  0.3362
  819MOL0     C 8029  11.167   8.220   8.962 -0.4755 -0.8603 -0.0490
  819MOL0     C 8030  10.727   8.284   8.883 -0.5834 -0.3735 -0.5385
  819MOL0     C 8031  10.662   8.231   8.999 -0.4543  0.0354 -0.1799
  819MOL0     C 8032  10.524   8.199   8.992 -0.4280  0.3612  0.2318
  819MOL0     C 8033  10.442   8.230   8.886  0.8728  0.6193  0.2832
  819MOL0     O 8034  10.317   8.167   8.878 -0.6521 -0.1799  0.2183
  819MOL0     C 8035  10.209   8.249   8.828  0.3267 -0.3331 -0.6160
  819MOL0     C 8036  10.070   8.223   8.884 -0.5754 -0.1433 -0.7148
  819MOL0     C 8037   9.955   8.307   8.828 -0.1586  0.2980 -0.7284
  819MOL0     C 8038   9.862   8.376   8.932 -0.0973  0.4838  0.3265
  819MOL0     C 8039   9.783   8.266   8.998 -0.0362  0.3034  0.4786
  819MOL0     C 8040   9.724   8.172   9.050  0.2814 -0.6509 -0.2062
  819MOL0     C 8041  10.510   8.283   8.768 -0.2340  0.6946 -0.2999
  819MOL0     C 8042  10.643   8.319   8.772  0.1248  0.3971  0.1602
  819MOL0     H 8043  11.025   8.502   9.109  1.4453  2.5068  0.2294
  819MOL0     H 8044  11.244   8.551   9.148 -1.4029 -0.5159  1.5084
  819MOL0     H 8045  11.468   8.594   9.146 -0.5928 -0.9489 -0.3924
  819MOL0     H 8046  11.452   8.599   8.970 -1.5959  0.3937  1.9442
  819MOL0     H 8047  11.694   8.484   8.974  1.8971  0.9244  0.7323
  819MOL0     H 8048  11.682   8.561   9.139 -3.8766 -0.7738  0.8445
  819MOL0     H 8049  11.633   8.770   9.051  0.1846  0.3828 -0.0886
  819MOL0     H 8050  11.641   8.717   8.887  1.6384 -0.4175 -0.7754
  819MOL0     H 8051  11.878   8.700   9.078  1.8403 -1.1560 -0.6632
  819MOL0     H 8052  11.893   8.634   8.926 -0.3659 -0.7833  0.3007
  819MOL0     H 8053  11.852   8.926   8.998  2.9739  1.3079  0.7637
  819MOL0     H 8054  11.804   8.875   8.833 -1.9298  3.4128  1.9422
  819MOL0     H 8055  12.038   8.812   8.787  1.0084  2.6246 -2.2607
  819MOL0     H 8056  12.080   8.859   8.962 -0.3198  2.2680  0.4561
  819MOL0     H 8057  12.136   9.023   8.780 -1.7699  0.9912 -2.2767
  819MOL0     H 8058  11.968   9.066   8.774 -0.6303  0.1682 -0.2981
  819MOL0     H 8059  12.031   9.062   9.044  0.0032  1.1150  0.1521
  819MOL0     H 8060  11.995   9.202   8.943 -3.4221 -1.4275 -1.2107
  819MOL0     H 8061  12.288   8.954   8.987  0.9425 -0.6132 -0.2038
  819MOL0     H 8062  12.580   9.013   8.894  2.8870 -0.8186  2.1573
  819MOL0     H 8063  12.528   8.983   9.062  0.8618 -0.4422 -0.1378
  819MOL0     H 8064  12.633   9.186   9.128 -0.5243  0.4439 -0.3186
  819MOL0     H 8065  12.679   9.230   8.960  0.9266 -1.4170 -2.2052
  819MOL0     H 8066  12.777   8.990   9.113 -1.3911  3.7910  2.7934
  819MOL0     H 8067  12.817   9.018   8.945 -1.6092  1.8307 -1.1685
  819MOL0     H 8068  12.993   9.072   9.122  1.5462  1.5687  2.4532
  819MOL0     H 8069  12.884   9.183   9.192 -0.3007 -1.3768 -0.2418
  819MOL0     H 8070  13.057   9.378   8.814 -2.5652 -5.4326 -1.8836
  819MOL0     H 8071  13.305   9.382   8.766 -1.9974 -2.4655 -2.1936
  819MOL0     H 8072  13.779   9.455   9.069 -1.5847 -0.9785  2.1908
  819MOL0     H 8073  14.005   9.446   9.038 -0.8238  1.7666 -1.6009
  819MOL0     H 8074  14.170   9.192   8.754  2.0142 -0.2211 -0.1265
  819MOL0     H 8075  14.154   9.063   8.882 -2.4153  0.6262  3.0026
  819MOL0     H 8076  14.374   9.084   8.768 -2.9483 -2.6936 -0.0392
  819MOL0     H 8077  14.375   9.080   8.944  0.6504  0.8232  1.3112
  819MOL0     H 8078  14.403   9.335   8.958  2.5316  0.3977 -0.6603
  819MOL0     H 8079  14.389   9.335   8.787  0.0203  0.1737 -0.3435
  819MOL0     H 8080  14.632   9.206   8.810  1.9152  0.5391  0.0592
  819MOL0     H 8081  14.636   9.357   8.901 -0.1991 -1.1786  1.4823
  819MOL0     H 8082  14.610   9.089   8.997 -1.9108  0.0257 -2.7107
  819MOL0     H 8083  14.551   9.211   9.101  2.2859 -0.8018  1.4836
  819MOL0     H 8084  14.837   9.236   9.006  0.5806  1.9638  0.2585
  819MOL0     H 8085  14.790   9.164   9.156  1.8229  0.6655  0.2258
  819MOL0     H 8086  14.754   9.449   9.052 -0.1637 -3.4233 -1.5860
  819MOL0     H 8087  14.658   9.404   9.195  1.7684 -1.3889  2.0404
  819MOL0     H 8088  14.825   9.345   9.325 -1.9641  2.7552  0.7278
  819MOL0     H 8089  14.851   9.505   9.263 -2.8823  0.6481 -3.2754
  819MOL0     H 8090  13.964   9.029   8.913 -0.3001 -0.4311  0.1699
  819MOL0     H 8091  13.718   9.056   8.937 -0.2250 -0.2422  0.7830
  819MOL0     H 8092  13.369   9.216   9.161 -1.9512 -0.8708  0.1198
  819MOL0     H 8093  13.139   9.222   9.199 -0.3064  0.2489 -0.7337
  819MOL0     H 8094  11.382   8.207   8.929  1.2873  0.3381  2.7897
  819MOL0     H 8095  11.137   8.133   8.904  0.4033 -0.4189 -1.2162
  819MOL0     H 8096  10.708   8.200   9.092 -0.2479  1.0456  0.0582
  819MOL0     H 8097  10.482   8.134   9.068  1.1226 -3.0187 -1.6189
  819MOL0     H 8098  10.219   8.249   8.719  1.7570  1.2352 -0.5205
  819MOL0     H 8099  10.233   8.352   8.856  1.6296 -0.6807 -0.4051
  819MOL0     H 8100  10.046   8.116   8.884  1.6938 -0.7125 -1.5905
  819MOL0     H 8101  10.082   8.251   8.989 -1.0970  0.1854 -0.7344
  819MOL0     H 8102   9.900   8.251   8.751 -1.1501 -0.4000  0.4627
  819MOL0     H 8103  10.011   8.390   8.783 -1.1409  3.2542  2.9503
  819MOL0     H 8104   9.910   8.441   9.006 -3.2988  2.2732  1.0279
  819MOL0     H 8105   9.792   8.438   8.874  0.3496  0.5591 -0.1395
  819MOL0     H 8106   9.681   8.087   9.101 -1.5978 -0.3514 -1.1991
  819MOL0     H 8107  10.452   8.305   8.678 -0.3236  3.7990  0.4128
  819MOL0     H 8108  10.682   8.371   8.684 -0.4610 -0.7757 -0.8248
  820MOL0     O 8109   1.449   0.987   6.624 -0.3253 -0.1665 -0.9700
  820MOL0     C 8110   1.345   0.934   6.660 -0.4368  0.7087 -0.6119
  820MOL0     O 8111   1.278   0.957   6.773  1.2094  0.5828  0.1757
  820MOL0     C 8112   1.299   1.065   6.862 -0.6880 -0.5167  0.1157
  820MOL0     C 8113   1.397   1.168   6.840 -0.0914 -0.5376 -0.1306
  820MOL0     C 8114   1.424   1.281   6.926 -0.3624  0.5020  1.2382
  820MOL0     C 8115   1.350   1.286   7.046  0.0074 -0.5157  0.0566
  820MOL0     O 8116   1.378   1.393   7.118 -0.4583 -0.2186  0.1456
  820MOL0     C 8117   1.320   1.403   7.246  0.6647 -0.3744  0.1347
  820MOL0     C 8118   1.337   1.545   7.307 -0.4348  0.1870 -0.5257
  820MOL0     C 8119   1.270   1.646   7.226 -0.4125  0.8137  0.4747
  820MOL0     C 8120   1.274   1.786   7.292  0.0895 -0.8692  0.0317
  820MOL0     C 8121   1.215   1.889   7.192 -0.4850 -0.0263 -1.0851
  820MOL0     C 8122   1.056   1.881   7.187  0.3700  0.2609  0.9187
  820MOL0     C 8123   0.992   2.005   7.119  0.3659  1.0575 -0.8220
  820MOL0     C 8124   1.024   2.023   6.963  0.0529  0.0839  0.3211
  820MOL0     N 8125   0.922   1.960   6.876  0.0890  0.0402 -0.2591
  820MOL0     C 8126   0.920   1.818   6.858  0.4859 -0.3607  0.0666
  820MOL0     C 8127   0.801   1.796   6.788 -1.1358  0.4292 -0.4966
  820MOL0     C 8128   0.752   1.673   6.726 -0.0227  0.2497  1.0014
  820MOL0     C 8129   0.821   1.611   6.604 -0.0800 -0.1951  0.1774
  820MOL0     C 8130   0.829   1.722   6.497  0.4893 -0.6293 -0.3882
  820MOL0     C 8131   0.691   1.760   6.443  0.2507  0.3119 -0.7232
  820MOL0     O 8132   0.690   1.844   6.336  0.5064  0.6333  0.4989
  820MOL0     C 8133   0.765   1.955   6.343 -0.1288  0.5043  0.4998
  820MOL0     C 8134   0.811   2.001   6.229  0.1222 -0.2644  0.6680
  820MOL0     C 8135   0.886   2.124   6.223  0.3245 -0.5782  0.1052
  820MOL0     C 8136   0.909   2.203   6.336  0.0603 -0.2155 -0.4473
  820MOL0     C 8137   0.982   2.328   6.337 -0.5355 -0.2187  0.3539
  820MOL0     O 8138   0.962   2.413   6.433  0.6894  0.3015 -0.0137
  820MOL0     C 8139   1.046   2.524   6.455 -0.7471  1.8749 -1.0281
  820MOL0     C 8140   1.188   2.519   6.454  0.0436 -0.2609 -0.7226
  820MOL0     C 8141   1.272   2.629   6.479 -0.0879  0.4012 -0.3463
  820MOL0     C 8142   1.216   2.766   6.489  0.4274  0.1296 -0.0340
  820MOL0     O 8143   1.300   2.871   6.523 -0.0049  0.4332  0.2135
  820MOL0     C 8144   1.411   2.874   6.431 -0.4045  0.2855  0.8574
  820MOL0     C 8145   1.493   2.999   6.457  0.5722  0.4030 -0.9720
  820MOL0     C 8146   1.593   2.976   6.570 -0.0374  0.4140 -0.4643
  820MOL0     C 8147   1.684   3.091   6.583 -0.0617  0.1922 -0.1843
  820MOL0     C 8148   1.772   3.064   6.705 -0.8115  0.3525 -0.4769
  820MOL0     C 8149   1.797   3.193   6.780  0.5090 -0.4375  0.2614
  820MOL0     C 8150   1.890   3.184   6.903 -0.3814  0.2984 -0.6088
  820MOL0     C 8151   2.033   3.140   6.874 -0.1164 -0.2463  0.1690
  820MOL0    Cl 8152   2.111   3.073   7.022  0.3442 -0.1813  0.7163
  820MOL0     C 8153   1.079   2.773   6.481 -1.0539 -0.1784 -0.4585
  820MOL0     C 8154   0.999   2.651   6.460  0.0107 -1.0256  0.2749
  820MOL0     O 8155   1.063   2.337   6.250 -0.0959  0.2570  0.0705
  820MOL0     C 8156   0.846   2.159   6.454  0.1043 -0.7787  0.9314
  820MOL0     C 8157   0.774   2.041   6.452  0.2266 -0.1213  0.3634
  820MOL0     N 8158   0.723   1.916   6.786  0.0502 -0.7850 -0.4972
  820MOL0     N 8159   0.806   2.007   6.843 -0.6844 -0.4915  0.7566
  820MOL0     C 8160   1.249   1.188   7.066  0.8336  0.8746  1.4373
  820MOL0     C 8161   1.231   1.080   6.978  0.5215  1.2870  0.5677
  820MOL0     C 8162   1.275   0.844   6.567 -0.0955 -0.9800  0.4329
  820MOL0     C 8163   1.328   0.837   6.437 -0.2340 -0.8088 -0.3469
  820MOL0     C 8164   1.253   0.760   6.355 -1.3014 -0.3943  0.5847
  820MOL0     C 8165   1.140   0.682   6.382  0.5354  1.1296 -0.3989
  820MOL0     O 8166   1.089   0.615   6.277 -0.2417  0.1152  0.5615
  820MOL0     C 8167   0.987   0.519   6.306  0.7102 -0.3169 -0.0142
  820MOL0     C 8168   0.850   0.572   6.296  0.4899 -0.6027 -0.4375
  820MOL0     C 8169   0.817   0.627   6.157 -0.2358 -0.0486 -0.2083
  820MOL0     C 8170   0.663   0.637   6.138 -0.5493  1.2272 -1.2722
  820MOL0     C 8171   0.626   0.760   6.062 -0.1884  0.4959 -0.1180
  820MOL0     C 8172   0.576   0.845   5.989  0.3675 -0.4249 -0.1789
  820MOL0     C 8173   1.088   0.702   6.508 -0.5214  0.3455  0.4022
  820MOL0     C 8174   1.151   0.779   6.601 -0.1422  0.2032 -0.5766
  820MOL0     H 8175   1.464   1.166   6.754 -0.8630 -1.9136 -0.7280
  820MOL0     H 8176   1.493   1.362   6.905  0.1434  0.0557  1.1478
  820MOL0     H 8177   1.359   1.330   7.317 -1.1974 -0.8890  0.6585
  820MOL0     H 8178   1.212   1.392   7.238  0.3720  1.6449  0.6865
  820MOL0     H 8179   1.444   1.565   7.300 -0.3857 -0.7052 -4.3306
  820MOL0     H 8180   1.304   1.542   7.411 -0.7492 -5.2357 -0.4914
  820MOL0     H 8181   1.166   1.615   7.211 -0.3116  0.9944 -0.7269
  820MOL0     H 8182   1.312   1.646   7.125 -1.0016 -2.8161  0.1087
  820MOL0     H 8183   1.219   1.784   7.387  0.8251  1.4855  0.5831
  820MOL0     H 8184   1.376   1.811   7.323 -0.1946  0.3133  0.0908
  820MOL0     H 8185   1.256   1.863   7.094  3.3887 -0.8569  0.5372
  820MOL0     H 8186   1.245   1.985   7.234  0.6622 -0.6764 -0.3364
  820MOL0     H 8187   1.023   1.873   7.291  1.6655 -2.1904  1.2212
  820MOL0     H 8188   1.015   1.790   7.142  0.6347  1.1966 -1.3591
  820MOL0     H 8189   0.883   1.993   7.121  0.2807  1.9022  0.7329
  820MOL0     H 8190   1.026   2.089   7.180 -0.2724 -0.0656  1.1856
  820MOL0     H 8191   1.125   1.990   6.937 -0.8899 -3.0723  0.3050
  820MOL0     H 8192   1.029   2.131   6.946  3.9710 -0.2452 -1.6547
  820MOL0     H 8193   1.004   1.751   6.873 -0.9116 -2.8894 -2.4175
  820MOL0     H 8194   0.647   1.701   6.712 -0.0580  0.8377  2.3379
  820MOL0     H 8195   0.750   1.597   6.805  0.9419  0.0125  0.8087
  820MOL0     H 8196   0.771   1.528   6.553 -0.3371 -0.0624  0.2164
  820MOL0     H 8197   0.922   1.582   6.635  1.7829  2.6861 -2.5217
  820MOL0     H 8198   0.879   1.809   6.542  0.9888 -1.6128  1.0059
  820MOL0     H 8199   0.895   1.689   6.416  2.4660  0.7535  0.5736
  820MOL0     H 8200   0.623   1.800   6.519  1.1992 -0.6869  0.7068
  820MOL0     H 8201   0.633   1.669   6.426 -0.9015 -0.0856  3.9933
  820MOL0     H 8202   0.806   1.946   6.136  0.8270  4.6071 -2.6093
  820MOL0     H 8203   0.919   2.174   6.133  1.3819  0.4148  1.0118
  820MOL0     H 8204   1.239   2.424   6.442  2.3241  0.7070  0.7132
  820MOL0     H 8205   1.380   2.624   6.485  0.0780  1.4698 -1.9161
  820MOL0     H 8206   1.365   2.872   6.332 -1.2703 -2.1917  1.2339
  820MOL0     H 8207   1.483   2.794   6.450  1.7661  2.2403  1.2632
  820MOL0     H 8208   1.430   3.087   6.476  0.6855  0.9001 -2.7075
  820MOL0     H 8209   1.551   3.021   6.367  2.5488  0.7867  0.3214
  820MOL0     H 8210   1.654   2.886   6.569 -0.5376  0.0658 -0.0430
  820MOL0     H 8211   1.532   2.957   6.659  3.0462 -4.1486  1.0509
  820MOL0     H 8212   1.749   3.111   6.497  0.2979 -2.4915 -0.6190
  820MOL0     H 8213   1.632   3.187   6.596  1.4733  0.7858  2.1433
  820MOL0     H 8214   1.863   3.014   6.671 -1.0713 -0.2058 -0.3508
  820MOL0     H 8215   1.720   2.999   6.776 -0.9475 -0.4006 -1.2479
  820MOL0     H 8216   1.700   3.229   6.817  1.8446  1.0070  2.6262
  820MOL0     H 8217   1.833   3.273   6.714 -1.8370 -0.1177 -0.7230
  820MOL0     H 8218   1.910   3.280   6.952 -1.2625 -0.7648  2.0001
  820MOL0     H 8219   1.831   3.130   6.978 -1.1746  1.7156 -0.1764
  820MOL0     H 8220   2.098   3.218   6.834 -1.3406  1.2331  0.9784
  820MOL0     H 8221   2.029   3.062   6.798 -3.3182  0.7148 -0.7844
  820MOL0     H 8222   1.038   2.873   6.473  1.3640  0.9366  0.2235
  820MOL0     H 8223   0.891   2.664   6.451  0.2207  1.4527  0.5604
  820MOL0     H 8224   0.841   2.226   6.539 -1.2065 -0.7331  0.8389
  820MOL0     H 8225   0.712   2.026   6.540  1.7186 -2.6659  1.0629
  820MOL0     H 8226   1.179   1.175   7.147 -0.3499 -1.5132  0.1323
  820MOL0     H 8227   1.170   0.996   7.012  3.8953 -1.6268  0.0557
  820MOL0     H 8228   1.424   0.880   6.407 -1.5331  1.2820 -1.7963
  820MOL0     H 8229   1.288   0.752   6.252  0.4109  3.3261  0.7118
  820MOL0     H 8230   0.999   0.477   6.406  2.1727 -0.3267 -0.1731
  820MOL0     H 8231   1.009   0.435   6.239  0.2472  0.9897 -1.8936
  820MOL0     H 8232   0.778   0.491   6.313  0.2557 -0.8216 -2.3248
  820MOL0     H 8233   0.839   0.656   6.365  1.8004 -0.7874  0.0412
  820MOL0     H 8234   0.852   0.555   6.082 -0.1792 -3.2515  2.6230
  820MOL0     H 8235   0.871   0.719   6.135  2.3691 -1.8417 -1.9153
  820MOL0     H 8236   0.630   0.545   6.089 -0.6283  0.5141  0.0806
  820MOL0     H 8237   0.631   0.637   6.243 -0.3747 -2.9160 -1.0408
  820MOL0     H 8238   0.542   0.920   5.920 -0.6747 -1.5527 -0.9364
  820MOL0     H 8239   1.003   0.645   6.543  0.6993 -2.1965 -0.5633
  820MOL0     H 8240   1.123   0.784   6.706 -2.6372  0.1925 -1.1924
  821MOL0     O 8241   1.756   0.993   3.930  0.4389 -0.0601  0.5492
  821MOL0     C 8242   1.808   1.103   3.958  0.2822 -0.0318  0.4356
  821MOL0     O 8243   1.935   1.128   3.958 -0.2232 -0.1653  0.2626
  821MOL0     C 8244   2.028   1.029   3.917  0.3917  0.2902 -0.5244
  821MOL0     C 8245   2.146   1.000   3.990  1.0061 -0.1443  0.6402
  821MOL0     C 8246   2.234   0.905   3.933  0.4267 -0.8202 -0.2710
  821MOL0     C 8247   2.222   0.842   3.810  0.4232 -0.3471  1.0985
  821MOL0     O 8248   2.303   0.743   3.749 -0.5361  0.5779  0.7848
  821MOL0     C 8249   2.420   0.716   3.819 -0.6465  0.4241  0.2816
  821MOL0     C 8250   2.502   0.623   3.748 -0.1398  0.4203  0.1895
  821MOL0     C 8251   2.555   0.683   3.614 -0.0797 -0.6561  0.1002
  821MOL0     C 8252   2.623   0.576   3.528 -0.0999 -0.3862 -0.2150
  821MOL0     C 8253   2.699   0.625   3.402 -0.1854  0.2998  0.4110
  821MOL0     C 8254   2.770   0.523   3.313 -0.3828  0.3663 -0.4815
  821MOL0     C 8255   2.923   0.515   3.335 -0.4191 -0.2837  0.4654
  821MOL0     C 8256   2.973   0.466   3.467  0.1033 -0.2922 -0.1762
  821MOL0     N 8257   3.120   0.496   3.466 -0.2695  0.0291  0.8738
  821MOL0     C 8258   3.194   0.557   3.562 -0.4355 -0.4919  0.3525
  821MOL0     C 8259   3.322   0.567   3.524 -0.3715 -0.5568  0.1140
  821MOL0     C 8260   3.444   0.617   3.587  0.3471 -0.4620  0.0456
  821MOL0     C 8261   3.547   0.692   3.495  1.6434  0.8824  0.3306
  821MOL0     C 8262   3.665   0.736   3.580 -0.1811  0.7541  0.3431
  821MOL0     C 8263   3.759   0.810   3.489 -0.1627  0.6774 -0.1867
  821MOL0     O 8264   3.888   0.801   3.544 -0.2865  0.2014 -0.1899
  821MOL0     C 8265   3.976   0.907   3.546 -0.2661 -0.5006  0.3561
  821MOL0     C 8266   3.968   1.022   3.467  0.8520 -0.7901  1.0467
  821MOL0     C 8267   4.055   1.127   3.478 -0.7904  1.2684 -0.4037
  821MOL0     C 8268   4.161   1.115   3.569 -0.8980 -0.0194  0.6566
  821MOL0     C 8269   4.276   1.210   3.559 -0.2720  0.4380 -0.0371
  821MOL0     O 8270   4.384   1.163   3.642  0.2335  0.0177  0.2907
  821MOL0     C 8271   4.509   1.207   3.642  0.0973 -0.3061  0.7022
  821MOL0     C 8272   4.549   1.335   3.593 -0.1825  0.3695  0.4937
  821MOL0     C 8273   4.678   1.379   3.632 -0.0335 -0.6935 -0.3499
  821MOL0     C 8274   4.766   1.299   3.702 -0.1973 -0.6408 -0.2434
  821MOL0     O 8275   4.900   1.349   3.708 -0.2227  0.5659 -0.6605
  821MOL0     C 8276   5.009   1.257   3.682 -0.2800 -0.9206  0.4598
  821MOL0     C 8277   5.132   1.301   3.754 -0.5719 -0.0146 -0.2859
  821MOL0     C 8278   5.106   1.305   3.909 -0.1801 -0.4727 -0.4442
  821MOL0     C 8279   5.082   1.171   3.992  1.0043 -0.6654 -0.6122
  821MOL0     C 8280   5.206   1.093   4.016 -0.2152  0.2261  0.2882
  821MOL0     C 8281   5.163   0.969   4.107 -0.3296 -0.0258  0.5931
  821MOL0     C 8282   5.280   0.867   4.124  0.0763 -0.3250  0.0677
  821MOL0     C 8283   5.243   0.753   4.218  0.3644 -0.2755  0.7429
  821MOL0    Cl 8284   5.123   0.642   4.162 -0.1422 -0.0569 -0.3606
  821MOL0     C 8285   4.725   1.171   3.744  0.0980 -0.9205 -0.7000
  821MOL0     C 8286   4.592   1.126   3.718  0.2874  0.1314 -0.4684
  821MOL0     O 8287   4.281   1.299   3.471  0.1192  0.3716 -0.4727
  821MOL0     C 8288   4.176   1.003   3.647  0.0803  0.2978 -0.1856
  821MOL0     C 8289   4.086   0.896   3.628 -0.1603 -0.1730 -0.1682
  821MOL0     N 8290   3.327   0.481   3.416 -0.0552  0.2056  1.1931
  821MOL0     N 8291   3.214   0.439   3.383  0.2240 -0.8243  0.1782
  821MOL0     C 8292   2.106   0.876   3.742 -0.5007  0.7047  0.1415
  821MOL0     C 8293   2.011   0.965   3.793 -1.0571 -0.5954 -0.2062
  821MOL0     C 8294   1.712   1.216   3.995 -0.5605 -0.2538  0.4652
  821MOL0     C 8295   1.757   1.333   4.031  0.0364 -0.1709  0.1557
  821MOL0     C 8296   1.668   1.432   4.068  0.1427  1.5659 -0.3331
  821MOL0     C 8297   1.528   1.409   4.064  0.2006  1.3482 -0.0484
  821MOL0     O 8298   1.435   1.506   4.091 -0.5166 -0.5411 -0.0055
  821MOL0     C 8299   1.467   1.644   4.064  0.4494  0.8249 -0.2908
  821MOL0     C 8300   1.516   1.712   4.192 -0.2017  1.0294 -0.2768
  821MOL0     C 8301   1.569   1.857   4.159  0.0253 -0.5412  0.0825
  821MOL0     C 8302   1.719   1.854   4.119  0.4481  0.2168 -0.1805
  821MOL0     C 8303   1.754   1.978   4.049 -0.8167  0.3122 -0.0147
  821MOL0     C 8304   1.787   2.080   3.992  0.8934  0.3465  0.4696
  821MOL0     C 8305   1.483   1.289   4.020 -0.2328  0.2292 -0.0215
  821MOL0     C 8306   1.577   1.188   3.999  0.7484 -0.4395 -0.1493
  821MOL0     H 8307   2.151   1.048   4.087 -1.6942  2.3440 -0.3163
  821MOL0     H 8308   2.319   0.874   3.993 -0.1367 -1.1919  0.3579
  821MOL0     H 8309   2.395   0.658   3.908 -0.8160  0.0855  0.0161
  821MOL0     H 8310   2.478   0.806   3.846 -1.0709  0.7489  0.1178
  821MOL0     H 8311   2.452   0.529   3.722  0.7959  0.3534 -1.4927
  821MOL0     H 8312   2.589   0.593   3.809 -2.9782 -0.7897  4.0583
  821MOL0     H 8313   2.620   0.768   3.635 -0.5601 -0.3904  0.5335
  821MOL0     H 8314   2.468   0.721   3.561 -0.6531  0.7507  1.9498
  821MOL0     H 8315   2.694   0.519   3.590 -3.3770 -0.4436  3.9479
  821MOL0     H 8316   2.554   0.495   3.503  1.9269 -2.7865  1.3829
  821MOL0     H 8317   2.773   0.703   3.421  2.6834 -2.4418  1.2177
  821MOL0     H 8318   2.625   0.667   3.332  3.0954  0.4797 -3.2706
  821MOL0     H 8319   2.741   0.540   3.209 -1.4198 -1.6286 -0.5711
  821MOL0     H 8320   2.725   0.428   3.344 -2.4360  1.1796 -0.8490
  821MOL0     H 8321   2.962   0.449   3.257  1.2612 -3.5745  3.7750
  821MOL0     H 8322   2.961   0.617   3.332 -3.8728  1.4719  5.0293
  821MOL0     H 8323   2.957   0.358   3.477  0.3770 -0.4602 -1.4268
  821MOL0     H 8324   2.924   0.518   3.549 -1.8884  0.0886 -1.5430
  821MOL0     H 8325   3.159   0.609   3.651 -1.3266 -0.4297 -0.0162
  821MOL0     H 8326   3.499   0.538   3.639  2.9777  0.6686 -0.8066
  821MOL0     H 8327   3.408   0.687   3.662 -0.3305 -0.9621  0.1979
  821MOL0     H 8328   3.501   0.777   3.444  1.0939 -0.7308 -2.0236
  821MOL0     H 8329   3.579   0.617   3.423  2.4263 -0.5379  2.0645
  821MOL0     H 8330   3.636   0.798   3.665 -2.3531  1.0821 -0.5753
  821MOL0     H 8331   3.723   0.649   3.614  0.6699  1.0313 -0.3380
  821MOL0     H 8332   3.727   0.914   3.499  0.0291  0.6690  0.5347
  821MOL0     H 8333   3.758   0.762   3.390 -1.5511 -1.0168  0.5860
  821MOL0     H 8334   3.902   1.017   3.381 -0.5229 -1.0537  2.0777
  821MOL0     H 8335   4.047   1.192   3.392 -1.3912 -1.1557 -2.2834
  821MOL0     H 8336   4.491   1.409   3.539  0.2379  1.0917  1.0165
  821MOL0     H 8337   4.714   1.476   3.597 -0.6876  0.5326  2.1380
  821MOL0     H 8338   5.017   1.248   3.573 -3.8111  1.3212 -0.1532
  821MOL0     H 8339   4.978   1.156   3.713 -0.9111 -2.7724 -5.0226
  821MOL0     H 8340   5.181   1.393   3.720 -2.2744  2.4429  3.2762
  821MOL0     H 8341   5.197   1.216   3.731  0.4530  0.8425 -0.6520
  821MOL0     H 8342   5.019   1.368   3.933  0.7171  0.4119  0.6231
  821MOL0     H 8343   5.197   1.349   3.951  0.8376 -2.7396 -0.1506
  821MOL0     H 8344   5.035   1.190   4.089 -1.5933  1.2306 -2.1129
  821MOL0     H 8345   5.001   1.113   3.948 -4.5976  4.2519  1.7462
  821MOL0     H 8346   5.282   1.152   4.069 -0.0300  0.4814 -0.2549
  821MOL0     H 8347   5.264   1.052   3.933  0.2391 -1.7686  1.5300
  821MOL0     H 8348   5.078   0.921   4.057  0.3963  2.2987 -3.2910
  821MOL0     H 8349   5.126   1.007   4.202 -1.7164  1.7518 -0.6027
  821MOL0     H 8350   5.302   0.816   4.030  1.4436 -3.8163  2.0762
  821MOL0     H 8351   5.369   0.923   4.155  0.0030  1.0583 -2.0421
  821MOL0     H 8352   5.223   0.791   4.319  0.8607  0.5589  0.5426
  821MOL0     H 8353   5.332   0.691   4.226  0.1710 -0.7566 -0.6519
  821MOL0     H 8354   4.793   1.117   3.809 -0.7263 -3.3709 -1.7387
  821MOL0     H 8355   4.564   1.029   3.756  0.7705  0.3688  0.5208
  821MOL0     H 8356   4.260   0.974   3.708 -0.1511 -1.1620 -0.5217
  821MOL0     H 8357   4.101   0.801   3.677 -1.0745  0.3965  1.2846
  821MOL0     H 8358   2.093   0.829   3.645 -1.5159 -1.5749  1.3093
  821MOL0     H 8359   1.924   0.992   3.734  0.1662  1.9128 -0.9899
  821MOL0     H 8360   1.860   1.366   4.037 -0.7996  2.5504  1.6933
  821MOL0     H 8361   1.724   1.524   4.082  0.6553  1.8771 -3.6209
  821MOL0     H 8362   1.379   1.703   4.035  1.1019  0.6155 -2.9423
  821MOL0     H 8363   1.539   1.658   3.983 -0.2724  1.3775 -0.8581
  821MOL0     H 8364   1.434   1.712   4.265 -2.7673  2.1969 -2.9438
  821MOL0     H 8365   1.602   1.656   4.229 -1.3262 -1.4661 -1.1955
  821MOL0     H 8366   1.574   1.934   4.236 -0.9008 -1.4694  1.1074
  821MOL0     H 8367   1.510   1.889   4.073  0.9350 -2.7376 -1.4710
  821MOL0     H 8368   1.796   1.835   4.194  1.8179 -1.0232 -1.8277
  821MOL0     H 8369   1.726   1.784   4.035 -0.5425  0.9694 -0.9279
  821MOL0     H 8370   1.821   2.159   3.928  1.2326  0.3361  0.6337
  821MOL0     H 8371   1.381   1.251   4.028  1.5352 -5.3772  0.6051
  821MOL0     H 8372   1.546   1.085   3.982  2.5542 -0.6647 -2.6411
  822MOL0     O 8373   6.768   1.239   9.948  0.1547 -0.4454  0.1325
  822MOL0     C 8374   6.646   1.233   9.906  0.3724 -0.7345  0.4099
  822MOL0     O 8375   6.543   1.303   9.957 -0.3515 -0.2522  1.0371
  822MOL0     C 8376   6.563   1.385  10.066 -0.7280 -0.7915  0.0606
  822MOL0     C 8377   6.518   1.519  10.064  0.5731  0.7849  0.1484
  822MOL0     C 8378   6.539   1.596  10.179  0.1108  0.3681  0.9537
  822MOL0     C 8379   6.598   1.550  10.286 -0.4250  0.4009  0.5556
  822MOL0     O 8380   6.612   1.629  10.392  0.2615 -0.2757 -0.1600
  822MOL0     C 8381   6.485   1.688  10.437 -0.5482 -0.1267  0.0282
  822MOL0     C 8382   6.486   1.747  10.574 -0.0689 -0.2560  0.3648
  822MOL0     C 8383   6.584   1.868  10.591  0.1126 -0.1422  1.0187
  822MOL0     C 8384   6.547   1.943  10.717  0.1829  0.8746  0.9019
  822MOL0     C 8385   6.659   2.050  10.759  0.6872  0.0028 -0.1085
  822MOL0     C 8386   6.641   2.091  10.910  0.5111 -0.4166  0.5118
  822MOL0     C 8387   6.741   2.208  10.945 -0.1639 -0.6695  0.2530
  822MOL0     C 8388   6.722   2.286  11.075 -0.3228  0.8498 -0.3266
  822MOL0     N 8389   6.855   2.317  11.134 -0.2901 -0.4600 -0.1111
  822MOL0     C 8390   6.950   2.226  11.182  0.3600 -0.2438 -0.4993
  822MOL0     C 8391   7.060   2.300  11.186  0.9518 -0.6998  0.0062
  822MOL0     C 8392   7.191   2.265  11.244 -1.5611  0.3486 -0.2556
  822MOL0     C 8393   7.206   2.283  11.400  0.5287 -0.1836 -0.3877
  822MOL0     C 8394   7.085   2.239  11.486 -0.1508 -0.0216 -0.4338
  822MOL0     C 8395   7.110   2.290  11.631 -0.9235 -0.8070  0.2402
  822MOL0     O 8396   7.240   2.260  11.680 -0.3579 -0.1021  0.2538
  822MOL0     C 8397   7.267   2.147  11.746 -0.5596 -0.2528  1.2250
  822MOL0     C 8398   7.382   2.134  11.821  0.6135 -0.3639  1.0210
  822MOL0     C 8399   7.404   2.026  11.907 -0.2407 -1.0239  0.0934
  822MOL0     C 8400   7.311   1.919  11.915  1.0564  0.0152  0.0032
  822MOL0     C 8401   7.341   1.795  11.986  0.5745  0.7741 -0.3690
  822MOL0     O 8402   7.428   1.794  12.090 -0.0973  0.5821  0.4173
  822MOL0     C 8403   7.456   1.675  12.160  0.1486 -0.5006  0.5562
  822MOL0     C 8404   7.449   1.692  12.299 -0.1104  1.1863 -0.3799
  822MOL0     C 8405   7.459   1.577  12.378 -0.3797 -0.6503 -0.0219
  822MOL0     C 8406   7.470   1.450  12.326 -0.8280  0.5295  0.7171
  822MOL0     O 8407   7.472   1.347  12.416 -0.1105 -1.1734  0.9149
  822MOL0     C 8408   7.476   1.214  12.373  0.4456 -0.4742  0.0779
  822MOL0     C 8409   7.446   1.146  12.506 -0.0425 -0.2569  0.3203
  822MOL0     C 8410   7.524   1.186  12.629 -1.4924  0.5384  0.6826
  822MOL0     C 8411   7.470   1.109  12.748  0.6858 -0.0910  0.9599
  822MOL0     C 8412   7.524   1.142  12.892 -0.0852  0.1535 -0.2524
  822MOL0     C 8413   7.480   1.272  12.955 -0.6095  0.6990  0.3972
  822MOL0     C 8414   7.499   1.306  13.103  0.2998 -0.4041 -0.6480
  822MOL0     C 8415   7.418   1.438  13.144 -0.2790  0.3212  0.2019
  822MOL0    Cl 8416   7.247   1.411  13.111 -0.1838  0.0620  0.1966
  822MOL0     C 8417   7.485   1.434  12.181  0.2125  0.1872 -0.2434
  822MOL0     C 8418   7.473   1.549  12.104 -0.0731  0.8618  0.4546
  822MOL0     O 8419   7.258   1.711  11.959  0.0962 -0.2431 -0.0675
  822MOL0     C 8420   7.193   1.931  11.835 -0.2531  0.5476 -0.1642
  822MOL0     C 8421   7.179   2.043  11.747 -0.5027  0.2928 -0.3940
  822MOL0     N 8422   7.033   2.431  11.143 -0.2946 -0.1552 -0.2032
  822MOL0     N 8423   6.911   2.437  11.117  0.0470 -0.3898  0.3211
  822MOL0     C 8424   6.651   1.425  10.288  0.3329 -0.5323 -0.9891
  822MOL0     C 8425   6.641   1.338  10.181 -0.6550  0.3601 -0.7990
  822MOL0     C 8426   6.616   1.149   9.802 -0.5762  0.2410  0.9706
  822MOL0     C 8427   6.721   1.076   9.740 -0.3776 -0.0122  0.2832
  822MOL0     C 8428   6.705   0.986   9.638 -0.0363 -0.1347 -0.1745
  822MOL0     C 8429   6.580   0.971   9.583  0.2156 -0.3844  0.0764
  822MOL0     O 8430   6.573   0.877   9.474  0.6316 -0.0945 -0.0880
  822MOL0     C 8431   6.448   0.814   9.454  0.5495  1.0577  0.1661
  822MOL0     C 8432   6.391   0.728   9.567 -0.1529  0.2095 -0.4198
  822MOL0     C 8433   6.239   0.728   9.584 -0.8850 -0.4629 -0.5264
  822MOL0     C 8434   6.159   0.681   9.465  0.3654 -0.0624  0.3794
  822MOL0     C 8435   6.106   0.544   9.487 -0.3546  0.1420  0.2876
  822MOL0     C 8436   6.055   0.437   9.504 -0.7945  0.0707 -0.4310
  822MOL0     C 8437   6.471   1.031   9.649  0.2994 -0.5525  0.1590
  822MOL0     C 8438   6.484   1.121   9.753  0.0047  0.1051 -0.2093
  822MOL0     H 8439   6.478   1.565   9.975  2.8565  0.5285 -1.0808
  822MOL0     H 8440   6.508   1.700  10.170 -2.4242 -0.1955  2.4778
  822MOL0     H 8441   6.406   1.613  10.435 -0.2278 -0.5643  1.6839
  822MOL0     H 8442   6.444   1.768  10.375 -2.4418 -2.4872 -1.9486
  822MOL0     H 8443   6.524   1.667  10.639  1.4442  1.6221  1.9501
  822MOL0     H 8444   6.383   1.763  10.607 -0.8529 -2.4949 -0.8246
  822MOL0     H 8445   6.571   1.928  10.501 -0.1593 -1.8688 -0.1357
  822MOL0     H 8446   6.690   1.842  10.603  0.5363  2.1029  2.7390
  822MOL0     H 8447   6.445   1.982  10.712 -0.0917  0.1175 -3.5325
  822MOL0     H 8448   6.551   1.868  10.796  1.1246 -2.9300 -2.4027
  822MOL0     H 8449   6.640   2.128  10.684  2.5131 -0.7626 -1.4509
  822MOL0     H 8450   6.760   2.012  10.743  1.3503  1.7777 -0.2786
  822MOL0     H 8451   6.664   1.998  10.962  2.1969 -1.3052 -1.6843
  822MOL0     H 8452   6.543   2.130  10.942  0.8461  2.1316 -1.2027
  822MOL0     H 8453   6.848   2.187  10.934  0.6796  1.6782  2.6430
  822MOL0     H 8454   6.712   2.285  10.872  1.9416  0.4044  0.4514
  822MOL0     H 8455   6.659   2.225  11.140 -1.0572  0.4741 -1.3499
  822MOL0     H 8456   6.671   2.376  11.038 -0.8579  1.1520  1.0928
  822MOL0     H 8457   6.949   2.123  11.214  0.9041 -1.6306 -4.4354
  822MOL0     H 8458   7.264   2.325  11.189  0.9832 -0.0423  2.4083
  822MOL0     H 8459   7.214   2.159  11.232 -0.5016  0.5812 -0.3561
  822MOL0     H 8460   7.229   2.388  11.420  2.3120 -0.5412 -0.4463
  822MOL0     H 8461   7.287   2.219  11.436 -3.6963 -6.1623  0.0852
  822MOL0     H 8462   7.000   2.300  11.453 -0.6642  1.0528  2.5993
  822MOL0     H 8463   7.067   2.131  11.483  1.8910 -0.5529  2.2830
  822MOL0     H 8464   7.029   2.244  11.688 -3.2431 -0.1588 -2.2931
  822MOL0     H 8465   7.096   2.398  11.637 -1.5307 -0.9381  1.5001
  822MOL0     H 8466   7.467   2.202  11.812  0.5742 -0.3035  1.1055
  822MOL0     H 8467   7.506   2.013  11.942  0.9969  1.5650 -2.2100
  822MOL0     H 8468   7.441   1.789  12.349  0.2471  1.6004 -1.1104
  822MOL0     H 8469   7.457   1.592  12.486  0.1806 -0.4008 -0.0444
  822MOL0     H 8470   7.571   1.171  12.340 -0.6383 -3.2215  0.2652
  822MOL0     H 8471   7.399   1.177  12.304 -1.6095  1.2905  1.3103
  822MOL0     H 8472   7.456   1.037  12.496 -0.4067 -0.6945  3.6267
  822MOL0     H 8473   7.343   1.178  12.526 -0.2754  1.1375 -2.4949
  822MOL0     H 8474   7.522   1.293  12.652  1.9361  1.3730 -2.0774
  822MOL0     H 8475   7.630   1.165  12.613 -2.1894 -3.0177  0.0675
  822MOL0     H 8476   7.367   1.145  12.760  0.3140  0.9938 -3.7210
  822MOL0     H 8477   7.468   1.002  12.728  0.9321 -0.0657  0.8007
  822MOL0     H 8478   7.633   1.129  12.895  0.1063  0.8406 -2.7182
  822MOL0     H 8479   7.470   1.065  12.948 -0.1782  2.1344  2.6404
  822MOL0     H 8480   7.375   1.270  12.924 -0.8747  0.9441  1.2709
  822MOL0     H 8481   7.529   1.360  12.912  0.4227 -0.3608 -0.6979
  822MOL0     H 8482   7.464   1.227  13.170  1.6775  1.2926  2.2486
  822MOL0     H 8483   7.606   1.320  13.125  0.4659 -0.2528 -1.5044
  822MOL0     H 8484   7.460   1.525  13.092 -0.4242  0.2626 -0.0133
  822MOL0     H 8485   7.423   1.451  13.253 -3.9268 -0.3941  0.5706
  822MOL0     H 8486   7.499   1.336  12.136 -2.2980 -1.6113  2.4335
  822MOL0     H 8487   7.467   1.534  11.997  0.7890 -2.0277  0.7117
  822MOL0     H 8488   7.118   1.853  11.827 -3.4747  3.3540  0.3654
  822MOL0     H 8489   7.092   2.034  11.682 -0.6956  0.4179 -0.1564
  822MOL0     H 8490   6.698   1.396  10.382 -0.1558 -0.0656 -0.5948
  822MOL0     H 8491   6.683   1.238  10.189  0.4913  0.8132 -0.9515
  822MOL0     H 8492   6.812   1.077   9.800 -1.9060 -0.3574  2.7727
  822MOL0     H 8493   6.790   0.923   9.615 -1.6885 -2.2192 -0.8589
  822MOL0     H 8494   6.445   0.752   9.364 -1.1789 -0.5758  1.2587
  822MOL0     H 8495   6.391   0.905   9.435  2.9770  2.6468  0.0831
  822MOL0     H 8496   6.412   0.621   9.573  0.4165  0.2575 -1.4188
  822MOL0     H 8497   6.439   0.772   9.655  0.2146 -1.2251  0.1137
  822MOL0     H 8498   6.214   0.829   9.619  2.9651  0.6472 -0.5683
  822MOL0     H 8499   6.209   0.664   9.668  0.0783 -1.0963 -0.6500
  822MOL0     H 8500   6.071   0.745   9.468  0.4897  0.0792  1.6404
  822MOL0     H 8501   6.208   0.700   9.369  1.2381 -2.5516  0.2597
  822MOL0     H 8502   6.006   0.343   9.484 -2.4508  0.8184 -0.0416
  822MOL0     H 8503   6.367   1.023   9.619  0.9604 -0.6458 -2.3187
  822MOL0     H 8504   6.401   1.173   9.799 -0.0077  1.0773 -1.2753
  823MOL0     O 8505   6.153   0.495   3.895  0.3222 -0.5800 -0.1991
  823MOL0     C 8506   6.152   0.371   3.886  0.2007 -0.4207  0.0605
  823MOL0     O 8507   6.233   0.292   3.805 -0.0442  0.0399 -0.3757
  823MOL0     C 8508   6.302   0.344   3.700 -0.5980  0.2988 -0.2518
  823MOL0     C 8509   6.354   0.479   3.700 -0.8982  0.3519 -0.4790
  823MOL0     C 8510   6.435   0.512   3.587  0.2112 -0.6431  0.2257
  823MOL0     C 8511   6.459   0.424   3.480  0.0464  0.3289 -0.1231
  823MOL0     O 8512   6.542   0.465   3.387 -0.3430 -0.4569  0.0314
  823MOL0     C 8513   6.480   0.527   3.269 -0.9628  0.1350 -0.7284
  823MOL0     C 8514   6.566   0.531   3.145 -0.1823 -1.2181 -0.3622
  823MOL0     C 8515   6.715   0.581   3.168 -0.7042  0.4533 -0.1903
  823MOL0     C 8516   6.781   0.596   3.035  0.2672 -0.1159  0.9428
  823MOL0     C 8517   6.935   0.641   3.035  0.5186 -0.3288 -0.4597
  823MOL0     C 8518   7.026   0.590   3.151  0.8641  0.0495 -0.7960
  823MOL0     C 8519   7.075   0.447   3.125  0.9997  0.5963 -0.6836
  823MOL0     C 8520   7.110   0.358   3.243 -0.6475  0.6717  0.3625
  823MOL0     N 8521   7.210   0.419   3.334  0.1073 -0.3962 -0.1591
  823MOL0     C 8522   7.176   0.491   3.445  1.2116 -0.1630 -0.4116
  823MOL0     C 8523   7.295   0.499   3.513  0.4921  0.8280 -0.1166
  823MOL0     C 8524   7.300   0.578   3.651 -0.3566 -0.2835  0.4145
  823MOL0     C 8525   7.437   0.639   3.687  1.1611 -0.0092  1.0447
  823MOL0     C 8526   7.492   0.617   3.836  1.5182 -0.2801  0.4673
  823MOL0     C 8527   7.536   0.475   3.855  0.3886 -0.8353 -0.0991
  823MOL0     O 8528   7.509   0.434   3.990  0.4025  0.6155 -0.0003
  823MOL0     C 8529   7.596   0.346   4.051  0.1277  0.5736 -0.4168
  823MOL0     C 8530   7.548   0.298   4.179  0.1892 -0.0333 -0.5442
  823MOL0     C 8531   7.642   0.226   4.264  0.5794  0.8817  0.3399
  823MOL0     C 8532   7.760   0.182   4.217  0.1040 -0.6871 -0.4943
  823MOL0     C 8533   7.861   0.118   4.309  0.0388 -0.3700  0.6459
  823MOL0     O 8534   7.989   0.099   4.260  0.4269  0.0062 -0.1275
  823MOL0     C 8535   8.092   0.062   4.341  0.8923  0.4034  0.3899
  823MOL0     C 8536   8.078  -0.056   4.423 -0.1515 -0.4521 -0.5847
  823MOL0     C 8537   8.189  -0.114   4.493  0.1735 -1.0037  0.2343
  823MOL0     C 8538   8.312  -0.066   4.470  0.1012  0.6520  0.1380
  823MOL0     O 8539   8.422  -0.124   4.534  1.0479  0.1312 -0.2260
  823MOL0     C 8540   8.552  -0.136   4.477  0.5961  0.3814  0.6681
  823MOL0     C 8541   8.593  -0.273   4.520  0.6322  0.1062 -0.1323
  823MOL0     C 8542   8.743  -0.279   4.489 -0.1377  0.4208  0.1438
  823MOL0     C 8543   8.801  -0.421   4.456  0.0774 -0.4029  0.1648
  823MOL0     C 8544   8.796  -0.523   4.582  0.2782  0.0770 -0.6565
  823MOL0     C 8545   8.892  -0.480   4.698 -0.1633  0.0224  0.3712
  823MOL0     C 8546   9.035  -0.511   4.657  0.3375 -0.3703 -0.1658
  823MOL0     C 8547   9.127  -0.552   4.773  0.3459 -0.2312  0.3407
  823MOL0    Cl 8548   9.253  -0.655   4.700 -0.2556  0.1965 -0.1423
  823MOL0     C 8549   8.328   0.045   4.390  0.1082 -0.4800  0.1839
  823MOL0     C 8550   8.218   0.113   4.325  0.1682  0.3340 -1.5267
  823MOL0     O 8551   7.828   0.104   4.426 -0.4617 -0.6249  0.0087
  823MOL0     C 8552   7.789   0.218   4.080 -0.6552  1.0771  0.2263
  823MOL0     C 8553   7.716   0.296   3.994 -1.0577  0.5110 -0.7661
  823MOL0     N 8554   7.400   0.446   3.439  0.1398  0.4025 -1.1082
  823MOL0     N 8555   7.346   0.391   3.337 -0.7585  0.3513  0.1666
  823MOL0     C 8556   6.398   0.296   3.475 -0.3191 -0.5994  0.2956
  823MOL0     C 8557   6.328   0.257   3.588  0.1772 -0.2576  0.0513
  823MOL0     C 8558   6.056   0.307   3.984  0.4379 -0.6238  0.2785
  823MOL0     C 8559   6.045   0.164   3.998 -1.2096 -0.2715 -0.3344
  823MOL0     C 8560   5.942   0.105   4.076  0.2368 -0.2079  0.0479
  823MOL0     C 8561   5.861   0.189   4.154 -0.7122 -0.0002 -0.3445
  823MOL0     O 8562   5.758   0.131   4.231 -0.9714 -0.6218 -0.2384
  823MOL0     C 8563   5.755  -0.010   4.243 -0.2210  0.2274 -0.4464
  823MOL0     C 8564   5.652  -0.038   4.351  0.4707 -0.2142  0.8939
  823MOL0     C 8565   5.727  -0.084   4.480 -0.5345 -0.3110 -0.1962
  823MOL0     C 8566   5.635  -0.085   4.610 -0.4297 -0.4193 -0.5968
  823MOL0     C 8567   5.516  -0.168   4.593  0.5082 -0.1179  0.4170
  823MOL0     C 8568   5.433  -0.251   4.586  1.4673  0.2137 -0.3390
  823MOL0     C 8569   5.878   0.323   4.160  0.3009  0.6583 -0.5826
  823MOL0     C 8570   5.964   0.387   4.058 -0.0695  0.3234  0.3224
  823MOL0     H 8571   6.339   0.549   3.782  2.4165  1.1351 -0.4188
  823MOL0     H 8572   6.483   0.607   3.569  1.6498 -1.7290 -2.2418
  823MOL0     H 8573   6.455   0.630   3.295  2.8049  0.7939  1.0167
  823MOL0     H 8574   6.382   0.496   3.233 -0.3402 -1.5869 -1.0236
  823MOL0     H 8575   6.512   0.596   3.075 -0.7889 -1.0932  0.2112
  823MOL0     H 8576   6.581   0.426   3.117  1.1694 -1.4123  0.9563
  823MOL0     H 8577   6.773   0.503   3.218  0.3656  2.1772  1.4096
  823MOL0     H 8578   6.721   0.679   3.217 -0.5147  0.9864 -1.2298
  823MOL0     H 8579   6.781   0.497   2.988  0.1171  1.2862 -2.2621
  823MOL0     H 8580   6.725   0.665   2.972 -1.5433 -2.8219 -0.6305
  823MOL0     H 8581   6.941   0.750   3.030 -0.6703 -0.0996  1.6154
  823MOL0     H 8582   6.973   0.623   2.934 -0.4314  1.4862 -1.1707
  823MOL0     H 8583   6.983   0.605   3.250  2.2489  0.1179 -0.1731
  823MOL0     H 8584   7.115   0.655   3.152 -0.0433  1.4153 -2.5484
  823MOL0     H 8585   6.993   0.400   3.069 -1.1578  3.5644 -0.2886
  823MOL0     H 8586   7.167   0.447   3.066  0.6518  2.8594 -1.3219
  823MOL0     H 8587   7.154   0.266   3.202 -6.0356 -2.0198 -0.2001
  823MOL0     H 8588   7.021   0.315   3.290 -1.3483  0.0867 -1.4034
  823MOL0     H 8589   7.081   0.531   3.477 -0.0397 -2.1954 -1.4268
  823MOL0     H 8590   7.265   0.505   3.726  1.3163 -0.2010  1.3330
  823MOL0     H 8591   7.227   0.659   3.645 -0.1822 -0.2394 -1.5891
  823MOL0     H 8592   7.425   0.748   3.683 -0.4939 -0.2177 -1.0263
  823MOL0     H 8593   7.513   0.592   3.625 -1.3251 -0.1781 -2.1412
  823MOL0     H 8594   7.574   0.688   3.851  1.4582  0.7437 -3.1809
  823MOL0     H 8595   7.416   0.647   3.909  1.4342 -0.6909  0.5540
  823MOL0     H 8596   7.646   0.471   3.849  0.6042 -0.2747  2.5522
  823MOL0     H 8597   7.484   0.406   3.788 -1.1414 -0.9259  1.1437
  823MOL0     H 8598   7.449   0.332   4.208  0.1682  0.9970 -1.7345
  823MOL0     H 8599   7.610   0.209   4.366  0.7522  3.1788  0.8331
  823MOL0     H 8600   7.990  -0.116   4.444  1.5036 -2.5274  0.9405
  823MOL0     H 8601   8.181  -0.205   4.553  0.3584 -1.7643 -0.8719
  823MOL0     H 8602   8.615  -0.059   4.523 -0.4494  0.8399  1.3720
  823MOL0     H 8603   8.538  -0.133   4.368  0.1793  0.7673  0.7265
  823MOL0     H 8604   8.530  -0.354   4.483 -2.3296  1.5001  1.4456
  823MOL0     H 8605   8.579  -0.278   4.628 -0.3818 -0.6160 -0.2844
  823MOL0     H 8606   8.802  -0.237   4.571  0.0651  1.2504 -0.4206
  823MOL0     H 8607   8.763  -0.213   4.404 -0.4722  0.4839  0.1144
  823MOL0     H 8608   8.739  -0.468   4.381  0.1531  0.2370 -0.3117
  823MOL0     H 8609   8.900  -0.407   4.412 -0.8835  1.4414 -1.5715
  823MOL0     H 8610   8.815  -0.625   4.547 -3.1440 -0.0708 -2.6236
  823MOL0     H 8611   8.690  -0.536   4.605 -0.0331  0.4028 -1.8234
  823MOL0     H 8612   8.861  -0.535   4.787  1.9239 -0.3097  0.9385
  823MOL0     H 8613   8.881  -0.372   4.715  0.5624  0.2859 -0.7229
  823MOL0     H 8614   9.040  -0.595   4.587  0.9420  1.7073 -2.7826
  823MOL0     H 8615   9.083  -0.425   4.611  0.7010 -0.1281  0.6393
  823MOL0     H 8616   9.071  -0.603   4.852  3.2279 -2.1581  1.3020
  823MOL0     H 8617   9.182  -0.467   4.814  1.0489 -1.3528  1.7968
  823MOL0     H 8618   8.425   0.090   4.370 -1.1482  2.7542  0.7687
  823MOL0     H 8619   8.228   0.200   4.261 -1.0355  2.7511  1.3431
  823MOL0     H 8620   7.866   0.161   4.030 -0.9967  0.9324 -0.1398
  823MOL0     H 8621   7.758   0.311   3.895 -0.4751 -0.5129 -0.6852
  823MOL0     H 8622   6.410   0.236   3.385 -1.0228 -2.0367  1.1165
  823MOL0     H 8623   6.288   0.158   3.608  0.5007 -0.2756  0.6378
  823MOL0     H 8624   6.119   0.104   3.947 -0.0405  0.6286  0.2650
  823MOL0     H 8625   5.941  -0.004   4.078 -0.4031 -0.2632  3.6851
  823MOL0     H 8626   5.852  -0.055   4.268  0.3303  0.5171 -1.9406
  823MOL0     H 8627   5.730  -0.058   4.148  0.7403  2.1925 -1.7394
  823MOL0     H 8628   5.591   0.050   4.372 -1.8334 -1.6957  0.7496
  823MOL0     H 8629   5.587  -0.116   4.310 -0.7541  1.1148  0.1862
  823MOL0     H 8630   5.807  -0.015   4.506 -0.2764 -1.0862  1.1695
  823MOL0     H 8631   5.766  -0.180   4.444  1.1180  0.0089  0.6466
  823MOL0     H 8632   5.690  -0.131   4.693  0.8554 -0.2239 -1.3124
  823MOL0     H 8633   5.602   0.017   4.628 -4.1668 -1.2794 -1.5860
  823MOL0     H 8634   5.362  -0.331   4.588  1.6814 -0.0111 -1.3211
  823MOL0     H 8635   5.806   0.381   4.216  1.1713  1.3278 -0.1428
  823MOL0     H 8636   5.964   0.496   4.064  0.4475  0.2695  5.4269
  824MOL0     O 8637   4.373   2.322   6.510  0.1373  0.1142 -0.8820
  824MOL0     C 8638   4.389   2.393   6.410  1.5567 -1.0510 -0.3504
  824MOL0     O 8639   4.509   2.415   6.342 -0.7829 -0.1402 -0.3987
  824MOL0     C 8640   4.627   2.360   6.375  0.0840 -0.2106  0.3469
  824MOL0     C 8641   4.716   2.316   6.275 -0.2115 -0.3010  0.1243
  824MOL0     C 8642   4.844   2.267   6.306  0.6213  0.0548 -0.4871
  824MOL0     C 8643   4.884   2.260   6.442  0.0189 -0.4170 -0.3200
  824MOL0     O 8644   5.011   2.214   6.465 -0.1309 -0.7874 -0.0838
  824MOL0     C 8645   5.033   2.191   6.604 -0.4740  0.1882  0.3196
  824MOL0     C 8646   5.179   2.139   6.628  1.1635 -0.1825  0.4367
  824MOL0     C 8647   5.236   2.048   6.513 -0.3349  0.1598 -0.4159
  824MOL0     C 8648   5.353   1.956   6.565 -0.9615  0.5959  0.7436
  824MOL0     C 8649   5.430   1.879   6.461  0.2556  0.3317  0.2366
  824MOL0     C 8650   5.486   1.945   6.333  0.0377 -0.6036  0.5741
  824MOL0     C 8651   5.594   2.045   6.349  0.3488 -0.1513  0.3369
  824MOL0     C 8652   5.689   2.070   6.231 -0.0358  0.2276 -0.7587
  824MOL0     N 8653   5.625   2.125   6.107 -0.7512  0.3013  0.9367
  824MOL0     C 8654   5.581   2.255   6.098 -0.0498 -0.2810 -0.4456
  824MOL0     C 8655   5.551   2.268   5.964  0.2828 -0.3069  0.2788
  824MOL0     C 8656   5.490   2.381   5.886 -0.4827 -0.6389  0.3620
  824MOL0     C 8657   5.430   2.345   5.750 -0.6842 -0.2627 -0.5209
  824MOL0     C 8658   5.400   2.471   5.663 -0.5997  0.4605  0.0502
  824MOL0     C 8659   5.319   2.429   5.542  0.4988  0.0227 -0.5993
  824MOL0     O 8660   5.325   2.524   5.440 -0.0025  0.3223  0.4620
  824MOL0     C 8661   5.213   2.576   5.371  1.0734  0.5564  0.0217
  824MOL0     C 8662   5.112   2.634   5.451  0.2004 -0.0494  0.0246
  824MOL0     C 8663   5.007   2.705   5.385  0.5049 -0.1162  0.0420
  824MOL0     C 8664   5.008   2.724   5.246 -0.4881 -0.4186  0.1230
  824MOL0     C 8665   4.923   2.821   5.168 -0.5728 -0.8865 -2.0360
  824MOL0     O 8666   4.853   2.909   5.251 -0.5423  0.9383  0.5348
  824MOL0     C 8667   4.780   3.010   5.194 -0.4986 -0.8598 -0.1696
  824MOL0     C 8668   4.642   3.024   5.214  0.6238 -0.2107 -0.3792
  824MOL0     C 8669   4.573   3.143   5.171  0.2292 -0.1387  0.7857
  824MOL0     C 8670   4.637   3.258   5.109 -0.6348  0.2274  0.5999
  824MOL0     O 8671   4.576   3.367   5.067  0.4334 -0.2756 -0.4051
  824MOL0     C 8672   4.440   3.365   5.030 -0.3251 -1.3202 -0.6758
  824MOL0     C 8673   4.412   3.476   4.926 -0.0020  1.0803  0.3824
  824MOL0     C 8674   4.260   3.506   4.907 -0.1953 -0.8931  0.7393
  824MOL0     C 8675   4.179   3.396   4.858 -0.3786  0.4759 -0.5544
  824MOL0     C 8676   4.027   3.421   4.838  0.6727  0.4797 -0.2638
  824MOL0     C 8677   3.955   3.481   4.969 -0.5379 -0.9326  0.9644
  824MOL0     C 8678   3.805   3.503   4.954 -0.3251  0.4143 -0.2930
  824MOL0     C 8679   3.719   3.373   4.951 -0.3313 -0.4267  0.0841
  824MOL0    Cl 8680   3.621   3.373   4.806  0.0017 -0.2053  0.2687
  824MOL0     C 8681   4.768   3.241   5.090  0.0833 -0.5756 -0.2310
  824MOL0     C 8682   4.844   3.126   5.133  0.6800 -0.1424  0.3267
  824MOL0     O 8683   4.920   2.820   5.044  0.5419  0.4882 -0.0711
  824MOL0     C 8684   5.120   2.665   5.174  0.7193  0.5541  0.2571
  824MOL0     C 8685   5.217   2.585   5.238  0.8677 -0.5096  0.4528
  824MOL0     N 8686   5.586   2.143   5.898 -0.4842 -0.8435 -0.7983
  824MOL0     N 8687   5.636   2.064   5.982  0.5321  0.3255 -0.3863
  824MOL0     C 8688   4.796   2.311   6.541  0.3681  0.9647 -0.1570
  824MOL0     C 8689   4.664   2.361   6.515 -0.0933  0.2001  0.4529
  824MOL0     C 8690   4.268   2.449   6.337  0.4437 -0.6872  0.3232
  824MOL0     C 8691   4.136   2.408   6.374  0.4770 -0.1450 -0.1718
  824MOL0     C 8692   4.033   2.466   6.306 -0.1418 -0.7741 -0.1436
  824MOL0     C 8693   4.055   2.545   6.190  0.0493 -0.0793  0.2566
  824MOL0     O 8694   3.952   2.602   6.115  1.3793 -0.3293 -0.0627
  824MOL0     C 8695   3.819   2.583   6.153 -0.0165  0.5574  0.0521
  824MOL0     C 8696   3.740   2.653   6.049 -0.5711 -0.8163  0.3793
  824MOL0     C 8697   3.584   2.653   6.061 -0.2487 -0.3297  0.6961
  824MOL0     C 8698   3.504   2.697   5.944  0.4697 -0.2697 -0.3386
  824MOL0     C 8699   3.390   2.774   5.991  0.3571  0.0365 -0.1320
  824MOL0     C 8700   3.302   2.853   6.011 -0.4266 -0.2469 -0.0773
  824MOL0     C 8701   4.186   2.575   6.153  0.0416 -0.1257 -0.5905
  824MOL0     C 8702   4.297   2.530   6.225  0.1624 -0.0951 -0.2746
  824MOL0     H 8703   4.677   2.336   6.175  0.8052  1.3112  0.0206
  824MOL0     H 8704   4.910   2.216   6.236  2.3529 -0.4383  1.4102
  824MOL0     H 8705   4.956   2.123   6.642 -2.4256  2.4334  0.6238
  824MOL0     H 8706   5.031   2.288   6.656  1.5765  0.8219 -0.6949
  824MOL0     H 8707   5.181   2.081   6.721 -3.2000 -1.7911 -0.2203
  824MOL0     H 8708   5.244   2.226   6.638 -0.4550  1.4563 -2.2610
  824MOL0     H 8709   5.273   2.117   6.436  0.4718 -1.2873 -1.3717
  824MOL0     H 8710   5.166   1.969   6.483  1.8390 -1.0205 -2.7760
  824MOL0     H 8711   5.422   2.018   6.622 -0.1183 -0.5826  1.0523
  824MOL0     H 8712   5.318   1.884   6.640  2.4891 -0.5389  1.4458
  824MOL0     H 8713   5.358   1.805   6.423  0.8247  0.3033 -0.8098
  824MOL0     H 8714   5.515   1.826   6.504  2.2862  2.5630 -0.8483
  824MOL0     H 8715   5.416   1.989   6.262 -0.1925 -0.9846  0.5590
  824MOL0     H 8716   5.520   1.867   6.263 -0.8095  0.5177 -1.1687
  824MOL0     H 8717   5.552   2.142   6.378  1.7033  0.5969 -0.1729
  824MOL0     H 8718   5.655   2.018   6.435 -0.3876  0.5754  1.1123
  824MOL0     H 8719   5.737   1.974   6.214 -1.7947 -1.2308  1.8067
  824MOL0     H 8720   5.766   2.138   6.267 -0.8793  0.1586  1.3740
  824MOL0     H 8721   5.562   2.324   6.179 -2.2231 -1.5104  0.1898
  824MOL0     H 8722   5.572   2.453   5.872 -2.8322  2.3197  0.8025
  824MOL0     H 8723   5.414   2.436   5.942  0.5890  0.6224  0.6510
  824MOL0     H 8724   5.347   2.287   5.794  0.2509  0.6052  2.6701
  824MOL0     H 8725   5.487   2.269   5.695 -1.6630 -0.8083 -0.8093
  824MOL0     H 8726   5.343   2.534   5.732 -1.2578 -2.5220  2.4816
  824MOL0     H 8727   5.487   2.521   5.621 -2.4162  1.6780 -2.4857
  824MOL0     H 8728   5.215   2.401   5.560  0.6134 -1.1348 -1.5876
  824MOL0     H 8729   5.358   2.336   5.499 -0.9104 -1.2316  0.7055
  824MOL0     H 8730   5.134   2.631   5.557 -1.0067 -0.1323  0.2900
  824MOL0     H 8731   4.938   2.748   5.457 -0.1741 -1.4414  0.2144
  824MOL0     H 8732   4.591   2.957   5.282  0.1538  0.6853  0.1681
  824MOL0     H 8733   4.466   3.150   5.187  0.0600  1.2350 -0.6275
  824MOL0     H 8734   4.389   3.377   5.126  2.1439  4.2629  0.3583
  824MOL0     H 8735   4.421   3.270   4.980  0.9343 -0.2008 -3.5350
  824MOL0     H 8736   4.459   3.451   4.831 -2.1634  1.5211 -0.8784
  824MOL0     H 8737   4.459   3.569   4.958 -0.8339  2.1666 -1.3985
  824MOL0     H 8738   4.261   3.581   4.827  3.1873 -3.1273 -1.5848
  824MOL0     H 8739   4.220   3.537   5.004  1.4286 -1.0711  1.5019
  824MOL0     H 8740   4.219   3.358   4.763  0.6937  0.1461  0.0113
  824MOL0     H 8741   4.202   3.310   4.922  0.6230  0.3027 -1.1023
  824MOL0     H 8742   3.968   3.330   4.823 -0.8653  1.4581 -0.4535
  824MOL0     H 8743   4.018   3.489   4.752  0.2331 -0.8388 -1.2902
  824MOL0     H 8744   3.996   3.575   5.006 -2.0728 -0.7839  2.3843
  824MOL0     H 8745   3.973   3.402   5.043  0.7701 -2.0234 -0.4225
  824MOL0     H 8746   3.771   3.561   5.040  1.4331  0.3054  0.5087
  824MOL0     H 8747   3.795   3.563   4.863 -0.8617  0.1068 -0.4451
  824MOL0     H 8748   3.650   3.366   5.036 -0.9836  2.6533 -0.0867
  824MOL0     H 8749   3.787   3.288   4.958  2.6882  1.8579  0.6638
  824MOL0     H 8750   4.827   3.317   5.040 -1.0940 -0.3583 -1.3631
  824MOL0     H 8751   4.952   3.120   5.133  0.7138 -0.6415  2.5495
  824MOL0     H 8752   5.126   2.684   5.067 -3.5324 -0.7767 -0.4129
  824MOL0     H 8753   5.300   2.547   5.179 -0.5954 -1.7437 -0.9363
  824MOL0     H 8754   4.829   2.312   6.644  2.8071 -0.9633 -0.8073
  824MOL0     H 8755   4.600   2.402   6.593 -0.4266 -1.7563  1.2507
  824MOL0     H 8756   4.117   2.330   6.448 -0.5070  0.2496  0.0190
  824MOL0     H 8757   3.930   2.437   6.325 -0.1469  0.9338  3.0021
  824MOL0     H 8758   3.787   2.620   6.251  0.6291 -2.8769  1.6821
  824MOL0     H 8759   3.795   2.476   6.151  1.3269  0.2035 -3.0001
  824MOL0     H 8760   3.775   2.757   6.044 -2.7951 -0.0496 -0.1267
  824MOL0     H 8761   3.755   2.606   5.951 -0.1684  0.0593  0.0151
  824MOL0     H 8762   3.557   2.717   6.146  2.4266  1.5006  0.2901
  824MOL0     H 8763   3.553   2.551   6.087 -0.7308 -1.5324 -3.7837
  824MOL0     H 8764   3.563   2.766   5.882 -0.0115 -1.1788 -1.8639
  824MOL0     H 8765   3.481   2.612   5.879  3.8403  0.9963 -3.5507
  824MOL0     H 8766   3.220   2.917   6.038 -1.4303 -1.3039 -0.5615
  824MOL0     H 8767   4.200   2.635   6.063 -1.1639  3.8021  1.6070
  824MOL0     H 8768   4.397   2.565   6.203  0.9543 -1.9698  0.1801
  825MOL0     O 8769   1.985   0.670   2.680 -0.3180  0.2536  0.2638
  825MOL0     C 8770   2.024   0.572   2.613 -0.6240  0.0346  0.3039
  825MOL0     O 8771   2.000   0.555   2.483 -0.5607  0.2079  0.0488
  825MOL0     C 8772   1.968   0.660   2.402 -0.2927  0.3343 -0.0198
  825MOL0     C 8773   1.900   0.632   2.285  0.7001 -0.3294 -0.5200
  825MOL0     C 8774   1.885   0.732   2.184 -0.2954 -1.4406  0.6788
  825MOL0     C 8775   1.933   0.865   2.207 -0.5061 -0.8811 -0.2416
  825MOL0     O 8776   1.947   0.969   2.120 -0.3621 -0.9201  0.2657
  825MOL0     C 8777   1.881   0.950   1.997  0.2213 -0.7554  0.7858
  825MOL0     C 8778   1.857   1.086   1.937 -0.5079 -0.3215 -0.2258
  825MOL0     C 8779   1.807   1.062   1.789 -0.3419 -0.8829 -1.3401
  825MOL0     C 8780   1.838   1.186   1.707  0.3110  0.2183  0.2114
  825MOL0     C 8781   1.753   1.314   1.741  0.6048  0.1093 -1.4093
  825MOL0     C 8782   1.648   1.359   1.640 -0.4516  0.0299  0.0640
  825MOL0     C 8783   1.573   1.489   1.665  0.1689  0.0928  0.4059
  825MOL0     C 8784   1.476   1.514   1.549 -0.1067 -0.0462  0.0077
  825MOL0     N 8785   1.374   1.617   1.581 -0.0770 -0.6726 -0.1275
  825MOL0     C 8786   1.403   1.744   1.618  0.4956  0.0430  0.5205
  825MOL0     C 8787   1.287   1.805   1.668 -0.8591  0.8718  0.8658
  825MOL0     C 8788   1.274   1.946   1.700 -0.6283 -0.3048 -0.8794
  825MOL0     C 8789   1.174   2.024   1.612 -0.1672 -0.2317  0.1958
  825MOL0     C 8790   1.145   2.173   1.655 -0.2494  0.1779 -0.2461
  825MOL0     C 8791   1.084   2.189   1.804 -0.4071  0.4252  0.1534
  825MOL0     O 8792   1.061   2.322   1.828 -0.8424  0.0315 -0.2898
  825MOL0     C 8793   0.966   2.351   1.925 -1.1555 -0.6243 -0.3992
  825MOL0     C 8794   0.959   2.488   1.949  0.2395 -0.4004  0.0203
  825MOL0     C 8795   0.859   2.535   2.037  0.3634  0.0236 -0.1472
  825MOL0     C 8796   0.754   2.456   2.097 -0.3427 -0.3346  0.2904
  825MOL0     C 8797   0.648   2.522   2.179  0.8407 -0.5096  0.9280
  825MOL0     O 8798   0.649   2.649   2.207  0.0553 -0.2570  0.4586
  825MOL0     C 8799   0.556   2.708   2.285  1.2244  0.4108  0.3651
  825MOL0     C 8800   0.594   2.816   2.365  0.4115  0.0776  0.1781
  825MOL0     C 8801   0.501   2.899   2.423  0.3905 -0.2189  0.7371
  825MOL0     C 8802   0.369   2.881   2.418  0.6387 -0.3018 -0.1792
  825MOL0     O 8803   0.268   2.964   2.474 -0.0435  0.0276 -0.0381
  825MOL0     C 8804   0.304   3.040   2.586  0.7113  0.6402 -0.2666
  825MOL0     C 8805   0.177   3.107   2.638  0.3250  0.0810 -1.1771
  825MOL0     C 8806   0.199   3.176   2.775 -0.6860 -0.4689 -0.3911
  825MOL0     C 8807   0.062   3.209   2.838 -0.2482 -0.0158  0.3497
  825MOL0     C 8808   0.080   3.314   2.952  0.0585 -0.0906 -0.8695
  825MOL0     C 8809  -0.065   3.347   3.008 -0.6347 -0.8705 -0.1698
  825MOL0     C 8810  -0.067   3.482   3.089 -0.9700  0.9979  0.9772
  825MOL0     C 8811  -0.215   3.507   3.147 -0.3256  0.1651 -0.1908
  825MOL0    Cl 8812  -0.256   3.680   3.196 -0.2121  0.3227 -0.4402
  825MOL0     C 8813   0.321   2.774   2.342 -0.3885 -0.8666 -0.0023
  825MOL0     C 8814   0.412   2.679   2.286 -0.0431  0.5865 -0.0341
  825MOL0     O 8815   0.570   2.443   2.217  0.2681  0.1006 -0.2079
  825MOL0     C 8816   0.768   2.315   2.071  0.2235 -0.7664  0.9403
  825MOL0     C 8817   0.867   2.268   1.979  0.0810 -1.4292  0.1894
  825MOL0     N 8818   1.192   1.708   1.658 -0.2008  0.4445 -0.5469
  825MOL0     N 8819   1.240   1.602   1.604  1.1470 -0.8628  0.4884
  825MOL0     C 8820   2.002   0.884   2.335 -0.2838  0.0359  0.5200
  825MOL0     C 8821   2.021   0.783   2.433  1.3378  0.0209  0.6819
  825MOL0     C 8822   2.070   0.453   2.684  1.2019  0.5927  0.6194
  825MOL0     C 8823   2.026   0.434   2.817  0.1384  0.1471 -0.1006
  825MOL0     C 8824   2.071   0.325   2.881 -1.4795  0.0327 -0.2437
  825MOL0     C 8825   2.161   0.235   2.814 -0.1649  0.3784 -0.4557
  825MOL0     O 8826   2.209   0.114   2.871 -0.3805  0.2384 -0.6718
  825MOL0     C 8827   2.150   0.066   2.996 -0.3531  0.0634 -0.1363
  825MOL0     C 8828   2.238   0.114   3.105  1.1511 -0.3767 -0.7416
  825MOL0     C 8829   2.148   0.121   3.224  1.1522  0.5400  0.5489
  825MOL0     C 8830   2.229   0.121   3.364 -0.0348 -0.6649  1.0349
  825MOL0     C 8831   2.335   0.216   3.359 -0.1188  0.3290 -0.0367
  825MOL0     C 8832   2.413   0.306   3.354  0.0629 -0.1418 -0.9020
  825MOL0     C 8833   2.190   0.244   2.680 -0.5737 -0.8964  1.6087
  825MOL0     C 8834   2.147   0.364   2.615 -0.3412 -0.1076  0.3550
  825MOL0     H 8835   1.848   0.540   2.262  1.8179 -0.8404 -1.0907
  825MOL0     H 8836   1.829   0.718   2.092 -0.0509  2.9673 -0.3618
  825MOL0     H 8837   1.785   0.907   2.024  1.1305 -2.5583  1.3312
  825MOL0     H 8838   1.930   0.888   1.920  0.2929 -0.4249  0.5628
  825MOL0     H 8839   1.957   1.131   1.931  0.1670 -1.9006 -2.0120
  825MOL0     H 8840   1.785   1.146   1.994  0.5578 -1.6796  2.7679
  825MOL0     H 8841   1.699   1.043   1.792 -0.3886 -0.4644  0.0895
  825MOL0     H 8842   1.855   0.977   1.739  0.7531 -2.1250  1.6173
  825MOL0     H 8843   1.939   1.209   1.741 -0.0020 -0.6660  1.8229
  825MOL0     H 8844   1.838   1.166   1.599  0.8704 -0.9115  0.4084
  825MOL0     H 8845   1.820   1.392   1.779 -3.1669  3.0645 -0.0607
  825MOL0     H 8846   1.696   1.296   1.833 -2.1256 -0.5880 -3.1190
  825MOL0     H 8847   1.578   1.276   1.630  0.1752 -0.4668 -0.2514
  825MOL0     H 8848   1.697   1.354   1.542  2.5027  0.6106  1.4196
  825MOL0     H 8849   1.510   1.473   1.753 -0.1256  1.0828  0.3965
  825MOL0     H 8850   1.634   1.578   1.686  1.0477 -0.1051 -1.1421
  825MOL0     H 8851   1.414   1.424   1.549 -3.4078  2.0136 -2.2752
  825MOL0     H 8852   1.527   1.535   1.455 -0.6293 -1.6780 -0.6753
  825MOL0     H 8853   1.494   1.801   1.601 -0.4348  2.0712  1.9683
  825MOL0     H 8854   1.369   1.999   1.689 -0.9917  0.2694 -1.3210
  825MOL0     H 8855   1.267   1.955   1.808 -0.7121  0.3968 -0.9384
  825MOL0     H 8856   1.086   1.958   1.622  0.7406 -1.6353 -0.6648
  825MOL0     H 8857   1.204   2.024   1.507 -1.1273  0.7798 -0.1010
  825MOL0     H 8858   1.232   2.238   1.664 -1.8500  2.1854  1.9223
  825MOL0     H 8859   1.079   2.219   1.581 -0.6221  0.4455  0.2465
  825MOL0     H 8860   1.160   2.161   1.876  0.9440 -1.9157 -2.0208
  825MOL0     H 8861   0.991   2.132   1.815  0.1856 -0.5676  0.0879
  825MOL0     H 8862   1.031   2.555   1.904  0.9138 -1.8025 -1.0813
  825MOL0     H 8863   0.842   2.641   2.057  1.1182 -0.0264  0.7806
  825MOL0     H 8864   0.694   2.855   2.380  0.0623 -0.0719  3.7648
  825MOL0     H 8865   0.543   2.979   2.484  2.6524  1.1296 -2.3203
  825MOL0     H 8866   0.374   3.121   2.562  0.0239  0.6960 -2.2226
  825MOL0     H 8867   0.348   2.976   2.663  2.3742  0.2038 -1.5252
  825MOL0     H 8868   0.115   3.018   2.651  1.4845 -1.5629 -5.1852
  825MOL0     H 8869   0.140   3.184   2.570  2.8720  3.3063  0.7514
  825MOL0     H 8870   0.268   3.260   2.762  2.8066 -2.7266  1.8325
  825MOL0     H 8871   0.255   3.111   2.842  2.1206  1.9845 -0.1447
  825MOL0     H 8872  -0.006   3.248   2.761 -1.9708 -3.6654 -0.1838
  825MOL0     H 8873   0.035   3.110   2.876  2.9702 -1.7069 -1.3439
  825MOL0     H 8874   0.135   3.402   2.915  1.6529 -0.3534  0.7626
  825MOL0     H 8875   0.141   3.270   3.031  0.1894  1.3476 -0.1285
  825MOL0     H 8876  -0.108   3.262   3.062  0.9619 -4.5012 -4.0638
  825MOL0     H 8877  -0.136   3.364   2.926 -2.4888  1.6353  1.7960
  825MOL0     H 8878   0.002   3.486   3.174  1.1297 -0.7168 -0.5356
  825MOL0     H 8879  -0.035   3.560   3.019 -1.3986 -0.2935 -0.7309
  825MOL0     H 8880  -0.237   3.443   3.233 -3.2000  0.9553 -0.2284
  825MOL0     H 8881  -0.294   3.471   3.081 -2.6129  2.6320  1.0094
  825MOL0     H 8882   0.214   2.761   2.342 -0.5051 -0.3612 -2.4316
  825MOL0     H 8883   0.376   2.615   2.207  0.0337  3.7145 -2.8601
  825MOL0     H 8884   0.691   2.248   2.107 -0.5518  0.4609  1.6552
  825MOL0     H 8885   0.857   2.161   1.965 -2.4908 -1.3615  0.9893
  825MOL0     H 8886   2.057   0.975   2.358 -2.9982  1.6232  1.1538
  825MOL0     H 8887   2.080   0.815   2.518  0.8920  1.9047  0.3233
  825MOL0     H 8888   1.946   0.494   2.858  1.8859  3.1862 -0.8058
  825MOL0     H 8889   2.026   0.308   2.978 -0.1250  2.3628  0.8914
  825MOL0     H 8890   2.163  -0.042   3.001 -0.4843  0.0348 -0.4206
  825MOL0     H 8891   2.046   0.099   3.002 -0.5180 -0.4497 -0.1105
  825MOL0     H 8892   2.312   0.038   3.132 -2.6679 -3.7217  1.4742
  825MOL0     H 8893   2.292   0.205   3.075  0.7484  0.8905  1.9796
  825MOL0     H 8894   2.084   0.032   3.229  1.5184  0.0867 -1.6190
  825MOL0     H 8895   2.069   0.196   3.209 -3.2009 -4.0232 -3.3866
  825MOL0     H 8896   2.150   0.158   3.430 -0.6349  2.4435 -1.1719
  825MOL0     H 8897   2.270   0.023   3.390  1.2031 -0.7158 -0.9119
  825MOL0     H 8898   2.482   0.387   3.345 -1.0060  0.8555 -0.3704
  825MOL0     H 8899   2.261   0.176   2.634  0.9865  0.6066  1.7306
  825MOL0     H 8900   2.191   0.391   2.520  2.6127  0.4075  1.7504
  826MOL0     O 8901   4.070   4.667   5.654  1.1732 -0.1653 -0.6451
  826MOL0     C 8902   4.181   4.630   5.692 -0.4694 -0.8246  0.1111
  826MOL0     O 8903   4.226   4.506   5.697  0.1016 -0.0865  0.0780
  826MOL0     C 8904   4.139   4.407   5.655 -0.2017  0.0732  1.3159
  826MOL0     C 8905   4.075   4.338   5.753  0.7150 -0.2420 -0.8422
  826MOL0     C 8906   3.977   4.245   5.719 -0.0444 -0.1377 -0.0418
  826MOL0     C 8907   3.973   4.192   5.587  0.0166  0.6197 -0.9703
  826MOL0     O 8908   3.876   4.093   5.567 -0.0080 -0.6206 -0.7612
  826MOL0     C 8909   3.904   4.007   5.455 -0.3498 -0.1499  0.4103
  826MOL0     C 8910   3.868   3.865   5.478 -0.5436  1.1908 -0.1441
  826MOL0     C 8911   3.913   3.826   5.621 -0.3956  0.4066  0.4196
  826MOL0     C 8912   3.878   3.682   5.656  0.7576 -0.1288 -0.3055
  826MOL0     C 8913   3.940   3.652   5.805  0.1062 -0.8782  1.0301
  826MOL0     C 8914   3.885   3.507   5.840 -0.5101  0.0085  0.1731
  826MOL0     C 8915   3.957   3.450   5.959 -0.0219 -0.1667  0.2208
  826MOL0     C 8916   3.880   3.328   6.019 -0.4401 -0.2790 -0.1596
  826MOL0     N 8917   3.770   3.355   6.111  1.2265 -0.8503  0.2909
  826MOL0     C 8918   3.754   3.448   6.211  0.3974 -0.0353 -1.0774
  826MOL0     C 8919   3.622   3.455   6.238 -0.6765 -0.2288 -0.4418
  826MOL0     C 8920   3.555   3.545   6.341  0.0279 -0.0231  0.2971
  826MOL0     C 8921   3.590   3.498   6.486 -0.8711 -0.0436 -0.6100
  826MOL0     C 8922   3.503   3.373   6.528 -0.3853 -0.2559  0.0239
  826MOL0     C 8923   3.354   3.391   6.525  0.3288  0.3192  0.8705
  826MOL0     O 8924   3.306   3.445   6.645  1.0635 -0.2673 -0.5721
  826MOL0     C 8925   3.168   3.470   6.643  0.2203  0.3669  0.1268
  826MOL0     C 8926   3.112   3.530   6.762  0.4800  0.3147  0.1341
  826MOL0     C 8927   2.974   3.538   6.780 -0.3806  0.0722 -0.3917
  826MOL0     C 8928   2.890   3.506   6.670  0.2704  0.4222  0.6808
  826MOL0     C 8929   2.741   3.534   6.681  0.6674  0.3439  0.2804
  826MOL0     O 8930   2.663   3.479   6.593  0.4367  0.1903  0.3252
  826MOL0     C 8931   2.528   3.502   6.615 -0.6663 -0.0213 -0.4821
  826MOL0     C 8932   2.451   3.413   6.694 -1.2361 -0.3008  1.0878
  826MOL0     C 8933   2.318   3.432   6.716 -0.5077  0.3432 -0.6165
  826MOL0     C 8934   2.258   3.550   6.675  0.4395  0.4949  0.3795
  826MOL0     O 8935   2.135   3.591   6.702 -0.3755 -0.7094 -0.6517
  826MOL0     C 8936   2.050   3.522   6.789  0.5128  0.7547 -0.5980
  826MOL0     C 8937   1.898   3.577   6.787 -0.4580 -0.0137 -0.0274
  826MOL0     C 8938   1.877   3.704   6.868  0.5584  0.5410  0.4343
  826MOL0     C 8939   1.816   3.659   7.003 -0.1076 -0.4715 -0.9746
  826MOL0     C 8940   1.661   3.622   6.999 -0.2418 -0.4625  0.4516
  826MOL0     C 8941   1.621   3.471   6.957 -0.6117 -0.3792  0.2538
  826MOL0     C 8942   1.477   3.438   6.994 -1.1237  0.3388  0.1086
  826MOL0     C 8943   1.448   3.297   6.953 -0.3830  0.0006 -0.6712
  826MOL0    Cl 8944   1.272   3.259   7.004  0.2124 -0.3680 -0.2452
  826MOL0     C 8945   2.327   3.635   6.593  0.8654 -0.3070 -0.0351
  826MOL0     C 8946   2.459   3.610   6.556  0.6024  0.7411  0.2830
  826MOL0     O 8947   2.698   3.594   6.782 -1.2678 -0.6219  0.2024
  826MOL0     C 8948   2.941   3.466   6.548 -0.8472  0.0520  0.4369
  826MOL0     C 8949   3.079   3.433   6.540 -0.1778 -0.4198 -0.3734
  826MOL0     N 8950   3.564   3.363   6.149 -0.0399 -0.6156  0.3610
  826MOL0     N 8951   3.650   3.306   6.081 -0.1625  0.2358 -0.4850
  826MOL0     C 8952   4.045   4.256   5.485 -0.1240  0.4278 -0.7090
  826MOL0     C 8953   4.133   4.370   5.517  0.3797 -1.1669 -0.3772
  826MOL0     C 8954   4.282   4.735   5.697  0.2582 -0.3698  0.0029
  826MOL0     C 8955   4.256   4.876   5.673  0.1410  0.0727 -1.0524
  826MOL0     C 8956   4.369   4.966   5.681 -0.1428 -0.8104  0.0304
  826MOL0     C 8957   4.494   4.933   5.710 -0.4144  0.5297 -0.3832
  826MOL0     O 8958   4.588   5.036   5.723  0.4051 -0.4929  0.4543
  826MOL0     C 8959   4.714   5.020   5.786  0.3968 -0.3595  0.0444
  826MOL0     C 8960   4.825   5.021   5.679 -0.0750  0.0941  0.8031
  826MOL0     C 8961   4.971   4.985   5.749 -0.2357  0.3482 -0.1568
  826MOL0     C 8962   5.093   5.041   5.666  0.0535  0.0013 -0.3189
  826MOL0     C 8963   5.067   5.184   5.649 -1.3985 -0.1359  0.4528
  826MOL0     C 8964   5.031   5.298   5.657 -0.4258 -0.3891 -0.3687
  826MOL0     C 8965   4.514   4.792   5.728 -0.4351 -0.2503 -0.2772
  826MOL0     C 8966   4.417   4.699   5.723  0.1181 -0.1312 -0.3290
  826MOL0     H 8967   4.080   4.373   5.856  0.3160  0.2051 -0.9703
  826MOL0     H 8968   3.892   4.205   5.775 -1.1086 -0.1606 -1.6161
  826MOL0     H 8969   4.013   4.005   5.445 -0.4271 -3.7014 -1.1808
  826MOL0     H 8970   3.855   4.039   5.363 -1.5697 -0.3048  0.9919
  826MOL0     H 8971   3.911   3.797   5.404 -0.4467  2.9336 -1.7550
  826MOL0     H 8972   3.760   3.851   5.469 -0.6713  1.3816  0.9388
  826MOL0     H 8973   3.884   3.890   5.704  0.1367 -0.8622  1.6134
  826MOL0     H 8974   4.022   3.830   5.623 -0.2787  1.8551 -2.6474
  826MOL0     H 8975   3.770   3.665   5.664  1.3726 -5.3841  0.4589
  826MOL0     H 8976   3.914   3.610   5.582  1.6527  1.1844 -1.1693
  826MOL0     H 8977   3.909   3.714   5.890  0.6639  2.0302 -0.7284
  826MOL0     H 8978   4.049   3.658   5.804  0.1754 -1.6619  2.0679
  826MOL0     H 8979   3.889   3.429   5.763  2.3186 -0.7022  0.9307
  826MOL0     H 8980   3.780   3.530   5.860 -0.2602  2.0667 -0.6593
  826MOL0     H 8981   4.054   3.433   5.912  0.1503  2.6407 -0.6380
  826MOL0     H 8982   3.976   3.520   6.041  1.4082 -0.3769  0.0892
  826MOL0     H 8983   3.953   3.268   6.074  0.3992  1.4456  0.6734
  826MOL0     H 8984   3.835   3.273   5.936 -1.7414 -1.7028  1.4509
  826MOL0     H 8985   3.826   3.502   6.271 -0.7222 -2.5765  2.9255
  826MOL0     H 8986   3.448   3.552   6.318 -0.0739 -0.5574  0.5960
  826MOL0     H 8987   3.607   3.639   6.317 -0.0982  1.3188  4.4873
  826MOL0     H 8988   3.573   3.573   6.563  1.6549 -1.4537  1.4900
  826MOL0     H 8989   3.695   3.473   6.505 -1.5161 -1.1643  1.9045
  826MOL0     H 8990   3.533   3.289   6.464  4.7412  1.0104  0.3518
  826MOL0     H 8991   3.531   3.350   6.631  0.2917  0.7090  0.0725
  826MOL0     H 8992   3.306   3.296   6.498  1.1949  0.4363 -1.3567
  826MOL0     H 8993   3.327   3.450   6.437  2.0642 -0.0214  0.0637
  826MOL0     H 8994   3.177   3.567   6.841 -0.4914 -0.5932  1.4082
  826MOL0     H 8995   2.948   3.571   6.880  2.6196 -0.4034  0.6532
  826MOL0     H 8996   2.500   3.328   6.740 -1.8337 -0.6574  1.0721
  826MOL0     H 8997   2.263   3.359   6.775 -2.3723  1.9101 -0.3317
  826MOL0     H 8998   2.084   3.526   6.892 -3.0096 -0.4436  0.7639
  826MOL0     H 8999   2.047   3.418   6.754 -1.7976 -0.5179  2.8283
  826MOL0     H 9000   1.839   3.494   6.827 -0.0289 -0.2938  0.0400
  826MOL0     H 9001   1.872   3.583   6.681  0.4733 -0.3898 -0.2942
  826MOL0     H 9002   1.801   3.763   6.816  0.1678  0.5030  0.9485
  826MOL0     H 9003   1.973   3.756   6.877  0.5190  0.5617  0.7720
  826MOL0     H 9004   1.877   3.589   7.061  1.5732  0.9256 -0.9679
  826MOL0     H 9005   1.825   3.745   7.070  2.1448 -1.9186  0.7253
  826MOL0     H 9006   1.604   3.694   6.940 -3.7598 -3.1901  0.2409
  826MOL0     H 9007   1.615   3.645   7.096  2.3756  2.0068  1.2627
  826MOL0     H 9008   1.678   3.393   7.010 -1.8206 -1.0954  0.5399
  826MOL0     H 9009   1.639   3.460   6.850 -1.9468 -0.3587  0.0082
  826MOL0     H 9010   1.466   3.443   7.103  0.6882  2.2567  0.2697
  826MOL0     H 9011   1.418   3.504   6.929 -0.3875 -0.0402 -0.9641
  826MOL0     H 9012   1.520   3.229   7.001 -1.2882 -1.3526 -1.1530
  826MOL0     H 9013   1.457   3.275   6.847  1.4638 -0.7222 -0.4041
  826MOL0     H 9014   2.278   3.727   6.564  0.5958 -0.2044  0.7110
  826MOL0     H 9015   2.490   3.691   6.490 -3.6619  3.7583  1.5400
  826MOL0     H 9016   2.883   3.445   6.459  0.3688  0.6463 -0.5309
  826MOL0     H 9017   3.100   3.380   6.447 -0.6926  0.5701 -1.0664
  826MOL0     H 9018   4.037   4.233   5.379  0.2508 -0.6686 -0.5069
  826MOL0     H 9019   4.188   4.423   5.440 -1.3760  0.9347 -0.2826
  826MOL0     H 9020   4.154   4.897   5.644  0.6230  2.9075 -0.9304
  826MOL0     H 9021   4.340   5.068   5.660 -2.1307 -1.5799 -1.2757
  826MOL0     H 9022   4.711   4.936   5.856 -2.1428 -0.0087  0.4590
  826MOL0     H 9023   4.735   5.102   5.855 -2.3792 -0.3334  0.9948
  826MOL0     H 9024   4.794   4.943   5.609 -0.0495  0.9648 -0.2036
  826MOL0     H 9025   4.828   5.116   5.624  2.9597 -0.7031 -0.6238
  826MOL0     H 9026   4.975   4.877   5.767  2.3999  0.3351 -0.5115
  826MOL0     H 9027   4.985   5.033   5.847  2.2123 -1.8013  0.6599
  826MOL0     H 9028   5.185   5.034   5.725  0.9782  1.4073 -1.5018
  826MOL0     H 9029   5.093   4.987   5.571 -1.8746 -1.2524  0.3472
  826MOL0     H 9030   4.984   5.392   5.681 -0.3517  0.0840 -1.9707
  826MOL0     H 9031   4.618   4.770   5.751 -0.1356  0.2855 -1.0684
  826MOL0     H 9032   4.451   4.597   5.735 -0.8919 -0.4676 -0.1863
  827MOL0     O 9033   3.562   1.048  11.269  0.0751  0.3958 -0.1544
  827MOL0     C 9034   3.639   0.967  11.322 -0.0865 -0.9758  0.3352
  827MOL0     O 9035   3.762   0.943  11.264  0.3254 -0.2267 -0.4000
  827MOL0     C 9036   3.812   1.018  11.162 -0.7942 -0.5614 -0.3730
  827MOL0     C 9037   3.735   1.064  11.057  0.4908  0.2640  0.0351
  827MOL0     C 9038   3.801   1.141  10.956 -0.1807 -0.4952 -0.3251
  827MOL0     C 9039   3.938   1.181  10.972  0.0004 -0.4556  0.1335
  827MOL0     O 9040   4.005   1.266  10.894  0.9293  0.1515 -0.1173
  827MOL0     C 9041   4.019   1.394  10.951  0.1187 -0.4978 -0.3341
  827MOL0     C 9042   4.048   1.490  10.843  0.5346 -1.4061  1.1398
  827MOL0     C 9043   3.953   1.476  10.722 -0.4104  0.7059 -0.0605
  827MOL0     C 9044   3.970   1.606  10.639  0.2705 -0.1811  0.6542
  827MOL0     C 9045   4.088   1.588  10.546  0.1228  0.3520 -0.5098
  827MOL0     C 9046   4.122   1.709  10.460  0.7256 -0.2002  0.5635
  827MOL0     C 9047   4.220   1.677  10.348  0.2423 -0.4176  0.7608
  827MOL0     C 9048   4.352   1.604  10.398  0.1810 -0.0623  0.5586
  827MOL0     N 9049   4.333   1.458  10.401  0.1977  0.5587 -0.1316
  827MOL0     C 9050   4.358   1.388  10.523 -0.1319 -0.1483  0.2053
  827MOL0     C 9051   4.374   1.259  10.476 -0.6657  0.5120 -0.2131
  827MOL0     C 9052   4.419   1.140  10.556 -0.4681 -0.3610  0.4596
  827MOL0     C 9053   4.298   1.035  10.572 -1.0273 -0.5334  0.2545
  827MOL0     C 9054   4.179   1.111  10.631 -0.4625 -0.3195  0.0918
  827MOL0     C 9055   4.053   1.020  10.630 -0.3967  0.3152  0.9051
  827MOL0     O 9056   4.076   0.899  10.709 -0.0730 -0.2769  0.0184
  827MOL0     C 9057   3.979   0.834  10.778  0.5752  0.4702 -0.0485
  827MOL0     C 9058   3.834   0.853  10.765  0.4090  0.1358  1.1139
  827MOL0     C 9059   3.743   0.787  10.858 -0.5021 -0.4788 -0.1632
  827MOL0     C 9060   3.795   0.701  10.954  0.3237  0.1719 -0.2200
  827MOL0     C 9061   3.708   0.640  11.045  0.3666  0.4443  1.0760
  827MOL0     O 9062   3.751   0.572  11.152 -1.1538 -0.5993 -0.6685
  827MOL0     C 9063   3.665   0.518  11.254 -0.3992  0.0936 -0.0156
  827MOL0     C 9064   3.542   0.588  11.291  0.2913 -0.4642  0.2439
  827MOL0     C 9065   3.443   0.527  11.365  0.5145  0.3705 -0.5341
  827MOL0     C 9066   3.469   0.389  11.412 -0.0045  0.5119  0.3280
  827MOL0     O 9067   3.381   0.332  11.503  0.0286  0.3968 -0.5101
  827MOL0     C 9068   3.409   0.212  11.585  1.1391 -0.5739  0.4968
  827MOL0     C 9069   3.290   0.202  11.683  0.1685  0.9806 -0.2344
  827MOL0     C 9070   3.287   0.107  11.793 -0.7164 -0.0523  0.3204
  827MOL0     C 9071   3.342  -0.031  11.754 -0.6128  0.4102 -0.2170
  827MOL0     C 9072   3.327  -0.149  11.855 -0.6117 -0.5209 -0.1735
  827MOL0     C 9073   3.393  -0.132  11.991  0.5557 -0.4229  0.2603
  827MOL0     C 9074   3.391  -0.261  12.073  0.5050  0.0110 -0.8737
  827MOL0     C 9075   3.398  -0.225  12.221  0.1612  0.5605 -0.7689
  827MOL0    Cl 9076   3.475  -0.339  12.337  0.2794  0.0768  0.2606
  827MOL0     C 9077   3.591   0.325  11.384 -0.4318 -0.4312 -0.5925
  827MOL0     C 9078   3.691   0.390  11.313 -0.1133  0.3754 -0.0331
  827MOL0     O 9079   3.588   0.632  11.013 -0.4205 -0.8625  0.1038
  827MOL0     C 9080   3.932   0.675  10.958  0.6586  0.0980 -0.1457
  827MOL0     C 9081   4.026   0.750  10.882 -0.1499  0.1608 -0.4176
  827MOL0     N 9082   4.367   1.258  10.340  0.4389 -0.5203  0.1276
  827MOL0     N 9083   4.330   1.372  10.299  0.3523  0.6106  0.9997
  827MOL0     C 9084   4.007   1.125  11.078 -0.1465  0.5850 -0.3987
  827MOL0     C 9085   3.949   1.042  11.169  0.2915 -0.3168  1.1701
  827MOL0     C 9086   3.620   0.901  11.453 -0.5274 -0.6944  0.5314
  827MOL0     C 9087   3.690   0.787  11.490 -0.0201  0.9632  0.0598
  827MOL0     C 9088   3.650   0.719  11.606  0.1521 -0.2160  0.4063
  827MOL0     C 9089   3.550   0.765  11.690 -0.6266  0.6575 -0.1920
  827MOL0     O 9090   3.522   0.685  11.802 -0.5823  0.2368  0.4730
  827MOL0     C 9091   3.477   0.556  11.775  0.0567  0.0149 -0.6731
  827MOL0     C 9092   3.453   0.486  11.905 -0.1395  0.3294 -0.8337
  827MOL0     C 9093   3.584   0.410  11.966 -0.1489  0.0417  0.5826
  827MOL0     C 9094   3.665   0.467  12.083 -0.0245  0.1795 -0.1769
  827MOL0     C 9095   3.589   0.476  12.205  0.8962 -0.2016 -0.1212
  827MOL0     C 9096   3.538   0.464  12.314  0.1852  0.4006 -0.4672
  827MOL0     C 9097   3.491   0.875  11.660  0.6914  1.1674  0.0265
  827MOL0     C 9098   3.516   0.948  11.535  0.0814  0.2318 -0.2821
  827MOL0     H 9099   3.631   1.037  11.042  0.0455  1.0755  1.4454
  827MOL0     H 9100   3.757   1.184  10.867  1.7338  0.9627 -0.6414
  827MOL0     H 9101   4.099   1.395  11.026 -2.6685  1.0217  2.8513
  827MOL0     H 9102   3.927   1.428  10.999  0.2717 -0.6244  0.0520
  827MOL0     H 9103   4.156   1.483  10.824  1.1052  1.3620  2.7351
  827MOL0     H 9104   4.037   1.591  10.885  0.9787 -0.2918 -1.2778
  827MOL0     H 9105   3.848   1.477  10.751 -0.1717  1.7072  0.8461
  827MOL0     H 9106   3.976   1.384  10.668 -2.2683 -0.6615  1.3375
  827MOL0     H 9107   3.876   1.623  10.586 -0.1001  3.9548  2.2517
  827MOL0     H 9108   3.985   1.684  10.714 -5.4426  1.9126  0.1294
  827MOL0     H 9109   4.070   1.500  10.484  4.9830 -2.5052  1.4847
  827MOL0     H 9110   4.175   1.567  10.610  1.1328  1.8275 -1.3347
  827MOL0     H 9111   4.156   1.796  10.517 -1.0349 -0.0641  1.4729
  827MOL0     H 9112   4.032   1.745  10.409  0.3867  0.6937  1.7428
  827MOL0     H 9113   4.168   1.617  10.272 -1.2841  1.0261  0.5941
  827MOL0     H 9114   4.250   1.773  10.306 -2.4855  0.8158  1.3955
  827MOL0     H 9115   4.381   1.659  10.489  1.2809  2.8652 -1.4022
  827MOL0     H 9116   4.444   1.620  10.342  2.2892  0.2100  3.7939
  827MOL0     H 9117   4.386   1.411  10.626 -2.8707 -2.1416  1.5160
  827MOL0     H 9118   4.442   1.181  10.655 -0.3738  0.9053 -0.0691
  827MOL0     H 9119   4.510   1.099  10.512 -0.9611  2.6149 -3.9269
  827MOL0     H 9120   4.328   0.947  10.630  3.0140 -1.9980 -3.4638
  827MOL0     H 9121   4.280   0.986  10.475 -1.3815 -0.3402  0.2187
  827MOL0     H 9122   4.223   1.143  10.726  1.8287 -0.9152 -0.6977
  827MOL0     H 9123   4.156   1.202  10.576  0.8933  1.0668  1.7040
  827MOL0     H 9124   4.021   0.997  10.528  1.9834 -1.2590  0.4342
  827MOL0     H 9125   3.979   1.093  10.663  0.9004  3.5055 -2.5247
  827MOL0     H 9126   3.793   0.931  10.702  1.4672  1.1943  1.6961
  827MOL0     H 9127   3.636   0.801  10.848 -0.8949 -2.3293  0.9098
  827MOL0     H 9128   3.521   0.685  11.249 -1.4413  0.3403  2.7811
  827MOL0     H 9129   3.347   0.575  11.383 -0.2636 -1.2411 -0.2207
  827MOL0     H 9130   3.503   0.223  11.641  1.3786 -1.5370  0.3033
  827MOL0     H 9131   3.406   0.125  11.519  0.6346  0.3078 -0.6786
  827MOL0     H 9132   3.199   0.190  11.623  1.4414 -1.1296 -1.9027
  827MOL0     H 9133   3.288   0.301  11.730  1.2464  0.0148  1.9868
  827MOL0     H 9134   3.179   0.106  11.811 -1.4795 -2.0403 -3.4212
  827MOL0     H 9135   3.342   0.149  11.878  0.7520 -1.0469 -0.0978
  827MOL0     H 9136   3.297  -0.065  11.660 -2.1089 -0.3065  0.7141
  827MOL0     H 9137   3.447  -0.022  11.725 -1.4781  2.4666 -3.1383
  827MOL0     H 9138   3.361  -0.238  11.800 -0.2571  0.0830 -0.9515
  827MOL0     H 9139   3.220  -0.164  11.871 -0.8176 -0.7708 -1.6008
  827MOL0     H 9140   3.348  -0.048  12.044 -0.4767 -0.8411  0.0543
  827MOL0     H 9141   3.500  -0.113  11.973  0.5897  1.0473  1.8027
  827MOL0     H 9142   3.302  -0.319  12.047 -0.9185  1.7885 -0.2056
  827MOL0     H 9143   3.478  -0.321  12.044  0.3495 -1.3732  1.2881
  827MOL0     H 9144   3.298  -0.207  12.262  0.9239 -2.5809  3.0540
  827MOL0     H 9145   3.459  -0.137  12.246  2.5567 -1.2870  0.3128
  827MOL0     H 9146   3.609   0.233  11.439 -0.0642  0.0297  0.0805
  827MOL0     H 9147   3.791   0.348  11.306 -1.0162 -2.1503  1.3288
  827MOL0     H 9148   3.963   0.592  11.021 -3.1952 -2.8249 -1.6400
  827MOL0     H 9149   4.132   0.735  10.894 -0.0835  0.9150  0.0119
  827MOL0     H 9150   4.109   1.154  11.101  0.0962  0.1369 -0.8747
  827MOL0     H 9151   4.009   0.994  11.246  0.9135 -0.6797  0.4686
  827MOL0     H 9152   3.767   0.752  11.424  0.5504  3.4920 -0.7317
  827MOL0     H 9153   3.712   0.633  11.631  0.7521 -0.1759 -0.8687
  827MOL0     H 9154   3.551   0.500  11.716  0.7316 -0.8341  0.8966
  827MOL0     H 9155   3.388   0.569  11.713  0.5680  1.5157 -1.1315
  827MOL0     H 9156   3.437   0.565  11.979 -0.0051  2.2801 -2.7935
  827MOL0     H 9157   3.369   0.416  11.903 -0.1841  0.0772  2.7494
  827MOL0     H 9158   3.646   0.403  11.876 -0.4316  0.9446  0.3044
  827MOL0     H 9159   3.543   0.314  11.998 -3.8971  1.1710 -0.3167
  827MOL0     H 9160   3.747   0.400  12.114 -0.5881 -0.2565  0.4118
  827MOL0     H 9161   3.708   0.558  12.041 -1.6367  0.2466 -1.7745
  827MOL0     H 9162   3.501   0.461  12.414  1.5290 -3.2043  0.0495
  827MOL0     H 9163   3.419   0.918  11.729  0.8702  2.3509 -0.5004
  827MOL0     H 9164   3.467   1.042  11.511 -0.4749 -0.1049 -0.4842
  828MOL0     O 9165   7.705  10.802   2.039 -0.1947 -0.4587 -0.4511
  828MOL0     C 9166   7.594  10.833   2.088  0.1057  0.7970 -0.8482
  828MOL0     O 9167   7.525  10.946   2.071  0.1133  0.1637 -0.0431
  828MOL0     C 9168   7.585  11.029   1.977  0.2782 -0.6778 -0.0169
  828MOL0     C 9169   7.637  11.155   2.022  0.5522  0.0546  0.2894
  828MOL0     C 9170   7.667  11.248   1.917 -0.1658  0.1731 -0.4853
  828MOL0     C 9171   7.671  11.218   1.783  0.4593 -0.0133  0.2529
  828MOL0     O 9172   7.711  11.292   1.678 -0.5940 -0.0684 -0.2963
  828MOL0     C 9173   7.733  11.432   1.696 -0.1839 -0.0159 -0.7063
  828MOL0     C 9174   7.822  11.441   1.572 -0.5933  0.0725 -0.6293
  828MOL0     C 9175   7.885  11.581   1.565  1.0473 -0.4990 -0.4538
  828MOL0     C 9176   7.773  11.673   1.513  0.9032  0.6556  0.4279
  828MOL0     C 9177   7.816  11.817   1.485  0.4438  0.2885  0.6381
  828MOL0     C 9178   7.690  11.910   1.474 -0.6086 -1.2454 -0.1348
  828MOL0     C 9179   7.733  12.057   1.446 -0.1694  0.7767 -0.2717
  828MOL0     C 9180   7.609  12.144   1.422  0.5548 -0.4530  0.1168
  828MOL0     N 9181   7.525  12.155   1.542  0.7000 -0.0761 -0.2075
  828MOL0     C 9182   7.394  12.105   1.544  1.0956  1.0299  0.0641
  828MOL0     C 9183   7.360  12.095   1.676 -0.2112 -0.3283  0.4376
  828MOL0     C 9184   7.231  12.061   1.736  0.2969  0.1090 -0.1195
  828MOL0     C 9185   7.219  11.910   1.791 -0.5489  0.3457 -0.4812
  828MOL0     C 9186   7.259  11.795   1.689  0.5038  0.3485 -0.2619
  828MOL0     C 9187   7.411  11.747   1.679  0.0870  0.1591  0.4279
  828MOL0     O 9188   7.478  11.745   1.806  0.1528 -0.1673 -0.3916
  828MOL0     C 9189   7.469  11.649   1.904 -0.1385 -0.3387 -1.1729
  828MOL0     C 9190   7.517  11.664   2.039  0.2598  0.4279 -0.5535
  828MOL0     C 9191   7.505  11.556   2.131 -0.1605  0.0838  0.0414
  828MOL0     C 9192   7.451  11.437   2.098 -0.6482  0.7084 -0.4761
  828MOL0     C 9193   7.416  11.346   2.204  1.0290 -0.0064  0.8430
  828MOL0     O 9194   7.300  11.275   2.200 -0.0576  0.5308 -0.3680
  828MOL0     C 9195   7.283  11.158   2.273  0.2135  0.1109 -0.0306
  828MOL0     C 9196   7.176  11.086   2.229  0.3792  0.7425 -0.2528
  828MOL0     C 9197   7.114  10.986   2.303 -0.4135 -0.9561  0.4784
  828MOL0     C 9198   7.165  10.952   2.425 -0.1819  0.0573  0.0632
  828MOL0     O 9199   7.121  10.858   2.516  0.3605 -0.1578  0.0255
  828MOL0     C 9200   7.032  10.762   2.470  0.0708  0.7718 -1.1076
  828MOL0     C 9201   7.044  10.636   2.560 -0.1167  1.1331 -0.3589
  828MOL0     C 9202   6.899  10.572   2.566 -0.0426  0.3038  0.5067
  828MOL0     C 9203   6.900  10.430   2.644 -0.5974 -0.2992  0.0607
  828MOL0     C 9204   6.775  10.357   2.606  1.1751  0.6363  0.2666
  828MOL0     C 9205   6.649  10.417   2.669 -1.0492 -0.8095  0.4462
  828MOL0     C 9206   6.648  10.428   2.816 -0.2101 -0.3378  0.6276
  828MOL0     C 9207   6.507  10.443   2.879 -0.3453  0.9615 -1.3233
  828MOL0    Cl 9208   6.420  10.589   2.827 -0.6658  0.1500 -0.4907
  828MOL0     C 9209   7.279  11.018   2.467 -0.2941 -0.3321 -0.2906
  828MOL0     C 9210   7.338  11.125   2.399 -0.3677  0.4757 -0.3254
  828MOL0     O 9211   7.509  11.322   2.274  0.4920 -0.3142  0.2964
  828MOL0     C 9212   7.390  11.428   1.974 -0.0698  0.9182 -0.0563
  828MOL0     C 9213   7.402  11.528   1.883  0.8927  0.3708 -0.5110
  828MOL0     N 9214   7.467  12.133   1.750  0.9590 -0.3449 -0.0189
  828MOL0     N 9215   7.563  12.172   1.669 -0.3671 -0.1038  0.4335
  828MOL0     C 9216   7.639  11.088   1.747 -1.1021  0.5237 -0.6592
  828MOL0     C 9217   7.605  10.997   1.843 -0.4096  0.0445  0.8061
  828MOL0     C 9218   7.552  10.735   2.199  0.2305 -0.9520  1.0093
  828MOL0     C 9219   7.623  10.616   2.224  0.2419  0.3231  0.4995
  828MOL0     C 9220   7.579  10.511   2.311 -0.4056  0.1844  0.4589
  828MOL0     C 9221   7.468  10.532   2.386  1.2488 -0.8618 -0.0199
  828MOL0     O 9222   7.435  10.456   2.497  0.3408  0.0780  0.1323
  828MOL0     C 9223   7.526  10.360   2.551 -0.4934  0.8307  1.1790
  828MOL0     C 9224   7.503  10.327   2.700  0.0406 -0.5846 -0.3601
  828MOL0     C 9225   7.390  10.235   2.705  0.0818 -0.4970  0.2634
  828MOL0     C 9226   7.348  10.192   2.844  0.0440  0.7321  0.0275
  828MOL0     C 9227   7.280  10.303   2.909  0.4399  0.3635 -0.5944
  828MOL0     C 9228   7.218  10.398   2.957  0.2397  0.1530  0.7594
  828MOL0     C 9229   7.392  10.650   2.360 -0.7106 -0.6151 -0.8357
  828MOL0     C 9230   7.431  10.753   2.274 -0.1417  0.0094 -0.0802
  828MOL0     H 9231   7.636  11.191   2.125 -1.4688 -0.0959  0.3735
  828MOL0     H 9232   7.680  11.347   1.961 -2.7760 -0.2560  1.5230
  828MOL0     H 9233   7.791  11.455   1.786  0.0030  0.3103 -0.9079
  828MOL0     H 9234   7.639  11.487   1.688  1.1258  3.0970  2.5040
  828MOL0     H 9235   7.769  11.412   1.480 -0.5383  1.9057 -1.2977
  828MOL0     H 9236   7.905  11.372   1.581  1.0279  1.9898 -0.0429
  828MOL0     H 9237   7.960  11.576   1.486  1.5047  0.4706 -0.0888
  828MOL0     H 9238   7.925  11.601   1.665 -0.8160 -2.7012  0.8409
  828MOL0     H 9239   7.727  11.622   1.427  0.4256 -0.5819  1.3918
  828MOL0     H 9240   7.693  11.679   1.587  0.3919  0.9907 -0.1380
  828MOL0     H 9241   7.881  11.828   1.398  0.7793 -0.9741  0.7117
  828MOL0     H 9242   7.885  11.844   1.565 -1.1572 -1.1546  2.6121
  828MOL0     H 9243   7.634  11.905   1.568 -1.3820  3.1379 -0.1096
  828MOL0     H 9244   7.633  11.878   1.387  0.1853 -0.3298 -1.0230
  828MOL0     H 9245   7.788  12.101   1.530  0.5998 -0.7018  0.0274
  828MOL0     H 9246   7.786  12.060   1.350 -2.3387 -0.3181 -1.6049
  828MOL0     H 9247   7.544  12.098   1.347 -1.4684  0.4406  1.2372
  828MOL0     H 9248   7.644  12.244   1.396 -0.2495 -0.6436 -1.8849
  828MOL0     H 9249   7.334  12.087   1.456  4.2047  0.0756 -2.0617
  828MOL0     H 9250   7.151  12.091   1.667 -1.4245  1.4479  2.2710
  828MOL0     H 9251   7.211  12.120   1.827 -0.6469 -2.3251  1.3568
  828MOL0     H 9252   7.113  11.904   1.819 -0.0622  0.8809  1.6401
  828MOL0     H 9253   7.284  11.901   1.878  1.5557  0.6080 -1.9556
  828MOL0     H 9254   7.193  11.708   1.698  0.8511 -0.3179 -3.1088
  828MOL0     H 9255   7.243  11.837   1.589  3.2435 -1.0803 -1.4141
  828MOL0     H 9256   7.465  11.809   1.606 -1.0938 -0.1391 -0.7420
  828MOL0     H 9257   7.414  11.645   1.640  3.4274 -0.4185  1.8274
  828MOL0     H 9258   7.564  11.748   2.089 -0.5759 -0.0535  1.1250
  828MOL0     H 9259   7.543  11.573   2.231 -1.3525  0.9425  0.3650
  828MOL0     H 9260   7.144  11.129   2.134  2.4266  0.6734 -1.0160
  828MOL0     H 9261   7.033  10.932   2.256  0.5967  0.5378 -3.3338
  828MOL0     H 9262   7.059  10.717   2.374 -2.0188 -5.8692  0.8647
  828MOL0     H 9263   6.929  10.800   2.471 -1.3125 -2.2504  3.5828
  828MOL0     H 9264   7.091  10.667   2.653  0.3661  3.2827 -1.2557
  828MOL0     H 9265   7.110  10.564   2.510 -0.0750 -1.0264  2.5520
  828MOL0     H 9266   6.852  10.548   2.470 -1.6198 -1.0417  1.5546
  828MOL0     H 9267   6.827  10.642   2.609 -0.4192 -0.0212  0.4151
  828MOL0     H 9268   6.979  10.368   2.601  1.9133  0.2407  3.4445
  828MOL0     H 9269   6.925  10.437   2.750 -3.2542  0.9550  0.6988
  828MOL0     H 9270   6.787  10.253   2.637 -1.9385 -0.0732 -0.5288
  828MOL0     H 9271   6.771  10.350   2.497  1.4734  0.0713  0.2888
  828MOL0     H 9272   6.566  10.365   2.621 -1.0857 -0.5969  0.2810
  828MOL0     H 9273   6.641  10.517   2.625 -2.6613 -0.4934  1.4044
  828MOL0     H 9274   6.710  10.349   2.858  0.1739 -0.7594 -0.7051
  828MOL0     H 9275   6.698  10.521   2.845 -1.3481  0.0988  1.2727
  828MOL0     H 9276   6.511  10.444   2.988 -0.2000  2.2090 -1.3240
  828MOL0     H 9277   6.451  10.354   2.848  1.7269  0.0565 -2.6815
  828MOL0     H 9278   7.317  10.986   2.564 -0.8622 -3.3393 -0.9756
  828MOL0     H 9279   7.416  11.181   2.450  0.3890  0.8721 -1.8565
  828MOL0     H 9280   7.330  11.339   1.961  1.0763  0.1078  0.0692
  828MOL0     H 9281   7.368  11.509   1.782  4.6711 -0.8537 -1.7483
  828MOL0     H 9282   7.635  11.068   1.640 -3.7395  4.0207 -1.4018
  828MOL0     H 9283   7.571  10.899   1.813 -0.7775  0.9985 -2.2120
  828MOL0     H 9284   7.705  10.588   2.159 -0.8057 -1.0997 -0.2821
  828MOL0     H 9285   7.628  10.415   2.321  2.7718  1.9084  3.8714
  828MOL0     H 9286   7.628  10.395   2.537 -0.6264  0.4973 -0.8661
  828MOL0     H 9287   7.510  10.262   2.505  1.5260  0.7202  0.6080
  828MOL0     H 9288   7.584  10.264   2.738  0.1123 -0.3862 -0.1841
  828MOL0     H 9289   7.492  10.421   2.755  3.2707 -0.5154  0.4083
  828MOL0     H 9290   7.408  10.144   2.647  0.1626  0.8236 -1.9155
  828MOL0     H 9291   7.299  10.272   2.657  1.2745  0.6398 -1.2175
  828MOL0     H 9292   7.278  10.108   2.846 -0.4179  1.1145  0.1514
  828MOL0     H 9293   7.432  10.160   2.907 -1.0720 -2.0663  0.2323
  828MOL0     H 9294   7.166  10.479   3.005 -1.0586  0.1552 -0.5639
  828MOL0     H 9295   7.305  10.671   2.421  0.7034 -4.0518  2.7946
  828MOL0     H 9296   7.375  10.845   2.266  1.2171  0.8361 -0.4384
  829MOL0     O 9297   7.723   2.658   2.480  0.5207  0.8365 -0.0671
  829MOL0     C 9298   7.829   2.648   2.418  1.5966 -0.5676  0.4902
  829MOL0     O 9299   7.952   2.608   2.473  0.1522 -0.2653 -0.1899
  829MOL0     C 9300   7.951   2.603   2.615  0.3564 -0.3747 -0.0031
  829MOL0     C 9301   8.017   2.707   2.686 -0.4842 -0.1517 -0.6640
  829MOL0     C 9302   8.049   2.698   2.818  0.3761  0.6551  0.6369
  829MOL0     C 9303   8.020   2.579   2.883  0.6233 -0.3608 -0.1680
  829MOL0     O 9304   8.056   2.553   3.013  0.3447 -0.1123  0.4202
  829MOL0     C 9305   8.026   2.652   3.109  0.2105  0.8460  0.5189
  829MOL0     C 9306   8.073   2.616   3.250 -0.1138 -0.5821  0.1460
  829MOL0     C 9307   8.229   2.615   3.256 -0.2392  0.1952 -0.3022
  829MOL0     C 9308   8.282   2.568   3.393  0.4475  1.1449 -0.1016
  829MOL0     C 9309   8.438   2.584   3.395  0.5383 -0.1641  0.0751
  829MOL0     C 9310   8.494   2.609   3.543  0.2693  0.0117 -0.1748
  829MOL0     C 9311   8.491   2.481   3.628 -0.4001  0.1754 -0.2632
  829MOL0     C 9312   8.608   2.393   3.593 -0.3988  0.0988 -0.3590
  829MOL0     N 9313   8.605   2.264   3.665  0.5671 -0.3167  0.2184
  829MOL0     C 9314   8.572   2.141   3.619 -1.0166 -0.2387 -0.4809
  829MOL0     C 9315   8.586   2.061   3.728 -0.7852  0.5014 -0.2320
  829MOL0     C 9316   8.553   1.919   3.733 -0.1603  0.4472 -0.3491
  829MOL0     C 9317   8.414   1.897   3.687  0.1809  0.0924 -0.8100
  829MOL0     C 9318   8.312   1.930   3.796 -0.3493 -0.9329 -0.1207
  829MOL0     C 9319   8.270   2.073   3.804 -0.0936  0.0657 -0.1724
  829MOL0     O 9320   8.213   2.106   3.678 -0.2301 -0.1789 -0.8198
  829MOL0     C 9321   8.159   2.236   3.672  1.1635  0.0296  0.7761
  829MOL0     C 9322   8.078   2.265   3.562  0.3465  0.4652  0.6781
  829MOL0     C 9323   7.998   2.374   3.558  0.1342  0.6544  0.4893
  829MOL0     C 9324   8.026   2.483   3.657 -0.5813  0.7366 -0.4857
  829MOL0     C 9325   7.941   2.604   3.662 -0.4403  0.2653  0.7784
  829MOL0     O 9326   7.952   2.684   3.782  0.6534  0.3802  0.0655
  829MOL0     C 9327   7.856   2.786   3.783  0.8045  0.0506  0.6139
  829MOL0     C 9328   7.896   2.919   3.744  0.0431  0.5554 -0.4009
  829MOL0     C 9329   7.813   3.028   3.770  0.4266  0.6326  0.3912
  829MOL0     C 9330   7.680   3.008   3.813 -0.0883  0.2121  0.8122
  829MOL0     O 9331   7.600   3.123   3.835 -1.3973 -0.3048  0.3232
  829MOL0     C 9332   7.505   3.120   3.939 -0.4759 -0.3813 -1.0120
  829MOL0     C 9333   7.417   3.249   3.920 -0.0145 -0.1226 -0.2997
  829MOL0     C 9334   7.297   3.237   4.020  0.6982 -1.1221  0.4791
  829MOL0     C 9335   7.180   3.316   3.962 -0.8454 -0.2372 -0.0177
  829MOL0     C 9336   7.094   3.377   4.076  0.1834 -0.1009  0.5607
  829MOL0     C 9337   7.009   3.488   4.021  0.6946  0.3066  0.2670
  829MOL0     C 9338   6.934   3.566   4.133 -0.2322  0.3150  0.5553
  829MOL0     C 9339   6.900   3.705   4.083  0.4699  0.1523  0.2550
  829MOL0    Cl 9340   6.845   3.810   4.211 -0.0293  0.3465 -0.7463
  829MOL0     C 9341   7.644   2.875   3.833 -0.7357  0.4278 -0.6685
  829MOL0     C 9342   7.732   2.765   3.834  0.8323 -1.1749 -0.2837
  829MOL0     O 9343   7.879   2.620   3.551  0.2301 -0.3481 -0.5864
  829MOL0     C 9344   8.130   2.462   3.754  0.4122 -0.2033  0.2421
  829MOL0     C 9345   8.196   2.338   3.753  0.4391  0.0493  0.2782
  829MOL0     N 9346   8.622   2.147   3.836  0.5633  0.0305  0.3760
  829MOL0     N 9347   8.626   2.265   3.797 -0.3369 -0.7081  0.2373
  829MOL0     C 9348   7.940   2.483   2.823  0.0726 -0.7173  0.7196
  829MOL0     C 9349   7.909   2.491   2.687 -0.1880  0.3480  0.3162
  829MOL0     C 9350   7.818   2.643   2.269 -0.6457  0.1364  0.0109
  829MOL0     C 9351   7.900   2.565   2.185  0.1676 -0.1155 -0.4056
  829MOL0     C 9352   7.894   2.564   2.047 -0.6818  0.4456  0.1394
  829MOL0     C 9353   7.796   2.634   1.985 -0.4969 -0.2013  0.2098
  829MOL0     O 9354   7.805   2.667   1.852  0.2443  0.1313  0.1317
  829MOL0     C 9355   7.916   2.635   1.765  0.7452  0.6245 -0.4533
  829MOL0     C 9356   7.897   2.507   1.701  0.0467  0.1484 -0.2740
  829MOL0     C 9357   7.819   2.537   1.568 -0.3342  0.1335 -0.4406
  829MOL0     C 9358   7.824   2.410   1.486 -0.3188  0.9203  0.3836
  829MOL0     C 9359   7.727   2.434   1.379  0.0241 -0.4458  1.3669
  829MOL0     C 9360   7.659   2.446   1.277 -0.0297  0.3991 -0.1335
  829MOL0     C 9361   7.704   2.709   2.062 -0.2061  0.1847 -0.0353
  829MOL0     C 9362   7.723   2.725   2.200 -1.3483  0.6695  0.2577
  829MOL0     H 9363   8.052   2.791   2.627 -1.4677  0.6603 -0.1406
  829MOL0     H 9364   8.105   2.768   2.878  3.0113 -1.4827  0.8723
  829MOL0     H 9365   7.918   2.661   3.099  0.1304 -1.1344 -0.8691
  829MOL0     H 9366   8.071   2.749   3.085 -2.3519  1.9265 -0.2142
  829MOL0     H 9367   8.036   2.515   3.273 -0.9903  0.2447  2.6883
  829MOL0     H 9368   8.044   2.691   3.323  1.8142  2.1669 -1.7130
  829MOL0     H 9369   8.262   2.716   3.231  1.9705 -0.9569 -2.4578
  829MOL0     H 9370   8.272   2.554   3.176 -0.4732 -0.4026  0.0215
  829MOL0     H 9371   8.237   2.639   3.464  4.8629  3.3260  0.8538
  829MOL0     H 9372   8.250   2.464   3.383 -0.5281  1.4245 -0.0114
  829MOL0     H 9373   8.467   2.665   3.327  1.1016  1.0601  1.7038
  829MOL0     H 9374   8.470   2.489   3.352 -0.8780  0.1991 -1.9906
  829MOL0     H 9375   8.426   2.673   3.600 -2.2095 -2.5566 -0.0428
  829MOL0     H 9376   8.596   2.648   3.547 -0.0322  0.8503 -0.3841
  829MOL0     H 9377   8.481   2.503   3.735 -0.2478  1.2749 -0.4575
  829MOL0     H 9378   8.390   2.441   3.616 -0.4253  0.2596 -0.3325
  829MOL0     H 9379   8.697   2.447   3.625 -1.3801  0.2274  2.4834
  829MOL0     H 9380   8.612   2.374   3.485 -2.0681 -1.8701 -0.1382
  829MOL0     H 9381   8.563   2.108   3.516  0.7166 -1.6728 -0.2191
  829MOL0     H 9382   8.570   1.884   3.835  1.5184 -0.4388 -0.8908
  829MOL0     H 9383   8.632   1.880   3.667  0.9116  0.8308  0.6720
  829MOL0     H 9384   8.399   1.790   3.669 -0.3196  0.1292 -0.6379
  829MOL0     H 9385   8.384   1.950   3.596  1.4577  1.0006 -0.7414
  829MOL0     H 9386   8.226   1.873   3.760  0.6644 -0.3946 -3.7560
  829MOL0     H 9387   8.351   1.886   3.888  0.0422 -1.2456 -0.4311
  829MOL0     H 9388   8.358   2.137   3.799 -0.0550  0.1609  1.3213
  829MOL0     H 9389   8.202   2.090   3.888 -1.3311  0.8282 -1.2971
  829MOL0     H 9390   8.058   2.186   3.490  2.3024  0.5059  0.0268
  829MOL0     H 9391   7.930   2.390   3.476 -3.5033 -4.3282  2.1053
  829MOL0     H 9392   7.994   2.946   3.708 -0.0995  1.4979 -0.1039
  829MOL0     H 9393   7.847   3.128   3.749  2.5432 -0.1436 -0.1178
  829MOL0     H 9394   7.555   3.136   4.035 -1.3826 -0.6300 -0.4807
  829MOL0     H 9395   7.439   3.033   3.947 -4.4234  2.2549 -1.7711
  829MOL0     H 9396   7.372   3.226   3.823  0.9674  1.0231 -1.0526
  829MOL0     H 9397   7.481   3.338   3.918  0.9713 -0.8388 -1.2318
  829MOL0     H 9398   7.319   3.289   4.114  2.5781 -0.7100 -0.1477
  829MOL0     H 9399   7.282   3.129   4.035  0.3235 -0.8949  1.8458
  829MOL0     H 9400   7.224   3.386   3.891 -1.0976 -2.3161 -2.3445
  829MOL0     H 9401   7.121   3.249   3.900 -0.8213  2.3263 -3.0782
  829MOL0     H 9402   7.154   3.421   4.156  0.6986  0.5722 -0.1882
  829MOL0     H 9403   7.023   3.306   4.120  0.5419 -1.6664 -1.2388
  829MOL0     H 9404   6.930   3.443   3.959 -1.6628 -1.5832  4.2267
  829MOL0     H 9405   7.073   3.549   3.958  2.5098 -0.0888  1.6477
  829MOL0     H 9406   6.850   3.503   4.164  0.8520 -2.0668 -1.0672
  829MOL0     H 9407   6.983   3.566   4.231 -0.5522 -3.3188  0.8495
  829MOL0     H 9408   6.809   3.703   4.021  0.8087 -1.6552 -0.2353
  829MOL0     H 9409   6.975   3.765   4.032  0.6783  3.0453  3.5924
  829MOL0     H 9410   7.546   2.845   3.868 -0.6520 -1.8914 -2.2035
  829MOL0     H 9411   7.701   2.675   3.885  3.9795 -2.3703 -0.3014
  829MOL0     H 9412   8.155   2.534   3.831 -1.1318  1.3010 -0.5915
  829MOL0     H 9413   8.266   2.329   3.835 -0.9493  0.5364  1.5757
  829MOL0     H 9414   7.901   2.397   2.876 -0.6319 -2.2339 -2.1064
  829MOL0     H 9415   7.857   2.419   2.623  2.3353  0.9431 -2.6520
  829MOL0     H 9416   7.978   2.504   2.230 -0.2860  0.9627  1.9824
  829MOL0     H 9417   7.963   2.491   2.006 -2.5532 -0.9565 -0.6674
  829MOL0     H 9418   8.002   2.617   1.829 -0.3651 -2.8569  0.2925
  829MOL0     H 9419   7.928   2.713   1.689  0.3761 -1.4075 -2.7496
  829MOL0     H 9420   7.994   2.469   1.669  0.1214  0.5295 -0.4993
  829MOL0     H 9421   7.842   2.431   1.759 -1.0426 -0.5239 -2.1041
  829MOL0     H 9422   7.848   2.629   1.516  0.3261  0.5814  0.6796
  829MOL0     H 9423   7.715   2.539   1.602 -0.0258  2.5865  0.5324
  829MOL0     H 9424   7.929   2.389   1.462 -0.0706 -1.5799  3.0473
  829MOL0     H 9425   7.787   2.320   1.537 -0.4654 -0.4644 -2.0141
  829MOL0     H 9426   7.595   2.448   1.191  0.6527  1.5772 -0.6230
  829MOL0     H 9427   7.623   2.751   2.002 -3.2876 -3.7315  0.9303
  829MOL0     H 9428   7.664   2.788   2.266  0.8669 -0.3435  3.4403
  830MOL0     O 9429   3.478   1.651   0.094 -0.3508  0.0935  0.3673
  830MOL0     C 9430   3.599   1.670   0.112 -1.2692  0.7166 -0.7764
  830MOL0     O 9431   3.660   1.784   0.089 -0.3784 -0.0051  1.2498
  830MOL0     C 9432   3.602   1.905   0.069  0.1749 -0.1340 -0.7157
  830MOL0     C 9433   3.470   1.948   0.091  0.3789 -0.2537  0.8295
  830MOL0     C 9434   3.435   2.083   0.068  0.1493 -0.3883  0.6178
  830MOL0     C 9435   3.521   2.172   0.008 -0.1070 -0.3787 -0.5291
  830MOL0     O 9436   3.474   2.299  -0.000 -0.0969 -0.0779  1.1352
  830MOL0     C 9437   3.565   2.407  -0.044  0.1954 -0.4435 -0.2958
  830MOL0     C 9438   3.500   2.546  -0.064 -0.1687 -0.0200 -1.0494
  830MOL0     C 9439   3.406   2.585   0.057  0.6188 -0.3478  0.4822
  830MOL0     C 9440   3.334   2.712   0.013 -0.0234 -0.7637 -0.5720
  830MOL0     C 9441   3.238   2.756   0.128  0.4776 -0.2614  0.7997
  830MOL0     C 9442   3.122   2.846   0.073 -0.1032  0.2391  0.0368
  830MOL0     C 9443   3.168   2.985   0.028 -0.1532 -0.5075 -0.1063
  830MOL0     C 9444   3.273   3.061   0.114  0.4825 -0.1933 -0.3390
  830MOL0     N 9445   3.293   3.191   0.051  0.2656 -0.5820 -0.0066
  830MOL0     C 9446   3.366   3.209  -0.064  0.3884 -0.4525 -0.0729
  830MOL0     C 9447   3.366   3.340  -0.086  0.9875  0.0968  0.5795
  830MOL0     C 9448   3.420   3.407  -0.210  0.1225  0.7825 -0.2349
  830MOL0     C 9449   3.382   3.347  -0.350 -0.5362  0.4254  0.3995
  830MOL0     C 9450   3.224   3.343  -0.379  0.2951 -1.1506  0.0160
  830MOL0     C 9451   3.200   3.294  -0.521 -0.2101 -0.0420  0.1618
  830MOL0     O 9452   3.285   3.180  -0.537 -0.5068  0.0211  0.6456
  830MOL0     C 9453   3.279   3.113  -0.658 -0.1307  0.4431  0.2522
  830MOL0     C 9454   3.277   3.179  -0.788  1.0517 -0.7109 -0.3036
  830MOL0     C 9455   3.293   3.100  -0.903  0.2807 -0.4665  0.6781
  830MOL0     C 9456   3.298   2.956  -0.896  0.0251 -0.0209  0.5883
  830MOL0     C 9457   3.312   2.870  -1.016  0.0516 -1.2536  0.0334
  830MOL0     O 9458   3.349   2.732  -1.002  0.1118 -1.1759 -0.0045
  830MOL0     C 9459   3.376   2.650  -1.108 -0.6501 -0.1193 -0.1089
  830MOL0     C 9460   3.461   2.541  -1.084 -0.5296  0.1298  0.7697
  830MOL0     C 9461   3.498   2.460  -1.189  0.3119  0.4338 -0.7944
  830MOL0     C 9462   3.452   2.477  -1.324 -0.2630  0.2224 -0.0924
  830MOL0     O 9463   3.520   2.394  -1.411  0.7282  0.4302 -0.1314
  830MOL0     C 9464   3.517   2.435  -1.554 -1.0458 -0.3555 -0.6551
  830MOL0     C 9465   3.583   2.331  -1.637 -0.0039  0.5547 -0.2256
  830MOL0     C 9466   3.644   2.387  -1.767  0.3223  0.2414  0.1328
  830MOL0     C 9467   3.708   2.263  -1.842  0.8761 -0.4756  0.3807
  830MOL0     C 9468   3.804   2.307  -1.945  0.3502 -0.3205  0.1336
  830MOL0     C 9469   3.762   2.431  -2.032  0.6824  0.0206 -1.0324
  830MOL0     C 9470   3.881   2.492  -2.117  0.4793  0.6540 -0.4919
  830MOL0     C 9471   4.002   2.534  -2.037 -0.8483  1.2114  0.2643
  830MOL0    Cl 9472   3.963   2.644  -1.899 -0.2666  0.5227 -0.1844
  830MOL0     C 9473   3.356   2.578  -1.345 -0.7765 -0.0225 -0.4433
  830MOL0     C 9474   3.316   2.663  -1.238 -0.0258  0.0278  0.3504
  830MOL0     O 9475   3.280   2.931  -1.124  0.6669  0.6391 -0.3124
  830MOL0     C 9476   3.305   2.893  -0.768 -0.3907  0.6567  0.2811
  830MOL0     C 9477   3.301   2.972  -0.656  0.5148 -0.3332  0.2121
  830MOL0     N 9478   3.301   3.402   0.021  0.2002  0.0791 -0.2984
  830MOL0     N 9479   3.256   3.311   0.101  0.5334 -0.3259 -0.8895
  830MOL0     C 9480   3.652   2.125  -0.024 -1.0400  0.7107 -0.0655
  830MOL0     C 9481   3.691   1.998   0.021  0.4567  1.4020  0.2518
  830MOL0     C 9482   3.687   1.561   0.163  0.6918  1.1241  0.0100
  830MOL0     C 9483   3.785   1.588   0.260 -0.9157  0.5836  0.3763
  830MOL0     C 9484   3.846   1.473   0.320  0.1678  0.6634 -0.3232
  830MOL0     C 9485   3.819   1.341   0.293  0.3123  0.2964  0.7999
  830MOL0     O 9486   3.878   1.239   0.361  0.4306  0.2365  0.3997
  830MOL0     C 9487   3.857   1.103   0.304 -0.2353 -0.7182 -0.7434
  830MOL0     C 9488   3.945   1.005   0.394 -0.1289 -0.2569  0.8265
  830MOL0     C 9489   3.979   0.878   0.319  0.1041  0.4371 -0.3834
  830MOL0     C 9490   3.974   0.754   0.414  0.5420  0.2859  0.1303
  830MOL0     C 9491   4.069   0.758   0.524  0.3668  0.5190  0.2978
  830MOL0     C 9492   4.143   0.770   0.617  0.0474 -0.7140 -1.1126
  830MOL0     C 9493   3.725   1.322   0.193  0.4142  0.0978 -0.0731
  830MOL0     C 9494   3.657   1.423   0.136  0.2869  0.5927 -0.6622
  830MOL0     H 9495   3.390   1.881   0.121  1.6154 -0.9326  2.8347
  830MOL0     H 9496   3.335   2.119   0.091  0.6735  0.1890  2.1640
  830MOL0     H 9497   3.611   2.368  -0.135  2.4327  3.2057 -0.9191
  830MOL0     H 9498   3.630   2.427   0.042  1.4689 -0.5334 -1.2128
  830MOL0     H 9499   3.445   2.561  -0.157 -0.3777  0.2765 -0.8802
  830MOL0     H 9500   3.585   2.614  -0.070  0.5801 -0.8775 -0.3690
  830MOL0     H 9501   3.473   2.606   0.141  0.1001 -0.6552  0.9772
  830MOL0     H 9502   3.335   2.505   0.077  0.7309 -0.3420  0.9098
  830MOL0     H 9503   3.415   2.784  -0.002  0.8915 -2.2770 -3.8341
  830MOL0     H 9504   3.279   2.708  -0.082 -1.3080  0.0993  0.1195
  830MOL0     H 9505   3.284   2.811   0.210 -2.4218  3.0134  0.4791
  830MOL0     H 9506   3.186   2.673   0.177  1.4175 -2.7208 -2.0555
  830MOL0     H 9507   3.039   2.862   0.142  1.0837 -3.1175  2.4452
  830MOL0     H 9508   3.075   2.797  -0.013  0.9599 -0.1557 -0.3387
  830MOL0     H 9509   3.219   2.966  -0.067  3.0007 -0.0531  1.3587
  830MOL0     H 9510   3.078   3.046   0.020  1.2941  1.5509 -2.0169
  830MOL0     H 9511   3.368   3.009   0.126  0.5525 -0.1037 -0.5110
  830MOL0     H 9512   3.223   3.064   0.212 -3.1814 -0.8043 -2.0134
  830MOL0     H 9513   3.415   3.146  -0.138  1.6542 -0.1877  0.5219
  830MOL0     H 9514   3.529   3.398  -0.203 -0.0834 -1.0257  1.7360
  830MOL0     H 9515   3.393   3.513  -0.206 -1.1491  0.4866 -0.5043
  830MOL0     H 9516   3.428   3.248  -0.355  1.1325  1.0215  2.5470
  830MOL0     H 9517   3.434   3.410  -0.423 -0.2490 -1.5717 -1.2153
  830MOL0     H 9518   3.156   3.302  -0.304 -2.9771  2.6088 -0.5990
  830MOL0     H 9519   3.186   3.445  -0.388 -0.1553 -1.4008 -1.1275
  830MOL0     H 9520   3.210   3.367  -0.602 -1.0595 -2.5528 -2.3583
  830MOL0     H 9521   3.095   3.264  -0.526 -0.0482 -0.4652 -1.1833
  830MOL0     H 9522   3.272   3.285  -0.808  1.9723 -0.9331 -1.9165
  830MOL0     H 9523   3.293   3.154  -0.997  2.3114  0.8281  1.3570
  830MOL0     H 9524   3.500   2.529  -0.984  0.7529  1.9729  0.5246
  830MOL0     H 9525   3.566   2.378  -1.170 -0.1993 -0.2643 -1.8625
  830MOL0     H 9526   3.564   2.534  -1.553 -0.9221 -0.2895 -3.7475
  830MOL0     H 9527   3.410   2.447  -1.574 -1.6271  1.1514  2.6392
  830MOL0     H 9528   3.517   2.245  -1.650  0.6016  0.0496 -0.0169
  830MOL0     H 9529   3.659   2.287  -1.572 -1.4211  0.2852  1.3222
  830MOL0     H 9530   3.716   2.468  -1.751  0.2062 -0.1127  3.0311
  830MOL0     H 9531   3.555   2.432  -1.812 -1.1365 -0.8423  1.7699
  830MOL0     H 9532   3.754   2.195  -1.770 -1.2914  0.4649  2.8377
  830MOL0     H 9533   3.625   2.211  -1.891  1.5313  0.0419 -1.3355
  830MOL0     H 9534   3.847   2.227  -2.005  4.0604 -0.5629  2.7346
  830MOL0     H 9535   3.893   2.339  -1.888  0.0013  4.2196 -1.4252
  830MOL0     H 9536   3.714   2.512  -1.975 -0.2053 -1.5010  0.4744
  830MOL0     H 9537   3.683   2.390  -2.096  1.2631 -1.0273 -1.0909
  830MOL0     H 9538   3.910   2.427  -2.200 -2.0292  0.4436 -1.2632
  830MOL0     H 9539   3.837   2.578  -2.168  3.0340  1.6535 -1.2097
  830MOL0     H 9540   4.063   2.593  -2.106  0.3822 -0.6155 -0.3036
  830MOL0     H 9541   4.056   2.444  -2.005 -0.1392  1.0882 -1.1748
  830MOL0     H 9542   3.316   2.595  -1.444 -1.0803 -1.4934 -0.5928
  830MOL0     H 9543   3.243   2.743  -1.246 -1.3435 -1.0705  0.9155
  830MOL0     H 9544   3.318   2.786  -0.783 -0.9687  0.8515 -1.8663
  830MOL0     H 9545   3.322   2.929  -0.558 -0.0341 -0.7597  0.1457
  830MOL0     H 9546   3.730   2.191  -0.063  0.4125  0.2815  1.9605
  830MOL0     H 9547   3.796   1.973   0.025  0.2001  0.4286  3.4388
  830MOL0     H 9548   3.819   1.691   0.268 -1.8338  0.8175  1.5355
  830MOL0     H 9549   3.916   1.491   0.401 -1.4540 -0.0964  1.3331
  830MOL0     H 9550   3.884   1.110   0.199  1.0947  0.2521 -0.3712
  830MOL0     H 9551   3.757   1.062   0.321  0.1366 -1.2924  0.1279
  830MOL0     H 9552   4.046   1.047   0.392 -0.7437  1.2859 -1.1308
  830MOL0     H 9553   3.907   0.991   0.496  2.5667 -1.8177  1.7391
  830MOL0     H 9554   4.071   0.894   0.262  0.8551  1.4453  1.0351
  830MOL0     H 9555   3.904   0.849   0.245 -0.2992 -0.5967  0.4101
  830MOL0     H 9556   3.875   0.759   0.459  0.4717 -1.2826  0.1871
  830MOL0     H 9557   3.963   0.654   0.372 -3.1888 -0.8256  3.1523
  830MOL0     H 9558   4.198   0.784   0.708 -0.9257 -1.6401 -0.3487
  830MOL0     H 9559   3.676   1.227   0.173 -1.4138  0.3519  2.7164
  830MOL0     H 9560   3.565   1.410   0.079 -2.3869  0.5815  3.2160
  831MOL0     O 9561   5.133   0.472  10.929 -0.1918  0.1303 -0.2284
  831MOL0     C 9562   5.028   0.416  10.884 -0.6397 -0.9559  0.2195
  831MOL0     O 9563   5.002   0.376  10.750 -0.9132 -0.3846 -0.1799
  831MOL0     C 9564   5.092   0.390  10.650  0.7577  0.4918  0.4461
  831MOL0     C 9565   5.191   0.482  10.631  0.3921  0.0767  0.0472
  831MOL0     C 9566   5.284   0.478  10.523 -1.1462 -0.0655  0.3253
  831MOL0     C 9567   5.274   0.383  10.428  0.1779  0.6197  0.2623
  831MOL0     O 9568   5.378   0.362  10.339  0.9694 -0.2587 -0.0590
  831MOL0     C 9569   5.409   0.226  10.314  0.1568  0.1856 -0.6029
  831MOL0     C 9570   5.545   0.248  10.236 -0.3386 -0.2687  0.8254
  831MOL0     C 9571   5.530   0.277  10.083  0.1333 -0.7034 -0.6631
  831MOL0     C 9572   5.457   0.409  10.042 -0.5550  0.3730 -0.0945
  831MOL0     C 9573   5.449   0.417   9.890 -0.2487  0.4806 -0.2365
  831MOL0     C 9574   5.336   0.325   9.841 -0.2507  0.8603  0.1343
  831MOL0     C 9575   5.309   0.363   9.698 -0.4417  1.1347 -0.0080
  831MOL0     C 9576   5.196   0.279   9.649 -0.2863 -0.6356  0.7599
  831MOL0     N 9577   5.175   0.282   9.506  0.2342  0.7406 -0.3523
  831MOL0     C 9578   5.144   0.393   9.433  0.2947  0.3192  0.8708
  831MOL0     C 9579   5.125   0.343   9.308  0.1190 -0.8552  0.3913
  831MOL0     C 9580   5.075   0.417   9.181 -0.2182 -0.8893  0.9553
  831MOL0     C 9581   5.133   0.371   9.049 -0.8171  0.0360 -0.0699
  831MOL0     C 9582   5.284   0.387   9.052  0.0080  0.3658 -0.2084
  831MOL0     C 9583   5.361   0.345   8.931 -0.9104 -0.8689  0.5109
  831MOL0     O 9584   5.307   0.420   8.807  0.3557 -0.0286 -0.4600
  831MOL0     C 9585   5.382   0.396   8.689 -0.1050  0.9120  0.7050
  831MOL0     C 9586   5.472   0.297   8.666  0.0522  0.0037 -0.0819
  831MOL0     C 9587   5.537   0.281   8.546 -0.5291 -1.2829  0.0300
  831MOL0     C 9588   5.511   0.374   8.445  0.3424 -0.6664 -0.2738
  831MOL0     C 9589   5.575   0.362   8.314  0.2965  0.2450  0.5589
  831MOL0     O 9590   5.547   0.450   8.215 -0.0888  0.4018 -0.8474
  831MOL0     C 9591   5.608   0.460   8.093 -0.0482 -0.1594 -0.2707
  831MOL0     C 9592   5.695   0.568   8.071  0.0718 -0.1641 -0.6893
  831MOL0     C 9593   5.727   0.599   7.944 -1.8734  0.5616 -0.0599
  831MOL0     C 9594   5.692   0.515   7.833  0.7563 -0.0552 -0.9880
  831MOL0     O 9595   5.728   0.526   7.702  0.6013 -0.2733 -0.3730
  831MOL0     C 9596   5.865   0.568   7.679  0.0223  0.0198 -0.3981
  831MOL0     C 9597   5.885   0.545   7.531 -0.1668 -0.3757 -0.5217
  831MOL0     C 9598   6.020   0.484   7.482 -0.2370 -0.4940  0.4814
  831MOL0     C 9599   6.149   0.560   7.523 -0.8237  0.2970  0.2317
  831MOL0     C 9600   6.269   0.470   7.492 -1.2731  0.0810  0.1513
  831MOL0     C 9601   6.398   0.555   7.508  0.0451  0.3835 -0.1516
  831MOL0     C 9602   6.511   0.457   7.496 -0.3752  0.6837  0.1163
  831MOL0     C 9603   6.650   0.528   7.444  0.5048  0.0782 -0.3672
  831MOL0    Cl 9604   6.648   0.559   7.267 -0.2504 -0.4168 -0.2998
  831MOL0     C 9605   5.616   0.402   7.861  1.2611 -0.5972  0.3548
  831MOL0     C 9606   5.560   0.381   7.986 -0.8695  0.3805  0.0677
  831MOL0     O 9607   5.644   0.263   8.304  0.1103 -0.4376 -0.3137
  831MOL0     C 9608   5.429   0.482   8.465 -0.2570  0.4304  0.5084
  831MOL0     C 9609   5.359   0.494   8.586 -0.3766  0.0263 -0.2363
  831MOL0     N 9610   5.142   0.208   9.313  0.6459  0.1797 -0.6037
  831MOL0     N 9611   5.171   0.172   9.433 -0.3025  0.2581 -0.4206
  831MOL0     C 9612   5.170   0.281  10.442  0.8259 -1.0851  0.2317
  831MOL0     C 9613   5.078   0.297  10.549 -0.1801  0.4363 -0.1639
  831MOL0     C 9614   4.938   0.366  10.988  0.3322  0.2613 -0.3108
  831MOL0     C 9615   4.919   0.450  11.105  0.3962 -0.1554 -0.3014
  831MOL0     C 9616   4.825   0.410  11.201 -0.9129  0.7603 -0.2163
  831MOL0     C 9617   4.750   0.286  11.189 -1.1290 -1.0214 -0.1405
  831MOL0     O 9618   4.663   0.238  11.280 -0.6151  0.0282 -0.1433
  831MOL0     C 9619   4.644   0.296  11.408 -0.2530 -0.0214  0.0451
  831MOL0     C 9620   4.620   0.189  11.512 -0.6012  0.0413  0.0597
  831MOL0     C 9621   4.513   0.089  11.475  0.2171  0.4575  0.3755
  831MOL0     C 9622   4.370   0.152  11.476  0.8494 -0.0013 -0.5546
  831MOL0     C 9623   4.285   0.114  11.588 -0.0094 -0.0269  0.0209
  831MOL0     C 9624   4.224   0.072  11.679 -0.2447  0.8797  0.0739
  831MOL0     C 9625   4.772   0.213  11.072 -0.3609 -0.4851 -0.0482
  831MOL0     C 9626   4.868   0.240  10.972 -0.1295 -0.0081  0.0364
  831MOL0     H 9627   5.184   0.567  10.698 -0.7534  1.8129 -2.1410
  831MOL0     H 9628   5.362   0.553  10.516  1.8973 -3.0278  0.4967
  831MOL0     H 9629   5.339   0.167  10.254 -3.7808  2.5479  1.2247
  831MOL0     H 9630   5.425   0.176  10.410  1.8268  1.7380 -0.0073
  831MOL0     H 9631   5.618   0.167  10.243  3.2168  2.6231  0.2428
  831MOL0     H 9632   5.594   0.328  10.292  1.2721 -0.0967 -0.7517
  831MOL0     H 9633   5.461   0.201  10.048 -1.9659 -0.2346  2.1197
  831MOL0     H 9634   5.629   0.264  10.039 -0.3503 -4.5166 -0.9554
  831MOL0     H 9635   5.355   0.413  10.081 -0.4049  2.2446  0.2368
  831MOL0     H 9636   5.515   0.495  10.078  4.7178 -3.8175  2.8799
  831MOL0     H 9637   5.547   0.384   9.854  0.5431  0.4235  1.8601
  831MOL0     H 9638   5.431   0.521   9.863  1.4123  0.7442 -0.4724
  831MOL0     H 9639   5.245   0.337   9.900 -0.4742 -0.9533  0.2157
  831MOL0     H 9640   5.364   0.220   9.833 -1.2658  0.6759 -1.4632
  831MOL0     H 9641   5.283   0.469   9.691 -2.9980  0.4303 -3.3930
  831MOL0     H 9642   5.396   0.357   9.632 -1.2821  0.5471 -1.0859
  831MOL0     H 9643   5.108   0.322   9.698 -0.2834 -0.8243  0.9316
  831MOL0     H 9644   5.219   0.176   9.680  1.2458  0.0023  1.8676
  831MOL0     H 9645   5.145   0.496   9.469 -1.2689  0.5142  0.4360
  831MOL0     H 9646   5.088   0.526   9.191 -0.0558 -0.6560 -1.2917
  831MOL0     H 9647   4.966   0.405   9.173 -0.7102  2.5648  0.9589
  831MOL0     H 9648   5.094   0.433   8.968 -1.2476  0.8279  0.7273
  831MOL0     H 9649   5.103   0.266   9.045  0.2561 -0.2516 -1.1562
  831MOL0     H 9650   5.307   0.493   9.067 -0.8248  0.2544  2.5258
  831MOL0     H 9651   5.328   0.333   9.137 -0.2658 -2.1352 -1.5679
  831MOL0     H 9652   5.362   0.236   8.924 -0.0699 -1.1011  3.3541
  831MOL0     H 9653   5.460   0.387   8.945 -0.2232 -2.0079 -0.6759
  831MOL0     H 9654   5.502   0.227   8.744 -0.7108  2.5476  2.6675
  831MOL0     H 9655   5.614   0.206   8.528  2.6747  1.9342 -0.7943
  831MOL0     H 9656   5.742   0.624   8.151 -1.9811  2.4309 -1.1255
  831MOL0     H 9657   5.792   0.683   7.924 -1.8384  1.3773  2.9965
  831MOL0     H 9658   5.927   0.499   7.737  1.9672  0.6575 -1.6305
  831MOL0     H 9659   5.889   0.671   7.707  1.9709 -0.5443  0.1385
  831MOL0     H 9660   5.881   0.646   7.490 -0.0843  0.4450  1.3817
  831MOL0     H 9661   5.803   0.489   7.485 -1.7838  1.1177  0.4178
  831MOL0     H 9662   6.016   0.489   7.373 -2.7211 -0.7261  0.5005
  831MOL0     H 9663   6.016   0.380   7.517 -1.0895 -0.3097  0.9708
  831MOL0     H 9664   6.172   0.645   7.458 -0.0552 -1.8648 -2.4934
  831MOL0     H 9665   6.151   0.576   7.631  0.7745 -2.3183  0.6552
  831MOL0     H 9666   6.268   0.444   7.386  0.3978  2.9893 -0.7091
  831MOL0     H 9667   6.269   0.378   7.551 -1.0025 -0.0522 -0.0557
  831MOL0     H 9668   6.388   0.606   7.604 -1.0239 -1.4268  0.7374
  831MOL0     H 9669   6.397   0.621   7.421 -0.1343  0.7910  0.1552
  831MOL0     H 9670   6.532   0.420   7.597  0.0112 -0.4546 -0.3630
  831MOL0     H 9671   6.489   0.367   7.439 -2.4146  2.0443 -1.3886
  831MOL0     H 9672   6.737   0.463   7.457 -0.3358 -0.9152  0.4239
  831MOL0     H 9673   6.677   0.617   7.500  2.4967 -0.5341 -0.2814
  831MOL0     H 9674   5.587   0.331   7.785  1.8961  0.8599 -1.2963
  831MOL0     H 9675   5.490   0.299   8.002  0.1021 -0.7688 -1.2867
  831MOL0     H 9676   5.410   0.557   8.390 -1.8885 -0.9596 -0.5403
  831MOL0     H 9677   5.291   0.576   8.607  1.9120  1.2101  3.6717
  831MOL0     H 9678   5.155   0.206  10.366  2.0260 -2.8031  1.5904
  831MOL0     H 9679   4.995   0.228  10.558 -1.1888  1.4366 -1.3724
  831MOL0     H 9680   4.969   0.547  11.107  0.0234  0.0471  2.1373
  831MOL0     H 9681   4.816   0.472  11.291  1.7467  1.1593 -0.1493
  831MOL0     H 9682   4.568   0.374  11.403  0.2202  0.3581 -2.6160
  831MOL0     H 9683   4.742   0.340  11.431 -0.0626 -0.7977  0.7979
  831MOL0     H 9684   4.717   0.144  11.535 -1.1941 -0.7121  1.1926
  831MOL0     H 9685   4.593   0.230  11.610  1.4464 -0.7211  1.0122
  831MOL0     H 9686   4.504   0.011  11.552 -3.0139 -0.1504 -0.4521
  831MOL0     H 9687   4.537   0.044  11.378 -0.2406 -0.4026  0.6418
  831MOL0     H 9688   4.379   0.261  11.485  1.3698 -0.0993  0.1750
  831MOL0     H 9689   4.318   0.132  11.382  2.5867 -0.5641 -1.4507
  831MOL0     H 9690   4.166   0.041  11.764 -1.4840  0.6082 -0.8396
  831MOL0     H 9691   4.703   0.130  11.056  0.7768 -1.3840 -0.4685
  831MOL0     H 9692   4.878   0.173  10.887  1.8710  1.7950 -1.2747
  832MOL0     O 9693   2.899  10.895   2.746  0.1242  1.0582 -0.4971
  832MOL0     C 9694   2.794  10.938   2.790  0.0365 -0.2135  1.3553
  832MOL0     O 9695   2.737  11.059   2.774 -0.7355  0.2108  0.6717
  832MOL0     C 9696   2.813  11.166   2.746 -0.4073 -0.3337  0.2257
  832MOL0     C 9697   2.953  11.185   2.778  0.5498  0.6261  0.9294
  832MOL0     C 9698   3.008  11.314   2.768 -0.1222  0.0158 -0.2015
  832MOL0     C 9699   2.934  11.437   2.751 -0.4943 -0.1152  0.4314
  832MOL0     O 9700   2.990  11.560   2.747 -0.6326  0.6172 -0.0387
  832MOL0     C 9701   2.962  11.622   2.625 -0.3678 -0.8199 -0.2258
  832MOL0     C 9702   3.041  11.755   2.615  0.0915 -0.0210  0.5293
  832MOL0     C 9703   3.195  11.746   2.639  0.2997  0.0326 -0.0055
  832MOL0     C 9704   3.263  11.700   2.508  0.5282  0.5051 -0.2587
  832MOL0     C 9705   3.389  11.638   2.545 -0.2715 -0.9426  0.9836
  832MOL0     C 9706   3.374  11.484   2.555 -1.2960 -0.6750 -0.5342
  832MOL0     C 9707   3.487  11.433   2.645 -0.1591  0.3704 -0.4586
  832MOL0     C 9708   3.631  11.451   2.594  0.2267 -0.1920 -0.6859
  832MOL0     N 9709   3.641  11.388   2.465 -0.3931 -0.3209  0.2233
  832MOL0     C 9710   3.651  11.258   2.450 -0.4733  0.2908  0.4446
  832MOL0     C 9711   3.656  11.239   2.315 -0.1967  0.1566  0.0559
  832MOL0     C 9712   3.672  11.114   2.243  0.0047 -0.1994  0.8229
  832MOL0     C 9713   3.813  11.062   2.245  0.1163  0.6031 -0.3585
  832MOL0     C 9714   3.900  11.140   2.148  0.3453 -0.5350  0.0674
  832MOL0     C 9715   3.990  11.250   2.217  0.0720 -0.1516 -0.0509
  832MOL0     O 9716   4.077  11.191   2.318  0.2848  0.2846 -0.0612
  832MOL0     C 9717   4.214  11.210   2.296  0.8421 -1.0294  1.2097
  832MOL0     C 9718   4.273  11.188   2.173 -0.0912 -0.6698 -0.5161
  832MOL0     C 9719   4.409  11.205   2.151  0.0987 -0.4354 -0.4074
  832MOL0     C 9720   4.492  11.252   2.257  0.4326  0.6682 -0.4274
  832MOL0     C 9721   4.642  11.252   2.230 -0.2335 -1.2145 -1.1718
  832MOL0     O 9722   4.682  11.237   2.101  0.8278 -0.5033 -0.0763
  832MOL0     C 9723   4.813  11.215   2.086 -0.0442  0.3856  0.4672
  832MOL0     C 9724   4.888  11.277   1.984  1.0560  0.1965  0.2863
  832MOL0     C 9725   5.026  11.243   1.964  1.2142 -0.2500  0.8489
  832MOL0     C 9726   5.085  11.147   2.042 -0.5308  1.1518  0.1817
  832MOL0     O 9727   5.219  11.119   2.028  0.1162 -0.7529  0.3612
  832MOL0     C 9728   5.254  11.007   1.940  0.9614 -0.2911  0.1433
  832MOL0     C 9729   5.226  10.865   2.009  0.5643  0.7318  1.0041
  832MOL0     C 9730   5.101  10.813   1.929 -0.0742  0.6898 -0.4364
  832MOL0     C 9731   5.070  10.676   1.999  0.0790 -0.0899  0.5148
  832MOL0     C 9732   4.956  10.598   1.936 -0.3954  0.3965 -0.4178
  832MOL0     C 9733   4.808  10.647   1.961  0.3757 -0.2337 -0.0542
  832MOL0     C 9734   4.711  10.546   1.921  0.0110  0.4651  0.5944
  832MOL0     C 9735   4.721  10.530   1.766  0.0483 -1.0195  0.6187
  832MOL0    Cl 9736   4.563  10.535   1.673 -0.4089  0.0842 -0.2425
  832MOL0     C 9737   5.015  11.096   2.152  0.2522  0.0732  0.1772
  832MOL0     C 9738   4.878  11.121   2.170 -0.4936 -0.8187  0.4069
  832MOL0     O 9739   4.708  11.312   2.316 -0.9158 -0.9058  1.1279
  832MOL0     C 9740   4.426  11.289   2.382 -0.1834  0.6875  0.3487
  832MOL0     C 9741   4.287  11.259   2.397  0.4306  0.5390  1.1774
  832MOL0     N 9742   3.642  11.362   2.252  0.4377  0.4090 -0.9440
  832MOL0     N 9743   3.636  11.455   2.339  0.2194  0.5220  0.7929
  832MOL0     C 9744   2.800  11.418   2.721  1.0286  0.3421 -0.2596
  832MOL0     C 9745   2.747  11.286   2.720 -0.1152  0.6148  0.0804
  832MOL0     C 9746   2.715  10.824   2.847  1.2396 -0.3088  0.9006
  832MOL0     C 9747   2.568  10.830   2.859  0.2756 -0.1920 -0.9860
  832MOL0     C 9748   2.501  10.725   2.921  0.0474  0.0957 -0.4934
  832MOL0     C 9749   2.572  10.622   2.983 -0.2326  0.4523  0.0672
  832MOL0     O 9750   2.515  10.528   3.069  0.1945  0.6446 -0.2271
  832MOL0     C 9751   2.384  10.491   3.071 -0.0239 -0.1020  1.1930
  832MOL0     C 9752   2.355  10.395   2.953 -0.6287 -0.6678  0.1718
  832MOL0     C 9753   2.208  10.359   2.922  0.4525 -0.2785 -0.3488
  832MOL0     C 9754   2.189  10.246   2.817  0.3272  0.5389 -0.9457
  832MOL0     C 9755   2.061  10.252   2.756  0.2360 -0.4205  0.7146
  832MOL0     C 9756   1.949  10.257   2.697  0.0967  0.1483 -0.6811
  832MOL0     C 9757   2.712  10.622   2.969  0.3119 -0.2660  0.1790
  832MOL0     C 9758   2.781  10.707   2.893  0.9943 -0.5800 -0.1746
  832MOL0     H 9759   3.013  11.102   2.813 -0.2700  0.1438  1.2242
  832MOL0     H 9760   3.117  11.306   2.773 -0.0701 -0.6042 -1.7750
  832MOL0     H 9761   2.856  11.649   2.625 -0.4858 -0.4016  4.6699
  832MOL0     H 9762   2.974  11.559   2.536 -2.5131 -0.4633 -0.8227
  832MOL0     H 9763   2.992  11.833   2.675  0.6414  0.0175  0.9421
  832MOL0     H 9764   3.021  11.778   2.510  2.7628 -1.2504 -0.3173
  832MOL0     H 9765   3.207  11.686   2.730  1.9321  0.0010 -0.2042
  832MOL0     H 9766   3.239  11.846   2.638  1.5238 -0.4840  0.0052
  832MOL0     H 9767   3.194  11.633   2.455  2.7246 -0.2321 -2.3584
  832MOL0     H 9768   3.280  11.779   2.434 -1.2849  1.1237 -0.0641
  832MOL0     H 9769   3.431  11.688   2.633 -0.6314  2.4285 -0.6320
  832MOL0     H 9770   3.453  11.663   2.460 -1.8846 -0.1153 -0.0174
  832MOL0     H 9771   3.389  11.438   2.457  2.0711 -3.0767  0.8859
  832MOL0     H 9772   3.279  11.469   2.607 -0.5993 -0.0595  1.0073
  832MOL0     H 9773   3.468  11.471   2.745  3.0283 -1.9282  1.1843
  832MOL0     H 9774   3.470  11.325   2.656  1.0739  0.4279  3.0289
  832MOL0     H 9775   3.711  11.414   2.659  0.2324 -1.0332 -1.1534
  832MOL0     H 9776   3.655  11.557   2.586  1.2659 -0.4195 -0.7176
  832MOL0     H 9777   3.679  11.188   2.528  0.0019 -0.4838 -0.4047
  832MOL0     H 9778   3.643  11.129   2.138 -4.1662  0.1774  1.8449
  832MOL0     H 9779   3.602  11.042   2.287 -1.9421  1.0689 -0.0341
  832MOL0     H 9780   3.807  10.963   2.199  1.0898 -0.3729  1.5051
  832MOL0     H 9781   3.848  11.055   2.348  3.6256 -0.1128 -1.4691
  832MOL0     H 9782   3.964  11.064   2.101  0.6534  0.6349 -1.5044
  832MOL0     H 9783   3.839  11.198   2.077  0.8841  0.5178  0.4427
  832MOL0     H 9784   3.929  11.322   2.272 -0.5900  0.5093 -1.5827
  832MOL0     H 9785   4.047  11.313   2.149  1.1501  0.9221  1.7832
  832MOL0     H 9786   4.201  11.150   2.101 -2.4838 -0.2808  1.5189
  832MOL0     H 9787   4.451  11.167   2.058  1.8607 -1.1812  0.6204
  832MOL0     H 9788   4.854  11.349   1.910 -1.7130 -1.8455 -0.5964
  832MOL0     H 9789   5.086  11.288   1.885 -0.6696  0.1196 -0.4577
  832MOL0     H 9790   5.363  11.002   1.932  1.2202 -2.1188  3.2275
  832MOL0     H 9791   5.193  11.021   1.850 -0.5801  1.1221  1.3585
  832MOL0     H 9792   5.198  10.872   2.115  0.3840 -3.6285  1.4169
  832MOL0     H 9793   5.310  10.798   1.988 -0.4601  0.0848 -1.3852
  832MOL0     H 9794   5.131  10.793   1.826 -1.6909  0.2887 -0.8463
  832MOL0     H 9795   5.016  10.881   1.938  0.4281  1.3031 -0.2810
  832MOL0     H 9796   5.165  10.624   1.984  0.1034  0.6787 -2.9166
  832MOL0     H 9797   5.038  10.681   2.104  0.9687 -0.0882  0.7943
  832MOL0     H 9798   4.952  10.505   1.993 -0.6706  0.9095  0.4180
  832MOL0     H 9799   4.978  10.568   1.833 -0.6171 -3.1410  0.4376
  832MOL0     H 9800   4.787  10.737   1.902 -1.8562 -0.2153  0.6704
  832MOL0     H 9801   4.801  10.672   2.067  1.3841  0.3949 -0.1237
  832MOL0     H 9802   4.748  10.453   1.966  0.4212  1.0270  1.4201
  832MOL0     H 9803   4.608  10.574   1.944 -0.5142 -1.0000  0.1373
  832MOL0     H 9804   4.786  10.447   1.738  1.6081  0.2191  0.4247
  832MOL0     H 9805   4.787  10.612   1.737 -0.1727 -1.5445 -1.5611
  832MOL0     H 9806   5.043  11.011   2.213 -3.0642 -1.0916  0.2679
  832MOL0     H 9807   4.836  11.078   2.260 -0.1315  3.6278  2.9946
  832MOL0     H 9808   4.493  11.335   2.454  0.2088  0.2895  0.2444
  832MOL0     H 9809   4.239  11.268   2.493 -1.5978  0.2354  0.2476
  832MOL0     H 9810   2.742  11.504   2.689  2.6512  3.6541  4.5444
  832MOL0     H 9811   2.642  11.277   2.694  0.4763 -2.8795 -1.5911
  832MOL0     H 9812   2.503  10.907   2.819 -3.2931 -3.0480 -1.1383
  832MOL0     H 9813   2.393  10.727   2.937  0.3649  2.3134  1.8740
  832MOL0     H 9814   2.328  10.584   3.055  2.3637  0.9061 -2.4727
  832MOL0     H 9815   2.360  10.441   3.165  1.5149 -3.1594  0.0805
  832MOL0     H 9816   2.388  10.446   2.861 -2.7537 -0.5930 -0.6028
  832MOL0     H 9817   2.418  10.307   2.970  2.3512  1.7828  3.4121
  832MOL0     H 9818   2.167  10.455   2.890  3.1219  1.0421 -0.0792
  832MOL0     H 9819   2.145  10.326   3.005  1.5562 -2.3488 -0.2721
  832MOL0     H 9820   2.265  10.261   2.739  2.2303  0.0131  0.7116
  832MOL0     H 9821   2.198  10.147   2.862 -0.3459  1.4770  1.3526
  832MOL0     H 9822   1.865  10.251   2.630  2.1039  1.0859 -3.4990
  832MOL0     H 9823   2.757  10.541   3.025  0.5623  0.3881  0.9436
  832MOL0     H 9824   2.884  10.679   2.872  0.3402 -3.3734 -0.1083
  833MOL0     O 9825   2.267   0.354   8.866  0.8569 -0.1955  0.4470
  833MOL0     C 9826   2.251   0.408   8.975  1.0053 -0.4936 -0.4064
  833MOL0     O 9827   2.195   0.528   8.996  0.5789  0.5046 -0.7530
  833MOL0     C 9828   2.139   0.602   8.895 -0.3115  0.3265 -0.2081
  833MOL0     C 9829   2.213   0.630   8.779 -1.4246 -0.6791 -0.6665
  833MOL0     C 9830   2.168   0.708   8.670  1.1818  0.9184 -0.7925
  833MOL0     C 9831   2.036   0.756   8.679 -0.2673 -0.7014 -0.5360
  833MOL0     O 9832   1.975   0.832   8.583 -0.9666  0.1105  0.2691
  833MOL0     C 9833   2.054   0.939   8.534 -0.9669  0.1375  0.1136
  833MOL0     C 9834   1.971   1.036   8.459 -0.2808 -0.2396  0.4542
  833MOL0     C 9835   2.053   1.161   8.416 -0.5894  0.4194  1.1666
  833MOL0     C 9836   1.973   1.265   8.350  0.2953  0.1487  0.7965
  833MOL0     C 9837   2.022   1.398   8.297  0.3568  0.0036  0.7250
  833MOL0     C 9838   2.109   1.366   8.177  0.3788  0.0415  1.3778
  833MOL0     C 9839   2.167   1.493   8.118 -0.4933  0.3107 -0.0072
  833MOL0     C 9840   2.252   1.572   8.215 -0.1497 -0.3308  0.0801
  833MOL0     N 9841   2.362   1.654   8.165  0.1413 -0.0619 -0.2932
  833MOL0     C 9842   2.354   1.790   8.180  0.7348  0.1497 -0.9630
  833MOL0     C 9843   2.459   1.847   8.123 -0.0496  0.6781 -0.4861
  833MOL0     C 9844   2.485   1.997   8.109  0.4205  0.2954 -0.2255
  833MOL0     C 9845   2.612   2.038   8.011  0.1508 -0.7169 -0.0522
  833MOL0     C 9846   2.750   2.046   8.078  0.3358 -0.3909  1.0464
  833MOL0     C 9847   2.811   1.906   8.114  0.1959  0.2022  0.0939
  833MOL0     O 9848   2.951   1.931   8.124 -0.5445 -0.0909 -0.5580
  833MOL0     C 9849   3.000   1.894   8.246 -0.1051 -0.2681 -0.7001
  833MOL0     C 9850   2.993   1.982   8.359 -0.1809  0.0710 -0.3640
  833MOL0     C 9851   3.025   1.931   8.487 -0.0671 -0.1933 -0.4260
  833MOL0     C 9852   3.043   1.793   8.505  0.6422 -0.0384  0.0492
  833MOL0     C 9853   3.041   1.732   8.633  0.9191  0.3032 -1.1486
  833MOL0     O 9854   3.055   1.811   8.745 -0.2466  0.2632 -0.2465
  833MOL0     C 9855   3.060   1.740   8.868 -0.3387  0.6711  0.6977
  833MOL0     C 9856   3.183   1.706   8.924  0.5376 -0.0932 -0.0732
  833MOL0     C 9857   3.188   1.652   9.054 -0.2480 -0.5783 -0.3261
  833MOL0     C 9858   3.068   1.637   9.133  0.0828 -0.0830 -0.0004
  833MOL0     O 9859   3.080   1.589   9.268  0.7218  0.0807  0.2719
  833MOL0     C 9860   3.039   1.690   9.358  0.9429  0.2250 -0.3135
  833MOL0     C 9861   3.136   1.805   9.376  0.6245  0.4887 -0.2832
  833MOL0     C 9862   3.174   1.830   9.525  0.8082 -0.7684  0.0648
  833MOL0     C 9863   3.258   1.700   9.574  0.8253 -0.0603  0.3466
  833MOL0     C 9864   3.283   1.711   9.726 -0.2189  0.5034 -0.2231
  833MOL0     C 9865   3.397   1.810   9.754  0.3423  0.5205 -0.1173
  833MOL0     C 9866   3.380   1.877   9.893 -0.0933 -0.3776  0.1104
  833MOL0     C 9867   3.504   1.951   9.927 -0.0626  0.0102  0.2873
  833MOL0    Cl 9868   3.486   2.076  10.066 -0.6231  0.2207  0.5042
  833MOL0     C 9869   2.948   1.680   9.071  0.1108 -0.1645  0.4139
  833MOL0     C 9870   2.946   1.724   8.933  0.3320  0.5293  0.3246
  833MOL0     O 9871   3.039   1.609   8.639  0.9658 -0.2438  0.5771
  833MOL0     C 9872   3.057   1.718   8.386 -0.0129 -0.0309  0.0011
  833MOL0     C 9873   3.042   1.766   8.264 -0.1887  0.5854  0.7364
  833MOL0     N 9874   2.532   1.735   8.083  0.0493  0.0241  0.6371
  833MOL0     N 9875   2.473   1.612   8.107 -0.2963 -0.3881 -0.2743
  833MOL0     C 9876   1.953   0.720   8.788 -0.2018 -0.3665 -0.1930
  833MOL0     C 9877   2.005   0.644   8.896  0.3707 -0.4541  0.3954
  833MOL0     C 9878   2.250   0.318   9.092  0.0440 -1.0480  0.7421
  833MOL0     C 9879   2.297   0.187   9.079 -0.3470 -0.3014 -0.2861
  833MOL0     C 9880   2.319   0.112   9.194 -0.4505 -0.0938  0.2054
  833MOL0     C 9881   2.297   0.167   9.320  0.8232  0.5154 -1.3780
  833MOL0     O 9882   2.315   0.094   9.442 -0.0323 -1.0833 -0.3957
  833MOL0     C 9883   2.412  -0.005   9.435  0.3417 -0.3638 -0.1438
  833MOL0     C 9884   2.444  -0.025   9.582 -0.2741  0.6295  0.0775
  833MOL0     C 9885   2.336  -0.110   9.656 -0.0000 -0.0666 -0.0659
  833MOL0     C 9886   2.344  -0.115   9.818  0.2935 -0.1928 -0.1878
  833MOL0     C 9887   2.473  -0.166   9.852 -0.8878  0.1842  0.0569
  833MOL0     C 9888   2.584  -0.220   9.877  0.4850 -0.2913  0.1295
  833MOL0     C 9889   2.227   0.292   9.333 -0.6130 -0.6594  0.3954
  833MOL0     C 9890   2.211   0.369   9.212  0.7869  0.8230  0.3040
  833MOL0     H 9891   2.317   0.600   8.781 -1.0393  0.6124  0.0099
  833MOL0     H 9892   2.232   0.728   8.585  0.6123  0.5485 -1.3120
  833MOL0     H 9893   2.126   0.899   8.462 -1.6927 -2.8754  0.8957
  833MOL0     H 9894   2.094   1.005   8.611  1.2109 -0.5480 -0.3688
  833MOL0     H 9895   1.890   1.077   8.520  0.2108  0.6830  0.5067
  833MOL0     H 9896   1.917   0.987   8.377 -1.1933 -0.2337  1.0277
  833MOL0     H 9897   2.140   1.142   8.353  0.4993  2.6255  1.9126
  833MOL0     H 9898   2.100   1.212   8.501  4.2405  0.7170 -1.3155
  833MOL0     H 9899   1.924   1.206   8.272  1.0734 -1.1789  1.2807
  833MOL0     H 9900   1.906   1.302   8.428  0.2980 -0.0719  0.9053
  833MOL0     H 9901   2.088   1.440   8.374  0.5181 -0.1062  0.6472
  833MOL0     H 9902   1.935   1.459   8.271  1.7770  1.9530  0.3347
  833MOL0     H 9903   2.052   1.311   8.101  2.7106 -0.0147 -0.4408
  833MOL0     H 9904   2.200   1.308   8.197  3.0141  1.9926 -3.3837
  833MOL0     H 9905   2.239   1.474   8.038 -1.3441 -0.9626 -0.5111
  833MOL0     H 9906   2.090   1.565   8.088  0.1720  0.7899 -0.5922
  833MOL0     H 9907   2.304   1.497   8.277  0.6531  0.7413  0.7523
  833MOL0     H 9908   2.188   1.637   8.275 -3.1113 -1.2449 -1.8701
  833MOL0     H 9909   2.269   1.843   8.222 -1.5334 -3.0259 -1.1943
  833MOL0     H 9910   2.490   2.048   8.206 -1.4372  1.1860 -0.5519
  833MOL0     H 9911   2.393   2.039   8.067  0.8592  0.3817 -1.1120
  833MOL0     H 9912   2.594   2.142   7.983  0.6132 -0.0532  1.9204
  833MOL0     H 9913   2.613   1.979   7.919 -3.1662 -0.0540 -0.6588
  833MOL0     H 9914   2.825   2.095   8.016  2.3601 -2.2676  1.9003
  833MOL0     H 9915   2.742   2.113   8.164  1.5721 -1.3770  1.9603
  833MOL0     H 9916   2.791   1.825   8.043 -1.8320  1.0826 -0.4164
  833MOL0     H 9917   2.772   1.871   8.210  1.0634 -0.9452  0.0597
  833MOL0     H 9918   2.958   2.084   8.359  0.9537  0.5397 -2.9640
  833MOL0     H 9919   3.012   1.994   8.574  2.4125 -0.4354  0.1979
  833MOL0     H 9920   3.273   1.720   8.865  1.7208  4.4288  2.3180
  833MOL0     H 9921   3.285   1.634   9.098  0.2248 -1.3743 -1.6460
  833MOL0     H 9922   3.009   1.663   9.460 -1.7827  2.4199 -0.4204
  833MOL0     H 9923   2.947   1.735   9.320  0.8454  2.8331  2.6640
  833MOL0     H 9924   3.084   1.897   9.350 -1.3087 -0.5638 -0.2727
  833MOL0     H 9925   3.223   1.794   9.311 -1.6391  3.2051 -4.1152
  833MOL0     H 9926   3.085   1.853   9.584  1.0726 -0.5731  0.3908
  833MOL0     H 9927   3.232   1.922   9.526 -0.8840  0.3571 -0.5306
  833MOL0     H 9928   3.189   1.617   9.555 -1.7302  1.7706  1.1125
  833MOL0     H 9929   3.348   1.704   9.512 -1.0994  1.6650 -2.5607
  833MOL0     H 9930   3.318   1.614   9.764  2.0430  1.2518 -0.2509
  833MOL0     H 9931   3.194   1.744   9.780 -1.4860 -1.9700 -0.6174
  833MOL0     H 9932   3.378   1.894   9.686 -0.1188 -1.5100 -2.6836
  833MOL0     H 9933   3.494   1.762   9.740  0.0597  0.3181 -1.6429
  833MOL0     H 9934   3.300   1.951   9.890  0.3448  0.0956  0.0480
  833MOL0     H 9935   3.361   1.804   9.973  1.4049  0.9834  1.7844
  833MOL0     H 9936   3.539   2.013   9.843  0.3573  2.3801  2.1005
  833MOL0     H 9937   3.568   1.865   9.951 -0.5857 -0.1611  1.0827
  833MOL0     H 9938   2.857   1.676   9.129 -0.3836  0.3366 -0.3145
  833MOL0     H 9939   2.852   1.754   8.888 -0.1717  0.2149  1.1428
  833MOL0     H 9940   3.077   1.611   8.390 -2.1916 -0.5451 -1.0132
  833MOL0     H 9941   3.051   1.703   8.176 -0.6786  3.1837 -1.2952
  833MOL0     H 9942   1.847   0.745   8.782 -0.0675  0.0756 -0.8509
  833MOL0     H 9943   1.945   0.597   8.973  3.2318  0.5873  3.5298
  833MOL0     H 9944   2.317   0.145   8.981 -0.8971  1.2648 -1.1079
  833MOL0     H 9945   2.351   0.008   9.192 -1.2158 -0.3423  0.4405
  833MOL0     H 9946   2.501   0.032   9.384 -0.1636  2.5796  0.9137
  833MOL0     H 9947   2.377  -0.101   9.397 -1.6684 -1.0031  2.9405
  833MOL0     H 9948   2.541  -0.074   9.595 -0.2856  0.2365 -1.1595
  833MOL0     H 9949   2.460   0.067   9.639 -1.5050  0.9735 -0.1121
  833MOL0     H 9950   2.349  -0.213   9.621 -2.2560  0.8729 -4.2049
  833MOL0     H 9951   2.233  -0.081   9.633 -0.7023 -0.6100  2.1230
  833MOL0     H 9952   2.330  -0.016   9.862 -0.2292 -0.6164  0.6159
  833MOL0     H 9953   2.265  -0.182   9.854 -2.6006  2.0057 -1.9565
  833MOL0     H 9954   2.681  -0.247   9.914  0.8266  0.8604  0.1017
  833MOL0     H 9955   2.190   0.338   9.425 -0.1436  2.1590 -0.7254
  833MOL0     H 9956   2.153   0.461   9.216  1.7253  1.4769 -0.6280
  834MOL0     O 9957   5.302   2.222   9.014  0.0998 -0.1433 -0.1237
  834MOL0     C 9958   5.334   2.272   8.904  0.1138 -0.0208 -0.1151
  834MOL0     O 9959   5.343   2.408   8.869 -0.3227 -0.3311  0.1666
  834MOL0     C 9960   5.337   2.510   8.962  0.0473  0.3105  0.4545
  834MOL0     C 9961   5.411   2.629   8.922  0.8079  0.0795 -0.5248
  834MOL0     C 9962   5.403   2.738   9.006 -0.3127  0.3506 -0.5311
  834MOL0     C 9963   5.340   2.739   9.130 -0.7505  0.6360  0.1219
  834MOL0     O 9964   5.336   2.861   9.192 -0.4215  0.4263  0.6189
  834MOL0     C 9965   5.285   2.839   9.330 -0.6930 -0.1577 -0.0102
  834MOL0     C 9966   5.296   2.963   9.407  0.8387  0.5562 -1.0504
  834MOL0     C 9967   5.443   3.005   9.423 -0.0993 -0.4575  0.6488
  834MOL0     C 9968   5.476   3.126   9.338  0.2637 -0.6900 -0.0730
  834MOL0     C 9969   5.612   3.196   9.370 -1.1572 -0.6479 -0.2157
  834MOL0     C 9970   5.735   3.136   9.308  0.2192  0.2424 -0.2624
  834MOL0     C 9971   5.718   3.118   9.161  0.6659 -0.9182 -0.6968
  834MOL0     C 9972   5.843   3.061   9.093  0.3203  0.1809 -0.6073
  834MOL0     N 9973   5.826   3.036   8.954 -0.1027  0.9137  0.6706
  834MOL0     C 9974   5.896   3.096   8.850 -0.2634 -0.0400  0.2391
  834MOL0     C 9975   5.856   3.027   8.737 -0.4705 -0.4037 -0.0982
  834MOL0     C 9976   5.888   3.088   8.598 -0.7563  0.2710 -0.1601
  834MOL0     C 9977   5.777   3.181   8.546  0.9014 -0.8100 -0.2677
  834MOL0     C 9978   5.647   3.106   8.498 -0.0049 -0.2375  0.5566
  834MOL0     C 9979   5.684   2.978   8.415 -0.1567  0.3915  0.3046
  834MOL0     O 9980   5.571   2.920   8.341 -0.3824  0.2529 -0.5920
  834MOL0     C 9981   5.597   2.835   8.236  0.0844  0.5796 -0.1065
  834MOL0     C 9982   5.489   2.760   8.194  1.1782  0.5915 -0.4514
  834MOL0     C 9983   5.490   2.655   8.102 -0.1918  0.5244  0.4613
  834MOL0     C 9984   5.611   2.623   8.045 -0.5972  0.7463  0.3543
  834MOL0     C 9985   5.616   2.512   7.938 -0.0169 -0.8898 -0.3941
  834MOL0     O 9986   5.497   2.472   7.907  0.2513 -0.1029  0.2558
  834MOL0     C 9987   5.499   2.365   7.818  0.7101  0.7540 -0.5627
  834MOL0     C 9988   5.501   2.383   7.687 -0.6050 -0.3530  0.6661
  834MOL0     C 9989   5.494   2.273   7.601  0.4095  0.6971  0.3515
  834MOL0     C 9990   5.479   2.139   7.658  0.1578  0.7567  0.8511
  834MOL0     O 9991   5.490   2.036   7.571  0.5844 -0.3129  0.8064
  834MOL0     C 9992   5.488   1.903   7.618  0.0065  0.3666 -0.6564
  834MOL0     C 9993   5.362   1.826   7.570  0.1729  0.6948  0.6292
  834MOL0     C 9994   5.357   1.807   7.413  0.6744 -0.2697  0.4362
  834MOL0     C 9995   5.224   1.749   7.372 -0.1789  0.0387 -0.6172
  834MOL0     C 9996   5.103   1.847   7.373  0.5787  0.1498  1.1593
  834MOL0     C 9997   4.988   1.778   7.305  0.3476  0.4195 -0.2465
  834MOL0     C 9998   4.844   1.817   7.355 -0.0908 -0.1195 -0.2017
  834MOL0     C 9999   4.741   1.742   7.284 -0.2127 -0.2317 -0.5774
  834MOL0    Cl10000   4.740   1.752   7.101 -0.2256  0.0240  0.5122
  834MOL0     C10001   5.474   2.124   7.796  0.0898 -0.2944 -0.7566
  834MOL0     C10002   5.491   2.234   7.881 -0.3820 -0.2532 -0.2973
  834MOL0     O10003   5.726   2.476   7.886  0.1904 -1.5661  0.0676
  834MOL0     C10004   5.729   2.690   8.088  0.3364 -0.2857  0.2330
  834MOL0     C10005   5.721   2.802   8.176 -0.2168  1.3787 -0.4872
  834MOL0     N10006   5.755   2.946   8.773  0.3988 -0.0121 -0.1973
  834MOL0     N10007   5.733   2.947   8.896  0.0390 -0.2343  0.0828
  834MOL0     C10008   5.286   2.613   9.170 -1.1811  0.8833  0.7237
  834MOL0     C10009   5.276   2.504   9.088 -0.2002  0.3704  0.6632
  834MOL0     C10010   5.385   2.181   8.804  0.5239  0.1297 -0.0242
  834MOL0     C10011   5.348   2.045   8.817  0.6227 -0.4895  0.4707
  834MOL0     C10012   5.405   1.949   8.735 -0.4640  1.3189  0.2049
  834MOL0     C10013   5.497   1.990   8.637 -0.0800 -0.0553 -0.6142
  834MOL0     O10014   5.573   1.900   8.568  0.4798 -0.4551  0.2936
  834MOL0     C10015   5.527   1.759   8.548 -0.5410  0.3846 -0.0350
  834MOL0     C10016   5.411   1.761   8.442 -0.4330 -0.4998 -0.2214
  834MOL0     C10017   5.434   1.847   8.309 -0.3565  0.0890  0.1140
  834MOL0     C10018   5.313   1.829   8.207 -0.7689  0.1494  0.1069
  834MOL0     C10019   5.243   1.704   8.206  0.1016 -0.2175 -0.5061
  834MOL0     C10020   5.172   1.603   8.205  0.0411  0.0835 -0.8087
  834MOL0     C10021   5.532   2.121   8.617 -0.4180 -0.0340 -0.5956
  834MOL0     C10022   5.476   2.218   8.699  0.3209  0.6780 -0.0854
  834MOL0     H10023   5.459   2.657   8.829  1.5375  0.6074  0.0043
  834MOL0     H10024   5.429   2.840   8.979 -1.8678  1.0824  0.6081
  834MOL0     H10025   5.335   2.758   9.384  0.5127  0.6017  0.0422
  834MOL0     H10026   5.178   2.815   9.329 -0.6346 -0.4280 -0.0209
  834MOL0     H10027   5.256   2.931   9.504 -1.1886 -1.3809 -2.4320
  834MOL0     H10028   5.239   3.046   9.364  0.2776  1.4814  1.2967
  834MOL0     H10029   5.509   2.922   9.395 -0.0925  0.3483 -1.9989
  834MOL0     H10030   5.445   3.042   9.526 -0.9010  0.5548  0.3263
  834MOL0     H10031   5.459   3.102   9.233  2.6047 -1.0914 -0.4157
  834MOL0     H10032   5.406   3.209   9.352  0.3745 -0.7301  0.7640
  834MOL0     H10033   5.633   3.182   9.476 -0.2019  2.6293  0.1408
  834MOL0     H10034   5.616   3.300   9.338  1.9663 -0.9600 -1.1935
  834MOL0     H10035   5.738   3.033   9.345 -0.0886  0.5765  0.7421
  834MOL0     H10036   5.826   3.188   9.342 -1.8313  2.6050  2.0927
  834MOL0     H10037   5.641   3.042   9.143 -0.5529  0.5494 -2.0188
  834MOL0     H10038   5.690   3.209   9.107 -2.6220 -0.8925  0.8113
  834MOL0     H10039   5.867   2.975   9.157  2.7941  2.8503  2.3778
  834MOL0     H10040   5.928   3.125   9.117  1.1417 -1.6843  1.9971
  834MOL0     H10041   5.964   3.181   8.847  0.0935 -0.1331  2.9730
  834MOL0     H10042   5.919   3.008   8.530 -0.8717  0.3544 -0.3138
  834MOL0     H10043   5.984   3.141   8.593 -0.4891  0.0317  1.6882
  834MOL0     H10044   5.811   3.243   8.463 -3.5571  1.2623 -0.8027
  834MOL0     H10045   5.754   3.256   8.621 -0.6960 -0.0542 -1.4581
  834MOL0     H10046   5.578   3.091   8.582 -0.3079  2.0789  0.7702
  834MOL0     H10047   5.587   3.171   8.434 -0.0737  0.4954  1.3525
  834MOL0     H10048   5.718   2.907   8.491  1.9865  1.4393  0.4123
  834MOL0     H10049   5.768   3.000   8.348 -0.6526  0.3634 -0.3336
  834MOL0     H10050   5.396   2.789   8.242 -0.3010  1.4685 -3.6095
  834MOL0     H10051   5.401   2.617   8.053  1.9525 -0.8338 -2.6812
  834MOL0     H10052   5.514   2.483   7.647 -0.8049 -0.6943 -0.3001
  834MOL0     H10053   5.494   2.288   7.493 -0.6925  1.7235  0.4687
  834MOL0     H10054   5.495   1.879   7.725 -1.4540  3.2818  0.1841
  834MOL0     H10055   5.571   1.848   7.572  0.3715 -0.8304  1.2950
  834MOL0     H10056   5.268   1.865   7.611  1.8587  3.5126  2.0906
  834MOL0     H10057   5.375   1.725   7.611 -0.7985  0.8750  1.4057
  834MOL0     H10058   5.440   1.740   7.392 -0.8315 -2.6906  1.8270
  834MOL0     H10059   5.357   1.908   7.370 -4.0744  1.4528  3.6215
  834MOL0     H10060   5.249   1.721   7.269 -0.5368  0.1721 -0.7404
  834MOL0     H10061   5.204   1.662   7.436 -1.4533 -0.0951 -1.1686
  834MOL0     H10062   5.128   1.942   7.326 -2.8639  0.9156  0.5962
  834MOL0     H10063   5.074   1.853   7.478 -2.0200  1.6910  0.4423
  834MOL0     H10064   4.997   1.670   7.319  0.0181  0.1408 -1.9744
  834MOL0     H10065   4.988   1.804   7.199  0.4405  2.3518  0.1877
  834MOL0     H10066   4.824   1.804   7.462 -0.4992 -0.6735 -0.3420
  834MOL0     H10067   4.841   1.921   7.320 -0.4258 -1.0511 -3.2287
  834MOL0     H10068   4.644   1.778   7.321 -0.8340 -0.9164 -1.5154
  834MOL0     H10069   4.756   1.636   7.304 -0.6941 -0.5069 -1.6142
  834MOL0     H10070   5.485   2.028   7.845  2.8618 -0.5219 -1.6526
  834MOL0     H10071   5.498   2.226   7.989 -1.4173  0.0203 -0.1985
  834MOL0     H10072   5.823   2.664   8.039  0.9063  1.4563  0.3395
  834MOL0     H10073   5.815   2.848   8.205  0.7937 -1.8269  1.9329
  834MOL0     H10074   5.238   2.608   9.267  2.5851  1.7873  2.8113
  834MOL0     H10075   5.227   2.413   9.122  1.2645  0.0340  2.0093
  834MOL0     H10076   5.278   2.005   8.890 -2.6895  0.3447 -2.0263
  834MOL0     H10077   5.393   1.842   8.748 -1.7481  1.5459  1.1395
  834MOL0     H10078   5.499   1.707   8.640  1.8593 -0.1636  0.4419
  834MOL0     H10079   5.612   1.700   8.512 -1.2892 -0.7629  0.0117
  834MOL0     H10080   5.398   1.657   8.408 -1.6511 -0.9220  1.4042
  834MOL0     H10081   5.323   1.796   8.496  0.5475  5.3749 -1.8191
  834MOL0     H10082   5.524   1.793   8.277 -0.7569 -0.5891  0.1072
  834MOL0     H10083   5.462   1.952   8.319  2.1230 -0.6305  1.4335
  834MOL0     H10084   5.234   1.905   8.220  0.5601  1.7599 -0.7931
  834MOL0     H10085   5.366   1.862   8.117 -1.0768  3.2918  0.9535
  834MOL0     H10086   5.122   1.509   8.193 -1.1359  0.9115 -2.9677
  834MOL0     H10087   5.624   2.146   8.567  1.2576 -2.1008  1.2308
  834MOL0     H10088   5.510   2.321   8.697 -0.9847  1.1947  1.7604
  835MOL0     O10089   1.256   8.468  10.359 -0.3253 -0.3302 -0.5564
  835MOL0     C10090   1.196   8.366  10.373 -0.0938 -0.2758  0.7388
  835MOL0     O10091   1.206   8.248  10.292  0.3000 -0.3788  0.0322
  835MOL0     C10092   1.296   8.256  10.186  0.3418  0.6115 -0.6747
  835MOL0     C10093   1.397   8.158  10.166  0.3151  0.0084  0.4112
  835MOL0     C10094   1.486   8.168  10.057 -0.1802 -0.4431 -0.0908
  835MOL0     C10095   1.478   8.279   9.964  0.9769  0.6226 -0.0250
  835MOL0     O10096   1.579   8.283   9.874  0.3497 -0.0369  0.9108
  835MOL0     C10097   1.585   8.393   9.782  0.1339  0.4585  0.6454
  835MOL0     C10098   1.728   8.381   9.721 -0.5783 -0.7975 -1.0071
  835MOL0     C10099   1.741   8.477   9.600 -0.7817 -0.7060 -0.8981
  835MOL0     C10100   1.859   8.453   9.497  0.7130  1.2798  0.5789
  835MOL0     C10101   1.842   8.527   9.370  0.7483 -0.5604  0.0600
  835MOL0     C10102   1.759   8.448   9.268 -0.3677  0.1466 -0.2470
  835MOL0     C10103   1.767   8.494   9.122 -0.8008  0.2719 -0.2168
  835MOL0     C10104   1.719   8.374   9.024  0.4255  0.7906  0.4324
  835MOL0     N10105   1.825   8.270   9.015  0.5610  0.6218 -0.6182
  835MOL0     C10106   1.900   8.276   8.901 -0.3962 -0.8550 -0.4064
  835MOL0     C10107   1.945   8.155   8.879 -0.5257 -0.8941 -0.3057
  835MOL0     C10108   2.041   8.100   8.771  1.1610 -0.2191 -0.2508
  835MOL0     C10109   2.075   8.192   8.662 -0.1270 -0.8064 -0.0621
  835MOL0     C10110   1.951   8.206   8.580 -0.0503 -0.6103 -0.1987
  835MOL0     C10111   1.978   8.300   8.465 -0.0219  0.5070 -0.0411
  835MOL0     O10112   1.854   8.316   8.395  0.1391 -0.2854  0.0994
  835MOL0     C10113   1.870   8.371   8.267  0.4092 -0.9107 -0.4490
  835MOL0     C10114   1.814   8.307   8.157 -0.9056 -0.9884  0.4861
  835MOL0     C10115   1.819   8.362   8.033  0.2579  0.9200  0.3156
  835MOL0     C10116   1.895   8.483   8.016 -0.6280 -0.1233 -0.0121
  835MOL0     C10117   1.920   8.533   7.880  0.4060  1.0007  0.1415
  835MOL0     O10118   1.843   8.481   7.779 -0.3859 -0.1494  0.2824
  835MOL0     C10119   1.874   8.532   7.650  0.6177  0.8308 -0.3774
  835MOL0     C10120   1.839   8.664   7.625  0.7578 -0.3891  0.0472
  835MOL0     C10121   1.862   8.713   7.497  0.5200 -0.3898 -0.3757
  835MOL0     C10122   1.898   8.637   7.386 -0.4889 -0.4901 -0.2323
  835MOL0     O10123   1.903   8.675   7.258 -0.4882 -0.3801  1.0891
  835MOL0     C10124   1.811   8.774   7.205  0.2891 -0.7127  1.2390
  835MOL0     C10125   1.817   8.779   7.047 -1.3086  0.7216 -0.6633
  835MOL0     C10126   1.938   8.868   7.009  0.2252 -1.1299 -0.2874
  835MOL0     C10127   1.983   8.866   6.858  0.8144  0.6388  0.3378
  835MOL0     C10128   2.113   8.939   6.822  0.2142  0.3457  0.1619
  835MOL0     C10129   2.100   9.088   6.792  0.0317  0.1225 -0.1562
  835MOL0     C10130   2.194   9.128   6.682  0.3736 -1.2273  0.5711
  835MOL0     C10131   2.227   9.282   6.686  0.5648 -1.0596 -0.1534
  835MOL0    Cl10132   2.073   9.383   6.656 -0.2118  0.0882 -0.5100
  835MOL0     C10133   1.919   8.502   7.407  0.4004 -0.3349 -0.6840
  835MOL0     C10134   1.923   8.450   7.540 -0.2578  0.5994  0.0259
  835MOL0     O10135   2.030   8.587   7.862 -0.2771 -0.1821 -0.0969
  835MOL0     C10136   1.964   8.534   8.134  0.6133  0.2821 -0.1579
  835MOL0     C10137   1.941   8.488   8.261  0.5600  0.5338  0.1371
  835MOL0     N10138   1.892   8.068   8.972  0.0051 -0.7377  0.2531
  835MOL0     N10139   1.823   8.138   9.056  0.5770 -0.2700  0.0158
  835MOL0     C10140   1.365   8.374   9.979 -0.0428  0.2371  0.7653
  835MOL0     C10141   1.272   8.358  10.084 -0.1811 -0.2206  0.2792
  835MOL0     C10142   1.100   8.349  10.488  0.2209  0.0532 -0.4343
  835MOL0     C10143   1.037   8.224  10.518 -0.4214 -0.2682 -0.1484
  835MOL0     C10144   0.960   8.204  10.638 -0.6115  0.2345  0.0425
  835MOL0     C10145   0.923   8.309  10.722 -1.1531  0.7359  0.3212
  835MOL0     O10146   0.822   8.293  10.819 -0.5798 -0.2157  0.3975
  835MOL0     C10147   0.826   8.379  10.932  0.3810 -0.5657  0.9764
  835MOL0     C10148   0.714   8.365  11.027 -0.1350  0.5867  0.4288
  835MOL0     C10149   0.752   8.265  11.142 -0.6862 -0.4345  0.2160
  835MOL0     C10150   0.656   8.238  11.259 -0.3837 -0.3960  0.8965
  835MOL0     C10151   0.541   8.158  11.222 -0.1306  0.5236 -0.9709
  835MOL0     C10152   0.432   8.107  11.184  0.0593 -0.0364 -0.7657
  835MOL0     C10153   0.987   8.432  10.691 -0.1592 -0.5785  0.9043
  835MOL0     C10154   1.079   8.445  10.581 -0.8966 -0.6360 -0.4595
  835MOL0     H10155   1.403   8.082  10.243 -3.2038 -0.5744  0.2724
  835MOL0     H10156   1.561   8.090  10.046  1.4598  1.3966 -3.2904
  835MOL0     H10157   1.579   8.487   9.836  1.9627 -0.0772  1.8902
  835MOL0     H10158   1.511   8.383   9.703  2.8597 -4.3428 -1.7976
  835MOL0     H10159   1.743   8.278   9.686 -1.7120 -0.5125 -2.4494
  835MOL0     H10160   1.796   8.399   9.805 -4.2678  3.3166  1.5685
  835MOL0     H10161   1.752   8.580   9.636  0.5761 -0.8271 -0.9241
  835MOL0     H10162   1.647   8.478   9.544 -1.4856  0.8367  0.2547
  835MOL0     H10163   1.959   8.465   9.540  2.3679  0.0623 -2.5956
  835MOL0     H10164   1.852   8.347   9.472  0.1309  1.4208  0.1258
  835MOL0     H10165   1.938   8.553   9.326  0.3715 -2.2187 -1.9102
  835MOL0     H10166   1.794   8.624   9.382  0.9746 -0.5575  1.0107
  835MOL0     H10167   1.654   8.453   9.298 -0.2234 -1.3438  0.6018
  835MOL0     H10168   1.772   8.340   9.268  1.4461  0.3006 -2.3596
  835MOL0     H10169   1.708   8.582   9.095  0.8089  0.6404 -2.9265
  835MOL0     H10170   1.870   8.519   9.095 -0.1678  0.2043  1.9793
  835MOL0     H10171   1.702   8.426   8.929 -0.6449  3.3192  1.9239
  835MOL0     H10172   1.629   8.319   9.054  1.9670 -3.5149 -1.8362
  835MOL0     H10173   1.923   8.367   8.846  1.1946 -0.4933  0.7700
  835MOL0     H10174   2.007   8.004   8.730  2.9847 -0.8594 -0.3494
  835MOL0     H10175   2.131   8.066   8.823  0.4341 -0.7736  0.6827
  835MOL0     H10176   2.153   8.142   8.604  0.6861 -2.1338  2.0471
  835MOL0     H10177   2.104   8.292   8.696 -1.1544  0.6038 -2.9770
  835MOL0     H10178   1.924   8.106   8.545 -2.6346 -0.4761  1.2356
  835MOL0     H10179   1.865   8.249   8.631  0.4655  0.2118 -0.0036
  835MOL0     H10180   2.059   8.249   8.412  1.0289  0.5438  1.4541
  835MOL0     H10181   2.011   8.401   8.492 -1.4604  2.3371 -4.3716
  835MOL0     H10182   1.770   8.209   8.172  1.9130 -2.3852  0.2710
  835MOL0     H10183   1.773   8.304   7.954  0.9746  0.3465  0.3079
  835MOL0     H10184   1.795   8.717   7.709 -1.2261 -3.5875  1.1913
  835MOL0     H10185   1.828   8.816   7.486 -2.5125 -1.4136 -1.8911
  835MOL0     H10186   1.826   8.874   7.245  0.8089  0.0196 -0.6547
  835MOL0     H10187   1.709   8.753   7.239 -0.4787  0.3221 -0.3093
  835MOL0     H10188   1.722   8.812   7.005 -2.4512  0.2829  1.4540
  835MOL0     H10189   1.852   8.678   7.022 -1.3338  0.7147 -0.6708
  835MOL0     H10190   2.025   8.829   7.062  4.2656  2.2674 -3.6599
  835MOL0     H10191   1.921   8.971   7.039  1.8010 -1.0229  0.3428
  835MOL0     H10192   1.989   8.759   6.839 -0.2321  0.5849  0.2803
  835MOL0     H10193   1.903   8.904   6.794 -0.4560 -2.1492  0.1251
  835MOL0     H10194   2.152   8.885   6.735 -2.3171 -1.3312 -0.0257
  835MOL0     H10195   2.189   8.922   6.899  3.0922 -3.0704 -3.0170
  835MOL0     H10196   2.135   9.148   6.876  2.2502  0.4025 -1.2009
  835MOL0     H10197   1.998   9.113   6.761  0.6577  3.6634  0.1247
  835MOL0     H10198   2.291   9.080   6.695  0.1943 -1.6371  0.3986
  835MOL0     H10199   2.161   9.108   6.579  0.0220 -1.0627  0.6486
  835MOL0     H10200   2.294   9.313   6.606 -1.6170 -1.2493 -2.1430
  835MOL0     H10201   2.268   9.313   6.783  2.3387 -2.6144 -0.3491
  835MOL0     H10202   1.944   8.430   7.330  0.6174 -1.1748  0.1523
  835MOL0     H10203   1.959   8.348   7.539  0.4512  0.8320  0.9826
  835MOL0     H10204   2.023   8.625   8.129  0.5109  0.3382 -0.3968
  835MOL0     H10205   1.987   8.539   8.345  0.3903  0.2918  0.3791
  835MOL0     H10206   1.365   8.459   9.911 -1.9925  0.4326  0.9542
  835MOL0     H10207   1.179   8.415  10.085 -2.3865 -3.5363  1.4711
  835MOL0     H10208   1.047   8.134  10.458 -1.6412  0.9163 -2.2433
  835MOL0     H10209   0.923   8.106  10.666 -3.2439  0.8214 -1.0446
  835MOL0     H10210   0.827   8.482  10.897  5.3073 -0.3833  0.9954
  835MOL0     H10211   0.921   8.361  10.983  1.8073 -3.0624 -2.1759
  835MOL0     H10212   0.702   8.464  11.073  2.3061  0.3151  1.8119
  835MOL0     H10213   0.622   8.327  10.981  0.8876  2.7098 -3.9331
  835MOL0     H10214   0.843   8.304  11.187 -0.5536  1.2511 -1.3926
  835MOL0     H10215   0.790   8.174  11.095  2.5797 -0.0310  1.7905
  835MOL0     H10216   0.718   8.194  11.338  0.8770 -2.4584 -1.1064
  835MOL0     H10217   0.624   8.336  11.295  2.8928  1.3469 -0.4113
  835MOL0     H10218   0.339   8.067  11.150 -1.1060  1.0255  1.0885
  835MOL0     H10219   0.953   8.520  10.744 -2.9684 -0.0408 -1.5192
  835MOL0     H10220   1.116   8.547  10.575 -0.0789 -0.9469 -0.8110
  836MOL0     O10221  10.431   2.537   0.083 -0.1810 -0.6648  0.6112
  836MOL0     C10222  10.315   2.532   0.060 -0.4041 -0.5484 -0.1861
  836MOL0     O10223  10.238   2.425   0.025 -0.0341 -0.6273 -0.1297
  836MOL0     C10224  10.297   2.302   0.005  0.7640 -0.1151  0.4406
  836MOL0     C10225  10.439   2.275  -0.012 -0.3181  0.3851 -0.1299
  836MOL0     C10226  10.474   2.141  -0.025 -0.2611  0.7231  0.3246
  836MOL0     C10227  10.375   2.032  -0.034  0.2112  1.1266 -0.1104
  836MOL0     O10228  10.398   1.895  -0.048  0.4781  0.1345  1.0053
  836MOL0     C10229  10.489   1.842   0.039 -1.1970  0.6455  0.4204
  836MOL0     C10230  10.608   1.772  -0.021  0.2378  0.1509  0.1078
  836MOL0     C10231  10.749   1.788   0.047  0.5058  0.4380  0.6967
  836MOL0     C10232  10.747   1.736   0.197  0.0364 -0.7767  0.2131
  836MOL0     C10233  10.893   1.715   0.240 -1.2145 -0.0637 -0.5199
  836MOL0     C10234  10.962   1.842   0.264 -0.4610  0.1402  0.2781
  836MOL0     C10235  11.100   1.824   0.339 -0.5185  0.2873 -0.0587
  836MOL0     C10236  11.163   1.953   0.408  0.7656  0.2815  1.2019
  836MOL0     N10237  11.230   1.916   0.533 -0.2167 -0.0176 -0.2769
  836MOL0     C10238  11.173   1.886   0.658 -0.8927 -0.4477  0.0056
  836MOL0     C10239  11.280   1.867   0.738  0.4627  0.1512 -0.1897
  836MOL0     C10240  11.273   1.833   0.886 -0.5333  0.2719  0.2507
  836MOL0     C10241  11.346   1.712   0.937 -0.5764 -0.1911  0.0254
  836MOL0     C10242  11.292   1.587   0.869  0.3874  0.5108  0.3851
  836MOL0     C10243  11.393   1.476   0.882  0.9188  0.6372  0.3479
  836MOL0     O10244  11.321   1.357   0.866 -0.3800  0.2940  0.9201
  836MOL0     C10245  11.263   1.287   0.973 -0.3053 -0.7942 -0.8431
  836MOL0     C10246  11.187   1.177   0.925  0.5925 -0.0534  0.0114
  836MOL0     C10247  11.130   1.079   1.006 -0.5117 -0.2163 -1.4423
  836MOL0     C10248  11.133   1.097   1.151  0.0119 -0.2197 -0.7878
  836MOL0     C10249  11.057   1.018   1.244  0.5494 -0.1913 -0.6834
  836MOL0     O10250  11.089   1.016   1.375  1.1689  0.0347  0.1837
  836MOL0     C10251  11.004   0.961   1.465  0.2937 -0.1119  1.0461
  836MOL0     C10252  10.985   0.826   1.480  0.9285  0.6720  0.5517
  836MOL0     C10253  10.905   0.773   1.584 -0.1179  0.1945  0.8628
  836MOL0     C10254  10.838   0.857   1.659  0.1402 -0.8148 -1.1439
  836MOL0     O10255  10.760   0.804   1.768  0.4763  0.3432  0.1956
  836MOL0     C10256  10.658   0.878   1.838  0.3878  0.0045  0.8772
  836MOL0     C10257  10.619   0.813   1.972 -1.1659 -0.0008  0.3702
  836MOL0     C10258  10.493   0.870   2.038  0.5271 -0.5509 -0.2085
  836MOL0     C10259  10.368   0.826   1.963 -0.0163 -0.0211 -0.0345
  836MOL0     C10260  10.245   0.915   2.002  0.1340  0.0631 -1.2022
  836MOL0     C10261  10.158   0.859   2.122  0.4096 -0.4416  0.0809
  836MOL0     C10262  10.220   0.908   2.263 -0.1339  0.1728  1.0760
  836MOL0     C10263  10.127   0.881   2.387  0.1951 -0.0644 -0.1247
  836MOL0    Cl10264   9.994   1.001   2.404 -0.4560  0.0670  0.0051
  836MOL0     C10265  10.852   1.000   1.645  0.2183 -0.4797 -0.3691
  836MOL0     C10266  10.938   1.048   1.545 -0.5063 -0.2918  0.8770
  836MOL0     O10267  10.963   0.958   1.197 -0.4753  0.4231  0.2292
  836MOL0     C10268  11.203   1.207   1.193  0.0538  0.4184 -0.1925
  836MOL0     C10269  11.278   1.298   1.117 -0.3214  0.9376  0.8083
  836MOL0     N10270  11.400   1.895   0.659 -0.6676 -0.3789  1.3317
  836MOL0     N10271  11.368   1.923   0.533  0.3752 -0.3211  0.5720
  836MOL0     C10272  10.242   2.064  -0.025 -0.1209  0.5225 -0.4108
  836MOL0     C10273  10.201   2.197   0.004  0.2066 -0.7220 -0.6074
  836MOL0     C10274  10.242   2.661   0.085 -0.8607 -0.2061 -0.3406
  836MOL0     C10275  10.324   2.775   0.125 -0.2412 -0.6296 -0.1055
  836MOL0     C10276  10.257   2.900   0.134 -0.3904 -0.4521  0.6269
  836MOL0     C10277  10.114   2.913   0.105 -0.1505  0.6987 -0.4321
  836MOL0     O10278  10.034   3.018   0.118 -0.4171 -0.0361  0.8477
  836MOL0     C10279  10.071   3.145   0.165 -0.0721 -0.6693  0.2459
  836MOL0     C10280  10.041   3.159   0.315 -0.2584  0.0806  0.9294
  836MOL0     C10281  10.054   3.312   0.349 -0.1079  0.1801 -1.5204
  836MOL0     C10282  10.080   3.320   0.508  0.9218 -0.7120  0.6923
  836MOL0     C10283  10.119   3.457   0.549 -0.3921  0.7287  0.4290
  836MOL0     C10284  10.148   3.567   0.577  0.1320 -0.9061  0.4258
  836MOL0     C10285  10.043   2.803   0.078 -0.1728 -0.7182  0.2783
  836MOL0     C10286  10.108   2.676   0.059  0.3617  0.1553 -0.1530
  836MOL0     H10287  10.517   2.350  -0.001  0.5105 -0.2707 -1.2663
  836MOL0     H10288  10.579   2.114  -0.035 -0.4153 -1.0365  2.7547
  836MOL0     H10289  10.434   1.767   0.096 -0.6766  0.3793  0.5756
  836MOL0     H10290  10.529   1.916   0.109  2.7553 -0.8385 -0.0149
  836MOL0     H10291  10.628   1.808  -0.123  3.0525 -2.6543 -0.4808
  836MOL0     H10292  10.580   1.667  -0.025 -1.7677  0.5836  1.4929
  836MOL0     H10293  10.772   1.895   0.053  2.8875  0.0148 -0.0955
  836MOL0     H10294  10.830   1.755  -0.018 -1.4793 -2.2643 -0.6222
  836MOL0     H10295  10.699   1.808   0.263  0.3594 -0.6443  0.3083
  836MOL0     H10296  10.696   1.641   0.214 -0.9831  0.1143  2.5274
  836MOL0     H10297  10.943   1.675   0.151  1.7924 -2.3386  1.9771
  836MOL0     H10298  10.893   1.647   0.326 -2.5649 -0.0046 -0.4483
  836MOL0     H10299  10.896   1.891   0.336 -0.6359  0.2543  0.0409
  836MOL0     H10300  10.966   1.898   0.170  2.4319 -0.5901 -0.1328
  836MOL0     H10301  11.092   1.751   0.421  1.6507  1.6620  1.5006
  836MOL0     H10302  11.174   1.782   0.271  0.5850  3.4599 -0.9738
  836MOL0     H10303  11.088   2.028   0.434  2.6317  1.8098  2.5304
  836MOL0     H10304  11.238   1.999   0.342  1.9862  1.8088  3.4953
  836MOL0     H10305  11.068   1.869   0.680 -0.6202 -3.1392 -0.3672
  836MOL0     H10306  11.168   1.835   0.917 -1.0619  4.3490 -1.1302
  836MOL0     H10307  11.312   1.918   0.943  1.1265 -1.7074  2.2617
  836MOL0     H10308  11.348   1.702   1.046  0.8687 -1.2250 -0.0632
  836MOL0     H10309  11.446   1.725   0.895 -0.8353 -1.0735 -0.9050
  836MOL0     H10310  11.199   1.552   0.914 -0.7229 -0.3379 -2.4015
  836MOL0     H10311  11.266   1.601   0.764  1.0583 -2.0543 -0.1955
  836MOL0     H10312  11.447   1.482   0.977 -0.8212  1.1028  1.3478
  836MOL0     H10313  11.467   1.493   0.803  3.2383  2.8123  2.7746
  836MOL0     H10314  11.177   1.173   0.817  0.0047  0.9646  0.0233
  836MOL0     H10315  11.085   0.988   0.968 -0.3170  0.2743 -2.9250
  836MOL0     H10316  11.029   0.745   1.423  2.5085  1.5570  0.4453
  836MOL0     H10317  10.888   0.666   1.581 -0.0540  0.1639  1.4108
  836MOL0     H10318  10.568   0.868   1.777 -0.1008  0.0509  1.5735
  836MOL0     H10319  10.681   0.984   1.849  2.9722  0.0523 -3.1279
  836MOL0     H10320  10.707   0.818   2.037 -2.0818  0.7499  1.5784
  836MOL0     H10321  10.583   0.710   1.963 -0.5566 -0.2441  0.6041
  836MOL0     H10322  10.496   0.979   2.031 -1.6264 -0.5036 -1.2415
  836MOL0     H10323  10.473   0.845   2.142 -3.4663  1.4333 -0.3368
  836MOL0     H10324  10.389   0.833   1.856  2.7056  2.0764  0.5206
  836MOL0     H10325  10.348   0.722   1.991 -3.2771 -0.3162 -2.7949
  836MOL0     H10326  10.182   0.912   1.913 -0.2212 -0.2348 -0.9507
  836MOL0     H10327  10.275   1.020   2.011  4.5086 -1.1233  0.6047
  836MOL0     H10328  10.157   0.749   2.121  0.4436 -0.7196 -5.7361
  836MOL0     H10329  10.054   0.889   2.135  1.2271  1.7888  2.1917
  836MOL0     H10330  10.305   0.840   2.273  0.4251  0.4403 -1.1876
  836MOL0     H10331  10.259   1.010   2.255 -0.1470  0.0420 -3.1873
  836MOL0     H10332  10.185   0.873   2.479 -1.3099 -4.4421  0.6803
  836MOL0     H10333  10.090   0.778   2.389  3.0709 -1.2042 -0.5243
  836MOL0     H10334  10.810   1.079   1.705  0.8308  0.5187 -1.2159
  836MOL0     H10335  10.946   1.156   1.542  0.6479 -0.3834  0.2740
  836MOL0     H10336  11.222   1.215   1.300  1.4240  2.4268 -0.5296
  836MOL0     H10337  11.338   1.369   1.173 -0.0755 -0.1608  1.9874
  836MOL0     H10338  10.160   1.993  -0.016 -0.8954  1.5161  0.8972
  836MOL0     H10339  10.101   2.234   0.023  0.8741  0.9552 -0.0821
  836MOL0     H10340  10.430   2.786   0.143 -0.0140 -1.4028 -0.9040
  836MOL0     H10341  10.312   2.990   0.160 -0.8373 -0.2314  0.8102
  836MOL0     H10342  10.017   3.219   0.106 -0.6008 -0.5018  0.9278
  836MOL0     H10343  10.176   3.168   0.142 -0.3445 -0.1700 -0.5432
  836MOL0     H10344   9.937   3.129   0.328 -0.5300  2.0170  4.3720
  836MOL0     H10345  10.093   3.081   0.370 -2.1582 -2.9124 -1.1928
  836MOL0     H10346   9.961   3.362   0.318 -1.5195 -1.2623  0.1341
  836MOL0     H10347  10.146   3.343   0.300  0.9298 -3.3610 -2.1163
  836MOL0     H10348   9.983   3.298   0.552  0.9185 -1.3200  0.3910
  836MOL0     H10349  10.155   3.242   0.523 -2.8498 -4.7277  0.4194
  836MOL0     H10350  10.173   3.667   0.606 -0.0778 -1.0307  1.0481
  836MOL0     H10351   9.938   2.816   0.058 -0.6816 -0.3346  2.8037
  836MOL0     H10352  10.045   2.597   0.019 -1.8202  1.8661 -0.3007
  837MOL0     O10353   2.295   3.646   9.105  0.2282  0.7426  0.8306
  837MOL0     C10354   2.346   3.686   9.204 -0.2908 -1.1490  0.4096
  837MOL0     O10355   2.478   3.677   9.230  0.9122 -0.5194 -0.4938
  837MOL0     C10356   2.576   3.681   9.127  0.2994 -0.4555 -0.1838
  837MOL0     C10357   2.695   3.614   9.163  0.8669 -0.2612 -0.8863
  837MOL0     C10358   2.798   3.610   9.074  0.2115  0.4748 -0.0282
  837MOL0     C10359   2.807   3.676   8.956  0.5793  0.4117  0.5658
  837MOL0     O10360   2.923   3.660   8.884 -0.2444  0.4043 -0.0246
  837MOL0     C10361   2.925   3.734   8.769  0.3422 -0.3037 -0.3269
  837MOL0     C10362   3.057   3.697   8.703 -1.0521  0.0776  0.6330
  837MOL0     C10363   3.090   3.780   8.572 -0.2884 -0.5135  0.5679
  837MOL0     C10364   3.097   3.695   8.449  0.3960 -0.3390 -0.6669
  837MOL0     C10365   3.133   3.783   8.319 -0.0278 -0.0780  0.2604
  837MOL0     C10366   3.282   3.804   8.305 -1.0301  0.0239  0.0387
  837MOL0     C10367   3.326   3.915   8.202 -0.0750  0.7945 -0.5895
  837MOL0     C10368   3.284   4.067   8.221 -0.2399  1.1263  0.2327
  837MOL0     N10369   3.346   4.128   8.338 -0.1606  0.0249 -0.2103
  837MOL0     C10370   3.307   4.124   8.474 -0.1597  0.3775  1.1469
  837MOL0     C10371   3.397   4.187   8.555  0.0771 -0.7394 -0.1785
  837MOL0     C10372   3.407   4.199   8.704 -0.9299 -0.3726  0.8107
  837MOL0     C10373   3.547   4.231   8.766  0.3904 -0.1740 -0.1097
  837MOL0     C10374   3.527   4.304   8.902 -0.8285  0.7189  0.4330
  837MOL0     C10375   3.471   4.199   9.000 -0.5593  1.4182 -0.6563
  837MOL0     O10376   3.519   4.202   9.139 -0.1116  0.2841  0.3037
  837MOL0     C10377   3.502   4.300   9.233 -0.3858 -0.8025 -0.2657
  837MOL0     C10378   3.552   4.287   9.360 -1.0033 -0.1203 -0.7665
  837MOL0     C10379   3.530   4.377   9.460  0.2369  0.0458  1.4641
  837MOL0     C10380   3.453   4.488   9.433  0.3017  0.2283  0.3045
  837MOL0     C10381   3.433   4.586   9.537 -0.7965 -0.4287 -0.8518
  837MOL0     O10382   3.397   4.720   9.492 -0.0389  0.7661  0.8958
  837MOL0     C10383   3.325   4.815   9.567 -0.5361  0.3009  0.5022
  837MOL0     C10384   3.386   4.941   9.575  0.2134 -0.9671  0.3834
  837MOL0     C10385   3.334   5.047   9.658 -0.3774  0.3270  0.5918
  837MOL0     C10386   3.233   5.012   9.754 -0.6917 -0.4209  0.9237
  837MOL0     O10387   3.184   5.099   9.845  0.9760 -0.2347 -0.7369
  837MOL0     C10388   3.250   5.223   9.874  0.4508 -0.6086  0.9012
  837MOL0     C10389   3.217   5.355   9.797  0.6775 -0.7400  0.5138
  837MOL0     C10390   3.064   5.381   9.779  0.5856 -0.9516 -0.2395
  837MOL0     C10391   3.021   5.533   9.780  0.1548 -0.3397  0.6493
  837MOL0     C10392   2.989   5.590   9.914 -1.1062 -0.4725  0.1177
  837MOL0     C10393   3.082   5.566  10.030  1.2213  0.1365 -0.7374
  837MOL0     C10394   3.045   5.642  10.163 -0.5579 -0.1275  0.0648
  837MOL0     C10395   2.944   5.568  10.243  0.6865  0.7905  0.0225
  837MOL0    Cl10396   2.793   5.664  10.236  0.3853 -0.3135  0.3059
  837MOL0     C10397   3.174   4.885   9.744 -0.3829 -0.7690 -0.3371
  837MOL0     C10398   3.222   4.791   9.651 -1.3074  0.0667  0.5451
  837MOL0     O10399   3.479   4.562   9.653  0.5573 -0.2726  0.8193
  837MOL0     C10400   3.402   4.505   9.303 -0.2326  0.3177  0.5259
  837MOL0     C10401   3.416   4.410   9.200 -0.4530 -0.7104 -0.9883
  837MOL0     N10402   3.491   4.236   8.461  0.7567  0.5400 -0.0230
  837MOL0     N10403   3.462   4.187   8.344 -0.8031  0.4571  1.0294
  837MOL0     C10404   2.689   3.747   8.918  0.3942  0.0693 -0.3332
  837MOL0     C10405   2.572   3.745   8.995  0.4528  0.2369 -0.1110
  837MOL0     C10406   2.266   3.744   9.323  0.5406 -0.0670  1.2471
  837MOL0     C10407   2.131   3.777   9.309 -0.1407 -1.1740 -0.5817
  837MOL0     C10408   2.061   3.842   9.404 -0.6717 -0.4517  0.8118
  837MOL0     C10409   2.128   3.884   9.524  0.0405 -0.7241  0.4881
  837MOL0     O10410   2.082   3.965   9.625  0.5802  0.0278 -0.9378
  837MOL0     C10411   2.034   4.090   9.587  0.5706  0.1058  0.7371
  837MOL0     C10412   1.880   4.095   9.616 -0.4772  0.0059  0.3369
  837MOL0     C10413   1.868   4.142   9.762 -0.6492 -0.4505 -0.7517
  837MOL0     C10414   1.732   4.174   9.816 -0.6526  0.5011 -0.1170
  837MOL0     C10415   1.633   4.070   9.809  0.7347  0.2293 -0.1966
  837MOL0     C10416   1.549   3.987   9.811 -0.9058 -0.4389 -0.0043
  837MOL0     C10417   2.261   3.837   9.547  0.7109  0.1710  0.7931
  837MOL0     C10418   2.331   3.766   9.445 -0.0163 -0.8201  0.6151
  837MOL0     H10419   2.707   3.569   9.260 -0.6112 -1.7909 -1.3689
  837MOL0     H10420   2.893   3.561   9.097  0.8168  1.9567  0.7829
  837MOL0     H10421   2.924   3.838   8.804  1.0597 -0.9885  1.9566
  837MOL0     H10422   2.840   3.707   8.706 -2.1849  0.9344  2.2704
  837MOL0     H10423   3.042   3.593   8.672  1.6905 -0.7833  1.9138
  837MOL0     H10424   3.141   3.695   8.772 -1.3634 -1.7169  1.0155
  837MOL0     H10425   3.183   3.837   8.576  0.7800 -1.8198 -2.4988
  837MOL0     H10426   3.011   3.856   8.573  1.7237  1.6827  1.3206
  837MOL0     H10427   3.185   3.637   8.480  0.0680  0.4226  1.8354
  837MOL0     H10428   3.013   3.628   8.430 -1.0988  1.3296 -0.1632
  837MOL0     H10429   3.080   3.878   8.325 -0.0923 -0.0447 -0.7174
  837MOL0     H10430   3.098   3.721   8.236  0.7988 -2.1926  1.4002
  837MOL0     H10431   3.335   3.714   8.271  2.8553  1.2545  2.2320
  837MOL0     H10432   3.327   3.834   8.399  0.0787 -1.8460  0.1561
  837MOL0     H10433   3.434   3.929   8.200  0.2195 -0.4173  1.9400
  837MOL0     H10434   3.285   3.881   8.107 -0.0955 -0.1220 -0.2668
  837MOL0     H10435   3.177   4.077   8.244 -0.0281 -0.1918  1.9936
  837MOL0     H10436   3.305   4.120   8.128 -2.2128 -0.0152 -0.9221
  837MOL0     H10437   3.218   4.077   8.516 -1.6881  1.8280 -0.2773
  837MOL0     H10438   3.358   4.111   8.748 -2.4014  0.7672  1.5497
  837MOL0     H10439   3.343   4.284   8.731  3.5207  3.0580  1.6826
  837MOL0     H10440   3.586   4.306   8.696 -0.8773 -0.6982 -1.4138
  837MOL0     H10441   3.611   4.142   8.776 -0.7233 -1.6599 -4.1949
  837MOL0     H10442   3.624   4.343   8.936 -0.7739  1.1817 -0.2347
  837MOL0     H10443   3.457   4.388   8.902 -4.5903 -2.1873  0.8365
  837MOL0     H10444   3.489   4.095   8.971 -0.4089  1.1459  0.3908
  837MOL0     H10445   3.364   4.214   8.987 -0.9416 -2.2566 -3.6078
  837MOL0     H10446   3.621   4.206   9.386 -0.3932  0.7106  0.3128
  837MOL0     H10447   3.574   4.367   9.558  0.0194 -0.2138  1.5353
  837MOL0     H10448   3.468   4.979   9.515 -1.2705 -1.8420 -2.3833
  837MOL0     H10449   3.378   5.146   9.649  3.3042 -1.2286 -0.2640
  837MOL0     H10450   3.358   5.208   9.873  1.1658  3.0402  2.9165
  837MOL0     H10451   3.222   5.251   9.976  0.2063  1.4712  0.3096
  837MOL0     H10452   3.262   5.332   9.700 -0.1185  1.1112 -0.3337
  837MOL0     H10453   3.269   5.448   9.823 -1.3481  1.7392 -3.3553
  837MOL0     H10454   3.009   5.333   9.860 -0.7253  0.0146 -0.5223
  837MOL0     H10455   3.033   5.329   9.688 -0.6938 -1.8714  0.6972
  837MOL0     H10456   3.102   5.595   9.739  2.0910  0.0060  4.4935
  837MOL0     H10457   2.935   5.541   9.713  0.1247 -0.1994  0.7047
  837MOL0     H10458   2.886   5.565   9.942 -2.0387  1.9933 -0.8049
  837MOL0     H10459   2.999   5.699   9.908 -3.6792 -0.1424  0.5622
  837MOL0     H10460   3.178   5.611  10.003 -0.0453  2.4006 -1.7638
  837MOL0     H10461   3.095   5.459  10.050  0.7551  0.3166  0.6297
  837MOL0     H10462   3.139   5.643  10.219  0.6822 -0.0191 -1.9189
  837MOL0     H10463   3.018   5.746  10.141 -2.3969  0.1338  2.9803
  837MOL0     H10464   2.959   5.564  10.352 -0.5593  0.1685  0.1897
  837MOL0     H10465   2.924   5.469  10.201 -0.9922  2.0087 -2.2554
  837MOL0     H10466   3.101   4.852   9.817  2.2643 -2.0158  1.9048
  837MOL0     H10467   3.183   4.692   9.670 -0.2696  0.1472  3.7124
  837MOL0     H10468   3.343   4.596   9.296 -3.7991 -1.8889 -1.0970
  837MOL0     H10469   3.368   4.435   9.106  0.3032  2.3831 -0.6559
  837MOL0     H10470   2.665   3.805   8.829 -4.5814  1.0754  1.3472
  837MOL0     H10471   2.486   3.805   8.967  1.5412  1.1584 -1.6256
  837MOL0     H10472   2.086   3.763   9.211 -1.0264  1.0721 -0.5513
  837MOL0     H10473   1.961   3.882   9.388 -0.2889  0.0587 -0.4907
  837MOL0     H10474   2.040   4.103   9.479 -2.1720  2.6853  0.7751
  837MOL0     H10475   2.095   4.168   9.634  1.3784  0.2954 -0.5515
  837MOL0     H10476   1.829   4.168   9.553 -0.1002 -0.8677 -1.0126
  837MOL0     H10477   1.839   3.995   9.600 -0.6315  0.0493  0.4529
  837MOL0     H10478   1.910   4.243   9.761  2.1315 -1.4929 -2.3251
  837MOL0     H10479   1.925   4.083   9.835 -0.1364  2.9400  1.8103
  837MOL0     H10480   1.748   4.195   9.923 -1.9833 -0.0076  0.2066
  837MOL0     H10481   1.685   4.260   9.767 -2.1989  0.6845  1.5530
  837MOL0     H10482   1.458   3.931   9.816 -1.2570  0.0667 -0.5820
  837MOL0     H10483   2.316   3.872   9.634  0.1065  1.2263  0.7651
  837MOL0     H10484   2.434   3.732   9.453  0.3149  0.3824  1.7761
  838MOL0     O10485   0.039   4.791   9.432  0.0327  0.5601  0.4662
  838MOL0     C10486  -0.022   4.807   9.536 -0.8768  1.0275 -0.7054
  838MOL0     O10487  -0.049   4.698   9.624 -0.5290  0.6574  0.1284
  838MOL0     C10488   0.013   4.573   9.602 -0.3223  0.5965  0.1613
  838MOL0     C10489   0.146   4.551   9.646 -0.0169 -1.0242  0.3868
  838MOL0     C10490   0.199   4.413   9.647 -0.5697  0.1933  0.4468
  838MOL0     C10491   0.141   4.322   9.556 -0.3412  0.4167  0.0965
  838MOL0     O10492   0.223   4.209   9.535  0.2488 -0.1361  0.2182
  838MOL0     C10493   0.163   4.100   9.461 -0.1258  0.6671 -0.6470
  838MOL0     C10494   0.203   3.968   9.521  0.0164  0.4388 -0.7286
  838MOL0     C10495   0.107   3.915   9.635  0.8799  0.6734  0.7992
  838MOL0     C10496   0.154   3.788   9.711  0.5980  0.1667 -0.9774
  838MOL0     C10497   0.129   3.652   9.633  0.2515 -0.7100  0.8635
  838MOL0     C10498   0.188   3.524   9.692  0.2565 -0.5430  0.1395
  838MOL0     C10499   0.338   3.508   9.662  0.3734  0.1065 -0.6249
  838MOL0     C10500   0.380   3.357   9.713 -0.2225 -0.8172  0.4095
  838MOL0     N10501   0.371   3.265   9.604  1.0419  0.1169  0.8186
  838MOL0     C10502   0.285   3.163   9.593 -0.5293  0.5964  0.3779
  838MOL0     C10503   0.324   3.092   9.482  0.6857 -0.4367  1.0010
  838MOL0     C10504   0.259   2.968   9.413  0.5025  0.3679  0.0977
  838MOL0     C10505   0.342   2.841   9.413  0.2888  0.1548 -0.3523
  838MOL0     C10506   0.385   2.799   9.558  0.5550  0.6172  0.2705
  838MOL0     C10507   0.262   2.753   9.633  0.7329  0.1592  0.3349
  838MOL0     O10508   0.207   2.858   9.718  0.0756  0.1091  0.7462
  838MOL0     C10509   0.179   2.830   9.843 -0.1916  0.3344  0.4517
  838MOL0     C10510   0.191   2.932   9.931  0.0347  0.5562 -0.6951
  838MOL0     C10511   0.172   2.913  10.065  0.6337 -0.6114 -0.8555
  838MOL0     C10512   0.125   2.790  10.119 -0.6723  0.0341 -0.6777
  838MOL0     C10513   0.079   2.779  10.250  0.5715  0.1968 -0.9051
  838MOL0     O10514   0.047   2.654  10.296  0.3628 -0.3971 -0.3326
  838MOL0     C10515  -0.064   2.620  10.367 -0.4111 -0.2904  0.4273
  838MOL0     C10516  -0.149   2.704  10.444  0.3895 -0.0082  1.1967
  838MOL0     C10517  -0.259   2.651  10.520 -0.5819  0.0987 -0.5809
  838MOL0     C10518  -0.272   2.511  10.531  0.4500 -0.4786  0.6084
  838MOL0     O10519  -0.365   2.444  10.601 -0.3204 -0.0382  0.3635
  838MOL0     C10520  -0.416   2.516  10.709 -0.6719  0.5352 -1.6889
  838MOL0     C10521  -0.508   2.432  10.786 -0.6868  0.2039 -0.2820
  838MOL0     C10522  -0.563   2.491  10.903 -0.5302 -0.8743  0.1684
  838MOL0     C10523  -0.646   2.394  10.978  0.3027  0.7043  0.0998
  838MOL0     C10524  -0.720   2.474  11.085 -0.6820  0.1959 -0.1464
  838MOL0     C10525  -0.842   2.536  11.027  0.3002  0.0566 -0.4249
  838MOL0     C10526  -0.949   2.568  11.140  0.2605  0.3873  0.8137
  838MOL0     C10527  -1.092   2.595  11.093  0.1880  0.4823 -0.3680
  838MOL0    Cl10528  -1.097   2.744  10.986  0.0981 -0.0784  0.2700
  838MOL0     C10529  -0.202   2.426  10.436  0.3643 -1.0235  0.1973
  838MOL0     C10530  -0.099   2.484  10.362 -0.8211 -0.3858  0.1838
  838MOL0     O10531   0.060   2.882  10.318 -0.5257  0.2082  0.6148
  838MOL0     C10532   0.117   2.685  10.028 -0.3032 -0.3050 -1.0932
  838MOL0     C10533   0.137   2.707   9.899  0.4238  1.3422  0.5516
  838MOL0     N10534   0.428   3.160   9.422  0.2776  0.0869 -0.0818
  838MOL0     N10535   0.450   3.267   9.498 -0.1095 -0.3106 -0.3197
  838MOL0     C10536   0.014   4.352   9.509 -0.1578  0.1130  0.3664
  838MOL0     C10537  -0.057   4.470   9.538  0.8295 -0.8779  0.4330
  838MOL0     C10538  -0.062   4.939   9.585 -0.1986  0.2214 -0.4540
  838MOL0     C10539  -0.119   4.956   9.717  1.5107 -0.0064  0.0073
  838MOL0     C10540  -0.160   5.083   9.768  0.0412  0.1533  0.7062
  838MOL0     C10541  -0.133   5.198   9.695 -0.2281 -0.7438  0.0947
  838MOL0     O10542  -0.153   5.329   9.741 -0.0673 -1.2349  0.4137
  838MOL0     C10543  -0.188   5.351   9.879 -1.2741 -0.2744  0.5824
  838MOL0     C10544  -0.322   5.422   9.888  0.2861 -0.3626 -0.4761
  838MOL0     C10545  -0.428   5.325   9.823 -0.4204  0.3901 -0.5364
  838MOL0     C10546  -0.566   5.326   9.889 -0.2150 -0.0908 -0.1249
  838MOL0     C10547  -0.669   5.253   9.806 -0.2035 -1.4056  0.6246
  838MOL0     C10548  -0.740   5.215   9.716 -1.0347  0.0834  0.2488
  838MOL0     C10549  -0.067   5.182   9.572  0.2734  0.8201 -0.0832
  838MOL0     C10550  -0.046   5.057   9.515  0.3833  0.1908 -0.9269
  838MOL0     H10551   0.209   4.629   9.688 -2.8947  1.0953  1.0629
  838MOL0     H10552   0.302   4.409   9.678 -0.7185 -0.6639  0.8443
  838MOL0     H10553   0.195   4.103   9.357 -2.8622  2.1171 -1.5505
  838MOL0     H10554   0.054   4.112   9.465 -0.2410  2.1179 -4.4930
  838MOL0     H10555   0.300   3.966   9.573 -2.0754 -5.1870  4.1202
  838MOL0     H10556   0.201   3.893   9.442 -1.4851 -2.5289  1.9114
  838MOL0     H10557   0.010   3.904   9.585  0.8217  1.1249  0.8110
  838MOL0     H10558   0.077   3.997   9.700  0.9000 -0.0876  1.7946
  838MOL0     H10559   0.256   3.812   9.741  1.5763 -2.9430 -1.4511
  838MOL0     H10560   0.096   3.789   9.803  1.5150 -1.1853 -0.3535
  838MOL0     H10561   0.158   3.681   9.532 -0.4870  1.8828  1.3246
  838MOL0     H10562   0.023   3.628   9.619  0.4734 -0.7643 -1.1176
  838MOL0     H10563   0.146   3.438   9.640  0.9126  0.1753 -1.6540
  838MOL0     H10564   0.155   3.528   9.796 -1.0992  1.5378 -0.3023
  838MOL0     H10565   0.342   3.514   9.553  1.8208 -2.8575 -0.8094
  838MOL0     H10566   0.389   3.591   9.713  0.7640 -0.3340 -0.2893
  838MOL0     H10567   0.319   3.331   9.800  0.3191  0.2716  1.1281
  838MOL0     H10568   0.487   3.350   9.733  0.2202 -2.7337 -2.1083
  838MOL0     H10569   0.207   3.131   9.662 -1.3808 -0.4126 -0.9956
  838MOL0     H10570   0.249   2.991   9.306 -1.2063  2.0468  0.5674
  838MOL0     H10571   0.156   2.951   9.445  0.0797  0.6917 -1.0262
  838MOL0     H10572   0.433   2.871   9.361  2.5317  2.3884  4.2298
  838MOL0     H10573   0.291   2.763   9.356  2.4755  0.0565 -2.3350
  838MOL0     H10574   0.464   2.723   9.559 -0.2937 -0.2762  0.6554
  838MOL0     H10575   0.422   2.892   9.601  0.2418  0.2009  1.5020
  838MOL0     H10576   0.296   2.675   9.703 -1.3036 -2.6523 -1.5820
  838MOL0     H10577   0.196   2.709   9.559  3.3244 -1.1827 -1.3376
  838MOL0     H10578   0.218   3.030   9.892 -0.7516  0.3299 -1.8748
  838MOL0     H10579   0.173   2.997  10.135 -2.8232 -1.7112  0.7438
  838MOL0     H10580  -0.155   2.812  10.430  0.2055  0.0047  1.3734
  838MOL0     H10581  -0.320   2.724  10.572  0.9120 -0.1845  1.6655
  838MOL0     H10582  -0.478   2.600  10.676 -0.4489  0.7801 -1.4870
  838MOL0     H10583  -0.334   2.557  10.768 -1.4852  3.7676 -2.6099
  838MOL0     H10584  -0.462   2.337  10.814 -3.3839 -1.2426 -0.3950
  838MOL0     H10585  -0.593   2.407  10.722  0.1854 -0.1551 -1.3193
  838MOL0     H10586  -0.607   2.586  10.871  2.2204 -0.1900 -1.9336
  838MOL0     H10587  -0.477   2.521  10.963 -0.0680 -0.8790 -0.4822
  838MOL0     H10588  -0.716   2.346  10.909  2.1796  1.3456 -2.3635
  838MOL0     H10589  -0.594   2.303  11.010 -0.8187  0.0072  0.0150
  838MOL0     H10590  -0.658   2.553  11.128  1.3668  0.3699 -3.1056
  838MOL0     H10591  -0.744   2.400  11.162 -0.4906  0.1253 -0.1528
  838MOL0     H10592  -0.887   2.469  10.953  0.2481  3.2747 -3.5183
  838MOL0     H10593  -0.826   2.630  10.974 -2.3191  0.6020 -0.3915
  838MOL0     H10594  -0.951   2.488  11.215  5.7811  0.2435  1.2436
  838MOL0     H10595  -0.920   2.658  11.195  1.2866 -0.0571  1.0230
  838MOL0     H10596  -1.155   2.613  11.180 -0.1807  0.2609 -0.5800
  838MOL0     H10597  -1.136   2.504  11.051  1.9560 -0.3919 -0.4059
  838MOL0     H10598  -0.215   2.319  10.430 -0.9747 -0.7890 -2.7052
  838MOL0     H10599  -0.041   2.417  10.298 -2.5404 -0.2171 -1.6703
  838MOL0     H10600   0.093   2.584  10.060 -1.3733 -0.4296 -2.2341
  838MOL0     H10601   0.133   2.624   9.828  0.8728  3.0018 -1.4998
  838MOL0     H10602  -0.024   4.290   9.427 -0.0107  1.9711 -1.1689
  838MOL0     H10603  -0.160   4.476   9.505  1.2146 -1.2053 -0.8556
  838MOL0     H10604  -0.141   4.869   9.777 -2.0235  0.2438 -0.7416
  838MOL0     H10605  -0.203   5.086   9.868  0.4125 -2.4723  1.0176
  838MOL0     H10606  -0.109   5.422   9.908  2.2086 -2.6836 -2.1656
  838MOL0     H10607  -0.183   5.263   9.943 -2.1476 -2.1250 -1.7833
  838MOL0     H10608  -0.356   5.455   9.986  3.5805 -1.4587  1.1794
  838MOL0     H10609  -0.309   5.518   9.838  0.4959  0.1108  0.4762
  838MOL0     H10610  -0.390   5.222   9.826  1.8827  1.1785 -0.5306
  838MOL0     H10611  -0.440   5.347   9.717  1.7743  0.4329 -0.8198
  838MOL0     H10612  -0.559   5.279   9.988  1.2025 -1.2906 -0.7431
  838MOL0     H10613  -0.600   5.429   9.903  1.9861  0.5284  1.3075
  838MOL0     H10614  -0.809   5.179   9.643 -1.0864 -1.0404  0.8342
  838MOL0     H10615  -0.035   5.263   9.506 -0.7270  0.5044 -0.9835
  838MOL0     H10616   0.000   5.058   9.417  2.9930  0.5128  0.2196
  839MOL0     O10617   1.895   8.983  10.706 -0.3494 -0.3364  0.1451
  839MOL0     C10618   1.983   9.040  10.640 -0.1059  0.2609  1.0209
  839MOL0     O10619   2.023   9.170  10.647 -0.0226  0.0442  0.2389
  839MOL0     C10620   1.956   9.238  10.743 -0.2357 -0.2954  1.0770
  839MOL0     C10621   1.858   9.332  10.710 -0.8550 -0.3178 -0.2178
  839MOL0     C10622   1.800   9.406  10.807 -1.4155  0.1957 -0.3638
  839MOL0     C10623   1.831   9.390  10.946  0.6106 -0.0034  1.1481
  839MOL0     O10624   1.778   9.462  11.052 -0.1879  0.6402 -0.4376
  839MOL0     C10625   1.747   9.598  11.011 -0.5261  0.0449  0.2126
  839MOL0     C10626   1.734   9.679  11.138  0.0986  0.0419 -0.8296
  839MOL0     C10627   1.867   9.693  11.208 -0.6277  0.6545  0.8114
  839MOL0     C10628   1.855   9.790  11.329 -0.2533  0.7696  1.0813
  839MOL0     C10629   1.974   9.871  11.360  0.4124 -0.4365 -0.3946
  839MOL0     C10630   1.980   9.927  11.500  0.6200  0.3438 -0.4315
  839MOL0     C10631   1.858  10.009  11.529 -0.1272 -0.2090  0.5119
  839MOL0     C10632   1.891  10.100  11.652 -0.0188 -0.7933 -0.7963
  839MOL0     N10633   1.774  10.165  11.715 -0.2342 -0.1849 -0.5189
  839MOL0     C10634   1.712  10.281  11.673  0.1653 -0.1547 -0.1354
  839MOL0     C10635   1.603  10.297  11.749  0.7953  0.0352  0.2195
  839MOL0     C10636   1.515  10.413  11.725  0.9765  0.3938 -0.3288
  839MOL0     C10637   1.404  10.383  11.615 -0.0606  0.6178 -0.0369
  839MOL0     C10638   1.326  10.247  11.615 -0.5740  0.0906  0.4784
  839MOL0     C10639   1.407  10.126  11.554 -0.1718  0.2225  0.5552
  839MOL0     O10640   1.507  10.152  11.450  0.3325  0.6838  0.4436
  839MOL0     C10641   1.503  10.097  11.322 -0.7005 -0.2676  0.3675
  839MOL0     C10642   1.424   9.992  11.277  0.4896 -0.1601 -0.7578
  839MOL0     C10643   1.437   9.950  11.138 -0.2687 -0.1725  0.1868
  839MOL0     C10644   1.523  10.021  11.053  0.6206 -0.1372 -0.7882
  839MOL0     C10645   1.529   9.995  10.917  0.5379  0.0317 -0.8161
  839MOL0     O10646   1.489   9.868  10.880  0.2321 -0.2999 -0.3679
  839MOL0     C10647   1.510   9.818  10.752  0.1345  0.5169 -0.1684
  839MOL0     C10648   1.608   9.865  10.662  0.4206 -0.5445 -0.4936
  839MOL0     C10649   1.619   9.812  10.532  0.1641 -0.0750 -0.4260
  839MOL0     C10650   1.538   9.703  10.495 -0.4024  0.2955  0.0021
  839MOL0     O10651   1.560   9.643  10.381  0.5353 -0.0179  0.0723
  839MOL0     C10652   1.664   9.548  10.379 -0.5525 -0.0719  0.4548
  839MOL0     C10653   1.607   9.412  10.403 -0.1134  0.2871  0.0928
  839MOL0     C10654   1.503   9.364  10.302  0.1828 -1.0650  0.0696
  839MOL0     C10655   1.544   9.380  10.151  0.0393 -0.3253 -0.7257
  839MOL0     C10656   1.423   9.377  10.054  0.3726 -0.6155  0.2882
  839MOL0     C10657   1.375   9.238  10.015 -0.2296  0.1987  0.0137
  839MOL0     C10658   1.498   9.156   9.957 -0.2590  0.1685 -0.5169
  839MOL0     C10659   1.556   9.039  10.048 -0.5800 -0.5113 -0.1289
  839MOL0    Cl10660   1.691   8.951   9.961 -0.1121  0.4491 -0.2434
  839MOL0     C10661   1.454   9.648  10.594 -0.7547  0.9619 -1.1339
  839MOL0     C10662   1.440   9.705  10.722  0.1433  0.1850  0.6871
  839MOL0     O10663   1.565  10.081  10.840  0.6629  0.0503 -0.1648
  839MOL0     C10664   1.600  10.128  11.101 -0.4515 -0.0927 -0.0056
  839MOL0     C10665   1.587  10.166  11.231  0.1457 -0.9909 -0.1138
  839MOL0     N10666   1.601  10.196  11.841  0.5024 -0.2076  0.0068
  839MOL0     N10667   1.705  10.117  11.828  0.4235  0.2774  0.0527
  839MOL0     C10668   1.928   9.286  10.972 -0.1831 -0.7848  0.4902
  839MOL0     C10669   1.986   9.205  10.873 -0.4740  0.6702 -0.9278
  839MOL0     C10670   2.053   8.954  10.531  0.4131 -0.7010  0.4863
  839MOL0     C10671   2.024   8.816  10.507  0.7490  0.2548  0.4443
  839MOL0     C10672   2.095   8.742  10.418  0.2010 -0.0394  0.2320
  839MOL0     C10673   2.195   8.797  10.348 -0.4995  0.4582 -0.5413
  839MOL0     O10674   2.260   8.724  10.247 -0.2949 -0.1792 -0.1156
  839MOL0     C10675   2.332   8.603  10.301 -1.2310  0.3717  0.5624
  839MOL0     C10676   2.420   8.527  10.200 -0.5015  0.6314 -0.1693
  839MOL0     C10677   2.502   8.611  10.102  0.1850  0.4648  1.0051
  839MOL0     C10678   2.590   8.702  10.175 -0.6785 -0.7042 -1.1873
  839MOL0     C10679   2.692   8.635  10.257 -0.4015  0.0525  0.3414
  839MOL0     C10680   2.765   8.593  10.351 -0.5361  0.0962 -0.4373
  839MOL0     C10681   2.231   8.931  10.368  0.1628  0.2288 -0.3493
  839MOL0     C10682   2.157   9.016  10.458  0.4472 -0.1357 -0.0982
  839MOL0     H10683   1.824   9.354  10.610  0.6334  0.8766 -0.4944
  839MOL0     H10684   1.715   9.468  10.783 -0.9139 -0.1151 -3.3872
  839MOL0     H10685   1.646   9.583  10.971  0.0064  1.6745 -1.9614
  839MOL0     H10686   1.809   9.645  10.934  2.0951 -4.2413 -0.6591
  839MOL0     H10687   1.667   9.629  11.209 -0.5472  2.1714  0.1396
  839MOL0     H10688   1.691   9.776  11.113  0.7912  0.4745 -0.3687
  839MOL0     H10689   1.947   9.722  11.138  1.1030 -1.2203  1.9182
  839MOL0     H10690   1.889   9.593  11.245  1.2280  1.1907  1.2895
  839MOL0     H10691   1.773   9.861  11.316  2.4584  3.7532 -1.3941
  839MOL0     H10692   1.845   9.726  11.418  0.8250 -0.3815  0.3993
  839MOL0     H10693   1.975   9.951  11.285 -3.0019 -1.9554 -2.2844
  839MOL0     H10694   2.059   9.805  11.337  1.5031 -0.1613  2.4245
  839MOL0     H10695   2.077   9.970  11.524  0.6752  1.2305 -2.1019
  839MOL0     H10696   1.972   9.838  11.564 -1.7462 -0.3001 -1.4981
  839MOL0     H10697   1.844  10.076  11.444  0.7794 -0.9991 -0.2836
  839MOL0     H10698   1.763   9.955  11.538 -1.5199  2.0289  0.0167
  839MOL0     H10699   1.956  10.178  11.612 -1.2044  0.9868  0.6251
  839MOL0     H10700   1.954  10.055  11.729  0.8414  3.0280  0.9494
  839MOL0     H10701   1.739  10.360  11.603  1.6080  2.3761  2.9915
  839MOL0     H10702   1.575  10.501  11.701 -0.3367  0.5055 -3.7441
  839MOL0     H10703   1.460  10.436  11.817 -0.1975 -1.6459 -0.4693
  839MOL0     H10704   1.446  10.389  11.514  3.8958 -0.6441  1.3439
  839MOL0     H10705   1.327  10.460  11.624  0.2559  0.7701  1.6470
  839MOL0     H10706   1.297  10.229  11.719 -3.7272 -0.1233 -0.3355
  839MOL0     H10707   1.237  10.252  11.552 -0.5050  1.6314  0.4526
  839MOL0     H10708   1.329  10.057  11.521 -0.6129 -2.2218  5.8034
  839MOL0     H10709   1.464  10.076  11.633 -0.6962 -2.7970 -0.8618
  839MOL0     H10710   1.368   9.924  11.340  0.0080  1.2250  0.3424
  839MOL0     H10711   1.384   9.867  11.093  2.3144 -1.5699 -0.4456
  839MOL0     H10712   1.665   9.955  10.683 -1.9123  0.5006  1.9491
  839MOL0     H10713   1.694   9.874  10.484  1.4072 -0.1743  1.2958
  839MOL0     H10714   1.733   9.563  10.463  0.1409  1.1813 -0.3159
  839MOL0     H10715   1.721   9.559  10.286 -1.7735  3.3270  0.0048
  839MOL0     H10716   1.554   9.422  10.498  0.4541  3.7212  0.1565
  839MOL0     H10717   1.696   9.348  10.401  0.7177  1.4159 -2.0323
  839MOL0     H10718   1.407   9.411  10.326  0.3799 -0.7645  0.2706
  839MOL0     H10719   1.489   9.256  10.311 -3.0990 -0.7069  0.3367
  839MOL0     H10720   1.581   9.482  10.135  0.1029 -0.4268 -1.2327
  839MOL0     H10721   1.627   9.313  10.127  1.6423  1.2382  0.2258
  839MOL0     H10722   1.443   9.435   9.963 -3.1559  0.1381 -0.1400
  839MOL0     H10723   1.333   9.418  10.100  0.3337 -1.7979  1.3216
  839MOL0     H10724   1.299   9.238   9.937 -0.1163  2.3994 -0.1634
  839MOL0     H10725   1.327   9.192  10.102 -1.4653  0.8442 -0.2914
  839MOL0     H10726   1.446   9.114   9.870 -2.7482 -2.5066  2.0483
  839MOL0     H10727   1.581   9.220   9.928 -0.1544  0.1585 -0.2423
  839MOL0     H10728   1.477   8.964  10.064 -0.1497 -1.4727 -2.1621
  839MOL0     H10729   1.595   9.089  10.136  0.8995  0.2310 -1.1658
  839MOL0     H10730   1.400   9.556  10.575  1.4944 -0.6946 -0.0908
  839MOL0     H10731   1.373   9.646  10.782  0.8889 -0.8940  0.4944
  839MOL0     H10732   1.660  10.185  11.031  0.9166 -0.7740  0.5681
  839MOL0     H10733   1.650  10.249  11.261  1.3402 -1.2728 -1.7003
  839MOL0     H10734   1.957   9.272  11.075 -0.7577 -2.9809  0.3970
  839MOL0     H10735   2.058   9.130  10.903 -1.5323  0.7984  2.1926
  839MOL0     H10736   1.939   8.772  10.557  2.0249 -1.2223  1.4003
  839MOL0     H10737   2.061   8.639  10.416 -0.2855  0.1240 -0.0133
  839MOL0     H10738   2.251   8.535  10.331  0.4541 -2.0674 -0.1672
  839MOL0     H10739   2.399   8.613  10.386  0.0713 -1.4558 -0.1882
  839MOL0     H10740   2.489   8.474  10.267 -0.1434  1.7241  0.3477
  839MOL0     H10741   2.352   8.460  10.147 -1.0141  2.0814 -1.4343
  839MOL0     H10742   2.434   8.683  10.053 -0.6316 -2.1967 -2.0894
  839MOL0     H10743   2.561   8.563  10.024 -1.4534 -0.9068  0.5538
  839MOL0     H10744   2.648   8.762  10.104 -1.2350 -1.7957 -2.6328
  839MOL0     H10745   2.524   8.768  10.230  0.0999  0.0006 -1.0786
  839MOL0     H10746   2.844   8.549  10.408  0.3721  2.3982  0.2103
  839MOL0     H10747   2.303   8.986  10.308  0.6361  0.4631  0.4255
  839MOL0     H10748   2.194   9.117  10.462  2.9112 -1.0050  3.2226
  840MOL0     O10749   7.843   0.506   0.908 -0.3969 -0.5867  0.9130
  840MOL0     C10750   7.844   0.456   1.023  0.2185  0.6614 -0.4669
  840MOL0     O10751   7.851   0.522   1.138  0.3955 -0.3801 -0.0335
  840MOL0     C10752   7.851   0.660   1.126  0.0335  0.4000 -1.2231
  840MOL0     C10753   7.973   0.718   1.146 -0.2249  0.6855  0.5509
  840MOL0     C10754   7.979   0.858   1.153  0.8890 -0.3990  0.3001
  840MOL0     C10755   7.867   0.946   1.142  0.1602 -0.1136 -0.9064
  840MOL0     O10756   7.876   1.076   1.152 -0.1389 -0.1005  0.5954
  840MOL0     C10757   7.922   1.122   1.276 -0.5305  0.7416 -0.5673
  840MOL0     C10758   7.920   1.272   1.285 -0.7581  0.1848 -0.7797
  840MOL0     C10759   7.962   1.333   1.419 -0.2457  0.9965 -0.1986
  840MOL0     C10760   7.902   1.472   1.442 -0.0675 -0.8455 -0.8066
  840MOL0     C10761   7.887   1.508   1.597  0.5200 -0.6521 -0.7532
  840MOL0     C10762   7.822   1.648   1.627  0.2523  0.1562  0.3730
  840MOL0     C10763   7.793   1.672   1.781 -0.1621  0.1984 -0.2239
  840MOL0     C10764   7.688   1.795   1.793  0.8142 -0.5257 -0.7353
  840MOL0     N10765   7.608   1.776   1.919  0.0425 -0.9132 -0.2570
  840MOL0     C10766   7.646   1.798   2.041  0.3474  0.4926 -0.2884
  840MOL0     C10767   7.543   1.793   2.131  0.2938  0.1578  0.2954
  840MOL0     C10768   7.545   1.786   2.279  1.1092  0.1549 -0.1598
  840MOL0     C10769   7.512   1.640   2.331 -0.1957 -0.0054  0.1767
  840MOL0     C10770   7.609   1.525   2.272  0.2124 -0.1653 -0.3485
  840MOL0     C10771   7.619   1.395   2.362 -0.0437 -0.2514  0.4745
  840MOL0     O10772   7.717   1.321   2.290  0.0978  0.5707  0.2983
  840MOL0     C10773   7.839   1.299   2.349 -0.1658  0.8720  0.3287
  840MOL0     C10774   7.895   1.171   2.355 -0.4528  0.7111  1.2749
  840MOL0     C10775   8.011   1.151   2.431 -0.5549  0.3601  0.9096
  840MOL0     C10776   8.072   1.243   2.504 -0.0055 -0.4190  0.3667
  840MOL0     C10777   8.207   1.215   2.565  0.6114 -0.2306  0.2311
  840MOL0     O10778   8.260   1.088   2.560  0.3999  0.1689  0.1560
  840MOL0     C10779   8.372   1.067   2.636  1.0414  0.4812  1.0080
  840MOL0     C10780   8.368   1.074   2.765 -0.4720  0.0626 -0.1978
  840MOL0     C10781   8.473   1.040   2.848 -0.4311 -0.6144 -0.8418
  840MOL0     C10782   8.592   0.985   2.795 -0.0408  0.5402  0.8992
  840MOL0     O10783   8.698   0.964   2.876  0.3358 -0.0612 -0.6989
  840MOL0     C10784   8.811   0.886   2.833 -0.0207 -1.1208 -0.0106
  840MOL0     C10785   8.809   0.749   2.883  0.0848  0.0148 -0.2602
  840MOL0     C10786   8.940   0.671   2.907 -0.2629  0.8257  0.5242
  840MOL0     C10787   8.907   0.531   2.960 -0.5198  0.7198 -0.1905
  840MOL0     C10788   9.035   0.438   2.968  0.1434  0.9076  0.6183
  840MOL0     C10789   9.016   0.305   3.045  0.5244 -0.7561 -0.2233
  840MOL0     C10790   9.140   0.209   3.024 -0.2790  0.1023 -0.3877
  840MOL0     C10791   9.099   0.071   3.067 -0.0585  1.5130  0.4324
  840MOL0    Cl10792   8.980   0.004   2.942 -0.5335  0.1182 -0.1811
  840MOL0     C10793   8.591   0.960   2.652  0.4329 -0.2081 -0.9454
  840MOL0     C10794   8.487   1.008   2.575  0.3926  0.3206 -0.6962
  840MOL0     O10795   8.261   1.315   2.608  1.2647 -0.4978  0.5987
  840MOL0     C10796   8.019   1.376   2.485  0.5607 -0.6067  0.4486
  840MOL0     C10797   7.901   1.399   2.419  0.6731 -0.3460 -0.5109
  840MOL0     N10798   7.437   1.765   2.040 -0.1226 -0.0597 -0.8690
  840MOL0     N10799   7.474   1.754   1.921 -0.8468  0.4145 -0.0206
  840MOL0     C10800   7.744   0.879   1.129 -0.1578  0.5366 -0.1937
  840MOL0     C10801   7.735   0.745   1.118  0.2273  0.5985 -0.4365
  840MOL0     C10802   7.839   0.311   1.027 -0.3345 -0.2331  0.7199
  840MOL0     C10803   7.877   0.245   0.914 -0.6393 -0.5995  0.4715
  840MOL0     C10804   7.899   0.109   0.916  0.3876 -0.1166 -0.3479
  840MOL0     C10805   7.887   0.035   1.032 -0.8702  0.0248  0.1982
  840MOL0     O10806   7.922  -0.095   1.016  0.2778  0.2703 -0.1148
  840MOL0     C10807   7.817  -0.174   1.076  0.2511 -0.9926 -0.6769
  840MOL0     C10808   7.807  -0.312   1.004 -0.9837  0.0957 -0.3264
  840MOL0     C10809   7.814  -0.313   0.851  0.4634  0.0169 -1.2459
  840MOL0     C10810   7.965  -0.322   0.812 -0.3310  0.3021  0.0218
  840MOL0     C10811   7.988  -0.270   0.678  0.0729  0.5742 -0.9501
  840MOL0     C10812   7.995  -0.212   0.575 -0.6081  0.0988  0.0788
  840MOL0     C10813   7.846   0.101   1.151  0.3268  0.2409 -0.0956
  840MOL0     C10814   7.824   0.241   1.150 -0.0692  0.2383 -0.7225
  840MOL0     H10815   8.065   0.666   1.170 -1.7677 -2.5265  0.0132
  840MOL0     H10816   8.075   0.905   1.170  1.5624 -0.6949 -2.1941
  840MOL0     H10817   8.026   1.098   1.298 -0.5068 -1.0297 -2.3406
  840MOL0     H10818   7.861   1.085   1.360 -1.2329  0.9118 -0.9966
  840MOL0     H10819   7.817   1.292   1.254 -1.1685  0.0151  0.4252
  840MOL0     H10820   7.990   1.311   1.210 -0.7136  3.1699  0.6668
  840MOL0     H10821   8.070   1.350   1.425 -0.3322  1.8176 -0.8471
  840MOL0     H10822   7.923   1.264   1.494  1.2517  0.3442 -0.0011
  840MOL0     H10823   7.976   1.542   1.402  0.0243  0.4702  1.5171
  840MOL0     H10824   7.805   1.475   1.391 -1.8425 -0.1573  2.3348
  840MOL0     H10825   7.985   1.504   1.646 -0.6145  1.8741  2.0724
  840MOL0     H10826   7.826   1.426   1.637 -3.5329  1.9203 -1.0712
  840MOL0     H10827   7.725   1.652   1.576  1.2556 -1.5676 -1.8040
  840MOL0     H10828   7.887   1.724   1.585  1.5389 -1.5654 -0.8842
  840MOL0     H10829   7.727   1.589   1.809 -2.3417  1.7144 -0.6153
  840MOL0     H10830   7.886   1.684   1.837  2.4146  0.7542 -4.1942
  840MOL0     H10831   7.630   1.786   1.701 -0.1279 -2.6255 -0.0195
  840MOL0     H10832   7.748   1.886   1.799 -0.5986  0.3541  1.3277
  840MOL0     H10833   7.750   1.820   2.062  0.2194  3.0588 -1.9713
  840MOL0     H10834   7.476   1.861   2.320  1.7602  0.9760 -0.5291
  840MOL0     H10835   7.646   1.812   2.313  1.1042  0.1432 -0.1350
  840MOL0     H10836   7.413   1.600   2.306 -0.1880 -1.5936  2.3839
  840MOL0     H10837   7.512   1.644   2.440 -1.4695  0.2679  0.1795
  840MOL0     H10838   7.561   1.501   2.177 -0.9244  0.8290 -0.0538
  840MOL0     H10839   7.712   1.562   2.269 -0.0898  0.6896 -0.5738
  840MOL0     H10840   7.527   1.335   2.358 -0.8984  1.0722 -0.6035
  840MOL0     H10841   7.634   1.416   2.468  0.7172 -1.2221  0.5723
  840MOL0     H10842   7.839   1.102   2.294  0.7517 -0.2998  1.2641
  840MOL0     H10843   8.047   1.049   2.442 -1.7185 -0.0915  0.6915
  840MOL0     H10844   8.279   1.124   2.802 -1.2085 -0.7671 -0.8007
  840MOL0     H10845   8.468   1.048   2.956 -2.0703 -0.3640 -0.9092
  840MOL0     H10846   8.898   0.936   2.877  2.0482 -4.2188 -0.2392
  840MOL0     H10847   8.835   0.885   2.727  1.2522 -0.8122  0.2467
  840MOL0     H10848   8.746   0.695   2.811 -2.7348  0.6281  1.5602
  840MOL0     H10849   8.742   0.722   2.966 -0.1425 -0.5845 -0.6269
  840MOL0     H10850   9.004   0.714   2.984  0.0396 -1.6373  1.7145
  840MOL0     H10851   8.995   0.663   2.812 -1.3524  0.0291 -0.0671
  840MOL0     H10852   8.858   0.541   3.058  1.8408  4.0591  0.8317
  840MOL0     H10853   8.842   0.483   2.887  0.9606  1.5060 -2.0957
  840MOL0     H10854   9.112   0.507   3.005  0.6545 -0.6365  2.6391
  840MOL0     H10855   9.058   0.405   2.866 -0.9542  2.6188 -0.2303
  840MOL0     H10856   8.926   0.260   3.001  0.8547 -0.4468 -1.2527
  840MOL0     H10857   9.005   0.317   3.153 -0.6770 -0.0182 -0.3997
  840MOL0     H10858   9.166   0.231   2.920  1.6288  2.1705  0.4384
  840MOL0     H10859   9.223   0.243   3.088 -0.0339  1.1683 -1.2392
  840MOL0     H10860   9.051   0.070   3.165 -2.2979  0.1278 -0.6052
  840MOL0     H10861   9.190   0.012   3.082 -2.3115 -1.5643  3.5313
  840MOL0     H10862   8.670   0.911   2.595  0.9981 -0.8372  0.3234
  840MOL0     H10863   8.480   0.994   2.468  0.0606  0.4828 -0.6969
  840MOL0     H10864   8.065   1.464   2.529 -1.5444  1.1720 -0.7149
  840MOL0     H10865   7.864   1.501   2.417  2.1491  0.2058 -1.3042
  840MOL0     H10866   7.651   0.935   1.123 -0.8498 -0.7015 -1.9805
  840MOL0     H10867   7.635   0.706   1.101  0.9737 -1.6201 -0.0870
  840MOL0     H10868   7.858   0.293   0.819 -3.3239  0.5752  1.5101
  840MOL0     H10869   7.921   0.056   0.824  0.7972  3.4134 -2.4740
  840MOL0     H10870   7.725  -0.115   1.066 -0.3879 -1.8832 -0.1516
  840MOL0     H10871   7.836  -0.197   1.181 -2.1576 -0.4347 -0.0456
  840MOL0     H10872   7.879  -0.386   1.040 -1.7397 -0.3810  0.2350
  840MOL0     H10873   7.705  -0.349   1.010 -1.4044  1.3511  0.6202
  840MOL0     H10874   7.780  -0.216   0.814  0.9108  0.5266 -0.3564
  840MOL0     H10875   7.762  -0.393   0.798 -0.8452 -1.3362  1.8125
  840MOL0     H10876   8.028  -0.263   0.879 -2.5983  2.9698  0.0161
  840MOL0     H10877   7.994  -0.427   0.802 -1.5352  0.2051 -4.6406
  840MOL0     H10878   8.018  -0.157   0.486 -0.1550 -0.2155 -0.0090
  840MOL0     H10879   7.833   0.050   1.245 -1.1072  3.6857  1.7757
  840MOL0     H10880   7.810   0.285   1.248  1.5102  0.5669 -0.6236
  841MOL0     O10881   5.621   4.289   0.427 -0.2429  0.6329 -0.2793
  841MOL0     C10882   5.702   4.329   0.342  0.0641 -0.0486  0.5106
  841MOL0     O10883   5.820   4.269   0.310  0.5528  0.7982  1.0081
  841MOL0     C10884   5.879   4.182   0.398 -0.0121 -1.0622 -0.2949
  841MOL0     C10885   5.982   4.229   0.472  0.1159 -0.2460 -0.1950
  841MOL0     C10886   6.059   4.145   0.549 -0.1740  0.6542 -0.0337
  841MOL0     C10887   6.032   4.005   0.549  0.1522 -0.1449  0.7930
  841MOL0     O10888   6.119   3.931   0.620 -0.0842 -0.7513  0.1508
  841MOL0     C10889   6.094   3.789   0.619  0.0235  0.1264  0.2432
  841MOL0     C10890   6.186   3.710   0.703 -0.9130  0.9574 -0.1797
  841MOL0     C10891   6.165   3.557   0.694  0.1214 -0.0939  0.0270
  841MOL0     C10892   6.230   3.471   0.807  0.2288 -0.0044  1.6896
  841MOL0     C10893   6.155   3.336   0.815  0.1436  0.4135  0.0344
  841MOL0     C10894   6.212   3.252   0.921  0.3400 -0.0077 -0.0057
  841MOL0     C10895   6.164   3.102   0.923  0.5808  0.5464  0.4359
  841MOL0     C10896   6.240   3.024   1.033 -0.0858  0.5505 -0.8290
  841MOL0     N10897   6.221   3.073   1.169  0.4484 -0.0295 -0.4164
  841MOL0     C10898   6.317   3.130   1.245  0.3184  0.3516 -0.6738
  841MOL0     C10899   6.252   3.189   1.348  0.3518  0.7680 -0.9785
  841MOL0     C10900   6.319   3.270   1.454 -0.3838 -0.1413  0.3668
  841MOL0     C10901   6.357   3.415   1.407  0.3230 -0.3043  0.0300
  841MOL0     C10902   6.379   3.514   1.523 -0.0308 -1.2111  0.2922
  841MOL0     C10903   6.431   3.657   1.477 -0.4130  0.2053  0.5453
  841MOL0     O10904   6.562   3.650   1.412  0.4748 -0.3510 -0.4995
  841MOL0     C10905   6.588   3.758   1.334 -0.3612  0.5119  0.0956
  841MOL0     C10906   6.599   3.738   1.199  0.7575  0.7087  0.5688
  841MOL0     C10907   6.626   3.846   1.114 -0.5434 -0.5601 -0.1040
  841MOL0     C10908   6.635   3.983   1.165 -0.8743  0.7123  1.0345
  841MOL0     C10909   6.659   4.100   1.085  0.0843 -0.6187 -0.6699
  841MOL0     O10910   6.703   4.217   1.157  0.5422  0.0210  1.0338
  841MOL0     C10911   6.707   4.344   1.101 -0.6580 -0.0327  0.5435
  841MOL0     C10912   6.626   4.397   0.993 -0.0135 -0.0467 -0.4118
  841MOL0     C10913   6.647   4.537   0.956  0.6801  1.1239  0.2348
  841MOL0     C10914   6.729   4.627   1.022 -0.2578 -0.3537  0.3689
  841MOL0     O10915   6.758   4.758   0.975 -0.2462  0.8323 -0.7451
  841MOL0     C10916   6.638   4.811   0.913  0.1720 -0.2716  0.1521
  841MOL0     C10917   6.658   4.958   0.909  0.2104 -0.4713 -0.8099
  841MOL0     C10918   6.773   5.000   0.809  0.8285 -0.1410 -0.1709
  841MOL0     C10919   6.821   5.141   0.828 -0.1766 -0.3949 -0.8261
  841MOL0     C10920   6.944   5.174   0.753 -0.6619 -0.3399 -0.5403
  841MOL0     C10921   6.973   5.324   0.735  0.3338 -0.9662  0.2027
  841MOL0     C10922   7.008   5.394   0.871  0.8367  0.4074 -0.5666
  841MOL0     C10923   7.123   5.329   0.951 -0.6799  0.0129  0.1373
  841MOL0    Cl10924   7.267   5.406   0.880  0.3192  0.2659  0.9609
  841MOL0     C10925   6.802   4.574   1.131  0.4516 -0.7567 -0.0662
  841MOL0     C10926   6.781   4.446   1.174  0.1518  1.3170 -0.1476
  841MOL0     O10927   6.638   4.093   0.967 -0.0130  0.8247 -0.1966
  841MOL0     C10928   6.627   4.002   1.306  0.0840  0.3329  0.1846
  841MOL0     C10929   6.610   3.887   1.393  0.8458  0.4931  0.3710
  841MOL0     N10930   6.122   3.137   1.360 -0.2355 -0.0007 -0.3924
  841MOL0     N10931   6.105   3.073   1.244  1.0255  0.5573  0.0487
  841MOL0     C10932   5.920   3.955   0.468  0.9188 -1.4724  0.0143
  841MOL0     C10933   5.847   4.050   0.396 -0.4785 -0.0586  0.3881
  841MOL0     C10934   5.664   4.434   0.247  1.0697 -0.4974  0.3519
  841MOL0     C10935   5.636   4.569   0.293  0.0312  1.1781 -0.4324
  841MOL0     C10936   5.608   4.662   0.196 -0.3352 -0.3613  1.0018
  841MOL0     C10937   5.590   4.628   0.058 -0.2702 -0.2701  0.2448
  841MOL0     O10938   5.555   4.716  -0.044  0.3563  0.6741  0.0624
  841MOL0     C10939   5.531   4.856  -0.024  0.7454  0.5018 -0.1100
  841MOL0     C10940   5.672   4.922   0.005 -0.0884 -0.1473 -0.3202
  841MOL0     C10941   5.654   5.075  -0.037 -0.0568 -0.0949  0.3443
  841MOL0     C10942   5.689   5.104  -0.184 -0.2382 -0.6155  0.1303
  841MOL0     C10943   5.708   5.248  -0.201 -0.2249 -0.7789  1.2950
  841MOL0     C10944   5.719   5.366  -0.230 -0.2177 -0.7849  0.4189
  841MOL0     C10945   5.616   4.498   0.021  0.3895 -0.1419  0.0382
  841MOL0     C10946   5.662   4.405   0.109 -0.0822  0.3477  0.0656
  841MOL0     H10947   5.993   4.337   0.470 -0.1983 -0.2192 -2.4472
  841MOL0     H10948   6.143   4.170   0.613  0.5174 -0.4335 -0.4892
  841MOL0     H10949   6.099   3.753   0.515  0.0694 -0.4148  0.4288
  841MOL0     H10950   5.995   3.767   0.658  0.3723 -2.3110 -0.0947
  841MOL0     H10951   6.166   3.750   0.803  0.8880  2.3878 -0.3290
  841MOL0     H10952   6.287   3.731   0.667 -0.5752  0.2018  0.2963
  841MOL0     H10953   6.201   3.513   0.601  0.0843 -0.6745  0.2817
  841MOL0     H10954   6.057   3.552   0.711 -0.1627  1.5501 -1.0798
  841MOL0     H10955   6.338   3.460   0.788  0.1879  1.6694  0.2286
  841MOL0     H10956   6.219   3.522   0.902 -1.9751  0.2561  1.3456
  841MOL0     H10957   6.172   3.296   0.715  2.1598  0.9141  0.1378
  841MOL0     H10958   6.048   3.346   0.833  0.2351  2.8908 -0.4901
  841MOL0     H10959   6.181   3.296   1.016 -0.1041  0.3156 -0.2986
  841MOL0     H10960   6.320   3.267   0.917  0.0962  1.9264 -0.1856
  841MOL0     H10961   6.059   3.082   0.943  0.8410 -2.1520 -0.4241
  841MOL0     H10962   6.171   3.048   0.827 -1.7359  2.5195 -0.9317
  841MOL0     H10963   6.346   3.004   1.018 -0.7351 -2.1406 -2.4383
  841MOL0     H10964   6.194   2.925   1.036 -0.7411  0.8745  0.8013
  841MOL0     H10965   6.425   3.134   1.229  1.0461  3.5569  3.4387
  841MOL0     H10966   6.407   3.219   1.492  0.5061 -0.8376 -2.3997
  841MOL0     H10967   6.249   3.290   1.536 -0.8421 -2.9614  0.7453
  841MOL0     H10968   6.280   3.453   1.339  0.4562  1.0541  0.6117
  841MOL0     H10969   6.436   3.412   1.332 -0.0744 -0.6848 -0.3785
  841MOL0     H10970   6.285   3.536   1.574 -0.0431  1.5007 -0.7420
  841MOL0     H10971   6.446   3.477   1.601  0.1519  1.7209  1.6435
  841MOL0     H10972   6.435   3.732   1.556  1.9412 -0.0373  0.7305
  841MOL0     H10973   6.357   3.696   1.406  0.4992 -0.6838 -0.9429
  841MOL0     H10974   6.597   3.638   1.156  2.7054  0.7848  0.2064
  841MOL0     H10975   6.653   3.839   1.009  1.9386 -0.8500  0.4764
  841MOL0     H10976   6.566   4.337   0.926 -2.0972 -0.7095  1.8851
  841MOL0     H10977   6.602   4.568   0.862 -1.0016  0.3255  0.7404
  841MOL0     H10978   6.540   4.790   0.956  1.0249 -0.0920  2.2821
  841MOL0     H10979   6.649   4.776   0.809 -0.2748 -2.7925  0.8879
  841MOL0     H10980   6.685   4.994   1.008  1.7146 -2.4363 -0.4488
  841MOL0     H10981   6.569   5.011   0.871  1.7710  1.3888 -2.0779
  841MOL0     H10982   6.739   4.981   0.707  1.1330  2.2675 -0.7861
  841MOL0     H10983   6.853   4.931   0.836 -1.7381 -1.9450  3.7489
  841MOL0     H10984   6.738   5.205   0.798 -0.5876 -2.2695 -4.1059
  841MOL0     H10985   6.838   5.158   0.935  2.1223 -0.0000 -1.2005
  841MOL0     H10986   6.920   5.146   0.650 -1.0711  2.6529 -1.3537
  841MOL0     H10987   7.037   5.124   0.780  0.5315  2.4894  1.1086
  841MOL0     H10988   6.902   5.389   0.684  1.8711  2.4021  1.9997
  841MOL0     H10989   7.068   5.335   0.681  0.4983  1.6136  0.8498
  841MOL0     H10990   7.032   5.498   0.849  0.0913  0.6224 -0.4151
  841MOL0     H10991   6.915   5.391   0.929  0.7149  0.0574 -0.7726
  841MOL0     H10992   7.134   5.221   0.939  1.6275  0.0853  1.1775
  841MOL0     H10993   7.110   5.355   1.057  0.1232  0.2203  0.1868
  841MOL0     H10994   6.885   4.628   1.175  0.7126  0.9260 -2.4091
  841MOL0     H10995   6.835   4.403   1.258 -0.3103 -0.3944 -0.6896
  841MOL0     H10996   6.615   4.095   1.361  3.7664 -0.2798  2.3817
  841MOL0     H10997   6.606   3.902   1.500  4.8330 -1.2403  0.9356
  841MOL0     H10998   5.896   3.850   0.460  1.0871 -1.5484  0.5145
  841MOL0     H10999   5.768   4.013   0.331 -0.2226  0.4899 -0.2374
  841MOL0     H11000   5.628   4.592   0.399 -1.8497 -1.7657  0.1954
  841MOL0     H11001   5.612   4.763   0.235  0.5936 -1.0755  2.8658
  841MOL0     H11002   5.472   4.884   0.064  0.3013 -1.3372  0.2172
  841MOL0     H11003   5.470   4.899  -0.105 -0.6942 -2.6711 -0.8697
  841MOL0     H11004   5.711   4.933   0.106  1.2733 -0.1343 -0.8242
  841MOL0     H11005   5.752   4.874  -0.052  0.3521  1.2374 -0.9088
  841MOL0     H11006   5.716   5.148   0.016  1.4368  0.7288 -2.3961
  841MOL0     H11007   5.549   5.102  -0.021 -0.2379 -1.6434  2.1103
  841MOL0     H11008   5.782   5.056  -0.215 -1.3989 -1.4416 -2.3391
  841MOL0     H11009   5.611   5.081  -0.258 -1.9647  2.1960  0.9285
  841MOL0     H11010   5.719   5.468  -0.264 -2.4896 -1.1875 -0.9792
  841MOL0     H11011   5.617   4.464  -0.082 -0.7141 -0.5082  0.1315
  841MOL0     H11012   5.708   4.317   0.063  0.6586  1.1611 -0.7844
  842MOL0     O11013   2.320   0.458   8.205 -0.2362  0.2960 -0.5345
  842MOL0     C11014   2.316   0.462   8.325 -0.5857 -0.3047  0.1727
  842MOL0     O11015   2.314   0.569   8.400 -0.3049 -0.2217 -0.3053
  842MOL0     C11016   2.342   0.692   8.345 -0.2264  1.1446  0.5682
  842MOL0     C11017   2.263   0.751   8.243  0.0680 -0.3087 -0.5169
  842MOL0     C11018   2.282   0.888   8.203  0.2092 -0.4163  0.1413
  842MOL0     C11019   2.384   0.958   8.269 -0.2259  0.3321  0.3179
  842MOL0     O11020   2.411   1.080   8.210 -0.4836 -0.7114  0.2259
  842MOL0     C11021   2.534   1.149   8.236 -0.3843 -0.0574  0.1015
  842MOL0     C11022   2.503   1.246   8.361  0.7194  0.0076  0.4169
  842MOL0     C11023   2.632   1.303   8.436 -0.7823 -0.1262  0.3179
  842MOL0     C11024   2.714   1.400   8.354  0.9844 -0.3483  0.3251
  842MOL0     C11025   2.687   1.550   8.362 -0.2806  0.5456 -0.3462
  842MOL0     C11026   2.702   1.596   8.515 -0.5137  0.4659  0.9052
  842MOL0     C11027   2.697   1.738   8.543 -0.3566  0.1835  0.1461
  842MOL0     C11028   2.603   1.803   8.454  0.3706  0.2445  0.1321
  842MOL0     N11029   2.565   1.932   8.514 -0.2851 -0.5764  0.1377
  842MOL0     C11030   2.632   2.048   8.503 -1.1038  0.7166 -0.0494
  842MOL0     C11031   2.588   2.126   8.590 -0.9961  0.2660 -0.1072
  842MOL0     C11032   2.635   2.264   8.623 -0.5610  0.3309 -0.9461
  842MOL0     C11033   2.572   2.371   8.525 -0.1794  0.3690 -0.4364
  842MOL0     C11034   2.594   2.347   8.378 -1.0338 -0.6381  0.7137
  842MOL0     C11035   2.516   2.455   8.293  0.5663  0.0979 -0.5591
  842MOL0     O11036   2.589   2.450   8.173 -0.6450 -0.3132  0.9048
  842MOL0     C11037   2.573   2.553   8.082  1.1034  0.0953  1.5409
  842MOL0     C11038   2.457   2.632   8.076  0.5122 -0.9459  0.3728
  842MOL0     C11039   2.448   2.733   7.982  0.0277  0.4804  0.5644
  842MOL0     C11040   2.551   2.763   7.891  0.2103 -0.3856  0.2589
  842MOL0     C11041   2.533   2.887   7.805  0.2922 -0.0241  0.6729
  842MOL0     O11042   2.565   2.902   7.674 -0.6885  0.4410  0.3772
  842MOL0     C11043   2.579   2.794   7.591  0.3273  0.6860 -0.0109
  842MOL0     C11044   2.492   2.684   7.583  1.2060 -0.0987  0.1687
  842MOL0     C11045   2.523   2.570   7.511 -0.0873  0.6954 -1.2644
  842MOL0     C11046   2.636   2.573   7.425  0.2524 -0.5102 -1.1893
  842MOL0     O11047   2.668   2.457   7.358 -0.5991 -0.4001 -1.2250
  842MOL0     C11048   2.608   2.439   7.225 -0.9642 -0.1538  0.0930
  842MOL0     C11049   2.702   2.362   7.139  0.7854 -0.4275 -0.8070
  842MOL0     C11050   2.768   2.236   7.201 -0.0074 -1.3513  0.0163
  842MOL0     C11051   2.801   2.141   7.093 -0.0916  0.0138  0.1292
  842MOL0     C11052   2.939   2.180   7.021 -0.5342 -0.3452 -0.3973
  842MOL0     C11053   2.984   2.059   6.936  1.0732 -0.3498  0.2439
  842MOL0     C11054   3.089   2.088   6.827  0.1990 -0.3553 -0.5056
  842MOL0     C11055   3.216   2.155   6.888 -0.1157  0.2683 -0.6042
  842MOL0    Cl11056   3.360   2.116   6.786 -0.1861  0.1026  0.2073
  842MOL0     C11057   2.717   2.692   7.415  0.2741  0.6138  0.2559
  842MOL0     C11058   2.692   2.802   7.503  0.2025  0.5313 -0.0422
  842MOL0     O11059   2.486   2.973   7.869 -0.2898 -0.4573 -0.3468
  842MOL0     C11060   2.664   2.677   7.893  0.0078  0.0254 -0.5230
  842MOL0     C11061   2.680   2.577   7.982  0.5567  0.1007  0.6776
  842MOL0     N11062   2.482   2.062   8.659 -0.1199 -0.3485  0.6748
  842MOL0     N11063   2.473   1.937   8.618 -0.0087 -0.0688 -0.7802
  842MOL0     C11064   2.456   0.904   8.373 -0.7893 -0.6582  0.4615
  842MOL0     C11065   2.441   0.765   8.405 -0.6505 -1.1417 -0.1679
  842MOL0     C11066   2.320   0.329   8.392 -0.6036  0.4495  0.2180
  842MOL0     C11067   2.327   0.321   8.529 -0.5120  0.3838 -0.5758
  842MOL0     C11068   2.323   0.195   8.588  0.5471 -1.2403 -0.1904
  842MOL0     C11069   2.318   0.079   8.520 -0.2078  0.5608 -0.3284
  842MOL0     O11070   2.333  -0.052   8.573  0.2929 -0.2251  0.7091
  842MOL0     C11071   2.331  -0.061   8.710  0.2004 -0.4696  0.2289
  842MOL0     C11072   2.264  -0.187   8.755 -0.2130 -0.0040  0.1891
  842MOL0     C11073   2.208  -0.175   8.899  0.4759  0.4539 -0.2622
  842MOL0     C11074   2.135  -0.300   8.930 -0.6531  0.4718 -0.2302
  842MOL0     C11075   2.216  -0.420   8.935 -0.3094  0.5332 -0.2512
  842MOL0     C11076   2.274  -0.530   8.945  0.0527  0.5939 -0.8927
  842MOL0     C11077   2.333   0.087   8.382  0.1483 -1.0150 -0.0649
  842MOL0     C11078   2.326   0.207   8.322 -0.2297 -0.8353 -0.2637
  842MOL0     H11079   2.188   0.691   8.193  0.4912 -0.8183 -0.5512
  842MOL0     H11080   2.222   0.943   8.132  0.7131  3.1659  2.2253
  842MOL0     H11081   2.558   1.212   8.149  1.5306  0.7616  1.1563
  842MOL0     H11082   2.618   1.082   8.255  1.1134  2.0236  1.2002
  842MOL0     H11083   2.450   1.202   8.446 -2.1185 -0.5711 -1.5124
  842MOL0     H11084   2.441   1.328   8.323  2.2028 -0.8922 -4.7238
  842MOL0     H11085   2.707   1.226   8.454 -1.6976 -0.6314  2.2578
  842MOL0     H11086   2.602   1.349   8.531  1.4303  0.5617  0.7301
  842MOL0     H11087   2.814   1.386   8.398  1.8584 -0.3484 -1.5759
  842MOL0     H11088   2.722   1.356   8.255  0.2930 -2.4501  1.1532
  842MOL0     H11089   2.582   1.561   8.332 -0.5278 -0.9120 -0.0982
  842MOL0     H11090   2.746   1.598   8.284 -0.5765 -1.6735 -2.0297
  842MOL0     H11091   2.801   1.571   8.554  1.3970  1.0400 -3.0585
  842MOL0     H11092   2.625   1.545   8.573 -3.8936  0.8912 -2.7919
  842MOL0     H11093   2.674   1.753   8.649  2.3946  3.2184  0.4502
  842MOL0     H11094   2.793   1.774   8.506 -2.5970  2.2301 -4.3806
  842MOL0     H11095   2.509   1.748   8.440 -0.9020  1.6893  2.3117
  842MOL0     H11096   2.644   1.822   8.355 -0.0168 -2.1953 -0.5745
  842MOL0     H11097   2.722   2.075   8.448 -2.2206  1.9542 -1.3410
  842MOL0     H11098   2.743   2.274   8.609 -0.9606  2.7504 -3.1653
  842MOL0     H11099   2.610   2.292   8.725  1.7629 -1.4276  0.2064
  842MOL0     H11100   2.602   2.469   8.564 -4.0159  1.1710  0.9010
  842MOL0     H11101   2.464   2.369   8.544 -0.0546 -0.7635  0.2963
  842MOL0     H11102   2.702   2.359   8.365 -1.1980 -0.7048 -0.9924
  842MOL0     H11103   2.572   2.247   8.341 -0.4349 -0.0743 -1.2823
  842MOL0     H11104   2.514   2.556   8.336 -2.3261  0.4503 -1.2909
  842MOL0     H11105   2.412   2.421   8.281 -0.6364  1.9022  3.1313
  842MOL0     H11106   2.377   2.613   8.146 -0.7522 -1.6540 -1.1873
  842MOL0     H11107   2.358   2.793   7.980  0.4555  1.4683  3.9808
  842MOL0     H11108   2.398   2.676   7.637 -0.5704 -0.5439 -2.7206
  842MOL0     H11109   2.473   2.475   7.525  1.2285  0.0668 -0.6680
  842MOL0     H11110   2.577   2.532   7.177 -0.9926  0.1812  0.7528
  842MOL0     H11111   2.513   2.385   7.232 -0.2983 -1.2476  1.0806
  842MOL0     H11112   2.770   2.431   7.089 -1.4701  3.2621  0.7400
  842MOL0     H11113   2.626   2.340   7.063  0.5993  3.2062 -1.8573
  842MOL0     H11114   2.694   2.195   7.271 -0.7884 -0.4145 -0.2342
  842MOL0     H11115   2.859   2.269   7.253  0.7273  2.7287 -3.3394
  842MOL0     H11116   2.824   2.044   7.138 -0.4483  1.5233  3.9365
  842MOL0     H11117   2.714   2.130   7.027  0.4949  0.7662 -0.8007
  842MOL0     H11118   3.013   2.206   7.098 -0.4864  1.1349 -0.9164
  842MOL0     H11119   2.919   2.257   6.947  0.4408 -0.7068 -1.0468
  842MOL0     H11120   2.911   2.006   6.874  0.7806  2.5583 -2.1076
  842MOL0     H11121   3.010   1.971   6.996 -1.1001 -1.9334 -0.9866
  842MOL0     H11122   3.119   1.996   6.775  2.0883 -1.4444  2.2566
  842MOL0     H11123   3.052   2.161   6.756  0.5756  1.2568  0.8955
  842MOL0     H11124   3.246   2.110   6.982 -1.7285 -0.0825 -0.2233
  842MOL0     H11125   3.192   2.262   6.899 -3.0199 -0.4555  1.0932
  842MOL0     H11126   2.801   2.702   7.348  0.4818 -2.7079 -0.1399
  842MOL0     H11127   2.756   2.889   7.496 -2.2159  2.3031 -1.9748
  842MOL0     H11128   2.740   2.700   7.819 -1.9645  0.5740 -2.4785
  842MOL0     H11129   2.762   2.507   7.971  0.4503 -0.0481  0.8201
  842MOL0     H11130   2.532   0.957   8.429 -1.5409  0.5834  0.3294
  842MOL0     H11131   2.502   0.721   8.484 -1.1323 -6.5108 -2.3867
  842MOL0     H11132   2.335   0.401   8.601 -0.7889  1.5620 -1.8089
  842MOL0     H11133   2.329   0.202   8.696  2.2264  3.5384 -0.3195
  842MOL0     H11134   2.270   0.018   8.755 -1.0771 -1.3065  0.0103
  842MOL0     H11135   2.432  -0.050   8.751  0.7669 -1.3918 -0.8675
  842MOL0     H11136   2.183  -0.207   8.684  1.5838 -0.1363 -1.8970
  842MOL0     H11137   2.337  -0.268   8.747 -2.0429 -1.7525  0.0558
  842MOL0     H11138   2.141  -0.091   8.918  1.3156  0.9361  0.6747
  842MOL0     H11139   2.290  -0.160   8.971  1.3355 -0.8744 -0.9248
  842MOL0     H11140   2.077  -0.286   9.022 -0.2235 -1.8446  0.4693
  842MOL0     H11141   2.067  -0.312   8.846 -0.2814  2.4869 -0.8575
  842MOL0     H11142   2.330  -0.619   8.965 -1.0414  0.3560  1.3243
  842MOL0     H11143   2.320  -0.003   8.323  3.0945 -1.3280 -0.3616
  842MOL0     H11144   2.323   0.211   8.214  1.4634 -1.4275 -0.3564
  843MOL0     O11145   9.531  10.260   5.496 -0.2021  0.3472  0.2334
  843MOL0     C11146   9.563  10.205   5.602 -0.1995 -0.4598 -0.0496
  843MOL0     O11147   9.664  10.254   5.681 -0.0860 -1.2490  0.0583
  843MOL0     C11148   9.692  10.386   5.690  0.5721  0.2862 -0.7711
  843MOL0     C11149   9.620  10.495   5.641  0.0792 -0.7978  1.4873
  843MOL0     C11150   9.659  10.622   5.671 -0.2476 -0.4463 -0.0934
  843MOL0     C11151   9.778  10.646   5.739  0.8556 -0.3428  0.3310
  843MOL0     O11152   9.815  10.779   5.747  0.5436 -0.4981 -0.4496
  843MOL0     C11153   9.935  10.797   5.828  0.4347  0.1563  0.1473
  843MOL0     C11154   9.936  10.944   5.867 -0.8799 -0.4636  0.8388
  843MOL0     C11155  10.045  11.037   5.824 -0.3454  0.2577  0.4700
  843MOL0     C11156  10.049  11.156   5.922 -0.5459 -0.3802 -0.2167
  843MOL0     C11157  10.156  11.270   5.895 -0.4890  0.6121  0.0956
  843MOL0     C11158  10.152  11.376   6.012 -0.2390  0.2746  0.5113
  843MOL0     C11159  10.141  11.515   5.946  1.6173 -0.8259 -0.4607
  843MOL0     C11160   9.987  11.548   5.924 -0.2439 -0.2703 -0.3570
  843MOL0     N11161   9.949  11.680   5.864 -0.1353 -0.5313  0.1308
  843MOL0     C11162   9.852  11.770   5.906 -0.0281  0.9761  0.7006
  843MOL0     C11163   9.877  11.883   5.832  0.1393  0.1393 -0.5598
  843MOL0     C11164   9.795  12.014   5.826 -0.1299  0.4401  0.0006
  843MOL0     C11165   9.650  11.997   5.776 -0.6070  0.2826 -1.1355
  843MOL0     C11166   9.560  12.101   5.850  0.3801 -0.5033  0.6162
  843MOL0     C11167   9.556  12.227   5.773 -0.1711  0.1165  0.3819
  843MOL0     O11168   9.685  12.271   5.731  0.2660 -0.5146  0.1542
  843MOL0     C11169   9.724  12.383   5.799 -0.1232 -0.4810  0.4347
  843MOL0     C11170   9.654  12.516   5.794 -0.5869 -0.1824  0.0709
  843MOL0     C11171   9.698  12.626   5.862 -0.5134 -0.5870  0.2346
  843MOL0     C11172   9.821  12.617   5.933  1.1142  0.9289  0.3435
  843MOL0     C11173   9.866  12.726   6.018  1.3281  0.2291  0.2622
  843MOL0     O11174   9.988  12.728   6.075  0.0554 -0.1120  0.2248
  843MOL0     C11175  10.055  12.829   6.139 -0.3599 -0.1716  0.2585
  843MOL0     C11176  10.190  12.811   6.175 -0.8232  0.5078 -0.2410
  843MOL0     C11177  10.261  12.914   6.248 -0.0761 -0.0987 -1.1252
  843MOL0     C11178  10.198  13.032   6.291  0.3396 -0.4318 -0.9647
  843MOL0     O11179  10.273  13.130   6.362  1.3694  0.1800 -0.0364
  843MOL0     C11180  10.407  13.107   6.409 -0.0502  1.1223 -0.1087
  843MOL0     C11181  10.417  13.205   6.517  0.6789  0.2767 -0.6431
  843MOL0     C11182  10.550  13.216   6.588  0.5649  0.2930  0.7939
  843MOL0     C11183  10.653  13.284   6.504  1.1004  0.8966  0.1535
  843MOL0     C11184  10.777  13.332   6.576  0.7090 -0.3385  0.3723
  843MOL0     C11185  10.873  13.416   6.491 -1.2111 -0.0976 -1.1331
  843MOL0     C11186  10.998  13.466   6.564  0.6482  0.7912  1.6740
  843MOL0     C11187  11.130  13.415   6.490  0.0142  0.0937 -0.5441
  843MOL0    Cl11188  11.125  13.459   6.313  0.4006  0.1864 -0.4851
  843MOL0     C11189  10.061  13.048   6.261  0.2439  1.3060  0.0534
  843MOL0     C11190   9.992  12.949   6.181  0.2238 -0.4080 -0.3077
  843MOL0     O11191   9.779  12.810   6.025  0.2032  0.9159 -0.1248
  843MOL0     C11192   9.891  12.498   5.927 -0.4560  0.1750 -0.1855
  843MOL0     C11193   9.840  12.377   5.873  0.3564 -0.0536 -0.1788
  843MOL0     N11194   9.988  11.862   5.758  0.4311  0.0970 -0.1223
  843MOL0     N11195  10.026  11.740   5.770 -0.9712  1.0395 -0.6372
  843MOL0     C11196   9.860  10.535   5.765 -1.1550 -0.2161  0.1326
  843MOL0     C11197   9.810  10.406   5.759 -0.3422  0.6679 -0.4082
  843MOL0     C11198   9.512  10.072   5.645  1.1960  0.1572 -0.0994
  843MOL0     C11199   9.403  10.013   5.579  0.1388  0.2598 -0.2026
  843MOL0     C11200   9.351   9.888   5.616 -0.5222  0.0687 -1.0048
  843MOL0     C11201   9.395   9.819   5.722 -0.4126 -0.3862 -1.4408
  843MOL0     O11202   9.351   9.701   5.777  0.3637 -0.2119  0.0032
  843MOL0     C11203   9.237   9.708   5.868  0.0124  0.0375 -0.1291
  843MOL0     C11204   9.112   9.706   5.780  0.2042 -0.7320  0.2406
  843MOL0     C11205   9.059   9.567   5.769  0.7384  0.0544 -0.7824
  843MOL0     C11206   8.930   9.576   5.684  0.6556 -0.6880 -0.1446
  843MOL0     C11207   8.837   9.467   5.717  0.6485 -0.0969 -0.1567
  843MOL0     C11208   8.749   9.385   5.735  0.9404  0.0226 -0.9416
  843MOL0     C11209   9.509   9.873   5.794  0.3854  0.2172 -0.8959
  843MOL0     C11210   9.555  10.002   5.760 -0.3536 -0.1390 -0.1634
  843MOL0     H11211   9.531  10.482   5.582  0.8739  2.7092 -0.7612
  843MOL0     H11212   9.607  10.711   5.637 -0.2479 -0.6807 -0.7242
  843MOL0     H11213  10.027  10.759   5.782  0.6083 -0.5207  1.0192
  843MOL0     H11214   9.923  10.736   5.918 -3.4096  1.9917  1.0983
  843MOL0     H11215   9.933  10.934   5.976 -0.0702  0.4460  0.9564
  843MOL0     H11216   9.845  10.997   5.838  0.1499 -0.4396 -2.9181
  843MOL0     H11217  10.024  11.070   5.722 -2.2120 -0.7267  0.4983
  843MOL0     H11218  10.143  10.989   5.826 -0.4688 -0.3459 -2.6819
  843MOL0     H11219   9.942  11.180   5.928 -1.3933 -3.3450  6.5208
  843MOL0     H11220  10.080  11.124   6.022 -1.6963  0.9178  0.5903
  843MOL0     H11221  10.151  11.302   5.790  2.9082  2.3743  0.3265
  843MOL0     H11222  10.255  11.224   5.902 -0.0602  1.7542  2.2553
  843MOL0     H11223  10.251  11.377   6.060  0.0488  1.7979 -0.0282
  843MOL0     H11224  10.071  11.365   6.084 -0.2692  2.4208  0.8909
  843MOL0     H11225  10.180  11.590   6.015 -1.0177  0.3201 -0.0888
  843MOL0     H11226  10.185  11.534   5.848  1.0741  0.7778 -0.4273
  843MOL0     H11227   9.923  11.543   6.012 -1.3157  3.5865 -0.6981
  843MOL0     H11228   9.961  11.468   5.854  2.1670 -3.6372  2.3165
  843MOL0     H11229   9.771  11.757   5.977 -0.1449 -1.0325  0.2685
  843MOL0     H11230   9.846  12.071   5.748 -4.7596  1.3494 -2.7747
  843MOL0     H11231   9.797  12.054   5.927 -0.8400 -0.7039  0.4833
  843MOL0     H11232   9.608  11.897   5.791  3.1690 -1.5478 -1.6183
  843MOL0     H11233   9.654  11.993   5.666  1.0786 -0.7614 -1.0640
  843MOL0     H11234   9.461  12.056   5.852 -0.2692  0.8760  0.8543
  843MOL0     H11235   9.586  12.113   5.956  0.8779 -4.5510  1.1106
  843MOL0     H11236   9.498  12.308   5.817  0.4858  2.2518 -2.4157
  843MOL0     H11237   9.498  12.205   5.683 -1.3407 -0.4315  1.2454
  843MOL0     H11238   9.562  12.539   5.742 -1.1749 -1.5573  0.4703
  843MOL0     H11239   9.647  12.721   5.860  1.1494  0.3638  1.4043
  843MOL0     H11240  10.237  12.714   6.162 -1.6079 -0.3147  2.3823
  843MOL0     H11241  10.360  12.887   6.282  0.1589  2.7956  0.8832
  843MOL0     H11242  10.475  13.132   6.328 -0.3344  0.7363 -0.4684
  843MOL0     H11243  10.428  13.008   6.450 -0.2924  1.7948  1.7549
  843MOL0     H11244  10.349  13.186   6.601 -2.6450  3.7674 -2.2670
  843MOL0     H11245  10.390  13.303   6.477  0.2009  0.7145  0.6977
  843MOL0     H11246  10.584  13.116   6.615 -3.3118 -1.0241  1.2881
  843MOL0     H11247  10.553  13.284   6.674  3.5084  1.5804 -0.1862
  843MOL0     H11248  10.690  13.214   6.429 -2.7895 -0.1975 -0.9681
  843MOL0     H11249  10.610  13.375   6.462  1.1443  0.6180 -0.5118
  843MOL0     H11250  10.833  13.248   6.619  1.5023  0.0199  0.0580
  843MOL0     H11251  10.737  13.407   6.645 -0.8601  0.6129 -1.4658
  843MOL0     H11252  10.816  13.503   6.455 -4.1326 -0.6303  1.7305
  843MOL0     H11253  10.887  13.350   6.405 -1.5054 -1.7212  0.0337
  843MOL0     H11254  10.997  13.574   6.544  1.4754  0.5554  0.2107
  843MOL0     H11255  10.985  13.445   6.670 -2.9729 -0.0345  1.1854
  843MOL0     H11256  11.131  13.306   6.503  0.4389  0.4141  3.5910
  843MOL0     H11257  11.218  13.455   6.540 -0.3222  0.0926  0.0540
  843MOL0     H11258  10.008  13.141   6.281  1.4360  2.1493 -0.5552
  843MOL0     H11259   9.891  12.978   6.155  1.3907  2.9578 -1.6491
  843MOL0     H11260   9.990  12.494   5.970 -1.5335 -3.2828  2.4348
  843MOL0     H11261   9.897  12.285   5.878  0.2633 -0.0572  1.0899
  843MOL0     H11262   9.963  10.549   5.796 -1.5941 -2.6905  3.3492
  843MOL0     H11263   9.869  10.318   5.780  2.6439  2.6918  0.3442
  843MOL0     H11264   9.383  10.064   5.485  1.6261 -0.5896 -1.0222
  843MOL0     H11265   9.268   9.834   5.572 -2.0422  1.1308  0.4068
  843MOL0     H11266   9.232   9.796   5.932  2.5485 -0.6299  1.1126
  843MOL0     H11267   9.237   9.625   5.940  0.6838  1.1740  1.2252
  843MOL0     H11268   9.037   9.761   5.839 -0.8775 -1.9682  0.0685
  843MOL0     H11269   9.131   9.747   5.681  0.3356 -0.7577  0.2554
  843MOL0     H11270   9.031   9.542   5.872  2.4257  3.0115  0.5284
  843MOL0     H11271   9.141   9.501   5.741  1.6391 -0.1127  1.9871
  843MOL0     H11272   8.876   9.670   5.698  1.2708 -0.1485 -1.2851
  843MOL0     H11273   8.957   9.580   5.578  2.6126  0.4195  0.3425
  843MOL0     H11274   8.662   9.325   5.756  1.0341  1.0303  3.2054
  843MOL0     H11275   9.553   9.816   5.876 -0.9251  0.9520  0.3605
  843MOL0     H11276   9.636  10.027   5.828  0.7323  0.1184 -1.5156
  844MOL0     O11277   7.356   8.669   6.438 -0.8366  0.3977 -0.0276
  844MOL0     C11278   7.285   8.757   6.388 -0.7103  0.0417  0.8451
  844MOL0     O11279   7.312   8.815   6.263  0.1200  0.0198 -1.1473
  844MOL0     C11280   7.425   8.786   6.188 -1.0782  0.3033 -0.4060
  844MOL0     C11281   7.481   8.895   6.115 -0.3861  0.5974  0.1861
  844MOL0     C11282   7.601   8.878   6.041 -0.7400 -0.2481  0.7209
  844MOL0     C11283   7.658   8.751   6.018 -0.0677  0.1606  0.4281
  844MOL0     O11284   7.769   8.725   5.946 -0.1294 -0.5319  0.2671
  844MOL0     C11285   7.897   8.717   6.009 -0.1067  0.6448 -0.1552
  844MOL0     C11286   7.999   8.816   5.959 -0.6403 -0.5523 -0.2459
  844MOL0     C11287   8.123   8.814   6.046  0.3089  0.2730  0.3216
  844MOL0     C11288   8.248   8.888   5.986  0.0344  0.3584 -0.8577
  844MOL0     C11289   8.356   8.920   6.090 -0.1846 -0.1843  0.1742
  844MOL0     C11290   8.473   8.999   6.033 -0.5863  0.0587  0.6683
  844MOL0     C11291   8.560   9.051   6.152 -1.0187  0.1209  0.3383
  844MOL0     C11292   8.706   9.109   6.108 -0.3518 -0.2456 -0.2653
  844MOL0     N11293   8.781   9.173   6.219 -0.2208  0.0054  0.0819
  844MOL0     C11294   8.902   9.211   6.203  0.4428 -0.5221 -0.4950
  844MOL0     C11295   8.938   9.264   6.321 -0.7479  0.8934 -0.2874
  844MOL0     C11296   9.063   9.339   6.356 -0.4637  0.3588 -0.0977
  844MOL0     C11297   9.192   9.255   6.319  0.8826 -0.7214  0.3650
  844MOL0     C11298   9.321   9.313   6.379 -0.6028 -0.9641  0.3726
  844MOL0     C11299   9.435   9.217   6.348  0.1446  0.0393 -0.3250
  844MOL0     O11300   9.396   9.085   6.405  0.3787  0.7105  0.5202
  844MOL0     C11301   9.436   9.068   6.535 -0.3996 -0.3412 -0.6384
  844MOL0     C11302   9.559   9.101   6.595 -0.3573  0.5505  0.1820
  844MOL0     C11303   9.582   9.080   6.731 -0.4560 -0.2688  0.4584
  844MOL0     C11304   9.488   9.014   6.812  1.3536 -1.2552  0.0493
  844MOL0     C11305   9.518   8.986   6.948  0.8733  0.2013 -0.9246
  844MOL0     O11306   9.418   8.919   7.006 -0.0052 -0.2613  0.1550
  844MOL0     C11307   9.405   8.918   7.144 -0.5422 -0.0858  0.1299
  844MOL0     C11308   9.278   8.958   7.192  0.3618 -0.1345 -0.4636
  844MOL0     C11309   9.248   8.956   7.330 -0.3511 -0.3948 -0.3555
  844MOL0     C11310   9.347   8.917   7.421 -0.6978 -0.0571  0.3701
  844MOL0     O11311   9.319   8.910   7.549 -0.5777  0.3996 -1.0386
  844MOL0     C11312   9.217   8.992   7.608  0.4864 -0.3229 -0.5366
  844MOL0     C11313   9.238   8.975   7.761  0.0318  0.0659 -0.7433
  844MOL0     C11314   9.160   8.856   7.824  0.0909 -0.2849  1.2145
  844MOL0     C11315   9.182   8.841   7.975  0.4877 -0.5211 -0.4251
  844MOL0     C11316   9.316   8.789   8.027  0.5940 -0.1726 -0.7331
  844MOL0     C11317   9.349   8.647   7.984 -0.4766  0.0575  0.2472
  844MOL0     C11318   9.465   8.585   8.065 -0.2110  0.6409 -0.0331
  844MOL0     C11319   9.520   8.458   7.992 -0.0265  0.8085  0.0700
  844MOL0    Cl11320   9.388   8.352   7.973 -0.0007 -0.0842 -0.6050
  844MOL0     C11321   9.472   8.874   7.376  0.6298 -0.6927  0.8999
  844MOL0     C11322   9.508   8.889   7.245 -0.2676 -0.5233  0.0691
  844MOL0     O11323   9.633   8.999   6.996 -0.4320  0.2129 -0.2911
  844MOL0     C11324   9.366   8.982   6.753 -0.3186  1.6283 -0.5498
  844MOL0     C11325   9.339   9.004   6.618  0.1349  0.4267  0.0351
  844MOL0     N11326   8.830   9.253   6.412  0.0746  0.3227  0.0456
  844MOL0     N11327   8.739   9.202   6.342 -0.2872  0.7706  0.6587
  844MOL0     C11328   7.598   8.644   6.083  0.8281  0.2020 -0.5167
  844MOL0     C11329   7.486   8.657   6.170  0.9177  1.0751  0.2867
  844MOL0     C11330   7.174   8.800   6.466 -0.4641  0.2488  1.2736
  844MOL0     C11331   7.056   8.839   6.404  0.2673  0.5469  0.0502
  844MOL0     C11332   6.936   8.861   6.471 -0.2981  1.2936 -0.1677
  844MOL0     C11333   6.936   8.850   6.615  0.1818 -0.0510  0.0827
  844MOL0     O11334   6.827   8.851   6.703 -0.5502  0.2433 -0.5781
  844MOL0     C11335   6.715   8.925   6.665  0.1901 -0.7289 -0.1119
  844MOL0     C11336   6.738   9.079   6.686  0.3539  0.0306  0.2744
  844MOL0     C11337   6.792   9.103   6.831  0.5514  0.8336 -0.1977
  844MOL0     C11338   6.782   9.250   6.869 -1.1722  0.3272  0.2545
  844MOL0     C11339   6.651   9.286   6.903  0.3270  0.3962 -0.1946
  844MOL0     C11340   6.543   9.317   6.935  0.4735  0.8515 -0.3466
  844MOL0     C11341   7.062   8.825   6.679  0.6004  0.9990  0.8844
  844MOL0     C11342   7.175   8.796   6.610 -0.2779 -0.5485 -0.6669
  844MOL0     H11343   7.432   8.991   6.124 -0.7908  0.3689  0.4636
  844MOL0     H11344   7.650   8.966   5.999  2.3274 -0.7521  2.8942
  844MOL0     H11345   7.936   8.617   5.990  0.1870  0.5702  0.7578
  844MOL0     H11346   7.878   8.722   6.117  2.7204 -1.4726  0.5581
  844MOL0     H11347   7.954   8.915   5.945  1.4436  0.1043 -3.5486
  844MOL0     H11348   8.028   8.790   5.857 -1.7543  0.0265 -0.7185
  844MOL0     H11349   8.169   8.716   6.062 -0.0390  0.3387  1.8276
  844MOL0     H11350   8.103   8.861   6.142  0.8077  1.2329 -0.0286
  844MOL0     H11351   8.287   8.803   5.929  0.9108 -2.3366  3.3189
  844MOL0     H11352   8.224   8.981   5.935 -0.9287 -0.1323 -1.3199
  844MOL0     H11353   8.380   8.831   6.147 -2.2860 -0.3695  0.8616
  844MOL0     H11354   8.310   8.979   6.170 -1.0863  2.0211 -1.8200
  844MOL0     H11355   8.435   9.075   5.964 -1.3806 -1.6191 -0.7875
  844MOL0     H11356   8.543   8.943   5.970  0.0194  0.8851  0.5794
  844MOL0     H11357   8.506   9.133   6.201 -0.1416 -0.5011  2.4616
  844MOL0     H11358   8.573   8.966   6.220  4.0304  0.0145 -0.3605
  844MOL0     H11359   8.686   9.183   6.030  3.4518  0.3511 -0.8598
  844MOL0     H11360   8.755   9.022   6.063 -0.2659  1.3078 -3.4687
  844MOL0     H11361   8.970   9.190   6.121  0.9257 -0.4823 -0.1086
  844MOL0     H11362   9.075   9.348   6.465 -2.6477 -0.7615  0.2887
  844MOL0     H11363   9.079   9.431   6.299  2.5697  0.2365  0.3637
  844MOL0     H11364   9.191   9.247   6.209 -0.7946  0.1462  0.2741
  844MOL0     H11365   9.166   9.155   6.355 -2.6659 -0.4735 -1.0915
  844MOL0     H11366   9.347   9.409   6.333 -0.1814 -0.4961  1.5606
  844MOL0     H11367   9.318   9.320   6.488 -1.0992 -0.8077  0.3503
  844MOL0     H11368   9.522   9.264   6.394  0.1650  1.5195 -1.7737
  844MOL0     H11369   9.454   9.202   6.241  0.3972 -1.4836 -0.0895
  844MOL0     H11370   9.634   9.152   6.535 -0.0874  0.4481  0.4307
  844MOL0     H11371   9.679   9.109   6.771 -0.7732  0.2277  0.8758
  844MOL0     H11372   9.192   8.973   7.128 -0.9664  0.4748  1.3959
  844MOL0     H11373   9.146   8.965   7.364 -0.5404  0.2366 -1.0740
  844MOL0     H11374   9.120   8.953   7.577 -2.3119  1.8602  4.3663
  844MOL0     H11375   9.226   9.098   7.580  1.6184 -0.8083 -2.1396
  844MOL0     H11376   9.196   9.065   7.806 -1.3706 -0.9736  0.1082
  844MOL0     H11377   9.345   8.960   7.780  0.3985  1.4514 -1.5326
  844MOL0     H11378   9.180   8.767   7.764 -0.1406  0.3116  0.2194
  844MOL0     H11379   9.053   8.873   7.814  0.1355  1.7476  3.2286
  844MOL0     H11380   9.179   8.940   8.021  2.0966 -1.4208  1.8593
  844MOL0     H11381   9.105   8.778   8.021 -1.0715  2.7163  1.7771
  844MOL0     H11382   9.303   8.786   8.135  2.2092 -0.2288 -0.5078
  844MOL0     H11383   9.394   8.859   7.994  0.3734 -0.7193 -2.4892
  844MOL0     H11384   9.379   8.654   7.879  0.1437  1.8659  0.5202
  844MOL0     H11385   9.259   8.584   7.979  0.8344 -1.8030 -1.6921
  844MOL0     H11386   9.549   8.654   8.076  1.3823 -1.4372  1.8115
  844MOL0     H11387   9.431   8.555   8.165  0.0082 -2.5024 -0.8216
  844MOL0     H11388   9.607   8.421   8.047 -0.9573 -0.2334  0.8764
  844MOL0     H11389   9.557   8.492   7.895  3.2553 -0.4803  0.7420
  844MOL0     H11390   9.546   8.852   7.453 -0.7274  1.0064  2.7982
  844MOL0     H11391   9.606   8.857   7.213 -1.4618 -1.3878 -3.0421
  844MOL0     H11392   9.278   8.942   6.804  1.2188 -0.4190  0.6478
  844MOL0     H11393   9.249   8.966   6.572  0.5656 -2.5188  1.4047
  844MOL0     H11394   7.649   8.549   6.064  1.1365 -0.2076  1.9899
  844MOL0     H11395   7.443   8.573   6.224  1.9282 -0.2082 -0.8613
  844MOL0     H11396   7.047   8.847   6.296 -0.4468  2.6125  0.2173
  844MOL0     H11397   6.837   8.864   6.426 -3.0270 -0.6775  4.8758
  844MOL0     H11398   6.633   8.889   6.727  0.7868 -0.7706  0.6826
  844MOL0     H11399   6.696   8.911   6.559  0.3025 -2.2866  0.0538
  844MOL0     H11400   6.805   9.130   6.616 -1.7211  1.4202 -0.8436
  844MOL0     H11401   6.636   9.120   6.683 -0.0669 -1.0209 -0.6735
  844MOL0     H11402   6.897   9.072   6.827 -0.9347 -5.3623 -3.2113
  844MOL0     H11403   6.725   9.048   6.897 -0.8264 -0.6451 -2.7119
  844MOL0     H11404   6.847   9.262   6.956 -1.1990 -3.1908  0.9146
  844MOL0     H11405   6.809   9.311   6.782  0.6037 -2.6380 -1.4593
  844MOL0     H11406   6.444   9.332   6.972  0.2894 -1.2431  0.1475
  844MOL0     H11407   7.071   8.822   6.788  1.3020  1.0490  0.8327
  844MOL0     H11408   7.259   8.757   6.667 -1.6180 -2.2381  0.2240
  845MOL0     O11409   7.808   4.862   6.283  0.6262 -0.3374  0.2898
  845MOL0     C11410   7.846   4.945   6.364  0.1253  0.8438  0.2080
  845MOL0     O11411   7.798   4.958   6.492 -1.1214 -0.0712 -0.9081
  845MOL0     C11412   7.683   4.885   6.515 -0.1312 -0.5321 -0.7164
  845MOL0     C11413   7.670   4.760   6.586 -0.2494  0.0139 -0.1395
  845MOL0     C11414   7.542   4.698   6.611 -0.6895 -0.0822 -0.5961
  845MOL0     C11415   7.422   4.764   6.576 -0.6477 -0.2209  0.3728
  845MOL0     O11416   7.304   4.698   6.601 -0.9332 -0.7078  0.4891
  845MOL0     C11417   7.192   4.734   6.526 -1.2245 -0.3311 -0.6626
  845MOL0     C11418   7.080   4.645   6.570  0.3694  0.2700  0.1362
  845MOL0     C11419   7.095   4.493   6.525  0.3262 -0.0833 -0.5634
  845MOL0     C11420   7.093   4.467   6.374  0.4907 -0.8420 -1.1817
  845MOL0     C11421   7.049   4.321   6.354 -0.9128  0.4412  1.0337
  845MOL0     C11422   6.899   4.306   6.353  0.0337 -0.3938 -0.4063
  845MOL0     C11423   6.848   4.163   6.373 -0.3573  0.2942 -0.2569
  845MOL0     C11424   6.695   4.154   6.355  0.6608  0.5528  0.3683
  845MOL0     N11425   6.634   4.257   6.444  1.0479  0.8946 -0.3557
  845MOL0     C11426   6.650   4.241   6.580 -1.1178  0.4033 -0.2748
  845MOL0     C11427   6.610   4.361   6.626  1.0527  0.3286  0.3737
  845MOL0     C11428   6.620   4.424   6.768  0.0615 -0.2297 -0.7432
  845MOL0     C11429   6.749   4.513   6.789  0.3689 -0.1247 -0.2134
  845MOL0     C11430   6.746   4.575   6.924 -0.0949 -1.0163 -0.2104
  845MOL0     C11431   6.625   4.677   6.947 -0.7795  0.6673  0.4669
  845MOL0     O11432   6.507   4.612   6.996  0.1854  0.1828 -0.0507
  845MOL0     C11433   6.449   4.635   7.117  0.0258 -0.8446  0.6102
  845MOL0     C11434   6.529   4.617   7.234  0.0756 -0.2859  0.2431
  845MOL0     C11435   6.472   4.630   7.363  0.4744 -1.5177 -0.0338
  845MOL0     C11436   6.336   4.657   7.371 -0.5366 -1.0241 -1.1684
  845MOL0     C11437   6.270   4.656   7.507 -0.5893 -0.4100 -0.4919
  845MOL0     O11438   6.150   4.700   7.517  0.2548 -0.0015 -0.8503
  845MOL0     C11439   6.082   4.682   7.625  0.9191 -1.3879 -0.9428
  845MOL0     C11440   6.062   4.801   7.699 -0.8249  1.2136 -1.7741
  845MOL0     C11441   5.999   4.785   7.821  0.9394  0.2595 -0.7407
  845MOL0     C11442   5.943   4.660   7.850  0.7154  0.3607 -0.3530
  845MOL0     O11443   5.888   4.626   7.965  0.4808 -0.5004 -0.6268
  845MOL0     C11444   5.836   4.724   8.058  0.0416 -0.7894 -0.4286
  845MOL0     C11445   5.787   4.655   8.186  0.5456 -0.7799  0.5337
  845MOL0     C11446   5.903   4.600   8.281 -0.2944  1.2552  0.5581
  845MOL0     C11447   5.975   4.470   8.230  0.3425  0.4010 -0.1407
  845MOL0     C11448   6.055   4.390   8.333  0.5944 -0.1362  0.3676
  845MOL0     C11449   6.158   4.487   8.386  0.2973  0.2511 -0.6025
  845MOL0     C11450   6.277   4.418   8.458 -0.4391  0.2487  0.2338
  845MOL0     C11451   6.330   4.487   8.580  0.9249  0.6864 -0.0920
  845MOL0    Cl11452   6.213   4.523   8.714 -0.4091 -0.0714 -0.4164
  845MOL0     C11453   5.961   4.550   7.780 -0.9464 -0.5356  0.7715
  845MOL0     C11454   6.038   4.552   7.667 -0.4292 -0.5482 -0.0285
  845MOL0     O11455   6.340   4.601   7.598  0.0125 -0.5048  0.0994
  845MOL0     C11456   6.260   4.688   7.253  0.1063 -0.5357  0.6176
  845MOL0     C11457   6.317   4.668   7.125  0.1156 -0.0749 -0.2034
  845MOL0     N11458   6.556   4.440   6.521 -0.0519  0.9499 -0.6347
  845MOL0     N11459   6.578   4.378   6.411 -0.5596 -0.1478  0.1316
  845MOL0     C11460   7.436   4.887   6.512  0.2653  0.0216  0.3678
  845MOL0     C11461   7.563   4.944   6.479  0.2785 -0.3641 -0.1593
  845MOL0     C11462   7.936   5.047   6.308  0.7125  0.0526 -0.8559
  845MOL0     C11463   7.983   5.048   6.182  0.3231 -0.5055  0.5426
  845MOL0     C11464   8.078   5.135   6.140 -0.5650  0.6336  1.2154
  845MOL0     C11465   8.138   5.233   6.220 -0.1406  0.5733 -0.5903
  845MOL0     O11466   8.223   5.321   6.160  0.1737  0.8625  1.0609
  845MOL0     C11467   8.319   5.404   6.231  0.2704  0.1531  0.5824
  845MOL0     C11468   8.359   5.506   6.131 -0.7489 -0.3871  0.1599
  845MOL0     C11469   8.464   5.601   6.180  0.3611  0.8318  0.5820
  845MOL0     C11470   8.598   5.515   6.194  0.5609  0.3736 -0.6464
  845MOL0     C11471   8.714   5.602   6.207 -0.0204 -0.3839  1.5594
  845MOL0     C11472   8.823   5.650   6.197  0.0952 -0.7996  0.3158
  845MOL0     C11473   8.079   5.236   6.352 -0.1731 -0.6521 -0.3154
  845MOL0     C11474   7.983   5.146   6.401 -1.0216  0.2700 -0.2727
  845MOL0     H11475   7.764   4.712   6.612 -0.0520  1.1625  1.4218
  845MOL0     H11476   7.539   4.610   6.675 -0.1569  1.1605  1.2278
  845MOL0     H11477   7.214   4.721   6.420  0.3376 -1.2400 -0.2662
  845MOL0     H11478   7.158   4.838   6.533 -0.2993  0.1091 -2.2810
  845MOL0     H11479   6.995   4.686   6.516  0.1680 -1.7285 -1.1629
  845MOL0     H11480   7.058   4.660   6.676 -0.8735 -3.6409  0.5730
  845MOL0     H11481   7.019   4.432   6.574  3.0077 -3.2130  0.0582
  845MOL0     H11482   7.185   4.452   6.572 -0.3177 -0.6110  0.2284
  845MOL0     H11483   7.036   4.543   6.319  0.5424  1.1819  1.3610
  845MOL0     H11484   7.199   4.472   6.348  2.1735  0.7473  4.4207
  845MOL0     H11485   7.094   4.259   6.431 -0.1600 -0.5935 -0.2022
  845MOL0     H11486   7.088   4.285   6.258 -0.0320 -0.9635  1.8939
  845MOL0     H11487   6.863   4.349   6.260  0.4825  0.6140 -0.1276
  845MOL0     H11488   6.863   4.375   6.430  0.0145 -0.9268  0.0765
  845MOL0     H11489   6.891   4.085   6.310 -5.3391 -3.8501  0.8303
  845MOL0     H11490   6.871   4.126   6.474 -0.7963  0.7335  0.0112
  845MOL0     H11491   6.663   4.052   6.378  2.8955  0.0431  1.3783
  845MOL0     H11492   6.664   4.168   6.251 -1.6406 -4.2415  0.1343
  845MOL0     H11493   6.713   4.173   6.637  0.9326  1.3920 -1.2387
  845MOL0     H11494   6.636   4.341   6.838  1.2685  2.1210  1.9545
  845MOL0     H11495   6.528   4.479   6.789  0.1752 -0.1308 -0.4973
  845MOL0     H11496   6.737   4.596   6.719 -2.7014  0.0028  0.3185
  845MOL0     H11497   6.841   4.455   6.772 -0.4949 -1.4813 -0.4236
  845MOL0     H11498   6.741   4.507   7.010  2.2492  0.3188  1.0722
  845MOL0     H11499   6.837   4.632   6.942 -2.4810  2.2835  2.9378
  845MOL0     H11500   6.597   4.725   6.852 -0.6295 -2.5340 -1.3301
  845MOL0     H11501   6.663   4.763   7.003  1.7540 -0.5515  0.7786
  845MOL0     H11502   6.634   4.598   7.215 -0.7518 -2.9111 -2.4774
  845MOL0     H11503   6.529   4.601   7.451  0.9284 -0.7150 -0.0590
  845MOL0     H11504   6.125   4.886   7.674  0.4866  1.5459  1.9451
  845MOL0     H11505   5.984   4.869   7.889 -2.6328 -0.0851 -0.8698
  845MOL0     H11506   5.755   4.776   8.007  0.7509 -0.6026 -1.3894
  845MOL0     H11507   5.908   4.800   8.087 -2.2489  0.4951  2.3944
  845MOL0     H11508   5.713   4.579   8.160 -0.6690  0.4189  0.3898
  845MOL0     H11509   5.739   4.735   8.244  1.0982 -0.4518  0.5497
  845MOL0     H11510   5.853   4.579   8.376  1.3879 -0.5372  1.1039
  845MOL0     H11511   5.984   4.674   8.286  1.5607 -0.6417  0.0436
  845MOL0     H11512   5.904   4.408   8.175  2.2447 -2.0535 -0.0082
  845MOL0     H11513   6.045   4.517   8.160  2.4242  1.0737  2.2630
  845MOL0     H11514   6.114   4.313   8.283  4.1131  2.0158  0.8360
  845MOL0     H11515   5.989   4.346   8.408  2.8241 -2.7664  0.9424
  845MOL0     H11516   6.106   4.553   8.456 -1.5235 -0.1815 -1.4893
  845MOL0     H11517   6.196   4.546   8.302  2.6401 -1.4212 -0.8268
  845MOL0     H11518   6.232   4.320   8.478 -0.7284  0.1019 -1.0559
  845MOL0     H11519   6.367   4.408   8.396  0.2808  2.1741  0.9014
  845MOL0     H11520   6.366   4.589   8.562 -0.4427  1.1482 -0.3516
  845MOL0     H11521   6.409   4.421   8.617 -1.0025  0.5983  4.6457
  845MOL0     H11522   5.936   4.457   7.829  3.7552 -0.9652  2.8897
  845MOL0     H11523   6.060   4.462   7.611 -3.0510  0.4268 -2.9799
  845MOL0     H11524   6.165   4.733   7.275  0.0487  0.1339 -0.8708
  845MOL0     H11525   6.254   4.670   7.037 -1.2335  0.8906  0.7342
  845MOL0     H11526   7.345   4.942   6.489  0.5205  1.5821  2.7259
  845MOL0     H11527   7.572   5.038   6.426 -1.5733 -0.2891 -0.4124
  845MOL0     H11528   7.946   4.969   6.117 -2.2264 -1.8901  3.3975
  845MOL0     H11529   8.114   5.130   6.037  0.0471 -0.8633  1.4770
  845MOL0     H11530   8.402   5.338   6.260  0.6626 -0.5473 -1.8867
  845MOL0     H11531   8.273   5.458   6.314 -1.7218 -1.9381  0.9341
  845MOL0     H11532   8.399   5.443   6.051  1.6670 -1.8868  2.4135
  845MOL0     H11533   8.280   5.577   6.104  0.7378  1.5397  0.5945
  845MOL0     H11534   8.453   5.654   6.275  0.4688 -0.9972  1.6501
  845MOL0     H11535   8.477   5.679   6.104  0.3953  1.0679  0.8250
  845MOL0     H11536   8.601   5.466   6.292 -0.8351 -2.4173 -1.8822
  845MOL0     H11537   8.604   5.446   6.110 -1.9421 -1.2054  0.3548
  845MOL0     H11538   8.917   5.702   6.194 -0.0052 -0.5619  1.0134
  845MOL0     H11539   8.099   5.313   6.425 -1.9607 -0.9722  0.5820
  845MOL0     H11540   7.954   5.156   6.505 -2.2661  2.7534 -0.7691
  846MOL0     O11541   1.233  10.601   3.574 -0.3680  0.1200 -0.4487
  846MOL0     C11542   1.344  10.619   3.616 -0.5834 -0.3198 -0.7278
  846MOL0     O11543   1.449  10.650   3.535  0.3255 -0.5246  0.7458
  846MOL0     C11544   1.438  10.686   3.399  0.6630  0.8423 -0.2110
  846MOL0     C11545   1.338  10.656   3.299  0.3693  0.6121  0.4522
  846MOL0     C11546   1.354  10.702   3.170 -0.1058 -0.4883 -0.1544
  846MOL0     C11547   1.465  10.780   3.130  0.1689 -0.1440  0.2477
  846MOL0     O11548   1.482  10.825   3.001 -0.0952 -0.5943 -0.1391
  846MOL0     C11549   1.369  10.835   2.911 -0.1158 -0.3201 -0.1907
  846MOL0     C11550   1.275  10.949   2.953  0.4761  0.7839 -0.4443
  846MOL0     C11551   1.158  10.971   2.844  0.2938  0.0769 -1.1768
  846MOL0     C11552   1.078  11.101   2.858 -0.1255 -0.8224 -0.1834
  846MOL0     C11553   1.145  11.229   2.795 -0.2253 -0.9638 -0.5950
  846MOL0     C11554   1.181  11.228   2.645  0.6483 -0.3301 -0.3002
  846MOL0     C11555   1.058  11.247   2.561  0.3651  0.0193  1.7073
  846MOL0     C11556   0.965  11.132   2.525 -0.1126  0.7431  0.7751
  846MOL0     N11557   0.892  11.153   2.404  0.0525  0.3460  0.2984
  846MOL0     C11558   0.790  11.241   2.387 -0.3726 -0.4363 -1.1498
  846MOL0     C11559   0.770  11.242   2.254  0.4836 -0.0877  0.5413
  846MOL0     C11560   0.655  11.314   2.184  0.3395  0.5177  0.4121
  846MOL0     C11561   0.575  11.190   2.133  0.9601 -0.6289  0.4430
  846MOL0     C11562   0.458  11.243   2.040  0.9979 -1.1804  0.5384
  846MOL0     C11563   0.351  11.145   1.974 -0.4544  0.5360  0.2868
  846MOL0     O11564   0.265  11.207   1.874 -0.6766  0.0013 -0.2302
  846MOL0     C11565   0.258  11.166   1.744 -0.8985 -0.5958  0.1859
  846MOL0     C11566   0.143  11.177   1.671  1.6607 -0.1637 -0.2913
  846MOL0     C11567   0.140  11.158   1.531  0.7995 -0.3414  0.3930
  846MOL0     C11568   0.257  11.139   1.462 -0.3264 -0.3212  0.6556
  846MOL0     C11569   0.261  11.130   1.314 -0.3231 -0.3738 -0.3675
  846MOL0     O11570   0.158  11.171   1.248 -0.6709 -0.2312  0.0220
  846MOL0     C11571   0.132  11.166   1.111 -0.2953 -0.2624 -0.5402
  846MOL0     C11572   0.163  11.271   1.023  0.1863 -1.4274 -0.0389
  846MOL0     C11573   0.174  11.266   0.887  0.5597  0.6598  0.1247
  846MOL0     C11574   0.140  11.146   0.832  0.7474  0.2007  0.4409
  846MOL0     O11575   0.128  11.121   0.695  0.2258  0.1854 -0.2128
  846MOL0     C11576   0.243  11.162   0.619  0.0303  0.1582  0.2456
  846MOL0     C11577   0.197  11.155   0.466  0.0221 -0.9245  0.2037
  846MOL0     C11578   0.169  11.021   0.414  0.0661 -0.1864 -0.2249
  846MOL0     C11579   0.160  11.012   0.270 -0.7368  0.2568 -0.0921
  846MOL0     C11580   0.178  10.864   0.225  0.3649  0.1500 -0.0411
  846MOL0     C11581   0.093  10.820   0.114 -0.2417  0.6011 -1.0469
  846MOL0     C11582   0.140  10.890  -0.018  0.0810  0.1531  0.2575
  846MOL0     C11583   0.030  10.863  -0.123 -0.6270 -0.4321 -0.5517
  846MOL0    Cl11584  -0.040  10.691  -0.112 -0.1819 -0.3314 -0.0767
  846MOL0     C11585   0.114  11.036   0.914 -0.2931 -1.0755 -0.1843
  846MOL0     C11586   0.108  11.050   1.051  0.5800  0.1803 -0.0333
  846MOL0     O11587   0.358  11.078   1.258 -0.2415 -0.5274 -0.7900
  846MOL0     C11588   0.380  11.122   1.531  1.2287  0.7569  0.2025
  846MOL0     C11589   0.382  11.137   1.673  1.0881  0.1033  0.2320
  846MOL0     N11590   0.866  11.156   2.193 -0.6578 -0.4070 -1.0674
  846MOL0     N11591   0.936  11.099   2.283  0.9626  0.8513 -0.1227
  846MOL0     C11592   1.569  10.800   3.217  0.4186  0.5757  0.2692
  846MOL0     C11593   1.557  10.741   3.351  0.0731 -0.8288  1.5538
  846MOL0     C11594   1.364  10.596   3.762 -1.4026  0.0677  0.3473
  846MOL0     C11595   1.495  10.602   3.815 -0.0068 -0.5793 -0.4219
  846MOL0     C11596   1.529  10.579   3.954  1.3317  0.1288 -0.0890
  846MOL0     C11597   1.421  10.540   4.034 -0.0212  0.5177 -0.3078
  846MOL0     O11598   1.437  10.523   4.169  0.1151  0.0102  0.0123
  846MOL0     C11599   1.566  10.504   4.218 -0.1132 -0.1176 -0.0513
  846MOL0     C11600   1.575  10.449   4.366 -0.2170 -0.2497  0.4775
  846MOL0     C11601   1.489  10.311   4.385  0.3004  0.1053  0.4983
  846MOL0     C11602   1.566  10.226   4.493  0.1618  0.0687 -0.2441
  846MOL0     C11603   1.692  10.165   4.446  0.2638  1.0081  0.7925
  846MOL0     C11604   1.800  10.129   4.398  0.1480  0.4247  1.3565
  846MOL0     C11605   1.289  10.530   3.985 -1.0162  0.9941 -0.4970
  846MOL0     C11606   1.263  10.558   3.853  0.3413  0.9463 -0.9123
  846MOL0     H11607   1.252  10.602   3.337  0.7047  2.0742  3.6374
  846MOL0     H11608   1.268  10.689   3.105 -1.3868 -2.2510  1.7555
  846MOL0     H11609   1.329  10.733   2.911  2.0572 -1.2455  0.7576
  846MOL0     H11610   1.410  10.859   2.812 -0.1793 -2.1988 -0.7109
  846MOL0     H11611   1.336  11.038   2.970 -0.1863  0.9854  1.0442
  846MOL0     H11612   1.222  10.932   3.047 -1.4176  2.2849 -1.1755
  846MOL0     H11613   1.085  10.889   2.852 -2.4751  2.2715 -2.0675
  846MOL0     H11614   1.188  10.961   2.739 -2.5267 -2.6780 -1.8698
  846MOL0     H11615   0.979  11.084   2.815  1.1679 -1.9626 -2.9861
  846MOL0     H11616   1.066  11.116   2.966 -1.0056 -2.5488 -0.0045
  846MOL0     H11617   1.246  11.241   2.836 -0.7071  1.9952 -0.0344
  846MOL0     H11618   1.092  11.322   2.819  4.4987  1.8937  0.1987
  846MOL0     H11619   1.222  11.131   2.618 -3.2787 -2.6111  1.1196
  846MOL0     H11620   1.253  11.306   2.619  0.1832 -0.4638 -2.1202
  846MOL0     H11621   0.997  11.328   2.602  1.1820  1.1384  0.7887
  846MOL0     H11622   1.101  11.285   2.467  0.0327 -0.2675  1.4378
  846MOL0     H11623   0.894  11.114   2.607  1.7698 -0.8620  2.1361
  846MOL0     H11624   1.014  11.035   2.512 -0.7054  0.7158 -1.6515
  846MOL0     H11625   0.740  11.298   2.464  2.6077  0.9658 -0.0894
  846MOL0     H11626   0.688  11.379   2.102  2.1498  2.0978  2.2709
  846MOL0     H11627   0.605  11.363   2.268 -0.8766 -1.0154  0.6164
  846MOL0     H11628   0.522  11.135   2.211 -1.4338 -1.8607 -1.8631
  846MOL0     H11629   0.639  11.125   2.073  0.4162  0.4631 -1.4016
  846MOL0     H11630   0.409  11.324   2.094  2.4502  0.3854 -0.4117
  846MOL0     H11631   0.513  11.288   1.957  1.5099  1.7000  2.3088
  846MOL0     H11632   0.297  11.095   2.055  2.6788 -1.0408  1.5479
  846MOL0     H11633   0.407  11.072   1.916 -1.6042 -2.6004  2.8506
  846MOL0     H11634   0.049  11.203   1.719  2.0637  1.6825 -0.4483
  846MOL0     H11635   0.044  11.183   1.487  0.5914  0.8339  1.4319
  846MOL0     H11636   0.174  11.368   1.071  0.7555 -0.8784 -1.2428
  846MOL0     H11637   0.182  11.355   0.825 -0.8409 -1.0764 -2.7356
  846MOL0     H11638   0.330  11.099   0.637  0.7143  0.4838 -1.7349
  846MOL0     H11639   0.262  11.264   0.655 -3.9274  1.4048 -0.6543
  846MOL0     H11640   0.275  11.207   0.409 -2.3932  1.4189 -1.1486
  846MOL0     H11641   0.104  11.211   0.449  1.4437  1.0434 -1.7431
  846MOL0     H11642   0.072  10.982   0.448 -1.2129  3.6592  1.0010
  846MOL0     H11643   0.252  10.955   0.443  2.0266  2.3417  0.2972
  846MOL0     H11644   0.066  11.058   0.238  0.6737  1.9178 -2.1818
  846MOL0     H11645   0.236  11.078   0.225 -0.9682  1.4100  1.1428
  846MOL0     H11646   0.144  10.800   0.308 -1.4061 -0.0456 -0.8819
  846MOL0     H11647   0.287  10.851   0.233  0.0554 -1.4659  4.1652
  846MOL0     H11648  -0.012  10.835   0.141 -0.9286 -4.5545  0.2383
  846MOL0     H11649   0.113  10.712   0.113  0.7427  0.6571  1.9697
  846MOL0     H11650   0.166  10.996  -0.013 -3.6375  1.1626  0.5254
  846MOL0     H11651   0.236  10.845  -0.045 -0.1732 -0.7674  0.8471
  846MOL0     H11652   0.075  10.876  -0.222 -4.5172  2.8442 -2.1596
  846MOL0     H11653  -0.055  10.932  -0.121  2.0223  3.0637  0.4172
  846MOL0     H11654   0.106  10.942   0.860 -2.2423 -0.5255 -0.9229
  846MOL0     H11655   0.079  10.967   1.115 -2.4049 -1.2666 -2.9470
  846MOL0     H11656   0.473  11.100   1.480  0.0617 -1.4535 -1.1298
  846MOL0     H11657   0.477  11.153   1.723  2.4435 -1.2166 -1.7537
  846MOL0     H11658   1.662  10.853   3.198  2.3882 -1.6054  2.9682
  846MOL0     H11659   1.639  10.741   3.422  2.1387  1.3418 -0.6184
  846MOL0     H11660   1.573  10.624   3.743  0.7025  0.7054  0.6852
  846MOL0     H11661   1.628  10.593   3.995 -0.0609 -0.3376  3.9551
  846MOL0     H11662   1.609  10.605   4.210 -0.0363 -0.2375 -1.4887
  846MOL0     H11663   1.632  10.432   4.170 -0.5723  1.6058 -3.5826
  846MOL0     H11664   1.681  10.445   4.393  0.1531  1.6095 -0.5943
  846MOL0     H11665   1.525  10.517   4.435 -1.9178 -0.7330 -0.2152
  846MOL0     H11666   1.478  10.245   4.299 -3.4215 -0.3343  1.1280
  846MOL0     H11667   1.397  10.342   4.436  0.4718  0.7029  0.4478
  846MOL0     H11668   1.585  10.279   4.586  1.8468 -1.2564  0.2278
  846MOL0     H11669   1.506  10.140   4.525 -1.2029  0.8074 -0.7594
  846MOL0     H11670   1.900  10.110   4.366  0.0146  2.9263 -0.9343
  846MOL0     H11671   1.201  10.516   4.047 -1.7875  1.6023 -1.4200
  846MOL0     H11672   1.162  10.546   3.814  0.7154  0.7460 -1.8342
  847MOL0     O11673   9.174  10.303   4.938 -0.1445  0.5378 -0.2574
  847MOL0     C11674   9.288  10.272   4.980  0.5098 -0.7031 -0.3897
  847MOL0     O11675   9.377  10.353   5.053  0.0020  0.2713 -0.1213
  847MOL0     C11676   9.344  10.475   5.092 -0.3154 -0.7751 -0.5134
  847MOL0     C11677   9.462  10.538   5.142  0.5977 -0.8576  0.1846
  847MOL0     C11678   9.452  10.669   5.191  1.0548  0.4349  0.4136
  847MOL0     C11679   9.337  10.747   5.180  0.6584  0.4275 -1.3256
  847MOL0     O11680   9.338  10.873   5.229 -0.3766  0.0725  0.6945
  847MOL0     C11681   9.306  10.962   5.120  0.0722 -0.8302  0.4668
  847MOL0     C11682   9.313  11.111   5.155 -0.1494 -0.1980 -1.6077
  847MOL0     C11683   9.225  11.193   5.061 -0.9919  0.2708 -0.2336
  847MOL0     C11684   9.278  11.221   4.924 -0.0435 -0.0393  0.4674
  847MOL0     C11685   9.174  11.286   4.828 -0.4257 -0.0149  0.1129
  847MOL0     C11686   9.157  11.427   4.865  0.4200 -1.4165 -0.2118
  847MOL0     C11687   9.079  11.511   4.763 -0.7023 -0.4837  0.1296
  847MOL0     C11688   8.955  11.575   4.802 -0.5437 -0.3785 -0.7548
  847MOL0     N11689   8.846  11.470   4.830  0.0276 -1.0819 -0.0937
  847MOL0     C11690   8.808  11.417   4.947 -0.5980 -0.7313  0.4094
  847MOL0     C11691   8.695  11.335   4.927 -0.6833  0.5943 -0.4647
  847MOL0     C11692   8.615  11.262   5.028  0.1075 -0.4748  0.2627
  847MOL0     C11693   8.687  11.176   5.130 -0.8713  0.1962 -0.1463
  847MOL0     C11694   8.768  11.068   5.060  0.4083  0.2353  0.9577
  847MOL0     C11695   8.846  10.976   5.154 -0.4687 -0.8663  0.4161
  847MOL0     O11696   8.968  11.039   5.204  0.5767  0.7635 -0.5524
  847MOL0     C11697   8.967  11.070   5.338  0.1812 -0.1749 -1.1626
  847MOL0     C11698   9.017  11.199   5.375 -1.0940  0.1588  1.2266
  847MOL0     C11699   9.027  11.239   5.506 -0.6676 -0.8573 -0.5623
  847MOL0     C11700   9.006  11.151   5.608  0.4532 -0.2712 -0.4332
  847MOL0     C11701   9.060  11.166   5.735 -0.9181 -1.1880 -0.1899
  847MOL0     O11702   9.018  11.087   5.842 -0.6817 -0.2649  0.3971
  847MOL0     C11703   9.063  11.111   5.970  0.6279  0.9741 -0.4580
  847MOL0     C11704   9.142  11.022   6.040 -0.2933  0.0579 -0.7624
  847MOL0     C11705   9.171  11.032   6.177 -0.0701 -0.2902  0.2596
  847MOL0     C11706   9.112  11.135   6.250  0.4618 -0.4865 -0.2074
  847MOL0     O11707   9.126  11.140   6.388 -0.4615 -0.2618 -0.5849
  847MOL0     C11708   9.129  11.012   6.462  1.1471 -0.2722 -0.6870
  847MOL0     C11709   9.110  11.051   6.609 -0.2612  0.8531 -0.4072
  847MOL0     C11710   9.170  10.951   6.711 -0.4044  0.0366 -0.4479
  847MOL0     C11711   9.146  10.981   6.852 -0.4420  1.1897 -0.6999
  847MOL0     C11712   9.223  10.891   6.954 -0.2839 -0.9025 -0.5281
  847MOL0     C11713   9.193  10.742   6.953 -1.2281  0.0877  0.4396
  847MOL0     C11714   9.224  10.676   7.088  0.4073 -0.2172 -0.8125
  847MOL0     C11715   9.145  10.547   7.097 -0.7838 -0.0146  0.5076
  847MOL0    Cl11716   8.973  10.588   7.083 -0.1201 -0.0629  0.5433
  847MOL0     C11717   9.039  11.228   6.179  0.9988 -0.7082 -0.3110
  847MOL0     C11718   9.008  11.216   6.049 -0.0214  0.0131  0.2987
  847MOL0     O11719   9.138  11.261   5.748 -0.2494 -0.5820 -0.2876
  847MOL0     C11720   8.947  11.029   5.574  0.1451 -0.2736 -0.6142
  847MOL0     C11721   8.933  10.987   5.444  0.6166  0.1397 -0.0348
  847MOL0     N11722   8.675  11.346   4.790  0.0897  0.7412 -0.3576
  847MOL0     N11723   8.759  11.428   4.735  0.1981  0.5511 -0.3101
  847MOL0     C11724   9.214  10.690   5.132 -0.4507 -0.1054  0.4824
  847MOL0     C11725   9.218  10.551   5.086 -0.2560 -0.3341  0.0467
  847MOL0     C11726   9.352  10.144   4.942  0.4076  0.2307  0.3227
  847MOL0     C11727   9.474  10.077   4.991  0.1221 -0.3268  0.1686
  847MOL0     C11728   9.506   9.952   4.950 -0.8115 -0.8716 -0.4289
  847MOL0     C11729   9.423   9.879   4.865 -0.8291 -0.4455 -0.2635
  847MOL0     O11730   9.467   9.759   4.813  0.0523 -0.7899  0.1005
  847MOL0     C11731   9.506   9.659   4.915  0.1684 -0.6844 -0.3442
  847MOL0     C11732   9.524   9.519   4.852  0.2959  0.6491  0.4098
  847MOL0     C11733   9.555   9.412   4.959  0.9954 -0.5381  0.0846
  847MOL0     C11734   9.625   9.282   4.915 -0.7126  0.0700 -1.0790
  847MOL0     C11735   9.658   9.208   5.033 -0.0231  0.5699  0.2885
  847MOL0     C11736   9.702   9.130   5.115  0.7403 -0.3173  1.2446
  847MOL0     C11737   9.298   9.934   4.824  0.2820 -0.6735  0.5182
  847MOL0     C11738   9.266  10.064   4.867  0.0208 -0.2958  0.3462
  847MOL0     H11739   9.555  10.484   5.154  1.2557  0.6472  2.5285
  847MOL0     H11740   9.544  10.708   5.234  1.5675 -1.3472  0.9983
  847MOL0     H11741   9.212  10.941   5.068  2.1484 -1.1314 -3.5934
  847MOL0     H11742   9.376  10.939   5.039 -3.3723 -2.9753 -2.2022
  847MOL0     H11743   9.417  11.144   5.165 -0.8509  1.4539  1.4830
  847MOL0     H11744   9.274  11.129   5.256 -1.4390 -0.2251 -2.0815
  847MOL0     H11745   9.221  11.296   5.097 -1.8266  0.1192  0.1314
  847MOL0     H11746   9.123  11.154   5.058  0.1670 -2.9738 -1.0699
  847MOL0     H11747   9.369  11.282   4.927 -0.4254  0.5080  2.3235
  847MOL0     H11748   9.307  11.123   4.883 -0.3373 -0.2706  0.7993
  847MOL0     H11749   9.079  11.232   4.829  1.0360 -2.7951  0.1736
  847MOL0     H11750   9.214  11.287   4.726 -1.6284  2.8302 -0.4134
  847MOL0     H11751   9.251  11.480   4.878 -0.6743  0.7380 -0.7404
  847MOL0     H11752   9.104  11.442   4.959  0.2140  2.1449 -0.7934
  847MOL0     H11753   9.145  11.589   4.723 -1.2300 -0.2834 -0.3689
  847MOL0     H11754   9.052  11.443   4.682 -0.7316 -3.3555  2.3659
  847MOL0     H11755   8.917  11.635   4.720 -2.4240 -0.7325 -0.1900
  847MOL0     H11756   8.953  11.644   4.887  0.9561  0.4065 -1.3182
  847MOL0     H11757   8.849  11.429   5.047  1.6928 -3.9041  0.0092
  847MOL0     H11758   8.537  11.199   4.985 -1.1968 -0.6027  2.6441
  847MOL0     H11759   8.574  11.331   5.103 -1.5284 -2.8937  1.7340
  847MOL0     H11760   8.613  11.124   5.192 -0.9944 -2.7471 -2.5102
  847MOL0     H11761   8.753  11.233   5.196 -2.4776 -1.2205  2.9181
  847MOL0     H11762   8.700  11.008   4.999  0.8041 -0.3080  1.0428
  847MOL0     H11763   8.846  11.110   4.995 -1.0050 -0.6049 -1.3608
  847MOL0     H11764   8.879  10.888   5.098 -0.3842 -1.6506  1.6481
  847MOL0     H11765   8.773  10.942   5.228 -2.5478  0.4451 -0.9361
  847MOL0     H11766   9.056  11.251   5.288 -0.8134 -2.6274 -0.4605
  847MOL0     H11767   9.071  11.335   5.531  0.0753 -1.5446  0.8756
  847MOL0     H11768   9.181  10.945   5.974 -1.2690 -1.1251  0.0115
  847MOL0     H11769   9.235  10.953   6.215 -0.6163 -0.3073  1.1736
  847MOL0     H11770   9.225  10.960   6.452  1.4466  0.3827 -1.3297
  847MOL0     H11771   9.040  10.950   6.448 -2.4529  3.1389  4.1311
  847MOL0     H11772   9.003  11.047   6.629  0.2079 -0.0420  2.1954
  847MOL0     H11773   9.151  11.152   6.622  1.7193  0.3039 -1.9236
  847MOL0     H11774   9.276  10.934   6.689 -0.7199  0.4204 -2.4254
  847MOL0     H11775   9.116  10.857   6.702  0.0959 -0.5641  2.0846
  847MOL0     H11776   9.162  11.084   6.886 -2.1904  0.4116  3.0659
  847MOL0     H11777   9.038  10.967   6.864 -0.4436 -0.1892 -2.1005
  847MOL0     H11778   9.201  10.919   7.058  2.1238  1.7832 -0.5990
  847MOL0     H11779   9.328  10.921   6.945 -1.0892  1.3905 -4.2735
  847MOL0     H11780   9.253  10.703   6.870 -0.8468  3.4600 -1.0537
  847MOL0     H11781   9.087  10.737   6.928 -1.1527 -0.9000  0.2977
  847MOL0     H11782   9.332  10.657   7.094  0.8696  2.1646 -0.7218
  847MOL0     H11783   9.206  10.740   7.175 -0.9377 -2.3492  0.5820
  847MOL0     H11784   9.178  10.505   7.192 -1.6119 -3.6914 -0.6735
  847MOL0     H11785   9.175  10.480   7.016  0.9009  0.3640  0.7774
  847MOL0     H11786   8.991  11.310   6.231  1.1432 -0.8206  0.0055
  847MOL0     H11787   8.948  11.291   5.999  3.1420  1.2360 -2.0753
  847MOL0     H11788   8.905  10.959   5.646  1.0850 -1.1856 -0.9150
  847MOL0     H11789   8.896  10.888   5.418  4.9454 -1.8812  0.5801
  847MOL0     H11790   9.125  10.752   5.132 -0.7686 -0.4733 -2.0128
  847MOL0     H11791   9.124  10.520   5.042 -0.2025 -0.6545  0.1546
  847MOL0     H11792   9.529  10.125   5.071  1.8523 -1.2225 -0.4244
  847MOL0     H11793   9.606   9.917   4.974  0.2026  0.1574 -2.7979
  847MOL0     H11794   9.429   9.661   4.993  0.9999  1.5070  0.5155
  847MOL0     H11795   9.599   9.696   4.960 -0.1878 -0.9536  0.6463
  847MOL0     H11796   9.438   9.483   4.794  0.9643  2.0543 -1.5683
  847MOL0     H11797   9.610   9.523   4.784 -0.0020 -0.0419 -0.0210
  847MOL0     H11798   9.462   9.390   5.011 -0.5245 -0.7442 -2.5860
  847MOL0     H11799   9.626   9.468   5.021  1.5690 -0.5669 -0.5366
  847MOL0     H11800   9.557   9.229   4.848 -2.8375  0.7698  0.4487
  847MOL0     H11801   9.718   9.314   4.866  0.8733 -0.0396  1.6299
  847MOL0     H11802   9.730   9.056   5.187 -0.2238 -1.7492  0.2221
  847MOL0     H11803   9.223   9.895   4.757 -1.6816  2.5460  0.6062
  847MOL0     H11804   9.165  10.097   4.842  0.3458 -0.5994 -1.5321
  848MOL0     O11805   6.876   1.920  11.314  0.1316 -1.0200  0.9762
  848MOL0     C11806   6.912   1.828  11.382 -0.6178  0.5827 -0.9510
  848MOL0     O11807   6.829   1.722  11.411 -0.5515  0.5099  0.2019
  848MOL0     C11808   6.705   1.706  11.348  0.1794  0.2130 -0.2191
  848MOL0     C11809   6.696   1.705  11.204  0.3294 -0.6986 -0.1712
  848MOL0     C11810   6.570   1.681  11.149  0.5700  0.6280  0.5280
  848MOL0     C11811   6.451   1.643  11.228 -1.4566 -0.1201  1.1396
  848MOL0     O11812   6.338   1.626  11.152 -0.2526 -0.0334 -0.5053
  848MOL0     C11813   6.276   1.496  11.179  0.2390  0.4104  0.2746
  848MOL0     C11814   6.208   1.442  11.055 -0.5004  0.2000 -0.1771
  848MOL0     C11815   6.301   1.444  10.935  0.2011 -0.5029 -0.5369
  848MOL0     C11816   6.215   1.387  10.826 -0.1527 -0.0892  0.3632
  848MOL0     C11817   6.261   1.411  10.683  0.8456  0.2902 -0.7836
  848MOL0     C11818   6.178   1.338  10.570  0.5324 -0.3065  0.4139
  848MOL0     C11819   6.194   1.416  10.442 -0.5595 -0.6906  0.2875
  848MOL0     C11820   6.291   1.364  10.340  0.1233 -0.2306  0.5981
  848MOL0     N11821   6.236   1.243  10.270 -0.9946 -0.7926 -0.3801
  848MOL0     C11822   6.304   1.177  10.173 -0.7278 -0.3180 -0.4901
  848MOL0     C11823   6.236   1.063  10.161 -0.7947  0.3708  1.4021
  848MOL0     C11824   6.255   0.966  10.051  0.0418  0.0812  0.2353
  848MOL0     C11825   6.301   0.835  10.115  0.0718 -0.0995 -0.3595
  848MOL0     C11826   6.307   0.726  10.005 -0.0195  1.2236 -0.2580
  848MOL0     C11827   6.366   0.601  10.061  0.1983 -0.3440 -0.7862
  848MOL0     O11828   6.387   0.498   9.964 -0.2967  0.0228  0.3116
  848MOL0     C11829   6.446   0.382  10.013  0.6168 -0.1014  1.2403
  848MOL0     C11830   6.514   0.301   9.915  0.5216  0.6107 -0.6753
  848MOL0     C11831   6.583   0.182   9.964 -0.0006 -0.1877  0.7010
  848MOL0     C11832   6.609   0.161  10.102  1.1531  0.2291 -0.1467
  848MOL0     C11833   6.710   0.059  10.156  0.2488 -1.6096 -0.9721
  848MOL0     O11834   6.768  -0.030  10.074 -0.6688  0.3792  0.6207
  848MOL0     C11835   6.886  -0.090  10.112 -0.0110  0.9604  0.1182
  848MOL0     C11836   6.997  -0.080  10.038 -0.1769 -0.1395 -0.4933
  848MOL0     C11837   7.112  -0.149  10.077  0.0832  0.1749 -0.2130
  848MOL0     C11838   7.116  -0.223  10.193  0.1181  0.5529 -0.3307
  848MOL0     O11839   7.228  -0.294  10.237  0.6973  0.1572  0.4365
  848MOL0     C11840   7.362  -0.231  10.227  0.1034  1.5188  1.1436
  848MOL0     C11841   7.456  -0.259  10.343 -0.6279  0.3763  0.0655
  848MOL0     C11842   7.598  -0.233  10.301 -0.3202 -0.4471 -0.8972
  848MOL0     C11843   7.640  -0.095  10.352 -0.4217  0.4389  0.0687
  848MOL0     C11844   7.801  -0.073  10.334  0.2223  0.2708  0.8193
  848MOL0     C11845   7.858  -0.141  10.207  0.3613 -0.4625 -0.2044
  848MOL0     C11846   8.010  -0.122  10.187  0.2509  0.4801 -0.4664
  848MOL0     C11847   8.092  -0.167  10.307  0.2314  0.2003 -0.8293
  848MOL0    Cl11848   8.267  -0.191  10.276 -0.0986 -0.0699 -0.0628
  848MOL0     C11849   6.998  -0.239  10.265  0.9673 -0.0188  0.2661
  848MOL0     C11850   6.891  -0.164  10.228  0.5912 -0.3176 -1.6012
  848MOL0     O11851   6.736   0.070  10.279 -0.3212 -0.6299 -0.1684
  848MOL0     C11852   6.532   0.238  10.193 -0.2509  0.9179  1.1231
  848MOL0     C11853   6.438   0.330  10.143 -0.5045  0.0242 -0.3529
  848MOL0     N11854   6.151   1.048  10.268 -0.4609  0.2403  0.1474
  848MOL0     N11855   6.158   1.155  10.338  0.0471  0.2033  0.1379
  848MOL0     C11856   6.460   1.651  11.367 -0.1493 -0.2704  0.4793
  848MOL0     C11857   6.588   1.685  11.424 -1.3431 -0.4547 -0.9434
  848MOL0     C11858   7.060   1.831  11.428  0.7291  0.2207  0.3815
  848MOL0     C11859   7.109   1.763  11.545 -0.1949  1.3070 -0.6816
  848MOL0     C11860   7.244   1.760  11.577  0.6355  0.4074  0.2918
  848MOL0     C11861   7.344   1.825  11.507  0.2004  0.0670  1.1161
  848MOL0     O11862   7.476   1.828  11.536  0.1553  0.3149 -0.0854
  848MOL0     C11863   7.548   1.947  11.496 -0.5667  0.1737 -0.5845
  848MOL0     C11864   7.684   1.937  11.564  1.1311 -0.4798  0.1317
  848MOL0     C11865   7.682   1.974  11.713  0.3592  0.3095  0.5791
  848MOL0     C11866   7.828   1.974  11.755 -0.2336  0.1062 -0.1203
  848MOL0     C11867   7.862   2.069  11.862 -0.0804 -0.4348  0.0989
  848MOL0     C11868   7.879   2.140  11.950 -0.7360  0.8432  0.4502
  848MOL0     C11869   7.298   1.891  11.390 -0.1893  0.0442  0.5573
  848MOL0     C11870   7.162   1.897  11.349 -0.3678  0.5922 -0.7078
  848MOL0     H11871   6.775   1.735  11.136 -0.4407  0.9287 -0.4032
  848MOL0     H11872   6.567   1.681  11.041  1.6390 -0.2109  0.4715
  848MOL0     H11873   6.195   1.503  11.253 -0.2988 -1.8077 -0.0315
  848MOL0     H11874   6.350   1.423  11.214  0.7341  1.3510  1.2181
  848MOL0     H11875   6.116   1.498  11.040 -0.1774  0.3229 -1.8857
  848MOL0     H11876   6.181   1.336  11.062  3.0491 -0.9051 -0.8773
  848MOL0     H11877   6.389   1.386  10.966  0.8321  2.3788  3.9393
  848MOL0     H11878   6.334   1.545  10.911  1.9149 -0.3064  2.1631
  848MOL0     H11879   6.201   1.279  10.835  0.9748 -0.5151 -2.1321
  848MOL0     H11880   6.118   1.438  10.827  1.2588  2.8688 -0.4502
  848MOL0     H11881   6.362   1.369  10.681  1.2543  1.1550  0.6271
  848MOL0     H11882   6.269   1.518  10.661 -0.7125  0.4773 -0.5752
  848MOL0     H11883   6.075   1.326  10.606 -0.5261 -0.4502 -2.3944
  848MOL0     H11884   6.220   1.237  10.567 -0.3912 -0.7443  1.2489
  848MOL0     H11885   6.104   1.422  10.380  0.0255 -1.6847 -0.6901
  848MOL0     H11886   6.195   1.522  10.465 -3.2234 -0.7550  1.0614
  848MOL0     H11887   6.376   1.331  10.400 -1.0662 -0.4412  2.2558
  848MOL0     H11888   6.311   1.444  10.268  1.6364 -1.7312 -0.7346
  848MOL0     H11889   6.381   1.224  10.113  0.8118  1.7115  2.8494
  848MOL0     H11890   6.330   0.988   9.975  2.6890 -1.2844  2.2785
  848MOL0     H11891   6.156   0.937  10.013 -0.5438 -0.8469  2.2888
  848MOL0     H11892   6.223   0.821  10.191  1.2461  2.9126  1.6014
  848MOL0     H11893   6.397   0.858  10.162  0.1677  0.9322 -1.0215
  848MOL0     H11894   6.210   0.710   9.959  0.6076  1.5138 -1.7584
  848MOL0     H11895   6.378   0.758   9.928  0.2418  0.1329 -0.4815
  848MOL0     H11896   6.303   0.556  10.138  0.0562  1.5382  0.2650
  848MOL0     H11897   6.456   0.623  10.118 -0.6546 -4.4268  2.6174
  848MOL0     H11898   6.492   0.300   9.809 -0.2283 -0.2183 -0.5276
  848MOL0     H11899   6.631   0.117   9.892 -0.9240 -0.6275  0.4727
  848MOL0     H11900   6.991  -0.022   9.947 -0.5973  0.6179  0.0086
  848MOL0     H11901   7.207  -0.152  10.023 -0.0167  2.7821 -0.6655
  848MOL0     H11902   7.364  -0.126  10.198  0.8365  1.1837 -0.1441
  848MOL0     H11903   7.390  -0.265  10.126 -0.7022  2.3493  0.6293
  848MOL0     H11904   7.459  -0.367  10.361  1.3690  0.6742  1.8442
  848MOL0     H11905   7.426  -0.221  10.441  0.4635 -2.3883  1.6039
  848MOL0     H11906   7.617  -0.249  10.194  1.7713  0.0554 -0.6393
  848MOL0     H11907   7.653  -0.312  10.353  0.3994  2.5930  3.5404
  848MOL0     H11908   7.582  -0.016  10.305 -2.7157 -0.3375  1.4222
  848MOL0     H11909   7.615  -0.085  10.458  1.2719  1.2786  0.4258
  848MOL0     H11910   7.860  -0.099  10.422 -0.7986  1.3989  1.8925
  848MOL0     H11911   7.813   0.035  10.323 -0.0394  0.4701  2.2829
  848MOL0     H11912   7.803  -0.114  10.116  2.2367 -0.0928 -1.2718
  848MOL0     H11913   7.830  -0.246  10.207 -1.1464 -0.0947  0.4586
  848MOL0     H11914   8.033  -0.186  10.102  1.3756 -2.3734  1.8364
  848MOL0     H11915   8.044  -0.020  10.166  1.4640 -0.3230 -2.7540
  848MOL0     H11916   8.045  -0.261  10.337 -0.5422  0.1755 -2.0616
  848MOL0     H11917   8.075  -0.096  10.389  1.1017  0.7696 -1.1324
  848MOL0     H11918   7.021  -0.301  10.352 -1.3533 -1.2267  0.0870
  848MOL0     H11919   6.811  -0.167  10.301  0.2468 -0.8365 -1.9938
  848MOL0     H11920   6.541   0.222  10.300 -1.3009  1.1210  1.2542
  848MOL0     H11921   6.373   0.377  10.216  0.8560  1.4596  0.0080
  848MOL0     H11922   6.364   1.649  11.416 -1.8843  0.9218 -2.5850
  848MOL0     H11923   6.589   1.690  11.533  0.5375  0.3862 -0.9781
  848MOL0     H11924   7.047   1.704  11.612 -0.1899  4.8336  2.8218
  848MOL0     H11925   7.281   1.694  11.654  2.2642 -3.5202 -3.4246
  848MOL0     H11926   7.490   2.037  11.517 -1.3538 -0.8338  2.0396
  848MOL0     H11927   7.560   1.942  11.388  2.5421  0.4567 -0.3513
  848MOL0     H11928   7.720   1.838  11.537 -1.3601 -0.8988 -2.0714
  848MOL0     H11929   7.755   2.007  11.518  3.7189 -1.5610  2.2258
  848MOL0     H11930   7.603   1.915  11.761 -2.7820  3.4545 -0.3072
  848MOL0     H11931   7.640   2.074  11.723 -2.4181 -0.7362  0.4766
  848MOL0     H11932   7.855   1.877  11.798  0.3237  1.0043  1.6620
  848MOL0     H11933   7.885   1.990  11.663  1.2770 -1.8981  0.3930
  848MOL0     H11934   7.894   2.190  12.044 -0.2849  2.0347 -0.2216
  848MOL0     H11935   7.370   1.936  11.323  1.4189 -2.5493  0.4161
  848MOL0     H11936   7.146   1.943  11.253  0.8279 -0.1681 -1.2986
  849MOL0     O11937   4.063   5.331   1.148 -0.1493  0.0913  0.1097
  849MOL0     C11938   4.067   5.403   1.257 -0.2910 -0.4317 -0.0830
  849MOL0     O11939   3.976   5.393   1.371 -0.6598 -0.0357  0.6067
  849MOL0     C11940   3.852   5.341   1.342 -0.1443  0.0195  0.1810
  849MOL0     C11941   3.808   5.241   1.427  0.8921  0.3830  0.2621
  849MOL0     C11942   3.679   5.182   1.412 -0.0467  0.6641 -1.0477
  849MOL0     C11943   3.596   5.223   1.304 -0.4524 -0.4706  0.3012
  849MOL0     O11944   3.480   5.153   1.279  0.1214  0.5058 -0.4398
  849MOL0     C11945   3.461   5.097   1.146  0.1525  0.9835 -0.1739
  849MOL0     C11946   3.398   4.960   1.197  0.0782  0.9724 -1.2179
  849MOL0     C11947   3.327   4.886   1.085  0.5110  0.2774 -0.1973
  849MOL0     C11948   3.268   4.749   1.143 -0.2968  0.3032  0.5662
  849MOL0     C11949   3.363   4.641   1.176  0.4881  0.2461 -0.3948
  849MOL0     C11950   3.295   4.507   1.186 -0.2528 -0.0998  0.0052
  849MOL0     C11951   3.389   4.394   1.171  0.3412 -0.3480 -0.3250
  849MOL0     C11952   3.456   4.360   1.310  0.2110  0.2994  0.5817
  849MOL0     N11953   3.538   4.235   1.309  0.4105 -0.0221  0.3364
  849MOL0     C11954   3.574   4.174   1.195 -0.2301 -0.1975 -0.2784
  849MOL0     C11955   3.614   4.051   1.235 -0.2420  0.0141 -0.1533
  849MOL0     C11956   3.666   3.951   1.140 -0.2163 -0.6986 -0.2638
  849MOL0     C11957   3.703   3.812   1.201  0.8603  0.2347 -0.7872
  849MOL0     C11958   3.723   3.699   1.099 -0.1298  0.8271 -0.2772
  849MOL0     C11959   3.595   3.611   1.093  0.3804  0.2142  0.9885
  849MOL0     O11960   3.561   3.543   1.213  0.1619 -0.3955 -0.0904
  849MOL0     C11961   3.442   3.471   1.218 -0.1385 -0.5498  0.2078
  849MOL0     C11962   3.377   3.428   1.339 -0.3116 -0.6162 -0.4336
  849MOL0     C11963   3.259   3.354   1.332 -0.3991 -0.8583 -0.5891
  849MOL0     C11964   3.200   3.320   1.213 -0.7803  0.7267  0.7912
  849MOL0     C11965   3.068   3.254   1.226 -0.4185 -0.2325 -0.7900
  849MOL0     O11966   3.016   3.214   1.343  0.1306  0.3611  0.2303
  849MOL0     C11967   2.887   3.157   1.342  0.7139  0.0990 -0.4843
  849MOL0     C11968   2.857   3.021   1.354 -0.3370 -0.2208 -0.3886
  849MOL0     C11969   2.728   2.961   1.356  0.0709 -0.4335 -0.7906
  849MOL0     C11970   2.620   3.043   1.316 -0.1234  0.0892 -0.9151
  849MOL0     O11971   2.491   3.001   1.301  0.5069  0.3277 -0.3348
  849MOL0     C11972   2.427   2.890   1.365 -0.1786 -0.3164 -0.4120
  849MOL0     C11973   2.347   2.936   1.487  0.0662 -0.1795 -0.2290
  849MOL0     C11974   2.299   2.810   1.565  0.2951  0.6722  0.1860
  849MOL0     C11975   2.237   2.692   1.480 -0.7708 -0.1362 -0.5861
  849MOL0     C11976   2.107   2.723   1.408 -0.7507 -0.1945 -1.2679
  849MOL0     C11977   2.085   2.612   1.311  0.0197 -0.1616 -0.0637
  849MOL0     C11978   1.935   2.619   1.273 -0.4309 -0.1050  0.3474
  849MOL0     C11979   1.874   2.480   1.249  0.0413 -0.0646  0.6310
  849MOL0    Cl11980   1.867   2.407   1.414  0.2047  0.0963  0.2574
  849MOL0     C11981   2.644   3.179   1.289 -0.1057  0.2624 -0.8912
  849MOL0     C11982   2.781   3.232   1.311  0.6940 -1.0120 -1.1054
  849MOL0     O11983   3.007   3.236   1.115 -0.2817  0.2383 -0.2326
  849MOL0     C11984   3.254   3.356   1.097 -0.4385  0.0807  0.3001
  849MOL0     C11985   3.375   3.431   1.096  0.8043  0.3627 -1.0272
  849MOL0     N11986   3.630   4.050   1.374 -0.1000  0.2464 -0.2212
  849MOL0     N11987   3.571   4.155   1.422 -0.9541 -0.6477 -0.4769
  849MOL0     C11988   3.642   5.319   1.220 -1.4224 -0.2676  0.1897
  849MOL0     C11989   3.768   5.377   1.246 -0.2770  0.2857  0.3064
  849MOL0     C11990   4.184   5.498   1.277  0.7635 -0.4917 -0.0972
  849MOL0     C11991   4.193   5.573   1.395 -0.3834  0.8828  0.2130
  849MOL0     C11992   4.298   5.653   1.404 -0.3323 -0.4875  0.1058
  849MOL0     C11993   4.391   5.668   1.294  0.6059 -0.1647 -0.4026
  849MOL0     O11994   4.490   5.757   1.330  0.0893  0.8756 -0.0987
  849MOL0     C11995   4.604   5.777   1.253  0.9348  0.6612 -0.1076
  849MOL0     C11996   4.694   5.865   1.334 -0.0519 -0.7970 -0.2104
  849MOL0     C11997   4.773   5.790   1.438  0.4438  0.9404  0.5216
  849MOL0     C11998   4.889   5.861   1.506 -0.7912  0.2785 -0.1243
  849MOL0     C11999   4.983   5.927   1.404  0.4294  0.0605 -0.0080
  849MOL0     C12000   5.069   5.976   1.333 -0.2612 -0.0827  0.6526
  849MOL0     C12001   4.375   5.611   1.174 -0.0912 -0.4045 -0.2175
  849MOL0     C12002   4.274   5.514   1.173  0.3196  0.4035  0.2210
  849MOL0     H12003   3.883   5.206   1.497  2.5602 -0.2560 -1.7251
  849MOL0     H12004   3.659   5.096   1.474  0.8050 -0.0377 -1.7288
  849MOL0     H12005   3.550   5.071   1.088  1.0308  1.5710  0.8753
  849MOL0     H12006   3.390   5.164   1.097 -1.8846  0.0932  1.3990
  849MOL0     H12007   3.334   4.976   1.284  0.9377 -2.3145  0.1969
  849MOL0     H12008   3.486   4.904   1.230 -1.9852 -2.1615 -0.5774
  849MOL0     H12009   3.408   4.879   1.011  2.8153  0.6809  2.1448
  849MOL0     H12010   3.239   4.938   1.046 -0.2088 -0.5557  0.2702
  849MOL0     H12011   3.217   4.771   1.237  1.2877 -1.8565  2.0288
  849MOL0     H12012   3.201   4.709   1.066  2.5643 -0.0104 -1.9100
  849MOL0     H12013   3.412   4.662   1.271  3.6377 -2.0510 -1.3491
  849MOL0     H12014   3.426   4.635   1.087  1.4842 -1.6524  0.3747
  849MOL0     H12015   3.224   4.492   1.104  1.2282 -2.8028 -0.9111
  849MOL0     H12016   3.234   4.512   1.277  2.9367  0.1582  2.2932
  849MOL0     H12017   3.318   4.315   1.143 -0.3761  0.2433 -0.2030
  849MOL0     H12018   3.461   4.409   1.090  0.0118 -0.1563 -0.5845
  849MOL0     H12019   3.372   4.343   1.377 -0.3017 -1.8605 -0.5118
  849MOL0     H12020   3.522   4.440   1.345  0.4675 -0.3721  1.7051
  849MOL0     H12021   3.560   4.199   1.090  1.0946  0.3065 -0.3495
  849MOL0     H12022   3.748   3.991   1.080  0.5211 -2.6596 -0.6635
  849MOL0     H12023   3.586   3.928   1.068 -0.9698 -3.3593  1.2701
  849MOL0     H12024   3.630   3.779   1.274  2.1056  1.0319  0.8791
  849MOL0     H12025   3.796   3.843   1.251 -0.5431  0.0103  2.1548
  849MOL0     H12026   3.753   3.739   1.001  0.4286  0.6525 -0.1853
  849MOL0     H12027   3.804   3.636   1.139  0.2784  1.7023  0.3023
  849MOL0     H12028   3.613   3.540   1.011 -0.1898 -0.1868  1.2072
  849MOL0     H12029   3.513   3.671   1.052 -0.3816 -1.6334 -0.3655
  849MOL0     H12030   3.410   3.462   1.436  1.0491  1.7075 -1.6337
  849MOL0     H12031   3.210   3.320   1.422 -1.0792 -2.1447 -1.4080
  849MOL0     H12032   2.938   2.953   1.379 -1.2726 -0.6349  1.7628
  849MOL0     H12033   2.714   2.860   1.392 -0.2952  0.4667  1.8559
  849MOL0     H12034   2.501   2.814   1.393 -0.4277 -0.9159 -1.3280
  849MOL0     H12035   2.355   2.844   1.296 -0.1222 -0.8218 -0.1372
  849MOL0     H12036   2.272   3.011   1.459  0.0426  0.8276  2.2607
  849MOL0     H12037   2.421   2.991   1.545  0.2122 -0.8119  0.1844
  849MOL0     H12038   2.223   2.845   1.636 -1.7394  1.2088 -2.1017
  849MOL0     H12039   2.390   2.765   1.605 -0.4992  1.1183  2.6502
  849MOL0     H12040   2.307   2.644   1.411 -1.0528 -1.6045  0.1110
  849MOL0     H12041   2.209   2.608   1.544 -1.5078  0.9013  0.5053
  849MOL0     H12042   2.110   2.816   1.350  3.1949 -0.1573 -1.2228
  849MOL0     H12043   2.025   2.733   1.480  1.3448 -0.7892  1.3686
  849MOL0     H12044   2.094   2.515   1.361 -1.9213 -0.8772 -0.9895
  849MOL0     H12045   2.147   2.611   1.221 -1.5832 -0.1038 -1.2169
  849MOL0     H12046   1.871   2.669   1.346 -1.0811  2.9714 -2.1052
  849MOL0     H12047   1.935   2.678   1.181  0.7632 -1.9800 -0.9182
  849MOL0     H12048   1.932   2.432   1.170 -0.3648  3.5099 -2.0718
  849MOL0     H12049   1.770   2.479   1.216  0.1130 -1.5020  0.3946
  849MOL0     H12050   2.556   3.242   1.280  0.8345  1.3557 -3.0185
  849MOL0     H12051   2.800   3.339   1.308 -0.1604 -0.7779  0.5759
  849MOL0     H12052   3.194   3.319   1.015 -0.4177  1.8408 -0.5475
  849MOL0     H12053   3.420   3.464   1.003  3.2458 -1.9658 -0.8109
  849MOL0     H12054   3.578   5.344   1.136 -1.6501  0.2488  0.5117
  849MOL0     H12055   3.811   5.456   1.186  3.1170  0.5926  2.7967
  849MOL0     H12056   4.116   5.565   1.472 -0.1256 -1.1293  0.3183
  849MOL0     H12057   4.319   5.700   1.500  0.5379 -3.6739  1.6385
  849MOL0     H12058   4.580   5.840   1.166 -2.9022 -0.9598 -0.3914
  849MOL0     H12059   4.643   5.684   1.210  1.4427  1.9018 -2.5628
  849MOL0     H12060   4.761   5.914   1.262  3.1190 -1.1238  2.3259
  849MOL0     H12061   4.637   5.943   1.386 -2.9733  0.4460 -4.6412
  849MOL0     H12062   4.810   5.702   1.386  0.0665  0.5293  0.9369
  849MOL0     H12063   4.702   5.751   1.512  0.7481  1.7298  1.2560
  849MOL0     H12064   4.848   5.942   1.567 -1.1194 -1.0175  1.4583
  849MOL0     H12065   4.942   5.797   1.577 -0.2479 -0.1371 -0.8929
  849MOL0     H12066   5.150   6.015   1.274  1.8178 -0.4417  3.0878
  849MOL0     H12067   4.445   5.626   1.092  1.3803  2.1081  1.3822
  849MOL0     H12068   4.260   5.455   1.083  0.9341  0.4325  0.0991
  850MOL0     O12069   7.316   1.847   7.663 -0.1722 -0.3820  0.3052
  850MOL0     C12070   7.396   1.927   7.721 -0.0975 -0.3570  0.8078
  850MOL0     O12071   7.532   1.938   7.703  0.9818 -0.0196 -0.0442
  850MOL0     C12072   7.616   1.854   7.634 -0.6293  0.2129  1.0456
  850MOL0     C12073   7.758   1.876   7.652  0.4923  0.3254  0.3710
  850MOL0     C12074   7.848   1.795   7.581  0.1052  0.0865 -0.3081
  850MOL0     C12075   7.810   1.691   7.501  0.0880  1.1462  0.5678
  850MOL0     O12076   7.912   1.609   7.458  0.1405  0.3508  0.3449
  850MOL0     C12077   7.913   1.586   7.313 -0.6802  0.1561  0.1435
  850MOL0     C12078   8.055   1.552   7.277  0.2941 -1.2876  0.9196
  850MOL0     C12079   8.058   1.495   7.135 -0.2510  0.3351 -0.1233
  850MOL0     C12080   8.202   1.474   7.092 -0.2690  0.4617  0.8016
  850MOL0     C12081   8.232   1.372   6.971 -0.3016 -0.8964 -0.1139
  850MOL0     C12082   8.348   1.406   6.888  0.7404  0.2067  0.4481
  850MOL0     C12083   8.305   1.517   6.792 -0.2857 -0.3003  0.0390
  850MOL0     C12084   8.427   1.583   6.728  0.3103  0.0614 -0.1186
  850MOL0     N12085   8.377   1.717   6.686  0.1331 -0.0088 -0.4051
  850MOL0     C12086   8.357   1.737   6.553  0.7450 -0.3599  0.3388
  850MOL0     C12087   8.360   1.870   6.533 -0.8078  0.3245 -0.0450
  850MOL0     C12088   8.352   1.950   6.411 -0.0956 -0.2982 -0.4259
  850MOL0     C12089   8.230   1.912   6.337  0.2531  0.4488  0.6140
  850MOL0     C12090   8.243   1.795   6.246 -0.3833 -0.1524 -0.7386
  850MOL0     C12091   8.346   1.803   6.140  0.0570  0.5002 -0.7544
  850MOL0     O12092   8.316   1.923   6.065 -0.2824 -0.0943 -1.0279
  850MOL0     C12093   8.416   2.005   6.025 -0.2030 -0.7929  0.9104
  850MOL0     C12094   8.527   1.962   5.943  0.0148 -1.4016  0.5016
  850MOL0     C12095   8.635   2.051   5.910 -0.4210  0.0408  0.4531
  850MOL0     C12096   8.631   2.183   5.969 -0.8676  0.3146  0.7066
  850MOL0     C12097   8.744   2.277   5.934 -0.4221  0.6031  0.1663
  850MOL0     O12098   8.748   2.390   6.009 -0.9777  0.6076 -0.4074
  850MOL0     C12099   8.848   2.486   5.975 -0.5900  0.7418 -0.2712
  850MOL0     C12100   8.987   2.452   5.951  0.0526 -0.3740  0.6878
  850MOL0     C12101   9.086   2.552   5.921 -0.2639 -0.4590 -0.0052
  850MOL0     C12102   9.042   2.687   5.902 -0.2612  0.1253 -0.7761
  850MOL0     O12103   9.129   2.783   5.871  0.0055 -0.0585 -0.2784
  850MOL0     C12104   9.212   2.820   5.980  0.2436 -0.4459  0.3230
  850MOL0     C12105   9.333   2.898   5.957 -0.8551  0.0096  1.2538
  850MOL0     C12106   9.454   2.826   5.880 -0.1440 -0.3494 -0.1726
  850MOL0     C12107   9.588   2.913   5.875 -0.3835 -0.7398 -0.1465
  850MOL0     C12108   9.695   2.850   5.786  0.8584  0.6301 -0.5241
  850MOL0     C12109   9.805   2.950   5.789  0.9612 -0.3316  0.4509
  850MOL0     C12110   9.917   2.921   5.705  0.3914 -0.8796  0.9858
  850MOL0     C12111  10.024   3.030   5.722 -0.2964 -0.3579  0.1174
  850MOL0    Cl12112  10.188   2.989   5.655 -0.3301 -0.0445  0.5256
  850MOL0     C12113   8.910   2.720   5.942 -0.5061  0.9580 -0.1146
  850MOL0     C12114   8.813   2.622   5.969  0.8991  0.0096 -0.2513
  850MOL0     O12115   8.810   2.253   5.830  0.4951 -0.2965  0.3701
  850MOL0     C12116   8.527   2.221   6.050  0.5042 -0.5632  0.9559
  850MOL0     C12117   8.418   2.135   6.077  0.1883  0.2185 -0.0774
  850MOL0     N12118   8.362   1.930   6.655 -0.1713 -1.1365  0.6441
  850MOL0     N12119   8.384   1.843   6.744 -0.2730 -0.0767 -0.5451
  850MOL0     C12120   7.671   1.659   7.487  0.7265  0.2093  0.1786
  850MOL0     C12121   7.577   1.743   7.551  0.0981 -0.4348 -0.5252
  850MOL0     C12122   7.338   2.023   7.819  0.3980 -0.6385 -0.0108
  850MOL0     C12123   7.199   2.053   7.810  0.6535  0.5861  0.4352
  850MOL0     C12124   7.154   2.149   7.901  0.4022 -0.1105  0.2749
  850MOL0     C12125   7.228   2.228   7.994 -0.0233 -0.5360 -0.0613
  850MOL0     O12126   7.184   2.328   8.076 -0.7170  0.2916  0.0620
  850MOL0     C12127   7.048   2.368   8.077 -0.7587 -0.7968  0.3933
  850MOL0     C12128   7.008   2.403   8.212 -0.6088  0.2217 -0.7458
  850MOL0     C12129   7.029   2.295   8.323 -0.1695  0.3652 -0.4954
  850MOL0     C12130   6.910   2.211   8.323  1.5154  0.8307 -1.1301
  850MOL0     C12131   6.885   2.136   8.454  0.6829 -0.0886  0.4236
  850MOL0     C12132   6.844   2.073   8.548  0.1948  0.0798  0.7273
  850MOL0     C12133   7.366   2.193   7.989  0.0759  0.6568 -0.0311
  850MOL0     C12134   7.419   2.105   7.899 -0.7783 -0.2106 -0.0468
  850MOL0     H12135   7.793   1.963   7.707  1.9749 -0.0503  0.0670
  850MOL0     H12136   7.955   1.815   7.583 -0.1255  2.1062 -2.7644
  850MOL0     H12137   7.874   1.667   7.251 -0.4146  0.1331 -0.0565
  850MOL0     H12138   7.856   1.495   7.294 -0.7976  0.2325  0.1307
  850MOL0     H12139   8.104   1.475   7.337 -1.2997 -2.0213  1.3123
  850MOL0     H12140   8.117   1.643   7.279  1.8161 -2.3153  2.0247
  850MOL0     H12141   7.987   1.536   7.062 -0.1252  0.5014 -0.1507
  850MOL0     H12142   8.023   1.394   7.161  1.1470  0.1507  1.1241
  850MOL0     H12143   8.251   1.570   7.074 -0.3242  1.3483  4.5148
  850MOL0     H12144   8.253   1.433   7.180 -0.0664 -1.2500 -0.0646
  850MOL0     H12145   8.139   1.344   6.922 -1.5386  1.5806  0.6479
  850MOL0     H12146   8.267   1.279   7.018 -2.3899 -2.0344 -0.6850
  850MOL0     H12147   8.371   1.316   6.832  0.9964 -0.4413  1.5691
  850MOL0     H12148   8.423   1.444   6.958  2.2440 -0.7697 -0.5704
  850MOL0     H12149   8.260   1.464   6.708 -1.0698  2.5353 -1.4462
  850MOL0     H12150   8.236   1.590   6.837  1.0648  0.8432  0.3084
  850MOL0     H12151   8.478   1.526   6.650 -1.5112  0.0523 -1.3665
  850MOL0     H12152   8.501   1.599   6.807  0.3893 -1.4560  0.1547
  850MOL0     H12153   8.336   1.654   6.486  0.1136 -0.5415  0.7542
  850MOL0     H12154   8.449   1.951   6.360 -1.8141  1.6512 -4.0122
  850MOL0     H12155   8.353   2.054   6.443  0.0600 -0.2128 -0.7024
  850MOL0     H12156   8.188   1.991   6.274 -3.6386 -2.6553 -1.1001
  850MOL0     H12157   8.146   1.894   6.405 -0.8140  2.8713  0.0639
  850MOL0     H12158   8.264   1.705   6.305 -1.6955 -2.0707 -3.0194
  850MOL0     H12159   8.145   1.771   6.201  0.2221 -0.6133 -1.8541
  850MOL0     H12160   8.344   1.710   6.082 -0.9771 -1.1853  1.8263
  850MOL0     H12161   8.444   1.813   6.187  1.2843 -2.2443 -2.4553
  850MOL0     H12162   8.534   1.857   5.916  1.3544 -1.5401  1.3073
  850MOL0     H12163   8.710   2.003   5.848 -0.1601  1.5576 -0.4371
  850MOL0     H12164   9.014   2.347   5.952  1.1730 -0.1051 -0.3415
  850MOL0     H12165   9.187   2.514   5.910 -0.5590 -1.7140  1.3381
  850MOL0     H12166   9.241   2.725   6.027  1.7562 -0.5144 -0.6944
  850MOL0     H12167   9.156   2.873   6.058  0.8058 -0.8211  0.9996
  850MOL0     H12168   9.370   2.914   6.059 -0.3332  2.2974  0.7448
  850MOL0     H12169   9.316   2.994   5.908  0.6506 -1.5670 -2.7973
  850MOL0     H12170   9.416   2.805   5.779  1.0481 -0.3309 -0.6403
  850MOL0     H12171   9.476   2.728   5.923 -0.3575  0.1041  0.9997
  850MOL0     H12172   9.559   3.010   5.832 -3.0092 -1.7132 -0.7600
  850MOL0     H12173   9.630   2.927   5.975  0.3951 -0.9086 -0.4466
  850MOL0     H12174   9.666   2.835   5.682  0.3597  1.3860 -0.5028
  850MOL0     H12175   9.718   2.758   5.841  1.9509  0.9079 -0.5131
  850MOL0     H12176   9.847   2.946   5.890 -0.0944  0.6822  0.9431
  850MOL0     H12177   9.760   3.048   5.776  2.7319  1.1479  4.1472
  850MOL0     H12178   9.945   2.816   5.720 -1.5667 -1.6347 -0.3213
  850MOL0     H12179   9.881   2.931   5.602  0.5342  1.5945  1.1064
  850MOL0     H12180  10.040   3.065   5.824 -1.5687 -1.1134  0.5987
  850MOL0     H12181   9.985   3.122   5.677 -3.0888 -1.2474  0.5418
  850MOL0     H12182   8.901   2.826   5.962 -1.5832  0.3351  3.5838
  850MOL0     H12183   8.712   2.661   5.980  0.8200  0.1877 -1.4358
  850MOL0     H12184   8.524   2.321   6.091 -1.4949 -0.8107  1.5264
  850MOL0     H12185   8.353   2.154   6.162  1.4436 -3.1439  1.8464
  850MOL0     H12186   7.623   1.580   7.432  3.2930 -3.4506  2.7317
  850MOL0     H12187   7.474   1.722   7.523 -0.0529  0.4303 -0.6376
  850MOL0     H12188   7.119   2.008   7.752  1.4634 -2.6257  1.5523
  850MOL0     H12189   7.046   2.149   7.892  0.5559 -0.1278 -2.4594
  850MOL0     H12190   6.986   2.285   8.044  1.0065 -1.6767 -0.9119
  850MOL0     H12191   7.030   2.446   8.003  0.5568 -1.2454 -0.4310
  850MOL0     H12192   7.071   2.487   8.240 -0.3441 -0.8119  2.0905
  850MOL0     H12193   6.905   2.440   8.215 -0.5757  0.3678 -1.2880
  850MOL0     H12194   7.050   2.347   8.417  2.6046 -0.1175 -0.7618
  850MOL0     H12195   7.119   2.235   8.304  0.9955  1.8739  0.0801
  850MOL0     H12196   6.829   2.284   8.313  0.6403 -0.1020 -1.0251
  850MOL0     H12197   6.893   2.146   8.237 -1.3355 -0.8164  0.5243
  850MOL0     H12198   6.796   2.044   8.639 -1.2214 -1.6790 -0.5045
  850MOL0     H12199   7.431   2.234   8.066  0.4752  0.0479 -0.0396
  850MOL0     H12200   7.527   2.089   7.902 -0.6018  0.9229  0.4043
  851MOL0     O12201   6.053   3.337   7.144  0.4004  0.5999  0.5044
  851MOL0     C12202   6.112   3.242   7.189  0.0923 -0.4798 -0.1841
  851MOL0     O12203   6.150   3.131   7.125  0.4660 -0.0576 -0.7135
  851MOL0     C12204   6.131   3.112   6.993  0.5173  0.5542  0.4994
  851MOL0     C12205   6.108   2.977   6.938  0.0242 -0.8571  0.1327
  851MOL0     C12206   6.086   2.956   6.798 -0.3113 -0.2441 -1.3564
  851MOL0     C12207   6.089   3.054   6.706  0.6283 -1.3742 -0.2144
  851MOL0     O12208   6.065   3.029   6.576  0.2984  0.2139 -0.0591
  851MOL0     C12209   6.114   3.130   6.487  0.7785 -0.3384 -0.0350
  851MOL0     C12210   6.093   3.093   6.343  0.3274  0.3675 -0.8405
  851MOL0     C12211   6.207   3.018   6.276  0.6561  0.5480  0.4243
  851MOL0     C12212   6.217   2.883   6.333 -1.3301  0.5473  0.6700
  851MOL0     C12213   6.352   2.813   6.288  0.0279  0.0616  0.1744
  851MOL0     C12214   6.354   2.666   6.342 -1.2853  0.6776  1.2143
  851MOL0     C12215   6.451   2.577   6.262 -0.5225  0.2473 -0.0431
  851MOL0     C12216   6.592   2.593   6.322  0.1356 -0.2142  0.0414
  851MOL0     N12217   6.695   2.502   6.274  0.4631  0.4545 -0.1809
  851MOL0     C12218   6.696   2.362   6.304 -0.9417 -0.2365  0.3085
  851MOL0     C12219   6.812   2.327   6.253 -0.7948 -0.1846 -1.8478
  851MOL0     C12220   6.873   2.198   6.272 -0.1877  0.2524  0.0908
  851MOL0     C12221   6.944   2.140   6.147  0.0808 -0.0934  0.7778
  851MOL0     C12222   7.092   2.191   6.155  0.4094  0.2971 -0.4691
  851MOL0     C12223   7.171   2.161   6.031  0.5019 -0.1919  0.1688
  851MOL0     O12224   7.298   2.231   6.041  0.2880 -0.0124 -0.6681
  851MOL0     C12225   7.314   2.363   6.000  0.7155 -0.2404 -0.3059
  851MOL0     C12226   7.441   2.404   5.972 -0.2967  0.1424 -0.1717
  851MOL0     C12227   7.472   2.527   5.913  0.3230  0.5343  0.6025
  851MOL0     C12228   7.367   2.620   5.898 -0.8246 -0.0903 -0.7378
  851MOL0     C12229   7.397   2.756   5.844 -0.1620 -0.6341  0.4532
  851MOL0     O12230   7.286   2.840   5.815  0.3459 -0.1266  0.3162
  851MOL0     C12231   7.303   2.952   5.740 -0.2380  0.7410 -0.8022
  851MOL0     C12232   7.390   2.960   5.632  0.1727  0.2046 -1.1893
  851MOL0     C12233   7.408   3.083   5.568 -1.1659 -0.4809  0.7538
  851MOL0     C12234   7.351   3.199   5.629 -0.2901 -0.7588  0.6871
  851MOL0     O12235   7.407   3.322   5.600  0.5179  0.1539  0.3123
  851MOL0     C12236   7.317   3.423   5.541  1.2921  0.8010  0.1199
  851MOL0     C12237   7.392   3.537   5.454 -0.1238  0.2401  0.0458
  851MOL0     C12238   7.381   3.672   5.522  0.0132 -0.6257 -0.4481
  851MOL0     C12239   7.418   3.778   5.411 -1.0387  1.2501 -0.1225
  851MOL0     C12240   7.384   3.920   5.457  0.2881 -0.6984  0.2854
  851MOL0     C12241   7.433   4.029   5.351  0.1887  1.3126  0.1125
  851MOL0     C12242   7.331   4.152   5.348 -0.1264  0.4119 -0.6342
  851MOL0     C12243   7.391   4.261   5.262  0.3822 -0.1426  0.2188
  851MOL0    Cl12244   7.422   4.200   5.103 -0.0907 -0.9611  0.3376
  851MOL0     C12245   7.253   3.191   5.721  0.0087 -0.4233 -0.6447
  851MOL0     C12246   7.234   3.065   5.784 -0.6344  0.2229 -1.1945
  851MOL0     O12247   7.518   2.788   5.834 -0.3219 -0.2706 -0.1507
  851MOL0     C12248   7.231   2.584   5.935  0.0826 -1.0336  0.9532
  851MOL0     C12249   7.209   2.454   5.972  0.5008 -0.6423  0.6207
  851MOL0     N12250   6.881   2.437   6.192 -0.0327  0.9096  0.0890
  851MOL0     N12251   6.809   2.536   6.201  0.0139 -0.1886  0.4330
  851MOL0     C12252   6.116   3.192   6.760  0.4460 -0.9285  0.8509
  851MOL0     C12253   6.140   3.214   6.897  0.2980 -0.3184  1.0524
  851MOL0     C12254   6.143   3.256   7.329 -0.0690 -0.6715  0.3463
  851MOL0     C12255   6.171   3.380   7.387  0.8810  0.7080  0.0428
  851MOL0     C12256   6.229   3.374   7.518  0.3597 -0.2247  0.8953
  851MOL0     C12257   6.260   3.262   7.585 -0.3301 -1.1966 -0.5967
  851MOL0     O12258   6.320   3.293   7.705  0.3418  0.2878  0.3277
  851MOL0     C12259   6.367   3.176   7.772 -0.4042 -0.5555 -0.3372
  851MOL0     C12260   6.434   3.209   7.904  0.5090  1.2283  0.1522
  851MOL0     C12261   6.568   3.275   7.868 -0.5075 -0.6439  0.6511
  851MOL0     C12262   6.646   3.274   8.002 -0.7125  0.5455  0.0037
  851MOL0     C12263   6.786   3.316   7.985 -0.2246  0.1981 -0.0149
  851MOL0     C12264   6.893   3.362   7.954  0.4245  1.1932  0.3142
  851MOL0     C12265   6.234   3.139   7.522 -0.2336  0.4230  0.6511
  851MOL0     C12266   6.164   3.137   7.398 -0.3723  0.3418 -0.2969
  851MOL0     H12267   6.106   2.891   7.004  2.1220 -0.6617  0.5171
  851MOL0     H12268   6.056   2.861   6.754  0.0116  0.0646 -2.2627
  851MOL0     H12269   6.221   3.150   6.498  1.0127 -2.0213  1.2205
  851MOL0     H12270   6.049   3.216   6.509  0.1675 -0.7367 -0.2518
  851MOL0     H12271   6.073   3.190   6.296 -0.8890  0.7235  0.3674
  851MOL0     H12272   6.001   3.035   6.340 -0.1960  0.7467  2.9859
  851MOL0     H12273   6.295   3.081   6.288 -0.0461  1.7976 -0.6344
  851MOL0     H12274   6.176   3.013   6.171  1.0327 -2.4242  0.3955
  851MOL0     H12275   6.210   2.884   6.443 -2.7239  0.2407  0.6127
  851MOL0     H12276   6.136   2.832   6.280 -2.0383  1.1630  1.1332
  851MOL0     H12277   6.442   2.856   6.332 -1.9436  1.3277  3.3948
  851MOL0     H12278   6.360   2.807   6.179  0.0412  1.3765  0.0870
  851MOL0     H12279   6.250   2.632   6.338 -0.7562 -1.0204 -2.6532
  851MOL0     H12280   6.390   2.668   6.445 -1.1806  1.6052  1.1738
  851MOL0     H12281   6.410   2.476   6.257 -2.5887  1.0708 -3.3846
  851MOL0     H12282   6.462   2.603   6.156  1.4762 -1.8670 -0.4231
  851MOL0     H12283   6.579   2.577   6.430  1.6279  1.0637  0.4338
  851MOL0     H12284   6.629   2.695   6.308  1.8352 -0.7964  0.0356
  851MOL0     H12285   6.620   2.303   6.355 -0.0933 -0.2144  1.6279
  851MOL0     H12286   6.808   2.114   6.301  2.2392 -2.2367 -1.1777
  851MOL0     H12287   6.946   2.210   6.353  0.7006 -1.2449 -0.4446
  851MOL0     H12288   6.902   2.181   6.054  1.3634 -0.3877  0.0295
  851MOL0     H12289   6.947   2.032   6.135  1.8057  0.1987 -2.9496
  851MOL0     H12290   7.101   2.295   6.187 -1.3485  0.4311 -0.2768
  851MOL0     H12291   7.149   2.137   6.231  1.9432 -2.0515 -3.0932
  851MOL0     H12292   7.124   2.191   5.937  0.7621 -0.2024  0.0329
  851MOL0     H12293   7.194   2.054   6.024  0.6702 -0.1119 -0.5792
  851MOL0     H12294   7.529   2.342   5.990  0.1635  1.3219  2.0398
  851MOL0     H12295   7.574   2.544   5.880  0.0549  3.8745  1.0658
  851MOL0     H12296   7.434   2.866   5.599  3.0080  0.8962  0.2876
  851MOL0     H12297   7.465   3.097   5.477 -1.9962 -0.2726  0.2558
  851MOL0     H12298   7.250   3.453   5.622 -1.8059 -5.4008  0.4583
  851MOL0     H12299   7.241   3.374   5.478 -1.3142  2.2845  1.9162
  851MOL0     H12300   7.344   3.539   5.356  1.5458  0.5279 -0.8066
  851MOL0     H12301   7.494   3.502   5.436 -0.9829 -2.1916 -0.5252
  851MOL0     H12302   7.450   3.673   5.607  0.2831 -0.4478 -0.6654
  851MOL0     H12303   7.280   3.699   5.553  0.1484 -0.4979 -0.1156
  851MOL0     H12304   7.527   3.770   5.402 -1.3299 -0.9549 -2.9201
  851MOL0     H12305   7.371   3.747   5.318 -0.9849  2.5875 -0.6238
  851MOL0     H12306   7.420   3.952   5.555 -0.6438 -0.0653  0.4299
  851MOL0     H12307   7.275   3.923   5.451  0.2939  2.8976 -0.5292
  851MOL0     H12308   7.456   3.992   5.251  1.6670  3.1413 -0.2751
  851MOL0     H12309   7.526   4.067   5.394  0.9307  1.6923 -1.7288
  851MOL0     H12310   7.233   4.123   5.309 -0.0872 -0.3407 -0.1729
  851MOL0     H12311   7.323   4.183   5.453  1.2351 -3.1206  0.6577
  851MOL0     H12312   7.490   4.284   5.303  0.5930 -1.2443  0.3566
  851MOL0     H12313   7.339   4.357   5.271  0.0624 -0.2125 -0.8569
  851MOL0     H12314   7.199   3.274   5.765 -0.1958 -1.4617  1.1799
  851MOL0     H12315   7.170   3.046   5.870  0.4455 -1.7880 -0.7830
  851MOL0     H12316   7.158   2.663   5.922  0.6803 -0.7152 -0.5868
  851MOL0     H12317   7.107   2.422   5.993  1.4425 -1.8033  4.2928
  851MOL0     H12318   6.125   3.273   6.689 -2.3372 -1.5046 -0.2787
  851MOL0     H12319   6.163   3.317   6.925 -0.9406  0.8370 -1.8605
  851MOL0     H12320   6.153   3.469   7.327 -0.3988  1.3530  1.3000
  851MOL0     H12321   6.264   3.474   7.543 -2.2505  1.2703 -0.8766
  851MOL0     H12322   6.429   3.112   7.710  1.6352  0.7400  0.2482
  851MOL0     H12323   6.283   3.112   7.801  1.3396 -2.5865  0.3883
  851MOL0     H12324   6.371   3.276   7.964 -1.3153  1.1281 -1.5248
  851MOL0     H12325   6.446   3.107   7.940  0.9503  0.4806 -1.9732
  851MOL0     H12326   6.555   3.380   7.841  2.4462  0.1909  2.0978
  851MOL0     H12327   6.613   3.223   7.783 -0.8769  0.4531 -0.2328
  851MOL0     H12328   6.599   3.343   8.074 -1.6651 -1.8024  1.7686
  851MOL0     H12329   6.647   3.178   8.055  2.5320 -1.1675 -2.8288
  851MOL0     H12330   6.991   3.403   7.939  1.7311 -1.9537 -0.5178
  851MOL0     H12331   6.263   3.053   7.582  0.8018 -1.6043 -2.5039
  851MOL0     H12332   6.148   3.045   7.342 -0.5886  1.3063 -1.8979
  852MOL0     O12333   7.249   1.033   6.356  0.1793  0.0374 -0.2872
  852MOL0     C12334   7.160   0.965   6.301 -0.7781  0.0881  0.5844
  852MOL0     O12335   7.185   0.845   6.229  0.1004  0.0817  0.3786
  852MOL0     C12336   7.307   0.810   6.173 -1.2250 -1.0654  0.5584
  852MOL0     C12337   7.408   0.909   6.137  1.1371 -0.3353  0.1039
  852MOL0     C12338   7.533   0.874   6.083  0.0892 -0.7606 -0.0311
  852MOL0     C12339   7.572   0.749   6.083  0.4121  0.0165  0.0437
  852MOL0     O12340   7.692   0.700   6.033  0.9019 -0.0732  0.2420
  852MOL0     C12341   7.758   0.780   5.935 -0.4567 -0.1431  0.9862
  852MOL0     C12342   7.905   0.729   5.901  0.4626 -0.4793  0.3287
  852MOL0     C12343   7.978   0.803   5.783 -0.3125 -1.2065 -0.1004
  852MOL0     C12344   7.999   0.956   5.796 -0.1618 -1.1193  0.1464
  852MOL0     C12345   8.126   0.981   5.713 -0.2108 -0.3371 -0.9223
  852MOL0     C12346   8.156   1.130   5.713  0.0540  0.3589  0.3686
  852MOL0     C12347   8.245   1.159   5.600 -0.3889 -1.1834  0.3274
  852MOL0     C12348   8.188   1.165   5.463 -0.4043 -0.4628  0.3759
  852MOL0     N12349   8.282   1.213   5.359  0.3210 -0.5892  0.4353
  852MOL0     C12350   8.303   1.339   5.332  0.3862 -0.0460 -0.1880
  852MOL0     C12351   8.398   1.348   5.235 -0.2342  0.5217 -0.1405
  852MOL0     C12352   8.468   1.475   5.191  0.7185  1.7595 -0.0259
  852MOL0     C12353   8.615   1.481   5.230  0.2277  0.1310 -0.5758
  852MOL0     C12354   8.654   1.476   5.377  0.2486 -0.0025 -0.1249
  852MOL0     C12355   8.804   1.516   5.394  1.4125  0.4194 -0.1391
  852MOL0     O12356   8.844   1.479   5.525 -0.2559  0.7187 -0.8073
  852MOL0     C12357   8.979   1.479   5.555 -0.5756 -0.1042  0.7163
  852MOL0     C12358   9.022   1.444   5.691 -0.8946  0.7805  0.2524
  852MOL0     C12359   9.156   1.427   5.709  1.3171  0.4333 -0.1197
  852MOL0     C12360   9.252   1.445   5.608  0.4705  0.1814  1.4003
  852MOL0     C12361   9.400   1.432   5.644 -0.5361 -0.0836 -0.0258
  852MOL0     O12362   9.472   1.478   5.549 -0.6946  0.4978 -0.5530
  852MOL0     C12363   9.609   1.484   5.563 -0.2094 -0.8179  0.1531
  852MOL0     C12364   9.683   1.594   5.615  0.1835  0.4247 -0.1564
  852MOL0     C12365   9.818   1.593   5.647  0.6682 -0.3245  0.5633
  852MOL0     C12366   9.896   1.489   5.622  0.3847  0.0610 -0.3489
  852MOL0     O12367  10.032   1.485   5.646  0.3317  0.5090  0.0901
  852MOL0     C12368  10.068   1.413   5.763  1.2352  0.3236 -0.1784
  852MOL0     C12369  10.217   1.380   5.775  0.0498  0.0596  1.0361
  852MOL0     C12370  10.290   1.499   5.839  0.2518 -0.3524 -0.4716
  852MOL0     C12371  10.440   1.517   5.791  0.3674 -0.7462  0.4651
  852MOL0     C12372  10.515   1.633   5.864 -0.1188 -0.0132 -0.1269
  852MOL0     C12373  10.594   1.723   5.765 -0.3169  0.2134 -0.3495
  852MOL0     C12374  10.694   1.643   5.681  0.2202 -0.1742 -1.2781
  852MOL0     C12375  10.772   1.741   5.598 -0.3281  0.8392  0.2528
  852MOL0    Cl12376  10.668   1.778   5.463  0.2430 -0.2217  0.0939
  852MOL0     C12377   9.830   1.380   5.566  0.1723  0.0059  0.5361
  852MOL0     C12378   9.691   1.372   5.540 -0.6179  0.2961  0.1418
  852MOL0     O12379   9.443   1.374   5.743 -0.3299 -0.0551  0.1509
  852MOL0     C12380   9.211   1.502   5.488 -0.0436  0.3602  0.0606
  852MOL0     C12381   9.079   1.510   5.457  1.0630  0.4338  0.0963
  852MOL0     N12382   8.409   1.222   5.189 -0.6537  0.5723  0.3692
  852MOL0     N12383   8.351   1.141   5.275  1.1393 -0.0270  0.4407
  852MOL0     C12384   7.478   0.650   6.129  0.4651 -0.0652 -0.4701
  852MOL0     C12385   7.348   0.681   6.172 -0.3418 -0.4695 -1.1160
  852MOL0     C12386   7.013   1.000   6.327  0.3313 -0.0665 -1.0157
  852MOL0     C12387   6.989   1.103   6.419 -0.8480  0.5419 -0.3820
  852MOL0     C12388   6.862   1.133   6.459  0.1229  0.8816 -0.2205
  852MOL0     C12389   6.748   1.081   6.392 -0.5938  0.2063  0.4953
  852MOL0     O12390   6.622   1.133   6.410  0.1177 -0.4296  0.1741
  852MOL0     C12391   6.502   1.086   6.346  0.0183 -0.0914  0.1539
  852MOL0     C12392   6.408   1.199   6.313  0.1956  0.7283 -0.0688
  852MOL0     C12393   6.272   1.156   6.279  0.0029 -0.1919  0.4002
  852MOL0     C12394   6.254   1.115   6.131 -0.9640  0.1729  0.8015
  852MOL0     C12395   6.113   1.107   6.100  0.4814 -0.9035 -0.8963
  852MOL0     C12396   5.996   1.099   6.058 -0.2629  0.2233  0.5788
  852MOL0     C12397   6.775   0.980   6.298 -0.8744 -0.2232 -0.2510
  852MOL0     C12398   6.904   0.946   6.264  1.1586 -0.6460 -0.8415
  852MOL0     H12399   7.365   1.009   6.141 -2.8449 -1.7167 -2.0398
  852MOL0     H12400   7.583   0.961   6.042 -1.7466  1.3191  1.9112
  852MOL0     H12401   7.753   0.883   5.970 -0.3997  0.7232 -1.3670
  852MOL0     H12402   7.693   0.766   5.848  2.1548 -4.9293 -0.6303
  852MOL0     H12403   7.891   0.630   5.857  1.9044 -0.8041  0.5286
  852MOL0     H12404   7.974   0.723   5.986 -0.0392 -0.2279  0.7533
  852MOL0     H12405   7.930   0.783   5.687  3.9171  0.8936 -2.9649
  852MOL0     H12406   8.069   0.745   5.766  2.0848  1.8876  1.2585
  852MOL0     H12407   7.912   1.010   5.758 -1.9828 -0.5541  4.4750
  852MOL0     H12408   8.016   0.987   5.900  3.0810 -4.7715  0.9306
  852MOL0     H12409   8.107   0.943   5.612  0.5546 -0.7676 -0.9186
  852MOL0     H12410   8.210   0.933   5.764 -0.5111 -2.6195 -2.4246
  852MOL0     H12411   8.196   1.172   5.807  0.5161 -2.0182  1.3047
  852MOL0     H12412   8.070   1.194   5.690  0.3025  1.1139  1.4347
  852MOL0     H12413   8.301   1.246   5.633  3.0182 -3.5194  1.2930
  852MOL0     H12414   8.320   1.079   5.596  2.7217  1.2436  3.9524
  852MOL0     H12415   8.100   1.229   5.457  0.0155  0.0888 -0.0343
  852MOL0     H12416   8.152   1.064   5.438  0.3171 -1.3206  2.5568
  852MOL0     H12417   8.260   1.424   5.385  1.8992 -0.7526  2.3046
  852MOL0     H12418   8.426   1.546   5.262 -2.4234 -1.8190  2.0725
  852MOL0     H12419   8.438   1.505   5.090 -4.1077 -2.7869 -0.4230
  852MOL0     H12420   8.650   1.577   5.193  0.0570  1.7289  2.9854
  852MOL0     H12421   8.665   1.398   5.180  1.1942 -2.4338  4.0548
  852MOL0     H12422   8.587   1.539   5.436 -0.0794 -0.1295 -0.3627
  852MOL0     H12423   8.639   1.369   5.397  3.0248 -0.6864 -1.2021
  852MOL0     H12424   8.801   1.625   5.400  1.9276  0.4401 -0.2015
  852MOL0     H12425   8.858   1.476   5.307 -0.1862  2.5341 -2.2412
  852MOL0     H12426   8.949   1.422   5.769 -0.2350  0.5446  0.8054
  852MOL0     H12427   9.190   1.379   5.801  0.3046 -1.3640 -0.6356
  852MOL0     H12428   9.642   1.691   5.645  0.8691  0.8757 -0.6522
  852MOL0     H12429   9.870   1.685   5.673  4.3219 -2.3195  0.9742
  852MOL0     H12430  10.015   1.317   5.772  0.3296  0.9572  1.8807
  852MOL0     H12431  10.034   1.473   5.849 -0.8618  0.3309 -0.9519
  852MOL0     H12432  10.248   1.355   5.674  0.8142  0.4350  1.1669
  852MOL0     H12433  10.237   1.303   5.850 -0.7653 -0.1596  1.0340
  852MOL0     H12434  10.300   1.476   5.945 -2.0396  2.2078  0.4405
  852MOL0     H12435  10.227   1.589   5.831 -2.0924 -0.9337  5.8492
  852MOL0     H12436  10.498   1.425   5.801  3.7327  1.3855  2.6381
  852MOL0     H12437  10.435   1.555   5.688  2.3604 -1.1556  0.1784
  852MOL0     H12438  10.587   1.605   5.940  2.2195  1.3088 -1.7291
  852MOL0     H12439  10.438   1.691   5.915  0.2586 -1.1308  1.8043
  852MOL0     H12440  10.638   1.808   5.819 -2.8760  1.4103  0.0048
  852MOL0     H12441  10.522   1.771   5.698  2.8684  1.8513 -2.9301
  852MOL0     H12442  10.762   1.595   5.752 -0.1565  1.5573  0.3297
  852MOL0     H12443  10.658   1.559   5.621  1.6938 -3.2464  1.7864
  852MOL0     H12444  10.862   1.689   5.564 -1.0028 -0.2901  0.1683
  852MOL0     H12445  10.805   1.826   5.659  1.3683 -0.6337  1.4707
  852MOL0     H12446   9.886   1.292   5.536 -2.1123 -1.2411 -0.2841
  852MOL0     H12447   9.646   1.283   5.498  1.6495 -0.6633 -0.4363
  852MOL0     H12448   9.291   1.524   5.418 -0.3888  2.2034  0.1913
  852MOL0     H12449   9.050   1.538   5.356 -0.7635  1.3201  0.8307
  852MOL0     H12450   7.509   0.547   6.140 -0.1932 -0.1515  0.7223
  852MOL0     H12451   7.283   0.605   6.214  2.1111 -2.6332 -0.9825
  852MOL0     H12452   7.075   1.152   6.463  0.5453 -0.4061 -1.9306
  852MOL0     H12453   6.847   1.208   6.537 -2.0911 -1.5253  1.8773
  852MOL0     H12454   6.462   1.014   6.417  0.2417 -1.4503 -1.0436
  852MOL0     H12455   6.517   1.036   6.250 -3.3476 -1.1785  0.0711
  852MOL0     H12456   6.407   1.265   6.400  0.6452  1.4252 -0.5753
  852MOL0     H12457   6.436   1.260   6.226 -2.8045 -1.6664 -2.9385
  852MOL0     H12458   6.215   1.249   6.286  2.5344  1.6679 -1.7492
  852MOL0     H12459   6.231   1.069   6.330 -3.5084  0.5703 -0.8088
  852MOL0     H12460   6.315   1.174   6.063 -3.1841 -0.2079 -1.7107
  852MOL0     H12461   6.287   1.012   6.113 -1.9926  0.1280 -1.0206
  852MOL0     H12462   5.902   1.094   6.006  0.5781  1.7079 -1.2047
  852MOL0     H12463   6.695   0.935   6.240 -2.3219  1.6133  0.2108
  852MOL0     H12464   6.924   0.887   6.176  0.9616 -0.4781 -0.9986
  853MOL0     O12465   6.326   6.265   9.359  0.4840  0.0334 -0.5642
  853MOL0     C12466   6.300   6.285   9.242 -1.0126 -0.2386  0.0046
  853MOL0     O12467   6.298   6.185   9.149  0.2678  0.1073 -0.3807
  853MOL0     C12468   6.359   6.066   9.174 -0.5609 -0.3711  0.9884
  853MOL0     C12469   6.442   6.023   9.275 -0.3869 -0.4670  0.0769
  853MOL0     C12470   6.505   5.895   9.277  0.2510 -0.5779  0.0981
  853MOL0     C12471   6.485   5.807   9.167 -0.5608 -0.5538  0.4592
  853MOL0     O12472   6.555   5.692   9.169  0.4999  0.1488 -0.5503
  853MOL0     C12473   6.535   5.583   9.074  0.0127 -0.0838  0.1403
  853MOL0     C12474   6.625   5.456   9.078  0.0666  0.1174  0.7497
  853MOL0     C12475   6.606   5.373   9.204  0.0461  1.0012  0.3535
  853MOL0     C12476   6.465   5.320   9.248  0.5940 -0.0204  0.1120
  853MOL0     C12477   6.469   5.201   9.339  0.2087  0.0024  0.1481
  853MOL0     C12478   6.330   5.162   9.376  0.7191 -0.9968  0.6499
  853MOL0     C12479   6.321   5.044   9.469  0.7252  0.4639  0.0596
  853MOL0     C12480   6.292   5.091   9.611 -0.7158  1.0367  0.4663
  853MOL0     N12481   6.241   4.988   9.703 -0.5751  0.3296 -0.5502
  853MOL0     C12482   6.161   4.880   9.682  0.1660 -0.2472  0.4225
  853MOL0     C12483   6.142   4.818   9.800  0.0122 -0.0750 -0.0706
  853MOL0     C12484   6.057   4.701   9.833 -0.7341 -0.8321 -0.1537
  853MOL0     C12485   5.981   4.648   9.707  0.6105 -0.2652  0.4411
  853MOL0     C12486   5.889   4.531   9.767 -0.5613 -0.3813 -0.0347
  853MOL0     C12487   5.967   4.421   9.847  0.3217  0.7283  0.0172
  853MOL0     O12488   5.880   4.310   9.873  0.5841  0.1070  0.6213
  853MOL0     C12489   5.915   4.217   9.966  1.2930 -0.5912 -0.6588
  853MOL0     C12490   6.026   4.210  10.049 -1.4082  0.2368 -0.2829
  853MOL0     C12491   6.043   4.121  10.146 -0.1447 -1.4078  0.6403
  853MOL0     C12492   5.945   4.029  10.180  0.4273 -0.1331  0.2734
  853MOL0     C12493   5.973   3.932  10.289  0.4964 -0.6515 -0.4148
  853MOL0     O12494   5.863   3.841  10.321 -0.3900  0.1119 -0.0334
  853MOL0     C12495   5.897   3.751  10.420 -1.2307  0.1641 -0.0593
  853MOL0     C12496   6.000   3.661  10.407  0.1616 -1.4194  0.8729
  853MOL0     C12497   6.029   3.568  10.506 -1.2656  0.5927 -0.1687
  853MOL0     C12498   5.949   3.551  10.607 -0.3158 -0.7876 -0.6991
  853MOL0     O12499   5.975   3.442  10.696 -0.5187 -0.1783  0.3347
  853MOL0     C12500   5.880   3.398  10.792  0.0341 -0.1525  0.0428
  853MOL0     C12501   5.860   3.247  10.753 -0.2419 -0.1733 -0.0771
  853MOL0     C12502   5.749   3.235  10.651 -0.2242 -0.7145  0.6417
  853MOL0     C12503   5.700   3.089  10.622  0.3689  0.1582 -0.0251
  853MOL0     C12504   5.641   3.088  10.478  0.0360  0.9946 -0.0423
  853MOL0     C12505   5.597   2.946  10.416  0.6155 -0.6727 -0.3948
  853MOL0     C12506   5.617   2.933  10.269  0.2314 -0.4286  0.5697
  853MOL0     C12507   5.566   2.802  10.207  0.6755 -0.4378  0.3729
  853MOL0    Cl12508   5.667   2.680  10.259 -0.2359  0.6662  0.0866
  853MOL0     C12509   5.834   3.633  10.615  0.5175 -1.0231 -1.0220
  853MOL0     C12510   5.802   3.726  10.516  0.8139  1.3803 -0.7432
  853MOL0     O12511   6.086   3.935  10.346  0.7047  0.6974 -0.3625
  853MOL0     C12512   5.833   4.031  10.098 -0.0511  1.2098  0.3101
  853MOL0     C12513   5.814   4.128   9.997 -0.0304  0.3062 -0.1241
  853MOL0     N12514   6.221   4.890   9.889  0.0196 -0.5469 -0.3592
  853MOL0     N12515   6.289   4.986   9.829 -0.4954 -0.1146  0.0932
  853MOL0     C12516   6.387   5.837   9.070  0.8188 -0.4868 -0.2633
  853MOL0     C12517   6.324   5.967   9.072  0.2927  0.7086  0.0822
  853MOL0     C12518   6.243   6.417   9.211 -0.2662 -0.0814  0.9442
  853MOL0     C12519   6.243   6.525   9.303 -0.0242 -1.3315  0.2015
  853MOL0     C12520   6.175   6.640   9.269  0.2490  0.1273 -0.5064
  853MOL0     C12521   6.100   6.654   9.150 -0.2164 -1.1319  0.2542
  853MOL0     O12522   6.028   6.757   9.107  0.8201 -0.5927 -0.3045
  853MOL0     C12523   5.970   6.854   9.201 -0.8243  0.4495 -0.0798
  853MOL0     C12524   5.837   6.893   9.153 -0.0486  0.6797 -0.3964
  853MOL0     C12525   5.726   6.782   9.149  0.3911  0.2003 -0.0913
  853MOL0     C12526   5.633   6.768   9.031  0.5897  0.3808  0.0750
  853MOL0     C12527   5.493   6.732   9.078 -0.7028 -0.1103  0.3918
  853MOL0     C12528   5.387   6.707   9.127  0.1736 -1.1328  0.2687
  853MOL0     C12529   6.103   6.546   9.058  1.1643  0.4156 -0.6650
  853MOL0     C12530   6.171   6.432   9.093  0.4010 -0.5031  0.3857
  853MOL0     H12531   6.464   6.093   9.355 -3.2178  0.8596 -0.1586
  853MOL0     H12532   6.572   5.872   9.359 -1.5210 -1.4347  1.3929
  853MOL0     H12533   6.541   5.618   8.971  0.4086 -0.0367  0.1804
  853MOL0     H12534   6.435   5.540   9.082 -0.5016  0.6218 -1.9032
  853MOL0     H12535   6.729   5.491   9.078 -0.5161  2.0905 -1.4725
  853MOL0     H12536   6.602   5.406   8.984 -0.4185 -2.4212  2.1222
  853MOL0     H12537   6.649   5.429   9.288  2.7970 -0.2429 -0.1191
  853MOL0     H12538   6.673   5.287   9.198  0.8091  1.4988  1.4909
  853MOL0     H12539   6.397   5.397   9.287  1.0138  0.3690  0.0851
  853MOL0     H12540   6.408   5.281   9.163 -0.1224  0.5575  0.3178
  853MOL0     H12541   6.528   5.217   9.430 -0.1189 -1.6394  0.7002
  853MOL0     H12542   6.520   5.127   9.276  0.7798 -0.8438  1.5507
  853MOL0     H12543   6.288   5.140   9.278  4.1222  0.8599 -1.4227
  853MOL0     H12544   6.270   5.247   9.413  0.0913 -0.9631 -0.4207
  853MOL0     H12545   6.229   4.994   9.439  0.7269 -0.9503  2.1403
  853MOL0     H12546   6.404   4.973   9.460  1.6806  1.6810 -1.1027
  853MOL0     H12547   6.211   5.162   9.596 -2.5865 -0.2659  3.4449
  853MOL0     H12548   6.376   5.148   9.651  1.0936 -1.9515  1.2656
  853MOL0     H12549   6.112   4.850   9.590 -0.3298  1.2993  0.1569
  853MOL0     H12550   5.994   4.753   9.906 -2.3989  2.3886 -3.5735
  853MOL0     H12551   6.126   4.627   9.873  1.7849  1.1983 -0.4467
  853MOL0     H12552   6.036   4.617   9.618  0.1345  0.6687 -0.1989
  853MOL0     H12553   5.928   4.735   9.666  0.4770 -0.8739 -0.7178
  853MOL0     H12554   5.818   4.573   9.839 -0.9038  1.1466 -1.2143
  853MOL0     H12555   5.845   4.483   9.680 -1.9055  0.5484  0.0964
  853MOL0     H12556   6.014   4.463   9.937  0.2086 -1.0638  0.9510
  853MOL0     H12557   6.048   4.385   9.784 -0.0578 -1.9876  0.9701
  853MOL0     H12558   6.106   4.283  10.045  0.0393 -1.3254 -3.4415
  853MOL0     H12559   6.133   4.132  10.207 -2.2104  0.8107  3.5739
  853MOL0     H12560   6.068   3.660  10.322 -1.0852 -3.1214 -0.1797
  853MOL0     H12561   6.116   3.503  10.515 -1.0842  1.1026  3.0678
  853MOL0     H12562   5.783   3.450  10.795  0.7026  1.2251 -1.2083
  853MOL0     H12563   5.918   3.407  10.895 -1.5999  0.3902  0.6463
  853MOL0     H12564   5.820   3.203  10.845 -0.5829 -1.1499 -0.6773
  853MOL0     H12565   5.952   3.194  10.725 -0.3468 -1.3834  1.6762
  853MOL0     H12566   5.781   3.282  10.557 -2.4861  0.8138  0.5720
  853MOL0     H12567   5.665   3.303  10.668  1.8350  2.4248 -0.7010
  853MOL0     H12568   5.778   3.016  10.645 -3.1694 -3.4558  1.7778
  853MOL0     H12569   5.625   3.057  10.695 -0.9081 -2.1620 -2.2261
  853MOL0     H12570   5.726   3.124  10.420  0.3996  2.9851  1.6157
  853MOL0     H12571   5.561   3.162  10.474  1.0135  2.1295  0.5212
  853MOL0     H12572   5.491   2.938  10.440  0.5323  1.1319  0.0627
  853MOL0     H12573   5.654   2.867  10.466 -0.0694  0.8186  3.1223
  853MOL0     H12574   5.567   3.018  10.221  0.1187  0.6592  2.5382
  853MOL0     H12575   5.724   2.939  10.246  0.7435  1.0331  3.0466
  853MOL0     H12576   5.548   2.808  10.099 -0.3916  0.2356  0.5834
  853MOL0     H12577   5.467   2.778  10.245  0.3514  0.9619  0.4787
  853MOL0     H12578   5.760   3.623  10.693  1.6849  0.2628  0.3046
  853MOL0     H12579   5.707   3.778  10.529  1.6874  2.7113  0.5384
  853MOL0     H12580   5.763   3.952  10.123  1.7013 -0.4990  0.1533
  853MOL0     H12581   5.725   4.141   9.937  0.2780  2.3460 -0.2113
  853MOL0     H12582   6.347   5.760   9.005  0.6288 -0.6437  0.0416
  853MOL0     H12583   6.246   5.994   9.001 -1.9691 -1.3193  1.6347
  853MOL0     H12584   6.298   6.519   9.397  0.6740  0.4359 -0.0663
  853MOL0     H12585   6.166   6.711   9.350 -0.1905 -2.5276  1.9528
  853MOL0     H12586   6.053   6.924   9.217  1.6306 -2.1157 -0.7759
  853MOL0     H12587   5.948   6.805   9.296 -1.6579  0.9085 -0.0295
  853MOL0     H12588   5.800   6.958   9.233 -1.8444  0.8979 -1.3550
  853MOL0     H12589   5.850   6.955   9.064 -1.7502 -0.3300 -1.4068
  853MOL0     H12590   5.662   6.800   9.237  1.5737  0.3000  0.7666
  853MOL0     H12591   5.764   6.681   9.167 -0.7334 -0.7785 -2.6741
  853MOL0     H12592   5.600   6.863   8.986 -0.0346  0.4833  0.7349
  853MOL0     H12593   5.664   6.685   8.967  0.8651  0.3042  0.3133
  853MOL0     H12594   5.292   6.679   9.168  1.1291  0.0524  3.6316
  853MOL0     H12595   6.042   6.548   8.968  0.3754  1.7334 -0.1297
  853MOL0     H12596   6.152   6.350   9.025 -1.3467  1.2150 -1.3173
  854MOL0     O12597  11.311   8.945  10.313  0.1824  0.2870  0.0731
  854MOL0     C12598  11.247   9.008  10.389 -0.5142  0.6511 -0.4794
  854MOL0     O12599  11.127   9.065  10.359  0.1708 -0.6667 -0.5805
  854MOL0     C12600  11.057   9.042  10.248 -1.3073  0.3298 -0.3641
  854MOL0     C12601  11.091   9.121  10.130 -0.1583  0.7362 -0.6065
  854MOL0     C12602  11.018   9.094  10.018 -0.8001  0.6946 -1.2277
  854MOL0     C12603  10.915   9.002  10.004 -0.7611  0.5550  0.6442
  854MOL0     O12604  10.845   8.975   9.886  0.1901 -0.1050  0.0447
  854MOL0     C12605  10.876   9.067   9.777  0.0153  0.7253 -0.5455
  854MOL0     C12606  10.788   9.203   9.787 -0.1898  0.6832  0.8158
  854MOL0     C12607  10.639   9.170   9.751 -0.9097  0.4278 -0.9532
  854MOL0     C12608  10.547   9.286   9.784  0.2928 -1.0049  0.4118
  854MOL0     C12609  10.526   9.365   9.655  0.2350 -0.1918  0.2933
  854MOL0     C12610  10.441   9.487   9.668  0.1396  0.6591 -0.8160
  854MOL0     C12611  10.412   9.565   9.537 -0.2066 -0.7266 -0.4769
  854MOL0     C12612  10.516   9.681   9.536 -0.7655  0.1113  0.0088
  854MOL0     N12613  10.497   9.767   9.418  0.0738 -0.6657 -0.7693
  854MOL0     C12614  10.378   9.820   9.378 -0.4629  1.1718  0.7123
  854MOL0     C12615  10.401   9.926   9.296 -0.7253 -0.5765  0.0750
  854MOL0     C12616  10.299  10.028   9.250 -0.0952  0.1562  0.2199
  854MOL0     C12617  10.198  10.072   9.344  0.5567  0.3914 -0.1414
  854MOL0     C12618  10.270  10.151   9.465 -0.2448  0.4439  0.3340
  854MOL0     C12619  10.359  10.279   9.425 -0.4167 -0.1965 -0.8040
  854MOL0     O12620  10.475  10.249   9.345 -0.2750 -0.2199  0.2915
  854MOL0     C12621  10.507  10.337   9.240  0.1861  0.5947 -0.8055
  854MOL0     C12622  10.496  10.473   9.238  1.1808 -0.2075 -0.1047
  854MOL0     C12623  10.532  10.551   9.122  0.4706  1.1091  0.5010
  854MOL0     C12624  10.580  10.489   9.012 -0.6351 -0.3001 -0.0704
  854MOL0     C12625  10.608  10.562   8.885 -0.4046 -0.1759  0.7667
  854MOL0     O12626  10.649  10.489   8.779  0.0531  0.7318  0.0534
  854MOL0     C12627  10.690  10.556   8.666  0.2904 -0.3348 -0.6420
  854MOL0     C12628  10.590  10.622   8.593  0.0031  0.4810 -0.3179
  854MOL0     C12629  10.618  10.676   8.464  0.2858  0.3310 -0.2606
  854MOL0     C12630  10.752  10.675   8.410  0.1278  0.1998  0.1590
  854MOL0     O12631  10.786  10.699   8.278  0.1711  0.3486 -0.0983
  854MOL0     C12632  10.750  10.597   8.182  0.1566 -0.0391  0.1372
  854MOL0     C12633  10.803  10.624   8.044 -0.7969 -1.0335  0.2089
  854MOL0     C12634  10.954  10.624   8.046  0.5326 -0.6925  0.7571
  854MOL0     C12635  11.026  10.656   7.910  1.3761 -0.0378  0.7782
  854MOL0     C12636  11.175  10.623   7.900  1.0503  0.1252  0.9984
  854MOL0     C12637  11.210  10.476   7.895 -1.1920 -0.3073 -0.3531
  854MOL0     C12638  11.353  10.447   7.861  0.0729  0.5330 -0.4424
  854MOL0     C12639  11.452  10.505   7.966 -0.2211  0.2359  0.1310
  854MOL0    Cl12640  11.415  10.421   8.122 -0.1946  0.2570 -0.1846
  854MOL0     C12641  10.851  10.609   8.487  0.8648  0.4902 -0.9879
  854MOL0     C12642  10.824  10.545   8.609 -0.2016 -0.4758 -0.2326
  854MOL0     O12643  10.594  10.687   8.884  0.5386  0.4931  0.2681
  854MOL0     C12644  10.592  10.347   9.017  0.8317  0.0164  0.3727
  854MOL0     C12645  10.563  10.276   9.134 -0.4394  0.1523 -0.4953
  854MOL0     N12646  10.541   9.930   9.277 -0.2699  0.0896 -0.6613
  854MOL0     N12647  10.594   9.842   9.357  0.0220 -0.4880  0.1576
  854MOL0     C12648  10.881   8.930  10.125  0.0125  0.6815 -0.4417
  854MOL0     C12649  10.952   8.948  10.241  0.4053 -0.3758 -0.0497
  854MOL0     C12650  11.315   9.062  10.504  0.6924 -0.4666 -1.2576
  854MOL0     C12651  11.444   9.012  10.531  0.7974 -0.5079 -0.0286
  854MOL0     C12652  11.496   9.048  10.654 -0.7736  0.7343  0.9275
  854MOL0     C12653  11.429   9.136  10.743 -0.1133  0.0289  1.0571
  854MOL0     O12654  11.505   9.173  10.842 -0.2882 -0.1856 -0.7066
  854MOL0     C12655  11.500   9.304  10.893 -0.0313 -0.0247 -0.2540
  854MOL0     C12656  11.433   9.308  11.034  0.5873 -0.1284 -0.4645
  854MOL0     C12657  11.405   9.449  11.071 -0.2189 -0.4997 -0.0074
  854MOL0     C12658  11.338   9.467  11.210  0.6533 -0.4963  0.3137
  854MOL0     C12659  11.385   9.383  11.321 -0.3625  0.5057  0.0508
  854MOL0     C12660  11.440   9.311  11.408 -0.1834  0.8617  0.3733
  854MOL0     C12661  11.307   9.196  10.710  0.6617  1.0804 -0.6662
  854MOL0     C12662  11.250   9.162  10.585  0.3045  0.3764 -1.1353
  854MOL0     H12663  11.172   9.193  10.136 -1.0180  1.6019  2.3176
  854MOL0     H12664  11.059   9.142   9.930  1.9920  0.5499 -0.1154
  854MOL0     H12665  10.844   9.017   9.686  2.3579  0.9442 -1.5729
  854MOL0     H12666  10.984   9.081   9.766  0.6023 -0.8232  2.2540
  854MOL0     H12667  10.827   9.277   9.716  2.8216 -0.6880  0.9037
  854MOL0     H12668  10.786   9.235   9.892 -2.0370 -1.0939  1.3769
  854MOL0     H12669  10.612   9.083   9.812 -1.0821  2.3766  1.9891
  854MOL0     H12670  10.627   9.142   9.646 -1.0853 -2.5233 -0.2558
  854MOL0     H12671  10.457   9.251   9.834  1.2135 -0.5804  2.4516
  854MOL0     H12672  10.595   9.350   9.858  1.7404 -1.4113 -0.1393
  854MOL0     H12673  10.477   9.301   9.582 -0.5443 -0.1851  0.8003
  854MOL0     H12674  10.623   9.393   9.612  0.6173 -0.6487  0.8341
  854MOL0     H12675  10.478   9.561   9.740 -0.5422  2.0412 -1.8161
  854MOL0     H12676  10.344   9.439   9.684 -0.0036  1.2073 -0.0018
  854MOL0     H12677  10.428   9.501   9.450 -0.0591  0.1697 -1.1164
  854MOL0     H12678  10.311   9.608   9.533  0.6131  1.3262 -0.4616
  854MOL0     H12679  10.620   9.650   9.555 -1.2928 -0.5325  2.1091
  854MOL0     H12680  10.489   9.761   9.605 -0.9119  1.6641 -1.7673
  854MOL0     H12681  10.282   9.798   9.422 -0.2817  2.5568  1.8735
  854MOL0     H12682  10.247   9.980   9.166  3.5686 -0.8400 -1.7042
  854MOL0     H12683  10.354  10.107   9.198  0.4405 -0.0744  0.4334
  854MOL0     H12684  10.137   9.988   9.380 -1.3290  2.8680  2.9448
  854MOL0     H12685  10.128  10.135   9.289  1.6243 -0.7316 -2.9745
  854MOL0     H12686  10.198  10.179   9.542  2.2371  0.9235  2.6462
  854MOL0     H12687  10.335  10.082   9.519 -1.4295  0.8737  2.4382
  854MOL0     H12688  10.392  10.333   9.514  0.6347 -1.3835 -0.4327
  854MOL0     H12689  10.293  10.348   9.372  0.6199  0.0502 -1.8070
  854MOL0     H12690  10.450  10.531   9.317  2.9640 -0.9017  1.5069
  854MOL0     H12691  10.521  10.659   9.124  0.9394  1.2172  3.7710
  854MOL0     H12692  10.486  10.615   8.622  0.6617  1.9771  2.8015
  854MOL0     H12693  10.530  10.709   8.410 -0.3873  1.1242  1.2533
  854MOL0     H12694  10.640  10.598   8.183 -0.0842 -4.5417  1.3360
  854MOL0     H12695  10.786  10.498   8.211  1.0732  0.7204  1.7375
  854MOL0     H12696  10.766  10.720   8.007  0.4508 -0.8766 -0.7040
  854MOL0     H12697  10.775  10.553   7.966  0.3580 -0.7013 -0.5307
  854MOL0     H12698  10.976  10.519   8.066  1.7637 -1.1274 -2.2476
  854MOL0     H12699  10.991  10.692   8.123  0.3097 -0.6024  0.7842
  854MOL0     H12700  10.965  10.610   7.832 -3.6653  1.6807  3.2633
  854MOL0     H12701  11.015  10.763   7.893 -4.4706 -0.8360 -3.2608
  854MOL0     H12702  11.212  10.673   7.991 -0.3146 -1.6395  2.6136
  854MOL0     H12703  11.217  10.674   7.813  1.9105  0.9873  1.8868
  854MOL0     H12704  11.141  10.422   7.831  0.8426 -1.1354 -1.9706
  854MOL0     H12705  11.193  10.435   7.995  1.7790  2.8814  1.7220
  854MOL0     H12706  11.356  10.337   7.855  0.5051  0.5488 -0.5282
  854MOL0     H12707  11.378  10.480   7.760  1.2564  0.7673 -0.0904
  854MOL0     H12708  11.447  10.613   7.978  2.4482  0.8652 -3.1380
  854MOL0     H12709  11.550  10.488   7.921  0.4035 -0.5811  1.6854
  854MOL0     H12710  10.950  10.588   8.449  1.2502  0.0595  0.2247
  854MOL0     H12711  10.895  10.483   8.664  0.3139  0.1610 -0.1739
  854MOL0     H12712  10.627  10.289   8.932  1.5517  1.1710 -0.1432
  854MOL0     H12713  10.568  10.169   9.149  3.5115  0.4038  1.1808
  854MOL0     H12714  10.805   8.853  10.131 -0.7365  1.4087 -0.5142
  854MOL0     H12715  10.935   8.893  10.333  0.1429  1.1973  0.8669
  854MOL0     H12716  11.490   8.945  10.458  3.1536 -1.2183  1.9549
  854MOL0     H12717  11.599   9.017  10.669 -0.5674  0.2491 -1.2059
  854MOL0     H12718  11.444   9.378  10.835 -0.7273  0.2960  0.7783
  854MOL0     H12719  11.601   9.342  10.913 -1.2420  1.6580  3.7394
  854MOL0     H12720  11.342   9.249  11.017 -1.7604  2.1622  2.9434
  854MOL0     H12721  11.499   9.260  11.108 -0.0399  0.0219  0.2080
  854MOL0     H12722  11.325   9.488  11.006  2.1626  0.7766 -2.3467
  854MOL0     H12723  11.494   9.511  11.063 -1.8522  2.6250  3.3233
  854MOL0     H12724  11.357   9.572  11.234 -0.4152 -0.7326  2.4526
  854MOL0     H12725  11.231   9.448  11.202  0.9511 -2.0758 -0.2736
  854MOL0     H12726  11.492   9.234  11.462 -4.8646 -1.4635  2.1376
  854MOL0     H12727  11.261   9.276  10.768  2.9487  1.5375  0.6146
  854MOL0     H12728  11.157   9.203  10.547  0.3528 -0.3251 -2.0482
  855MOL0     O12729   9.288   8.634  10.817  0.3391  0.8687 -0.8514
  855MOL0     C12730   9.266   8.519  10.871 -0.0985  0.5553 -0.2501
  855MOL0     O12731   9.232   8.502  11.008 -0.1321 -0.1078  0.2390
  855MOL0     C12732   9.253   8.609  11.089 -0.1567 -0.7349 -0.0574
  855MOL0     C12733   9.365   8.625  11.166 -0.3166  0.4231  0.1520
  855MOL0     C12734   9.368   8.744  11.247  0.5610 -0.1009  0.2057
  855MOL0     C12735   9.262   8.836  11.255 -0.2432 -0.6180 -1.0058
  855MOL0     O12736   9.261   8.952  11.339 -0.4690 -0.1681  0.2966
  855MOL0     C12737   9.382   8.981  11.404  0.2338 -0.7725 -0.0317
  855MOL0     C12738   9.383   9.089  11.511 -0.3521  0.7386 -0.7229
  855MOL0     C12739   9.324   9.227  11.476  0.0512  0.4821  0.2562
  855MOL0     C12740   9.353   9.348  11.568 -0.5126 -0.3514  0.4764
  855MOL0     C12741   9.320   9.469  11.483 -0.5827 -1.0696 -0.1214
  855MOL0     C12742   9.163   9.487  11.475  0.1833  0.3387 -0.4834
  855MOL0     C12743   9.119   9.547  11.338  0.7675 -0.3605  0.2358
  855MOL0     C12744   9.162   9.690  11.318  0.4509 -0.3162  0.2182
  855MOL0     N12745   9.067   9.778  11.390 -0.3126  0.4157 -0.6412
  855MOL0     C12746   8.932   9.786  11.383 -0.3155 -0.3874  0.2261
  855MOL0     C12747   8.899   9.898  11.458  0.2853  0.0954  0.3929
  855MOL0     C12748   8.752   9.935  11.474  0.4765 -0.1915 -0.3140
  855MOL0     C12749   8.720  10.079  11.516  0.7872 -1.4516 -1.0269
  855MOL0     C12750   8.767  10.100  11.658  0.8697 -0.0410  0.3716
  855MOL0     C12751   8.719  10.224  11.727 -0.0125 -0.4808 -0.1620
  855MOL0     O12752   8.762  10.337  11.637 -0.2198 -0.2408  1.1610
  855MOL0     C12753   8.703  10.460  11.653  0.4985  1.0805 -0.7898
  855MOL0     C12754   8.599  10.497  11.744 -0.3014  0.4042  0.5532
  855MOL0     C12755   8.513  10.608  11.713  0.7270 -0.5115  0.0981
  855MOL0     C12756   8.544  10.697  11.618 -0.2600 -0.6030 -0.1149
  855MOL0     C12757   8.452  10.812  11.584 -0.2042  0.5500 -0.1500
  855MOL0     O12758   8.323  10.806  11.634 -0.1095  0.5559  0.3157
  855MOL0     C12759   8.247  10.915  11.607  0.5889  0.1080  0.4858
  855MOL0     C12760   8.196  10.924  11.484  1.5487 -0.6959  0.3394
  855MOL0     C12761   8.140  11.043  11.426 -0.5120  0.4493  0.0751
  855MOL0     C12762   8.113  11.145  11.519  0.3412  0.0553 -0.5219
  855MOL0     O12763   8.057  11.249  11.463  0.3510  0.2622  0.1061
  855MOL0     C12764   8.134  11.367  11.446 -0.0103 -0.1758  1.1227
  855MOL0     C12765   8.050  11.463  11.359  0.2507 -0.4718  0.1482
  855MOL0     C12766   7.989  11.414  11.232  0.6118 -0.6516  1.0477
  855MOL0     C12767   7.880  11.311  11.233  0.3037  0.5916  0.4997
  855MOL0     C12768   7.781  11.305  11.115 -0.0847 -0.5163 -0.9220
  855MOL0     C12769   7.855  11.275  10.979  0.0215  0.6638 -0.2602
  855MOL0     C12770   7.753  11.276  10.859  0.1325 -0.5563 -0.0113
  855MOL0     C12771   7.804  11.246  10.720  0.6513  0.7404  0.1023
  855MOL0    Cl12772   7.783  11.076  10.683 -0.0856  0.4917 -0.0192
  855MOL0     C12773   8.152  11.133  11.655  0.2675  0.1216 -0.7507
  855MOL0     C12774   8.234  11.024  11.696  0.9830 -0.4541 -0.2192
  855MOL0     O12775   8.501  10.903  11.526 -0.0396 -0.5763 -0.5295
  855MOL0     C12776   8.666  10.675  11.534  0.6315 -0.6529  0.6104
  855MOL0     C12777   8.740  10.556  11.561  0.6976  0.1437 -0.0905
  855MOL0     N12778   9.013   9.966  11.504  0.0784  0.4640  0.7958
  855MOL0     N12779   9.111   9.892  11.468 -0.0592 -0.2134  0.0682
  855MOL0     C12780   9.149   8.823  11.184 -0.2889  0.3542  1.1013
  855MOL0     C12781   9.156   8.714  11.094 -0.0707 -0.0823  0.1525
  855MOL0     C12782   9.278   8.399  10.782  0.2213 -0.5951 -0.3269
  855MOL0     C12783   9.313   8.406  10.654 -0.8150  0.1124 -0.1614
  855MOL0     C12784   9.323   8.295  10.579  0.2523  0.4429 -0.0901
  855MOL0     C12785   9.285   8.163  10.637  0.9824 -0.3592  0.5375
  855MOL0     O12786   9.306   8.042  10.576 -0.5175 -0.0633  0.2063
  855MOL0     C12787   9.274   8.024  10.439 -0.3911 -0.2211  0.3533
  855MOL0     C12788   9.227   7.888  10.416  1.2262 -0.3694  2.2190
  855MOL0     C12789   9.102   7.843  10.503 -0.3367 -0.5983  0.1958
  855MOL0     C12790   8.981   7.926  10.456  0.3453 -0.4651 -1.4042
  855MOL0     C12791   8.862   7.893  10.541 -0.5794 -0.7787 -0.7997
  855MOL0     C12792   8.781   7.854  10.627  0.1564  0.6460  0.4023
  855MOL0     C12793   9.236   8.165  10.767  0.0586  0.0406  0.7560
  855MOL0     C12794   9.231   8.276  10.835  0.5885 -0.3186 -0.7485
  855MOL0     H12795   9.446   8.553  11.168  2.3663  3.2582  1.1936
  855MOL0     H12796   9.463   8.779  11.288  0.7774 -1.1926  0.6730
  855MOL0     H12797   9.454   9.022  11.332 -0.4096  1.3048  0.4509
  855MOL0     H12798   9.425   8.889  11.445  0.5535 -0.3388  0.6095
  855MOL0     H12799   9.486   9.092  11.549 -1.0871 -1.2262  1.6790
  855MOL0     H12800   9.316   9.048  11.587  1.7766 -1.6981 -0.0339
  855MOL0     H12801   9.218   9.205  11.464  0.1661 -0.1821  0.4281
  855MOL0     H12802   9.350   9.265  11.377  0.3379  0.8623  0.4735
  855MOL0     H12803   9.294   9.349  11.660 -0.6082  3.2908  0.4988
  855MOL0     H12804   9.459   9.353  11.596 -1.0593 -1.5009  3.0414
  855MOL0     H12805   9.383   9.483  11.396  1.7285  0.1372  1.6391
  855MOL0     H12806   9.350   9.555  11.543  0.9125 -1.4947 -0.2296
  855MOL0     H12807   9.127   9.541  11.563  0.3207  2.6095 -1.7577
  855MOL0     H12808   9.130   9.383  11.469  2.9057 -0.6395  0.0508
  855MOL0     H12809   9.159   9.482  11.260  1.9055  2.0962 -1.3713
  855MOL0     H12810   9.010   9.541  11.327  0.9513 -0.5488 -1.9752
  855MOL0     H12811   9.149   9.725  11.215  2.2986 -0.3328 -0.0533
  855MOL0     H12812   9.264   9.721  11.345 -0.4579  1.8300  1.4209
  855MOL0     H12813   8.866   9.723  11.325  0.5493 -0.7374 -0.4017
  855MOL0     H12814   8.709   9.871  11.552 -0.8234  1.5559  0.4939
  855MOL0     H12815   8.693   9.922  11.383 -2.8707  3.3788  1.0454
  855MOL0     H12816   8.615  10.104  11.497  0.8078  0.8441  1.2263
  855MOL0     H12817   8.768  10.141  11.440  0.5371 -1.0459 -0.8584
  855MOL0     H12818   8.713  10.023  11.715  0.7478 -0.8133 -0.7678
  855MOL0     H12819   8.874  10.091  11.675  0.8912  0.3350  0.4498
  855MOL0     H12820   8.774  10.231  11.822 -1.2213  5.2732  0.4837
  855MOL0     H12821   8.612  10.214  11.745  0.4179 -2.2178  1.8711
  855MOL0     H12822   8.571  10.426  11.821  0.7010 -0.9683 -0.2917
  855MOL0     H12823   8.420  10.608  11.771 -1.9713  1.4328 -3.7609
  855MOL0     H12824   8.212  10.842  11.414  0.0171  0.2225 -1.1839
  855MOL0     H12825   8.105  11.040  11.323 -1.3523 -1.4522  0.3797
  855MOL0     H12826   8.220  11.323  11.396  1.8214  1.5187  2.6354
  855MOL0     H12827   8.156  11.413  11.543  0.0016 -1.0189  1.5267
  855MOL0     H12828   8.102  11.556  11.332  1.7060 -1.3254 -0.1231
  855MOL0     H12829   7.966  11.502  11.417  0.2770 -2.4073  1.6041
  855MOL0     H12830   8.058  11.403  11.148  2.4857  2.7132  1.9518
  855MOL0     H12831   7.932  11.502  11.200 -1.1181 -1.3579  2.0302
  855MOL0     H12832   7.932  11.217  11.254 -1.5513 -0.6951 -0.3048
  855MOL0     H12833   7.831  11.323  11.330 -0.4334 -0.7742  0.3235
  855MOL0     H12834   7.733  11.404  11.115  3.8852  1.7691  2.7356
  855MOL0     H12835   7.707  11.227  11.133  0.0638 -1.0085 -2.3364
  855MOL0     H12836   7.887  11.172  10.994 -0.1334  0.1600 -2.9494
  855MOL0     H12837   7.932  11.350  10.960  1.3328 -0.9066 -1.4345
  855MOL0     H12838   7.672  11.205  10.877  1.0392 -1.7938 -0.6547
  855MOL0     H12839   7.717  11.379  10.862  0.1469 -0.5558  0.1503
  855MOL0     H12840   7.912  11.257  10.711  0.7359  0.7273  0.9694
  855MOL0     H12841   7.760  11.307  10.640  0.6114  1.1676  0.4450
  855MOL0     H12842   8.111  11.209  11.720 -2.6198 -1.4872 -0.5104
  855MOL0     H12843   8.293  11.018  11.787  2.1144 -2.2001 -0.9893
  855MOL0     H12844   8.680  10.745  11.452 -1.9431  0.7671  1.2745
  855MOL0     H12845   8.827  10.542  11.497 -1.2858  3.4525 -3.9258
  855MOL0     H12846   9.074   8.901  11.172  0.0903  0.6101  0.3700
  855MOL0     H12847   9.075   8.698  11.024  1.0501 -1.1005 -0.9871
  855MOL0     H12848   9.329   8.506  10.613 -0.4275  0.8142  1.5920
  855MOL0     H12849   9.360   8.306  10.477  0.3190 -2.1623 -0.4148
  855MOL0     H12850   9.368   8.037  10.385  1.2822  2.6808  3.5347
  855MOL0     H12851   9.203   8.103  10.411 -1.8712 -1.4127  0.5874
  855MOL0     H12852   9.194   7.883  10.312 -1.3382 -0.6799  2.9945
  855MOL0     H12853   9.309   7.818  10.435  0.2908 -2.3962 -0.6128
  855MOL0     H12854   9.126   7.852  10.609  2.0600 -1.3323 -0.2369
  855MOL0     H12855   9.095   7.739  10.470  5.0458 -0.8704 -1.0779
  855MOL0     H12856   9.001   8.033  10.463  1.4182 -0.7773  1.9789
  855MOL0     H12857   8.964   7.897  10.352 -0.7806 -1.2069 -1.0348
  855MOL0     H12858   8.690   7.831  10.679 -0.3375  0.4174 -0.5383
  855MOL0     H12859   9.193   8.077  10.812 -1.8073  0.6053  0.1418
  855MOL0     H12860   9.188   8.275  10.935  1.8152  0.0590 -0.2025
  856MOL0     O12861   7.311   4.133   4.633  0.7146  0.1819 -0.2091
  856MOL0     C12862   7.378   4.176   4.543 -0.8826 -0.7479  0.8303
  856MOL0     O12863   7.478   4.275   4.549  0.0898  0.0575 -0.4593
  856MOL0     C12864   7.451   4.386   4.627  0.2505  0.1743  0.3162
  856MOL0     C12865   7.401   4.496   4.551 -0.8906  0.1255 -0.1688
  856MOL0     C12866   7.382   4.618   4.610  0.2355  0.2748 -0.5090
  856MOL0     C12867   7.418   4.643   4.748 -0.1891 -0.9177  0.5045
  856MOL0     O12868   7.371   4.765   4.799  0.8647 -0.2904 -0.9921
  856MOL0     C12869   7.395   4.797   4.941 -0.0571 -0.4474  0.2131
  856MOL0     C12870   7.296   4.903   4.988  0.0439 -1.2710  0.7857
  856MOL0     C12871   7.287   5.031   4.898 -0.6490  0.1694  0.3609
  856MOL0     C12872   7.403   5.134   4.913  0.3842 -0.0331  0.3366
  856MOL0     C12873   7.372   5.256   4.818 -0.0910  0.6910 -0.3057
  856MOL0     C12874   7.261   5.339   4.873 -0.1051  1.2513  0.1861
  856MOL0     C12875   7.291   5.480   4.836 -0.6225  0.9269 -0.0833
  856MOL0     C12876   7.286   5.512   4.691  0.6369 -0.9494 -0.1758
  856MOL0     N12877   7.303   5.652   4.654 -0.0310  0.0393 -1.5220
  856MOL0     C12878   7.427   5.713   4.636 -0.0500  0.4659  0.0314
  856MOL0     C12879   7.409   5.822   4.564 -0.1080 -0.0298  0.0912
  856MOL0     C12880   7.509   5.912   4.496 -0.5527  0.3726 -0.1222
  856MOL0     C12881   7.552   6.029   4.593  0.1509 -0.2922  0.9644
  856MOL0     C12882   7.680   6.081   4.534  0.3471  1.3585 -0.9501
  856MOL0     C12883   7.747   6.197   4.613 -0.5864  0.6513  0.4890
  856MOL0     O12884   7.882   6.213   4.553 -0.2777  0.2414  0.1551
  856MOL0     C12885   7.990   6.268   4.610 -0.3632 -0.2716 -0.9288
  856MOL0     C12886   8.111   6.233   4.557 -0.5777 -0.5028  0.3027
  856MOL0     C12887   8.231   6.267   4.616 -0.6273  0.4964  1.1048
  856MOL0     C12888   8.228   6.352   4.732  0.9120  0.4627 -0.2279
  856MOL0     C12889   8.339   6.355   4.819 -0.3920 -0.3175  0.2535
  856MOL0     O12890   8.305   6.340   4.946 -0.2830  0.0304 -0.0212
  856MOL0     C12891   8.410   6.343   5.043  0.2204 -0.6130 -0.4059
  856MOL0     C12892   8.380   6.415   5.164  0.2851 -0.3543  0.4198
  856MOL0     C12893   8.473   6.424   5.267  0.2832 -0.4446 -0.8358
  856MOL0     C12894   8.593   6.360   5.261 -0.0729 -0.2387  1.3853
  856MOL0     O12895   8.693   6.387   5.349 -0.2899  0.3776  0.3101
  856MOL0     C12896   8.726   6.524   5.352  0.0966 -0.8375 -1.4382
  856MOL0     C12897   8.881   6.527   5.341  0.4027 -0.2287  0.2981
  856MOL0     C12898   8.923   6.677   5.309 -0.2484 -1.0511 -0.3310
  856MOL0     C12899   9.068   6.691   5.254  0.0496 -0.5168  0.1493
  856MOL0     C12900   9.106   6.833   5.232 -0.2803 -0.1409 -0.4736
  856MOL0     C12901   9.034   6.897   5.118 -0.1846 -0.8145 -0.2458
  856MOL0     C12902   9.062   7.049   5.117 -0.3499 -0.2676  0.1877
  856MOL0     C12903   9.046   7.116   4.973  0.3128 -0.5892 -0.0284
  856MOL0    Cl12904   9.161   7.038   4.854 -0.0471 -0.1661  0.1560
  856MOL0     C12905   8.629   6.285   5.144  0.5761 -0.1514 -0.6785
  856MOL0     C12906   8.531   6.271   5.046  0.8489 -0.1631  0.4064
  856MOL0     O12907   8.452   6.360   4.765 -0.4639 -0.4446  0.0093
  856MOL0     C12908   8.103   6.399   4.787 -0.0906  0.4843 -0.4121
  856MOL0     C12909   7.991   6.354   4.725  0.7759  0.7734  0.1348
  856MOL0     N12910   7.274   5.847   4.549 -0.0694  0.3705 -0.0114
  856MOL0     N12911   7.211   5.744   4.604 -0.0460 -0.4229  0.3598
  856MOL0     C12912   7.467   4.531   4.822 -1.0272 -0.0627 -0.0172
  856MOL0     C12913   7.489   4.405   4.757  0.9563  1.1914 -0.8528
  856MOL0     C12914   7.378   4.101   4.412 -0.1299  0.1895  0.4396
  856MOL0     C12915   7.435   4.152   4.294  0.5955 -0.4596  0.2685
  856MOL0     C12916   7.427   4.082   4.174 -0.1880 -0.5087 -0.3987
  856MOL0     C12917   7.377   3.958   4.169 -0.7725 -0.3471  0.0815
  856MOL0     O12918   7.382   3.872   4.066  0.4054  0.8153 -0.1940
  856MOL0     C12919   7.410   3.926   3.930 -0.0366 -0.1908 -0.2492
  856MOL0     C12920   7.419   3.811   3.832 -0.1990 -1.6808 -0.1033
  856MOL0     C12921   7.316   3.699   3.841  0.5626 -0.3435 -0.3869
  856MOL0     C12922   7.181   3.722   3.778  1.1726 -0.0431 -0.1255
  856MOL0     C12923   7.193   3.771   3.639 -0.1941  0.2553 -0.2540
  856MOL0     C12924   7.199   3.820   3.527 -0.2079  0.7643 -0.7432
  856MOL0     C12925   7.320   3.898   4.282  0.4016 -0.1669  0.0841
  856MOL0     C12926   7.317   3.972   4.401 -0.6627  0.4367  0.0072
  856MOL0     H12927   7.384   4.480   4.445 -0.9445 -1.7859  0.0851
  856MOL0     H12928   7.344   4.713   4.573 -0.0092  1.1363  1.7906
  856MOL0     H12929   7.494   4.845   4.941 -0.5449  0.7527  3.2929
  856MOL0     H12930   7.371   4.712   5.005 -3.1781 -0.5620 -0.9580
  856MOL0     H12931   7.342   4.945   5.078 -0.6129  0.9827  0.1334
  856MOL0     H12932   7.200   4.858   5.014 -0.7551 -0.4072 -0.5435
  856MOL0     H12933   7.194   5.088   4.913  0.1024  1.3091  0.8730
  856MOL0     H12934   7.286   4.993   4.796  0.9577  3.1745 -0.9190
  856MOL0     H12935   7.419   5.161   5.018  1.4047  2.4398 -0.3681
  856MOL0     H12936   7.496   5.093   4.873  0.2682  1.6110 -1.8277
  856MOL0     H12937   7.331   5.214   4.726 -1.3665 -0.5584  0.7852
  856MOL0     H12938   7.472   5.297   4.800  0.3611  0.5053  1.5318
  856MOL0     H12939   7.257   5.337   4.982 -0.3874  2.6619  0.2203
  856MOL0     H12940   7.163   5.300   4.844  0.1852 -0.1058  0.9260
  856MOL0     H12941   7.205   5.531   4.881 -0.7507  2.7242 -2.1881
  856MOL0     H12942   7.384   5.516   4.880 -0.8386 -0.5612  1.7145
  856MOL0     H12943   7.193   5.477   4.646  1.6055 -2.4051 -1.1447
  856MOL0     H12944   7.374   5.466   4.644  1.6302 -0.3196  1.0068
  856MOL0     H12945   7.526   5.676   4.661 -0.2428 -0.4107 -0.4715
  856MOL0     H12946   7.457   5.959   4.412 -1.7584  0.1964  0.5062
  856MOL0     H12947   7.600   5.860   4.465  1.0984  2.8424  0.2761
  856MOL0     H12948   7.571   6.001   4.697  1.5188  0.9571  1.0789
  856MOL0     H12949   7.475   6.106   4.598  2.0767  1.7974  0.2193
  856MOL0     H12950   7.746   5.994   4.547 -1.7131 -0.1076  0.2714
  856MOL0     H12951   7.668   6.100   4.427 -0.6162 -0.7597 -1.2707
  856MOL0     H12952   7.760   6.177   4.720 -0.3102 -1.4000  0.1193
  856MOL0     H12953   7.701   6.296   4.608  0.3870  1.1313  0.8649
  856MOL0     H12954   8.122   6.165   4.474 -2.7057 -1.6768  0.8920
  856MOL0     H12955   8.327   6.238   4.573 -0.4498  2.6282 -0.0558
  856MOL0     H12956   8.289   6.474   5.167 -0.0423 -0.8742  0.6693
  856MOL0     H12957   8.432   6.472   5.356 -2.1164  1.0311 -2.6351
  856MOL0     H12958   8.693   6.571   5.445 -0.5521 -0.4309 -1.8560
  856MOL0     H12959   8.673   6.590   5.282 -1.5391  0.6050  1.0187
  856MOL0     H12960   8.908   6.453   5.265  1.6786 -0.3336  0.8221
  856MOL0     H12961   8.931   6.511   5.438 -0.8864 -1.0100  0.8630
  856MOL0     H12962   8.919   6.736   5.401 -0.3003  1.9066 -2.1146
  856MOL0     H12963   8.849   6.725   5.245 -1.1631 -1.7617  0.1785
  856MOL0     H12964   9.146   6.645   5.315  1.3732  2.5855  0.9529
  856MOL0     H12965   9.072   6.643   5.155  1.4957 -1.3403  0.5804
  856MOL0     H12966   9.212   6.826   5.208 -0.8067 -1.5691 -2.5816
  856MOL0     H12967   9.086   6.886   5.326 -3.5862  0.9073 -1.6456
  856MOL0     H12968   8.926   6.886   5.131 -0.1066  0.0411  1.3408
  856MOL0     H12969   9.064   6.837   5.032 -0.3662 -1.4937  0.1598
  856MOL0     H12970   9.004   7.102   5.193 -1.0446 -2.0911  0.9610
  856MOL0     H12971   9.160   7.075   5.157 -1.9452  0.7944  3.8036
  856MOL0     H12972   9.037   7.224   4.982  1.8987 -0.6477  4.8202
  856MOL0     H12973   8.951   7.076   4.935 -0.0195  0.3261 -0.1745
  856MOL0     H12974   8.731   6.251   5.127  0.9923  1.7068 -2.2483
  856MOL0     H12975   8.541   6.213   4.955 -3.2227 -0.0908 -0.2827
  856MOL0     H12976   8.100   6.470   4.869 -2.8546 -1.6385  1.5234
  856MOL0     H12977   7.892   6.372   4.767 -0.1976  1.6012 -2.3357
  856MOL0     H12978   7.478   4.537   4.930 -1.3198 -1.9430  0.1400
  856MOL0     H12979   7.524   4.319   4.813 -1.9207  0.6173  0.2398
  856MOL0     H12980   7.480   4.251   4.300 -2.2882  1.1744 -2.4221
  856MOL0     H12981   7.458   4.131   4.082  0.7266  0.2502  0.2890
  856MOL0     H12982   7.505   3.980   3.921  1.0677 -2.2071 -1.2586
  856MOL0     H12983   7.321   3.979   3.894  0.1440 -2.3397 -4.3779
  856MOL0     H12984   7.431   3.858   3.734 -0.4758  0.1465  0.7043
  856MOL0     H12985   7.511   3.756   3.851  0.2044 -0.7358  0.7726
  856MOL0     H12986   7.296   3.648   3.935  0.7297 -0.4763 -0.4226
  856MOL0     H12987   7.369   3.618   3.790  1.1047  0.2043 -0.7089
  856MOL0     H12988   7.119   3.631   3.782  0.1015  0.7088  2.6331
  856MOL0     H12989   7.120   3.803   3.819 -0.2515 -0.0741 -2.0530
  856MOL0     H12990   7.217   3.880   3.441  0.9939  3.8651  1.4903
  856MOL0     H12991   7.286   3.795   4.284 -1.6195  0.4433  0.2391
  856MOL0     H12992   7.271   3.940   4.494 -0.7138  1.4027  0.3238
  857MOL0     O12993   7.748   6.542   6.108  0.3930 -0.0672  0.1569
  857MOL0     C12994   7.721   6.662   6.094 -0.3239 -0.7611  0.0473
  857MOL0     O12995   7.688   6.744   6.202 -0.0496 -0.0671  0.1044
  857MOL0     C12996   7.665   6.675   6.317 -1.6872 -0.5550  1.7047
  857MOL0     C12997   7.770   6.680   6.407  0.2933  0.5954 -0.0989
  857MOL0     C12998   7.764   6.605   6.522  0.8596 -0.4547 -0.0891
  857MOL0     C12999   7.636   6.550   6.561 -1.6589 -0.2336  0.0335
  857MOL0     O13000   7.626   6.491   6.691 -0.8374 -0.5190  0.1849
  857MOL0     C13001   7.517   6.529   6.781 -0.0547 -0.2653  0.4470
  857MOL0     C13002   7.551   6.543   6.931 -0.5398  0.5368  0.2148
  857MOL0     C13003   7.571   6.406   7.005  0.8318 -0.4454 -0.4390
  857MOL0     C13004   7.605   6.448   7.147 -0.0309  0.3308  0.4284
  857MOL0     C13005   7.638   6.323   7.229  0.5302 -1.3135 -0.7268
  857MOL0     C13006   7.680   6.343   7.379  0.4028 -0.9890 -0.2889
  857MOL0     C13007   7.795   6.446   7.399  0.0501 -0.3164  0.6658
  857MOL0     C13008   7.923   6.403   7.344 -0.2076  0.8614 -0.1540
  857MOL0     N13009   8.015   6.514   7.333  0.2659  0.1872 -0.6708
  857MOL0     C13010   8.069   6.615   7.424 -0.5379 -0.2717  0.1678
  857MOL0     C13011   8.153   6.690   7.350 -1.5095 -0.0851  0.0051
  857MOL0     C13012   8.234   6.800   7.412  0.2250  0.5565  0.0468
  857MOL0     C13013   8.285   6.755   7.550 -0.1008 -1.1763 -1.3865
  857MOL0     C13014   8.419   6.828   7.570 -0.2229  0.8312  0.0934
  857MOL0     C13015   8.493   6.789   7.699  0.4565  1.0053 -0.1643
  857MOL0     O13016   8.624   6.828   7.669  0.6666  0.4593  0.5807
  857MOL0     C13017   8.721   6.772   7.756  0.6712 -0.4869  0.2007
  857MOL0     C13018   8.720   6.638   7.797  0.4541  0.3903 -0.6144
  857MOL0     C13019   8.829   6.591   7.874  0.4534  0.1833 -0.1286
  857MOL0     C13020   8.919   6.676   7.930  0.0658  0.1791  0.4832
  857MOL0     C13021   9.017   6.614   8.020  0.4303 -0.3450  1.0730
  857MOL0     O13022   9.026   6.481   8.034  0.2559 -0.3677 -0.5248
  857MOL0     C13023   9.119   6.434   8.120 -0.4916 -0.5025 -1.0126
  857MOL0     C13024   9.114   6.442   8.255  0.7164  0.3283 -0.3558
  857MOL0     C13025   9.210   6.386   8.334 -0.4539  1.0061 -0.6531
  857MOL0     C13026   9.322   6.321   8.279 -0.0599  0.2712 -0.6102
  857MOL0     O13027   9.413   6.272   8.369  0.7375 -0.0833  0.2210
  857MOL0     C13028   9.544   6.232   8.339 -0.1068  0.0591 -0.8663
  857MOL0     C13029   9.605   6.200   8.473  0.8998  0.0984  0.9507
  857MOL0     C13030   9.617   6.330   8.562 -0.1956  0.6580 -1.3906
  857MOL0     C13031   9.718   6.313   8.686  0.0655 -0.2683 -0.8381
  857MOL0     C13032   9.687   6.405   8.810  0.0498  0.7723  0.7271
  857MOL0     C13033   9.633   6.540   8.772 -0.4004  0.2108 -0.2596
  857MOL0     C13034   9.632   6.637   8.900 -0.3050 -0.0353 -0.4350
  857MOL0     C13035   9.565   6.767   8.866 -0.0589  0.8957 -0.6121
  857MOL0    Cl13036   9.635   6.869   8.729 -0.4498  0.4810 -0.2936
  857MOL0     C13037   9.328   6.305   8.138  0.5256 -0.8175  0.5711
  857MOL0     C13038   9.222   6.358   8.069 -0.0236 -0.3385  0.3477
  857MOL0     O13039   9.087   6.699   8.086 -0.5848 -0.0180  0.9349
  857MOL0     C13040   8.917   6.813   7.894 -0.7698 -0.6321  0.4377
  857MOL0     C13041   8.818   6.859   7.801  0.1517 -0.8910  0.1101
  857MOL0     N13042   8.146   6.641   7.218 -0.3425 -0.4327 -0.0998
  857MOL0     N13043   8.062   6.539   7.212  0.7283 -0.4295 -0.0235
  857MOL0     C13044   7.524   6.561   6.472 -0.2627  0.4292 -0.0367
  857MOL0     C13045   7.541   6.624   6.348  0.6615 -1.3312  0.4101
  857MOL0     C13046   7.724   6.724   5.957  0.9342 -0.1871 -0.0843
  857MOL0     C13047   7.721   6.637   5.845 -0.1702  0.1092 -0.1227
  857MOL0     C13048   7.726   6.701   5.723  0.9950  0.2659 -0.1427
  857MOL0     C13049   7.749   6.842   5.718  0.0911 -0.3133  0.2228
  857MOL0     O13050   7.766   6.897   5.597  1.2524 -0.1971  0.0636
  857MOL0     C13051   7.899   6.892   5.556 -0.7530 -0.2283 -0.1025
  857MOL0     C13052   7.885   6.835   5.411 -0.3474 -0.8718 -0.0226
  857MOL0     C13053   8.024   6.852   5.349 -0.2711 -0.6731 -0.0842
  857MOL0     C13054   8.014   6.855   5.193  0.0052  1.0380 -0.6856
  857MOL0     C13055   7.982   6.717   5.149  0.0785 -0.6181  0.9342
  857MOL0     C13056   7.948   6.603   5.112  0.4849 -0.3234 -0.9003
  857MOL0     C13057   7.747   6.920   5.824 -0.2334 -0.9491 -0.4338
  857MOL0     C13058   7.739   6.867   5.946  0.9825  0.4908 -0.2908
  857MOL0     H13059   7.844   6.756   6.385  1.5151 -0.7245 -0.7363
  857MOL0     H13060   7.842   6.603   6.597 -0.2303 -0.2521  1.0956
  857MOL0     H13061   7.438   6.455   6.770 -1.1264  1.0178 -0.8878
  857MOL0     H13062   7.463   6.619   6.751  0.5102  0.0057  0.2180
  857MOL0     H13063   7.480   6.599   6.992 -0.4670 -1.1927  1.9801
  857MOL0     H13064   7.650   6.588   6.946 -0.5195  0.5285  0.1047
  857MOL0     H13065   7.654   6.350   6.962  0.5197 -1.2964  0.0607
  857MOL0     H13066   7.474   6.356   7.009 -0.0377  1.1401 -0.5368
  857MOL0     H13067   7.701   6.501   7.141  0.3955 -0.3607  0.9804
  857MOL0     H13068   7.536   6.515   7.198 -0.8726 -0.9810  1.0354
  857MOL0     H13069   7.721   6.268   7.183  1.4496 -0.0843 -0.6004
  857MOL0     H13070   7.548   6.261   7.228  0.7617 -1.6570 -0.4569
  857MOL0     H13071   7.730   6.258   7.427  0.1618  0.5771  3.0587
  857MOL0     H13072   7.585   6.367   7.429  0.0039  2.3623 -2.3763
  857MOL0     H13073   7.769   6.537   7.344  0.1788 -0.2250  0.7552
  857MOL0     H13074   7.808   6.498   7.495 -0.4646  1.2136 -0.0580
  857MOL0     H13075   7.910   6.370   7.240  0.9906  3.9953 -1.3989
  857MOL0     H13076   7.959   6.321   7.407  0.3971  2.6358  1.9127
  857MOL0     H13077   8.067   6.622   7.532 -0.4765  2.1719  0.0669
  857MOL0     H13078   8.166   6.885   7.421 -0.5220  0.1808 -1.6215
  857MOL0     H13079   8.314   6.825   7.342  0.6236 -3.1480 -1.0523
  857MOL0     H13080   8.288   6.646   7.555 -5.2432 -1.5200 -0.4413
  857MOL0     H13081   8.210   6.789   7.622  2.7214  1.1413  0.7391
  857MOL0     H13082   8.483   6.809   7.483  0.3837 -0.2861  0.7496
  857MOL0     H13083   8.407   6.936   7.579  1.2976  0.8986  2.3680
  857MOL0     H13084   8.477   6.681   7.702  1.2862  0.7600 -2.2677
  857MOL0     H13085   8.437   6.833   7.781  0.6211 -1.9309  1.6604
  857MOL0     H13086   8.639   6.569   7.776  1.0915 -0.9054  0.9429
  857MOL0     H13087   8.827   6.484   7.893 -2.4504  0.3464  0.9769
  857MOL0     H13088   9.030   6.482   8.312 -1.1616 -1.9073 -1.3909
  857MOL0     H13089   9.191   6.395   8.440  0.9566  0.6812 -0.3463
  857MOL0     H13090   9.595   6.310   8.281 -1.9643  2.1638  0.1635
  857MOL0     H13091   9.547   6.139   8.282 -2.8874 -0.9174  0.4031
  857MOL0     H13092   9.708   6.169   8.453  1.2171  0.4406  1.9777
  857MOL0     H13093   9.554   6.116   8.521 -1.3362  1.0163  0.3131
  857MOL0     H13094   9.514   6.352   8.595  0.1346 -0.1490  0.3059
  857MOL0     H13095   9.659   6.411   8.502  3.1467  2.6994  3.0773
  857MOL0     H13096   9.728   6.217   8.736 -0.1787  0.4803  0.6997
  857MOL0     H13097   9.814   6.321   8.634  0.2148 -1.1897 -0.7181
  857MOL0     H13098   9.767   6.423   8.882 -1.1199  0.7242  2.1069
  857MOL0     H13099   9.603   6.350   8.854 -0.9302 -0.8885 -2.8640
  857MOL0     H13100   9.529   6.533   8.736  0.1681 -0.1442 -1.9105
  857MOL0     H13101   9.705   6.569   8.695  0.4143  0.1532  0.4669
  857MOL0     H13102   9.600   6.591   8.994  0.9846  0.2038  0.1527
  857MOL0     H13103   9.736   6.661   8.924  0.0433 -1.5943 -0.2571
  857MOL0     H13104   9.571   6.832   8.955  2.1225  0.7558 -0.5840
  857MOL0     H13105   9.463   6.735   8.844 -1.2744  2.5330  2.1157
  857MOL0     H13106   9.402   6.239   8.095 -0.6548 -1.4372 -0.5862
  857MOL0     H13107   9.207   6.340   7.963 -2.5606  0.3653  0.5131
  857MOL0     H13108   8.997   6.877   7.932 -1.4256  1.7639 -1.9061
  857MOL0     H13109   8.797   6.964   7.789 -4.2181 -1.2970  2.0850
  857MOL0     H13110   7.431   6.513   6.502  0.0705 -2.5902 -3.2179
  857MOL0     H13111   7.470   6.622   6.266  0.2136 -1.9854  0.8089
  857MOL0     H13112   7.715   6.530   5.860 -2.5818  0.3904  1.3664
  857MOL0     H13113   7.726   6.648   5.628  0.2288 -1.3955  0.7438
  857MOL0     H13114   7.958   6.834   5.628 -1.2357  1.5855  1.8529
  857MOL0     H13115   7.947   6.990   5.559  1.1236 -1.1081 -0.3868
  857MOL0     H13116   7.846   6.733   5.408 -2.2653 -0.2027  0.7722
  857MOL0     H13117   7.803   6.893   5.367 -1.0609 -2.8068 -1.3700
  857MOL0     H13118   8.087   6.767   5.378  1.6002  0.6504 -0.0477
  857MOL0     H13119   8.076   6.949   5.358 -2.4585  0.5632 -0.1401
  857MOL0     H13120   7.949   6.937   5.161  0.3881  1.7469  0.3053
  857MOL0     H13121   8.113   6.874   5.151 -1.0714  1.7345 -3.1142
  857MOL0     H13122   7.909   6.510   5.078 -0.8634 -0.1973  0.2196
  857MOL0     H13123   7.764   7.026   5.808  0.2214 -1.2481 -2.1601
  857MOL0     H13124   7.762   6.913   6.041  0.3173  2.9656 -1.2554
  858MOL0     O13125   3.214   6.025   3.389 -0.3036 -0.9122 -0.1280
  858MOL0     C13126   3.129   5.988   3.470  0.0002 -0.3024 -0.2312
  858MOL0     O13127   3.041   5.883   3.450 -0.1049 -0.0502  0.1665
  858MOL0     C13128   3.061   5.797   3.349  0.0952  0.8430 -0.1797
  858MOL0     C13129   2.953   5.768   3.274  0.4302 -0.5587 -0.0140
  858MOL0     C13130   2.952   5.658   3.190  0.6508  0.7475  0.2832
  858MOL0     C13131   3.065   5.566   3.183 -0.1320 -0.7226  0.2694
  858MOL0     O13132   3.055   5.450   3.113 -0.1237  0.0084 -0.1768
  858MOL0     C13133   3.153   5.349   3.154  0.6794  0.1871 -0.2412
  858MOL0     C13134   3.125   5.222   3.072  0.8204  0.0974  0.1468
  858MOL0     C13135   3.162   5.241   2.920  0.2359 -0.6657 -0.2292
  858MOL0     C13136   3.108   5.357   2.842 -0.3551 -0.7183  0.8583
  858MOL0     C13137   3.147   5.347   2.694 -0.2923  0.4149  0.6878
  858MOL0     C13138   3.299   5.345   2.664  0.1212 -0.6880  0.3982
  858MOL0     C13139   3.338   5.344   2.517 -0.4444  0.2925  0.1726
  858MOL0     C13140   3.476   5.412   2.509  0.5665  0.0831  0.3155
  858MOL0     N13141   3.484   5.557   2.526 -0.4495  0.3955 -1.1069
  858MOL0     C13142   3.413   5.650   2.463  1.2127  0.0045 -0.4451
  858MOL0     C13143   3.453   5.769   2.521  0.1718 -0.9646 -1.0351
  858MOL0     C13144   3.399   5.905   2.486 -0.1178  0.0916  0.6271
  858MOL0     C13145   3.468   6.032   2.542  0.0099 -0.0767 -1.3790
  858MOL0     C13146   3.607   6.034   2.494  0.3714  0.2238 -1.0704
  858MOL0     C13147   3.679   6.156   2.542 -0.8641  0.1625 -1.5800
  858MOL0     O13148   3.825   6.154   2.549  0.3860  0.7123  0.0063
  858MOL0     C13149   3.891   6.213   2.442 -0.3864  0.7919 -0.0765
  858MOL0     C13150   3.858   6.168   2.306  0.3761  0.5653 -0.5783
  858MOL0     C13151   3.916   6.221   2.189 -0.9276 -0.8171 -0.4641
  858MOL0     C13152   4.023   6.312   2.200 -0.1478 -0.1677 -0.6807
  858MOL0     C13153   4.095   6.379   2.082 -0.1066  0.0087 -0.2822
  858MOL0     O13154   4.194   6.466   2.116  0.5114  0.9036 -0.4634
  858MOL0     C13155   4.265   6.545   2.036  0.2435 -1.0519  0.3719
  858MOL0     C13156   4.344   6.646   2.092 -0.0091  0.1006  0.5927
  858MOL0     C13157   4.437   6.723   2.010 -0.6669  0.2746  1.6114
  858MOL0     C13158   4.435   6.703   1.867  0.3827  1.2361  0.4929
  858MOL0     O13159   4.501   6.785   1.779 -0.0592  0.5234 -0.1040
  858MOL0     C13160   4.628   6.849   1.812  0.1747 -0.2737  0.3153
  858MOL0     C13161   4.727   6.821   1.692 -0.1992 -0.9995  0.0774
  858MOL0     C13162   4.862   6.901   1.719  0.4505  0.3550  1.3950
  858MOL0     C13163   4.969   6.845   1.629 -0.0115  1.0206  0.8127
  858MOL0     C13164   4.932   6.867   1.481  0.0260 -0.2324 -0.0768
  858MOL0     C13165   4.947   7.018   1.435  0.8682 -0.0200  0.2725
  858MOL0     C13166   5.086   7.073   1.423 -0.5456 -0.1443  0.5497
  858MOL0     C13167   5.165   7.141   1.534  0.7336  0.2044  0.0120
  858MOL0    Cl13168   5.075   7.296   1.586  0.0354 -0.0592 -0.7307
  858MOL0     C13169   4.356   6.602   1.816 -0.4161  0.5131 -0.1534
  858MOL0     C13170   4.284   6.528   1.901 -0.0014  0.1968 -0.4425
  858MOL0     O13171   4.074   6.333   1.968 -0.2085  0.5199 -0.0510
  858MOL0     C13172   4.061   6.353   2.339  0.3246 -0.4958  0.1957
  858MOL0     C13173   3.994   6.309   2.455  0.2681 -1.0669  0.0079
  858MOL0     N13174   3.534   5.740   2.625 -0.3698  0.1858 -0.7760
  858MOL0     N13175   3.566   5.613   2.620 -0.4250  0.8565 -0.0927
  858MOL0     C13176   3.175   5.606   3.252  0.0783 -1.5719  0.7727
  858MOL0     C13177   3.182   5.731   3.328  0.2440 -0.7106  0.3301
  858MOL0     C13178   3.128   6.051   3.602  0.1561 -0.6170  0.3562
  858MOL0     C13179   3.225   6.148   3.640  1.2024  0.2054 -0.4892
  858MOL0     C13180   3.220   6.217   3.765  0.5977 -0.3027 -0.2207
  858MOL0     C13181   3.107   6.199   3.857 -0.5668  0.3716  0.3094
  858MOL0     O13182   3.097   6.283   3.965  0.0223 -1.1804 -0.1217
  858MOL0     C13183   3.086   6.422   3.919 -0.0570 -1.0288  0.0955
  858MOL0     C13184   2.978   6.446   3.813 -0.7974 -0.1236 -0.4497
  858MOL0     C13185   2.840   6.416   3.843 -0.4335  0.6475  0.2312
  858MOL0     C13186   2.801   6.451   3.982  0.0216 -0.1794 -1.6569
  858MOL0     C13187   2.814   6.589   4.033 -0.0923 -0.0505  0.3696
  858MOL0     C13188   2.813   6.708   4.061  0.2819 -0.3585  0.0368
  858MOL0     C13189   3.010   6.110   3.814 -0.4841  1.1932  0.3649
  858MOL0     C13190   3.022   6.039   3.690 -0.4926  0.3756 -0.9813
  858MOL0     H13191   2.868   5.833   3.288  3.3832  3.3325  1.6758
  858MOL0     H13192   2.868   5.642   3.123  2.4753  1.6845 -2.4217
  858MOL0     H13193   3.126   5.318   3.255 -1.1106 -1.9055 -1.2864
  858MOL0     H13194   3.257   5.383   3.146  0.5183  1.1903  1.4927
  858MOL0     H13195   3.017   5.203   3.077  1.3616 -3.2229  2.9964
  858MOL0     H13196   3.161   5.124   3.103  0.0213 -0.9004 -1.8783
  858MOL0     H13197   3.154   5.151   2.859  1.5861 -0.8078 -0.2242
  858MOL0     H13198   3.270   5.252   2.935  0.1546 -1.2765  0.8830
  858MOL0     H13199   3.000   5.342   2.854 -0.5839  0.4513  0.3833
  858MOL0     H13200   3.148   5.451   2.880  2.8160 -0.5598 -2.3446
  858MOL0     H13201   3.106   5.437   2.647  0.5381 -1.1239 -3.4554
  858MOL0     H13202   3.092   5.265   2.647  0.0193  1.0622 -0.8807
  858MOL0     H13203   3.358   5.266   2.711 -0.9582  1.2353  5.6802
  858MOL0     H13204   3.341   5.440   2.696  0.0860  0.0841 -1.7077
  858MOL0     H13205   3.343   5.237   2.492  2.3546  0.2631  0.5442
  858MOL0     H13206   3.264   5.385   2.448  0.7671  0.1836 -1.2223
  858MOL0     H13207   3.499   5.400   2.402  2.3062  0.1110  0.6545
  858MOL0     H13208   3.555   5.369   2.570  0.2182 -2.9588 -1.2109
  858MOL0     H13209   3.353   5.635   2.373  2.0132  2.1140 -1.3981
  858MOL0     H13210   3.292   5.910   2.509 -0.2568  2.2554 -0.2228
  858MOL0     H13211   3.407   5.910   2.377 -4.7407  1.0635  0.1166
  858MOL0     H13212   3.458   6.022   2.651  0.8863  0.3812 -1.2473
  858MOL0     H13213   3.419   6.126   2.512  0.0678  0.1993 -0.6330
  858MOL0     H13214   3.660   5.949   2.538 -0.5883  1.0245  1.8810
  858MOL0     H13215   3.612   6.024   2.386  0.9366 -0.5454 -0.9844
  858MOL0     H13216   3.633   6.164   2.641  0.9745 -0.6011 -0.6272
  858MOL0     H13217   3.652   6.248   2.490  2.0534  1.5060 -0.8737
  858MOL0     H13218   3.791   6.084   2.291  1.2675  0.1407 -2.5133
  858MOL0     H13219   3.881   6.188   2.092 -0.6222 -0.3195 -0.7494
  858MOL0     H13220   4.346   6.653   2.200 -2.0328 -0.1818  0.6871
  858MOL0     H13221   4.499   6.793   2.066  0.5086 -0.9113  1.8599
  858MOL0     H13222   4.670   6.802   1.901 -0.5982 -2.4986 -0.4166
  858MOL0     H13223   4.620   6.956   1.830 -0.4381 -0.4509  1.1554
  858MOL0     H13224   4.680   6.849   1.597 -3.2000 -3.7507  0.5552
  858MOL0     H13225   4.758   6.716   1.687 -0.0230 -1.0996  2.3366
  858MOL0     H13226   4.897   6.892   1.822  1.4215 -3.4058  0.8535
  858MOL0     H13227   4.855   7.009   1.704  0.5780  0.2328  0.3878
  858MOL0     H13228   5.061   6.896   1.657  1.0965  0.3176 -1.3308
  858MOL0     H13229   4.974   6.737   1.647 -1.7572  0.9406  1.0017
  858MOL0     H13230   4.832   6.826   1.462  0.8133 -1.6996 -1.2712
  858MOL0     H13231   4.987   6.809   1.406 -0.7304 -1.6817  0.4328
  858MOL0     H13232   4.879   7.081   1.493  3.1406  2.5609  0.2973
  858MOL0     H13233   4.908   7.020   1.333  4.3690  1.2000 -1.1889
  858MOL0     H13234   5.158   7.001   1.381  0.1300  0.7698  0.0976
  858MOL0     H13235   5.074   7.148   1.345 -1.6777 -0.3258  0.5409
  858MOL0     H13236   5.265   7.160   1.493  0.0187  2.7993 -0.6632
  858MOL0     H13237   5.170   7.081   1.626 -1.3918 -1.7631 -1.0482
  858MOL0     H13238   4.361   6.581   1.709  2.6017 -1.6955  0.3047
  858MOL0     H13239   4.238   6.445   1.850 -0.9889 -0.2478  1.0885
  858MOL0     H13240   4.150   6.414   2.353 -0.1832  0.1207  0.8763
  858MOL0     H13241   4.022   6.342   2.554  1.8168  0.3968 -0.8895
  858MOL0     H13242   3.267   5.551   3.270 -0.2913 -1.6200  2.7080
  858MOL0     H13243   3.277   5.752   3.377 -0.3087  0.0745  1.0898
  858MOL0     H13244   3.305   6.170   3.570 -0.8489 -1.0975 -3.4228
  858MOL0     H13245   3.298   6.290   3.785  0.3090  0.1228 -0.6356
  858MOL0     H13246   3.180   6.457   3.876  0.3430 -1.5290  0.5571
  858MOL0     H13247   3.073   6.478   4.012 -5.2063 -2.3464  0.4769
  858MOL0     H13248   2.980   6.552   3.788 -1.0856 -0.1732 -0.6931
  858MOL0     H13249   3.001   6.397   3.718 -2.9698 -1.2119 -0.4877
  858MOL0     H13250   2.817   6.310   3.830  2.3435 -0.0718  0.6049
  858MOL0     H13251   2.778   6.479   3.778 -0.2028  0.1408 -0.4900
  858MOL0     H13252   2.695   6.435   4.003 -0.1335  1.8487 -0.6678
  858MOL0     H13253   2.852   6.383   4.051 -1.5000 -0.0600 -0.3334
  858MOL0     H13254   2.796   6.814   4.073 -1.1696  0.6013 -6.4356
  858MOL0     H13255   2.929   6.100   3.884  0.9998  1.5830  2.2099
  858MOL0     H13256   2.934   5.981   3.663 -3.4580  2.3615  3.2139
  859MOL0     O13257   7.393   4.627   0.117  0.7576  1.0166 -0.3062
  859MOL0     C13258   7.315   4.638   0.025  0.7614  0.3555 -0.2030
  859MOL0     O13259   7.291   4.761  -0.040  0.3909 -0.7742  0.4966
  859MOL0     C13260   7.379   4.863  -0.032 -0.5509 -0.6671  0.0605
  859MOL0     C13261   7.336   4.989  -0.052 -0.0556  0.4957  0.1010
  859MOL0     C13262   7.430   5.094  -0.081  1.3490  0.0527 -0.6259
  859MOL0     C13263   7.568   5.063  -0.078 -0.2828 -0.9365 -0.5673
  859MOL0     O13264   7.664   5.168  -0.082  0.4668  0.3053  0.1405
  859MOL0     C13265   7.724   5.172  -0.214  0.3822  0.2924  0.3794
  859MOL0     C13266   7.625   5.225  -0.329  0.6340 -0.0600  0.0825
  859MOL0     C13267   7.602   5.373  -0.340 -0.0226  0.8203 -0.7232
  859MOL0     C13268   7.514   5.392  -0.472 -0.7817 -0.2053 -0.8834
  859MOL0     C13269   7.491   5.539  -0.518 -0.0521 -1.0158 -1.0659
  859MOL0     C13270   7.378   5.535  -0.626  0.4137 -0.2337  0.5826
  859MOL0     C13271   7.374   5.668  -0.699 -0.6250  0.3929  0.9427
  859MOL0     C13272   7.491   5.695  -0.795  0.1719  0.3255 -1.0414
  859MOL0     N13273   7.493   5.595  -0.902 -1.2595 -0.4970  0.2165
  859MOL0     C13274   7.606   5.521  -0.929  0.9548 -0.4159 -0.1918
  859MOL0     C13275   7.593   5.482  -1.059 -0.1631 -0.5692  0.2778
  859MOL0     C13276   7.682   5.382  -1.142  0.1599  0.8949  0.0135
  859MOL0     C13277   7.741   5.440  -1.260  0.3645  0.2876  0.6638
  859MOL0     C13278   7.648   5.471  -1.373  0.0324  0.3136  0.0340
  859MOL0     C13279   7.717   5.513  -1.508 -0.6915  1.1217  0.1602
  859MOL0     O13280   7.686   5.646  -1.555 -0.0073  0.4022  0.1424
  859MOL0     C13281   7.745   5.685  -1.675  0.4171 -0.4115 -0.6377
  859MOL0     C13282   7.681   5.792  -1.724  0.7065  0.3400  0.8531
  859MOL0     C13283   7.727   5.848  -1.834 -0.0654  0.0905  0.1917
  859MOL0     C13284   7.843   5.797  -1.894  0.6894 -0.4524  1.0084
  859MOL0     C13285   7.898   5.856  -2.020  0.0268 -0.1925  0.0156
  859MOL0     O13286   7.857   5.985  -2.045 -0.3601  0.6044  0.3898
  859MOL0     C13287   7.896   6.059  -2.150  0.6559  0.2064 -0.8765
  859MOL0     C13288   8.023   6.090  -2.184 -1.1708 -0.4287 -0.1685
  859MOL0     C13289   8.055   6.168  -2.301  0.7311 -0.0436 -0.5244
  859MOL0     C13290   7.960   6.210  -2.384  0.3451 -0.6265 -0.1434
  859MOL0     O13291   7.974   6.270  -2.507  0.2059 -0.6273  0.0815
  859MOL0     C13292   8.086   6.359  -2.532 -0.6684 -0.3039  1.4876
  859MOL0     C13293   8.050   6.472  -2.633 -0.3880  0.3447  0.4065
  859MOL0     C13294   8.177   6.540  -2.673  0.2846 -0.4050  0.1301
  859MOL0     C13295   8.138   6.684  -2.723 -0.9109  0.7180 -0.4774
  859MOL0     C13296   8.260   6.748  -2.782 -0.2315 -0.7629  0.9973
  859MOL0     C13297   8.237   6.903  -2.807  0.3406  0.5406 -0.5992
  859MOL0     C13298   8.367   6.987  -2.819  0.7384 -0.3587 -0.3294
  859MOL0     C13299   8.334   7.136  -2.845 -0.6792 -0.1663  0.5013
  859MOL0    Cl13300   8.486   7.224  -2.831 -0.1611 -0.6645 -0.3494
  859MOL0     C13301   7.830   6.188  -2.342 -0.5994  0.0383 -0.2257
  859MOL0     C13302   7.796   6.112  -2.229 -0.2015  0.1324 -0.2052
  859MOL0     O13303   7.985   5.802  -2.091  0.7412  0.5418  0.1157
  859MOL0     C13304   7.900   5.680  -1.854  0.9904  1.1270 -0.3452
  859MOL0     C13305   7.853   5.626  -1.734  0.8069 -0.0630  0.8057
  859MOL0     N13306   7.466   5.530  -1.101  0.3829 -0.2970  0.2187
  859MOL0     N13307   7.405   5.592  -1.007 -0.1609  0.7421  1.1271
  859MOL0     C13308   7.617   4.938  -0.044 -0.5458 -0.3878  0.3797
  859MOL0     C13309   7.518   4.839  -0.031  1.0972  1.1206 -0.0014
  859MOL0     C13310   7.243   4.519  -0.015 -0.8984 -0.0825  0.3122
  859MOL0     C13311   7.146   4.529  -0.114 -0.5443 -0.4711  0.3257
  859MOL0     C13312   7.074   4.418  -0.150  0.9050 -0.1987 -0.6328
  859MOL0     C13313   7.105   4.289  -0.096  0.6001 -0.2232  0.0873
  859MOL0     O13314   7.065   4.178  -0.143  0.1767 -1.3867 -0.1259
  859MOL0     C13315   6.965   4.161  -0.243  0.6224 -0.6961  0.2264
  859MOL0     C13316   6.953   4.021  -0.298 -0.3974  0.4767 -0.4304
  859MOL0     C13317   7.031   4.012  -0.431 -0.2272 -0.0382 -0.0225
  859MOL0     C13318   7.024   3.874  -0.481  0.4454  0.2523 -0.1053
  859MOL0     C13319   6.887   3.817  -0.473  0.8199  0.1632  0.6669
  859MOL0     C13320   6.772   3.774  -0.472  0.1987  1.2352  0.0908
  859MOL0     C13321   7.193   4.286   0.014  0.0677  0.1857 -0.3996
  859MOL0     C13322   7.266   4.396   0.053 -0.3982  0.7982 -0.1405
  859MOL0     H13323   7.228   4.999  -0.065 -0.1141 -0.1823  0.0147
  859MOL0     H13324   7.399   5.194  -0.108  2.5945  0.9121  0.9636
  859MOL0     H13325   7.759   5.074  -0.248 -1.7009 -0.2197 -0.4685
  859MOL0     H13326   7.807   5.243  -0.213  2.3021 -1.8018 -0.7970
  859MOL0     H13327   7.525   5.184  -0.314 -0.2717  1.9255 -0.3008
  859MOL0     H13328   7.672   5.197  -0.424  1.4367 -1.0664  0.7588
  859MOL0     H13329   7.692   5.433  -0.350 -0.2735  1.7872  2.0446
  859MOL0     H13330   7.556   5.400  -0.245  1.6527  0.0100  0.3594
  859MOL0     H13331   7.563   5.338  -0.553 -2.3104 -1.4088 -1.0721
  859MOL0     H13332   7.415   5.352  -0.448 -1.2639  1.8999  1.0514
  859MOL0     H13333   7.582   5.580  -0.562  0.5863  2.0886  2.5509
  859MOL0     H13334   7.452   5.600  -0.436 -0.2345 -1.7694 -0.5712
  859MOL0     H13335   7.284   5.517  -0.574 -0.6179 -0.0384 -1.1379
  859MOL0     H13336   7.402   5.461  -0.703 -0.5795  2.8449 -2.9775
  859MOL0     H13337   7.276   5.671  -0.746 -0.6315  1.5342  0.9944
  859MOL0     H13338   7.375   5.749  -0.625  0.4448  1.9105 -0.6520
  859MOL0     H13339   7.578   5.696  -0.729 -0.6154  2.4480  0.0920
  859MOL0     H13340   7.478   5.794  -0.840 -2.1673  1.6457  2.0741
  859MOL0     H13341   7.687   5.487  -0.865  3.2813  1.7757 -1.8010
  859MOL0     H13342   7.621   5.296  -1.174  3.0100 -1.9583  1.6205
  859MOL0     H13343   7.769   5.352  -1.083 -0.3302 -0.2849  0.1839
  859MOL0     H13344   7.812   5.362  -1.288 -2.9580 -2.8361  0.1843
  859MOL0     H13345   7.791   5.530  -1.221 -0.4724  0.1308  2.1813
  859MOL0     H13346   7.581   5.391  -1.405  1.8940  0.4606 -5.2165
  859MOL0     H13347   7.586   5.553  -1.335 -1.1707 -1.2668  1.6746
  859MOL0     H13348   7.695   5.446  -1.592  0.1106  1.8015 -0.6165
  859MOL0     H13349   7.824   5.495  -1.493 -0.4945  1.8913 -0.2216
  859MOL0     H13350   7.588   5.811  -1.671  1.1909  1.3785  1.3726
  859MOL0     H13351   7.670   5.929  -1.878  0.8797  1.6061  1.6000
  859MOL0     H13352   8.100   6.055  -2.117 -1.6353 -0.6036  0.2836
  859MOL0     H13353   8.160   6.182  -2.328  1.2296  1.4387  1.9218
  859MOL0     H13354   8.179   6.305  -2.552 -1.5142 -1.6286  0.9816
  859MOL0     H13355   8.113   6.402  -2.435  2.9847 -1.5248  1.1587
  859MOL0     H13356   7.971   6.532  -2.587 -1.2800 -1.8688  1.9639
  859MOL0     H13357   8.011   6.419  -2.719  2.5197  0.2651 -0.9810
  859MOL0     H13358   8.225   6.491  -2.759  4.6751  2.5200  0.6214
  859MOL0     H13359   8.250   6.535  -2.592  1.4894 -0.7039 -0.9357
  859MOL0     H13360   8.054   6.685  -2.793 -1.6516  0.3893  0.3898
  859MOL0     H13361   8.102   6.730  -2.631 -2.9856 -2.9119  0.7153
  859MOL0     H13362   8.287   6.688  -2.869  1.1254 -1.6756  1.9900
  859MOL0     H13363   8.348   6.738  -2.718  1.6427  0.7610 -1.1841
  859MOL0     H13364   8.182   6.949  -2.724  0.6636 -1.9851  1.1136
  859MOL0     H13365   8.169   6.926  -2.889 -1.2196  0.8677  0.7359
  859MOL0     H13366   8.426   6.978  -2.727  1.2199 -2.0720 -0.7672
  859MOL0     H13367   8.432   6.962  -2.904  1.7004 -0.0955  0.3158
  859MOL0     H13368   8.249   7.166  -2.784 -1.0879 -0.9403  0.3190
  859MOL0     H13369   8.311   7.144  -2.951 -0.2987  1.2723  0.4981
  859MOL0     H13370   7.752   6.231  -2.404 -1.4755 -1.4039 -0.1716
  859MOL0     H13371   7.691   6.097  -2.208 -0.4851 -1.9980 -2.7156
  859MOL0     H13372   7.988   5.644  -1.905  1.1388 -0.0638  0.7189
  859MOL0     H13373   7.908   5.541  -1.694 -0.7895 -1.3600  0.3563
  859MOL0     H13374   7.726   4.931  -0.048 -0.3384  1.4287  1.6872
  859MOL0     H13375   7.566   4.743  -0.016 -1.8285 -1.2539 -3.7132
  859MOL0     H13376   7.129   4.629  -0.152  3.2799  0.7349  1.3429
  859MOL0     H13377   7.002   4.430  -0.231  0.6804  0.1417 -0.3857
  859MOL0     H13378   6.974   4.236  -0.322 -1.6743  1.7770  2.1239
  859MOL0     H13379   6.868   4.179  -0.194  0.3692 -0.1343 -0.4634
  859MOL0     H13380   6.983   3.952  -0.218 -0.0035  1.3151  0.1523
  859MOL0     H13381   6.848   4.003  -0.324  0.4208 -4.4691 -1.4811
  859MOL0     H13382   7.135   4.032  -0.406 -0.8461  1.6661  1.3869
  859MOL0     H13383   7.001   4.082  -0.510  0.1141  0.8184  0.5899
  859MOL0     H13384   7.065   3.855  -0.581 -1.4172 -3.1908 -0.3717
  859MOL0     H13385   7.083   3.808  -0.416 -0.8926 -2.6373 -1.6366
  859MOL0     H13386   6.676   3.727  -0.475  0.4706  0.6950 -1.4759
  859MOL0     H13387   7.206   4.199   0.077  2.8928  0.9120  0.1894
  859MOL0     H13388   7.346   4.384   0.125 -2.7971 -1.7755  2.3226
  860MOL0     O13389   4.530   1.863  10.732 -0.0276  0.4724 -0.0494
  860MOL0     C13390   4.651   1.831  10.700  0.1713  1.0132 -0.6733
  860MOL0     O13391   4.752   1.916  10.665 -0.2638  0.3740 -0.0867
  860MOL0     C13392   4.741   2.054  10.647  0.1384  0.1197  0.2648
  860MOL0     C13393   4.853   2.111  10.575  1.0236 -0.5831 -0.3191
  860MOL0     C13394   4.854   2.244  10.535 -0.7409 -0.6202  0.2678
  860MOL0     C13395   4.737   2.323  10.550  0.7409 -0.0691  0.4026
  860MOL0     O13396   4.718   2.448  10.492 -0.2423 -0.4152  0.7989
  860MOL0     C13397   4.764   2.464  10.363 -0.7791 -0.5320  0.1723
  860MOL0     C13398   4.670   2.410  10.255  0.8903  0.6428  1.5570
  860MOL0     C13399   4.763   2.405  10.138 -0.7902  0.1704  0.1747
  860MOL0     C13400   4.683   2.344  10.014 -0.3900 -0.4431  0.0993
  860MOL0     C13401   4.773   2.316   9.890  0.0501  0.2481  0.1199
  860MOL0     C13402   4.820   2.443   9.823 -0.6947 -0.5248  0.3352
  860MOL0     C13403   4.876   2.425   9.682 -1.1338  0.1438  0.3931
  860MOL0     C13404   4.918   2.546   9.589  0.3838 -0.2055  0.3942
  860MOL0     N13405   5.061   2.539   9.573 -0.3819 -0.5212  0.1173
  860MOL0     C13406   5.132   2.436   9.524  0.1987  0.6165 -0.2455
  860MOL0     C13407   5.261   2.465   9.548 -0.0177  0.9115  0.3526
  860MOL0     C13408   5.369   2.369   9.503 -0.4194 -0.2097  0.3285
  860MOL0     C13409   5.454   2.430   9.388  0.0960 -0.5299 -0.6673
  860MOL0     C13410   5.580   2.343   9.362  0.8126  1.0075  1.3124
  860MOL0     C13411   5.631   2.384   9.223 -0.2621  0.5212 -0.6103
  860MOL0     O13412   5.660   2.526   9.224  0.3205  0.1979  0.4305
  860MOL0     C13413   5.764   2.572   9.296  0.5678  0.7817 -0.1507
  860MOL0     C13414   5.861   2.499   9.364 -0.1515  0.6262 -0.5707
  860MOL0     C13415   5.939   2.557   9.464 -0.2501 -0.2255 -0.3527
  860MOL0     C13416   5.917   2.689   9.508  0.0040 -0.8150  0.2042
  860MOL0     C13417   5.977   2.750   9.621  0.6429  0.1001  0.4316
  860MOL0     O13418   5.913   2.852   9.675  0.0868  0.5480 -0.1909
  860MOL0     C13419   5.956   2.909   9.793  1.0787  0.7579 -0.5690
  860MOL0     C13420   6.031   3.024   9.798 -0.1168  0.2008 -0.2076
  860MOL0     C13421   6.085   3.073   9.920 -0.1950  0.5711  0.2431
  860MOL0     C13422   6.043   3.012  10.039  0.3702 -0.4755 -0.1105
  860MOL0     O13423   6.102   3.058  10.157  0.1306 -0.6208 -0.3352
  860MOL0     C13424   6.036   3.094  10.286 -0.0680 -0.8511 -0.5310
  860MOL0     C13425   5.984   3.239  10.280 -0.0119  0.2817  0.1727
  860MOL0     C13426   5.879   3.275  10.180  0.2793  0.4654  0.2447
  860MOL0     C13427   5.798   3.397  10.235 -0.7176  0.8347 -0.6772
  860MOL0     C13428   5.679   3.434  10.135  0.2107 -0.2447  0.1334
  860MOL0     C13429   5.595   3.552  10.202  0.0213 -0.8471  0.5878
  860MOL0     C13430   5.513   3.634  10.106  1.2546 -0.4177 -0.3493
  860MOL0     C13431   5.596   3.707  10.002  0.3544 -0.2757 -0.1447
  860MOL0    Cl13432   5.501   3.838   9.931  0.3214 -0.2013 -0.1630
  860MOL0     C13433   5.964   2.902  10.035 -0.4575 -0.9727 -0.7433
  860MOL0     C13434   5.913   2.858   9.915 -0.1808  0.9800 -0.9766
  860MOL0     O13435   6.089   2.708   9.656 -0.2549  0.1283  0.0613
  860MOL0     C13436   5.823   2.761   9.439  0.0678  0.8700  0.5685
  860MOL0     C13437   5.746   2.703   9.337  0.8115  0.7430 -0.4892
  860MOL0     N13438   5.266   2.597   9.583  0.1288  0.8371 -0.1921
  860MOL0     N13439   5.145   2.642   9.586  0.2448 -0.1919  0.1886
  860MOL0     C13440   4.632   2.268  10.638  0.5554  0.0418  1.2380
  860MOL0     C13441   4.642   2.139  10.691  0.0671  0.7581  0.2631
  860MOL0     C13442   4.672   1.683  10.688  0.0602 -0.7282  0.0251
  860MOL0     C13443   4.604   1.597  10.781  0.6268  0.0749  0.7984
  860MOL0     C13444   4.608   1.454  10.770  0.1398 -0.0544  0.0212
  860MOL0     C13445   4.685   1.398  10.667  1.2048  1.1177  0.4915
  860MOL0     O13446   4.706   1.260  10.663  0.5093  0.0653 -0.2058
  860MOL0     C13447   4.829   1.217  10.713 -0.1111  0.2640 -0.2153
  860MOL0     C13448   4.813   1.087  10.785 -1.1075  0.8253 -0.2270
  860MOL0     C13449   4.937   1.043  10.865 -0.0192  0.5626 -0.2427
  860MOL0     C13450   4.910   0.909  10.943 -0.2828  0.4905  0.4451
  860MOL0     C13451   4.916   0.790  10.858 -0.5024 -0.1399  0.4323
  860MOL0     C13452   4.948   0.692  10.790  0.1503 -0.3878 -0.1960
  860MOL0     C13453   4.762   1.480  10.581  0.2018  0.0280 -0.6693
  860MOL0     C13454   4.760   1.621  10.597  1.1853 -0.0004  0.8235
  860MOL0     H13455   4.944   2.054  10.560  0.4570 -0.9171 -2.8814
  860MOL0     H13456   4.945   2.271  10.482 -0.4163 -2.8181 -0.3758
  860MOL0     H13457   4.869   2.437  10.368 -0.8552 -0.6287  2.5531
  860MOL0     H13458   4.772   2.570  10.336  1.6242 -0.5738  0.4993
  860MOL0     H13459   4.595   2.488  10.242  1.6898  1.0725 -1.0302
  860MOL0     H13460   4.631   2.310  10.276  1.6064  0.3158  1.3914
  860MOL0     H13461   4.846   2.338  10.163 -0.8911 -0.3681 -0.8599
  860MOL0     H13462   4.806   2.505  10.127 -0.9080  0.2179  0.1452
  860MOL0     H13463   4.638   2.251  10.051 -2.0790 -0.1793 -1.1386
  860MOL0     H13464   4.596   2.402   9.982 -1.0348 -1.7071 -0.5391
  860MOL0     H13465   4.729   2.248   9.816  1.4410 -1.1135  0.4725
  860MOL0     H13466   4.857   2.250   9.915  0.5031  1.2915  1.4359
  860MOL0     H13467   4.896   2.479   9.892  1.1035 -1.9168 -0.8329
  860MOL0     H13468   4.735   2.513   9.822  0.0883  0.4624  0.9763
  860MOL0     H13469   4.955   2.351   9.693 -2.9500 -2.2529 -1.5892
  860MOL0     H13470   4.794   2.381   9.624 -0.3546  0.9253 -1.3407
  860MOL0     H13471   4.894   2.642   9.636  1.1170  0.1418  0.0766
  860MOL0     H13472   4.870   2.543   9.491  2.0210  3.8637 -0.7516
  860MOL0     H13473   5.085   2.356   9.468  1.5432  1.2237 -2.3770
  860MOL0     H13474   5.329   2.272   9.471 -2.3253 -0.1934  2.4157
  860MOL0     H13475   5.430   2.348   9.591 -0.7706  1.0531  0.8793
  860MOL0     H13476   5.472   2.537   9.403  1.6177 -0.1216 -4.4207
  860MOL0     H13477   5.394   2.428   9.297 -2.1095  0.9370  0.6535
  860MOL0     H13478   5.652   2.350   9.444  0.3254 -1.8476  2.0897
  860MOL0     H13479   5.541   2.241   9.357 -1.3102  1.8276 -0.6180
  860MOL0     H13480   5.564   2.371   9.138  0.1314 -1.4740 -0.6528
  860MOL0     H13481   5.723   2.335   9.191  0.1489  0.7524  0.1926
  860MOL0     H13482   5.880   2.394   9.343 -0.0243  0.0055  2.2604
  860MOL0     H13483   6.016   2.500   9.514 -0.1825  0.9277  0.9219
  860MOL0     H13484   6.073   3.069   9.708  1.2501 -1.1670 -0.2864
  860MOL0     H13485   6.160   3.150   9.929 -1.1249  1.2825  3.1403
  860MOL0     H13486   6.106   3.084  10.369  1.1074 -0.5414 -1.4499
  860MOL0     H13487   5.942   3.039  10.291 -1.9437  2.0974 -0.4990
  860MOL0     H13488   6.060   3.316  10.265 -1.4555  1.6047 -0.6035
  860MOL0     H13489   5.947   3.261  10.380 -0.4930 -1.5643  0.4427
  860MOL0     H13490   5.816   3.189  10.156 -1.2018  1.1332  1.5566
  860MOL0     H13491   5.933   3.304  10.090  0.9198 -0.0877  0.4487
  860MOL0     H13492   5.754   3.379  10.333  1.0407 -0.4246 -0.0581
  860MOL0     H13493   5.869   3.481  10.239  0.1986  0.0603 -0.2784
  860MOL0     H13494   5.613   3.348  10.119 -0.0333  0.1884 -1.3202
  860MOL0     H13495   5.706   3.468  10.035 -0.5239 -0.0794 -0.0103
  860MOL0     H13496   5.662   3.620  10.256 -0.0869 -1.0438  0.9730
  860MOL0     H13497   5.532   3.511  10.281 -0.2007 -0.6940  0.4938
  860MOL0     H13498   5.424   3.586  10.063 -1.8433  3.0559  1.5379
  860MOL0     H13499   5.472   3.714  10.169  1.5627  0.3385 -1.0897
  860MOL0     H13500   5.610   3.631   9.924  1.0856 -0.1479 -0.1473
  860MOL0     H13501   5.685   3.749  10.048  0.4107  0.5505 -0.9686
  860MOL0     H13502   5.949   2.852  10.131 -1.1072 -0.4747 -0.5767
  860MOL0     H13503   5.848   2.772   9.928 -1.6211  2.4258  2.6690
  860MOL0     H13504   5.789   2.862   9.458 -3.7407 -0.5422  2.4289
  860MOL0     H13505   5.675   2.768   9.287  1.0173 -0.3390 -2.2517
  860MOL0     H13506   4.539   2.319  10.661 -0.0492 -1.1013  1.3975
  860MOL0     H13507   4.552   2.109  10.743  0.5842 -0.8850  0.2673
  860MOL0     H13508   4.547   1.631  10.866 -1.7079 -1.6692  0.0320
  860MOL0     H13509   4.546   1.397  10.838  0.0300 -1.6295 -1.3421
  860MOL0     H13510   4.852   1.289  10.793 -3.1430  0.1024  0.9594
  860MOL0     H13511   4.912   1.203  10.643  1.6510 -4.0956  2.3708
  860MOL0     H13512   4.736   1.110  10.858  2.3726  6.0952  2.4819
  860MOL0     H13513   4.798   1.012  10.707 -0.1280 -0.5289  0.8472
  860MOL0     H13514   4.964   1.116  10.942  1.1166  2.3164 -2.2283
  860MOL0     H13515   5.020   1.014  10.800  0.3772  2.0875 -0.4578
  860MOL0     H13516   4.980   0.891  11.025 -1.1806  2.9854  1.8735
  860MOL0     H13517   4.812   0.909  10.991  0.0719 -1.7308  1.2692
  860MOL0     H13518   4.998   0.617  10.732 -1.2930 -1.1597 -0.4895
  860MOL0     H13519   4.827   1.427  10.512 -1.0894 -4.7173  1.3083
  860MOL0     H13520   4.813   1.688  10.530  1.9253 -0.0965  1.3071
  861MOL0     O13521   8.958   2.492   9.007  0.1483  0.2787  0.0016
  861MOL0     C13522   9.030   2.563   9.083  0.8948 -0.5954  0.3291
  861MOL0     O13523   8.994   2.655   9.175  0.0317 -0.1315  0.8950
  861MOL0     C13524   8.865   2.720   9.184  0.1486  0.0598 -0.0044
  861MOL0     C13525   8.863   2.847   9.241  0.3091 -0.2228 -0.5627
  861MOL0     C13526   8.749   2.921   9.253 -0.4849  0.1542 -0.1782
  861MOL0     C13527   8.626   2.863   9.228 -0.0061 -0.2068 -0.0476
  861MOL0     O13528   8.509   2.931   9.263 -0.1265  0.0419 -0.2151
  861MOL0     C13529   8.379   2.866   9.264 -0.0899  0.3616  0.4808
  861MOL0     C13530   8.286   2.980   9.284  0.4907 -1.1808  0.0470
  861MOL0     C13531   8.146   2.934   9.301 -0.0703 -0.6625 -0.5940
  861MOL0     C13532   8.045   3.045   9.254 -0.1608  1.6547  0.1432
  861MOL0     C13533   8.025   3.170   9.345  0.3898 -0.3182  0.5861
  861MOL0     C13534   7.943   3.153   9.464 -0.7571 -0.8252 -0.0023
  861MOL0     C13535   7.799   3.095   9.429 -0.8394 -0.1005 -0.2204
  861MOL0     C13536   7.730   3.166   9.319  0.2488 -0.1653  0.0183
  861MOL0     N13537   7.581   3.132   9.340 -0.1972  0.0569  0.9796
  861MOL0     C13538   7.485   3.178   9.424 -0.3285  0.2181 -0.5390
  861MOL0     C13539   7.363   3.124   9.385 -0.2126  0.2248  0.3796
  861MOL0     C13540   7.225   3.152   9.428 -0.2191  0.2560 -0.0446
  861MOL0     C13541   7.205   3.206   9.568  0.3804 -1.2986 -0.2608
  861MOL0     C13542   7.216   3.113   9.696 -0.5455  0.1504 -0.0549
  861MOL0     C13543   7.359   3.100   9.762  0.5004 -0.0270 -0.7301
  861MOL0     O13544   7.403   3.225   9.816  0.8195  0.1412  0.3923
  861MOL0     C13545   7.533   3.264   9.815  0.1801 -0.4917 -0.5096
  861MOL0     C13546   7.628   3.171   9.823 -0.1679  0.2591 -0.5390
  861MOL0     C13547   7.759   3.211   9.839 -0.5046 -0.5778  1.6020
  861MOL0     C13548   7.798   3.350   9.840  0.2474 -0.8875 -0.4353
  861MOL0     C13549   7.944   3.386   9.855 -0.3527 -0.0803  0.2461
  861MOL0     O13550   7.985   3.515   9.871 -0.5621 -0.2198  0.8255
  861MOL0     C13551   8.108   3.551   9.907 -0.9450  0.7753 -0.3320
  861MOL0     C13552   8.180   3.514  10.024 -0.0308 -0.2432 -0.2875
  861MOL0     C13553   8.308   3.555  10.042 -0.2068 -0.5976 -0.7415
  861MOL0     C13554   8.377   3.639   9.956 -0.1164  0.5021 -0.2283
  861MOL0     O13555   8.508   3.687   9.973  0.1006 -0.3997  0.2627
  861MOL0     C13556   8.574   3.687  10.105  1.7729 -0.5203  0.0482
  861MOL0     C13557   8.720   3.743  10.101 -0.5416 -0.2310 -0.3969
  861MOL0     C13558   8.826   3.628  10.056  0.9887 -0.2640  0.5156
  861MOL0     C13559   8.866   3.524  10.167 -0.6664  0.7060  0.0257
  861MOL0     C13560   8.971   3.419  10.101  0.8369 -0.6890 -0.7582
  861MOL0     C13561   8.978   3.294  10.194 -0.7534 -0.5338 -1.1795
  861MOL0     C13562   9.084   3.195  10.152 -0.3857  0.3828  0.0451
  861MOL0     C13563   9.046   3.059  10.224  0.3421  0.1912  0.6279
  861MOL0    Cl13564   9.100   3.068  10.401 -0.2659 -0.5312  0.5629
  861MOL0     C13565   8.303   3.667   9.843  0.7341 -0.0721  0.3915
  861MOL0     C13566   8.168   3.631   9.814 -1.6602 -0.7122  0.0515
  861MOL0     O13567   8.021   3.297   9.840  0.3234  0.0795  0.4554
  861MOL0     C13568   7.694   3.453   9.834  0.1534  0.2232  0.3266
  861MOL0     C13569   7.561   3.402   9.831  0.3399  1.1212 -0.4603
  861MOL0     N13570   7.392   3.065   9.272 -0.0181 -0.3983  0.6547
  861MOL0     N13571   7.518   3.071   9.241 -0.1283  0.5510 -0.2292
  861MOL0     C13572   8.623   2.730   9.180  0.1266 -0.4888  0.2852
  861MOL0     C13573   8.749   2.657   9.158  0.3790 -0.7168 -0.3273
  861MOL0     C13574   9.179   2.557   9.062 -0.0387  1.3441  0.5062
  861MOL0     C13575   9.233   2.451   8.990  0.0712 -0.6786 -0.4903
  861MOL0     C13576   9.368   2.450   8.954 -0.8725 -0.5617 -0.2481
  861MOL0     C13577   9.461   2.550   8.996 -0.3756  0.2396 -1.3888
  861MOL0     O13578   9.596   2.553   8.971  0.9259 -0.3892 -0.2076
  861MOL0     C13579   9.674   2.554   9.091 -0.8027 -0.9985 -0.4188
  861MOL0     C13580   9.818   2.496   9.062  0.4158  0.6655 -0.4762
  861MOL0     C13581   9.875   2.541   8.927  0.7999  0.2561 -0.3797
  861MOL0     C13582  10.007   2.458   8.885 -0.1242  0.4907  0.2746
  861MOL0     C13583   9.983   2.308   8.874  0.0647  0.1063 -0.0996
  861MOL0     C13584   9.948   2.190   8.861  0.4466  0.4774 -0.3690
  861MOL0     C13585   9.406   2.656   9.070  0.1720 -0.0971 -0.1057
  861MOL0     C13586   9.267   2.662   9.093 -0.2575  0.1252  0.1434
  861MOL0     H13587   8.950   2.888   9.291 -2.0496  1.4218  2.5017
  861MOL0     H13588   8.751   3.021   9.295 -2.0476  0.0134  0.2668
  861MOL0     H13589   8.378   2.783   9.335  1.5391  1.4417  1.8204
  861MOL0     H13590   8.346   2.819   9.170 -1.1894 -0.8125  1.4219
  861MOL0     H13591   8.289   3.050   9.200  0.1360  0.5027  1.3856
  861MOL0     H13592   8.327   3.033   9.370 -1.3728  1.6514 -0.6622
  861MOL0     H13593   8.122   2.909   9.405 -2.8915  1.1339 -0.7164
  861MOL0     H13594   8.151   2.836   9.252  3.5607 -0.4472 -0.9271
  861MOL0     H13595   8.080   3.081   9.157  0.6471  1.6590  0.4317
  861MOL0     H13596   7.950   2.989   9.249 -0.8682  2.8974 -1.2582
  861MOL0     H13597   7.980   3.242   9.275  2.1138  1.6826  1.4290
  861MOL0     H13598   8.127   3.204   9.363  0.0579  2.9218 -2.5810
  861MOL0     H13599   7.928   3.256   9.497 -0.4635 -0.1062 -1.9477
  861MOL0     H13600   7.976   3.090   9.547 -3.5506 -0.6980  1.3345
  861MOL0     H13601   7.792   2.989   9.404  1.6430 -0.5612  0.7004
  861MOL0     H13602   7.738   3.105   9.519 -1.2247  2.4855 -0.6768
  861MOL0     H13603   7.765   3.136   9.220 -0.0165  0.5701 -0.3073
  861MOL0     H13604   7.747   3.273   9.332 -0.6665 -0.1590  1.4346
  861MOL0     H13605   7.500   3.248   9.506 -0.7569 -1.2720  0.8776
  861MOL0     H13606   7.170   3.058   9.430  0.9070 -0.4371  1.6867
  861MOL0     H13607   7.191   3.232   9.362  1.5966  1.8911  0.9034
  861MOL0     H13608   7.099   3.229   9.564 -0.5461 -4.9254 -3.3039
  861MOL0     H13609   7.270   3.293   9.583 -0.7757 -0.4630  0.0100
  861MOL0     H13610   7.147   3.142   9.775  0.6357  0.0416  1.0463
  861MOL0     H13611   7.184   3.011   9.671 -0.9050 -0.4968  2.7373
  861MOL0     H13612   7.428   3.061   9.687 -1.1324 -2.1619 -1.2083
  861MOL0     H13613   7.349   3.024   9.840 -4.6874  0.2280 -0.7511
  861MOL0     H13614   7.607   3.064   9.823 -1.5747  0.4486  2.0424
  861MOL0     H13615   7.832   3.133   9.857 -0.5088 -1.2265 -0.8821
  861MOL0     H13616   8.121   3.457  10.095 -1.8909 -1.5166 -2.7083
  861MOL0     H13617   8.349   3.537  10.141 -2.3089 -0.3260  0.2300
  861MOL0     H13618   8.582   3.583  10.138  1.7186 -0.4435  0.3085
  861MOL0     H13619   8.511   3.739  10.178 -0.3631 -1.1520 -1.2696
  861MOL0     H13620   8.739   3.781  10.202  0.3248 -1.1744 -0.1901
  861MOL0     H13621   8.739   3.831  10.039  0.6868  0.3220  0.7122
  861MOL0     H13622   8.911   3.689  10.021  1.5074 -0.6409  1.0921
  861MOL0     H13623   8.774   3.571   9.979  0.0253  0.7842  0.3676
  861MOL0     H13624   8.901   3.575  10.258 -2.2972 -0.1400  1.1970
  861MOL0     H13625   8.779   3.459  10.183 -1.5696  1.2239 -2.3521
  861MOL0     H13626   9.072   3.460  10.095  0.3827  0.5996 -0.0075
  861MOL0     H13627   8.931   3.377  10.008 -1.8703 -2.6565  1.1527
  861MOL0     H13628   8.881   3.246  10.184 -0.6183 -1.2975  0.8276
  861MOL0     H13629   8.988   3.316  10.301  3.6915 -1.8054 -1.1169
  861MOL0     H13630   9.074   3.180  10.044 -2.7087  2.1833 -0.0700
  861MOL0     H13631   9.182   3.237  10.176  0.1650  0.1488 -1.6396
  861MOL0     H13632   9.088   2.973  10.171 -0.5918  0.9839 -1.5086
  861MOL0     H13633   8.937   3.062  10.230  0.2758 -1.7054  1.1021
  861MOL0     H13634   8.355   3.721   9.764  0.2121 -2.0684 -1.4238
  861MOL0     H13635   8.116   3.652   9.721  0.3892  0.6346 -0.8888
  861MOL0     H13636   7.727   3.557   9.836  0.9197 -0.0321  1.3869
  861MOL0     H13637   7.487   3.481   9.837 -2.4171 -1.4352  2.1438
  861MOL0     H13638   8.531   2.675   9.163 -0.4102  0.0928  1.1822
  861MOL0     H13639   8.730   2.559   9.114 -0.4673 -1.2551  1.1583
  861MOL0     H13640   9.167   2.370   8.959 -0.6649 -1.2017  2.1460
  861MOL0     H13641   9.420   2.382   8.888  1.1530  0.0214  0.6512
  861MOL0     H13642   9.629   2.521   9.185  1.1477  1.4458  1.5377
  861MOL0     H13643   9.687   2.662   9.105  0.6628 -0.9684 -1.6433
  861MOL0     H13644   9.878   2.542   9.141  1.5253  1.4662 -1.7289
  861MOL0     H13645   9.813   2.388   9.079 -0.4304  1.1592  3.3956
  861MOL0     H13646   9.901   2.646   8.942 -1.1172  0.7045  0.0406
  861MOL0     H13647   9.802   2.530   8.846  1.1358 -1.8387 -0.4767
  861MOL0     H13648  10.032   2.489   8.783 -3.0087 -3.3719 -1.8771
  861MOL0     H13649  10.094   2.480   8.947 -0.2188  4.0905 -0.6433
  861MOL0     H13650   9.934   2.084   8.853  2.4883 -0.0171  1.5209
  861MOL0     H13651   9.458   2.745   9.103 -2.3122  1.4321 -0.0601
  861MOL0     H13652   9.234   2.755   9.139 -2.7397  0.2561 -1.6727
  862MOL0     O13653   0.435  10.311   4.342 -0.3907  0.4277 -0.7773
  862MOL0     C13654   0.547  10.364   4.336  0.4993 -0.5748 -1.2370
  862MOL0     O13655   0.607  10.431   4.446  0.9039  0.0139 -0.1201
  862MOL0     C13656   0.538  10.422   4.568  0.0019  0.0152  0.6213
  862MOL0     C13657   0.435  10.506   4.594  0.0463 -0.0520  0.1386
  862MOL0     C13658   0.375  10.506   4.725  0.0482 -0.1802  0.2952
  862MOL0     C13659   0.411  10.407   4.811 -0.4448 -0.7882 -0.0828
  862MOL0     O13660   0.363  10.408   4.943  0.4244 -0.6502 -0.3243
  862MOL0     C13661   0.367  10.537   5.013  0.0597 -0.0466 -0.1546
  862MOL0     C13662   0.316  10.534   5.160  0.7870  0.1389  0.3860
  862MOL0     C13663   0.358  10.653   5.238  0.5836 -0.2394  0.1804
  862MOL0     C13664   0.320  10.781   5.161 -0.7360  0.9705 -0.0420
  862MOL0     C13665   0.302  10.912   5.247 -0.6189 -0.8824 -0.9833
  862MOL0     C13666   0.246  11.021   5.161  0.1112 -0.1427 -0.5315
  862MOL0     C13667   0.188  11.147   5.224  0.1238  0.8961 -0.1383
  862MOL0     C13668   0.286  11.229   5.322  0.6007  0.1808  1.1914
  862MOL0     N13669   0.396  11.289   5.247  0.3410 -1.2364  0.5536
  862MOL0     C13670   0.403  11.303   5.106  0.2304  1.9875  0.2574
  862MOL0     C13671   0.535  11.329   5.075 -0.0190  0.2177 -0.3246
  862MOL0     C13672   0.590  11.353   4.946  0.2906 -0.1255  0.4081
  862MOL0     C13673   0.643  11.496   4.916 -0.3628 -0.6814  0.5847
  862MOL0     C13674   0.778  11.497   4.850  1.1566 -0.7742 -0.0454
  862MOL0     C13675   0.770  11.454   4.697  0.0511 -0.6593  0.0020
  862MOL0     O13676   0.898  11.475   4.636 -0.4573 -0.2556 -0.0173
  862MOL0     C13677   1.011  11.397   4.656 -1.2183  0.0607  0.0686
  862MOL0     C13678   1.128  11.420   4.583 -0.0411 -0.6691  0.2914
  862MOL0     C13679   1.249  11.349   4.616 -0.1837 -0.4900 -0.1852
  862MOL0     C13680   1.251  11.240   4.708 -0.2642 -0.0678 -0.8416
  862MOL0     C13681   1.385  11.174   4.740 -0.0699  0.0943  0.2464
  862MOL0     O13682   1.491  11.203   4.659 -0.3284  1.0478 -1.0327
  862MOL0     C13683   1.481  11.177   4.527 -0.2460 -0.4679 -0.0159
  862MOL0     C13684   1.377  11.148   4.445 -0.1636  0.1353  0.9466
  862MOL0     C13685   1.391  11.106   4.301 -0.2959  0.5748  0.1989
  862MOL0     C13686   1.524  11.112   4.246 -0.2629  0.2874 -0.0616
  862MOL0     O13687   1.559  11.080   4.115  0.3331  0.1417  0.1621
  862MOL0     C13688   1.447  11.026   4.041 -0.5599  0.0776 -1.0820
  862MOL0     C13689   1.506  10.967   3.913 -0.4637 -1.2742 -0.0029
  862MOL0     C13690   1.550  11.077   3.809  0.5750 -0.0970 -0.1879
  862MOL0     C13691   1.602  11.024   3.674  0.4684 -0.1677 -0.1005
  862MOL0     C13692   1.668  11.140   3.585 -0.2453 -0.0574 -0.3712
  862MOL0     C13693   1.654  11.093   3.447 -0.1604 -0.6646  0.4890
  862MOL0     C13694   1.695  11.206   3.345 -0.3127 -0.4164  0.1342
  862MOL0     C13695   1.704  11.147   3.201 -0.2350  0.5581 -0.1092
  862MOL0    Cl13696   1.741  11.257   3.052  0.2878  0.1083 -0.2557
  862MOL0     C13697   1.637  11.147   4.327  1.0698  0.1146 -0.0550
  862MOL0     C13698   1.611  11.174   4.462 -0.6197  0.3062 -1.0316
  862MOL0     O13699   1.387  11.106   4.844  0.0183  0.4795 -0.2957
  862MOL0     C13700   1.126  11.201   4.771  0.0523 -0.1432  0.8326
  862MOL0     C13701   1.015  11.290   4.746  0.0087  0.1719 -0.5468
  862MOL0     N13702   0.603  11.348   5.194  0.6165  0.1364  0.1475
  862MOL0     N13703   0.516  11.326   5.295  0.2991 -0.7905 -0.4653
  862MOL0     C13704   0.499  10.308   4.777 -0.4719  0.0668  0.4408
  862MOL0     C13705   0.564  10.312   4.652 -0.4366  0.7149  0.2893
  862MOL0     C13706   0.612  10.368   4.208  0.1925  0.5165  0.6731
  862MOL0     C13707   0.744  10.410   4.207 -0.3141 -1.7820  0.6685
  862MOL0     C13708   0.818  10.425   4.093  0.0070  0.7568  0.7909
  862MOL0     C13709   0.755  10.405   3.974  0.3547 -0.0240  0.5232
  862MOL0     O13710   0.827  10.449   3.862  0.1629  0.7102 -0.1679
  862MOL0     C13711   0.785  10.410   3.730  0.0994 -0.1376 -0.4719
  862MOL0     C13712   0.871  10.475   3.623  0.0709  0.3172 -0.0115
  862MOL0     C13713   0.798  10.549   3.511 -0.1076 -0.4899  0.8058
  862MOL0     C13714   0.834  10.703   3.514 -0.2413  0.4413 -0.4221
  862MOL0     C13715   0.757  10.776   3.616  0.2785 -0.7740 -0.3808
  862MOL0     C13716   0.741  10.858   3.705  0.1494 -0.6523  1.0442
  862MOL0     C13717   0.626  10.354   3.968 -0.5510 -0.3594 -0.7228
  862MOL0     C13718   0.552  10.335   4.086  0.8226 -0.0717  0.3858
  862MOL0     H13719   0.406  10.568   4.510 -0.5630  0.0656  0.4338
  862MOL0     H13720   0.312  10.590   4.751  1.7001  0.6632  1.7955
  862MOL0     H13721   0.301  10.611   4.967 -1.9423 -1.1858  0.7614
  862MOL0     H13722   0.469  10.575   4.999 -0.5557  0.3813 -5.4832
  862MOL0     H13723   0.355  10.446   5.212 -1.0355 -1.3097 -0.6081
  862MOL0     H13724   0.208  10.520   5.152  0.7587  1.4506 -3.4396
  862MOL0     H13725   0.466  10.661   5.253  0.7312  0.4370 -1.0678
  862MOL0     H13726   0.315  10.650   5.339  0.6676  3.0809  0.4165
  862MOL0     H13727   0.390  10.788   5.077 -0.6734  1.9581  0.0835
  862MOL0     H13728   0.220  10.760   5.121 -1.3351  2.2735  0.7000
  862MOL0     H13729   0.390  10.961   5.290 -0.6439 -1.1212 -0.6556
  862MOL0     H13730   0.241  10.889   5.335  2.1558  2.2876  2.0368
  862MOL0     H13731   0.164  10.973   5.107 -0.1858  0.6617 -0.8153
  862MOL0     H13732   0.325  11.044   5.089 -1.7276  2.4627 -1.8808
  862MOL0     H13733   0.165  11.218   5.144  2.4634 -0.2680 -1.9834
  862MOL0     H13734   0.096  11.114   5.273  0.4196  2.6938  1.7619
  862MOL0     H13735   0.328  11.157   5.392 -0.0277  0.2836  1.6800
  862MOL0     H13736   0.237  11.307   5.381  3.3312  0.5464  3.2182
  862MOL0     H13737   0.326  11.271   5.037  1.4108  0.7091 -0.5162
  862MOL0     H13738   0.514  11.327   4.872  0.0061 -1.6941  1.2084
  862MOL0     H13739   0.674  11.283   4.939  0.0237 -0.4681  0.5846
  862MOL0     H13740   0.661  11.546   5.011 -1.9121 -0.2930  0.7028
  862MOL0     H13741   0.571  11.556   4.858 -1.0947  0.3939  2.5246
  862MOL0     H13742   0.805  11.603   4.841  0.9121 -0.7494 -0.5662
  862MOL0     H13743   0.857  11.443   4.902 -0.2583 -2.0504  0.8640
  862MOL0     H13744   0.693  11.507   4.640  2.5607  1.2968 -1.8467
  862MOL0     H13745   0.750  11.347   4.697 -1.1959 -0.4545 -1.0925
  862MOL0     H13746   1.138  11.506   4.518 -1.1088 -0.0300  0.9434
  862MOL0     H13747   1.340  11.401   4.587 -1.7458  2.3748 -0.2662
  862MOL0     H13748   1.274  11.144   4.477 -0.7016 -0.6038 -0.7746
  862MOL0     H13749   1.305  11.076   4.243  0.3551  0.8922 -0.9690
  862MOL0     H13750   1.366  11.098   4.028  0.5525  1.5499 -0.1428
  862MOL0     H13751   1.419  10.943   4.106  2.9690 -0.5100 -0.0775
  862MOL0     H13752   1.420  10.916   3.870 -2.8505 -0.5413  3.4845
  862MOL0     H13753   1.586  10.895   3.935  0.2384 -0.0704  1.6156
  862MOL0     H13754   1.626  11.136   3.859  0.9359 -1.6838  1.2223
  862MOL0     H13755   1.457  11.132   3.788 -1.3932 -2.4055  1.8825
  862MOL0     H13756   1.687  10.957   3.689  0.3954 -0.0165  1.1086
  862MOL0     H13757   1.510  10.987   3.629  0.7639  1.0244 -1.7779
  862MOL0     H13758   1.773  11.155   3.610  0.6334  0.8178 -4.0711
  862MOL0     H13759   1.612  11.234   3.592 -0.7867 -0.1891 -2.4268
  862MOL0     H13760   1.547  11.071   3.435 -0.1418 -1.2708  1.3267
  862MOL0     H13761   1.726  11.011   3.432  0.1396 -0.4132  0.5516
  862MOL0     H13762   1.630  11.294   3.351  1.4636  0.9524 -0.0710
  862MOL0     H13763   1.791  11.252   3.367 -0.0506 -0.6115 -0.5709
  862MOL0     H13764   1.611  11.096   3.173 -0.5621 -1.1341  3.5315
  862MOL0     H13765   1.788  11.077   3.209  1.0647  1.8524 -1.6827
  862MOL0     H13766   1.734  11.131   4.281  1.6369 -3.3705  1.9912
  862MOL0     H13767   1.689  11.197   4.533 -1.1295 -0.8507 -0.0700
  862MOL0     H13768   1.120  11.110   4.830 -0.4468 -0.4657  0.2843
  862MOL0     H13769   0.921  11.265   4.793  0.4091  1.7286  1.1920
  862MOL0     H13770   0.516  10.220   4.838 -2.4813 -1.5856 -1.1925
  862MOL0     H13771   0.634  10.234   4.624  2.3536  2.8155  0.9080
  862MOL0     H13772   0.790  10.447   4.299 -1.4538 -1.9994  1.3462
  862MOL0     H13773   0.915  10.473   4.100  0.6922 -0.6948  1.7663
  862MOL0     H13774   0.681  10.438   3.710  0.2576  0.0489 -1.0507
  862MOL0     H13775   0.793  10.302   3.711 -0.7650 -1.0133  3.2988
  862MOL0     H13776   0.948  10.538   3.669  3.7040 -2.1548 -2.1573
  862MOL0     H13777   0.929  10.398   3.571  0.0197  1.6365 -2.1284
  862MOL0     H13778   0.692  10.525   3.527 -0.0643 -1.4895 -0.2863
  862MOL0     H13779   0.828  10.498   3.419 -0.7826  1.2146 -0.4233
  862MOL0     H13780   0.937  10.737   3.522 -0.6491  1.2939  2.0510
  862MOL0     H13781   0.803  10.739   3.416  1.3519  0.5508 -0.9118
  862MOL0     H13782   0.719  10.940   3.769 -2.7566 -0.3494 -0.1917
  862MOL0     H13783   0.581  10.330   3.872 -3.2124  0.3950  0.2487
  862MOL0     H13784   0.451  10.298   4.086 -0.7269  3.3683 -3.1886
  863MOL0     O13785   8.338   3.279   6.169 -0.1177 -0.4772  0.2848
  863MOL0     C13786   8.368   3.272   6.284 -0.5220  0.2007 -0.6565
  863MOL0     O13787   8.492   3.278   6.338  0.0593 -0.0271 -0.1577
  863MOL0     C13788   8.606   3.262   6.266  0.4774 -0.8619  0.7631
  863MOL0     C13789   8.725   3.325   6.304  0.0712 -0.4530 -0.3536
  863MOL0     C13790   8.847   3.324   6.236  0.0862  0.5061 -0.7726
  863MOL0     C13791   8.854   3.259   6.113  0.3442  0.1034 -0.5449
  863MOL0     O13792   8.958   3.253   6.034  0.3014 -0.0578  0.5347
  863MOL0     C13793   9.083   3.324   6.046  0.8853 -0.7282 -0.3386
  863MOL0     C13794   9.140   3.350   5.907 -0.5676 -0.0153 -0.6834
  863MOL0     C13795   9.239   3.470   5.927  0.3202  0.5130 -0.1186
  863MOL0     C13796   9.314   3.490   5.799  1.2474 -0.2507 -0.1717
  863MOL0     C13797   9.433   3.575   5.815  0.0495 -0.5595 -0.9110
  863MOL0     C13798   9.409   3.716   5.866 -0.3761  0.2176 -0.0402
  863MOL0     C13799   9.545   3.791   5.857  0.9211  0.6115 -0.1176
  863MOL0     C13800   9.566   3.891   5.738  0.5825  0.4659  0.2874
  863MOL0     N13801   9.620   3.807   5.627  0.3573  1.0286  1.6344
  863MOL0     C13802   9.544   3.756   5.520 -0.5837 -0.1574  0.0846
  863MOL0     C13803   9.634   3.708   5.429 -0.2726  0.3201  0.1449
  863MOL0     C13804   9.603   3.631   5.294 -0.1008  0.9223  0.4463
  863MOL0     C13805   9.556   3.739   5.202 -0.1573 -0.1288 -0.1173
  863MOL0     C13806   9.422   3.726   5.123 -0.1397  0.4965  0.4839
  863MOL0     C13807   9.304   3.761   5.202  0.1765  0.0879  0.7172
  863MOL0     O13808   9.321   3.879   5.284 -0.0620  0.1931  0.3976
  863MOL0     C13809   9.319   3.999   5.221  0.5635 -0.4530  0.1159
  863MOL0     C13810   9.310   4.031   5.079  1.0723  0.3882 -0.9581
  863MOL0     C13811   9.299   4.161   5.031 -0.5167  0.1844 -0.1445
  863MOL0     C13812   9.309   4.271   5.117  0.5046  0.4723  0.3004
  863MOL0     C13813   9.299   4.406   5.067 -0.0548  0.0194  0.2887
  863MOL0     O13814   9.317   4.520   5.143  0.0376  0.7156 -0.7172
  863MOL0     C13815   9.300   4.637   5.081 -0.5392  0.8148  0.2636
  863MOL0     C13816   9.409   4.709   5.038  0.7115 -0.6802 -0.1928
  863MOL0     C13817   9.382   4.822   4.960 -0.4484 -0.6324  0.2075
  863MOL0     C13818   9.258   4.881   4.939 -0.8446 -0.0522 -0.1610
  863MOL0     O13819   9.263   4.992   4.855 -0.3029  0.3201 -0.3244
  863MOL0     C13820   9.147   5.081   4.853  0.1603  0.9903  0.2833
  863MOL0     C13821   9.127   5.147   4.716  0.1121 -0.2530 -0.4491
  863MOL0     C13822   9.238   5.260   4.690 -0.7060  0.4874 -0.1790
  863MOL0     C13823   9.218   5.322   4.545  0.0669 -1.0315 -0.5513
  863MOL0     C13824   9.313   5.431   4.515 -0.3496 -0.2963 -0.2632
  863MOL0     C13825   9.265   5.525   4.401  0.6480  0.8767 -0.0114
  863MOL0     C13826   9.326   5.488   4.266  0.9873 -0.5905  0.8579
  863MOL0     C13827   9.464   5.536   4.239 -0.5753  0.3267 -0.5238
  863MOL0    Cl13828   9.487   5.719   4.251  0.1658 -0.3826 -0.3435
  863MOL0     C13829   9.145   4.814   5.006 -0.1932 -0.5708 -0.4835
  863MOL0     C13830   9.170   4.693   5.071  0.0557 -0.3293  0.4844
  863MOL0     O13831   9.286   4.410   4.944  0.5818  0.2154  0.5604
  863MOL0     C13832   9.314   4.243   5.256 -0.2864 -0.0894  1.3012
  863MOL0     C13833   9.317   4.111   5.306  0.5954 -0.9974  0.1362
  863MOL0     N13834   9.760   3.741   5.482 -0.7779 -0.8953  0.4048
  863MOL0     N13835   9.748   3.795   5.590  0.3308  0.1157 -0.9226
  863MOL0     C13836   8.738   3.185   6.074 -0.5115  0.0850 -0.0177
  863MOL0     C13837   8.619   3.186   6.145 -0.9222  0.2210 -0.1966
  863MOL0     C13838   8.250   3.243   6.371 -0.6832 -0.0402  0.2144
  863MOL0     C13839   8.117   3.260   6.320 -0.3159 -0.0474  0.1090
  863MOL0     C13840   8.008   3.240   6.406 -0.4467 -0.4498  0.1297
  863MOL0     C13841   8.029   3.180   6.537 -0.1470  0.6110 -0.4700
  863MOL0     O13842   7.929   3.128   6.626  0.1483 -0.3713 -0.2042
  863MOL0     C13843   7.796   3.111   6.576  1.5289 -0.2333  0.7728
  863MOL0     C13844   7.756   3.009   6.476 -0.7015  0.6770  0.6379
  863MOL0     C13845   7.833   2.883   6.517 -0.3313  1.0859  0.0321
  863MOL0     C13846   7.761   2.752   6.486 -0.8367  0.6704 -0.0053
  863MOL0     C13847   7.639   2.733   6.566  0.0043 -0.1673 -0.1211
  863MOL0     C13848   7.520   2.715   6.614 -0.6309 -0.6029 -0.5234
  863MOL0     C13849   8.160   3.163   6.576 -0.5263  1.3748  0.2454
  863MOL0     C13850   8.275   3.198   6.501  0.2489 -0.5499  0.3389
  863MOL0     H13851   8.733   3.393   6.389 -1.3776  1.4627 -1.6567
  863MOL0     H13852   8.935   3.374   6.277  0.2838 -1.0660  0.8135
  863MOL0     H13853   9.156   3.289   6.119 -0.7972  1.2485  2.4932
  863MOL0     H13854   9.051   3.419   6.090 -0.4431 -0.8661 -0.9534
  863MOL0     H13855   9.063   3.356   5.829  0.9550 -0.7070 -2.2949
  863MOL0     H13856   9.199   3.259   5.890  0.5177 -0.6064  4.5597
  863MOL0     H13857   9.313   3.458   6.007  1.9222 -0.2644 -1.6720
  863MOL0     H13858   9.172   3.556   5.944 -0.0076  0.2203  0.0984
  863MOL0     H13859   9.352   3.391   5.773  3.9815  1.0316 -1.4563
  863MOL0     H13860   9.240   3.518   5.723  2.2727 -2.0372 -1.9384
  863MOL0     H13861   9.473   3.593   5.714 -0.9070  3.2531 -0.7791
  863MOL0     H13862   9.504   3.525   5.882 -1.6078 -2.7841 -0.7095
  863MOL0     H13863   9.381   3.716   5.972 -1.2527 -4.4314 -0.0518
  863MOL0     H13864   9.335   3.760   5.799 -1.3009  1.6838  1.8444
  863MOL0     H13865   9.562   3.851   5.947  0.0380 -2.0865  1.9748
  863MOL0     H13866   9.619   3.711   5.865  1.2327  0.7405 -1.4083
  863MOL0     H13867   9.644   3.966   5.755 -0.3536  1.4916  0.1665
  863MOL0     H13868   9.481   3.956   5.713  0.0872  0.1998  1.2424
  863MOL0     H13869   9.435   3.754   5.516 -0.7886  2.9162  1.4421
  863MOL0     H13870   9.528   3.553   5.309 -0.5679  0.9487 -1.4500
  863MOL0     H13871   9.692   3.577   5.259 -0.8320  0.1658 -0.2695
  863MOL0     H13872   9.632   3.750   5.125 -0.5857 -2.8972 -1.0576
  863MOL0     H13873   9.567   3.839   5.246 -0.8475  0.5802 -1.5065
  863MOL0     H13874   9.443   3.785   5.033  2.2530 -3.5944 -1.9401
  863MOL0     H13875   9.425   3.623   5.087  6.1390  1.3744 -3.0234
  863MOL0     H13876   9.279   3.679   5.269  1.3231 -1.4689 -0.6838
  863MOL0     H13877   9.227   3.783   5.127 -0.4302  2.6283  1.9714
  863MOL0     H13878   9.308   3.959   4.997  1.1790  1.4872 -1.9454
  863MOL0     H13879   9.273   4.176   4.927  0.2272  1.6099 -0.1397
  863MOL0     H13880   9.512   4.681   5.056  0.7600 -0.6755 -0.4736
  863MOL0     H13881   9.464   4.873   4.910 -1.4357  2.8039  1.7335
  863MOL0     H13882   9.170   5.154   4.931  0.5147  0.9256  0.2439
  863MOL0     H13883   9.061   5.018   4.877 -1.1064  1.9775 -1.4649
  863MOL0     H13884   9.027   5.190   4.713  0.3222  0.4613  1.4918
  863MOL0     H13885   9.126   5.069   4.639 -1.1727 -2.8465  1.9939
  863MOL0     H13886   9.340   5.225   4.705  0.1061  1.0518 -3.5138
  863MOL0     H13887   9.223   5.342   4.761 -1.2486 -0.3327  0.6799
  863MOL0     H13888   9.217   5.243   4.469 -2.3625 -1.6203  0.0225
  863MOL0     H13889   9.124   5.377   4.537  1.2559  1.5405  1.6295
  863MOL0     H13890   9.411   5.385   4.500  0.4479  1.2760 -0.0706
  863MOL0     H13891   9.320   5.481   4.612  0.5136  1.3201 -1.1298
  863MOL0     H13892   9.291   5.630   4.421  0.3128  0.9735 -0.0842
  863MOL0     H13893   9.156   5.522   4.390  0.7927 -1.6658 -1.3820
  863MOL0     H13894   9.327   5.379   4.267  2.0581 -0.6916 -1.8988
  863MOL0     H13895   9.264   5.520   4.182 -1.2225  0.8561  2.9163
  863MOL0     H13896   9.464   5.522   4.131  2.0619  1.9480 -0.8261
  863MOL0     H13897   9.540   5.474   4.289 -0.5079  0.3927 -0.5421
  863MOL0     H13898   9.042   4.849   4.998 -0.4441 -1.5790 -2.1500
  863MOL0     H13899   9.092   4.628   5.108  1.0064 -0.3125  2.6234
  863MOL0     H13900   9.315   4.322   5.331 -0.7725  0.8651  0.3341
  863MOL0     H13901   9.328   4.097   5.413 -0.4008 -2.7801  0.0496
  863MOL0     H13902   8.746   3.137   5.977 -1.5702  3.8920 -2.1925
  863MOL0     H13903   8.535   3.122   6.123  0.4075 -2.8766  2.8615
  863MOL0     H13904   8.093   3.286   6.217  0.4617 -0.1046 -0.0958
  863MOL0     H13905   7.910   3.265   6.365  1.1553  0.1208 -3.7398
  863MOL0     H13906   7.756   3.208   6.546  4.1294  0.8030  0.3649
  863MOL0     H13907   7.731   3.085   6.661  1.0991  1.4615  1.0109
  863MOL0     H13908   7.651   2.984   6.493 -1.1036  2.5070  1.0636
  863MOL0     H13909   7.779   3.031   6.372  4.0502 -2.3825  0.7245
  863MOL0     H13910   7.865   2.889   6.621  2.4182  2.2003 -0.7707
  863MOL0     H13911   7.922   2.882   6.453 -0.8975  3.7147 -0.9084
  863MOL0     H13912   7.746   2.733   6.379 -2.7770 -2.1822  0.6785
  863MOL0     H13913   7.830   2.674   6.521 -3.7847 -1.0563  2.4331
  863MOL0     H13914   7.414   2.700   6.618 -0.2903 -3.6244 -0.4868
  863MOL0     H13915   8.176   3.102   6.664 -0.2932  2.4048  0.9396
  863MOL0     H13916   8.379   3.203   6.529  0.4654 -0.7815 -0.4000
  864MOL0     O13917   2.086   7.236   3.225  0.3077 -0.2108 -0.9237
  864MOL0     C13918   2.035   7.130   3.222  0.2341  0.2124  0.5919
  864MOL0     O13919   2.029   7.044   3.329  0.0203 -0.1137 -0.7870
  864MOL0     C13920   2.137   7.056   3.418  0.4532  0.2695  0.2676
  864MOL0     C13921   2.277   7.065   3.388  1.7142  0.4506  0.0710
  864MOL0     C13922   2.369   7.073   3.494  0.3457 -0.4438 -0.3650
  864MOL0     C13923   2.333   7.070   3.630  0.0940  0.3211 -0.4377
  864MOL0     O13924   2.421   7.074   3.743 -0.4285  0.0151 -0.7723
  864MOL0     C13925   2.554   7.011   3.734  0.4993 -0.3156 -0.1267
  864MOL0     C13926   2.547   6.856   3.722  0.3764  0.2147 -0.2228
  864MOL0     C13927   2.431   6.783   3.793  0.3652  0.0023  1.6159
  864MOL0     C13928   2.417   6.814   3.942  0.4061 -0.2593 -0.6241
  864MOL0     C13929   2.318   6.728   4.011 -0.0979 -0.7740  0.3531
  864MOL0     C13930   2.321   6.741   4.168 -0.1675 -0.5216  0.8006
  864MOL0     C13931   2.269   6.609   4.224  0.2554  0.1054 -0.6988
  864MOL0     C13932   2.292   6.582   4.381 -1.4607 -0.5902  0.1935
  864MOL0     N13933   2.216   6.664   4.478  0.0899 -0.1183 -0.1942
  864MOL0     C13934   2.132   6.603   4.573 -0.4106 -0.1766 -0.9819
  864MOL0     C13935   2.083   6.712   4.640 -0.1333 -0.2070 -0.9620
  864MOL0     C13936   1.970   6.703   4.740 -0.0649 -0.1393 -0.5493
  864MOL0     C13937   2.021   6.718   4.887  0.1181  0.1704  0.3554
  864MOL0     C13938   2.075   6.859   4.917 -0.1590 -0.3627  0.0314
  864MOL0     C13939   2.127   6.863   5.056  1.0238  0.5139 -0.7233
  864MOL0     O13940   2.037   6.882   5.166  0.0093 -0.0267  0.4908
  864MOL0     C13941   2.097   6.911   5.284 -0.1689 -0.0644  0.3053
  864MOL0     C13942   2.226   6.913   5.329 -0.5333 -0.5231  0.4235
  864MOL0     C13943   2.268   6.938   5.458  0.0340  0.2893 -0.2077
  864MOL0     C13944   2.168   6.973   5.552 -0.3124 -0.5194  0.1278
  864MOL0     C13945   2.212   7.007   5.681 -1.0041  0.4225 -0.4189
  864MOL0     O13946   2.344   6.973   5.701  0.0995  0.7489 -0.0190
  864MOL0     C13947   2.406   7.009   5.817  0.5651 -0.3348  0.9690
  864MOL0     C13948   2.370   6.941   5.943 -0.2156 -0.2105  0.2524
  864MOL0     C13949   2.428   6.978   6.068  1.0898 -0.4525 -0.6053
  864MOL0     C13950   2.528   7.080   6.061 -0.2148  0.0775 -0.0369
  864MOL0     O13951   2.578   7.115   6.180  0.1343  1.1275 -0.6684
  864MOL0     C13952   2.685   7.206   6.174 -0.0185 -1.0531  0.0211
  864MOL0     C13953   2.742   7.237   6.316  0.4725  0.6281  0.4122
  864MOL0     C13954   2.815   7.112   6.365 -0.4838  0.5284  0.2653
  864MOL0     C13955   2.887   7.136   6.498  1.2438  0.2037  0.3290
  864MOL0     C13956   2.916   6.999   6.556  0.7225  0.9770  0.1593
  864MOL0     C13957   2.982   7.016   6.693 -0.9653 -0.0530 -0.2186
  864MOL0     C13958   3.052   6.885   6.751  0.4202 -0.1976 -0.0074
  864MOL0     C13959   3.180   6.865   6.677  0.0013 -0.2257 -0.4234
  864MOL0    Cl13960   3.282   6.749   6.770  0.3438 -0.0578 -0.3558
  864MOL0     C13961   2.580   7.131   5.934  0.8321 -0.2958  0.3504
  864MOL0     C13962   2.516   7.098   5.806 -0.1380 -0.0007  0.5590
  864MOL0     O13963   2.137   7.048   5.766 -0.1658  0.0639 -0.4773
  864MOL0     C13964   2.033   6.962   5.516 -0.1334 -0.6097 -0.7597
  864MOL0     C13965   1.998   6.944   5.378 -0.0363 -0.1481 -0.5845
  864MOL0     N13966   2.155   6.825   4.595  0.0802 -0.0302  0.0637
  864MOL0     N13967   2.222   6.794   4.494  0.2422  0.3445  0.4822
  864MOL0     C13968   2.200   7.079   3.657 -0.2629  1.3535 -0.6888
  864MOL0     C13969   2.097   7.070   3.557 -0.3657  0.7308  0.9190
  864MOL0     C13970   1.963   7.092   3.097  0.0896  0.4221  0.3046
  864MOL0     C13971   1.967   7.172   2.988 -0.0216 -0.6280  0.2189
  864MOL0     C13972   1.913   7.141   2.862 -0.2863 -0.0137  0.4554
  864MOL0     C13973   1.828   7.030   2.847  0.0796  0.2979 -0.8695
  864MOL0     O13974   1.769   6.988   2.728 -0.2592 -0.0186  0.4786
  864MOL0     C13975   1.804   7.063   2.614  0.1025  0.3683  0.6628
  864MOL0     C13976   1.745   7.003   2.480 -0.4979  1.0548 -0.6702
  864MOL0     C13977   1.588   7.014   2.476  0.4235  0.4221 -0.5754
  864MOL0     C13978   1.522   6.899   2.397  0.3224  1.1902 -0.0675
  864MOL0     C13979   1.589   6.877   2.265 -0.2464 -0.5494 -0.3659
  864MOL0     C13980   1.643   6.878   2.162  0.9275  0.8890 -0.2590
  864MOL0     C13981   1.815   6.942   2.958  0.1711 -0.0411  0.8579
  864MOL0     C13982   1.883   6.973   3.081 -0.1559 -0.1011  0.0807
  864MOL0     H13983   2.308   7.030   3.290  0.6083  1.1294 -0.5388
  864MOL0     H13984   2.473   7.059   3.467  0.9197 -0.5359  1.6904
  864MOL0     H13985   2.604   7.025   3.830 -1.0139 -3.6629  1.3169
  864MOL0     H13986   2.611   7.051   3.649 -1.6758  0.9549 -1.0756
  864MOL0     H13987   2.629   6.812   3.780  0.2483  1.1022  0.6537
  864MOL0     H13988   2.561   6.827   3.617  3.1300  0.6380 -0.0331
  864MOL0     H13989   2.442   6.674   3.785 -3.0103 -0.2952 -2.0266
  864MOL0     H13990   2.340   6.809   3.738  1.5797 -2.4985 -1.9967
  864MOL0     H13991   2.508   6.820   4.002  0.0775 -2.2070  0.1275
  864MOL0     H13992   2.371   6.914   3.938 -2.3429 -1.4292 -0.3919
  864MOL0     H13993   2.342   6.627   3.977  1.4691 -0.1543 -0.5129
  864MOL0     H13994   2.217   6.756   3.979  0.6477  2.2150  0.2954
  864MOL0     H13995   2.262   6.829   4.195  0.2064 -0.1249  0.3416
  864MOL0     H13996   2.423   6.754   4.204 -0.8916 -0.0114  2.8026
  864MOL0     H13997   2.161   6.600   4.206  0.2047 -1.3238  0.1585
  864MOL0     H13998   2.310   6.518   4.179 -0.9415 -0.9385  0.2356
  864MOL0     H13999   2.399   6.582   4.407 -1.8581  0.0176  1.9681
  864MOL0     H14000   2.269   6.476   4.392  3.4601 -2.2420 -2.3281
  864MOL0     H14001   2.110   6.497   4.588  2.5635 -0.8370 -0.6584
  864MOL0     H14002   1.918   6.607   4.745 -2.1094  0.9784  3.0251
  864MOL0     H14003   1.890   6.776   4.722 -0.7618 -0.8474 -0.4033
  864MOL0     H14004   2.095   6.645   4.920 -1.2722 -1.4719 -0.0169
  864MOL0     H14005   1.928   6.696   4.940 -1.1448 -4.0157 -3.0249
  864MOL0     H14006   2.155   6.879   4.846  1.6181 -0.9969  1.7833
  864MOL0     H14007   1.990   6.924   4.895 -2.8698 -3.4048  0.5887
  864MOL0     H14008   2.188   6.954   5.056  1.9156 -0.0699 -1.1435
  864MOL0     H14009   2.196   6.781   5.077 -0.5915 -1.3768 -2.3958
  864MOL0     H14010   2.302   6.894   5.254  1.0438 -0.3137  1.8937
  864MOL0     H14011   2.375   6.952   5.469 -0.0744  1.5339 -0.5768
  864MOL0     H14012   2.281   6.879   5.949 -0.7084  0.5656  1.2451
  864MOL0     H14013   2.399   6.936   6.163 -1.6967  2.4941 -0.0144
  864MOL0     H14014   2.664   7.300   6.123 -2.5755  0.7372  3.8406
  864MOL0     H14015   2.760   7.161   6.109  0.0244 -3.0990  1.3861
  864MOL0     H14016   2.669   7.276   6.387 -0.7333  0.8383 -0.9033
  864MOL0     H14017   2.818   7.316   6.316  0.3094  0.8277  2.1612
  864MOL0     H14018   2.890   7.079   6.293 -3.6695 -2.2292 -2.1456
  864MOL0     H14019   2.747   7.026   6.372  0.5262 -0.4611 -1.4634
  864MOL0     H14020   2.974   7.197   6.473 -0.3852  2.5706  0.0852
  864MOL0     H14021   2.822   7.188   6.569  2.7104  0.3077  1.6748
  864MOL0     H14022   2.980   6.950   6.481  1.7612  2.4667  0.0414
  864MOL0     H14023   2.828   6.941   6.587 -0.1782  1.6020 -1.1529
  864MOL0     H14024   2.912   7.048   6.771 -0.2917  2.2284 -0.4773
  864MOL0     H14025   3.050   7.102   6.688  1.8316 -1.8658  2.7019
  864MOL0     H14026   3.057   6.909   6.858 -1.6563  3.9984 -0.6339
  864MOL0     H14027   2.977   6.806   6.757 -0.6308  0.7610 -0.1625
  864MOL0     H14028   3.238   6.957   6.667  1.5364 -0.9468  1.2244
  864MOL0     H14029   3.156   6.820   6.581  1.1374  0.0370 -0.8527
  864MOL0     H14030   2.665   7.198   5.927  0.2592  0.2999 -2.0433
  864MOL0     H14031   2.554   7.132   5.710  1.0812  0.3369  1.1342
  864MOL0     H14032   1.960   6.995   5.590  0.5584 -2.1922  0.7137
  864MOL0     H14033   1.893   6.941   5.350 -0.7567 -1.5989  1.8962
  864MOL0     H14034   2.171   7.083   3.761  0.1317  1.6384 -0.5875
  864MOL0     H14035   1.993   7.062   3.585 -0.5359 -0.0957  0.0800
  864MOL0     H14036   2.034   7.257   2.994 -1.6304  0.6119  1.2954
  864MOL0     H14037   1.954   7.198   2.779  0.6371  3.4512  3.0612
  864MOL0     H14038   1.913   7.070   2.600  0.0844  0.4889  0.5850
  864MOL0     H14039   1.766   7.165   2.629 -1.3838  0.4507 -2.8161
  864MOL0     H14040   1.797   7.051   2.397  2.1750 -1.0673 -0.3485
  864MOL0     H14041   1.770   6.899   2.459 -0.7670  1.2905 -2.3158
  864MOL0     H14042   1.569   7.105   2.418  2.2193  1.0807 -0.1910
  864MOL0     H14043   1.551   7.027   2.578  0.0023  0.2054 -0.6985
  864MOL0     H14044   1.538   6.804   2.450  0.4438 -0.2357 -2.5165
  864MOL0     H14045   1.416   6.920   2.385  0.3623  0.2767 -2.7366
  864MOL0     H14046   1.698   6.868   2.071  0.3749  1.7231 -0.7053
  864MOL0     H14047   1.747   6.860   2.942 -0.7368  0.1851  3.1897
  864MOL0     H14048   1.871   6.904   3.163 -0.8649 -0.2990 -0.1912
  865MOL0     O14049   9.748   6.639   7.052 -0.4600 -0.4877  0.4001
  865MOL0     C14050   9.773   6.742   7.111  1.1268 -0.1056 -0.3335
  865MOL0     O14051   9.755   6.759   7.246 -0.4110 -0.2784  0.3965
  865MOL0     C14052   9.787   6.656   7.332 -0.9946 -0.1585 -0.1097
  865MOL0     C14053   9.767   6.691   7.470 -0.0067 -0.1282  0.5817
  865MOL0     C14054   9.802   6.600   7.565 -0.8086  1.4215 -0.3222
  865MOL0     C14055   9.847   6.467   7.532  0.0552  0.7721  0.6783
  865MOL0     O14056   9.863   6.373   7.628  0.5324  0.4085 -0.4371
  865MOL0     C14057   9.991   6.316   7.620  0.0924 -0.0460 -0.0095
  865MOL0     C14058  10.013   6.255   7.762 -0.2431  0.9411  0.5440
  865MOL0     C14059   9.969   6.355   7.877  0.0907  0.7861  0.4290
  865MOL0     C14060  10.054   6.343   8.006  0.5280 -0.2978  0.0245
  865MOL0     C14061  10.022   6.442   8.103 -0.7555 -0.2878 -1.1073
  865MOL0     C14062  10.095   6.405   8.239  1.1408 -0.8170  0.1031
  865MOL0     C14063  10.028   6.503   8.340 -0.4530  0.0377  0.6996
  865MOL0     C14064  10.099   6.499   8.477 -0.1439  0.9835  0.4275
  865MOL0     N14065  10.241   6.525   8.481  0.5297  0.5207 -0.1323
  865MOL0     C14066  10.339   6.423   8.485 -0.2054 -0.7925  0.7805
  865MOL0     C14067  10.458   6.495   8.476 -0.0776 -0.0032  0.8786
  865MOL0     C14068  10.593   6.433   8.483  0.3586  0.1340 -0.2399
  865MOL0     C14069  10.714   6.500   8.419 -0.4706 -0.3116  0.1762
  865MOL0     C14070  10.831   6.488   8.506  0.4641 -0.3463  0.0066
  865MOL0     C14071  10.953   6.546   8.430 -0.8185  0.3733 -0.5134
  865MOL0     O14072  11.055   6.576   8.528 -0.0497  0.3385  0.6775
  865MOL0     C14073  11.130   6.477   8.585  0.1673  0.8071 -0.4840
  865MOL0     C14074  11.131   6.341   8.556 -0.0945  0.0474 -0.0738
  865MOL0     C14075  11.204   6.249   8.636 -0.1704 -0.0187 -0.2959
  865MOL0     C14076  11.264   6.297   8.758  0.1458  0.2976 -0.0560
  865MOL0     C14077  11.336   6.204   8.847 -0.4458 -0.2873 -0.3746
  865MOL0     O14078  11.306   6.075   8.831  0.7644  0.9226 -0.2893
  865MOL0     C14079  11.333   5.983   8.925 -0.3545 -0.8534  1.2384
  865MOL0     C14080  11.456   5.937   8.941  0.9205  0.5501  0.4076
  865MOL0     C14081  11.482   5.835   9.038  1.1409  0.0627  0.1534
  865MOL0     C14082  11.380   5.790   9.119 -0.5737 -0.2711  1.2695
  865MOL0     O14083  11.409   5.681   9.195  1.8266 -0.1657 -0.2668
  865MOL0     C14084  11.341   5.551   9.167  0.1646 -0.0047 -0.5186
  865MOL0     C14085  11.316   5.491   9.309  0.0644  0.0446  0.1515
  865MOL0     C14086  11.182   5.554   9.356  0.4864 -0.0510  0.4982
  865MOL0     C14087  11.113   5.456   9.456  0.4083 -0.1040  0.7030
  865MOL0     C14088  10.971   5.497   9.469  0.2660  0.7969  0.1547
  865MOL0     C14089  10.965   5.614   9.565  0.9439 -0.0557 -0.6628
  865MOL0     C14090  10.817   5.653   9.582 -0.9203  0.0591 -0.6081
  865MOL0     C14091  10.806   5.803   9.616 -0.2107 -0.0488  0.0024
  865MOL0    Cl14092  10.856   5.836   9.792 -0.2840 -0.0926 -0.1549
  865MOL0     C14093  11.251   5.833   9.100  0.4054 -0.6690 -0.7564
  865MOL0     C14094  11.225   5.937   9.012  0.2113 -0.4747  0.2811
  865MOL0     O14095  11.408   6.242   8.940  0.3520  0.5565  0.0920
  865MOL0     C14096  11.268   6.439   8.782 -0.1589 -0.0318  0.5302
  865MOL0     C14097  11.204   6.522   8.696  0.5865 -0.7347 -0.5934
  865MOL0     N14098  10.427   6.631   8.455  0.3456  0.0144  0.3338
  865MOL0     N14099  10.302   6.646   8.474 -0.7862 -0.7515  1.1056
  865MOL0     C14100   9.865   6.442   7.399 -0.9520  0.5222  0.5988
  865MOL0     C14101   9.843   6.538   7.297 -0.8801 -0.0351 -1.0571
  865MOL0     C14102   9.800   6.854   7.019 -0.6280 -0.5337 -0.8192
  865MOL0     C14103   9.854   6.972   7.077 -0.7390 -0.0577  0.8410
  865MOL0     C14104   9.871   7.083   7.000 -0.2667  0.4045  0.0041
  865MOL0     C14105   9.834   7.090   6.857 -0.1034  0.1920  0.6329
  865MOL0     O14106   9.835   7.202   6.785  0.8845  0.1793 -0.2323
  865MOL0     C14107   9.836   7.198   6.642 -0.3472  0.3302 -0.0529
  865MOL0     C14108   9.931   7.306   6.586  0.8057  0.0075  0.2191
  865MOL0     C14109   9.946   7.287   6.433 -0.0011  0.4274 -0.7322
  865MOL0     C14110  10.077   7.222   6.401  1.0066 -0.5658  0.2719
  865MOL0     C14111  10.082   7.197   6.252 -0.3184  0.3855  0.2832
  865MOL0     C14112  10.062   7.179   6.134 -0.6193 -0.5917 -0.6653
  865MOL0     C14113   9.789   6.969   6.801  0.5830 -0.3282  0.4375
  865MOL0     C14114   9.775   6.859   6.886  0.1970  0.6845  0.2019
  865MOL0     H14115   9.735   6.786   7.513 -0.2183 -0.2852  0.7713
  865MOL0     H14116   9.785   6.638   7.665 -0.2480  3.0299 -0.8149
  865MOL0     H14117  10.069   6.390   7.601  1.2497 -1.9027 -3.1925
  865MOL0     H14118  10.003   6.240   7.543  3.5839  1.6526 -1.3370
  865MOL0     H14119  10.121   6.238   7.760 -0.1503  1.3935 -2.5547
  865MOL0     H14120   9.957   6.163   7.781 -0.7120  0.5093 -2.4165
  865MOL0     H14121   9.866   6.328   7.901 -0.9049  1.5073 -2.5685
  865MOL0     H14122   9.961   6.456   7.835 -0.0217  1.9792  3.0910
  865MOL0     H14123  10.047   6.249   8.061 -0.2865  0.8991  2.0519
  865MOL0     H14124  10.161   6.351   7.981  0.6217  1.6140  0.8745
  865MOL0     H14125   9.915   6.441   8.123 -0.6892 -1.7059 -0.6715
  865MOL0     H14126  10.061   6.538   8.068  0.8167 -1.2241 -2.0803
  865MOL0     H14127  10.202   6.424   8.223  0.7785 -0.2757 -1.9277
  865MOL0     H14128  10.074   6.299   8.259  3.5437 -1.3527  0.0872
  865MOL0     H14129  10.043   6.604   8.298  0.8649 -0.3057  0.2808
  865MOL0     H14130   9.922   6.477   8.342 -0.5298 -0.4180 -2.7220
  865MOL0     H14131  10.086   6.396   8.512 -1.3831 -0.0252 -2.6070
  865MOL0     H14132  10.038   6.571   8.533 -0.5548 -0.4302  1.8627
  865MOL0     H14133  10.328   6.315   8.498 -0.0904 -0.9575 -0.3821
  865MOL0     H14134  10.570   6.346   8.421 -3.4353  0.3228  0.6059
  865MOL0     H14135  10.615   6.401   8.585 -0.3980  0.8216  0.1570
  865MOL0     H14136  10.688   6.605   8.407  1.0957  0.4071  2.3096
  865MOL0     H14137  10.742   6.447   8.328 -3.2720 -3.1554  0.7670
  865MOL0     H14138  10.805   6.536   8.601 -5.2214 -2.0675 -0.3218
  865MOL0     H14139  10.846   6.381   8.523  0.6343 -0.0129  2.1705
  865MOL0     H14140  10.914   6.635   8.379 -2.2117  2.2343  3.4187
  865MOL0     H14141  10.997   6.488   8.348  1.1065 -0.7353  1.2043
  865MOL0     H14142  11.085   6.294   8.470 -0.4944 -0.0945  0.2148
  865MOL0     H14143  11.213   6.144   8.611  1.6673 -0.7356  2.9183
  865MOL0     H14144  11.536   5.977   8.879  0.0252  0.3300 -0.9368
  865MOL0     H14145  11.574   5.777   9.033  2.5821  2.0584  1.8865
  865MOL0     H14146  11.420   5.492   9.118  0.6212  1.5141 -1.6942
  865MOL0     H14147  11.257   5.568   9.100 -2.5331 -1.5033  2.2512
  865MOL0     H14148  11.406   5.481   9.370 -0.4049 -2.8517  0.4822
  865MOL0     H14149  11.302   5.384   9.294  3.4937 -0.3329 -1.2813
  865MOL0     H14150  11.132   5.575   9.260  1.3465 -1.4402 -0.2813
  865MOL0     H14151  11.194   5.653   9.401 -1.4876  0.2998  0.3754
  865MOL0     H14152  11.127   5.352   9.426  1.7794  0.2776 -0.0434
  865MOL0     H14153  11.171   5.472   9.548 -0.7275  0.6019  1.3195
  865MOL0     H14154  10.902   5.419   9.500  2.2863 -0.0428  2.9407
  865MOL0     H14155  10.921   5.534   9.379 -0.8114  1.5512  1.0275
  865MOL0     H14156  11.034   5.694   9.536  1.7347 -0.9953 -1.4411
  865MOL0     H14157  11.012   5.577   9.657 -2.6456  0.9491  1.7719
  865MOL0     H14158  10.772   5.634   9.484  1.0493 -0.8491 -1.3896
  865MOL0     H14159  10.758   5.591   9.651 -2.2322  1.1862 -0.6644
  865MOL0     H14160  10.707   5.847   9.599 -0.0215  1.6940  2.8552
  865MOL0     H14161  10.878   5.862   9.560  1.7016  1.0181  3.2937
  865MOL0     H14162  11.171   5.793   9.161  3.6681 -4.2328  1.6408
  865MOL0     H14163  11.118   5.955   9.003 -0.7656 -3.4346  3.7440
  865MOL0     H14164  11.318   6.482   8.868  0.6924  1.3725 -0.6166
  865MOL0     H14165  11.208   6.627   8.722  0.3563 -0.5831 -1.1619
  865MOL0     H14166   9.906   6.347   7.367  1.5328  1.6946  0.0537
  865MOL0     H14167   9.877   6.499   7.202 -0.2416 -3.1579  0.3110
  865MOL0     H14168   9.861   6.982   7.184  0.8260  2.4876  0.5780
  865MOL0     H14169   9.894   7.179   7.045 -2.9406  1.5261 -0.8362
  865MOL0     H14170   9.739   7.232   6.604  1.0264  1.2882 -3.0489
  865MOL0     H14171   9.870   7.108   6.588  1.0636  1.3413 -0.9333
  865MOL0     H14172   9.900   7.410   6.597  0.5064 -0.0745  0.1525
  865MOL0     H14173  10.017   7.301   6.653  1.1471 -1.9247 -0.3040
  865MOL0     H14174   9.942   7.384   6.383  1.2627  1.1632  0.5389
  865MOL0     H14175   9.871   7.216   6.396  0.1408 -0.7298  1.0669
  865MOL0     H14176  10.164   7.278   6.437  2.1173 -2.4829  0.7397
  865MOL0     H14177  10.077   7.126   6.454 -0.5772 -1.4629 -1.2364
  865MOL0     H14178  10.053   7.151   6.031 -4.1012  0.9979 -0.9606
  865MOL0     H14179   9.759   6.952   6.699 -2.0164  1.3962  0.8314
  865MOL0     H14180   9.734   6.771   6.838  0.3951 -0.2455  1.7069
  866MOL0     O14181   3.246   2.186   2.759  1.1857  1.2103 -0.5957
  866MOL0     C14182   3.354   2.182   2.811  0.2181 -0.1624  0.5707
  866MOL0     O14183   3.414   2.075   2.843 -0.3519 -0.6884 -0.0032
  866MOL0     C14184   3.368   1.949   2.815  0.8727 -0.4976  0.9804
  866MOL0     C14185   3.239   1.910   2.870  0.7444 -0.4240 -0.2807
  866MOL0     C14186   3.199   1.779   2.855 -0.8798  0.5034  0.5202
  866MOL0     C14187   3.277   1.689   2.780 -0.6001  0.0932  0.4532
  866MOL0     O14188   3.232   1.562   2.768 -0.3400  0.4418 -1.0920
  866MOL0     C14189   3.175   1.503   2.884 -0.0977 -0.2358  0.0108
  866MOL0     C14190   3.193   1.348   2.882 -0.7851  0.5354 -0.5857
  866MOL0     C14191   3.065   1.276   2.831  0.6030 -0.0028 -1.3266
  866MOL0     C14192   3.042   1.290   2.685  1.1002 -0.1345  0.4296
  866MOL0     C14193   2.898   1.242   2.636  0.1818  0.3375 -0.3640
  866MOL0     C14194   2.866   1.093   2.674 -0.5132  0.4894 -0.3127
  866MOL0     C14195   2.731   1.062   2.615  0.4040 -0.4298 -0.4071
  866MOL0     C14196   2.618   1.100   2.723  0.1480  0.3793  0.0770
  866MOL0     N14197   2.599   0.979   2.810  0.0748  0.2106  0.7742
  866MOL0     C14198   2.582   0.987   2.945  1.2412  0.4484  0.1488
  866MOL0     C14199   2.548   0.859   2.974  0.3583 -0.4800 -0.1650
  866MOL0     C14200   2.489   0.830   3.110 -0.1769  0.3363 -0.4073
  866MOL0     C14201   2.341   0.875   3.124 -0.1955 -0.1681 -0.5511
  866MOL0     C14202   2.247   0.809   3.021 -0.3393  0.4828 -0.5786
  866MOL0     C14203   2.234   0.655   3.008  1.2174  0.3918 -0.2750
  866MOL0     O14204   2.204   0.569   3.120 -0.2602  1.2685  0.3091
  866MOL0     C14205   2.119   0.606   3.225 -0.1209 -0.0535 -0.0269
  866MOL0     C14206   1.983   0.631   3.209  0.8334  0.1211  0.1388
  866MOL0     C14207   1.901   0.644   3.315 -0.4301 -0.5347 -0.0906
  866MOL0     C14208   1.948   0.631   3.445  0.1885 -0.7363 -0.3832
  866MOL0     C14209   1.863   0.658   3.565  0.3629  0.1133 -0.7839
  866MOL0     O14210   1.886   0.581   3.682  0.0201 -0.6672 -0.0855
  866MOL0     C14211   1.806   0.604   3.789 -0.4299  0.2462 -0.2430
  866MOL0     C14212   1.674   0.544   3.785 -0.2856  0.0802 -0.4530
  866MOL0     C14213   1.601   0.541   3.903  0.8659 -1.7405 -0.0029
  866MOL0     C14214   1.635   0.625   4.009 -0.0205 -0.0888 -0.7207
  866MOL0     O14215   1.545   0.619   4.108  0.2136 -0.1589 -0.7334
  866MOL0     C14216   1.517   0.731   4.192 -0.9638  0.2317  0.0271
  866MOL0     C14217   1.372   0.768   4.161 -0.4247  0.6404 -0.3853
  866MOL0     C14218   1.339   0.818   4.019 -0.0885 -0.8155 -0.1665
  866MOL0     C14219   1.235   0.920   4.039  0.3162  0.0218 -0.4785
  866MOL0     C14220   1.156   0.971   3.912  0.3730 -0.0932 -0.2587
  866MOL0     C14221   1.028   1.033   3.955  0.3853  0.7657  0.0183
  866MOL0     C14222   0.961   1.104   3.841  1.1808  0.0870 -1.0126
  866MOL0     C14223   0.827   1.158   3.887 -0.1439  0.4187 -0.5237
  866MOL0    Cl14224   0.729   1.028   3.973  0.0789 -0.2858  0.2119
  866MOL0     C14225   1.764   0.690   4.012  0.7566  0.1232  0.8628
  866MOL0     C14226   1.852   0.670   3.912 -0.6709 -0.7074  0.1839
  866MOL0     O14227   1.751   0.722   3.546 -0.2764 -1.5214  0.0495
  866MOL0     C14228   2.082   0.598   3.465  0.4520 -0.7682  0.0136
  866MOL0     C14229   2.162   0.585   3.348 -0.4846 -0.3858 -0.7974
  866MOL0     N14230   2.562   0.776   2.868 -0.2843 -0.0514 -0.4411
  866MOL0     N14231   2.578   0.852   2.773  0.3098  0.3688  0.0976
  866MOL0     C14232   3.389   1.728   2.714 -0.2882 -0.4618 -0.6780
  866MOL0     C14233   3.437   1.861   2.735 -0.7958  1.0313 -1.5091
  866MOL0     C14234   3.422   2.305   2.854 -0.0328 -1.6815  0.4408
  866MOL0     C14235   3.551   2.302   2.919  0.9297  0.6129 -0.3940
  866MOL0     C14236   3.625   2.414   2.940  0.3023 -1.7500 -0.9073
  866MOL0     C14237   3.583   2.541   2.888  0.4720  1.2056 -0.1908
  866MOL0     O14238   3.654   2.662   2.897 -0.4953  0.5960  0.7037
  866MOL0     C14239   3.780   2.671   2.964 -0.8516 -0.4530  0.5759
  866MOL0     C14240   3.832   2.821   2.964  0.0990  0.3336  0.1031
  866MOL0     C14241   3.846   2.872   2.824 -1.2142 -0.7593 -0.0769
  866MOL0     C14242   3.975   2.839   2.749 -0.3925 -0.4606 -0.2389
  866MOL0     C14243   3.953   2.747   2.637 -0.1112  0.4315  1.0800
  866MOL0     C14244   3.963   2.662   2.553 -0.5328 -0.3528  0.2395
  866MOL0     C14245   3.454   2.546   2.833  0.0886 -0.5769 -0.2294
  866MOL0     C14246   3.374   2.430   2.815 -0.9300 -0.1126  0.3198
  866MOL0     H14247   3.189   1.989   2.924  0.3888  1.5809 -3.3167
  866MOL0     H14248   3.105   1.750   2.901  1.5924 -1.5488  4.9399
  866MOL0     H14249   3.069   1.523   2.869  0.1542  0.1097 -1.4580
  866MOL0     H14250   3.212   1.548   2.977  0.7324  4.0074 -2.1127
  866MOL0     H14251   3.203   1.312   2.985 -1.4209 -3.2742 -1.6638
  866MOL0     H14252   3.282   1.302   2.838  0.2730 -0.0985  2.0113
  866MOL0     H14253   2.990   1.318   2.899  1.9882  1.8632 -0.8681
  866MOL0     H14254   3.073   1.170   2.858 -1.0186 -0.1328 -1.2415
  866MOL0     H14255   3.051   1.391   2.644  2.7267  0.1776  1.4825
  866MOL0     H14256   3.123   1.239   2.632  3.1997  1.5179  1.9335
  866MOL0     H14257   2.902   1.251   2.527  0.0693  2.2600 -0.2355
  866MOL0     H14258   2.824   1.307   2.683  0.4626  2.5300 -2.7137
  866MOL0     H14259   2.857   1.083   2.783  0.2481  0.3352 -0.2630
  866MOL0     H14260   2.944   1.033   2.626 -1.9804  0.4120 -2.7825
  866MOL0     H14261   2.713   1.118   2.522  3.5871  0.5978 -0.5014
  866MOL0     H14262   2.727   0.956   2.588  1.4037 -0.9269  1.3264
  866MOL0     H14263   2.523   1.121   2.674 -0.3078 -3.1893 -0.8169
  866MOL0     H14264   2.649   1.191   2.777  0.9161  0.5601 -0.6607
  866MOL0     H14265   2.579   1.067   3.019 -1.0361 -2.6164  3.7806
  866MOL0     H14266   2.560   0.869   3.183 -0.1687 -1.6877  0.7227
  866MOL0     H14267   2.502   0.722   3.120  6.2794  0.8236  0.3058
  866MOL0     H14268   2.329   0.983   3.116 -0.7944 -0.2257 -0.5223
  866MOL0     H14269   2.297   0.853   3.222 -1.3919  1.6079 -0.6348
  866MOL0     H14270   2.144   0.846   3.031 -0.9055 -1.3916  1.4056
  866MOL0     H14271   2.277   0.853   2.925 -3.4222  6.3481  0.6505
  866MOL0     H14272   2.326   0.616   2.963 -0.4843 -0.9222 -2.8752
  866MOL0     H14273   2.160   0.630   2.932  3.1045 -2.4143 -1.3481
  866MOL0     H14274   1.944   0.629   3.107 -1.3201 -1.2520  0.9248
  866MOL0     H14275   1.795   0.667   3.311 -0.3105  0.4215  1.3610
  866MOL0     H14276   1.643   0.477   3.705  0.6312 -1.0337  0.0804
  866MOL0     H14277   1.502   0.497   3.917 -0.6659  1.6012  0.8885
  866MOL0     H14278   1.589   0.806   4.160 -1.7980  0.8102 -0.5523
  866MOL0     H14279   1.524   0.701   4.297 -2.6585  2.5461  0.8876
  866MOL0     H14280   1.370   0.847   4.237 -1.1960  0.7541 -0.5136
  866MOL0     H14281   1.304   0.687   4.187  2.2401 -0.7318  2.9589
  866MOL0     H14282   1.301   0.743   3.949 -0.2009 -0.4976 -0.4495
  866MOL0     H14283   1.424   0.876   3.982 -0.0362 -0.7655  0.0317
  866MOL0     H14284   1.168   0.873   4.112 -0.2612  2.2144  0.4954
  866MOL0     H14285   1.281   1.004   4.091  0.8538  0.2507 -1.3104
  866MOL0     H14286   1.142   0.875   3.861 -1.7591 -1.0218  1.8669
  866MOL0     H14287   1.219   1.040   3.855 -1.8651  1.3199 -1.1258
  866MOL0     H14288   1.052   1.100   4.039 -1.6265  1.5175  0.0491
  866MOL0     H14289   0.970   0.955   4.007  1.9404 -0.6501 -0.2666
  866MOL0     H14290   1.034   1.183   3.822 -0.4561  1.6722 -1.1086
  866MOL0     H14291   0.944   1.034   3.759 -3.7607 -1.2630  0.7700
  866MOL0     H14292   0.777   1.199   3.798 -1.7516  1.2842  0.7252
  866MOL0     H14293   0.845   1.250   3.944  0.6667  1.0042 -1.6882
  866MOL0     H14294   1.784   0.734   4.109  1.0278 -1.5632  1.5928
  866MOL0     H14295   1.952   0.709   3.927 -0.1332 -1.8292 -0.4386
  866MOL0     H14296   2.116   0.579   3.566 -0.1756 -0.9227  0.2017
  866MOL0     H14297   2.267   0.562   3.361 -0.3610  1.4773  2.5000
  866MOL0     H14298   3.441   1.663   2.643 -0.5424 -1.6027  0.1480
  866MOL0     H14299   3.533   1.884   2.688 -0.3849 -1.9245 -2.2751
  866MOL0     H14300   3.575   2.203   2.957  0.1727  0.0148 -1.4237
  866MOL0     H14301   3.726   2.416   2.981 -1.2262  0.0038  3.3906
  866MOL0     H14302   3.852   2.604   2.917 -0.6463 -2.0267  2.9476
  866MOL0     H14303   3.759   2.640   3.067 -4.2390  1.3584  0.5911
  866MOL0     H14304   3.775   2.880   3.036  1.7971 -0.5497  2.2577
  866MOL0     H14305   3.931   2.824   3.010 -0.1401  1.2037  0.5604
  866MOL0     H14306   3.849   2.982   2.822 -2.4374 -0.7261 -0.7714
  866MOL0     H14307   3.753   2.856   2.769  0.1966 -1.8234 -2.2823
  866MOL0     H14308   4.024   2.928   2.709 -0.9015  0.1884  0.5666
  866MOL0     H14309   4.041   2.802   2.828  0.7255 -1.1398 -1.4269
  866MOL0     H14310   3.972   2.584   2.480 -1.4426 -0.2688  0.0219
  866MOL0     H14311   3.429   2.644   2.794  0.3349 -0.6606 -0.5986
  866MOL0     H14312   3.280   2.451   2.765 -0.6676 -0.8786 -0.5133
  867MOL0     O14313  10.182   7.583  10.063  0.0225  0.3027 -0.7470
  867MOL0     C14314  10.243   7.548   9.965 -0.4462  0.7398  0.2053
  867MOL0     O14315  10.213   7.582   9.836  0.4125 -1.1670 -0.2777
  867MOL0     C14316  10.113   7.681   9.816  1.0641  1.3886 -0.7478
  867MOL0     C14317  10.127   7.813   9.834 -0.4534 -0.9522 -0.3262
  867MOL0     C14318  10.021   7.904   9.832  0.5545 -0.7624  0.2296
  867MOL0     C14319   9.900   7.861   9.773  0.8049  0.0616  0.6280
  867MOL0     O14320   9.788   7.944   9.769 -0.1200  0.5922  0.2789
  867MOL0     C14321   9.657   7.876   9.783 -0.3377 -1.5387 -0.9103
  867MOL0     C14322   9.571   8.002   9.793  0.3328  0.2777 -0.0532
  867MOL0     C14323   9.503   8.014   9.937 -0.7609  0.4662 -0.2586
  867MOL0     C14324   9.390   8.112   9.930 -0.4331 -0.3404 -0.0419
  867MOL0     C14325   9.310   8.115  10.052 -0.5376 -0.0018  0.9084
  867MOL0     C14326   9.202   8.214  10.042  0.3640 -0.3160  0.4697
  867MOL0     C14327   9.131   8.243  10.178 -0.1987 -0.0890  0.2497
  867MOL0     C14328   9.004   8.333  10.170  1.0417  0.2658  0.6911
  867MOL0     N14329   8.943   8.330  10.306 -0.4881 -0.3684 -0.9050
  867MOL0     C14330   8.995   8.346  10.439  0.8761 -0.4946 -0.4255
  867MOL0     C14331   8.895   8.312  10.528 -1.1881 -0.1615  0.0262
  867MOL0     C14332   8.908   8.329  10.682  0.1527 -1.0271  1.0560
  867MOL0     C14333   8.889   8.198  10.746 -0.3328 -0.6078 -0.5118
  867MOL0     C14334   8.908   8.214  10.894 -0.0497 -0.3033  0.0321
  867MOL0     C14335   8.919   8.080  10.958  0.5756 -0.6534  0.1284
  867MOL0     O14336   8.895   8.105  11.100 -1.0017 -0.5953 -0.1695
  867MOL0     C14337   8.918   7.990  11.166 -0.7003  0.4020 -0.7763
  867MOL0     C14338   9.011   8.006  11.272  0.3006  0.5164  0.4310
  867MOL0     C14339   9.037   7.896  11.354  0.3267  0.9328 -0.5535
  867MOL0     C14340   8.967   7.773  11.331 -0.2766  0.2069 -0.3126
  867MOL0     C14341   8.987   7.659  11.423 -0.3666  0.3822 -0.8990
  867MOL0     O14342   8.891   7.564  11.422 -0.8733 -0.7791 -0.0059
  867MOL0     C14343   8.905   7.449  11.501 -0.5708  0.8963 -0.1363
  867MOL0     C14344   9.018   7.368  11.509 -0.0078  0.5113 -0.1322
  867MOL0     C14345   9.020   7.260  11.602  0.3774  1.3879  0.3406
  867MOL0     C14346   8.908   7.211  11.671 -0.4104 -0.3517  0.8052
  867MOL0     O14347   8.928   7.122  11.773 -0.5871  1.1503 -0.8962
  867MOL0     C14348   8.841   7.135  11.890 -0.0870  0.3049  0.1401
  867MOL0     C14349   8.819   6.992  11.943 -0.2164  1.0058  0.5154
  867MOL0     C14350   8.740   6.908  11.835  0.4006 -1.2062  0.6109
  867MOL0     C14351   8.588   6.933  11.843 -0.2010  0.1765 -0.1530
  867MOL0     C14352   8.517   6.855  11.734 -0.2183 -0.2277  0.5588
  867MOL0     C14353   8.367   6.861  11.764 -0.5139  0.2659  0.4657
  867MOL0     C14354   8.268   6.785  11.676 -0.3585  0.7087  0.3190
  867MOL0     C14355   8.298   6.638  11.670 -0.1503  0.1268  0.3505
  867MOL0    Cl14356   8.178   6.559  11.559 -0.0042 -0.1465 -0.3860
  867MOL0     C14357   8.790   7.283  11.642 -0.0657  0.1803 -1.4708
  867MOL0     C14358   8.788   7.398  11.561 -0.1478 -0.3162  0.2139
  867MOL0     O14359   9.082   7.651  11.497 -0.3798  0.5179 -0.1145
  867MOL0     C14360   8.884   7.758  11.226  0.9210 -0.1037  1.1844
  867MOL0     C14361   8.848   7.861  11.145  0.5202 -0.0794  0.4512
  867MOL0     N14362   8.800   8.243  10.452  0.0498 -0.3425 -0.0813
  867MOL0     N14363   8.830   8.261  10.326 -0.1693  0.3022  0.6455
  867MOL0     C14364   9.880   7.725   9.732 -0.4008 -0.0033  0.7219
  867MOL0     C14365  10.001   7.643   9.745  0.3105  0.7678 -0.7136
  867MOL0     C14366  10.354   7.450   9.989  0.0721 -0.2407 -0.4171
  867MOL0     C14367  10.440   7.424   9.887 -1.8780 -0.9795  0.4365
  867MOL0     C14368  10.558   7.356   9.908 -0.8413  0.2344 -0.8106
  867MOL0     C14369  10.577   7.285  10.021  0.1353  0.9732  0.2048
  867MOL0     O14370  10.677   7.197  10.020  0.6872  0.1490  0.2440
  867MOL0     C14371  10.652   7.058  10.022  1.2757  0.1272  0.2579
  867MOL0     C14372  10.722   6.986  10.140 -0.4480  0.8463  0.9986
  867MOL0     C14373  10.831   6.887  10.101  0.1854  0.0823 -0.3813
  867MOL0     C14374  10.869   6.817  10.227 -0.3128  0.8637 -0.0448
  867MOL0     C14375  10.988   6.727  10.209  0.1442 -0.5370 -0.1174
  867MOL0     C14376  11.081   6.655  10.169  0.4033  0.1866 -0.1112
  867MOL0     C14377  10.484   7.294  10.124  0.9225 -0.1218 -0.0478
  867MOL0     C14378  10.376   7.371  10.105  0.2992 -0.6037 -0.2040
  867MOL0     H14379  10.208   7.865   9.885 -1.4946  0.0026  0.4039
  867MOL0     H14380  10.008   8.000   9.881 -2.6737 -1.0667  0.1800
  867MOL0     H14381   9.653   7.817   9.875 -1.1362  2.3752  1.8249
  867MOL0     H14382   9.620   7.823   9.695 -0.5916  0.1879 -1.8884
  867MOL0     H14383   9.488   7.997   9.723 -0.3670  1.3390  0.6636
  867MOL0     H14384   9.621   8.099   9.790  0.5098  0.1965  0.2151
  867MOL0     H14385   9.573   8.037  10.018  2.0461 -4.2965 -0.9378
  867MOL0     H14386   9.461   7.918   9.968 -2.7168  1.2750 -0.2463
  867MOL0     H14387   9.424   8.215   9.914 -1.1526  0.1951  1.6018
  867MOL0     H14388   9.322   8.096   9.846 -0.0585 -0.1676 -0.3827
  867MOL0     H14389   9.373   8.144  10.137 -1.8384  2.1258  1.2166
  867MOL0     H14390   9.277   8.014  10.078  1.8574 -0.7287  1.3921
  867MOL0     H14391   9.131   8.178   9.967  1.6457  0.2232 -1.0532
  867MOL0     H14392   9.245   8.301   9.991  1.1608 -1.5765 -1.1087
  867MOL0     H14393   9.086   8.153  10.219 -2.3877  1.6137  1.8247
  867MOL0     H14394   9.196   8.279  10.258  0.7019 -0.6334 -0.2210
  867MOL0     H14395   8.931   8.289  10.101  1.4738 -3.4446  2.3223
  867MOL0     H14396   9.012   8.437  10.138 -2.6445 -0.0360 -1.8765
  867MOL0     H14397   9.094   8.383  10.463  1.6297 -2.3242 -0.5823
  867MOL0     H14398   8.833   8.403  10.714  2.6590  2.5746 -0.6551
  867MOL0     H14399   9.004   8.365  10.720  0.5357 -4.4014  3.7938
  867MOL0     H14400   8.961   8.125  10.709 -1.7354 -2.3220  0.0195
  867MOL0     H14401   8.794   8.159  10.710 -0.0140  0.8086 -3.1387
  867MOL0     H14402   8.994   8.273  10.928  0.4215 -1.7103  1.3977
  867MOL0     H14403   8.820   8.270  10.926  0.5905  2.0569 -2.0030
  867MOL0     H14404   9.015   8.031  10.941  2.5454  1.5591  3.5827
  867MOL0     H14405   8.849   8.018  10.901 -0.8164  0.0212  1.0144
  867MOL0     H14406   9.055   8.091  11.322  1.0654 -0.6145  1.7188
  867MOL0     H14407   9.098   7.914  11.442  0.5613  0.3048 -0.5826
  867MOL0     H14408   9.112   7.390  11.458 -0.0239 -1.1524 -0.9439
  867MOL0     H14409   9.114   7.207  11.618 -0.8485 -0.6167  1.4164
  867MOL0     H14410   8.738   7.172  11.881 -1.5404 -3.3739  0.0128
  867MOL0     H14411   8.898   7.198  11.959 -1.0497  1.4495 -0.0693
  867MOL0     H14412   8.754   6.999  12.030 -1.0639  1.5065 -0.1541
  867MOL0     H14413   8.919   6.948  11.957 -0.4720 -1.0238 -2.9526
  867MOL0     H14414   8.748   6.800  11.850  0.9713 -0.9333  2.5486
  867MOL0     H14415   8.762   6.937  11.732 -2.5986  0.5216  0.3275
  867MOL0     H14416   8.562   6.890  11.940 -2.2917 -0.4598 -0.9256
  867MOL0     H14417   8.562   7.039  11.852  1.8808  0.6560  0.6697
  867MOL0     H14418   8.549   6.751  11.727  0.4189  0.0211 -0.4260
  867MOL0     H14419   8.541   6.900  11.637  1.3226  0.3584  1.1808
  867MOL0     H14420   8.347   6.969  11.757 -1.3031  0.0337 -4.3278
  867MOL0     H14421   8.343   6.837  11.868  1.7019  0.1042  0.9840
  867MOL0     H14422   8.175   6.806  11.728 -0.0107 -2.1365  2.3313
  867MOL0     H14423   8.263   6.835  11.579  1.4590  1.8254  0.7393
  867MOL0     H14424   8.291   6.614  11.777 -1.3472  0.4220  0.3565
  867MOL0     H14425   8.401   6.630  11.634  0.5299 -0.4670  2.2979
  867MOL0     H14426   8.699   7.262  11.697  1.4282 -2.1562  0.2999
  867MOL0     H14427   8.698   7.460  11.556 -0.7537 -1.2164 -0.3762
  867MOL0     H14428   8.842   7.659  11.210 -2.1184  0.8848  2.2555
  867MOL0     H14429   8.776   7.838  11.068  1.5269 -1.5162 -0.1064
  867MOL0     H14430   9.792   7.694   9.678  0.3829 -2.0178  0.5076
  867MOL0     H14431   9.993   7.537   9.721  0.0566  1.1078 -2.1946
  867MOL0     H14432  10.447   7.487   9.799 -4.0565 -0.3902  0.6282
  867MOL0     H14433  10.636   7.364   9.833  0.8412  0.3849  0.8659
  867MOL0     H14434  10.684   7.012   9.928 -1.3321  0.3388 -0.8005
  867MOL0     H14435  10.545   7.037  10.019  1.3964 -0.3642 -1.3695
  867MOL0     H14436  10.749   7.066  10.210  1.8213  0.5306  0.5568
  867MOL0     H14437  10.638   6.928  10.181 -2.5943  3.6686  0.9433
  867MOL0     H14438  10.918   6.942  10.062 -1.7930  3.2133 -0.7158
  867MOL0     H14439  10.795   6.808  10.034 -0.1200  0.5510 -0.7703
  867MOL0     H14440  10.899   6.894  10.299 -0.7383  0.2407  0.8127
  867MOL0     H14441  10.791   6.753  10.268  0.9173 -0.6456  0.0427
  867MOL0     H14442  11.163   6.586  10.162  0.6793  0.4438  0.5161
  867MOL0     H14443  10.488   7.229  10.211 -0.2018 -0.1913 -0.0309
  867MOL0     H14444  10.305   7.371  10.187  0.2486 -1.1982 -0.2449
  868MOL0     O14445   3.334   1.765   5.169  0.1355  0.7058 -0.2575
  868MOL0     C14446   3.258   1.852   5.218  0.3821 -0.3388  0.4881
  868MOL0     O14447   3.271   1.980   5.210 -0.3191 -0.4242 -0.0696
  868MOL0     C14448   3.376   2.030   5.120  0.5228 -0.0227 -0.7228
  868MOL0     C14449   3.369   2.017   4.985 -0.1453 -0.4175  0.0077
  868MOL0     C14450   3.470   2.076   4.901 -1.3360  0.8153 -0.1398
  868MOL0     C14451   3.579   2.138   4.972  0.0043 -0.1578  0.2407
  868MOL0     O14452   3.662   2.196   4.881  0.1134 -0.4669  0.2483
  868MOL0     C14453   3.762   2.111   4.817  0.1027 -0.6015 -0.5494
  868MOL0     C14454   3.791   2.179   4.684 -0.6895  0.9455  0.4567
  868MOL0     C14455   3.700   2.141   4.573  0.3040  0.5954 -0.1660
  868MOL0     C14456   3.734   2.220   4.442 -0.0883  0.3180 -0.8474
  868MOL0     C14457   3.655   2.188   4.313 -0.3168 -0.0575 -0.5090
  868MOL0     C14458   3.502   2.217   4.320  0.8959  0.0058  0.8142
  868MOL0     C14459   3.455   2.349   4.358 -0.3190  0.4687 -0.0497
  868MOL0     C14460   3.304   2.355   4.350 -0.0077 -0.4704  0.9414
  868MOL0     N14461   3.239   2.257   4.427  0.2228  0.2115 -0.1747
  868MOL0     C14462   3.203   2.277   4.562 -0.6753 -0.3032 -0.2154
  868MOL0     C14463   3.108   2.183   4.588 -0.6873  0.2882  0.8860
  868MOL0     C14464   3.031   2.191   4.725  0.6023  0.5647 -1.1056
  868MOL0     C14465   2.984   2.051   4.780  0.5213  0.3422  0.9851
  868MOL0     C14466   2.918   2.060   4.915  0.0288 -0.5881 -0.1133
  868MOL0     C14467   2.833   1.938   4.933  0.6229  0.3595 -0.5301
  868MOL0     O14468   2.915   1.830   4.956 -0.4972 -0.0576 -0.5269
  868MOL0     C14469   2.851   1.712   4.952  0.1039  0.1836 -0.5529
  868MOL0     C14470   2.901   1.599   4.888  0.9063  0.7324  0.1939
  868MOL0     C14471   2.836   1.472   4.882  0.0740  0.7206 -1.0798
  868MOL0     C14472   2.718   1.454   4.959  0.3042 -0.5326 -0.7003
  868MOL0     C14473   2.627   1.343   4.938  0.0238  1.0198  0.0311
  868MOL0     O14474   2.517   1.311   5.008  0.3006  0.0763 -0.8015
  868MOL0     C14475   2.463   1.185   5.029 -0.0941 -0.3459 -0.1637
  868MOL0     C14476   2.529   1.061   5.023 -0.1560 -0.7639  1.0830
  868MOL0     C14477   2.459   0.940   5.048  0.6144  0.1314  0.4299
  868MOL0     C14478   2.319   0.942   5.076 -0.0788  0.0006  0.5260
  868MOL0     O14479   2.268   0.825   5.123 -0.0409  0.8165 -0.4723
  868MOL0     C14480   2.159   0.822   5.229 -0.6480 -0.1436 -0.1066
  868MOL0     C14481   2.099   0.687   5.219  0.6981 -0.0483 -1.2149
  868MOL0     C14482   1.984   0.681   5.315  0.3380  0.1630  1.1352
  868MOL0     C14483   1.995   0.629   5.454 -0.5026  0.2283 -0.3908
  868MOL0     C14484   1.861   0.591   5.513  0.9406 -1.0288  0.6464
  868MOL0     C14485   1.866   0.549   5.656  0.0062  0.5613  0.5092
  868MOL0     C14486   1.739   0.516   5.728  0.3966  0.5133  0.4703
  868MOL0     C14487   1.743   0.511   5.882 -0.8412  0.8591  1.6648
  868MOL0    Cl14488   1.829   0.651   5.951 -0.3074  0.0448  0.0315
  868MOL0     C14489   2.252   1.064   5.059 -0.5748  0.8705 -0.9030
  868MOL0     C14490   2.327   1.184   5.047 -0.3230  0.1307  0.0822
  868MOL0     O14491   2.668   1.271   4.848 -0.4163  0.1387 -0.9337
  868MOL0     C14492   2.670   1.563   5.039 -0.0069 -0.6868 -0.0251
  868MOL0     C14493   2.737   1.687   5.028 -1.3184  0.4668 -0.3045
  868MOL0     N14494   3.089   2.102   4.476  0.4365 -0.7585 -0.4494
  868MOL0     N14495   3.170   2.149   4.394 -0.0019 -0.1201  0.4864
  868MOL0     C14496   3.577   2.155   5.115 -0.2391 -0.0689 -0.6305
  868MOL0     C14497   3.475   2.099   5.187 -0.0785 -0.6125  0.1656
  868MOL0     C14498   3.140   1.807   5.292 -0.0038 -0.4417  0.3806
  868MOL0     C14499   3.018   1.877   5.297 -1.0748  0.2855  0.0339
  868MOL0     C14500   2.904   1.826   5.355 -0.6550  1.1855  0.3413
  868MOL0     C14501   2.895   1.688   5.408 -0.4577 -1.2918  0.3607
  868MOL0     O14502   2.771   1.643   5.449  0.4156  0.0023 -0.0361
  868MOL0     C14503   2.744   1.505   5.478 -0.7153 -0.2790  0.2335
  868MOL0     C14504   2.653   1.435   5.379 -0.3594 -0.9668  0.3002
  868MOL0     C14505   2.503   1.472   5.406  0.1273  0.9160 -0.4716
  868MOL0     C14506   2.404   1.380   5.336  0.2069  0.3342  1.2183
  868MOL0     C14507   2.422   1.242   5.387  0.6191  0.3778 -0.1783
  868MOL0     C14508   2.456   1.138   5.429 -0.0523 -0.0721 -0.0107
  868MOL0     C14509   3.024   1.629   5.414 -0.5018  0.2901 -0.0485
  868MOL0     C14510   3.133   1.677   5.344 -0.4069 -0.7726 -1.2023
  868MOL0     H14511   3.280   1.979   4.936  0.0050  1.8277 -2.2423
  868MOL0     H14512   3.475   2.082   4.792 -0.2077 -0.7288 -0.1931
  868MOL0     H14513   3.723   2.009   4.807  2.6247 -1.5963 -0.9982
  868MOL0     H14514   3.843   2.110   4.890 -2.5202 -0.0490  2.6538
  868MOL0     H14515   3.885   2.138   4.647 -1.5563 -0.6985  0.0131
  868MOL0     H14516   3.808   2.287   4.694 -1.9590  0.9799  3.3857
  868MOL0     H14517   3.599   2.167   4.606  0.3922  0.4018  0.2585
  868MOL0     H14518   3.707   2.033   4.558 -1.4744  0.2722  1.1223
  868MOL0     H14519   3.720   2.327   4.462  0.5419 -0.1475  2.7134
  868MOL0     H14520   3.838   2.197   4.418  0.7230  1.7162  1.0922
  868MOL0     H14521   3.658   2.079   4.304  0.6048 -0.3161  2.0846
  868MOL0     H14522   3.697   2.232   4.222  0.2248  1.1726  0.3131
  868MOL0     H14523   3.452   2.143   4.382 -1.4947  0.1994 -0.7619
  868MOL0     H14524   3.449   2.197   4.227 -0.7343  1.6020  1.3655
  868MOL0     H14525   3.485   2.364   4.462 -1.4657 -2.6212  0.8385
  868MOL0     H14526   3.498   2.428   4.296 -1.5545  1.2439  0.0575
  868MOL0     H14527   3.276   2.340   4.245  1.4261 -1.3330  0.6519
  868MOL0     H14528   3.258   2.450   4.378 -1.6157 -0.5776 -1.1250
  868MOL0     H14529   3.229   2.361   4.627 -2.5301  0.1996 -0.0626
  868MOL0     H14530   2.949   2.264   4.722 -1.7844 -1.9583 -1.6330
  868MOL0     H14531   3.103   2.228   4.798  0.0650 -0.9251  0.2497
  868MOL0     H14532   3.071   1.984   4.774 -1.1172 -1.9413  1.1116
  868MOL0     H14533   2.914   2.002   4.711 -0.1249  1.3586  0.9076
  868MOL0     H14534   2.988   2.058   4.999 -1.7218 -0.3952  1.4056
  868MOL0     H14535   2.852   2.146   4.933 -2.4854 -1.9412 -2.1193
  868MOL0     H14536   2.770   1.918   4.846  0.6173 -1.7877 -0.0833
  868MOL0     H14537   2.770   1.946   5.022 -0.4071 -1.0233 -1.1024
  868MOL0     H14538   2.997   1.603   4.838  2.7940  1.0454  3.5094
  868MOL0     H14539   2.864   1.388   4.819 -2.8936 -1.4173  0.1806
  868MOL0     H14540   2.632   1.059   4.988 -0.9126 -0.5169 -1.3037
  868MOL0     H14541   2.508   0.843   5.052  1.8358  0.6458 -1.0883
  868MOL0     H14542   2.084   0.900   5.216 -1.3071 -0.8566 -0.6614
  868MOL0     H14543   2.198   0.838   5.330  0.5596 -0.4730 -0.5024
  868MOL0     H14544   2.177   0.623   5.260  0.6314  0.6723  0.0976
  868MOL0     H14545   2.068   0.670   5.115  1.6129  2.5363 -1.9793
  868MOL0     H14546   1.899   0.631   5.268 -0.3118  2.4723 -0.3205
  868MOL0     H14547   1.951   0.783   5.337  0.6307  0.4921  0.1392
  868MOL0     H14548   2.055   0.538   5.459 -4.1263 -2.3365  1.4487
  868MOL0     H14549   2.049   0.705   5.510 -0.4845  0.6412 -0.9555
  868MOL0     H14550   1.828   0.515   5.441  0.0647  2.0390 -2.4860
  868MOL0     H14551   1.787   0.671   5.504  3.7454  1.8003  0.9076
  868MOL0     H14552   1.937   0.620   5.699  2.7097 -1.0775 -1.0091
  868MOL0     H14553   1.924   0.457   5.662 -0.9865 -0.1394 -0.1985
  868MOL0     H14554   1.667   0.585   5.682  1.0511  0.8913 -0.0050
  868MOL0     H14555   1.713   0.415   5.695 -0.8949  0.5656  1.2688
  868MOL0     H14556   1.800   0.422   5.909 -0.3706 -0.1176 -1.9784
  868MOL0     H14557   1.637   0.499   5.906 -1.1708 -1.5954 -0.4844
  868MOL0     H14558   2.144   1.064   5.060 -0.6053  0.8136 -2.3820
  868MOL0     H14559   2.264   1.272   5.042 -0.6872 -0.1406 -0.1765
  868MOL0     H14560   2.576   1.559   5.093  0.4274  0.0089  0.8116
  868MOL0     H14561   2.706   1.761   5.100  2.1026  4.0304 -2.0717
  868MOL0     H14562   3.645   2.215   5.175  0.2121 -0.1853 -1.0231
  868MOL0     H14563   3.468   2.111   5.294  2.0491 -1.0743  0.4143
  868MOL0     H14564   3.010   1.973   5.248  1.3688 -0.0492 -1.1692
  868MOL0     H14565   2.812   1.885   5.354 -0.1775  1.9367  0.4333
  868MOL0     H14566   2.699   1.499   5.577 -0.4549  1.4220  0.4975
  868MOL0     H14567   2.835   1.446   5.467  0.2163  0.5245  2.8758
  868MOL0     H14568   2.678   1.471   5.279  1.5246 -0.4468  0.9261
  868MOL0     H14569   2.674   1.328   5.375  2.7141 -0.4069 -0.7293
  868MOL0     H14570   2.481   1.579   5.395 -0.1544  0.8778 -0.2857
  868MOL0     H14571   2.467   1.458   5.509 -0.5330  0.3083 -0.7769
  868MOL0     H14572   2.305   1.415   5.367  0.4085  0.3207  1.8940
  868MOL0     H14573   2.411   1.378   5.227 -1.3771 -0.5155  1.1023
  868MOL0     H14574   2.477   1.046   5.480  1.5432  0.1322 -0.2518
  868MOL0     H14575   3.027   1.532   5.461 -3.3808 -1.1297 -2.4531
  868MOL0     H14576   3.231   1.630   5.341 -0.6550 -1.2733 -1.4092
  869MOL0     O14577   2.582  11.286   7.648  0.4058  0.3724  0.6442
  869MOL0     C14578   2.685  11.221   7.615 -0.1014 -0.2120 -0.2450
  869MOL0     O14579   2.769  11.139   7.693  0.1022  0.4909 -0.7954
  869MOL0     C14580   2.753  11.151   7.827  1.0574  0.6740 -0.0378
  869MOL0     C14581   2.687  11.056   7.903 -0.0310 -0.1834 -0.6841
  869MOL0     C14582   2.658  11.087   8.038 -0.1158 -0.0701 -0.0828
  869MOL0     C14583   2.701  11.203   8.103  0.3867  0.2250 -1.0514
  869MOL0     O14584   2.677  11.240   8.235  0.3180  0.1890  0.2139
  869MOL0     C14585   2.595  11.154   8.308 -0.6340 -0.1331 -0.8821
  869MOL0     C14586   2.663  11.031   8.370  0.2202  1.0253  0.4558
  869MOL0     C14587   2.571  10.920   8.412  0.1772 -0.7940  0.0758
  869MOL0     C14588   2.489  10.951   8.542 -0.6671 -0.7550  0.9280
  869MOL0     C14589   2.552  10.945   8.671  0.4886  0.6555 -0.3088
  869MOL0     C14590   2.597  10.796   8.707  0.3965 -0.8471  0.0928
  869MOL0     C14591   2.630  10.799   8.860 -0.3659  0.9485  0.0168
  869MOL0     C14592   2.734  10.909   8.917 -0.2959 -0.0451  0.1064
  869MOL0     N14593   2.864  10.899   8.844 -0.2631 -0.3987  0.1956
  869MOL0     C14594   2.909  10.963   8.726 -0.0252  0.8181 -0.3459
  869MOL0     C14595   3.038  10.911   8.713  0.3556 -0.4798 -0.4239
  869MOL0     C14596   3.126  10.944   8.602 -0.3318 -0.0521 -0.8387
  869MOL0     C14597   3.118  10.847   8.483 -0.8544  1.0389 -1.1346
  869MOL0     C14598   3.243  10.860   8.402  0.2877  0.6150  0.1935
  869MOL0     C14599   3.263  10.998   8.338  0.2339  0.1776  0.2747
  869MOL0     O14600   3.157  11.048   8.257  1.2055  0.3357  0.1773
  869MOL0     C14601   3.180  11.080   8.122 -0.1579  0.1565 -0.2198
  869MOL0     C14602   3.077  11.035   8.034 -0.0277  0.1422  0.2702
  869MOL0     C14603   3.083  11.076   7.898  0.0883 -0.5269 -0.0226
  869MOL0     C14604   3.190  11.162   7.856 -0.3180 -0.2289 -0.4426
  869MOL0     C14605   3.205  11.189   7.707 -1.0842 -0.5641 -0.2882
  869MOL0     O14606   3.323  11.251   7.678  0.6727  0.7685  0.8021
  869MOL0     C14607   3.357  11.267   7.539 -0.5092  0.1982 -0.6429
  869MOL0     C14608   3.374  11.158   7.448 -0.2339  0.0138 -0.1689
  869MOL0     C14609   3.413  11.182   7.319  0.4117  0.8897 -0.2356
  869MOL0     C14610   3.432  11.314   7.264  0.2818 -0.4150  0.4696
  869MOL0     O14611   3.444  11.345   7.127  0.1446  0.3316  0.2859
  869MOL0     C14612   3.344  11.434   7.075 -0.5743  0.0174  0.4149
  869MOL0     C14613   3.384  11.440   6.922  1.2129 -0.5123  1.3973
  869MOL0     C14614   3.292  11.537   6.845  0.9669  0.4276  0.0458
  869MOL0     C14615   3.304  11.536   6.691  0.0334 -0.2869  1.2446
  869MOL0     C14616   3.193  11.605   6.608  0.3516 -0.7469 -0.1431
  869MOL0     C14617   3.204  11.759   6.591  0.4588 -0.2299  0.3749
  869MOL0     C14618   3.337  11.797   6.525  0.5284 -0.1028  0.1894
  869MOL0     C14619   3.329  11.944   6.475 -0.5372  0.6199 -0.2769
  869MOL0    Cl14620   3.255  12.055   6.600  0.2115  0.3911  0.1887
  869MOL0     C14621   3.433  11.423   7.365  0.6032  0.6646 -0.3624
  869MOL0     C14622   3.389  11.400   7.500 -0.0961  0.1723  0.1145
  869MOL0     O14623   3.116  11.154   7.632 -0.3731 -0.0522 -0.0974
  869MOL0     C14624   3.301  11.183   7.938  0.1229  0.1696 -0.0488
  869MOL0     C14625   3.294  11.146   8.076  0.6486 -0.8028 -0.2283
  869MOL0     N14626   3.066  10.818   8.814 -0.8164  0.4558  0.2996
  869MOL0     N14627   2.964  10.830   8.901 -0.6931  0.6387 -0.1974
  869MOL0     C14628   2.774  11.300   8.029 -0.1131 -0.2583  0.7662
  869MOL0     C14629   2.795  11.273   7.890 -0.8553 -0.2298 -0.2465
  869MOL0     C14630   2.725  11.243   7.473  0.3048  0.8914 -0.3852
  869MOL0     C14631   2.839  11.170   7.420 -0.0454 -0.7191  0.2438
  869MOL0     C14632   2.882  11.192   7.292 -0.1587 -0.0302  0.2311
  869MOL0     C14633   2.810  11.274   7.198 -0.4069  0.8943  0.7707
  869MOL0     O14634   2.856  11.273   7.063  0.6568  0.1287 -0.5278
  869MOL0     C14635   2.779  11.347   6.969 -0.3750 -0.5775  0.7642
  869MOL0     C14636   2.874  11.386   6.855 -0.1516  0.0534 -0.0895
  869MOL0     C14637   2.869  11.264   6.754  0.0988 -0.7797 -0.3523
  869MOL0     C14638   2.961  11.322   6.655 -0.0170 -0.3959  0.1022
  869MOL0     C14639   2.979  11.237   6.532 -0.9370 -0.0190  0.0147
  869MOL0     C14640   2.980  11.172   6.429  0.0987  0.3419  0.1555
  869MOL0     C14641   2.694  11.327   7.243  0.0434 -0.8839 -0.5061
  869MOL0     C14642   2.646  11.310   7.379  0.1611 -0.1683 -0.2487
  869MOL0     H14643   2.647  10.977   7.841  2.9448 -0.5698 -2.2669
  869MOL0     H14644   2.609  11.006   8.090  1.5018 -1.4739 -0.6468
  869MOL0     H14645   2.509  11.128   8.246 -1.7277  1.0628  0.0728
  869MOL0     H14646   2.561  11.212   8.394 -1.3737 -1.9048  0.0695
  869MOL0     H14647   2.739  11.063   8.441  1.3371 -0.9804  0.2464
  869MOL0     H14648   2.721  10.986   8.288  0.4091  3.3135 -0.7658
  869MOL0     H14649   2.626  10.825   8.415  1.8168  0.1393  0.4996
  869MOL0     H14650   2.496  10.906   8.333 -1.7297 -4.3966  2.2229
  869MOL0     H14651   2.459  11.056   8.543 -1.2537 -0.9010 -0.0754
  869MOL0     H14652   2.400  10.887   8.537 -1.8182  0.4573  3.6226
  869MOL0     H14653   2.478  10.997   8.731 -1.8418 -1.4090 -1.2483
  869MOL0     H14654   2.640  11.011   8.673  0.0725  1.2117 -0.3187
  869MOL0     H14655   2.688  10.758   8.659  0.7011 -0.6834  0.5290
  869MOL0     H14656   2.524  10.723   8.672  0.8267  0.7468 -4.8254
  869MOL0     H14657   2.548  10.796   8.932  1.0002  0.3951  1.6227
  869MOL0     H14658   2.677  10.701   8.875  1.5731  1.8106 -0.1245
  869MOL0     H14659   2.734  10.909   9.026  1.9732  1.8110  0.1644
  869MOL0     H14660   2.691  11.007   8.894  1.1090  0.4788 -0.3726
  869MOL0     H14661   2.857  11.030   8.658  1.0950  0.9730 -1.0730
  869MOL0     H14662   3.228  10.956   8.637 -0.1416  2.2473 -1.9618
  869MOL0     H14663   3.103  11.048   8.576  1.2096  0.5035 -0.0512
  869MOL0     H14664   3.023  10.853   8.431 -1.3971 -1.7661 -0.6276
  869MOL0     H14665   3.117  10.744   8.519 -0.6791  1.8419  1.4446
  869MOL0     H14666   3.333  10.824   8.451 -1.5785 -1.3154  2.4514
  869MOL0     H14667   3.237  10.796   8.314  0.7566 -2.5453  2.2882
  869MOL0     H14668   3.350  10.981   8.275  0.4069  1.2916  0.1942
  869MOL0     H14669   3.306  11.066   8.412  2.6847 -2.4368  1.4072
  869MOL0     H14670   3.001  10.978   8.087  2.1282 -2.1260  1.1559
  869MOL0     H14671   2.998  11.051   7.836 -0.6851 -1.8622  1.4765
  869MOL0     H14672   3.355  11.058   7.486  1.7621 -1.1302 -1.9487
  869MOL0     H14673   3.411  11.099   7.249 -1.8818 -0.2209  1.0179
  869MOL0     H14674   3.346  11.533   7.121 -1.6721  0.8200 -1.1619
  869MOL0     H14675   3.248  11.383   7.082 -0.7590 -0.3622 -3.1184
  869MOL0     H14676   3.376  11.337   6.887 -1.4608  0.2608 -0.5248
  869MOL0     H14677   3.486  11.481   6.924  1.8509 -1.9452  3.7411
  869MOL0     H14678   3.316  11.637   6.883  0.7808 -0.6202  3.2775
  869MOL0     H14679   3.185  11.527   6.868  1.1713 -1.3053  0.4457
  869MOL0     H14680   3.401  11.585   6.677 -0.7814  1.2756  0.7887
  869MOL0     H14681   3.305  11.433   6.656  2.4166  0.8640 -2.6465
  869MOL0     H14682   3.101  11.590   6.665  0.7147 -2.5056  0.0367
  869MOL0     H14683   3.177  11.558   6.510  0.3294  0.3679 -0.6932
  869MOL0     H14684   3.205  11.813   6.686  2.1326 -0.8456  0.7511
  869MOL0     H14685   3.119  11.793   6.532  1.4308  3.6922  0.9289
  869MOL0     H14686   3.417  11.787   6.599  1.5731 -1.9191 -1.1175
  869MOL0     H14687   3.357  11.735   6.437  0.3876  0.3546 -0.1774
  869MOL0     H14688   3.264  11.956   6.388 -0.9000  2.4053  0.1930
  869MOL0     H14689   3.425  11.995   6.462 -0.3520  0.3736  0.1016
  869MOL0     H14690   3.436  11.531   7.350  1.3444  0.4838 -1.6584
  869MOL0     H14691   3.362  11.488   7.557  1.9680  3.0206 -2.8733
  869MOL0     H14692   3.378  11.254   7.910  0.5811 -0.7108 -1.1125
  869MOL0     H14693   3.363  11.186   8.149 -2.5691  3.5672  0.8051
  869MOL0     H14694   2.806  11.389   8.082 -1.9982  0.1151  1.3469
  869MOL0     H14695   2.840  11.350   7.828 -0.9667 -0.0427 -0.0956
  869MOL0     H14696   2.897  11.108   7.487  0.1053 -0.3617  0.4452
  869MOL0     H14697   2.974  11.143   7.263 -0.4437 -0.4493  0.0359
  869MOL0     H14698   2.735  11.435   7.018  3.2974  2.4743 -0.8995
  869MOL0     H14699   2.704  11.276   6.933 -1.2834 -0.1045  1.6822
  869MOL0     H14700   2.840  11.475   6.801 -0.0103 -1.1989 -2.3843
  869MOL0     H14701   2.974  11.401   6.897 -0.1091  0.2666 -0.2662
  869MOL0     H14702   2.769  11.245   6.715  0.9266 -2.1004 -1.9286
  869MOL0     H14703   2.914  11.180   6.807  1.1007 -0.1821 -0.2244
  869MOL0     H14704   2.928  11.418   6.615 -0.8967 -0.9250 -0.4811
  869MOL0     H14705   3.062  11.330   6.697  0.2736 -0.9748 -0.4653
  869MOL0     H14706   2.957  11.149   6.327  0.6002  0.5325 -0.0041
  869MOL0     H14707   2.629  11.382   7.176  0.9470  0.0001 -0.6938
  869MOL0     H14708   2.558  11.365   7.408 -1.3164 -1.3730 -2.1929
  870MOL0     O14709   4.052   9.306   2.798 -0.1220  0.4534  0.1160
  870MOL0     C14710   4.100   9.416   2.779 -0.2334 -0.7560 -0.4341
  870MOL0     O14711   4.034   9.537   2.807  0.0257 -0.2190  0.7621
  870MOL0     C14712   3.899   9.559   2.815  0.0756 -0.1040  0.5514
  870MOL0     C14713   3.866   9.672   2.877 -0.5067  0.4687  0.2676
  870MOL0     C14714   3.739   9.709   2.892 -0.0323  0.1602 -0.2473
  870MOL0     C14715   3.636   9.616   2.863  0.0879  0.2324  0.2070
  870MOL0     O14716   3.497   9.641   2.873 -0.5985  0.6303  0.1348
  870MOL0     C14717   3.457   9.752   2.941  0.7520 -0.1466 -0.3230
  870MOL0     C14718   3.461   9.886   2.868 -0.2400  0.7037  0.1267
  870MOL0     C14719   3.407   9.999   2.957 -1.0588 -0.4349 -0.4609
  870MOL0     C14720   3.465  10.007   3.102  0.2333 -0.1111 -1.3858
  870MOL0     C14721   3.605  10.046   3.131 -0.4362 -0.7210  0.6424
  870MOL0     C14722   3.652   9.995   3.268  0.1528  0.0250  0.2362
  870MOL0     C14723   3.802  10.000   3.290  0.1673 -0.1218  1.2772
  870MOL0     C14724   3.836  10.145   3.301 -0.2408 -0.5094 -0.3846
  870MOL0     N14725   3.969  10.168   3.362 -0.2454 -0.3111  0.2443
  870MOL0     C14726   4.060  10.062   3.383  0.9494 -0.4277 -0.5187
  870MOL0     C14727   4.178  10.128   3.412 -0.1955 -0.0126  0.0924
  870MOL0     C14728   4.300  10.058   3.459  0.0020  0.9096  0.8359
  870MOL0     C14729   4.360   9.957   3.351 -0.1752 -0.1415  0.2053
  870MOL0     C14730   4.480   9.885   3.414  0.1628  0.7270  0.4337
  870MOL0     C14731   4.599   9.986   3.413 -0.2774  0.0620  0.0930
  870MOL0     O14732   4.724   9.927   3.444  0.0396  0.3336 -0.4073
  870MOL0     C14733   4.791   9.863   3.346 -0.0334 -0.4797 -0.8468
  870MOL0     C14734   4.751   9.835   3.208  0.0950  0.2984 -0.5960
  870MOL0     C14735   4.843   9.772   3.119  0.2192 -0.6939  0.8017
  870MOL0     C14736   4.977   9.733   3.168  0.4235  0.1258  0.8146
  870MOL0     C14737   5.086   9.681   3.080 -0.3777 -0.2803 -0.3671
  870MOL0     O14738   5.209   9.679   3.131  0.0156 -0.3843 -0.6201
  870MOL0     C14739   5.331   9.673   3.056 -0.9330  0.7653 -0.3258
  870MOL0     C14740   5.333   9.666   2.920 -0.1058  0.3486  0.2302
  870MOL0     C14741   5.457   9.679   2.846 -0.0169 -0.3019 -0.3021
  870MOL0     C14742   5.581   9.687   2.919  0.6319  0.7506  0.5748
  870MOL0     O14743   5.704   9.685   2.859 -0.3653  0.4785 -0.7503
  870MOL0     C14744   5.709   9.667   2.721  0.2238  0.5523 -0.2831
  870MOL0     C14745   5.859   9.662   2.689 -0.7974 -0.5723 -0.6845
  870MOL0     C14746   5.889   9.633   2.540 -0.5780 -0.4085 -1.0077
  870MOL0     C14747   5.823   9.738   2.454  0.4831 -0.5392  0.2894
  870MOL0     C14748   5.865   9.753   2.311 -0.6255  0.2793 -0.6344
  870MOL0     C14749   5.839   9.898   2.281 -0.4106 -0.0941  0.6515
  870MOL0     C14750   5.875   9.923   2.141 -0.5688  0.4457 -0.7726
  870MOL0     C14751   5.837  10.055   2.081  0.1148  0.2283 -0.3140
  870MOL0    Cl14752   5.939  10.195   2.153  0.0530  0.2140  0.3220
  870MOL0     C14753   5.579   9.687   3.061 -0.5183 -0.1029 -0.1979
  870MOL0     C14754   5.454   9.673   3.121 -0.0115 -0.8452  0.1141
  870MOL0     O14755   5.050   9.628   2.974  0.1560 -0.1540  0.0519
  870MOL0     C14756   5.009   9.756   3.303 -0.3447 -0.2201 -0.2165
  870MOL0     C14757   4.920   9.832   3.381 -0.3146  0.7724  0.0157
  870MOL0     N14758   4.146  10.260   3.409 -0.9606 -0.5504 -0.6496
  870MOL0     N14759   4.032  10.284   3.381 -0.3955  0.4413 -1.1267
  870MOL0     C14760   3.671   9.498   2.801 -0.1232 -0.5053  0.5090
  870MOL0     C14761   3.804   9.473   2.761 -0.5553 -0.2101 -0.8931
  870MOL0     C14762   4.226   9.434   2.711  0.0351  0.4921  0.5131
  870MOL0     C14763   4.261   9.551   2.638  0.2863 -0.4265 -0.4460
  870MOL0     C14764   4.385   9.557   2.574 -0.2099 -0.6583  0.6732
  870MOL0     C14765   4.473   9.453   2.580 -0.2759  0.2756 -0.2008
  870MOL0     O14766   4.584   9.469   2.505 -0.2208  0.6583 -1.0300
  870MOL0     C14767   4.646   9.358   2.442  0.7292  0.4502 -0.3580
  870MOL0     C14768   4.757   9.326   2.543  0.0280  0.0505 -0.6047
  870MOL0     C14769   4.846   9.217   2.496 -0.2613 -0.3604 -0.5311
  870MOL0     C14770   4.963   9.191   2.592 -0.0493  0.2479 -0.6973
  870MOL0     C14771   5.055   9.088   2.534 -0.1904 -0.6933 -0.0609
  870MOL0     C14772   5.135   9.010   2.489  0.9727  0.1848  0.4862
  870MOL0     C14773   4.435   9.330   2.636 -0.1266 -0.2480  1.1039
  870MOL0     C14774   4.317   9.321   2.712  0.5809  0.2300  0.4010
  870MOL0     H14775   3.950   9.732   2.910 -0.5680 -0.3306  1.9721
  870MOL0     H14776   3.713   9.798   2.947  0.4697  0.7798 -0.9913
  870MOL0     H14777   3.521   9.748   3.029  0.1618  1.1667  0.1811
  870MOL0     H14778   3.357   9.737   2.984  0.7624  1.8377  0.4917
  870MOL0     H14779   3.395   9.874   2.782 -0.0132 -2.2468  0.2805
  870MOL0     H14780   3.562   9.912   2.836  0.8454 -2.4108  0.6569
  870MOL0     H14781   3.299   9.983   2.963 -1.3198  1.3414  0.5154
  870MOL0     H14782   3.426  10.095   2.908  1.7535 -0.0588  1.1728
  870MOL0     H14783   3.399  10.072   3.161  0.4449 -0.7925 -0.3749
  870MOL0     H14784   3.434   9.910   3.143 -0.9246  1.1046  0.8036
  870MOL0     H14785   3.618  10.155   3.134 -3.1603 -0.3446  1.7328
  870MOL0     H14786   3.667  10.010   3.048 -0.8978  1.4698 -0.7452
  870MOL0     H14787   3.627   9.889   3.272 -3.7747  0.8667  2.7215
  870MOL0     H14788   3.598  10.039   3.352 -0.7363 -0.0157 -0.3107
  870MOL0     H14789   3.823   9.926   3.367 -2.5561 -3.3162 -0.7907
  870MOL0     H14790   3.850   9.969   3.197 -2.0368  1.8420 -0.6445
  870MOL0     H14791   3.764  10.197   3.364 -0.9452 -1.5224 -0.3425
  870MOL0     H14792   3.833  10.201   3.207 -0.3981  0.9652  0.4612
  870MOL0     H14793   4.041   9.956   3.379 -1.6584 -0.0362 -0.3751
  870MOL0     H14794   4.275  10.005   3.551  4.3857  0.3797  1.9558
  870MOL0     H14795   4.377  10.131   3.486  0.4143 -0.1523  2.7004
  870MOL0     H14796   4.382  10.018   3.263 -1.7328  0.3783  0.1418
  870MOL0     H14797   4.281   9.885   3.327 -1.6922  2.0330 -1.6864
  870MOL0     H14798   4.464   9.835   3.511  1.2831 -4.1866 -1.6164
  870MOL0     H14799   4.504   9.802   3.347  0.9674  0.5024  0.9865
  870MOL0     H14800   4.584  10.048   3.502 -0.0894  0.9581 -0.4866
  870MOL0     H14801   4.599  10.053   3.327 -0.3964 -1.2687 -0.9709
  870MOL0     H14802   4.664   9.883   3.164 -1.8358 -2.1238  0.3689
  870MOL0     H14803   4.820   9.743   3.016 -0.8484  0.2956  0.7433
  870MOL0     H14804   5.245   9.659   2.856  1.6318 -1.6688 -2.1314
  870MOL0     H14805   5.453   9.677   2.738  0.4692 -0.9498 -0.3162
  870MOL0     H14806   5.662   9.750   2.667  2.4598  1.6983 -0.5912
  870MOL0     H14807   5.667   9.571   2.689  1.7115 -0.2910  0.2098
  870MOL0     H14808   5.923   9.609   2.760 -1.0327 -0.4274 -0.3627
  870MOL0     H14809   5.891   9.764   2.714 -1.6052 -0.6478  0.7074
  870MOL0     H14810   5.860   9.530   2.520 -1.9110  0.1876 -2.4179
  870MOL0     H14811   5.997   9.638   2.527 -0.5627 -1.5954 -1.4513
  870MOL0     H14812   5.717   9.716   2.438  0.9844 -2.8030 -0.3117
  870MOL0     H14813   5.824   9.835   2.504 -2.4481  1.5991 -3.2983
  870MOL0     H14814   5.828   9.680   2.238  3.2980  0.0108 -2.6457
  870MOL0     H14815   5.973   9.736   2.297 -0.8324 -2.2504  0.2813
  870MOL0     H14816   5.905   9.962   2.340  1.3744  0.6050 -1.9316
  870MOL0     H14817   5.734   9.919   2.301 -1.0109 -0.9371 -1.3099
  870MOL0     H14818   5.982   9.907   2.121 -0.9742 -2.7208 -0.9347
  870MOL0     H14819   5.822   9.853   2.075 -0.7836 -0.5433  0.4101
  870MOL0     H14820   5.731  10.070   2.100 -0.3348 -1.1785 -1.5785
  870MOL0     H14821   5.866  10.055   1.975 -0.2785  2.2608 -0.4673
  870MOL0     H14822   5.668   9.712   3.117 -2.3377  2.5958  1.7105
  870MOL0     H14823   5.438   9.679   3.229  0.9743  0.5676  0.2154
  870MOL0     H14824   5.106   9.737   3.347  1.6837  0.7652 -3.8577
  870MOL0     H14825   4.959   9.856   3.479  2.0703  2.1413 -1.1748
  870MOL0     H14826   3.588   9.432   2.777 -0.1196  0.0910 -1.2884
  870MOL0     H14827   3.819   9.381   2.705 -0.8726  0.3110 -1.8735
  870MOL0     H14828   4.189   9.630   2.626  0.5293 -0.3947 -1.7856
  870MOL0     H14829   4.414   9.650   2.527 -1.4847 -1.5600 -2.0814
  870MOL0     H14830   4.697   9.377   2.347  1.9838 -4.3856 -0.9196
  870MOL0     H14831   4.582   9.274   2.416  1.5381  0.4949 -2.7169
  870MOL0     H14832   4.817   9.414   2.569 -0.4663  0.9813 -2.4284
  870MOL0     H14833   4.726   9.289   2.641  0.7511  1.4597  0.2057
  870MOL0     H14834   4.902   9.249   2.408 -0.3572 -1.3125 -0.9596
  870MOL0     H14835   4.794   9.123   2.474 -0.9237  0.0524 -0.7260
  870MOL0     H14836   5.013   9.285   2.616  1.1765 -1.3285  4.0889
  870MOL0     H14837   4.908   9.149   2.677 -2.7196  1.6855 -1.6172
  870MOL0     H14838   5.191   8.933   2.442 -2.7096 -2.6005  0.2435
  870MOL0     H14839   4.484   9.234   2.625  2.0490  0.9511 -0.4261
  870MOL0     H14840   4.292   9.230   2.765  0.7138  1.5801  2.9479
  871MOL0     O14841   6.170   3.376   8.083  1.2169 -0.3782  0.7340
  871MOL0     C14842   6.073   3.321   8.131  0.1092 -0.4524 -0.1161
  871MOL0     O14843   6.054   3.305   8.271 -0.2332  0.4903  1.0470
  871MOL0     C14844   6.132   3.375   8.367  0.2610  0.2367  0.5189
  871MOL0     C14845   6.081   3.388   8.492  0.2687  0.4526  0.5234
  871MOL0     C14846   6.150   3.442   8.599 -0.3081  0.3429  0.0767
  871MOL0     C14847   6.282   3.479   8.583  0.0825 -0.6234 -0.4699
  871MOL0     O14848   6.352   3.540   8.686  0.0519  1.4792 -0.6174
  871MOL0     C14849   6.470   3.614   8.664  0.4451  0.1529 -0.1099
  871MOL0     C14850   6.500   3.715   8.769  0.1406 -0.2166  1.0587
  871MOL0     C14851   6.622   3.802   8.724  0.4004  0.5020  1.0156
  871MOL0     C14852   6.661   3.900   8.833  0.3834  0.4753 -0.3820
  871MOL0     C14853   6.792   3.976   8.793  0.6204 -1.2089  0.6936
  871MOL0     C14854   6.845   4.051   8.910 -0.0378  0.8502 -0.3446
  871MOL0     C14855   6.963   4.138   8.874  0.7080  0.5050  0.1995
  871MOL0     C14856   7.081   4.062   8.812 -0.7215 -0.6864  0.1244
  871MOL0     N14857   7.134   3.955   8.905 -0.3418 -0.7883  0.0205
  871MOL0     C14858   7.172   3.828   8.867  0.0585 -0.8796 -0.2570
  871MOL0     C14859   7.227   3.776   8.980 -0.3002  0.0838  1.2126
  871MOL0     C14860   7.284   3.638   9.003 -0.2735 -0.0450  0.5333
  871MOL0     C14861   7.176   3.536   9.012  0.3741 -0.3276  0.5492
  871MOL0     C14862   7.238   3.405   9.066 -0.8011 -0.4352 -0.8244
  871MOL0     C14863   7.157   3.277   9.050 -0.1601 -0.3101 -1.1445
  871MOL0     O14864   7.147   3.247   8.914  0.2864 -0.3536 -0.8119
  871MOL0     C14865   7.236   3.170   8.849  0.4018 -0.5975 -0.6307
  871MOL0     C14866   7.335   3.089   8.912 -0.3523 -0.7433  0.2403
  871MOL0     C14867   7.419   3.004   8.837  0.0943 -0.4316 -0.5145
  871MOL0     C14868   7.405   3.010   8.694 -0.3147  0.2604 -0.2560
  871MOL0     C14869   7.480   2.917   8.616 -0.5769  0.3387  0.4459
  871MOL0     O14870   7.544   2.817   8.681  0.3881  0.3411  0.1402
  871MOL0     C14871   7.654   2.747   8.633 -0.0443 -0.3694 -0.3544
  871MOL0     C14872   7.656   2.603   8.669 -0.9163  0.8169 -0.0280
  871MOL0     C14873   7.769   2.523   8.632 -0.8108  0.0936 -0.3654
  871MOL0     C14874   7.871   2.579   8.546  0.1534  0.1135 -1.3147
  871MOL0     O14875   7.978   2.496   8.513  0.5982 -0.1182  0.3673
  871MOL0     C14876   8.109   2.553   8.499  0.3935 -0.5404  0.5621
  871MOL0     C14877   8.149   2.576   8.365  0.2114 -1.0935  0.4563
  871MOL0     C14878   8.294   2.634   8.352 -0.6559  0.0745 -0.1768
  871MOL0     C14879   8.332   2.680   8.210 -0.8585  0.1103 -0.9434
  871MOL0     C14880   8.410   2.567   8.137 -0.9828  1.0199 -0.0829
  871MOL0     C14881   8.424   2.592   7.985 -0.0347 -0.4036  0.7006
  871MOL0     C14882   8.526   2.712   7.958 -1.2731 -0.4712  0.0920
  871MOL0     C14883   8.665   2.719   8.018  1.0725  0.1029 -1.0187
  871MOL0    Cl14884   8.738   2.886   7.988 -0.3584 -0.2359 -0.2167
  871MOL0     C14885   7.859   2.712   8.503 -0.2969 -0.1512  0.4645
  871MOL0     C14886   7.754   2.797   8.556  0.6619 -0.2947 -0.5735
  871MOL0     O14887   7.484   2.934   8.499  0.9166 -0.4647 -0.3118
  871MOL0     C14888   7.311   3.096   8.638  0.6909 -0.1145  0.3881
  871MOL0     C14889   7.224   3.172   8.709 -0.1781  0.7329  0.4598
  871MOL0     N14890   7.235   3.871   9.077 -0.0817  0.3449  0.2689
  871MOL0     N14891   7.180   3.975   9.038  0.3102 -0.1265  0.0896
  871MOL0     C14892   6.346   3.453   8.460  0.0986  0.5876 -0.2120
  871MOL0     C14893   6.266   3.413   8.355 -0.4598  0.8933 -0.1650
  871MOL0     C14894   5.981   3.256   8.040 -0.3934 -0.2949 -1.0609
  871MOL0     C14895   5.856   3.212   8.084  1.1343 -0.2712 -0.6248
  871MOL0     C14896   5.764   3.140   8.005 -0.0419 -0.9719  0.7160
  871MOL0     C14897   5.799   3.110   7.871 -1.0680  0.1735 -1.0467
  871MOL0     O14898   5.713   3.052   7.787  0.0289  0.1285  0.3700
  871MOL0     C14899   5.584   3.003   7.839 -0.2333  0.6427  1.0061
  871MOL0     C14900   5.522   2.910   7.733  0.1906 -0.4276  0.1880
  871MOL0     C14901   5.380   2.863   7.780  0.5964 -1.0073 -0.0347
  871MOL0     C14902   5.313   2.763   7.695 -0.9496  0.2055  0.3490
  871MOL0     C14903   5.190   2.724   7.755  0.0131 -0.4383  0.5242
  871MOL0     C14904   5.077   2.688   7.791 -0.8686  0.7391 -0.2400
  871MOL0     C14905   5.922   3.158   7.830  0.8452  0.4838 -0.1278
  871MOL0     C14906   6.014   3.230   7.909  0.2560  1.6703 -0.0789
  871MOL0     H14907   5.979   3.350   8.500 -0.3435  1.8091 -0.3421
  871MOL0     H14908   6.105   3.467   8.694  2.7380 -0.0545  1.7408
  871MOL0     H14909   6.453   3.663   8.568 -2.1548  1.6988  1.0440
  871MOL0     H14910   6.560   3.552   8.655  0.5545  0.2778  0.1109
  871MOL0     H14911   6.514   3.667   8.865 -0.2067 -1.0867  0.6846
  871MOL0     H14912   6.410   3.775   8.790 -0.7538 -1.8618  2.0794
  871MOL0     H14913   6.603   3.856   8.630 -1.9607  0.1491  1.2137
  871MOL0     H14914   6.709   3.737   8.710 -0.9800 -1.6166  1.8439
  871MOL0     H14915   6.584   3.977   8.841  0.5937  0.5095  1.7137
  871MOL0     H14916   6.668   3.848   8.929 -0.9188 -0.0298 -0.5466
  871MOL0     H14917   6.777   4.050   8.714  4.0551  2.8567  3.3916
  871MOL0     H14918   6.863   3.904   8.751 -0.3899 -0.0942 -3.4255
  871MOL0     H14919   6.872   3.984   8.993 -3.8416  0.9179  1.1216
  871MOL0     H14920   6.767   4.121   8.940  0.0051  0.5152  0.5934
  871MOL0     H14921   6.936   4.205   8.791  1.6416 -0.9811 -1.3900
  871MOL0     H14922   6.997   4.192   8.962  0.4714  0.0441  0.5767
  871MOL0     H14923   7.161   4.131   8.784 -1.3432 -0.5553 -1.4214
  871MOL0     H14924   7.046   4.025   8.715  1.9498 -3.2324 -0.0227
  871MOL0     H14925   7.156   3.794   8.765 -0.2674  3.9458 -2.1160
  871MOL0     H14926   7.337   3.634   9.098  0.2117  0.4966  0.2881
  871MOL0     H14927   7.355   3.609   8.925  0.0457  2.2495 -0.0878
  871MOL0     H14928   7.125   3.521   8.916 -0.6057 -1.6481  1.2382
  871MOL0     H14929   7.095   3.557   9.082 -1.7099 -1.2067 -1.4388
  871MOL0     H14930   7.340   3.395   9.028  0.6083  2.0399  1.9280
  871MOL0     H14931   7.253   3.410   9.174  2.8439 -0.2656 -1.2112
  871MOL0     H14932   7.051   3.284   9.076 -0.6988 -0.8018 -3.0197
  871MOL0     H14933   7.199   3.191   9.104  3.2162  1.5419 -0.5546
  871MOL0     H14934   7.351   3.078   9.019 -0.9420 -0.9351  0.3171
  871MOL0     H14935   7.474   2.919   8.877 -0.7530 -0.2436  1.1315
  871MOL0     H14936   7.568   2.565   8.719 -1.0687 -2.5780 -2.5257
  871MOL0     H14937   7.779   2.428   8.682 -2.0943  0.6684  1.0755
  871MOL0     H14938   8.179   2.476   8.535  0.5485 -1.2523 -1.1779
  871MOL0     H14939   8.111   2.646   8.556 -1.1587 -0.0653 -0.1159
  871MOL0     H14940   8.084   2.653   8.322  2.1789 -0.5958 -1.8622
  871MOL0     H14941   8.131   2.487   8.304 -1.9032 -0.7362  0.4632
  871MOL0     H14942   8.368   2.558   8.380  2.3524  3.0737  0.6939
  871MOL0     H14943   8.314   2.721   8.415  2.7243  0.2228 -1.2599
  871MOL0     H14944   8.238   2.706   8.162 -1.8518  2.4073  1.9727
  871MOL0     H14945   8.403   2.763   8.206 -0.5070 -0.0184  1.3118
  871MOL0     H14946   8.345   2.481   8.154  0.3052  0.5853  3.4500
  871MOL0     H14947   8.510   2.549   8.177 -0.3583 -0.3484 -2.0938
  871MOL0     H14948   8.326   2.612   7.941  0.5179 -0.6593 -0.6951
  871MOL0     H14949   8.464   2.499   7.944  3.4202  0.2575  2.2014
  871MOL0     H14950   8.544   2.714   7.850  1.8031  2.5534  0.4947
  871MOL0     H14951   8.476   2.805   7.986 -1.5252 -1.4161  3.0706
  871MOL0     H14952   8.732   2.640   7.981  2.6263 -1.6481  4.4860
  871MOL0     H14953   8.656   2.707   8.126 -3.1183  1.6550 -1.0431
  871MOL0     H14954   7.937   2.754   8.441 -1.5057  0.2191 -0.8768
  871MOL0     H14955   7.746   2.905   8.547  1.1617  0.1153  2.6609
  871MOL0     H14956   7.311   3.089   8.530  0.9246 -3.1732  0.5011
  871MOL0     H14957   7.157   3.239   8.656 -0.6254  0.4197  0.6250
  871MOL0     H14958   6.452   3.475   8.447  0.2468 -0.9258 -1.9637
  871MOL0     H14959   6.315   3.417   8.258 -3.7806  3.4700 -1.9575
  871MOL0     H14960   5.817   3.243   8.180  2.8918  0.0954 -0.0045
  871MOL0     H14961   5.662   3.122   8.038 -0.0998  0.7319  1.5868
  871MOL0     H14962   5.524   3.094   7.849  1.1911  1.7682 -0.0969
  871MOL0     H14963   5.590   2.954   7.936 -3.0870 -3.0508 -0.4536
  871MOL0     H14964   5.510   2.957   7.635 -5.0604 -1.5392  0.0094
  871MOL0     H14965   5.585   2.823   7.714 -2.4785 -2.2612 -0.8617
  871MOL0     H14966   5.325   2.958   7.773 -3.6069 -3.1023  1.0052
  871MOL0     H14967   5.386   2.831   7.884 -2.3367  0.1883  0.6238
  871MOL0     H14968   5.291   2.805   7.596 -1.0685  2.5692  1.3225
  871MOL0     H14969   5.370   2.670   7.683 -1.9714 -0.9190  3.3680
  871MOL0     H14970   4.982   2.649   7.821  0.5736 -1.9102  1.3171
  871MOL0     H14971   5.954   3.142   7.727 -0.2367 -0.2048 -0.3717
  871MOL0     H14972   6.112   3.256   7.869 -0.1209 -1.0762 -3.2297
  872MOL0     O14973   8.451   2.970   1.245 -0.5906 -0.1493 -0.4584
  872MOL0     C14974   8.461   2.962   1.368  0.7768 -1.3179  0.5047
  872MOL0     O14975   8.526   2.867   1.441 -0.1229 -0.4385  0.5077
  872MOL0     C14976   8.599   2.780   1.369  0.3694  0.3143 -0.4597
  872MOL0     C14977   8.719   2.819   1.312 -0.2428  0.2031  0.0339
  872MOL0     C14978   8.794   2.724   1.252 -0.5286  0.9277 -0.4662
  872MOL0     C14979   8.767   2.585   1.249 -0.7151 -0.1296  0.7228
  872MOL0     O14980   8.858   2.492   1.192 -0.2484 -0.1488 -0.4611
  872MOL0     C14981   8.824   2.358   1.150  0.0875  0.1078  0.3040
  872MOL0     C14982   8.948   2.282   1.117 -0.3947 -0.3451  1.1501
  872MOL0     C14983   9.002   2.316   0.976 -0.4323  0.0514 -0.1819
  872MOL0     C14984   8.951   2.225   0.863  0.4644 -0.2615  0.5602
  872MOL0     C14985   9.033   2.276   0.739 -0.1758  0.2480 -0.1904
  872MOL0     C14986   8.992   2.218   0.610 -0.9599 -0.6479  1.0504
  872MOL0     C14987   9.001   2.067   0.605 -0.2156 -0.0696  0.4895
  872MOL0     C14988   8.917   2.033   0.482  0.6155  0.5541 -0.2958
  872MOL0     N14989   8.910   1.887   0.461 -0.5718 -0.5531  1.0215
  872MOL0     C14990   9.009   1.785   0.444 -0.3896  0.6484  0.1473
  872MOL0     C14991   8.942   1.674   0.449  0.2068 -0.0970  0.6902
  872MOL0     C14992   8.997   1.538   0.434 -0.3015 -0.0170  0.0772
  872MOL0     C14993   8.949   1.445   0.539 -0.8329  0.7204 -1.2028
  872MOL0     C14994   9.035   1.321   0.545 -0.0324  0.3684  0.3274
  872MOL0     C14995   8.964   1.221   0.636  0.0912 -0.1472 -0.5409
  872MOL0     O14996   9.035   1.099   0.630 -0.0375 -0.1814  0.1652
  872MOL0     C14997   9.110   1.062   0.739  0.2749  0.1814 -0.2423
  872MOL0     C14998   9.133   0.926   0.755  0.4430  0.0064  0.5294
  872MOL0     C14999   9.223   0.877   0.858  0.7054  0.2157  0.0962
  872MOL0     C15000   9.292   0.967   0.941 -0.7828  0.5518  0.4563
  872MOL0     C15001   9.386   0.926   1.041 -0.5374 -0.8741  0.4442
  872MOL0     O15002   9.451   1.029   1.110  0.4070  1.3059 -0.2220
  872MOL0     C15003   9.545   1.011   1.204 -0.1209 -0.3313  0.0112
  872MOL0     C15004   9.581   1.122   1.290  0.2839  0.5078 -0.5582
  872MOL0     C15005   9.678   1.112   1.388  0.4173 -0.3096 -0.3685
  872MOL0     C15006   9.753   0.992   1.398 -0.1827  0.4606 -0.7446
  872MOL0     O15007   9.850   0.981   1.492  0.0628 -0.0669 -0.2168
  872MOL0     C15008   9.827   0.880   1.597  0.5961  0.8458  0.4636
  872MOL0     C15009   9.942   0.780   1.585  0.1848 -0.4517 -0.5142
  872MOL0     C15010   9.916   0.664   1.686 -0.4619  0.0749  0.1031
  872MOL0     C15011   9.986   0.532   1.651  0.0601  1.0963  0.5689
  872MOL0     C15012   9.972   0.407   1.740  0.1701  0.0363  0.4107
  872MOL0     C15013  10.029   0.279   1.678  0.4125 -0.6160 -0.6841
  872MOL0     C15014   9.996   0.165   1.769 -0.1739  0.5883  0.8028
  872MOL0     C15015  10.033   0.025   1.720 -0.0472 -0.2539  0.0383
  872MOL0    Cl15016   9.943  -0.086   1.819  0.3197  0.2401 -0.0564
  872MOL0     C15017   9.721   0.889   1.304 -0.8330  0.9144  0.9211
  872MOL0     C15018   9.621   0.896   1.213 -0.4253 -0.4081 -1.0141
  872MOL0     O15019   9.413   0.804   1.053  0.0669  0.4081  0.1997
  872MOL0     C15020   9.257   1.104   0.923  0.0558 -0.1399  0.4866
  872MOL0     C15021   9.182   1.145   0.819  0.2924  0.1971  0.5342
  872MOL0     N15022   8.810   1.690   0.458 -1.0069 -0.3417  0.1426
  872MOL0     N15023   8.793   1.821   0.480  0.5557  0.5512 -0.6269
  872MOL0     C15024   8.649   2.546   1.300 -0.6326  0.0008  0.0607
  872MOL0     C15025   8.561   2.644   1.360 -0.4010 -0.1975 -0.1665
  872MOL0     C15026   8.423   3.096   1.425 -0.3019  0.6068  0.9001
  872MOL0     C15027   8.446   3.126   1.562 -0.2310  0.4695  0.6655
  872MOL0     C15028   8.391   3.244   1.628 -0.0210  0.3681  1.4214
  872MOL0     C15029   8.313   3.333   1.545 -0.1389 -0.5126  0.2857
  872MOL0     O15030   8.252   3.450   1.608 -0.3236  0.4647  0.4579
  872MOL0     C15031   8.134   3.419   1.696  0.2885  0.4633 -0.3885
  872MOL0     C15032   8.019   3.345   1.622 -0.0788  0.3786 -0.2973
  872MOL0     C15033   7.957   3.436   1.514  0.5110 -0.6656 -0.0609
  872MOL0     C15034   7.873   3.344   1.414 -0.1246 -0.1733 -0.2105
  872MOL0     C15035   7.801   3.430   1.308  0.0987 -1.2973 -0.1702
  872MOL0     C15036   7.722   3.500   1.253  0.5016  1.0261 -0.3011
  872MOL0     C15037   8.300   3.310   1.409  0.9099  0.6017 -0.3130
  872MOL0     C15038   8.346   3.193   1.346 -1.1131 -0.2104  1.0324
  872MOL0     H15039   8.748   2.923   1.318 -3.5546  1.4331 -2.3745
  872MOL0     H15040   8.895   2.753   1.225 -0.1370 -0.0761 -0.1191
  872MOL0     H15041   8.761   2.370   1.061  0.7996  0.9599 -0.1121
  872MOL0     H15042   8.763   2.307   1.225 -1.4916 -0.7765 -1.5020
  872MOL0     H15043   8.940   2.173   1.125  0.9894 -0.3687  2.6817
  872MOL0     H15044   9.027   2.318   1.183  1.0520 -1.1790 -0.0425
  872MOL0     H15045   9.110   2.306   0.984 -0.3193  1.1588 -0.0786
  872MOL0     H15046   8.982   2.420   0.948  2.2046  0.7413  0.2722
  872MOL0     H15047   8.984   2.120   0.861  1.6964  0.1101 -1.2906
  872MOL0     H15048   8.846   2.247   0.843  0.0893  1.4074  3.7100
  872MOL0     H15049   9.137   2.242   0.751  1.0971  2.9999 -2.3160
  872MOL0     H15050   9.023   2.384   0.735 -1.0807  0.2300  0.9356
  872MOL0     H15051   9.047   2.254   0.522 -0.5377 -0.4111  1.4044
  872MOL0     H15052   8.890   2.257   0.601  0.1931  2.2553 -2.0976
  872MOL0     H15053   9.098   2.021   0.585 -0.2647  1.0651 -2.9384
  872MOL0     H15054   8.950   2.012   0.685  0.4427  0.1258  1.0489
  872MOL0     H15055   8.947   2.078   0.387  0.3372 -0.7988 -1.0461
  872MOL0     H15056   8.819   2.067   0.516  0.5268  2.3371 -2.1311
  872MOL0     H15057   9.117   1.793   0.438 -0.3562 -0.0624 -0.3748
  872MOL0     H15058   9.106   1.534   0.437 -0.1524  1.8715  4.0544
  872MOL0     H15059   8.969   1.496   0.337 -0.1289  1.2876 -0.5610
  872MOL0     H15060   8.844   1.414   0.533 -0.1934 -3.2942  3.0899
  872MOL0     H15061   8.957   1.497   0.634  1.8200  2.7546 -2.4131
  872MOL0     H15062   9.028   1.280   0.444 -0.9352 -1.2083  0.9871
  872MOL0     H15063   9.136   1.343   0.579 -0.0091 -0.7168  1.0086
  872MOL0     H15064   8.860   1.195   0.614 -0.4910 -0.6168  2.4244
  872MOL0     H15065   8.959   1.255   0.740  0.6842 -1.1457 -0.1723
  872MOL0     H15066   9.094   0.844   0.695 -3.0045  1.1636  0.9435
  872MOL0     H15067   9.242   0.770   0.851 -0.1807  0.0784 -0.3868
  872MOL0     H15068   9.517   1.209   1.281  0.9370  0.9692 -0.7513
  872MOL0     H15069   9.682   1.198   1.454 -1.8270  1.9448 -2.9049
  872MOL0     H15070   9.734   0.824   1.586  0.9957 -0.0208  1.3101
  872MOL0     H15071   9.830   0.935   1.692  2.7079 -0.2377  1.0922
  872MOL0     H15072  10.043   0.820   1.595  0.5878 -1.7815  1.1392
  872MOL0     H15073   9.941   0.745   1.481 -0.0256  0.8445 -0.9675
  872MOL0     H15074   9.808   0.651   1.700 -0.4703 -0.4512 -0.3957
  872MOL0     H15075   9.955   0.699   1.781  1.2565 -0.3588 -0.4161
  872MOL0     H15076   9.977   0.507   1.545  6.4624  0.7383 -0.2783
  872MOL0     H15077  10.092   0.560   1.658  0.3939  0.0057  0.1269
  872MOL0     H15078   9.866   0.381   1.747  0.2159 -1.3663 -2.5704
  872MOL0     H15079  10.013   0.419   1.841  4.3904  1.5695 -1.2519
  872MOL0     H15080  10.136   0.285   1.657  0.6025  0.4152  0.4924
  872MOL0     H15081   9.975   0.256   1.585 -2.4573 -0.4102  0.8195
  872MOL0     H15082  10.062   0.183   1.854  1.1369  4.3203 -0.7969
  872MOL0     H15083   9.892   0.158   1.800  0.6041  1.8017  4.0558
  872MOL0     H15084  10.140   0.002   1.723  0.1018  0.4520  0.3387
  872MOL0     H15085   9.998   0.000   1.619 -0.6634 -1.2010  0.4645
  872MOL0     H15086   9.770   0.792   1.300  0.3303  1.5348 -0.7350
  872MOL0     H15087   9.608   0.799   1.166 -1.5865 -0.1111 -1.3450
  872MOL0     H15088   9.315   1.176   0.979 -0.3032 -1.5827  2.8121
  872MOL0     H15089   9.173   1.252   0.802  1.5721  0.3056  0.5122
  872MOL0     H15090   8.615   2.443   1.308  1.2987 -0.6447  0.5854
  872MOL0     H15091   8.471   2.602   1.403  0.8873 -1.4655  1.3931
  872MOL0     H15092   8.512   3.059   1.618  3.0393  4.8956  2.7449
  872MOL0     H15093   8.410   3.256   1.734 -1.5065  0.1377  1.7442
  872MOL0     H15094   8.095   3.518   1.724 -1.3278 -0.1047 -0.5344
  872MOL0     H15095   8.181   3.369   1.781 -2.1711 -0.2344  0.6766
  872MOL0     H15096   8.061   3.256   1.573 -3.6748 -2.3971  1.1987
  872MOL0     H15097   7.946   3.300   1.690  0.6411 -1.4731 -0.6881
  872MOL0     H15098   8.035   3.488   1.458 -0.0678  1.5976  1.1310
  872MOL0     H15099   7.903   3.524   1.552 -0.4160 -1.6384  0.9600
  872MOL0     H15100   7.943   3.283   1.357 -0.0553 -0.2202 -0.0756
  872MOL0     H15101   7.804   3.289   1.477 -0.3584  0.2736 -0.0697
  872MOL0     H15102   7.644   3.545   1.195 -0.1791 -1.5203 -1.4929
  872MOL0     H15103   8.233   3.378   1.359 -0.5534  0.1634  0.9536
  872MOL0     H15104   8.332   3.178   1.240 -0.2055 -2.5831  1.1854
  873MOL0     O15105   6.687  10.035  10.873 -0.3029 -0.6130 -0.1447
  873MOL0     C15106   6.791  10.007  10.927  0.0548  0.1238  0.0024
  873MOL0     O15107   6.911  10.055  10.894 -0.0856 -0.6675  0.8487
  873MOL0     C15108   6.934  10.146  10.790 -0.5153 -0.7755 -0.2876
  873MOL0     C15109   6.842  10.248  10.772 -0.6662 -0.5679 -0.1204
  873MOL0     C15110   6.866  10.340  10.666 -0.4310  0.8199 -0.2273
  873MOL0     C15111   6.980  10.329  10.592 -0.0652 -0.1052  1.4096
  873MOL0     O15112   6.983  10.402  10.471 -0.3346 -0.2913  0.5194
  873MOL0     C15113   6.979  10.549  10.484  0.3826  0.1915 -0.2536
  873MOL0     C15114   7.074  10.597  10.381  0.1999 -0.0571 -0.4249
  873MOL0     C15115   7.094  10.746  10.359  0.2803  0.0488 -1.1461
  873MOL0     C15116   7.195  10.793  10.245 -0.2567  0.1648 -0.3531
  873MOL0     C15117   7.117  10.839  10.115 -0.1769  0.3056 -0.4722
  873MOL0     C15118   7.058  10.727  10.024 -0.1707  0.1388 -0.5982
  873MOL0     C15119   7.006  10.796   9.898 -0.4231 -0.9950 -0.5288
  873MOL0     C15120   6.920  10.707   9.813 -0.1297  0.4286 -0.5571
  873MOL0     N15121   6.862  10.777   9.700 -0.0369  0.2988 -0.7068
  873MOL0     C15122   6.910  10.766   9.569 -0.3289 -0.1921 -0.6034
  873MOL0     C15123   6.809  10.809   9.490  0.4942 -0.4814  0.3592
  873MOL0     C15124   6.817  10.831   9.345  0.1034  0.6617 -0.1098
  873MOL0     C15125   6.848  10.696   9.271 -0.0057 -0.0060  0.4338
  873MOL0     C15126   6.837  10.731   9.123 -0.3016 -0.3665  0.0969
  873MOL0     C15127   6.907  10.634   9.024 -1.0969  0.0042 -0.3572
  873MOL0     O15128   7.051  10.632   9.038 -0.0868  0.2304 -0.4235
  873MOL0     C15129   7.118  10.749   9.006 -0.1309 -0.6941 -0.4089
  873MOL0     C15130   7.248  10.755   9.069 -0.9304  0.7612  0.1331
  873MOL0     C15131   7.335  10.848   9.014  0.5460  0.4855  0.0171
  873MOL0     C15132   7.293  10.943   8.919  0.1603 -0.2491 -0.8363
  873MOL0     C15133   7.393  11.056   8.888  0.9827 -0.2740 -0.0995
  873MOL0     O15134   7.372  11.133   8.773 -0.1861  0.2836  0.1243
  873MOL0     C15135   7.487  11.175   8.712  0.4602  0.2169  0.0855
  873MOL0     C15136   7.516  11.318   8.691  0.0053 -0.1445  0.4502
  873MOL0     C15137   7.629  11.366   8.614 -0.2282 -0.0391  0.4781
  873MOL0     C15138   7.711  11.266   8.556 -0.7290 -0.5328  0.0965
  873MOL0     O15139   7.811  11.311   8.473 -0.2589 -0.3403 -0.0481
  873MOL0     C15140   7.912  11.231   8.421 -0.5386 -0.2533  0.8412
  873MOL0     C15141   8.010  11.326   8.344 -0.2988  0.5234  0.3271
  873MOL0     C15142   8.078  11.418   8.447 -1.0541 -0.2489 -0.4867
  873MOL0     C15143   8.197  11.502   8.396  0.4841 -0.3319  1.4269
  873MOL0     C15144   8.312  11.408   8.361  0.0785 -0.4473 -0.0760
  873MOL0     C15145   8.427  11.493   8.312 -1.1787  0.2240  0.8656
  873MOL0     C15146   8.543  11.399   8.271  0.4775  0.3573 -0.2188
  873MOL0     C15147   8.672  11.458   8.243  0.0505  0.5744 -0.0375
  873MOL0    Cl15148   8.678  11.507   8.076  0.3261  0.2050 -0.1548
  873MOL0     C15149   7.675  11.138   8.568 -0.1305  0.3956  0.6534
  873MOL0     C15150   7.562  11.092   8.637  0.5526  0.1469 -0.7668
  873MOL0     O15151   7.489  11.061   8.954 -0.1786  0.2718  0.3077
  873MOL0     C15152   7.156  10.948   8.869  0.1031  0.1351  0.1006
  873MOL0     C15153   7.073  10.843   8.910 -0.8412 -0.1869 -0.0826
  873MOL0     N15154   6.699  10.839   9.572 -0.5774  0.1560 -0.3101
  873MOL0     N15155   6.725  10.808   9.694 -0.9490  0.1540  0.6412
  873MOL0     C15156   7.064  10.221  10.605  0.8108 -0.4752  0.0777
  873MOL0     C15157   7.044  10.130  10.711  0.5766 -0.1129 -0.8766
  873MOL0     C15158   6.785   9.902  11.032  0.2584 -0.4437 -0.2862
  873MOL0     C15159   6.895   9.816  11.056 -0.6474  0.0233  0.5292
  873MOL0     C15160   6.897   9.712  11.156 -0.0678 -1.5942 -0.1114
  873MOL0     C15161   6.785   9.701  11.238  0.3981  0.7079 -0.0373
  873MOL0     O15162   6.810   9.620  11.351  0.6487 -0.1282  0.6282
  873MOL0     C15163   6.698   9.583  11.417  0.9438 -0.3373 -1.0771
  873MOL0     C15164   6.665   9.676  11.540  0.8889 -0.6838  0.2223
  873MOL0     C15165   6.787   9.686  11.636  0.1613 -0.6350  0.4436
  873MOL0     C15166   6.749   9.749  11.769 -0.2989  0.1003 -0.0397
  873MOL0     C15167   6.684   9.665  11.868 -1.0256 -0.2676 -0.1604
  873MOL0     C15168   6.623   9.581  11.935  0.3359 -0.2568 -0.2867
  873MOL0     C15169   6.680   9.790  11.223 -0.6074  0.6414 -0.0744
  873MOL0     C15170   6.682   9.888  11.119 -0.1689  0.9370 -0.0571
  873MOL0     H15171   6.755  10.260  10.836 -2.9122 -2.3931 -2.6033
  873MOL0     H15172   6.776  10.398  10.649 -3.0773 -2.4386  1.4469
  873MOL0     H15173   7.014  10.584  10.582  2.0578  0.6576 -0.9905
  873MOL0     H15174   6.877  10.586  10.468 -0.2906 -1.2828  0.3932
  873MOL0     H15175   7.045  10.550  10.287 -1.5231 -0.0026  0.0508
  873MOL0     H15176   7.170  10.553  10.409 -0.6589 -2.2182 -0.7461
  873MOL0     H15177   7.141  10.765  10.455  1.0836 -2.2626 -1.0088
  873MOL0     H15178   6.998  10.798  10.350 -0.8056 -0.7251  3.4102
  873MOL0     H15179   7.259  10.879  10.268 -0.6561  0.8370 -1.6518
  873MOL0     H15180   7.269  10.716  10.220  1.1689  0.6657  1.9651
  873MOL0     H15181   7.181  10.902  10.053 -2.3407  5.5104  2.0093
  873MOL0     H15182   7.031  10.899  10.143 -0.4393 -0.4440  0.3476
  873MOL0     H15183   6.974  10.676  10.073  1.0650 -0.7155  0.7134
  873MOL0     H15184   7.140  10.660   9.999 -1.1889 -1.0237 -0.9576
  873MOL0     H15185   6.958  10.891   9.923  1.5742  0.3193 -1.4319
  873MOL0     H15186   7.100  10.824   9.849 -0.7909  0.5296 -0.4128
  873MOL0     H15187   6.839  10.667   9.873  0.2860 -0.3739 -0.5223
  873MOL0     H15188   6.978  10.621   9.778 -0.3332 -0.0324  0.2201
  873MOL0     H15189   7.011  10.744   9.535 -0.0714  1.2840 -0.8729
  873MOL0     H15190   6.896  10.905   9.329 -0.3261  1.0748 -0.3625
  873MOL0     H15191   6.726  10.879   9.307 -0.6055 -2.1895 -2.3187
  873MOL0     H15192   6.777  10.616   9.293  0.3278 -0.6944 -0.8655
  873MOL0     H15193   6.946  10.659   9.304 -0.0351 -0.4486  0.0456
  873MOL0     H15194   6.731  10.736   9.097 -0.1691 -0.4212 -0.4491
  873MOL0     H15195   6.884  10.828   9.109  2.3051 -1.3828  1.1477
  873MOL0     H15196   6.876  10.662   8.923 -1.1905 -0.6182 -0.5065
  873MOL0     H15197   6.872  10.532   9.044 -2.3836  0.9665  2.8773
  873MOL0     H15198   7.284  10.669   9.126 -4.2608 -3.0940 -2.9743
  873MOL0     H15199   7.437  10.841   9.050  0.6472  0.9837 -0.1676
  873MOL0     H15200   7.445  11.380   8.744 -0.2764 -2.7094  3.3506
  873MOL0     H15201   7.643  11.473   8.603  0.8476 -0.0720  1.3317
  873MOL0     H15202   7.878  11.155   8.351  0.8753  2.8277 -3.6131
  873MOL0     H15203   7.957  11.192   8.513 -3.5178 -0.0161  2.5115
  873MOL0     H15204   7.948  11.382   8.273 -0.7614  1.1527  1.2038
  873MOL0     H15205   8.081  11.268   8.285 -1.0586  0.7728 -0.8713
  873MOL0     H15206   8.111  11.358   8.532  1.4002  2.3767  0.5798
  873MOL0     H15207   8.007  11.493   8.482  2.8302  3.9790 -0.7222
  873MOL0     H15208   8.170  11.540   8.297  0.9000 -1.7094  0.7689
  873MOL0     H15209   8.209  11.586   8.466  2.1684 -1.1026  2.1024
  873MOL0     H15210   8.277  11.349   8.276 -3.5074  2.2136 -0.6695
  873MOL0     H15211   8.357  11.355   8.445  0.3651 -3.1918 -1.8175
  873MOL0     H15212   8.478  11.541   8.395  0.1888 -0.9778  0.7589
  873MOL0     H15213   8.406  11.566   8.233  1.9243  2.2229  1.7258
  873MOL0     H15214   8.559  11.329   8.353 -0.6337  0.0996 -0.2080
  873MOL0     H15215   8.515  11.351   8.177  0.7835 -0.9378  0.3216
  873MOL0     H15216   8.741  11.373   8.250 -2.2059 -1.8597 -3.6801
  873MOL0     H15217   8.698  11.540   8.311 -2.8045  0.6187  1.1317
  873MOL0     H15218   7.737  11.060   8.523 -0.3950  0.4650  0.1711
  873MOL0     H15219   7.538  10.987   8.644 -1.8627  0.5717 -1.5540
  873MOL0     H15220   7.124  11.036   8.814  0.1100  0.8754  1.2603
  873MOL0     H15221   6.971  10.843   8.874 -0.4510  0.7832 -1.2469
  873MOL0     H15222   7.144  10.193  10.536  2.3450 -2.7248  2.5398
  873MOL0     H15223   7.116  10.055  10.740  0.0504  0.3564  1.8820
  873MOL0     H15224   6.983   9.832  10.993 -1.2238  2.5514  0.2516
  873MOL0     H15225   6.991   9.672  11.192  0.8618  1.4850  1.1845
  873MOL0     H15226   6.716   9.479  11.447  1.3224  0.4207  1.5882
  873MOL0     H15227   6.616   9.578  11.345  0.7357  0.7677 -0.9341
  873MOL0     H15228   6.637   9.777  11.508 -1.6896 -0.9772  1.2592
  873MOL0     H15229   6.579   9.638  11.596  0.0108 -1.6189 -1.6740
  873MOL0     H15230   6.858   9.749  11.582 -0.3215  0.4618  1.0469
  873MOL0     H15231   6.836   9.590  11.657  1.5511 -0.5151 -1.9514
  873MOL0     H15232   6.841   9.795  11.805 -0.4705  2.7021 -2.5513
  873MOL0     H15233   6.681   9.827  11.735 -1.1274 -0.8762 -0.7077
  873MOL0     H15234   6.560   9.505  11.976 -1.5131  1.8342  1.0270
  873MOL0     H15235   6.597   9.798  11.292  1.6641 -0.0006  2.9463
  873MOL0     H15236   6.593   9.948  11.103 -2.1550 -1.9757 -0.7386
  874MOL0     O15237  11.352  10.823   5.326  0.5984 -0.8380 -0.0263
  874MOL0     C15238  11.328  10.747   5.232 -0.4864  1.0671 -0.3146
  874MOL0     O15239  11.296  10.783   5.106 -0.6447 -0.0787  0.2380
  874MOL0     C15240  11.301  10.918   5.074 -0.4842  0.8037  0.4398
  874MOL0     C15241  11.232  11.014   5.139  0.6075 -0.0332 -0.9953
  874MOL0     C15242  11.207  11.145   5.093  0.5538  0.2165 -0.4205
  874MOL0     C15243  11.276  11.185   4.982 -0.3479 -0.6394  0.5951
  874MOL0     O15244  11.254  11.305   4.919  0.2323  0.1889  0.9624
  874MOL0     C15245  11.348  11.413   4.923  0.5256  0.1362  0.6180
  874MOL0     C15246  11.344  11.478   5.056  0.1014  0.4347  0.4354
  874MOL0     C15247  11.481  11.535   5.093 -0.0549  0.1315 -0.7608
  874MOL0     C15248  11.470  11.599   5.234  0.8476  0.7024  0.0401
  874MOL0     C15249  11.595  11.654   5.283 -0.7147 -0.6627 -0.4360
  874MOL0     C15250  11.580  11.688   5.441  1.2233  0.0175 -0.4810
  874MOL0     C15251  11.602  11.562   5.539  1.0634  0.2232 -0.5951
  874MOL0     C15252  11.747  11.531   5.575 -0.6599 -0.7830 -0.1762
  874MOL0     N15253  11.777  11.435   5.681 -0.1766 -0.3321  0.0556
  874MOL0     C15254  11.798  11.461   5.819 -1.0354  0.3762 -0.6655
  874MOL0     C15255  11.811  11.337   5.873 -0.1131 -0.6085 -0.0117
  874MOL0     C15256  11.856  11.325   6.009 -1.1803  0.0054 -0.2766
  874MOL0     C15257  11.745  11.265   6.101  0.2936  0.3549 -0.4855
  874MOL0     C15258  11.796  11.208   6.233  1.0667 -0.4867 -0.1102
  874MOL0     C15259  11.692  11.131   6.320 -0.6851 -0.1665 -0.4338
  874MOL0     O15260  11.655  11.000   6.255  0.5554 -0.8371 -0.2672
  874MOL0     C15261  11.523  10.972   6.222  0.2995  0.5756  0.0125
  874MOL0     C15262  11.415  11.026   6.292  0.6948 -0.0057  0.0196
  874MOL0     C15263  11.287  10.968   6.281  1.0153  0.5441 -0.4387
  874MOL0     C15264  11.263  10.867   6.187 -0.4074 -0.5861 -0.6784
  874MOL0     C15265  11.123  10.794   6.187 -1.0594 -0.3339 -0.3426
  874MOL0     O15266  11.132  10.672   6.139  0.0646 -0.0053 -0.6109
  874MOL0     C15267  11.009  10.620   6.106 -0.3096  0.4340 -0.0586
  874MOL0     C15268  10.994  10.587   5.971 -0.4154 -0.5550 -0.2105
  874MOL0     C15269  10.874  10.528   5.920 -0.1462  0.4019 -0.0198
  874MOL0     C15270  10.770  10.498   6.015 -0.3454  0.4783  0.1299
  874MOL0     O15271  10.654  10.435   5.967  0.1488  0.0625  0.5893
  874MOL0     C15272  10.583  10.340   6.037  0.7976  0.4911  0.2443
  874MOL0     C15273  10.454  10.313   5.954  0.1999  0.4349  0.7937
  874MOL0     C15274  10.389  10.189   5.997  0.1514  0.4312  0.8020
  874MOL0     C15275  10.463  10.055   5.962 -0.0865 -1.0601  1.0742
  874MOL0     C15276  10.376   9.929   6.007 -1.0829 -0.1067  0.6053
  874MOL0     C15277  10.327   9.920   6.148  0.0401 -0.7708 -0.2646
  874MOL0     C15278  10.282   9.787   6.203  0.7247  0.7285  0.0698
  874MOL0     C15279  10.205   9.800   6.337  0.9026  0.1766  0.1842
  874MOL0    Cl15280  10.163   9.647   6.410  0.3939 -0.0812  0.4931
  874MOL0     C15281  10.787  10.538   6.145 -0.4406 -0.6014 -0.4746
  874MOL0     C15282  10.910  10.589   6.195 -0.9101  0.2614 -0.0244
  874MOL0     O15283  11.026  10.844   6.247  0.0942 -0.0891  0.3693
  874MOL0     C15284  11.367  10.837   6.098  0.0673  1.7931  0.9107
  874MOL0     C15285  11.495  10.879   6.118 -0.1830  0.3248  0.1556
  874MOL0     N15286  11.792  11.244   5.774  0.1237 -0.2376 -0.0813
  874MOL0     N15287  11.763  11.301   5.662  0.6381 -0.4157 -0.8537
  874MOL0     C15288  11.372  11.102   4.921  0.5645 -0.1171 -0.5529
  874MOL0     C15289  11.376  10.968   4.964  0.2365 -0.1526 -0.8724
  874MOL0     C15290  11.334  10.604   5.263 -0.5264 -0.0092 -0.1855
  874MOL0     C15291  11.313  10.506   5.167 -0.8298 -0.0877  0.3933
  874MOL0     C15292  11.303  10.375   5.204  0.7826  0.7740 -0.7687
  874MOL0     C15293  11.336  10.339   5.330  0.3547  1.1277  0.2747
  874MOL0     O15294  11.357  10.207   5.358  0.3732 -0.5456 -0.2045
  874MOL0     C15295  11.475  10.147   5.291 -0.0599 -0.2335  0.2338
  874MOL0     C15296  11.588  10.112   5.390 -0.1607 -0.8020  0.9208
  874MOL0     C15297  11.721  10.066   5.325  0.1173  0.3242  0.1899
  874MOL0     C15298  11.820  10.016   5.429  0.6081  0.8035 -0.1486
  874MOL0     C15299  11.943  10.012   5.359 -0.6144  0.3703  0.3899
  874MOL0     C15300  12.042  10.003   5.289  0.0493 -0.0672  0.2049
  874MOL0     C15301  11.348  10.433   5.428  0.3838 -0.4244 -0.1662
  874MOL0     C15302  11.343  10.566   5.400 -0.6094 -0.5236  0.3798
  874MOL0     H15303  11.173  10.977   5.222 -0.1594 -0.3062 -1.6559
  874MOL0     H15304  11.153  11.218   5.152  3.7020  2.2889  0.1590
  874MOL0     H15305  11.325  11.485   4.844  3.9443 -1.6941 -2.3608
  874MOL0     H15306  11.440  11.361   4.894  0.8546  0.5188  0.9671
  874MOL0     H15307  11.314  11.413   5.139  0.9164  0.1703  0.5275
  874MOL0     H15308  11.264  11.553   5.049  1.1272  1.3809 -2.0342
  874MOL0     H15309  11.521  11.610   5.025  1.3457 -0.6823 -0.8796
  874MOL0     H15310  11.561  11.460   5.091  0.1592  0.3165  0.2334
  874MOL0     H15311  11.391  11.675   5.234 -0.7664 -0.8950 -0.8129
  874MOL0     H15312  11.444  11.516   5.301 -3.1070  4.2655  3.5136
  874MOL0     H15313  11.618  11.748   5.231  0.3203 -0.1514  0.8961
  874MOL0     H15314  11.675  11.581   5.270 -1.0487 -0.7421 -2.2915
  874MOL0     H15315  11.485  11.740   5.459  1.3098 -0.7011  2.5930
  874MOL0     H15316  11.657  11.761   5.465 -1.0679  2.5655 -0.3391
  874MOL0     H15317  11.551  11.585   5.633 -2.7182 -2.0045 -1.9074
  874MOL0     H15318  11.548  11.477   5.497 -3.1578  2.0707  0.6111
  874MOL0     H15319  11.788  11.628   5.604 -1.1636 -0.7772  0.5344
  874MOL0     H15320  11.795  11.512   5.478 -1.9932 -0.4125 -0.9280
  874MOL0     H15321  11.809  11.558   5.867 -1.8928 -1.7599  4.4703
  874MOL0     H15322  11.899  11.417   6.050  0.2970 -1.5805  1.8998
  874MOL0     H15323  11.931  11.249   5.984  0.3811  1.7130 -1.0728
  874MOL0     H15324  11.696  11.184   6.046 -0.6586  0.6043 -0.0307
  874MOL0     H15325  11.669  11.335   6.135  0.8895  0.6448  0.3034
  874MOL0     H15326  11.890  11.154   6.215  1.0334  0.5204 -4.5611
  874MOL0     H15327  11.827  11.288   6.300 -0.5741  0.4205 -0.3935
  874MOL0     H15328  11.609  11.202   6.326 -1.5715 -1.2259  0.3673
  874MOL0     H15329  11.739  11.112   6.417 -2.3824 -0.6263  0.3359
  874MOL0     H15330  11.437  11.102   6.366  0.2824  0.0468  0.0915
  874MOL0     H15331  11.211  10.986   6.355 -0.5785 -1.3990 -1.5026
  874MOL0     H15332  11.070  10.623   5.902  0.9504  2.5330  2.6399
  874MOL0     H15333  10.851  10.496   5.819  4.9190 -1.0549 -1.0177
  874MOL0     H15334  10.547  10.385   6.130  0.5963  0.6467  0.0917
  874MOL0     H15335  10.652  10.256   6.051  1.8863  1.0118 -1.6799
  874MOL0     H15336  10.482  10.316   5.848 -1.4769  2.5516  0.3455
  874MOL0     H15337  10.380  10.392   5.970 -0.1800  0.7554 -2.0590
  874MOL0     H15338  10.286  10.194   5.961  0.4834 -2.6895 -0.9669
  874MOL0     H15339  10.385  10.194   6.106  1.5109  2.2820  0.7963
  874MOL0     H15340  10.462  10.051   5.852  1.1862 -0.4050  1.0260
  874MOL0     H15341  10.563  10.060   6.006  0.4026  0.5672 -0.1182
  874MOL0     H15342  10.436   9.839   5.996 -2.6159 -1.2960  1.5781
  874MOL0     H15343  10.278   9.923   5.957 -1.5068 -1.2725  1.5319
  874MOL0     H15344  10.246   9.993   6.158  1.3042  0.5969  0.4772
  874MOL0     H15345  10.417   9.939   6.208  0.4843  0.6610 -1.3402
  874MOL0     H15346  10.203   9.749   6.137 -0.7461  2.3903  0.7813
  874MOL0     H15347  10.369   9.722   6.205  0.0045 -0.2310  1.4969
  874MOL0     H15348  10.115   9.860   6.324 -0.5954 -1.8685  0.7112
  874MOL0     H15349  10.274   9.857   6.401 -1.6493  1.4836  1.9268
  874MOL0     H15350  10.715  10.522   6.225  0.3388 -0.7316  0.2125
  874MOL0     H15351  10.919  10.612   6.301 -0.0714  0.5432 -0.1480
  874MOL0     H15352  11.344  10.756   6.029 -0.4645 -0.9492  4.0230
  874MOL0     H15353  11.576  10.844   6.054 -0.0157 -1.1648  1.1286
  874MOL0     H15354  11.440  11.144   4.848  1.3756  0.3922  0.4834
  874MOL0     H15355  11.446  10.898   4.918 -0.9461 -1.4805 -0.7022
  874MOL0     H15356  11.297  10.522   5.060 -1.5370 -0.3274  0.4555
  874MOL0     H15357  11.295  10.296   5.130  3.1311  0.8456 -1.1629
  874MOL0     H15358  11.523  10.213   5.218 -2.3827  0.0028 -1.1476
  874MOL0     H15359  11.450  10.055   5.237  2.3596 -1.3295  0.8426
  874MOL0     H15360  11.610  10.201   5.450  0.0846 -1.9017  2.5267
  874MOL0     H15361  11.551  10.029   5.452  2.1808 -4.3717 -2.0179
  874MOL0     H15362  11.761  10.157   5.279  1.0091  1.7557  3.4841
  874MOL0     H15363  11.707   9.987   5.250 -0.2506 -0.6441  1.2470
  874MOL0     H15364  11.832  10.084   5.514  0.4233 -0.7399  1.1644
  874MOL0     H15365  11.792   9.918   5.468 -2.3343  1.9491  1.0074
  874MOL0     H15366  12.124  10.018   5.223 -1.8263 -0.0353 -2.2895
  874MOL0     H15367  11.367  10.403   5.531 -1.1491 -1.2143 -0.0876
  874MOL0     H15368  11.365  10.636   5.480  1.9817  0.4873 -1.0668
  875MOL0     O15369   4.993   4.296  11.151  1.0566  0.5998  0.2682
  875MOL0     C15370   5.056   4.403  11.145  0.2865  0.2293 -0.3992
  875MOL0     O15371   5.123   4.460  11.245 -0.0942 -0.3499 -0.8780
  875MOL0     C15372   5.109   4.416  11.377  0.6407 -0.3397 -0.1549
  875MOL0     C15373   5.231   4.383  11.436  0.2666 -0.0099 -0.4901
  875MOL0     C15374   5.226   4.354  11.570  0.4769  0.1865 -0.0653
  875MOL0     C15375   5.107   4.353  11.645  0.4157  0.3836 -0.0338
  875MOL0     O15376   5.115   4.315  11.781  0.0076 -0.0005  0.3346
  875MOL0     C15377   4.998   4.291  11.861  0.0693  0.0370 -0.4097
  875MOL0     C15378   4.959   4.133  11.861 -0.4675 -0.8350 -0.6155
  875MOL0     C15379   5.071   4.052  11.942 -0.3043 -0.0442  0.1958
  875MOL0     C15380   5.050   3.901  11.900  0.5851 -0.8476  0.4346
  875MOL0     C15381   5.068   3.818  12.028 -0.7544 -0.2662 -0.3064
  875MOL0     C15382   5.030   3.675  12.003 -0.2480 -0.0548 -0.8324
  875MOL0     C15383   5.058   3.583  12.132 -0.0123 -0.4299 -0.3323
  875MOL0     C15384   5.192   3.512  12.140 -0.2118 -0.9031  0.0420
  875MOL0     N15385   5.214   3.426  12.026  0.1209  0.6446  0.1434
  875MOL0     C15386   5.267   3.462  11.908  0.1694 -0.8204 -0.5711
  875MOL0     C15387   5.277   3.351  11.838 -0.1278 -0.7577 -0.3103
  875MOL0     C15388   5.339   3.339  11.699 -0.4226 -0.1194 -0.1779
  875MOL0     C15389   5.223   3.343  11.593 -0.5483  0.3878  0.1245
  875MOL0     C15390   5.147   3.477  11.581  0.1795 -0.5299  0.2435
  875MOL0     C15391   5.224   3.611  11.548 -0.8851 -0.3320  0.0908
  875MOL0     O15392   5.281   3.582  11.415 -0.5074  0.1659 -0.3227
  875MOL0     C15393   5.215   3.626  11.300  0.4243 -0.2172 -0.5090
  875MOL0     C15394   5.081   3.682  11.301  0.6288  0.1620  0.4681
  875MOL0     C15395   5.026   3.707  11.169 -1.4060 -0.2954 -0.2433
  875MOL0     C15396   5.102   3.673  11.055  0.1517  0.3378 -0.0937
  875MOL0     C15397   5.046   3.725  10.928  0.2260  0.3540 -0.4660
  875MOL0     O15398   4.916   3.755  10.939  0.1094 -0.6917  0.6758
  875MOL0     C15399   4.897   3.873  10.872 -0.2382 -0.3292  1.1703
  875MOL0     C15400   4.974   3.991  10.900  0.2349  0.2102  0.5244
  875MOL0     C15401   4.931   4.102  10.824 -0.4362  0.6108 -0.1312
  875MOL0     C15402   4.825   4.101  10.726  0.5465 -0.5613 -1.4550
  875MOL0     O15403   4.791   4.224  10.682 -0.2096  0.1260 -0.0426
  875MOL0     C15404   4.733   4.225  10.549 -0.6337  0.3292  0.7822
  875MOL0     C15405   4.767   4.369  10.498  0.5272  0.6575  0.1397
  875MOL0     C15406   4.734   4.390  10.347 -0.3410  0.0299 -0.1850
  875MOL0     C15407   4.852   4.339  10.250  0.1964 -0.0029 -0.1177
  875MOL0     C15408   4.808   4.340  10.112 -0.0153  0.2817  0.6507
  875MOL0     C15409   4.917   4.260  10.021 -0.3281  0.3122 -0.1735
  875MOL0     C15410   4.919   4.109  10.018  0.0770  0.1646 -0.4440
  875MOL0     C15411   5.060   4.040  10.003 -0.2741  0.4059  0.0835
  875MOL0    Cl15412   5.174   4.110  10.121  0.1982  0.2050 -0.2078
  875MOL0     C15413   4.753   3.988  10.716 -0.4127 -0.0267  0.3097
  875MOL0     C15414   4.786   3.877  10.789 -0.7953  0.3311  1.0213
  875MOL0     O15415   5.121   3.735  10.830 -0.0805 -0.1658  0.0103
  875MOL0     C15416   5.225   3.608  11.065 -0.5573 -0.8795  0.3609
  875MOL0     C15417   5.279   3.582  11.187  0.5525 -0.1703  0.1580
  875MOL0     N15418   5.229   3.245  11.911 -0.1341  0.2864 -0.4338
  875MOL0     N15419   5.180   3.299  12.018 -0.3912  1.1110 -0.2281
  875MOL0     C15420   4.987   4.386  11.584 -0.0227 -0.0077  0.2068
  875MOL0     C15421   4.984   4.418  11.452 -0.7638 -0.5286  0.4646
  875MOL0     C15422   5.048   4.469  11.019 -0.3577  0.9677 -0.1535
  875MOL0     C15423   5.153   4.561  10.979  0.0062 -0.6470  1.0388
  875MOL0     C15424   5.143   4.631  10.859 -0.0654 -0.1326  0.2167
  875MOL0     C15425   5.052   4.596  10.759 -0.9214  0.4148 -0.0744
  875MOL0     O15426   5.045   4.636  10.628  0.4679  0.0359 -0.0553
  875MOL0     C15427   5.149   4.729  10.582  0.1731  0.5097 -0.2647
  875MOL0     C15428   5.147   4.746  10.432  0.0684 -0.3138 -0.4265
  875MOL0     C15429   5.268   4.824  10.391  0.4653 -0.5470 -0.6093
  875MOL0     C15430   5.258   4.870  10.240 -1.4503  0.4124 -0.9709
  875MOL0     C15431   5.198   4.777  10.152 -0.2570  0.5866 -0.0346
  875MOL0     C15432   5.133   4.702  10.071 -0.4997 -0.4661 -0.3484
  875MOL0     C15433   4.954   4.506  10.801  0.8988  0.4029 -0.5536
  875MOL0     C15434   4.945   4.456  10.926  0.3318 -0.0333  0.0732
  875MOL0     H15435   5.322   4.370  11.378  0.3402  3.5855 -1.4154
  875MOL0     H15436   5.323   4.337  11.616  0.1313  1.5788  1.2737
  875MOL0     H15437   4.907   4.345  11.835 -1.1931 -0.7543  2.0715
  875MOL0     H15438   5.027   4.314  11.964  0.9593 -0.3783 -0.5553
  875MOL0     H15439   4.948   4.102  11.757 -1.6043  3.6312 -2.0333
  875MOL0     H15440   4.863   4.122  11.913 -0.0211 -0.1495  0.4029
  875MOL0     H15441   5.059   4.067  12.050  5.5150 -0.4587  1.2604
  875MOL0     H15442   5.170   4.089  11.913 -1.3280  1.5651 -1.4539
  875MOL0     H15443   4.949   3.904  11.859  0.4164  4.4820  0.5365
  875MOL0     H15444   5.127   3.887  11.823  0.4955  2.9961 -0.5630
  875MOL0     H15445   5.007   3.856  12.110  0.2205 -1.0699  0.8306
  875MOL0     H15446   5.174   3.824  12.055 -0.8174 -0.6086  0.0272
  875MOL0     H15447   5.102   3.655  11.923 -0.6602  3.8659 -2.4602
  875MOL0     H15448   4.924   3.662  11.980 -0.3904 -3.4715  1.1103
  875MOL0     H15449   5.041   3.638  12.225  4.0664  0.1175  0.2693
  875MOL0     H15450   4.991   3.497  12.142 -1.7838  0.9238 -0.1222
  875MOL0     H15451   5.208   3.472  12.241 -1.8177  0.2268  0.7682
  875MOL0     H15452   5.268   3.589  12.129 -2.3883  1.1386 -1.5840
  875MOL0     H15453   5.302   3.560  11.880  0.1965 -0.9508 -1.0160
  875MOL0     H15454   5.394   3.245  11.695  3.3952  1.9625 -1.8748
  875MOL0     H15455   5.419   3.412  11.682 -0.0120 -0.1584  1.3720
  875MOL0     H15456   5.153   3.267  11.626  1.9987 -0.7351  3.4798
  875MOL0     H15457   5.256   3.314  11.493  0.8355  0.8957  0.4120
  875MOL0     H15458   5.070   3.461  11.506  0.1140 -1.4446  0.5047
  875MOL0     H15459   5.077   3.493  11.664 -1.4333  0.9323 -1.3150
  875MOL0     H15460   5.297   3.642  11.622 -2.5509  2.7686  0.6301
  875MOL0     H15461   5.161   3.700  11.544  0.9138  1.2409  3.2503
  875MOL0     H15462   5.016   3.702  11.386 -1.1836  1.4333 -1.1546
  875MOL0     H15463   4.925   3.746  11.171  0.2629  4.9486  0.2825
  875MOL0     H15464   5.063   4.000  10.962 -0.6529  0.8944  1.7676
  875MOL0     H15465   4.992   4.191  10.835 -1.9118  1.5831  0.5262
  875MOL0     H15466   4.625   4.207  10.552 -0.8219  0.1930 -2.8017
  875MOL0     H15467   4.780   4.149  10.486 -0.9544 -0.3458  1.3554
  875MOL0     H15468   4.874   4.390  10.509  1.5577 -3.6429 -0.1144
  875MOL0     H15469   4.700   4.434  10.555 -1.9021 -1.3414 -0.2889
  875MOL0     H15470   4.700   4.494  10.336 -0.1931  0.2071  0.9447
  875MOL0     H15471   4.647   4.325  10.333 -0.1482 -0.2422 -0.1092
  875MOL0     H15472   4.939   4.405  10.263 -2.0852  3.4116 -0.6333
  875MOL0     H15473   4.892   4.242  10.278  0.3973 -0.3723 -1.6100
  875MOL0     H15474   4.805   4.440  10.069 -0.7014 -0.3738 -0.9330
  875MOL0     H15475   4.708   4.297  10.100  0.1603 -0.3890  1.5629
  875MOL0     H15476   5.016   4.303  10.042  1.2519 -3.2229  0.3039
  875MOL0     H15477   4.894   4.285   9.917  0.1868  0.6126 -0.2213
  875MOL0     H15478   4.868   4.069  10.106 -0.0554 -2.6549 -1.7036
  875MOL0     H15479   4.858   4.084   9.931  1.1356  2.1039 -1.8214
  875MOL0     H15480   5.093   4.052   9.899 -1.3320 -2.0931 -0.6181
  875MOL0     H15481   5.051   3.931   9.999  1.5101  0.2051  0.6626
  875MOL0     H15482   4.662   3.993  10.658  1.0630  1.7485 -2.0159
  875MOL0     H15483   4.710   3.800  10.793 -1.4368  0.6487 -2.1648
  875MOL0     H15484   5.281   3.585  10.975 -1.7563 -0.5463 -0.4959
  875MOL0     H15485   5.368   3.519  11.192 -0.7314 -2.0458  0.3923
  875MOL0     H15486   4.898   4.370  11.643  2.7603 -1.3553  4.4937
  875MOL0     H15487   4.894   4.447  11.398  0.9777  1.4650 -1.5367
  875MOL0     H15488   5.234   4.588  11.046 -1.1328  0.7998  1.8956
  875MOL0     H15489   5.206   4.718  10.847 -1.7001  1.0734  0.1784
  875MOL0     H15490   5.250   4.702  10.615  0.6684  2.2979 -0.2574
  875MOL0     H15491   5.138   4.825  10.632  0.8710 -0.1913  1.3185
  875MOL0     H15492   5.144   4.649  10.380 -2.7829  0.0080 -1.0307
  875MOL0     H15493   5.054   4.792  10.397  2.0205  1.7798 -3.4081
  875MOL0     H15494   5.354   4.756  10.390  0.3097 -0.7455 -0.5722
  875MOL0     H15495   5.291   4.906  10.459 -4.0543  1.2573 -0.8922
  875MOL0     H15496   5.196   4.960  10.249 -4.2659 -1.5349  1.0356
  875MOL0     H15497   5.356   4.894  10.199  0.0864 -0.6283  1.8127
  875MOL0     H15498   5.088   4.649   9.990  0.6929 -0.3118 -1.1418
  875MOL0     H15499   4.870   4.496  10.734  1.1585 -1.3902 -0.6530
  875MOL0     H15500   4.863   4.386  10.946  0.2267 -0.7937 -2.6155
  876MOL0     O15501   0.844   4.256   4.416 -0.0078  0.3811 -0.0504
  876MOL0     C15502   0.941   4.179   4.428 -0.1081 -0.2764 -0.2495
  876MOL0     O15503   0.957   4.066   4.355  0.1876  0.0404  0.8043
  876MOL0     C15504   0.846   4.005   4.299  0.0358  0.4769 -0.0333
  876MOL0     C15505   0.745   3.939   4.372  0.4004  0.6495 -0.2422
  876MOL0     C15506   0.647   3.870   4.301 -1.0537 -0.0281  0.3656
  876MOL0     C15507   0.640   3.863   4.156  0.1658  0.3618 -0.2714
  876MOL0     O15508   0.524   3.806   4.098 -1.3614  0.6364 -0.4526
  876MOL0     C15509   0.459   3.890   3.998 -0.3845  0.5990 -0.3253
  876MOL0     C15510   0.376   3.815   3.889 -0.6898  0.3912  0.2591
  876MOL0     C15511   0.247   3.754   3.927 -0.0248  0.0160 -0.5940
  876MOL0     C15512   0.160   3.700   3.808  0.0334  0.1758  0.2083
  876MOL0     C15513   0.227   3.566   3.763  1.1048 -0.0038 -0.2543
  876MOL0     C15514   0.151   3.508   3.639 -0.4967  0.4550  0.0333
  876MOL0     C15515   0.220   3.554   3.511  0.1983 -0.2876  0.7879
  876MOL0     C15516   0.181   3.465   3.396  0.6053 -0.3651  0.1228
  876MOL0     N15517   0.221   3.539   3.269 -0.2231 -0.6927  0.7247
  876MOL0     C15518   0.198   3.669   3.239  0.1657 -0.5574 -0.0378
  876MOL0     C15519   0.269   3.689   3.123  0.4910 -1.4086 -0.7259
  876MOL0     C15520   0.289   3.815   3.059 -0.3743 -0.6484 -0.0501
  876MOL0     C15521   0.421   3.895   3.100  0.2435  1.0255 -0.4169
  876MOL0     C15522   0.534   3.857   3.007  0.4355  0.6860  0.3706
  876MOL0     C15523   0.530   3.892   2.863 -1.2210 -0.3376 -0.1836
  876MOL0     O15524   0.500   4.027   2.821 -0.3329 -0.7136 -0.4286
  876MOL0     C15525   0.423   4.055   2.711 -0.6689  0.2156  0.3026
  876MOL0     C15526   0.426   3.971   2.603  0.5062  1.6900  0.5879
  876MOL0     C15527   0.340   4.007   2.495  0.1362 -0.6480 -0.6640
  876MOL0     C15528   0.258   4.118   2.497  0.5000 -0.3138  0.5324
  876MOL0     C15529   0.178   4.158   2.368  0.1360  0.7323 -0.6490
  876MOL0     O15530   0.161   4.066   2.274 -0.8501  0.7356 -0.2601
  876MOL0     C15531   0.149   4.106   2.141 -0.5586  0.1613  0.1708
  876MOL0     C15532   0.108   4.225   2.086 -0.2078  1.0840  0.4468
  876MOL0     C15533   0.118   4.245   1.953  0.0110 -0.5204  0.5822
  876MOL0     C15534   0.156   4.147   1.858 -0.1367 -0.0932  0.3686
  876MOL0     O15535   0.162   4.178   1.720 -0.0447  0.1231 -0.2327
  876MOL0     C15536   0.190   4.064   1.627  1.1721  0.0949 -0.0339
  876MOL0     C15537   0.178   4.109   1.476 -0.0797  0.4384 -0.0628
  876MOL0     C15538   0.311   4.188   1.431 -0.4914  1.0958  0.0103
  876MOL0     C15539   0.413   4.077   1.399  0.5126 -0.6822  0.1707
  876MOL0     C15540   0.542   4.147   1.347 -0.4060  1.2713  0.4731
  876MOL0     C15541   0.662   4.051   1.354  0.6777  1.3737  0.7130
  876MOL0     C15542   0.779   4.096   1.266 -0.0597  0.0449 -0.8563
  876MOL0     C15543   0.914   4.047   1.327  0.4783 -0.0561 -0.3162
  876MOL0    Cl15544   1.053   4.094   1.227  0.2981 -0.3301  0.1016
  876MOL0     C15545   0.197   4.025   1.905 -0.6929 -0.5739 -0.5905
  876MOL0     C15546   0.194   4.001   2.043  0.4697 -0.7211  0.3566
  876MOL0     O15547   0.130   4.269   2.368 -0.0226 -0.3731  0.1226
  876MOL0     C15548   0.262   4.205   2.602  0.0415  0.2811 -0.6091
  876MOL0     C15549   0.348   4.170   2.710 -0.1278 -0.8495  0.1752
  876MOL0     N15550   0.325   3.575   3.082 -0.7798  1.1056  0.7238
  876MOL0     N15551   0.306   3.487   3.179 -0.3005 -0.2139 -0.3222
  876MOL0     C15552   0.749   3.917   4.085 -0.1322  0.1329  0.3603
  876MOL0     C15553   0.847   3.991   4.158 -1.1614 -0.2358  0.3111
  876MOL0     C15554   1.046   4.208   4.530  0.2009  0.5375  0.4919
  876MOL0     C15555   1.152   4.116   4.547  0.6030 -0.2685 -0.1475
  876MOL0     C15556   1.253   4.146   4.634 -0.7812 -0.5103  0.6527
  876MOL0     C15557   1.258   4.259   4.719 -0.2426  0.4574 -0.6116
  876MOL0     O15558   1.368   4.291   4.795 -1.5579 -0.3758 -0.5557
  876MOL0     C15559   1.366   4.414   4.871  0.5685  0.1459 -0.3110
  876MOL0     C15560   1.494   4.434   4.957  1.0910 -0.5494  0.9564
  876MOL0     C15561   1.520   4.342   5.069  0.5689  0.7623 -0.2354
  876MOL0     C15562   1.643   4.362   5.154 -0.7977  0.5684 -0.5277
  876MOL0     C15563   1.639   4.472   5.235  0.5387 -0.4465 -0.1673
  876MOL0     C15564   1.623   4.568   5.307 -0.3950 -0.6381  0.5029
  876MOL0     C15565   1.139   4.335   4.719 -0.2589  0.6108 -0.4648
  876MOL0     C15566   1.045   4.320   4.615 -0.6014 -0.1916 -0.6105
  876MOL0     H15567   0.729   3.954   4.478 -1.4550  2.0224 -0.6695
  876MOL0     H15568   0.568   3.816   4.352 -0.8519 -0.0576  0.6504
  876MOL0     H15569   0.529   3.949   3.939  1.4223 -1.2328 -0.1475
  876MOL0     H15570   0.386   3.953   4.050 -0.8353  0.3687 -0.6637
  876MOL0     H15571   0.437   3.737   3.841  0.9954  2.0322 -0.3857
  876MOL0     H15572   0.361   3.890   3.811  0.8370 -0.4587 -0.9226
  876MOL0     H15573   0.189   3.832   3.976  2.0411  1.2460 -0.0082
  876MOL0     H15574   0.262   3.673   3.999  1.5122 -0.1562 -1.0701
  876MOL0     H15575   0.059   3.679   3.844  0.4994 -1.2440  0.7663
  876MOL0     H15576   0.170   3.761   3.718  0.9598 -0.3780 -0.0736
  876MOL0     H15577   0.219   3.488   3.839  1.2300  3.1803  3.2803
  876MOL0     H15578   0.334   3.584   3.747  1.7245  0.1095  3.2624
  876MOL0     H15579   0.047   3.541   3.635  0.2145  2.7177 -1.1319
  876MOL0     H15580   0.160   3.399   3.634 -3.1209  0.2201 -2.0747
  876MOL0     H15581   0.182   3.654   3.490  1.8056  0.8315  2.7553
  876MOL0     H15582   0.329   3.556   3.519  0.2412  4.2996  2.0499
  876MOL0     H15583   0.074   3.445   3.401  0.7500 -0.8401  2.9902
  876MOL0     H15584   0.232   3.368   3.400  0.1416 -0.5778  1.4876
  876MOL0     H15585   0.155   3.752   3.295  1.2896  0.2227 -0.2968
  876MOL0     H15586   0.207   3.883   3.080 -0.9647 -1.1368 -0.7471
  876MOL0     H15587   0.281   3.804   2.951 -1.7628  1.7303 -0.2502
  876MOL0     H15588   0.451   3.870   3.202 -0.7845  0.8484 -0.1516
  876MOL0     H15589   0.402   4.002   3.090 -2.0237  0.5900 -1.5448
  876MOL0     H15590   0.625   3.892   3.057  0.4768 -3.3785  3.6793
  876MOL0     H15591   0.568   3.754   3.016  4.3641  1.7345 -0.3927
  876MOL0     H15592   0.461   3.828   2.808 -0.4840  0.3388 -1.9921
  876MOL0     H15593   0.622   3.865   2.809 -0.8398 -1.7176  1.1021
  876MOL0     H15594   0.463   3.871   2.589 -4.2960  0.1195 -5.4520
  876MOL0     H15595   0.337   3.959   2.398 -1.2432  0.9097 -1.4574
  876MOL0     H15596   0.072   4.308   2.147  0.5962  3.4022 -2.0505
  876MOL0     H15597   0.070   4.333   1.911 -2.5621 -1.6324  1.0127
  876MOL0     H15598   0.117   3.984   1.639 -0.7745  1.4086 -2.3096
  876MOL0     H15599   0.289   4.018   1.639  0.5055 -1.2625  0.4090
  876MOL0     H15600   0.092   4.176   1.467  0.6690  1.5262  0.6107
  876MOL0     H15601   0.148   4.037   1.399  0.0313  2.0619 -1.7201
  876MOL0     H15602   0.360   4.258   1.499  4.8147 -1.8733 -0.2054
  876MOL0     H15603   0.290   4.240   1.337 -1.2511  2.2140  0.7711
  876MOL0     H15604   0.442   4.021   1.488  2.2296  0.8694  0.6569
  876MOL0     H15605   0.379   3.999   1.330 -1.0716  0.9408 -0.9822
  876MOL0     H15606   0.565   4.234   1.411  3.0494  0.7851  0.1033
  876MOL0     H15607   0.526   4.187   1.247 -1.5251  1.3806  0.6867
  876MOL0     H15608   0.616   3.952   1.341 -1.9214  2.1411  3.0684
  876MOL0     H15609   0.696   4.042   1.457 -0.3045  0.3103  0.9704
  876MOL0     H15610   0.774   4.062   1.162  1.8025 -0.0067 -0.9643
  876MOL0     H15611   0.784   4.205   1.271 -0.9752  0.0433  0.9723
  876MOL0     H15612   0.922   3.942   1.358 -1.2017  0.2320  1.3229
  876MOL0     H15613   0.915   4.112   1.415 -3.4774  2.0029 -1.5287
  876MOL0     H15614   0.240   3.944   1.848 -3.0635 -0.9296 -1.9884
  876MOL0     H15615   0.231   3.912   2.093  1.2661  0.7854  2.6508
  876MOL0     H15616   0.212   4.301   2.602 -1.6012 -0.5356 -0.2082
  876MOL0     H15617   0.361   4.238   2.794  1.2795  2.2526 -2.3325
  876MOL0     H15618   0.750   3.908   3.977 -1.2857  0.6185  0.3051
  876MOL0     H15619   0.911   4.037   4.083 -1.4536 -2.8616 -1.7145
  876MOL0     H15620   1.153   4.021   4.494  1.6016 -1.2001  1.4628
  876MOL0     H15621   1.334   4.075   4.651 -1.0378 -0.7663  0.8065
  876MOL0     H15622   1.276   4.419   4.933  0.9017 -0.5016  0.2278
  876MOL0     H15623   1.352   4.505   4.811 -1.9406  0.3712  0.4665
  876MOL0     H15624   1.575   4.418   4.885  1.2183  1.7592  0.4968
  876MOL0     H15625   1.487   4.531   5.008 -1.4838 -0.5393  0.6746
  876MOL0     H15626   1.530   4.238   5.035  3.0216  0.3614  1.4358
  876MOL0     H15627   1.429   4.342   5.129  1.3522  1.0470  0.9897
  876MOL0     H15628   1.657   4.273   5.217 -2.8940  0.7842  0.3241
  876MOL0     H15629   1.731   4.370   5.090 -0.5975 -4.3543 -1.2789
  876MOL0     H15630   1.584   4.649   5.364 -3.4570 -0.9476 -0.9411
  876MOL0     H15631   1.126   4.419   4.786  2.6994  1.0025 -0.2608
  876MOL0     H15632   0.972   4.398   4.593  0.3249  0.5564 -1.1659
  877MOL0     O15633   7.697   4.029   7.801  0.4923 -0.4184 -0.3459
  877MOL0     C15634   7.816   4.021   7.809 -0.1054  0.2336  0.2619
  877MOL0     O15635   7.888   3.906   7.821  0.3517 -0.4544  0.0257
  877MOL0     C15636   7.817   3.788   7.825 -0.2142 -0.1155  0.1425
  877MOL0     C15637   7.711   3.779   7.909  0.5418 -1.1626 -0.2558
  877MOL0     C15638   7.637   3.664   7.929 -0.7509  0.8784  0.1530
  877MOL0     C15639   7.655   3.560   7.839 -0.3834  0.0452  0.8675
  877MOL0     O15640   7.569   3.448   7.833 -0.0900 -0.5972 -0.9809
  877MOL0     C15641   7.585   3.336   7.742 -0.4350 -0.4042  0.3675
  877MOL0     C15642   7.455   3.248   7.770 -0.3259  0.6943 -0.2433
  877MOL0     C15643   7.465   3.166   7.903 -0.0822  0.1888  0.9508
  877MOL0     C15644   7.374   3.046   7.905 -0.0597 -0.2765 -0.9431
  877MOL0     C15645   7.437   2.920   7.830  0.2213  0.2815  0.2843
  877MOL0     C15646   7.316   2.817   7.833 -0.4053  0.4968  0.0061
  877MOL0     C15647   7.356   2.673   7.790 -0.1582 -0.1463  1.0739
  877MOL0     C15648   7.229   2.584   7.786  1.7648  0.6913 -0.2874
  877MOL0     N15649   7.239   2.478   7.695 -0.0557 -0.5661  0.3295
  877MOL0     C15650   7.351   2.391   7.691 -0.0119  1.0811 -0.1608
  877MOL0     C15651   7.332   2.320   7.572 -0.1950  0.2134 -0.0462
  877MOL0     C15652   7.410   2.208   7.515 -0.1791  0.9451 -0.1959
  877MOL0     C15653   7.470   2.228   7.378 -0.4959 -0.5592  0.0659
  877MOL0     C15654   7.592   2.327   7.378 -0.5567 -0.2386  0.8855
  877MOL0     C15655   7.647   2.360   7.243 -0.0844 -0.2215  0.1036
  877MOL0     O15656   7.676   2.243   7.163  0.1332 -0.6859  0.7364
  877MOL0     C15657   7.693   2.262   7.025 -0.1233  0.8914 -0.0527
  877MOL0     C15658   7.745   2.152   6.962 -0.4043 -0.2837  0.3605
  877MOL0     C15659   7.746   2.133   6.827 -1.0640  0.1692  1.0405
  877MOL0     C15660   7.704   2.243   6.742  0.4125  0.4927  0.3188
  877MOL0     C15661   7.717   2.250   6.597 -0.1947  0.7051  0.3839
  877MOL0     O15662   7.748   2.375   6.551 -0.5550 -0.6182 -0.0514
  877MOL0     C15663   7.770   2.389   6.416 -0.3784 -0.9170  0.7071
  877MOL0     C15664   7.870   2.316   6.342  0.9155 -0.1059 -0.3871
  877MOL0     C15665   7.895   2.348   6.207 -0.1499  0.0688 -0.9010
  877MOL0     C15666   7.824   2.445   6.140  0.5229  0.3869 -0.4303
  877MOL0     O15667   7.849   2.478   6.007  0.1998  0.1953 -0.6165
  877MOL0     C15668   7.979   2.502   5.958 -1.8302  0.0799 -0.1639
  877MOL0     C15669   7.983   2.480   5.806 -0.1110 -0.0020 -0.7796
  877MOL0     C15670   8.103   2.570   5.763  0.2731 -0.9185 -1.3021
  877MOL0     C15671   8.118   2.585   5.614 -0.5781 -0.6468 -0.7247
  877MOL0     C15672   8.252   2.660   5.593  1.1639 -0.5207 -0.3035
  877MOL0     C15673   8.275   2.696   5.443 -0.4353 -0.1563  0.1202
  877MOL0     C15674   8.360   2.835   5.427 -0.2953  0.1035  0.0253
  877MOL0     C15675   8.394   2.856   5.278  0.1562 -0.2951  0.1645
  877MOL0    Cl15676   8.537   2.751   5.249 -0.0946 -0.6108  0.4944
  877MOL0     C15677   7.724   2.513   6.213 -0.8257 -0.1812 -0.3947
  877MOL0     C15678   7.695   2.481   6.346 -0.1580 -0.8069  0.4401
  877MOL0     O15679   7.724   2.138   6.533  0.5341 -0.2211 -0.8299
  877MOL0     C15680   7.650   2.362   6.809 -0.2247 -0.3740 -0.0896
  877MOL0     C15681   7.648   2.367   6.948 -0.1717  0.0335  0.1385
  877MOL0     N15682   7.216   2.358   7.508  0.0996 -0.1386  0.7613
  877MOL0     N15683   7.175   2.460   7.579 -0.0103 -0.7715  0.5148
  877MOL0     C15684   7.762   3.571   7.742  0.1284 -0.0297 -0.2776
  877MOL0     C15685   7.853   3.679   7.752  0.7203 -0.1975 -0.7079
  877MOL0     C15686   7.892   4.147   7.784  0.2239 -0.2516 -0.3315
  877MOL0     C15687   7.828   4.271   7.795  0.7220 -0.9174 -0.4469
  877MOL0     C15688   7.893   4.393   7.782  0.8191  0.2202 -0.4301
  877MOL0     C15689   8.026   4.401   7.745 -0.1229  1.0889  1.0059
  877MOL0     O15690   8.099   4.500   7.701 -0.5428 -0.1549 -0.2503
  877MOL0     C15691   8.058   4.634   7.747  0.3660  0.1498 -0.0740
  877MOL0     C15692   8.056   4.652   7.897  0.0756 -0.2208  0.6864
  877MOL0     C15693   8.041   4.795   7.933  0.2761 -0.6776 -1.0608
  877MOL0     C15694   8.118   4.824   8.059 -0.5004 -0.5119 -0.6527
  877MOL0     C15695   8.266   4.861   8.046 -0.6655 -0.3389 -0.3265
  877MOL0     C15696   8.378   4.900   8.022  0.4886 -0.3972 -0.3830
  877MOL0     C15697   8.094   4.282   7.743  0.6182 -0.1771  0.0842
  877MOL0     C15698   8.035   4.157   7.768 -0.7335 -0.8322  0.2946
  877MOL0     H15699   7.696   3.864   7.974  0.9884 -1.6847  0.5419
  877MOL0     H15700   7.561   3.658   8.007 -1.0736 -2.5545 -0.2623
  877MOL0     H15701   7.679   3.282   7.760 -1.5184 -2.7279 -0.4764
  877MOL0     H15702   7.579   3.374   7.639 -1.1718 -1.1243  0.1299
  877MOL0     H15703   7.440   3.183   7.683  0.3558  0.4532 -0.1874
  877MOL0     H15704   7.359   3.301   7.779 -0.3468  0.2858  4.9830
  877MOL0     H15705   7.447   3.240   7.982 -0.0941 -0.6851  1.7884
  877MOL0     H15706   7.561   3.115   7.914 -0.3664  0.0067  2.9938
  877MOL0     H15707   7.349   3.016   8.007 -1.1748 -3.7644 -2.0911
  877MOL0     H15708   7.279   3.072   7.856 -0.5908 -1.6260 -0.6722
  877MOL0     H15709   7.531   2.882   7.873  0.1592 -1.7675 -1.2329
  877MOL0     H15710   7.467   2.942   7.728  3.0155 -4.6065 -0.2443
  877MOL0     H15711   7.234   2.853   7.770 -0.5470 -0.0549 -0.1371
  877MOL0     H15712   7.283   2.825   7.937 -2.5777 -0.9443 -0.4860
  877MOL0     H15713   7.406   2.683   7.693 -2.1106 -0.3782 -0.0080
  877MOL0     H15714   7.427   2.631   7.862  2.2073  1.5971 -0.0993
  877MOL0     H15715   7.143   2.647   7.761  0.9877  0.3346  1.3545
  877MOL0     H15716   7.210   2.547   7.887 -0.4681 -2.4433 -1.6723
  877MOL0     H15717   7.427   2.382   7.768  0.9603  1.3771 -1.0669
  877MOL0     H15718   7.338   2.126   7.509 -0.4574  1.2653 -2.0267
  877MOL0     H15719   7.492   2.176   7.579 -1.8386 -0.7586  1.1974
  877MOL0     H15720   7.396   2.267   7.307 -1.8899 -1.1017  1.1701
  877MOL0     H15721   7.520   2.136   7.347 -0.5597 -0.4236 -0.4496
  877MOL0     H15722   7.574   2.420   7.433  0.1472  0.5553 -0.1938
  877MOL0     H15723   7.675   2.272   7.423 -1.7121 -3.2504 -0.4187
  877MOL0     H15724   7.733   2.426   7.254 -2.0390  3.0742 -2.3494
  877MOL0     H15725   7.568   2.419   7.195  0.3881 -0.9704 -1.6750
  877MOL0     H15726   7.771   2.065   7.022 -2.1634 -0.9131  0.2649
  877MOL0     H15727   7.778   2.047   6.769  0.1193  0.7698  0.7619
  877MOL0     H15728   7.940   2.250   6.394 -0.1304 -0.0595  1.1421
  877MOL0     H15729   7.972   2.297   6.149  0.5672  0.4736 -0.3311
  877MOL0     H15730   8.059   2.445   6.007 -0.2661  2.1510 -0.2098
  877MOL0     H15731   8.000   2.607   5.980 -1.8675 -0.3226  2.0687
  877MOL0     H15732   7.889   2.510   5.757 -1.2695  0.0064  1.3249
  877MOL0     H15733   8.007   2.381   5.765 -0.4472 -0.3442 -0.1638
  877MOL0     H15734   8.190   2.526   5.813 -0.4263 -0.9615 -0.0854
  877MOL0     H15735   8.108   2.670   5.805 -0.3415 -1.2022 -0.5105
  877MOL0     H15736   8.126   2.490   5.560  3.5880 -1.4011  0.8525
  877MOL0     H15737   8.036   2.636   5.564 -2.7508 -1.2136  1.9875
  877MOL0     H15738   8.329   2.595   5.636 -2.8911 -3.3342  3.5403
  877MOL0     H15739   8.246   2.759   5.637 -3.4438 -1.0375  0.6935
  877MOL0     H15740   8.179   2.703   5.391 -1.2357  2.8748  1.7830
  877MOL0     H15741   8.325   2.606   5.404 -0.1087 -0.9226  2.1824
  877MOL0     H15742   8.286   2.913   5.450 -1.3615 -0.9641  0.3128
  877MOL0     H15743   8.446   2.837   5.494 -1.4251 -0.3197  1.5586
  877MOL0     H15744   8.429   2.959   5.268  0.8699 -0.5286  0.1567
  877MOL0     H15745   8.305   2.833   5.220 -1.8313  2.1737  2.0140
  877MOL0     H15746   7.686   2.598   6.156 -1.9328 -1.1697 -1.1883
  877MOL0     H15747   7.610   2.519   6.401 -1.7885 -3.5989  0.0544
  877MOL0     H15748   7.612   2.448   6.755  3.1224  2.5754  1.8520
  877MOL0     H15749   7.636   2.467   6.990 -0.4531 -0.7913  2.1511
  877MOL0     H15750   7.788   3.494   7.670  2.3308 -1.3939  1.8081
  877MOL0     H15751   7.938   3.694   7.686  1.3862 -0.5787  0.0471
  877MOL0     H15752   7.722   4.264   7.816  0.2714  1.2116 -1.7264
  877MOL0     H15753   7.842   4.489   7.785  2.0024  1.0402 -2.9992
  877MOL0     H15754   7.955   4.651   7.714  0.0613  0.8816  1.1906
  877MOL0     H15755   8.112   4.720   7.707 -3.0159  2.1319 -0.8120
  877MOL0     H15756   7.978   4.595   7.950 -1.2010  1.8155  1.1047
  877MOL0     H15757   8.153   4.613   7.928 -0.2593  0.0529  2.1534
  877MOL0     H15758   7.935   4.820   7.945  0.0162 -2.4941  0.8953
  877MOL0     H15759   8.060   4.860   7.847  0.4070 -0.1141 -0.6134
  877MOL0     H15760   8.055   4.904   8.099 -2.0171 -0.1504 -3.4796
  877MOL0     H15761   8.111   4.733   8.120 -1.6808  0.9105  1.4732
  877MOL0     H15762   8.465   4.945   7.980  2.1319 -3.7539 -0.8843
  877MOL0     H15763   8.199   4.296   7.720  0.2406 -0.5220 -2.0051
  877MOL0     H15764   8.097   4.068   7.766  0.5278  0.0319  0.1340
  878MOL0     O15765  10.042  10.310  11.186  0.0981 -0.2854 -0.5414
  878MOL0     C15766  10.034  10.286  11.306 -0.1219  0.5406  0.5922
  878MOL0     O15767   9.974  10.363  11.401 -0.5042 -0.2395 -0.4293
  878MOL0     C15768   9.919  10.478  11.358  0.7098  0.3185 -0.1179
  878MOL0     C15769   9.829  10.489  11.255 -0.1775  0.3417  0.3020
  878MOL0     C15770   9.792  10.625  11.218  1.2799  0.0299  0.3772
  878MOL0     C15771   9.834  10.733  11.287  0.7921 -0.2985 -1.0467
  878MOL0     O15772   9.805  10.860  11.258  0.4847  0.5065 -1.1336
  878MOL0     C15773   9.870  10.907  11.140 -0.7102 -1.7109 -0.4580
  878MOL0     C15774   9.822  11.057  11.107  0.7418  0.3841 -0.5702
  878MOL0     C15775   9.881  11.101  10.970 -0.1017  0.2909  0.0689
  878MOL0     C15776   9.863  11.255  10.948  0.4441  0.4254  0.4226
  878MOL0     C15777   9.931  11.297  10.820 -0.6591  0.7049  0.6567
  878MOL0     C15778   9.886  11.213  10.696  0.4189  0.4713  0.1691
  878MOL0     C15779   9.935  11.275  10.564  0.1586 -0.0011  0.7513
  878MOL0     C15780   9.857  11.406  10.528 -0.0483  0.7139  0.1174
  878MOL0     N15781   9.839  11.468  10.395  0.5095 -0.1411  0.6012
  878MOL0     C15782   9.933  11.484  10.303 -0.6511  0.1526 -0.5271
  878MOL0     C15783   9.867  11.513  10.187  0.2811  0.9889 -0.4052
  878MOL0     C15784   9.922  11.550  10.047  0.3312 -0.1560 -1.2924
  878MOL0     C15785  10.071  11.525  10.039  0.1629  0.1898  0.2740
  878MOL0     C15786  10.113  11.374  10.049 -0.7436  1.1315 -0.1112
  878MOL0     C15787  10.257  11.351  10.019  0.4159  1.1435 -0.4823
  878MOL0     O15788  10.337  11.447  10.095  0.1287  0.8297  0.9625
  878MOL0     C15789  10.365  11.413  10.219 -0.8891  0.4866 -1.2421
  878MOL0     C15790  10.460  11.502  10.272  1.7212  0.6910  0.1972
  878MOL0     C15791  10.520  11.477  10.395 -0.5827 -0.1435 -0.3549
  878MOL0     C15792  10.466  11.368  10.476 -0.1497  0.3179  0.0376
  878MOL0     C15793  10.510  11.339  10.610 -1.0482 -0.2478  0.0232
  878MOL0     O15794  10.615  11.421  10.651 -0.0140  0.1628 -0.4498
  878MOL0     C15795  10.678  11.393  10.772  1.3793 -0.0992  0.0451
  878MOL0     C15796  10.720  11.261  10.808 -0.9780  0.3580  0.0812
  878MOL0     C15797  10.766  11.243  10.942 -0.1103  0.8429 -1.3930
  878MOL0     C15798  10.776  11.344  11.042 -0.4379  0.1346 -0.0134
  878MOL0     O15799  10.828  11.338  11.172 -0.1443  0.0226  0.6851
  878MOL0     C15800  10.904  11.219  11.210 -0.2432  0.9625  0.8177
  878MOL0     C15801  10.813  11.116  11.267 -1.2421 -0.3645  0.0444
  878MOL0     C15802  10.750  11.168  11.401  0.2326 -0.2715 -0.3512
  878MOL0     C15803  10.718  11.048  11.497 -0.1896  0.0470 -0.5954
  878MOL0     C15804  10.647  11.101  11.618  0.6143  0.4050 -0.7685
  878MOL0     C15805  10.600  10.993  11.712  0.7963 -0.5968  0.4325
  878MOL0     C15806  10.701  10.955  11.817 -0.3880 -0.0512  0.3202
  878MOL0     C15807  10.640  10.846  11.899  0.2513 -0.2258 -0.6126
  878MOL0    Cl15808  10.749  10.800  12.030 -0.1363  0.1172 -0.3599
  878MOL0     C15809  10.725  11.470  11.000 -0.5378 -0.6886 -0.5480
  878MOL0     C15810  10.679  11.493  10.868  0.5270 -0.2128 -0.9061
  878MOL0     O15811  10.452  11.260  10.680 -0.5592  0.2016  0.0905
  878MOL0     C15812  10.351  11.294  10.426  0.0646  0.6097 -0.3736
  878MOL0     C15813  10.308  11.313  10.298 -0.3216  1.0339 -0.6219
  878MOL0     N15814   9.734  11.515  10.211  0.3961 -0.6068  0.5991
  878MOL0     N15815   9.721  11.481  10.333 -0.1438  0.2987 -1.8931
  878MOL0     C15816   9.931  10.712  11.387  0.3934 -0.5585 -1.2670
  878MOL0     C15817   9.969  10.585  11.429 -1.2187 -0.8487 -0.5187
  878MOL0     C15818  10.064  10.155  11.367  0.0670 -0.7400 -0.2860
  878MOL0     C15819  10.106  10.055  11.278  0.1894 -0.1099  0.3100
  878MOL0     C15820  10.146   9.938  11.325 -0.6542 -0.2501 -0.6555
  878MOL0     C15821  10.161   9.915  11.461  0.6666 -0.3019 -0.2339
  878MOL0     O15822  10.221   9.803  11.497 -0.2413  0.0085 -0.4151
  878MOL0     C15823  10.132   9.689  11.494 -0.4528  0.7455 -0.4327
  878MOL0     C15824  10.232   9.572  11.458  0.4055 -0.5800  0.9765
  878MOL0     C15825  10.322   9.522  11.574  0.2942 -0.0002 -0.3219
  878MOL0     C15826  10.448   9.440  11.543 -0.6726  0.2373  1.5472
  878MOL0     C15827  10.499   9.362  11.655  0.7953 -0.0865  1.0713
  878MOL0     C15828  10.521   9.287  11.747 -1.1017  0.5688  0.9825
  878MOL0     C15829  10.109  10.008  11.551  0.3577 -0.4759  0.2616
  878MOL0     C15830  10.061  10.130  11.503 -0.0821 -0.0419  0.3642
  878MOL0     H15831   9.789  10.401  11.206 -0.2798 -0.6815  2.1303
  878MOL0     H15832   9.719  10.639  11.139  1.3960 -3.4555 -0.5431
  878MOL0     H15833   9.834  10.856  11.050 -1.0987  0.0205 -1.3269
  878MOL0     H15834   9.979  10.912  11.137 -0.7429 -1.3996 -2.5879
  878MOL0     H15835   9.883  11.123  11.169  0.2512 -0.5224  0.9175
  878MOL0     H15836   9.713  11.059  11.119  0.6036  1.0420 -1.7356
  878MOL0     H15837   9.822  11.045  10.898 -2.8004  1.9101  0.8454
  878MOL0     H15838   9.983  11.066  10.958  1.0963  2.9659  1.5882
  878MOL0     H15839   9.760  11.290  10.938 -0.9243 -3.1827  0.5870
  878MOL0     H15840   9.905  11.303  11.037 -1.0190 -3.1887  3.3101
  878MOL0     H15841  10.038  11.282  10.837 -0.6507  0.9162  0.7975
  878MOL0     H15842   9.916  11.404  10.802 -1.5917  0.6261  0.9278
  878MOL0     H15843   9.778  11.196  10.695 -0.3751  3.8465  3.7668
  878MOL0     H15844   9.934  11.115  10.698  1.7361  1.0389 -1.5516
  878MOL0     H15845  10.041  11.297  10.582  0.9476 -1.2039 -1.8718
  878MOL0     H15846   9.919  11.205  10.481  0.9924  1.9186 -1.1302
  878MOL0     H15847   9.905  11.481  10.593  0.4488  3.1808 -2.8648
  878MOL0     H15848   9.755  11.392  10.564 -0.8667 -0.5630 -2.4908
  878MOL0     H15849  10.038  11.477  10.330 -0.8560  2.0775  1.0534
  878MOL0     H15850   9.899  11.654  10.021  0.1535 -0.4729 -2.4660
  878MOL0     H15851   9.861  11.499   9.971 -0.1220 -1.2175 -0.2358
  878MOL0     H15852  10.118  11.581  10.121 -3.0078  1.5203  1.3388
  878MOL0     H15853  10.109  11.561   9.943  1.8687 -1.0028  0.4372
  878MOL0     H15854  10.076  11.341  10.146 -2.1379  1.0443 -0.6467
  878MOL0     H15855  10.064  11.303   9.981  0.1948  0.9731 -0.6411
  878MOL0     H15856  10.276  11.360   9.911  1.1066 -4.3327 -1.1224
  878MOL0     H15857  10.276  11.245  10.037 -2.1944  0.2427 -2.3200
  878MOL0     H15858  10.498  11.582  10.209 -1.8306  3.0990  0.7778
  878MOL0     H15859  10.595  11.548  10.430  1.0147 -0.7951 -2.2669
  878MOL0     H15860  10.711  11.171  10.747 -3.1406  0.6334 -0.0898
  878MOL0     H15861  10.797  11.142  10.967  0.0051  1.6038  2.0351
  878MOL0     H15862  10.982  11.239  11.285 -2.0065  1.5965  2.5629
  878MOL0     H15863  10.956  11.183  11.121 -3.7141 -1.1519 -0.5529
  878MOL0     H15864  10.864  11.021  11.286  0.4823  0.1654 -1.5985
  878MOL0     H15865  10.741  11.082  11.191  3.7341 -3.0726 -4.1169
  878MOL0     H15866  10.653  11.213  11.379  1.2227  1.1373 -2.0253
  878MOL0     H15867  10.814  11.240  11.452  1.3553 -1.3613 -0.1617
  878MOL0     H15868  10.650  10.976  11.451 -2.0721  0.7800  0.9408
  878MOL0     H15869  10.804  10.988  11.529 -1.4909 -1.6893 -0.2152
  878MOL0     H15870  10.558  11.159  11.591 -0.4418 -0.8438 -0.0493
  878MOL0     H15871  10.712  11.171  11.673  2.7452 -2.4080  0.5401
  878MOL0     H15872  10.554  10.910  11.658 -2.9324  1.7437 -0.3300
  878MOL0     H15873  10.505  11.021  11.758  1.3204 -0.2863  1.3578
  878MOL0     H15874  10.794  10.919  11.772 -0.2197  1.6780 -0.7975
  878MOL0     H15875  10.718  11.036  11.889 -1.4922 -0.8569  1.5413
  878MOL0     H15876  10.610  10.761  11.837  0.1182  0.8556 -2.0923
  878MOL0     H15877  10.557  10.881  11.960  2.2078 -2.6603  3.9697
  878MOL0     H15878  10.725  11.560  11.060 -0.9794 -1.0187 -0.0426
  878MOL0     H15879  10.640  11.589  10.835  0.8414 -0.2300 -1.3439
  878MOL0     H15880  10.307  11.222  10.494  3.1000 -3.1244 -2.0284
  878MOL0     H15881  10.240  11.237  10.262  1.5045 -0.9849 -0.0335
  878MOL0     H15882   9.996  10.790  11.426 -0.9057  0.6790 -1.4986
  878MOL0     H15883  10.049  10.563  11.499  0.7120 -1.4537 -2.7915
  878MOL0     H15884  10.108  10.087  11.174 -1.4069  0.7158  0.5033
  878MOL0     H15885  10.170   9.858  11.256  2.9579  1.7341 -1.9683
  878MOL0     H15886  10.063   9.713  11.412  0.6993  2.8829 -0.8602
  878MOL0     H15887  10.062   9.677  11.577 -1.5608  1.5563 -1.2189
  878MOL0     H15888  10.175   9.488  11.417  1.4912  0.3864 -2.9810
  878MOL0     H15889  10.301   9.601  11.377 -1.5816 -0.8645 -0.9092
  878MOL0     H15890  10.261   9.455  11.636  0.6076  0.4917  0.5242
  878MOL0     H15891  10.354   9.614  11.624  1.3871 -1.7007  2.3013
  878MOL0     H15892  10.418   9.372  11.463  2.2851  1.4277 -0.7151
  878MOL0     H15893  10.523   9.505  11.500 -2.2887  2.2347  1.6068
  878MOL0     H15894  10.524   9.221  11.831  0.6055  0.0763  0.5742
  878MOL0     H15895  10.109   9.980  11.655  2.1075 -2.0047 -0.0897
  878MOL0     H15896  10.030  10.206  11.574 -0.1803 -0.6712  1.0018
  879MOL0     O15897  10.300   3.213  10.453 -0.2241  0.8572  0.3138
  879MOL0     C15898  10.339   3.131  10.364  0.1164  0.3044 -0.7270
  879MOL0     O15899  10.356   3.167  10.232  0.2273  0.1018  0.9715
  879MOL0     C15900  10.330   3.301  10.210 -1.0203 -0.6576 -0.0068
  879MOL0     C15901  10.427   3.391  10.172  0.4156  0.5966 -0.4085
  879MOL0     C15902  10.405   3.526  10.162  0.7636 -0.0118  0.8073
  879MOL0     C15903  10.272   3.575  10.179  0.2862 -0.0382  0.8892
  879MOL0     O15904  10.229   3.705  10.170 -0.7856  0.1237 -0.3157
  879MOL0     C15905  10.319   3.824  10.157  0.5002 -0.9800 -0.9133
  879MOL0     C15906  10.393   3.856  10.287 -0.2687  0.1212 -0.1745
  879MOL0     C15907  10.296   3.900  10.395  1.0773 -0.1325  0.6485
  879MOL0     C15908  10.362   3.925  10.531  0.1992  0.2253  0.1696
  879MOL0     C15909  10.271   3.951  10.646 -0.7949  0.5108 -0.2229
  879MOL0     C15910  10.186   4.077  10.643  0.5049  0.4040 -0.3200
  879MOL0     C15911  10.077   4.058  10.750  0.6518  0.3362  0.0483
  879MOL0     C15912  10.130   4.067  10.894 -0.9875  1.0278 -0.3660
  879MOL0     N15913  10.200   4.199  10.919 -0.7890 -0.8805 -0.2967
  879MOL0     C15914  10.332   4.221  10.916 -0.5225 -0.6859 -0.8319
  879MOL0     C15915  10.355   4.343  10.974 -0.2288 -0.6587 -0.6803
  879MOL0     C15916  10.478   4.420  10.974  0.7590  0.5797 -0.3840
  879MOL0     C15917  10.520   4.441  11.128 -0.4514  0.6760 -0.4971
  879MOL0     C15918  10.649   4.507  11.137 -0.2298  0.5575  1.1817
  879MOL0     C15919  10.680   4.525  11.291 -0.2846  0.5711 -0.1706
  879MOL0     O15920  10.691   4.390  11.331 -0.1883 -0.1038 -0.3086
  879MOL0     C15921  10.692   4.345  11.449  0.7661  0.3148 -0.4973
  879MOL0     C15922  10.725   4.430  11.563 -0.4904  0.8486 -0.2792
  879MOL0     C15923  10.703   4.380  11.692 -0.8146 -1.1808  0.2892
  879MOL0     C15924  10.666   4.249  11.717 -0.8689 -0.0280 -0.6427
  879MOL0     C15925  10.637   4.202  11.857  0.3768  0.1378  0.2490
  879MOL0     O15926  10.632   4.066  11.863  0.8714  0.2467 -0.4926
  879MOL0     C15927  10.539   4.017  11.950  0.7691 -0.0678 -0.3498
  879MOL0     C15928  10.582   3.906  12.023  0.4684  0.3089  1.0456
  879MOL0     C15929  10.507   3.837  12.109 -0.1450  0.2873  1.0613
  879MOL0     C15930  10.370   3.884  12.132 -0.4076 -0.5003  0.6969
  879MOL0     O15931  10.297   3.825  12.230 -0.7077  0.4196 -1.2989
  879MOL0     C15932  10.204   3.909  12.304 -0.8753 -0.3546  0.2761
  879MOL0     C15933  10.147   3.842  12.435  0.4774  1.1552  0.7995
  879MOL0     C15934  10.090   3.703  12.393  0.9110 -0.0731 -0.6559
  879MOL0     C15935  10.017   3.613  12.489 -0.5347 -0.6784 -0.0689
  879MOL0     C15936  10.006   3.474  12.430  0.3297 -0.9182  0.4632
  879MOL0     C15937  10.111   3.382  12.498  0.0618  0.6114 -0.2371
  879MOL0     C15938  10.112   3.236  12.447  0.0955 -0.0695  0.8610
  879MOL0     C15939  10.114   3.218  12.291 -0.6337 -0.7305 -1.0232
  879MOL0    Cl15940  10.126   3.043  12.253  0.0779 -0.2467  0.5800
  879MOL0     C15941  10.322   3.986  12.055 -0.7800 -0.3701 -0.5340
  879MOL0     C15942  10.406   4.058  11.963  0.2639  0.1409 -0.0935
  879MOL0     O15943  10.635   4.280  11.948 -0.5386 -0.4905 -0.8267
  879MOL0     C15944  10.635   4.165  11.606 -0.1991 -0.2901  0.6825
  879MOL0     C15945  10.654   4.209  11.474 -0.6343 -0.1943 -0.4170
  879MOL0     N15946  10.229   4.393  11.003 -0.8059  0.3335  0.1272
  879MOL0     N15947  10.140   4.310  10.974 -0.0585  0.9602 -0.0462
  879MOL0     C15948  10.171   3.485  10.215  0.6928  0.7323 -0.6882
  879MOL0     C15949  10.198   3.346  10.228 -0.4985 -0.4978 -0.8264
  879MOL0     C15950  10.330   2.989  10.399  0.1592  0.8703 -0.0313
  879MOL0     C15951  10.362   2.885  10.305  0.3341 -0.6124 -0.3250
  879MOL0     C15952  10.354   2.753  10.340  0.4994 -0.0613  1.2305
  879MOL0     C15953  10.319   2.710  10.468  0.2413 -0.3802  0.5377
  879MOL0     O15954  10.301   2.574  10.499 -0.1361  0.1820  0.0739
  879MOL0     C15955  10.275   2.486  10.386  0.6045 -0.3034  0.4125
  879MOL0     C15956  10.199   2.362  10.433 -0.4337 -0.4848  0.5966
  879MOL0     C15957  10.144   2.293  10.305  0.1414 -0.0319  0.7910
  879MOL0     C15958  10.066   2.166  10.350  0.0967 -0.4689  0.5191
  879MOL0     C15959  10.025   2.112  10.218 -0.1438 -0.5274 -0.5109
  879MOL0     C15960   9.973   2.080  10.112  0.0720 -0.5218  0.4260
  879MOL0     C15961  10.307   2.803  10.568 -0.3890 -0.1681 -0.2046
  879MOL0     C15962  10.306   2.940  10.528 -0.0720  0.6330 -0.1887
  879MOL0     H15963  10.526   3.356  10.145 -0.5370 -1.9908 -0.8550
  879MOL0     H15964  10.484   3.592  10.128 -0.0211  0.1198 -0.8386
  879MOL0     H15965  10.257   3.909  10.130  1.0816 -1.0101 -2.5006
  879MOL0     H15966  10.374   3.815  10.062  0.9261  4.2499 -1.4473
  879MOL0     H15967  10.460   3.939  10.262  1.4529 -0.5500  1.8922
  879MOL0     H15968  10.455   3.772  10.321  0.0681 -0.1762 -1.4545
  879MOL0     H15969  10.232   3.814  10.420  0.0779  0.1138 -0.9279
  879MOL0     H15970  10.241   3.987  10.359  0.7423  0.5165  2.5882
  879MOL0     H15971  10.420   3.837  10.561 -1.2083 -0.0861  2.1498
  879MOL0     H15972  10.437   4.004  10.527  0.4234  0.0665  1.0434
  879MOL0     H15973  10.336   3.945  10.733  1.5752  0.0053 -1.9524
  879MOL0     H15974  10.203   3.865  10.653 -3.5772  2.4971 -0.9396
  879MOL0     H15975  10.143   4.066  10.543  1.1037  0.5930 -0.6010
  879MOL0     H15976  10.245   4.168  10.659  0.8103  0.1988 -0.2733
  879MOL0     H15977  10.009   4.143  10.739  1.5511  1.3599  1.9189
  879MOL0     H15978  10.019   3.966  10.738  1.4224 -0.3934  1.6183
  879MOL0     H15979  10.200   3.991  10.931 -0.3220  1.9308  0.3037
  879MOL0     H15980  10.041   4.060  10.956 -1.4776  0.1413 -1.1426
  879MOL0     H15981  10.411   4.152  10.888  0.3465 -1.4453  2.9104
  879MOL0     H15982  10.472   4.517  10.925 -0.9181  1.1506  0.8589
  879MOL0     H15983  10.566   4.371  10.931  0.8667 -0.8547  1.3255
  879MOL0     H15984  10.526   4.342  11.176 -0.1277  0.1704 -1.5466
  879MOL0     H15985  10.438   4.502  11.168 -1.2170 -0.3091 -0.5221
  879MOL0     H15986  10.729   4.446  11.095 -1.4503 -0.6664  0.5531
  879MOL0     H15987  10.641   4.602  11.083 -3.2026 -0.8732 -1.2269
  879MOL0     H15988  10.601   4.580  11.342  2.6593  4.6714  0.4363
  879MOL0     H15989  10.773   4.577  11.315 -0.3468 -0.0021  1.3604
  879MOL0     H15990  10.781   4.523  11.567  4.7858 -1.9375  4.0295
  879MOL0     H15991  10.710   4.440  11.781  0.8047  0.3109 -0.7880
  879MOL0     H15992  10.683   3.869  12.007  0.8586  1.5338  0.4917
  879MOL0     H15993  10.543   3.747  12.158 -0.1133 -0.6779 -0.6566
  879MOL0     H15994  10.119   3.939  12.243  0.7854  2.1810 -0.9620
  879MOL0     H15995  10.260   3.999  12.333 -2.4532  0.8888 -0.3865
  879MOL0     H15996  10.062   3.900  12.471 -1.0703 -1.0157  0.8167
  879MOL0     H15997  10.213   3.820  12.520 -1.3995 -1.7610  1.6428
  879MOL0     H15998  10.171   3.643  12.350  0.6608 -2.4672  1.9271
  879MOL0     H15999  10.014   3.721  12.317  1.8316 -0.6573 -1.7384
  879MOL0     H16000  10.077   3.622  12.581 -0.9609  2.2270  0.0204
  879MOL0     H16001   9.920   3.658  12.513 -1.0890 -1.2676 -1.1617
  879MOL0     H16002  10.029   3.479  12.324 -0.8669 -1.3326  0.1666
  879MOL0     H16003   9.902   3.439  12.432  0.2568 -0.9451 -1.6639
  879MOL0     H16004  10.092   3.376  12.605  2.2205 -1.1110  0.1008
  879MOL0     H16005  10.211   3.424  12.484  0.3205 -0.1262 -0.6378
  879MOL0     H16006  10.202   3.194  12.493  0.3942  0.4901  0.7914
  879MOL0     H16007  10.024   3.176  12.473  0.5570 -1.2718 -0.2597
  879MOL0     H16008  10.203   3.271  12.253 -1.0287  1.7411  1.2203
  879MOL0     H16009  10.021   3.246  12.241 -0.8762 -1.6554 -1.1060
  879MOL0     H16010  10.216   4.009  12.055 -0.3992  1.5815  0.2207
  879MOL0     H16011  10.348   4.132  11.909 -1.9762 -1.8022 -0.4862
  879MOL0     H16012  10.608   4.060  11.619 -1.0420 -0.4303 -1.8520
  879MOL0     H16013  10.634   4.145  11.389 -3.0975 -0.9515  0.6431
  879MOL0     H16014  10.069   3.521  10.229  1.2280  1.7759  0.7947
  879MOL0     H16015  10.116   3.286  10.266  0.0147 -0.4731  0.3585
  879MOL0     H16016  10.393   2.914  10.205 -0.9928  0.7244 -0.3944
  879MOL0     H16017  10.390   2.687  10.261 -1.2327 -0.5221  0.7886
  879MOL0     H16018  10.359   2.466  10.319 -1.3112  1.0856 -2.6360
  879MOL0     H16019  10.207   2.530  10.313 -0.7827 -2.4755  0.3248
  879MOL0     H16020  10.259   2.291  10.490 -0.3726 -0.6626  0.3066
  879MOL0     H16021  10.122   2.409  10.496  0.9361  3.2380 -0.2425
  879MOL0     H16022  10.229   2.275  10.239 -0.5502 -1.3873  0.2093
  879MOL0     H16023  10.074   2.365  10.263  3.5705  1.5733 -2.7689
  879MOL0     H16024  10.116   2.101  10.423 -4.4185 -3.8751  0.9979
  879MOL0     H16025   9.974   2.195  10.402  0.8609  1.7223  0.7770
  879MOL0     H16026   9.928   2.033  10.026  2.6405 -1.0399 -0.7093
  879MOL0     H16027  10.304   2.768  10.671 -0.3930  1.3056  0.3247
  879MOL0     H16028  10.292   3.017  10.602 -0.4053 -2.9851  3.9097
  880MOL0     O16029   6.818   7.885  10.582  0.4920  0.5511  0.2627
  880MOL0     C16030   6.784   7.920  10.466  0.3937  0.0904 -0.2804
  880MOL0     O16031   6.754   7.842  10.354  0.4639  0.1042 -0.8463
  880MOL0     C16032   6.760   7.701  10.370  0.1724 -0.6337  0.1204
  880MOL0     C16033   6.838   7.618  10.293 -0.0129  1.1041 -1.0361
  880MOL0     C16034   6.842   7.476  10.313 -0.6745  0.2653  0.7395
  880MOL0     C16035   6.765   7.422  10.416 -0.6612 -0.8972 -0.0385
  880MOL0     O16036   6.763   7.290  10.448 -0.3924 -0.2868 -0.9724
  880MOL0     C16037   6.708   7.193  10.363  0.0320  0.9719 -0.4404
  880MOL0     C16038   6.753   7.049  10.395 -0.1751 -0.3641 -0.6033
  880MOL0     C16039   6.892   7.027  10.392  0.4209  0.5411 -0.4767
  880MOL0     C16040   6.913   6.875  10.391  0.3417 -0.1232 -0.0266
  880MOL0     C16041   7.076   6.845  10.403  0.6488  0.5751  0.2204
  880MOL0     C16042   7.098   6.690  10.410  0.9695 -0.2333  0.1842
  880MOL0     C16043   7.250   6.648  10.394  0.1431  0.1997  0.4797
  880MOL0     C16044   7.267   6.496  10.406  0.5845  0.7784  0.3178
  880MOL0     N16045   7.392   6.461  10.339 -0.7130 -0.4511  0.6377
  880MOL0     C16046   7.503   6.444  10.415 -0.0366  0.4060  0.0709
  880MOL0     C16047   7.609   6.452  10.328  0.3030 -0.2250 -0.3794
  880MOL0     C16048   7.750   6.431  10.361  0.5183  0.4496  0.3038
  880MOL0     C16049   7.778   6.282  10.359 -0.6943 -0.9832  1.3436
  880MOL0     C16050   7.926   6.242  10.341 -0.5670 -1.2378 -0.3348
  880MOL0     C16051   8.007   6.285  10.470  0.2475 -0.7255  0.2406
  880MOL0     O16052   8.142   6.230  10.455  0.7291 -0.9148  0.6735
  880MOL0     C16053   8.228   6.243  10.558  0.4508  0.4333 -0.2860
  880MOL0     C16054   8.345   6.176  10.550  0.0329  0.2285  0.0211
  880MOL0     C16055   8.441   6.188  10.642 -0.1029  0.5080  0.7740
  880MOL0     C16056   8.425   6.273  10.758  0.7527 -0.0510 -0.1727
  880MOL0     C16057   8.526   6.269  10.872  0.6890 -0.5957  0.0551
  880MOL0     O16058   8.607   6.167  10.888 -0.0973  0.3545  0.1835
  880MOL0     C16059   8.735   6.189  10.933  0.0625 -0.0728  0.2706
  880MOL0     C16060   8.830   6.249  10.850  0.3872  0.4248 -0.4418
  880MOL0     C16061   8.957   6.273  10.894 -0.3913  0.4044 -0.1052
  880MOL0     C16062   8.998   6.233  11.023 -0.3344  0.3134 -0.0069
  880MOL0     O16063   9.122   6.246  11.071 -1.2647  0.1204  0.5125
  880MOL0     C16064   9.153   6.378  11.108  0.6100 -0.0759  0.5119
  880MOL0     C16065   9.302   6.394  11.117  0.0778 -0.5387 -0.4717
  880MOL0     C16066   9.332   6.538  11.160  0.4504  0.8673  0.5219
  880MOL0     C16067   9.484   6.568  11.164 -0.0284  0.5262 -0.4497
  880MOL0     C16068   9.531   6.709  11.132 -0.0308 -0.7901 -0.1788
  880MOL0     C16069   9.550   6.742  10.984  0.4570 -0.1500  0.1958
  880MOL0     C16070   9.685   6.697  10.922  0.0521  0.2215 -0.2577
  880MOL0     C16071   9.696   6.752  10.776  0.1459  1.0785  0.0655
  880MOL0    Cl16072   9.855   6.695  10.706  0.1372 -0.4729 -0.3344
  880MOL0     C16073   8.900   6.169  11.112 -0.5643 -0.9821  0.8628
  880MOL0     C16074   8.762   6.152  11.057  1.0253  0.2349  1.0373
  880MOL0     O16075   8.524   6.367  10.946 -0.6073  0.0950 -0.0313
  880MOL0     C16076   8.304   6.336  10.770 -0.1291 -0.6870  0.5739
  880MOL0     C16077   8.202   6.326  10.669 -1.1299 -0.2026 -0.2376
  880MOL0     N16078   7.557   6.465  10.197  0.3459  0.1838 -0.4510
  880MOL0     N16079   7.426   6.471  10.211 -0.7232 -0.2497  0.4839
  880MOL0     C16080   6.686   7.506  10.487 -0.0966 -0.4335 -0.0054
  880MOL0     C16081   6.681   7.638  10.468 -0.8855  0.1188 -0.2123
  880MOL0     C16082   6.746   8.070  10.450 -0.9010  0.2189 -0.1041
  880MOL0     C16083   6.716   8.135  10.327 -0.2248  1.0536  0.7829
  880MOL0     C16084   6.658   8.267  10.327  0.2394  0.5068  1.2828
  880MOL0     C16085   6.662   8.343  10.446  0.0010 -0.5187 -0.0266
  880MOL0     O16086   6.619   8.477  10.436 -0.0551  0.3368 -1.2208
  880MOL0     C16087   6.493   8.500  10.508 -0.5553 -0.2181  0.1659
  880MOL0     C16088   6.464   8.644  10.493 -0.7490 -0.4305  0.0385
  880MOL0     C16089   6.558   8.721  10.594 -0.5110  0.0368 -0.6154
  880MOL0     C16090   6.502   8.841  10.657  0.2095 -0.4024  0.1376
  880MOL0     C16091   6.370   8.826  10.728  0.8805  1.1815 -0.0263
  880MOL0     C16092   6.261   8.806  10.778  0.7853  0.7453 -0.4919
  880MOL0     C16093   6.711   8.279  10.563 -0.3269 -0.2282 -0.1167
  880MOL0     C16094   6.747   8.142  10.565  0.5597  0.5212  0.6281
  880MOL0     H16095   6.882   7.671  10.209 -1.5128  1.7167 -1.4616
  880MOL0     H16096   6.887   7.401  10.248 -2.1339 -0.7024  0.8233
  880MOL0     H16097   6.737   7.214  10.260 -1.5672  2.0241 -0.7145
  880MOL0     H16098   6.599   7.194  10.376 -0.2218 -1.5266 -1.7858
  880MOL0     H16099   6.711   6.982  10.320  0.0413  2.3769 -3.4113
  880MOL0     H16100   6.716   7.020  10.494  1.1959 -1.6300 -0.4290
  880MOL0     H16101   6.946   7.075  10.474  1.0460 -0.5205 -0.2502
  880MOL0     H16102   6.943   7.059  10.301  1.5845 -1.4017 -0.5613
  880MOL0     H16103   6.868   6.841  10.485  1.0709 -1.1633 -0.0325
  880MOL0     H16104   6.864   6.825  10.307  1.0234 -2.3245  0.7978
  880MOL0     H16105   7.111   6.895  10.494 -2.7382  0.7835  1.5275
  880MOL0     H16106   7.117   6.896  10.315  1.5268 -0.9031 -0.2811
  880MOL0     H16107   7.032   6.638  10.339 -0.6218  0.5120  1.0607
  880MOL0     H16108   7.067   6.650  10.507  0.3040  0.1207  0.1220
  880MOL0     H16109   7.291   6.688  10.300 -0.2066 -2.7439 -1.0413
  880MOL0     H16110   7.300   6.699  10.477 -1.0225 -1.3425  2.2033
  880MOL0     H16111   7.177   6.461  10.354 -0.7001 -1.1207  3.4733
  880MOL0     H16112   7.260   6.461  10.510 -2.5749  0.6449  0.1725
  880MOL0     H16113   7.510   6.417  10.520  1.4938 -0.1634 -0.1383
  880MOL0     H16114   7.774   6.464  10.462  0.1354  3.0532 -0.3795
  880MOL0     H16115   7.814   6.482  10.289 -0.2929 -1.1176 -1.6511
  880MOL0     H16116   7.734   6.247  10.265  1.3064  1.5468 -0.6678
  880MOL0     H16117   7.733   6.230  10.444  0.3437 -1.9846  1.3090
  880MOL0     H16118   7.936   6.134  10.329  0.7013 -1.0100 -1.5074
  880MOL0     H16119   7.967   6.296  10.255  2.8544 -1.5833  0.9360
  880MOL0     H16120   7.955   6.262  10.563  2.5030 -0.7894  1.5506
  880MOL0     H16121   8.023   6.393  10.468  0.6011 -0.7625 -2.2289
  880MOL0     H16122   8.358   6.100  10.473  0.2171  1.6239 -1.3959
  880MOL0     H16123   8.521   6.114  10.645 -0.2207  0.3611  0.4350
  880MOL0     H16124   8.791   6.263  10.750 -0.8273 -0.2865 -0.0847
  880MOL0     H16125   9.039   6.319  10.840 -0.2117 -0.5125 -0.6256
  880MOL0     H16126   9.108   6.411  11.203 -1.3726 -0.3744 -0.2818
  880MOL0     H16127   9.111   6.432  11.023 -0.4353 -2.7025 -0.7349
  880MOL0     H16128   9.354   6.377  11.023  1.8493  0.8194  0.2087
  880MOL0     H16129   9.347   6.321  11.186  2.5592 -1.3115 -2.7496
  880MOL0     H16130   9.293   6.555  11.260  0.4591  0.4349  0.5998
  880MOL0     H16131   9.285   6.607  11.090 -0.1904  1.6513  1.6973
  880MOL0     H16132   9.517   6.550  11.267  0.3553  1.9771 -0.3004
  880MOL0     H16133   9.538   6.499  11.098 -2.0983 -1.3190 -0.2905
  880MOL0     H16134   9.625   6.730  11.183  0.2228  3.2508 -1.9515
  880MOL0     H16135   9.459   6.784  11.167  2.3880  2.2559 -1.3329
  880MOL0     H16136   9.545   6.851  10.979  0.4685 -0.2001 -1.5956
  880MOL0     H16137   9.458   6.710  10.933 -1.2227  1.9223  1.7497
  880MOL0     H16138   9.771   6.738  10.976  0.5625  1.4160 -1.8770
  880MOL0     H16139   9.694   6.589  10.913  0.3596  0.1883  0.4266
  880MOL0     H16140   9.698   6.861  10.773 -2.5071  1.3758  3.3014
  880MOL0     H16141   9.617   6.720  10.708  1.8054 -0.9723 -1.0182
  880MOL0     H16142   8.938   6.144  11.211 -0.3373 -2.2358  0.4845
  880MOL0     H16143   8.687   6.113  11.126  1.3539 -1.4182  0.5002
  880MOL0     H16144   8.279   6.400  10.854  3.8918  2.2581 -0.1375
  880MOL0     H16145   8.105   6.374  10.677 -1.0833 -0.1968  0.3251
  880MOL0     H16146   6.616   7.467  10.559 -0.9220  2.0243  0.6400
  880MOL0     H16147   6.613   7.699  10.526  1.0536  1.6568  0.5764
  880MOL0     H16148   6.723   8.073  10.238  0.3725  0.4032  1.2761
  880MOL0     H16149   6.635   8.299  10.226  0.0781 -2.6369  0.2069
  880MOL0     H16150   6.494   8.469  10.613 -0.9534  2.4991  1.0413
  880MOL0     H16151   6.429   8.429  10.454  0.8444 -0.9071 -0.6658
  880MOL0     H16152   6.487   8.674  10.390 -1.6580  0.7860  0.1606
  880MOL0     H16153   6.356   8.659  10.502 -1.1589  0.6220 -4.3043
  880MOL0     H16154   6.648   8.762  10.548 -1.5388  1.0822 -1.7845
  880MOL0     H16155   6.588   8.653  10.674  0.5154  1.2993  0.1140
  880MOL0     H16156   6.580   8.888  10.718  0.9899  0.5175 -1.5197
  880MOL0     H16157   6.489   8.915  10.578 -0.7872 -4.4975 -4.0018
  880MOL0     H16158   6.167   8.814  10.828  1.8788 -1.6118  2.2366
  880MOL0     H16159   6.728   8.340  10.651  1.3438  1.0324 -1.2188
  880MOL0     H16160   6.774   8.105  10.664 -1.4418  3.6616  2.5563
  881MOL0     O16161   0.731   3.866   8.425  0.3683 -0.2074  0.6091
  881MOL0     C16162   0.662   3.903   8.323 -1.3314 -0.0616 -0.3054
  881MOL0     O16163   0.655   4.033   8.273  0.4051  0.1858 -0.5665
  881MOL0     C16164   0.726   4.135   8.335  0.1808  0.1815 -1.0440
  881MOL0     C16165   0.695   4.150   8.472 -0.3607  0.4646  0.7858
  881MOL0     C16166   0.761   4.251   8.543 -0.0914 -0.3653 -1.1752
  881MOL0     C16167   0.856   4.332   8.470  1.2956 -0.4631  0.4181
  881MOL0     O16168   0.942   4.423   8.525 -0.8307 -0.4710  0.1031
  881MOL0     C16169   1.014   4.371   8.647 -0.7604 -0.0593  0.0715
  881MOL0     C16170   1.168   4.387   8.616  0.5582  0.3403  0.6047
  881MOL0     C16171   1.213   4.528   8.568  0.4834 -0.6373  0.4908
  881MOL0     C16172   1.354   4.522   8.527 -0.5419 -0.0210 -0.2333
  881MOL0     C16173   1.405   4.651   8.463  0.2102 -0.8711 -0.6814
  881MOL0     C16174   1.438   4.750   8.578  0.6472 -0.3073  0.9900
  881MOL0     C16175   1.486   4.887   8.513  0.2337  0.7915  0.3459
  881MOL0     C16176   1.410   4.938   8.384 -0.0767  0.3376 -0.4476
  881MOL0     N16177   1.477   5.046   8.324  0.1236 -0.0420 -0.4129
  881MOL0     C16178   1.459   5.183   8.364  0.7109  0.8542 -0.4554
  881MOL0     C16179   1.532   5.246   8.271 -0.5271  0.4045 -0.9305
  881MOL0     C16180   1.559   5.391   8.276 -0.3145 -0.7578  0.7273
  881MOL0     C16181   1.459   5.457   8.187 -0.6440 -0.7306  0.3960
  881MOL0     C16182   1.315   5.461   8.241 -0.0854  0.0213 -1.0356
  881MOL0     C16183   1.208   5.480   8.136  0.3217 -0.0965  0.7535
  881MOL0     O16184   1.086   5.459   8.196 -0.8732  0.5285 -0.6539
  881MOL0     C16185   1.027   5.343   8.150  0.0242 -2.1570  0.0888
  881MOL0     C16186   1.015   5.233   8.219 -0.0680  0.7652 -0.6567
  881MOL0     C16187   0.952   5.121   8.176  0.7704  1.4832 -1.0209
  881MOL0     C16188   0.871   5.112   8.063 -0.0541 -0.0708  0.5632
  881MOL0     C16189   0.795   4.986   8.032  0.3625 -0.3739  0.3546
  881MOL0     O16190   0.824   4.869   8.104 -0.1737 -0.5672  0.7788
  881MOL0     C16191   0.739   4.760   8.092 -0.2788 -0.5806  0.5952
  881MOL0     C16192   0.685   4.704   8.210 -0.1999  0.1390 -0.1235
  881MOL0     C16193   0.622   4.584   8.205 -0.6428  0.4779  0.5605
  881MOL0     C16194   0.616   4.513   8.076 -0.1621 -1.1085 -0.2897
  881MOL0     O16195   0.546   4.401   8.050  0.0306 -0.2771  0.1198
  881MOL0     C16196   0.463   4.351   8.157 -0.1964 -0.0028  0.5074
  881MOL0     C16197   0.378   4.246   8.081 -0.3497 -0.1997  0.1566
  881MOL0     C16198   0.298   4.293   7.952  0.5315  0.8473 -0.1181
  881MOL0     C16199   0.218   4.181   7.890 -0.7444 -0.4850 -0.4447
  881MOL0     C16200   0.097   4.125   7.971 -0.0991 -1.1165  0.2692
  881MOL0     C16201  -0.011   4.233   8.022 -0.2505  0.5751  0.9880
  881MOL0     C16202  -0.142   4.173   8.078 -0.4237  0.7280 -0.0495
  881MOL0     C16203  -0.250   4.265   8.118 -0.3139 -0.5559  0.3045
  881MOL0    Cl16204  -0.201   4.356   8.257  0.0464 -0.0075  0.3836
  881MOL0     C16205   0.657   4.576   7.961 -0.5083 -0.6509  0.1487
  881MOL0     C16206   0.720   4.698   7.968 -1.4133  0.4062 -0.2690
  881MOL0     O16207   0.712   4.999   7.936 -0.8562  0.5036  0.5932
  881MOL0     C16208   0.888   5.220   7.981  0.5384  0.2979  0.6786
  881MOL0     C16209   0.967   5.334   8.019  0.3174  0.3333  0.0343
  881MOL0     N16210   1.591   5.155   8.179  0.2369 -0.7314 -0.2440
  881MOL0     N16211   1.564   5.038   8.216  0.0407  0.2372  0.5892
  881MOL0     C16212   0.874   4.320   8.327 -0.1167 -0.0371  0.1409
  881MOL0     C16213   0.809   4.217   8.263  1.1052  0.1369  0.2906
  881MOL0     C16214   0.587   3.803   8.256  0.2467  0.7008 -0.6214
  881MOL0     C16215   0.513   3.848   8.147  0.5879  1.2266  0.1132
  881MOL0     C16216   0.409   3.780   8.087  0.4200  0.0439 -0.1719
  881MOL0     C16217   0.380   3.653   8.134 -0.4861 -0.5156  0.1468
  881MOL0     O16218   0.283   3.590   8.060 -0.1534  0.1962 -0.8864
  881MOL0     C16219   0.149   3.574   8.124 -0.7220 -0.4159 -0.0258
  881MOL0     C16220   0.033   3.559   8.025  0.0775  0.4514  0.0333
  881MOL0     C16221  -0.019   3.690   7.971  0.7866  0.2694  0.3829
  881MOL0     C16222  -0.135   3.747   8.054  0.5807  0.3021  0.6721
  881MOL0     C16223  -0.081   3.806   8.171  0.4528 -0.0334 -0.2270
  881MOL0     C16224  -0.050   3.862   8.274  0.1046  0.0991  0.2180
  881MOL0     C16225   0.449   3.597   8.237  0.0374  0.5009  0.5401
  881MOL0     C16226   0.546   3.669   8.303  0.1461  1.0894 -0.3296
  881MOL0     H16227   0.633   4.074   8.519  2.6424 -1.9340  1.1635
  881MOL0     H16228   0.750   4.256   8.651 -1.3796  0.6188 -1.3159
  881MOL0     H16229   0.998   4.263   8.655  1.6597 -0.4139  0.8970
  881MOL0     H16230   0.982   4.413   8.743 -0.9065 -0.5317  0.2359
  881MOL0     H16231   1.214   4.313   8.549  0.8783  0.8916  0.2134
  881MOL0     H16232   1.213   4.369   8.714  0.3090 -1.5705  0.4219
  881MOL0     H16233   1.211   4.600   8.650  5.6483  1.4034 -0.7680
  881MOL0     H16234   1.147   4.557   8.486  2.4731 -0.7620 -1.2529
  881MOL0     H16235   1.423   4.504   8.610  2.2288  1.9547 -1.9462
  881MOL0     H16236   1.372   4.446   8.449  1.1278  2.0972 -2.0575
  881MOL0     H16237   1.327   4.683   8.393 -1.2781 -1.2075  0.7630
  881MOL0     H16238   1.498   4.640   8.406  0.2626  1.7368 -1.2142
  881MOL0     H16239   1.523   4.703   8.628 -0.9861 -1.5875  2.6838
  881MOL0     H16240   1.346   4.759   8.636 -2.7086  0.5970 -3.7943
  881MOL0     H16241   1.486   4.956   8.597  0.4670  2.3611 -0.8879
  881MOL0     H16242   1.589   4.873   8.477 -0.4916  0.6084 -1.8191
  881MOL0     H16243   1.311   4.976   8.413 -0.1658 -0.1050 -0.1567
  881MOL0     H16244   1.405   4.858   8.310  1.1831 -0.1262 -0.0631
  881MOL0     H16245   1.395   5.227   8.440 -0.4191 -2.4651  0.6881
  881MOL0     H16246   1.656   5.423   8.239  0.4041 -1.1694  2.1949
  881MOL0     H16247   1.549   5.418   8.382  2.4267  1.8416  0.4296
  881MOL0     H16248   1.471   5.408   8.090 -2.8348  1.8772 -1.3271
  881MOL0     H16249   1.504   5.555   8.172  1.4365 -1.9665 -2.2617
  881MOL0     H16250   1.299   5.370   8.299  1.7348 -0.8233 -1.7816
  881MOL0     H16251   1.327   5.542   8.313 -2.6899 -1.9992  1.9550
  881MOL0     H16252   1.227   5.409   8.055  1.8155 -0.8479  1.7073
  881MOL0     H16253   1.207   5.576   8.083 -0.9742 -0.2943  0.3978
  881MOL0     H16254   1.059   5.223   8.317 -1.3115 -2.2961 -0.2705
  881MOL0     H16255   0.940   5.034   8.239 -1.0840  1.9703 -0.6256
  881MOL0     H16256   0.698   4.751   8.307  2.9137  1.1326 -0.8955
  881MOL0     H16257   0.587   4.537   8.296  1.4223  0.8151  1.5668
  881MOL0     H16258   0.393   4.424   8.198  0.3658  1.2633 -0.6998
  881MOL0     H16259   0.518   4.305   8.240  1.9957  1.0283 -0.2843
  881MOL0     H16260   0.298   4.215   8.149 -4.3558 -0.7361 -4.2933
  881MOL0     H16261   0.436   4.157   8.055  0.0711  0.2780 -0.5700
  881MOL0     H16262   0.363   4.302   7.864 -2.5615 -1.5113 -2.9237
  881MOL0     H16263   0.245   4.388   7.966 -2.3428 -0.7685  0.6896
  881MOL0     H16264   0.178   4.214   7.794 -1.2591  0.6553  0.1410
  881MOL0     H16265   0.288   4.099   7.874 -2.0517 -2.1928  1.8822
  881MOL0     H16266   0.127   4.063   8.056 -0.2167 -1.0183  0.3812
  881MOL0     H16267   0.051   4.064   7.892  0.8406 -2.6677  0.8564
  881MOL0     H16268  -0.034   4.301   7.940  0.6614 -3.4602 -3.0460
  881MOL0     H16269   0.034   4.306   8.089 -1.3117  3.3500 -1.1076
  881MOL0     H16270  -0.170   4.101   8.000  1.4541 -4.0211  3.1872
  881MOL0     H16271  -0.120   4.100   8.157 -0.8904  0.7688  0.1213
  881MOL0     H16272  -0.339   4.209   8.148  0.9856 -2.0466  1.5667
  881MOL0     H16273  -0.266   4.329   8.031 -1.0180 -0.5339  0.4518
  881MOL0     H16274   0.656   4.527   7.864  0.2986 -0.6510  0.1348
  881MOL0     H16275   0.782   4.747   7.893 -0.2244 -2.7278 -1.4621
  881MOL0     H16276   0.838   5.220   7.885  1.3449  1.9736  0.2050
  881MOL0     H16277   0.985   5.415   7.948  2.2951 -0.8742 -0.9492
  881MOL0     H16278   0.943   4.392   8.283  2.1112 -0.2195  3.0160
  881MOL0     H16279   0.810   4.203   8.155  2.0472  1.6711  0.0782
  881MOL0     H16280   0.523   3.945   8.097  0.2570  1.3058  0.1974
  881MOL0     H16281   0.343   3.822   8.012 -0.9270  1.6158  1.7907
  881MOL0     H16282   0.133   3.656   8.194  0.0463  0.5469 -0.9416
  881MOL0     H16283   0.153   3.481   8.180 -1.4992 -0.7246 -0.4664
  881MOL0     H16284   0.052   3.484   7.948 -1.1293 -2.2147  2.1461
  881MOL0     H16285  -0.044   3.508   8.085  0.1372 -1.4118 -1.3701
  881MOL0     H16286  -0.063   3.672   7.873  0.9799  0.6481  0.2239
  881MOL0     H16287   0.060   3.763   7.950 -0.0427  0.8900 -0.6418
  881MOL0     H16288  -0.192   3.818   7.993  0.8990  0.2052  0.2594
  881MOL0     H16289  -0.199   3.662   8.079  1.3309 -0.3901  0.2879
  881MOL0     H16290  -0.020   3.913   8.364  2.2949  3.1623 -2.0216
  881MOL0     H16291   0.414   3.498   8.265 -7.1263  1.9591 -1.3871
  881MOL0     H16292   0.594   3.630   8.393  2.2504 -0.0020 -1.8265
  882MOL0     O16293   0.571   4.779   0.035 -0.0192 -0.1402 -0.1678
  882MOL0     C16294   0.559   4.702   0.136  1.2308  0.4891 -0.4202
  882MOL0     O16295   0.663   4.651   0.217 -0.7301  0.2322 -0.0433
  882MOL0     C16296   0.786   4.683   0.167 -1.5284 -0.4182 -0.3973
  882MOL0     C16297   0.846   4.807   0.205  0.5989 -0.7155  0.6703
  882MOL0     C16298   0.982   4.827   0.179  0.6436  0.3026  0.4599
  882MOL0     C16299   1.057   4.723   0.127 -0.4169  0.9762 -0.3073
  882MOL0     O16300   1.194   4.736   0.115 -0.0905 -0.6184  1.1176
  882MOL0     C16301   1.238   4.684  -0.007  0.3590  1.1103  0.1849
  882MOL0     C16302   1.354   4.750  -0.074 -0.5976  1.0224 -0.1432
  882MOL0     C16303   1.457   4.803   0.040 -0.3353  0.5798 -0.1808
  882MOL0     C16304   1.589   4.851  -0.019 -0.3276 -1.0583  0.5585
  882MOL0     C16305   1.669   4.941   0.081  0.3709 -0.1987 -0.2954
  882MOL0     C16306   1.781   5.031   0.022  0.1633  0.0014 -0.5908
  882MOL0     C16307   1.862   5.088   0.144 -0.1496 -0.2243 -0.9599
  882MOL0     C16308   1.969   5.182   0.118 -0.3882  0.5124  0.7378
  882MOL0     N16309   2.066   5.172   0.230  0.5632  1.0035 -0.6626
  882MOL0     C16310   2.050   5.245   0.347 -0.7218 -0.6917  1.2100
  882MOL0     C16311   2.175   5.256   0.401 -0.8283 -1.0067 -0.1678
  882MOL0     C16312   2.218   5.343   0.516 -0.3730 -0.2232 -0.1193
  882MOL0     C16313   2.211   5.501   0.481  0.3887  0.4361 -0.7454
  882MOL0     C16314   2.330   5.583   0.534 -0.5502 -0.2198 -0.1005
  882MOL0     C16315   2.324   5.732   0.487  0.1562  0.1561 -0.3912
  882MOL0     O16316   2.228   5.818   0.555 -0.2299  0.4917 -0.1480
  882MOL0     C16317   2.277   5.886   0.669 -0.7237 -0.1284  0.4334
  882MOL0     C16318   2.327   6.013   0.645 -0.8895  0.7763  0.7706
  882MOL0     C16319   2.369   6.089   0.743 -0.0249 -0.1836 -0.3821
  882MOL0     C16320   2.385   6.039   0.882 -0.6962 -0.0566  0.5551
  882MOL0     C16321   2.450   6.124   0.984  0.0436  0.4476  0.3899
  882MOL0     O16322   2.495   6.072   1.096 -0.0171  0.4505  0.0992
  882MOL0     C16323   2.524   6.143   1.207  0.3627 -0.5258 -1.2268
  882MOL0     C16324   2.636   6.221   1.223 -0.2651 -0.6309  0.9123
  882MOL0     C16325   2.671   6.279   1.340 -1.1754  0.2050 -1.4061
  882MOL0     C16326   2.582   6.277   1.452  0.9972  0.0845  0.3574
  882MOL0     O16327   2.600   6.364   1.561 -0.3075 -0.1148  0.2315
  882MOL0     C16328   2.543   6.339   1.689 -0.1227 -0.5691 -0.2853
  882MOL0     C16329   2.627   6.405   1.797 -0.3561 -0.6413 -0.2007
  882MOL0     C16330   2.756   6.342   1.819 -0.7017  0.3231  0.0502
  882MOL0     C16331   2.824   6.410   1.942 -0.4631  0.1137 -0.1705
  882MOL0     C16332   2.949   6.326   1.961  0.7053 -0.4491  0.1776
  882MOL0     C16333   3.009   6.395   2.085  1.1220 -0.2219  0.7376
  882MOL0     C16334   3.145   6.337   2.107 -0.7328  0.5799 -0.2113
  882MOL0     C16335   3.141   6.219   2.208 -0.7871  0.2594  0.4054
  882MOL0    Cl16336   3.300   6.146   2.229 -0.0894  0.1512  0.2607
  882MOL0     C16337   2.477   6.182   1.451 -0.5903 -1.2531  0.5256
  882MOL0     C16338   2.444   6.120   1.325  0.1543  0.3264  0.4575
  882MOL0     O16339   2.459   6.241   0.959 -0.0515  0.1497  0.4181
  882MOL0     C16340   2.345   5.911   0.899 -0.5000 -0.1990 -0.1562
  882MOL0     C16341   2.285   5.832   0.797  0.1733  0.6275  0.2787
  882MOL0     N16342   2.262   5.188   0.316  0.9335 -0.2875 -0.9298
  882MOL0     N16343   2.191   5.150   0.215  0.5710  0.3220  0.1581
  882MOL0     C16344   1.002   4.599   0.095  0.1114  0.4304  0.5060
  882MOL0     C16345   0.862   4.579   0.108 -0.8849 -0.0078 -0.5646
  882MOL0     C16346   0.418   4.655   0.170  0.4175 -0.7254  0.3228
  882MOL0     C16347   0.301   4.699   0.102 -1.0978 -0.1161  0.0605
  882MOL0     C16348   0.178   4.648   0.142  0.5969 -0.1301  0.3987
  882MOL0     C16349   0.156   4.554   0.238 -0.2734 -1.0532  0.2258
  882MOL0     O16350   0.035   4.499   0.247  0.3242  0.0806  0.6382
  882MOL0     C16351   0.038   4.362   0.289  0.2304  0.1846 -0.9632
  882MOL0     C16352   0.003   4.330   0.437 -0.2901 -0.2967 -0.5711
  882MOL0     C16353  -0.148   4.345   0.471  0.4254  0.0442  0.3161
  882MOL0     C16354  -0.173   4.310   0.616 -0.8598 -0.2532  0.4984
  882MOL0     C16355  -0.312   4.279   0.632  0.9707  0.3702 -0.1156
  882MOL0     C16356  -0.433   4.246   0.649 -1.0610 -0.2682  0.0331
  882MOL0     C16357   0.269   4.514   0.302 -0.2550  0.9209 -0.2146
  882MOL0     C16358   0.397   4.561   0.278  0.6112  0.1514  0.5361
  882MOL0     H16359   0.787   4.885   0.251  0.8447 -1.7124  2.8010
  882MOL0     H16360   1.020   4.928   0.192 -0.2403  1.3720 -3.7263
  882MOL0     H16361   1.155   4.681  -0.078  1.1456  0.9187 -0.7511
  882MOL0     H16362   1.259   4.582   0.027  1.2044  0.7851 -1.2202
  882MOL0     H16363   1.322   4.838  -0.132 -0.3796 -0.0472 -1.9804
  882MOL0     H16364   1.415   4.685  -0.137  0.4020  2.8394 -1.1532
  882MOL0     H16365   1.476   4.719   0.107 -1.5431  1.7255  1.6948
  882MOL0     H16366   1.417   4.883   0.104 -0.3083 -2.0083  3.3691
  882MOL0     H16367   1.652   4.764  -0.036  0.3079 -0.7205  1.1226
  882MOL0     H16368   1.580   4.910  -0.110 -1.1927 -1.0847  0.6129
  882MOL0     H16369   1.707   4.870   0.155 -3.9745  1.7169  4.4387
  882MOL0     H16370   1.595   5.008   0.126  1.5001  0.0794  1.2065
  882MOL0     H16371   1.745   5.118  -0.033  2.2192  3.2060  2.6755
  882MOL0     H16372   1.843   4.967  -0.041  0.4997 -0.6489  0.3714
  882MOL0     H16373   1.792   5.137   0.213  1.0906  0.0485  0.1575
  882MOL0     H16374   1.907   5.008   0.204 -0.1970  1.0845  0.9344
  882MOL0     H16375   1.943   5.287   0.102 -3.4510 -0.0582  1.4091
  882MOL0     H16376   2.029   5.147   0.033  0.9540  0.6591  1.5987
  882MOL0     H16377   1.961   5.284   0.395 -1.6577 -1.2330 -0.0177
  882MOL0     H16378   2.323   5.330   0.542  0.6893  3.0785 -2.1605
  882MOL0     H16379   2.155   5.313   0.601  0.4530 -1.7733 -0.0173
  882MOL0     H16380   2.120   5.547   0.523 -0.3041 -0.4946 -1.1855
  882MOL0     H16381   2.187   5.516   0.375 -1.4185  1.5464 -0.2227
  882MOL0     H16382   2.339   5.588   0.642 -3.6386 -0.8552  0.2748
  882MOL0     H16383   2.424   5.544   0.494 -0.0843  0.9654 -0.1991
  882MOL0     H16384   2.305   5.743   0.380 -0.2174  0.3048 -0.3110
  882MOL0     H16385   2.413   5.786   0.521 -3.3981  5.0885  2.3696
  882MOL0     H16386   2.313   6.061   0.548  1.4298  2.8894  1.3901
  882MOL0     H16387   2.392   6.188   0.706 -0.7581 -0.0702 -0.5515
  882MOL0     H16388   2.700   6.243   1.138  1.2287 -4.0033  0.9939
  882MOL0     H16389   2.757   6.345   1.337 -0.6389 -0.5103 -2.3518
  882MOL0     H16390   2.535   6.233   1.712 -1.9355 -0.0574  1.8067
  882MOL0     H16391   2.442   6.380   1.697  0.4211  1.2821 -1.9106
  882MOL0     H16392   2.567   6.410   1.889  0.8190 -1.3305  0.6288
  882MOL0     H16393   2.656   6.508   1.774  1.1853 -0.5036  2.0137
  882MOL0     H16394   2.817   6.343   1.728  0.0572 -1.5104  0.5037
  882MOL0     H16395   2.735   6.237   1.839  2.3469  0.1531  3.3216
  882MOL0     H16396   2.832   6.516   1.917 -2.0059  0.1583 -0.6025
  882MOL0     H16397   2.761   6.422   2.030  0.0628 -3.5957  0.8844
  882MOL0     H16398   3.011   6.331   1.871  2.4241 -0.3867  1.3094
  882MOL0     H16399   2.916   6.225   1.987 -0.7788  0.6331  3.0165
  882MOL0     H16400   2.937   6.392   2.168  0.4918  1.8036  0.3117
  882MOL0     H16401   3.033   6.498   2.057  2.6543 -1.1095 -1.4418
  882MOL0     H16402   3.174   6.293   2.011  1.4563  2.8279 -0.6981
  882MOL0     H16403   3.225   6.410   2.126 -0.1537  0.2030 -1.1515
  882MOL0     H16404   3.078   6.143   2.161  1.2245 -1.0810 -0.2545
  882MOL0     H16405   3.106   6.239   2.309  0.8539  0.5635  0.9403
  882MOL0     H16406   2.413   6.167   1.537 -0.9803 -0.2526  0.4192
  882MOL0     H16407   2.357   6.057   1.313  1.3221 -1.2405 -0.0378
  882MOL0     H16408   2.369   5.854   0.988 -1.9080  1.8079  1.6085
  882MOL0     H16409   2.238   5.736   0.814 -3.7306  2.4494  0.9013
  882MOL0     H16410   1.069   4.517   0.072 -2.9491 -2.0455 -0.3248
  882MOL0     H16411   0.824   4.479   0.089  1.4190 -1.6743  2.6004
  882MOL0     H16412   0.304   4.763   0.014  4.4598 -2.7500 -2.2063
  882MOL0     H16413   0.090   4.697   0.101 -0.1368 -0.0205  2.0579
  882MOL0     H16414   0.140   4.327   0.273  0.6043  0.3277  0.8350
  882MOL0     H16415  -0.030   4.309   0.222 -0.8091 -0.1453  0.3180
  882MOL0     H16416   0.032   4.229   0.465  2.7695  0.9265  1.2280
  882MOL0     H16417   0.050   4.407   0.500 -0.9932  1.9093 -2.5691
  882MOL0     H16418  -0.212   4.289   0.402  2.3814 -0.4042 -1.2472
  882MOL0     H16419  -0.177   4.449   0.450  1.5870  0.6677  1.6645
  882MOL0     H16420  -0.104   4.235   0.655 -0.0632  0.1014 -0.1988
  882MOL0     H16421  -0.153   4.400   0.676 -4.2224 -0.5771  2.3602
  882MOL0     H16422  -0.538   4.250   0.668 -0.9111  0.2484  0.8380
  882MOL0     H16423   0.270   4.435   0.376 -0.0639  0.6101 -0.5481
  882MOL0     H16424   0.480   4.525   0.337  0.0416 -1.1374  0.5890
  883MOL0     O16425   1.626   0.192   4.735 -0.0462  0.6242  0.5617
  883MOL0     C16426   1.650   0.098   4.809  0.3770 -0.0338 -0.3437
  883MOL0     O16427   1.566   0.057   4.910  0.2318  0.1803 -0.0236
  883MOL0     C16428   1.444   0.122   4.930  0.3950  0.0221 -0.3552
  883MOL0     C16429   1.326   0.046   4.945  0.3014 -0.9604 -0.3384
  883MOL0     C16430   1.207   0.119   4.954  0.6130  1.0795  0.3047
  883MOL0     C16431   1.197   0.256   4.955  0.1389  0.2931  0.4163
  883MOL0     O16432   1.073   0.313   4.970  0.9774  0.9181 -0.1840
  883MOL0     C16433   1.069   0.399   5.091 -0.7174 -0.2150 -0.4362
  883MOL0     C16434   1.091   0.321   5.225  0.2175  0.6767  0.3250
  883MOL0     C16435   1.007   0.195   5.237  0.3398 -0.9724 -0.0338
  883MOL0     C16436   1.022   0.134   5.381 -0.1747  0.0862  0.6808
  883MOL0     C16437   0.917   0.046   5.436 -0.3898  0.3167  0.3791
  883MOL0     C16438   0.798   0.136   5.489 -0.1961  0.7650 -0.6809
  883MOL0     C16439   0.698   0.056   5.569 -0.6921  0.1702 -1.0542
  883MOL0     C16440   0.741  -0.002   5.707 -0.0020  0.0168 -0.0409
  883MOL0     N16441   0.797   0.111   5.784 -0.0215 -0.2440  0.0006
  883MOL0     C16442   0.925   0.134   5.828 -0.8686 -1.1329  0.4912
  883MOL0     C16443   0.927   0.235   5.912  0.4361  0.1715 -0.3545
  883MOL0     C16444   1.044   0.300   5.981  0.6527  0.1667 -0.1614
  883MOL0     C16445   1.079   0.431   5.926 -1.0235 -0.3253 -0.1081
  883MOL0     C16446   1.205   0.423   5.846 -0.4340 -0.6864  1.5160
  883MOL0     C16447   1.332   0.367   5.912  0.7112  0.1703 -0.4355
  883MOL0     O16448   1.349   0.399   6.056 -0.0414 -0.0057 -0.1905
  883MOL0     C16449   1.377   0.290   6.127 -1.5148  0.1068 -0.7530
  883MOL0     C16450   1.477   0.191   6.092  0.3350 -0.2789  0.5269
  883MOL0     C16451   1.501   0.073   6.163 -0.6788 -0.0279 -0.8266
  883MOL0     C16452   1.426   0.051   6.279 -0.5934 -0.1674  0.4912
  883MOL0     C16453   1.435  -0.081   6.345  0.3306 -1.2058 -0.4210
  883MOL0     O16454   1.524  -0.163   6.307 -0.5089  0.2512 -0.7750
  883MOL0     C16455   1.526  -0.293   6.362 -0.4576  0.4420  2.0502
  883MOL0     C16456   1.642  -0.343   6.423  0.0130  0.7499 -0.0247
  883MOL0     C16457   1.639  -0.463   6.495 -0.0063 -0.1215 -0.8975
  883MOL0     C16458   1.531  -0.549   6.483 -0.3879  0.3312 -0.1910
  883MOL0     O16459   1.519  -0.669   6.551  0.0022 -0.0922 -1.3635
  883MOL0     C16460   1.600  -0.672   6.676  1.2908  0.0675  0.0567
  883MOL0     C16461   1.551  -0.800   6.755  0.5549 -0.4837  0.0618
  883MOL0     C16462   1.446  -0.770   6.861 -0.0312 -0.5904  0.0092
  883MOL0     C16463   1.520  -0.703   6.980 -0.3963 -0.0007 -0.6690
  883MOL0     C16464   1.422  -0.672   7.094 -0.3032  0.0859  0.6941
  883MOL0     C16465   1.500  -0.628   7.215 -0.6451 -0.5747  0.3321
  883MOL0     C16466   1.564  -0.746   7.296  0.0276  0.2267  0.7658
  883MOL0     C16467   1.468  -0.828   7.386 -0.5957 -0.4791 -0.9264
  883MOL0    Cl16468   1.563  -0.941   7.496  0.4942 -0.0767  0.3210
  883MOL0     C16469   1.421  -0.515   6.405  0.3178  0.3170  0.2182
  883MOL0     C16470   1.416  -0.380   6.347 -0.1367 -0.3953 -0.0079
  883MOL0     O16471   1.356  -0.108   6.428  0.4107  0.3584 -0.6385
  883MOL0     C16472   1.337   0.151   6.323  0.6273 -0.2952 -0.1179
  883MOL0     C16473   1.308   0.265   6.244 -0.3722 -0.2787  0.0409
  883MOL0     N16474   0.795   0.270   5.931  0.1768 -0.3670 -0.7780
  883MOL0     N16475   0.718   0.200   5.854 -0.1464  0.0307 -0.5148
  883MOL0     C16476   1.306   0.325   4.945 -0.6665  0.3881 -0.1439
  883MOL0     C16477   1.434   0.265   4.933  0.1238 -0.2164 -0.5241
  883MOL0     C16478   1.762   0.007   4.787 -1.1060  0.3886 -0.4329
  883MOL0     C16479   1.869   0.033   4.708  0.1428 -1.3638  0.0500
  883MOL0     C16480   1.970  -0.055   4.679  0.6561  0.4783  0.1970
  883MOL0     C16481   1.956  -0.191   4.709  0.4716  0.5923  0.0885
  883MOL0     O16482   2.050  -0.281   4.652  0.5610  0.4581  0.4858
  883MOL0     C16483   2.029  -0.420   4.682  0.0181  0.5279 -0.6582
  883MOL0     C16484   1.929  -0.498   4.600 -0.0706  0.6509 -0.6270
  883MOL0     C16485   1.950  -0.455   4.457  0.2789 -0.2751  0.2607
  883MOL0     C16486   1.897  -0.559   4.357  0.8616 -0.4724 -0.7872
  883MOL0     C16487   1.870  -0.522   4.219  0.8819  0.4215 -0.1708
  883MOL0     C16488   1.845  -0.498   4.100 -0.3481  0.0959 -0.2547
  883MOL0     C16489   1.844  -0.228   4.787 -0.8011 -1.1538 -0.1894
  883MOL0     C16490   1.759  -0.130   4.837  0.7648 -0.1913  0.2732
  883MOL0     H16491   1.343  -0.061   4.939 -0.6329 -1.1729  0.5099
  883MOL0     H16492   1.114   0.063   4.953  0.1482  1.7997  1.8250
  883MOL0     H16493   0.970   0.445   5.100 -0.6338 -0.1005 -0.1046
  883MOL0     H16494   1.147   0.476   5.089  0.3088 -1.1937  0.5147
  883MOL0     H16495   1.063   0.402   5.293 -0.0411  3.1426 -2.4947
  883MOL0     H16496   1.196   0.293   5.228  0.1447  0.4835  2.0453
  883MOL0     H16497   1.053   0.131   5.161 -2.2430 -1.9468 -0.8575
  883MOL0     H16498   0.906   0.215   5.202  0.1038  1.8743  1.9250
  883MOL0     H16499   1.114   0.076   5.373 -0.7644 -1.2211  2.5542
  883MOL0     H16500   1.033   0.217   5.451  0.9104  1.0622 -0.6090
  883MOL0     H16501   0.961  -0.003   5.524  0.2548 -0.3374 -0.2968
  883MOL0     H16502   0.889  -0.030   5.364  2.4744  0.2423 -0.7844
  883MOL0     H16503   0.748   0.170   5.398  0.8426 -2.3768 -2.6006
  883MOL0     H16504   0.842   0.218   5.547  1.3036  0.1631 -0.9310
  883MOL0     H16505   0.623   0.130   5.599  0.3911  0.1209  2.1905
  883MOL0     H16506   0.653  -0.018   5.502  1.6263  0.2000 -2.7420
  883MOL0     H16507   0.810  -0.086   5.703 -0.1994 -0.1197 -0.6578
  883MOL0     H16508   0.652  -0.033   5.763 -0.3886 -1.8096 -1.5884
  883MOL0     H16509   1.018   0.086   5.801 -2.0515 -3.8956  1.0073
  883MOL0     H16510   1.129   0.234   5.963  4.0332  3.4316  2.3302
  883MOL0     H16511   1.017   0.300   6.087 -0.5130  1.7363 -0.4210
  883MOL0     H16512   1.077   0.498   6.013  2.0360 -2.2818  1.6575
  883MOL0     H16513   1.006   0.474   5.857  0.5818 -1.5291 -2.7188
  883MOL0     H16514   1.194   0.361   5.756  2.5212  0.8095  0.0087
  883MOL0     H16515   1.225   0.525   5.813 -1.0892  0.1027  3.4126
  883MOL0     H16516   1.418   0.418   5.868  1.2989  2.3305  2.8449
  883MOL0     H16517   1.328   0.260   5.892  2.1967 -0.0141  0.1311
  883MOL0     H16518   1.531   0.197   5.999  1.4701  2.3902  1.2585
  883MOL0     H16519   1.575   0.003   6.123  0.3735  0.0373  0.8875
  883MOL0     H16520   1.730  -0.282   6.440  1.1512 -0.3667 -1.6246
  883MOL0     H16521   1.730  -0.486   6.549 -1.3822  1.5446  2.4582
  883MOL0     H16522   1.599  -0.579   6.734  0.7049  2.3626 -3.3233
  883MOL0     H16523   1.697  -0.705   6.639  0.1883 -2.3093 -0.8962
  883MOL0     H16524   1.629  -0.855   6.808  1.7748 -0.0830 -1.2424
  883MOL0     H16525   1.510  -0.867   6.679  1.7782 -1.9338  0.6325
  883MOL0     H16526   1.396  -0.857   6.904  2.0331 -0.2967  3.3525
  883MOL0     H16527   1.371  -0.701   6.820  0.0831  0.1875  1.0486
  883MOL0     H16528   1.602  -0.766   7.017  0.4819  0.5730 -1.5910
  883MOL0     H16529   1.562  -0.610   6.940  0.3404  0.5453  1.2411
  883MOL0     H16530   1.359  -0.760   7.112  0.7168  0.0520  5.0108
  883MOL0     H16531   1.364  -0.591   7.050  0.9607 -0.0906 -1.4345
  883MOL0     H16532   1.433  -0.571   7.280  0.0938  0.9686 -0.2039
  883MOL0     H16533   1.585  -0.566   7.186  1.0888 -1.8074  2.4895
  883MOL0     H16534   1.627  -0.803   7.226 -1.6296  1.1951 -1.6664
  883MOL0     H16535   1.614  -0.677   7.364  0.3659 -0.0315  0.7817
  883MOL0     H16536   1.389  -0.880   7.331 -0.2798 -1.8393 -0.1280
  883MOL0     H16537   1.423  -0.757   7.456 -0.9342 -2.6164  1.1248
  883MOL0     H16538   1.333  -0.578   6.414  0.1185  0.7358  1.2821
  883MOL0     H16539   1.323  -0.354   6.297  0.5936 -2.3237 -2.5849
  883MOL0     H16540   1.263   0.140   6.402 -2.5159 -2.3140 -3.0606
  883MOL0     H16541   1.244   0.345   6.277 -0.4505 -1.1024  2.0300
  883MOL0     H16542   1.321   0.432   4.944  1.3603  0.1484 -2.0048
  883MOL0     H16543   1.529   0.316   4.923 -0.3355  0.8260  0.3680
  883MOL0     H16544   1.890   0.135   4.678 -0.6146 -0.5632  2.0521
  883MOL0     H16545   2.050  -0.022   4.613 -1.5918  6.7016 -0.0404
  883MOL0     H16546   2.010  -0.436   4.789  1.3018 -0.5109 -0.5534
  883MOL0     H16547   2.129  -0.464   4.669  0.3063  0.6635  0.8617
  883MOL0     H16548   1.951  -0.605   4.605 -0.6614  0.3971 -2.4029
  883MOL0     H16549   1.826  -0.489   4.635  0.6469 -0.2874  1.8991
  883MOL0     H16550   2.058  -0.445   4.439  0.2148 -0.1945 -0.1029
  883MOL0     H16551   1.901  -0.359   4.441  3.2952  1.2255 -0.7178
  883MOL0     H16552   1.964  -0.645   4.361  1.1074 -0.3774 -2.3818
  883MOL0     H16553   1.801  -0.586   4.402  0.9424  1.5099  0.7297
  883MOL0     H16554   1.830  -0.480   3.996 -1.0653  0.8612 -0.0271
  883MOL0     H16555   1.833  -0.332   4.815  0.3443 -0.2780  4.3499
  883MOL0     H16556   1.678  -0.166   4.899  2.0666 -5.1218 -0.5056
  884MOL0     O16557   1.713   1.453   8.121  0.3179 -0.1476 -0.2305
  884MOL0     C16558   1.754   1.429   8.012  0.0209  0.4143 -0.4550
  884MOL0     O16559   1.773   1.309   7.962  0.4249 -0.3684  0.6534
  884MOL0     C16560   1.764   1.189   8.029 -0.1890 -0.5062  0.1603
  884MOL0     C16561   1.828   1.082   7.969 -0.4149  0.6462  0.1973
  884MOL0     C16562   1.816   0.954   8.027 -0.8308  0.4259  0.8854
  884MOL0     C16563   1.740   0.926   8.139  0.1636 -0.4855 -0.5770
  884MOL0     O16564   1.738   0.800   8.198 -0.2260  0.6045 -0.3988
  884MOL0     C16565   1.873   0.745   8.203  0.2795  0.5132 -0.1437
  884MOL0     C16566   1.874   0.615   8.280  0.0532  0.0931  0.3078
  884MOL0     C16567   1.748   0.525   8.256  0.2394  0.4486 -0.1592
  884MOL0     C16568   1.757   0.458   8.121 -0.6433  0.5117 -0.0557
  884MOL0     C16569   1.652   0.352   8.104  0.3021  0.4136 -0.0538
  884MOL0     C16570   1.672   0.285   7.965  0.7557  1.0223 -0.2258
  884MOL0     C16571   1.548   0.207   7.925  0.4917  0.0122 -0.4873
  884MOL0     C16572   1.577   0.121   7.804 -0.0592 -0.3222 -1.6386
  884MOL0     N16573   1.461   0.129   7.703 -0.2781  0.8485 -0.4044
  884MOL0     C16574   1.351   0.038   7.690 -0.5460  0.0884 -0.0006
  884MOL0     C16575   1.281   0.084   7.591 -0.3666  0.2029 -0.9406
  884MOL0     C16576   1.148   0.034   7.549  0.1118  0.3069 -0.0796
  884MOL0     C16577   1.020   0.068   7.637 -0.9183  0.8250 -0.7332
  884MOL0     C16578   0.995  -0.026   7.755  0.0331  0.3666 -0.4961
  884MOL0     C16579   0.861   0.014   7.829 -1.2927 -0.1156  0.3699
  884MOL0     O16580   0.893  -0.010   7.964  0.0727 -0.1954 -0.0673
  884MOL0     C16581   0.804   0.026   8.071 -0.9693  0.5259  0.1355
  884MOL0     C16582   0.862   0.050   8.192  0.4610  0.1008 -0.1655
  884MOL0     C16583   0.780   0.071   8.303 -0.6853  0.3193 -0.0961
  884MOL0     C16584   0.637   0.070   8.293 -0.0826  0.1259  0.5228
  884MOL0     C16585   0.554   0.088   8.411  0.5323 -0.4265 -0.2591
  884MOL0     O16586   0.598   0.040   8.530  0.5592 -0.0370  0.6351
  884MOL0     C16587   0.535   0.079   8.644  0.3788 -0.0320 -0.7296
  884MOL0     C16588   0.590   0.165   8.744 -0.8855  0.1400 -0.4008
  884MOL0     C16589   0.508   0.203   8.855 -0.8452 -0.5979 -0.2665
  884MOL0     C16590   0.373   0.168   8.866 -0.4742  0.7522  0.3982
  884MOL0     O16591   0.311   0.216   8.980  0.4950  0.4994 -0.6138
  884MOL0     C16592   0.180   0.155   9.009 -0.3032  0.9062  0.0256
  884MOL0     C16593   0.122   0.221   9.146  0.2890  0.2208 -0.8063
  884MOL0     C16594   0.202   0.184   9.272  0.5296  0.5502 -0.0610
  884MOL0     C16595   0.147   0.256   9.390  0.3674 -0.3329  0.1247
  884MOL0     C16596   0.215   0.231   9.527 -0.6935  0.0642 -0.6544
  884MOL0     C16597   0.369   0.244   9.527  0.1088  0.4648 -0.3444
  884MOL0     C16598   0.427   0.205   9.673 -0.0306  0.4368 -0.0471
  884MOL0     C16599   0.572   0.167   9.671  0.6272  0.5627 -0.6392
  884MOL0    Cl16600   0.661   0.318   9.627 -0.3750  0.3234  0.0213
  884MOL0     C16601   0.320   0.081   8.768 -0.5960  0.1581  0.2349
  884MOL0     C16602   0.397   0.039   8.659 -0.4621  0.4483 -0.4805
  884MOL0     O16603   0.458   0.169   8.394  0.6662  0.3445  0.6506
  884MOL0     C16604   0.587   0.072   8.161  0.2166  0.0707 -0.1630
  884MOL0     C16605   0.674   0.050   8.055  0.1738  0.2650 -0.6504
  884MOL0     N16606   1.334   0.197   7.540  0.6547 -0.0679  1.0363
  884MOL0     N16607   1.448   0.219   7.598 -0.4032  0.5886 -0.4154
  884MOL0     C16608   1.671   1.033   8.197 -0.0427  0.3759  1.1666
  884MOL0     C16609   1.679   1.164   8.145 -1.1780  1.2201  0.2161
  884MOL0     C16610   1.817   1.546   7.945 -0.1093  0.3060 -0.2433
  884MOL0     C16611   1.922   1.532   7.856 -0.9123 -0.4579 -0.4779
  884MOL0     C16612   1.974   1.646   7.796 -0.3144  0.0588 -0.2651
  884MOL0     C16613   1.935   1.780   7.828 -0.4473  0.9471 -0.0140
  884MOL0     O16614   2.007   1.883   7.787 -0.9209  0.1049 -0.8495
  884MOL0     C16615   2.130   1.898   7.867  0.1265  0.1537 -0.4405
  884MOL0     C16616   2.241   1.977   7.786 -1.2091  0.5073 -0.9469
  884MOL0     C16617   2.200   2.118   7.758 -0.1876 -0.5107  0.1852
  884MOL0     C16618   2.289   2.183   7.651 -0.0853 -0.5823  0.9089
  884MOL0     C16619   2.410   2.234   7.699 -0.0549  0.0745 -0.1293
  884MOL0     C16620   2.522   2.270   7.741  0.5252  0.1138 -0.2548
  884MOL0     C16621   1.822   1.787   7.918 -0.5119 -0.6504  0.2333
  884MOL0     C16622   1.761   1.675   7.967  0.3414  0.3229 -0.3935
  884MOL0     H16623   1.884   1.100   7.877  0.1550 -1.8188 -0.0070
  884MOL0     H16624   1.886   0.883   7.984 -0.3135  0.7777  1.1409
  884MOL0     H16625   1.934   0.815   8.261  0.1385  0.3784  0.1711
  884MOL0     H16626   1.908   0.722   8.102 -0.8812 -2.2761 -0.0151
  884MOL0     H16627   1.887   0.636   8.386  0.6518 -2.4534  0.8101
  884MOL0     H16628   1.962   0.559   8.246 -2.6796 -2.5309 -3.3842
  884MOL0     H16629   1.653   0.580   8.263  1.4379  2.4232  4.2183
  884MOL0     H16630   1.750   0.443   8.329 -0.9519  0.6561  0.1271
  884MOL0     H16631   1.748   0.534   8.043 -0.7577  1.1818  0.6002
  884MOL0     H16632   1.853   0.406   8.108 -0.0926  0.5182  3.2203
  884MOL0     H16633   1.555   0.401   8.090 -1.1767 -2.7552 -2.0573
  884MOL0     H16634   1.635   0.270   8.174 -3.9069  2.1330  1.2529
  884MOL0     H16635   1.753   0.213   7.978  0.5545  0.5171 -1.5835
  884MOL0     H16636   1.689   0.366   7.893 -2.6997  3.3186  1.2822
  884MOL0     H16637   1.505   0.154   8.011 -1.7397  2.3472 -0.0528
  884MOL0     H16638   1.471   0.275   7.888 -0.8658 -2.0651 -1.7069
  884MOL0     H16639   1.586   0.015   7.828 -0.8425  0.2053  1.2643
  884MOL0     H16640   1.669   0.150   7.752  1.9133  0.4772  1.9889
  884MOL0     H16641   1.330  -0.044   7.758  0.0209  1.3023  1.7030
  884MOL0     H16642   1.154  -0.075   7.539  0.5237  0.1466  1.5658
  884MOL0     H16643   1.123   0.080   7.453 -3.3239 -0.4008  0.3476
  884MOL0     H16644   0.932   0.060   7.573  0.1156  0.7072 -2.1929
  884MOL0     H16645   1.025   0.173   7.667 -0.6337  0.4453  0.6218
  884MOL0     H16646   0.992  -0.128   7.715  0.2525  0.4947 -0.8532
  884MOL0     H16647   1.078  -0.019   7.826 -0.4167  1.8005 -0.0780
  884MOL0     H16648   0.791  -0.059   7.788 -0.5693  0.0874 -1.3029
  884MOL0     H16649   0.831   0.117   7.810 -1.5929 -0.2471  0.1288
  884MOL0     H16650   0.969   0.035   8.202  0.3374 -0.3393  0.4747
  884MOL0     H16651   0.830   0.089   8.397 -1.2270 -2.7733  0.9166
  884MOL0     H16652   0.690   0.200   8.722 -1.0579  1.5867  0.9083
  884MOL0     H16653   0.546   0.263   8.937 -0.2083 -2.7816  1.1312
  884MOL0     H16654   0.200   0.048   9.021  2.0339  1.4893  2.4984
  884MOL0     H16655   0.112   0.178   8.927 -1.0136  2.0059  0.8857
  884MOL0     H16656   0.018   0.188   9.159  0.6956 -0.9324 -0.4116
  884MOL0     H16657   0.144   0.327   9.129  2.1145  0.1237  0.6619
  884MOL0     H16658   0.307   0.209   9.252 -0.4479  3.9454 -1.5346
  884MOL0     H16659   0.190   0.076   9.287  0.0849  0.3455 -1.7338
  884MOL0     H16660   0.142   0.363   9.370 -0.9673  0.0158  2.0120
  884MOL0     H16661   0.045   0.216   9.393  0.0432  0.1995 -2.2776
  884MOL0     H16662   0.190   0.126   9.539  0.4088 -0.4850 -2.5687
  884MOL0     H16663   0.160   0.292   9.599  2.7013  1.0326  1.3544
  884MOL0     H16664   0.397   0.344   9.491  1.9773 -0.4258 -1.5420
  884MOL0     H16665   0.413   0.170   9.460  0.5208  0.9471 -0.6188
  884MOL0     H16666   0.414   0.288   9.744 -1.9596  1.9701 -2.0638
  884MOL0     H16667   0.373   0.114   9.703 -0.5583  0.4709 -0.8679
  884MOL0     H16668   0.593   0.093   9.593  1.8199 -3.1834  2.8626
  884MOL0     H16669   0.610   0.127   9.765  2.0420  0.9636 -1.0141
  884MOL0     H16670   0.219   0.043   8.781 -0.7477  1.2743  2.9438
  884MOL0     H16671   0.361  -0.030   8.583  2.1506 -1.3314 -0.2250
  884MOL0     H16672   0.480   0.089   8.146  0.5357  0.0288 -2.8708
  884MOL0     H16673   0.630   0.043   7.956 -2.3725 -2.8734  0.5161
  884MOL0     H16674   1.622   1.028   8.294  0.9318  1.5614  1.7556
  884MOL0     H16675   1.606   1.229   8.194 -2.2876 -0.6722  1.1928
  884MOL0     H16676   1.969   1.438   7.831 -0.6672 -0.9063  1.5360
  884MOL0     H16677   2.059   1.649   7.728 -1.1166 -1.0946 -1.3824
  884MOL0     H16678   2.187   1.810   7.896 -0.9668 -0.9222 -1.4538
  884MOL0     H16679   2.115   1.952   7.961  0.5956  0.2873 -0.4425
  884MOL0     H16680   2.331   1.985   7.849  0.0513  1.6882 -2.7943
  884MOL0     H16681   2.269   1.926   7.694 -0.4283 -0.2931 -0.2797
  884MOL0     H16682   2.203   2.175   7.852  2.6814 -0.2959  0.0478
  884MOL0     H16683   2.099   2.105   7.719  0.8065 -0.6453 -2.5242
  884MOL0     H16684   2.316   2.118   7.567  0.9863  0.6132  0.2838
  884MOL0     H16685   2.243   2.267   7.598  0.8403 -0.4940  0.1959
  884MOL0     H16686   2.612   2.312   7.782 -0.4726  1.0504  1.0823
  884MOL0     H16687   1.778   1.886   7.926 -0.7145 -0.5068 -1.9892
  884MOL0     H16688   1.668   1.671   8.023  0.7205  0.2010  0.2463
  885MOL0     O16689   3.669  10.792   9.946 -0.4819 -0.4520 -0.1723
  885MOL0     C16690   3.747  10.848  10.024 -0.5191 -0.4420  0.1062
  885MOL0     O16691   3.849  10.938   9.989 -0.3525  1.1121 -0.0630
  885MOL0     C16692   3.869  10.974   9.857 -0.1942  0.3654 -0.5703
  885MOL0     C16693   3.898  11.102   9.831  0.8321 -0.0289 -0.5817
  885MOL0     C16694   3.935  11.143   9.699 -0.2213 -1.0391 -0.0818
  885MOL0     C16695   3.926  11.057   9.592 -0.2300  0.8613 -0.7789
  885MOL0     O16696   3.953  11.100   9.460 -0.6978 -0.1542  0.4527
  885MOL0     C16697   4.088  11.139   9.428  0.2483  0.6503  0.5292
  885MOL0     C16698   4.097  11.218   9.297 -0.0091  1.7209  0.0761
  885MOL0     C16699   4.063  11.116   9.183  0.3965  0.2634  0.2717
  885MOL0     C16700   4.060  11.201   9.055 -0.4275 -0.9323  0.2829
  885MOL0     C16701   4.016  11.134   8.927 -0.7050  0.1064  0.0293
  885MOL0     C16702   4.111  11.025   8.872  0.3309 -0.0143  0.6718
  885MOL0     C16703   4.069  10.986   8.730  0.2159  0.1613 -0.0810
  885MOL0     C16704   4.174  10.878   8.686 -0.4419  0.0057 -0.3466
  885MOL0     N16705   4.154  10.821   8.552  0.5347 -0.1361  0.3434
  885MOL0     C16706   4.105  10.694   8.516 -0.3222 -0.2022  0.1349
  885MOL0     C16707   4.119  10.685   8.381  0.1787  0.5205 -0.4061
  885MOL0     C16708   4.074  10.584   8.291  0.0646  1.0863 -0.8528
  885MOL0     C16709   3.957  10.632   8.193 -0.1779  0.2195 -0.7233
  885MOL0     C16710   3.822  10.647   8.259  0.1256 -0.6947 -0.5871
  885MOL0     C16711   3.712  10.698   8.161  0.4314 -0.2742 -0.1230
  885MOL0     O16712   3.591  10.732   8.241 -0.4330 -0.2746  0.3782
  885MOL0     C16713   3.480  10.702   8.164  0.1712 -1.1858 -0.0028
  885MOL0     C16714   3.434  10.780   8.058  0.7499 -0.0312  0.3200
  885MOL0     C16715   3.306  10.750   8.011 -0.2809 -0.1394  0.2232
  885MOL0     C16716   3.240  10.634   8.047 -1.0858  1.4143  0.1170
  885MOL0     C16717   3.102  10.605   7.994  0.2326  0.2253 -0.3634
  885MOL0     O16718   3.058  10.669   7.875 -0.7433  0.5270  0.0300
  885MOL0     C16719   2.949  10.606   7.826  0.5500  0.3380  1.4625
  885MOL0     C16720   2.833  10.686   7.795 -0.4541  0.4871  0.2649
  885MOL0     C16721   2.729  10.629   7.722  0.8047 -0.0629  0.4700
  885MOL0     C16722   2.725  10.491   7.706 -0.0871  0.4813 -0.4655
  885MOL0     O16723   2.607  10.431   7.654 -0.3764  0.2106 -0.4299
  885MOL0     C16724   2.628  10.385   7.522  0.3504  0.2005  0.3404
  885MOL0     C16725   2.627  10.501   7.426  0.5528  0.0037 -0.1649
  885MOL0     C16726   2.488  10.565   7.434 -0.2184 -0.4865  0.5461
  885MOL0     C16727   2.473  10.689   7.341  0.1122  0.5579  0.8268
  885MOL0     C16728   2.330  10.737   7.336 -0.4344  0.0886  0.5404
  885MOL0     C16729   2.306  10.866   7.247 -0.0377  0.7106 -0.0646
  885MOL0     C16730   2.163  10.930   7.266 -0.1201  0.6384  0.3286
  885MOL0     C16731   2.122  11.034   7.165  0.0066 -0.5424 -0.1449
  885MOL0    Cl16732   2.235  11.166   7.188 -0.1241 -0.7077 -0.1000
  885MOL0     C16733   2.834  10.411   7.721 -0.2907 -0.1212 -0.0139
  885MOL0     C16734   2.948  10.477   7.771 -0.2234 -0.1906  0.2903
  885MOL0     O16735   3.030  10.530   8.068 -0.3804 -0.3073  0.2312
  885MOL0     C16736   3.299  10.541   8.142 -0.0733  0.3615  0.5236
  885MOL0     C16737   3.425  10.583   8.198  0.2321  0.3624  0.7809
  885MOL0     N16738   4.186  10.805   8.337 -0.6113 -0.0602  0.5436
  885MOL0     N16739   4.207  10.882   8.441  0.0260 -0.8575  0.8791
  885MOL0     C16740   3.910  10.918   9.628  0.1303 -0.1422  0.1549
  885MOL0     C16741   3.868  10.878   9.755 -0.2469 -0.1306  0.5653
  885MOL0     C16742   3.737  10.814  10.165 -0.5638 -0.6736  0.2252
  885MOL0     C16743   3.679  10.703  10.212 -0.6958  1.0489  0.1132
  885MOL0     C16744   3.668  10.669  10.349  0.5029 -0.7250 -0.4557
  885MOL0     C16745   3.692  10.764  10.441 -0.1016 -0.3579  0.6038
  885MOL0     O16746   3.672  10.748  10.572 -0.7167 -0.0077  0.4198
  885MOL0     C16747   3.539  10.788  10.604 -0.2426 -0.4493 -0.9410
  885MOL0     C16748   3.513  10.730  10.744 -1.1670  0.3609  0.5985
  885MOL0     C16749   3.528  10.577  10.774  0.2237  0.5611 -0.4832
  885MOL0     C16750   3.501  10.522  10.917  0.1223  0.6950  0.0260
  885MOL0     C16751   3.579  10.401  10.943 -0.2685  0.1480 -0.1956
  885MOL0     C16752   3.667  10.320  10.959  0.8239  0.5039 -0.2714
  885MOL0     C16753   3.760  10.878  10.400 -0.0639 -0.2214 -0.0433
  885MOL0     C16754   3.795  10.902  10.265  0.2833 -0.8391  0.7327
  885MOL0     H16755   3.894  11.180   9.906 -1.1800  0.5751 -1.2498
  885MOL0     H16756   3.954  11.249   9.686  0.5463 -1.3421 -1.7088
  885MOL0     H16757   4.151  11.050   9.419 -0.8356 -0.0433 -0.5691
  885MOL0     H16758   4.135  11.202   9.504  1.9262  1.5189 -1.1589
  885MOL0     H16759   4.198  11.257   9.283  1.4620 -0.4700  3.1701
  885MOL0     H16760   4.027  11.301   9.305  2.2986  3.8277 -0.2496
  885MOL0     H16761   3.970  11.059   9.192  1.6413 -1.5821  2.2053
  885MOL0     H16762   4.147  11.048   9.168 -0.9380 -1.7784  1.5906
  885MOL0     H16763   3.993  11.287   9.064  4.0291  2.7907  2.2002
  885MOL0     H16764   4.163  11.235   9.040 -0.2383 -0.7043  1.8981
  885MOL0     H16765   3.998  11.210   8.850  0.0427 -0.7092 -0.9931
  885MOL0     H16766   3.917  11.090   8.937 -1.3550  1.6620  0.6136
  885MOL0     H16767   4.104  10.939   8.939 -0.0442 -0.0151  0.6343
  885MOL0     H16768   4.215  11.057   8.864  0.4759 -0.4746  0.6785
  885MOL0     H16769   3.969  10.941   8.734  0.1158 -0.2340 -3.6105
  885MOL0     H16770   4.069  11.071   8.661  0.7303  0.8127  0.7085
  885MOL0     H16771   4.176  10.799   8.762 -0.9972 -1.4290 -1.7667
  885MOL0     H16772   4.272  10.925   8.691 -1.2561  1.6647  1.1514
  885MOL0     H16773   4.054  10.633   8.590  0.3652  1.9198  2.5078
  885MOL0     H16774   4.038  10.491   8.337  3.7522 -0.3638 -0.5959
  885MOL0     H16775   4.162  10.551   8.236  0.0290 -1.9100  0.6973
  885MOL0     H16776   3.944  10.562   8.110  2.1879 -1.4692  0.2061
  885MOL0     H16777   3.981  10.733   8.157 -3.8015  2.1736  1.7109
  885MOL0     H16778   3.791  10.554   8.308 -4.8373  0.8457 -0.2201
  885MOL0     H16779   3.830  10.722   8.338 -2.6317 -1.5605  0.6418
  885MOL0     H16780   3.688  10.630   8.078 -0.8951  0.5145 -0.4167
  885MOL0     H16781   3.745  10.789   8.109 -2.8979  1.5121  0.6552
  885MOL0     H16782   3.487  10.867   8.020 -2.1700  1.4375 -0.6502
  885MOL0     H16783   3.268  10.812   7.930  2.1021 -1.4160 -1.9960
  885MOL0     H16784   2.851  10.788   7.826  2.0340  0.2910 -0.3449
  885MOL0     H16785   2.657  10.684   7.662 -2.1029 -3.5328  0.4650
  885MOL0     H16786   2.539  10.325   7.502 -2.4607  4.4211 -1.4536
  885MOL0     H16787   2.708  10.314   7.503  1.7611  1.5456  1.0293
  885MOL0     H16788   2.633  10.465   7.323  0.3004  2.5037 -1.1205
  885MOL0     H16789   2.709  10.572   7.438 -0.2571  0.9898 -0.3718
  885MOL0     H16790   2.484  10.600   7.537  3.1007 -0.8243  0.9012
  885MOL0     H16791   2.410  10.490   7.417 -1.1391  0.8925 -1.7537
  885MOL0     H16792   2.520  10.784   7.368  0.2828  0.3030  1.4367
  885MOL0     H16793   2.513  10.662   7.242  3.1411 -2.5313  2.6538
  885MOL0     H16794   2.297  10.768   7.435 -3.9418 -0.0448 -0.4663
  885MOL0     H16795   2.263  10.654   7.311  0.4461  0.1791 -2.5878
  885MOL0     H16796   2.305  10.838   7.141 -1.5117  0.9988 -0.1436
  885MOL0     H16797   2.377  10.945   7.271  2.4401 -2.2130  3.4291
  885MOL0     H16798   2.088  10.850   7.271  0.5075  0.0973  3.3822
  885MOL0     H16799   2.164  10.975   7.366 -2.4927  2.5913 -0.4251
  885MOL0     H16800   2.020  11.068   7.187  0.9973  2.1719  0.7490
  885MOL0     H16801   2.142  11.004   7.062  3.5367 -0.5709  0.4422
  885MOL0     H16802   2.828  10.307   7.692  3.6039  0.2278 -2.9422
  885MOL0     H16803   3.039  10.422   7.793  0.9317  2.4692  2.8630
  885MOL0     H16804   3.259  10.444   8.169  2.9577 -1.5140 -1.2039
  885MOL0     H16805   3.470  10.525   8.278 -1.9580 -2.7011 -0.0126
  885MOL0     H16806   3.907  10.839   9.554 -0.4606 -2.2003  2.2590
  885MOL0     H16807   3.852  10.771   9.766  0.7408 -0.3555  0.0082
  885MOL0     H16808   3.623  10.644  10.140 -0.2811  0.0187  0.6261
  885MOL0     H16809   3.619  10.576  10.377 -2.1104 -0.1562 -2.6987
  885MOL0     H16810   3.470  10.745  10.531  0.8800 -2.3066 -0.9753
  885MOL0     H16811   3.523  10.896  10.600 -0.2718 -0.4734 -1.6584
  885MOL0     H16812   3.570  10.792  10.815 -1.9812  0.7883  0.8965
  885MOL0     H16813   3.407  10.728  10.771 -1.3122 -0.2233 -0.0019
  885MOL0     H16814   3.629  10.550  10.742  1.6753  5.3733 -0.7651
  885MOL0     H16815   3.466  10.516  10.708 -0.4163  1.4304 -0.6978
  885MOL0     H16816   3.525  10.591  10.998 -0.9402  0.1252  0.8427
  885MOL0     H16817   3.397  10.496  10.935  0.2931  1.1060  1.8149
  885MOL0     H16818   3.746  10.255  10.989  2.5142  1.6430 -2.0263
  885MOL0     H16819   3.771  10.960  10.471 -0.2433 -0.2045 -0.0346
  885MOL0     H16820   3.849  10.994  10.246 -0.1798 -0.1147  2.6564
  886MOL0     O16821   9.456  10.204   0.723  0.8040  0.2869 -0.3468
  886MOL0     C16822   9.540  10.294   0.720  0.3721 -1.1443  0.3389
  886MOL0     O16823   9.667  10.282   0.759 -0.0172  0.5461  0.4723
  886MOL0     C16824   9.700  10.151   0.796  0.4358 -0.4732  0.6644
  886MOL0     C16825   9.790  10.079   0.714 -0.5908 -0.3029  0.1144
  886MOL0     C16826   9.829   9.947   0.742 -0.3350 -0.3325 -0.1446
  886MOL0     C16827   9.789   9.885   0.867 -1.3632 -0.0421  0.8322
  886MOL0     O16828   9.818   9.751   0.901 -0.0080  0.1411 -0.5421
  886MOL0     C16829   9.724   9.669   0.982 -0.1451 -0.9156  0.2344
  886MOL0     C16830   9.777   9.520   0.984 -0.7520  0.6480 -0.8166
  886MOL0     C16831   9.794   9.464   0.844 -0.4119 -0.0172 -0.4512
  886MOL0     C16832   9.796   9.311   0.835  0.2516  0.2103 -0.4419
  886MOL0     C16833   9.780   9.264   0.690 -0.7100 -0.6739  0.4428
  886MOL0     C16834   9.718   9.129   0.677  0.2116 -0.4766  0.2827
  886MOL0     C16835   9.724   9.053   0.550  0.1360 -0.8300  0.0878
  886MOL0     C16836   9.671   9.148   0.432 -0.8742 -0.0118 -0.8356
  886MOL0     N16837   9.531   9.180   0.444 -0.0932  0.3652 -0.5749
  886MOL0     C16838   9.418   9.090   0.437 -0.5442 -0.2040 -0.1072
  886MOL0     C16839   9.309   9.158   0.485 -0.3280 -0.1340  0.8617
  886MOL0     C16840   9.164   9.125   0.487  0.2686 -0.3812 -0.9324
  886MOL0     C16841   9.076   9.225   0.422 -0.3027 -0.5314 -0.2897
  886MOL0     C16842   8.929   9.215   0.470 -0.6439  0.2617  0.0090
  886MOL0     C16843   8.904   9.248   0.619 -0.4926  0.3397 -1.2744
  886MOL0     O16844   8.929   9.374   0.672 -0.5220 -0.7166 -0.2169
  886MOL0     C16845   9.005   9.372   0.784  0.2461 -0.2979  0.8277
  886MOL0     C16846   9.140   9.407   0.777  0.7856 -0.1154 -1.1029
  886MOL0     C16847   9.218   9.411   0.897 -0.6546 -0.5727  0.7541
  886MOL0     C16848   9.168   9.381   1.023  0.3694 -0.5020 -0.5289
  886MOL0     C16849   9.246   9.414   1.139 -0.4560 -0.1465 -0.9013
  886MOL0     O16850   9.376   9.455   1.116 -0.2580  0.4754  0.7539
  886MOL0     C16851   9.444   9.496   1.226  0.7167 -1.2205  0.7635
  886MOL0     C16852   9.433   9.631   1.260  1.2512 -0.3500 -0.0494
  886MOL0     C16853   9.494   9.679   1.383 -0.2360  0.1755 -0.2725
  886MOL0     C16854   9.593   9.600   1.438 -0.7819 -0.0871  0.7564
  886MOL0     O16855   9.677   9.636   1.540 -0.2953 -1.0157 -0.4816
  886MOL0     C16856   9.643   9.754   1.620  0.1272  0.8630 -0.4610
  886MOL0     C16857   9.708   9.744   1.758 -1.1375  0.2352 -0.5469
  886MOL0     C16858   9.857   9.785   1.767 -0.2811  0.1280 -0.5157
  886MOL0     C16859   9.917   9.771   1.911  0.0421  0.2703  0.5476
  886MOL0     C16860  10.069   9.789   1.919  0.0822  0.8805 -0.0707
  886MOL0     C16861  10.146   9.672   1.836 -1.3713 -0.5022 -0.8261
  886MOL0     C16862  10.292   9.709   1.814 -0.5543  0.2020  0.2454
  886MOL0     C16863  10.345   9.636   1.686  0.4448 -0.4651  0.1726
  886MOL0    Cl16864  10.316   9.461   1.688  0.7013 -0.3149 -0.1829
  886MOL0     C16865   9.600   9.469   1.402 -0.1081  0.4345  0.1043
  886MOL0     C16866   9.529   9.415   1.292  0.2426 -0.0693 -0.3810
  886MOL0     O16867   9.192   9.411   1.245 -0.0065  0.2192 -0.4932
  886MOL0     C16868   9.027   9.349   1.023  0.1208  0.0634  0.0255
  886MOL0     C16869   8.948   9.337   0.904 -0.0239 -0.2622 -0.5434
  886MOL0     N16870   9.360   9.280   0.517  0.1353 -0.2855 -0.2324
  886MOL0     N16871   9.478   9.296   0.494  0.2611  0.0836 -0.0519
  886MOL0     C16872   9.699   9.961   0.942  0.3089  0.2180  0.4499
  886MOL0     C16873   9.656  10.094   0.906 -0.0141 -0.1138  0.2026
  886MOL0     C16874   9.497  10.432   0.674  0.0228  0.0011 -0.4507
  886MOL0     C16875   9.380  10.464   0.617 -0.0971  0.3881  0.6204
  886MOL0     C16876   9.350  10.594   0.582  0.1645 -0.2387  0.5711
  886MOL0     C16877   9.441  10.698   0.616 -0.2695 -0.2839  0.0727
  886MOL0     O16878   9.434  10.829   0.578  0.6887 -0.0201 -0.7812
  886MOL0     C16879   9.306  10.883   0.547 -0.3949  0.4341 -0.2687
  886MOL0     C16880   9.326  11.038   0.573 -0.9269 -0.7311  0.4675
  886MOL0     C16881   9.437  11.112   0.490 -0.3505 -0.4996 -0.7334
  886MOL0     C16882   9.461  11.245   0.560  0.2008 -0.3874 -0.4299
  886MOL0     C16883   9.566  11.324   0.488 -0.1164  0.1011  0.7532
  886MOL0     C16884   9.656  11.396   0.443 -0.1605  0.2737  0.3056
  886MOL0     C16885   9.550  10.672   0.691 -0.0607  0.2553 -0.6835
  886MOL0     C16886   9.576  10.541   0.728  0.4007  0.3763  0.1204
  886MOL0     H16887   9.830  10.139   0.632  0.0892 -0.0240  0.6443
  886MOL0     H16888   9.895   9.908   0.666  2.4860  0.3818  1.7880
  886MOL0     H16889   9.627   9.669   0.932  0.1860 -1.0945 -0.4159
  886MOL0     H16890   9.719   9.715   1.081  0.9440  0.1798 -0.1981
  886MOL0     H16891   9.707   9.462   1.045  1.0793 -0.2986  0.4776
  886MOL0     H16892   9.878   9.510   1.025 -0.4994  2.8405 -0.7707
  886MOL0     H16893   9.885   9.499   0.793 -2.5331  2.0661 -3.1242
  886MOL0     H16894   9.709   9.502   0.787  0.2102 -0.1631 -1.5168
  886MOL0     H16895   9.888   9.264   0.872  0.2665  2.6258  3.0612
  886MOL0     H16896   9.713   9.265   0.891 -0.2631 -0.4146 -1.6779
  886MOL0     H16897   9.879   9.258   0.644 -1.8459 -1.6056 -2.0685
  886MOL0     H16898   9.732   9.336   0.623  1.7286 -0.4896 -1.2460
  886MOL0     H16899   9.615   9.129   0.715 -0.1478 -1.8270 -0.5922
  886MOL0     H16900   9.767   9.057   0.743 -1.0596 -1.9593 -0.3116
  886MOL0     H16901   9.823   9.014   0.523  0.5371 -0.2869  0.7230
  886MOL0     H16902   9.663   8.963   0.560  0.4998 -0.8986  2.2993
  886MOL0     H16903   9.681   9.095   0.336  0.9541 -4.4151  1.4959
  886MOL0     H16904   9.724   9.243   0.426 -1.0127  0.2815  1.7321
  886MOL0     H16905   9.437   8.990   0.399  1.3369 -0.4456  1.2726
  886MOL0     H16906   9.136   9.119   0.592  0.7686  0.4857 -0.7434
  886MOL0     H16907   9.132   9.029   0.444 -1.4434 -0.0325 -0.4985
  886MOL0     H16908   9.077   9.228   0.313  1.6398  1.9320 -0.3131
  886MOL0     H16909   9.110   9.328   0.440 -0.8176 -0.1146 -1.5721
  886MOL0     H16910   8.876   9.286   0.406  0.6051 -1.4832 -3.1801
  886MOL0     H16911   8.885   9.117   0.449 -0.3003  0.2904 -0.8608
  886MOL0     H16912   8.953   9.180   0.689  1.1537  3.5219  0.9475
  886MOL0     H16913   8.798   9.243   0.646 -0.2774  1.5236 -0.0754
  886MOL0     H16914   9.181   9.429   0.678  3.3339  2.6601  0.3943
  886MOL0     H16915   9.320   9.441   0.875 -1.1835 -1.1739 -3.5322
  886MOL0     H16916   9.369   9.692   1.197  2.1968  0.8049  0.0892
  886MOL0     H16917   9.481   9.784   1.408  1.5154 -0.2000  2.7175
  886MOL0     H16918   9.535   9.760   1.638  0.1782  1.3045 -0.2878
  886MOL0     H16919   9.680   9.848   1.576  2.3954  1.0251  1.5875
  886MOL0     H16920   9.696   9.637   1.781  1.4951 -0.0748 -0.3201
  886MOL0     H16921   9.663   9.809   1.833  1.8516  0.0519  1.5715
  886MOL0     H16922   9.864   9.894   1.763 -0.3036  0.2700  1.7449
  886MOL0     H16923   9.918   9.745   1.686 -0.5213 -0.1169 -0.5780
  886MOL0     H16924   9.860   9.838   1.976  0.1335 -2.1935  3.3711
  886MOL0     H16925   9.895   9.670   1.945  3.2442 -0.5986  0.3475
  886MOL0     H16926  10.103   9.788   2.023  2.2428  2.4494 -0.6740
  886MOL0     H16927  10.079   9.883   1.865 -2.3884 -0.1791 -2.6244
  886MOL0     H16928  10.103   9.668   1.736 -0.0949  3.1965 -1.6982
  886MOL0     H16929  10.157   9.574   1.883  2.2376 -0.2146 -0.7881
  886MOL0     H16930  10.301   9.817   1.804 -2.6903  0.3899 -0.1951
  886MOL0     H16931  10.354   9.674   1.897 -1.8547  0.6209  1.4418
  886MOL0     H16932  10.450   9.666   1.694 -0.1457  1.3070  2.1968
  886MOL0     H16933  10.303   9.687   1.598 -0.8912 -1.6007  0.1370
  886MOL0     H16934   9.679   9.410   1.446 -0.6149 -1.1701 -1.0408
  886MOL0     H16935   9.545   9.308   1.285  0.6754  0.0292 -1.0196
  886MOL0     H16936   8.979   9.342   1.121  2.6669  0.6539  1.4064
  886MOL0     H16937   8.847   9.299   0.912  0.5157 -2.2035 -2.1777
  886MOL0     H16938   9.652   9.920   1.031  0.4767 -1.1637 -0.0730
  886MOL0     H16939   9.594  10.152   0.975  0.0504  2.1848 -1.5526
  886MOL0     H16940   9.318  10.385   0.575  2.9662 -0.9583 -1.7838
  886MOL0     H16941   9.265  10.614   0.518  1.9247  1.8511 -1.3160
  886MOL0     H16942   9.229  10.845   0.615  1.2485 -0.0561  1.3654
  886MOL0     H16943   9.266  10.870   0.446 -1.1010 -2.4500  0.2853
  886MOL0     H16944   9.233  11.094   0.566  0.3437  1.5407  0.6758
  886MOL0     H16945   9.366  11.050   0.675  0.1815  0.4719 -0.0729
  886MOL0     H16946   9.393  11.138   0.393 -0.6384  1.2799 -0.1670
  886MOL0     H16947   9.527  11.056   0.463  1.1713  1.8106 -0.7745
  886MOL0     H16948   9.363  11.292   0.565  1.2699  2.1375 -1.6334
  886MOL0     H16949   9.493  11.224   0.663  1.9710  1.0965 -0.6300
  886MOL0     H16950   9.729  11.459   0.395 -0.9893 -1.0773 -3.0049
  886MOL0     H16951   9.610  10.756   0.724  0.3974  1.5889 -4.4362
  886MOL0     H16952   9.663  10.522   0.791 -0.2753 -1.1670  0.6392
  887MOL0     O16953   7.289   5.122   1.787 -0.4101  0.4955  0.6783
  887MOL0     C16954   7.246   5.104   1.671  0.6229 -0.6594 -1.1658
  887MOL0     O16955   7.120   5.077   1.640  0.1722  0.2813  0.8940
  887MOL0     C16956   7.047   5.030   1.749  0.7889 -0.6090  0.1966
  887MOL0     C16957   7.002   4.902   1.753  0.2509 -0.0468 -0.4323
  887MOL0     C16958   6.918   4.842   1.848  0.5474 -0.4620 -0.8525
  887MOL0     C16959   6.888   4.919   1.965 -0.8553  0.1375  0.6462
  887MOL0     O16960   6.805   4.864   2.061  0.2860  0.0572  0.3917
  887MOL0     C16961   6.705   4.955   2.110  0.5225  0.1907 -0.2297
  887MOL0     C16962   6.618   4.868   2.199 -0.5477  0.0253  0.0593
  887MOL0     C16963   6.634   4.893   2.352  0.1340  0.4661  1.4307
  887MOL0     C16964   6.599   5.040   2.386 -0.1762  0.2643  0.4454
  887MOL0     C16965   6.568   5.065   2.531 -0.0373 -0.7153 -0.1931
  887MOL0     C16966   6.683   5.021   2.631  0.1881  0.2929  0.2973
  887MOL0     C16967   6.629   4.985   2.764 -0.3841 -0.9716 -0.4133
  887MOL0     C16968   6.741   4.922   2.852  0.3018  0.4602 -0.3797
  887MOL0     N16969   6.689   4.888   2.983  0.5285 -0.1680  0.1727
  887MOL0     C16970   6.571   4.821   3.021 -0.5600 -0.7725  0.7061
  887MOL0     C16971   6.589   4.783   3.145  1.5562  0.1338  0.3500
  887MOL0     C16972   6.485   4.706   3.230 -0.1111  0.5009 -0.1086
  887MOL0     C16973   6.426   4.795   3.347  0.1265 -0.7329 -0.8734
  887MOL0     C16974   6.294   4.732   3.395 -0.0056 -0.5368 -0.7020
  887MOL0     C16975   6.303   4.593   3.446 -0.5042  0.3712  0.2007
  887MOL0     O16976   6.210   4.582   3.550  1.0542  0.3339 -0.3277
  887MOL0     C16977   6.222   4.455   3.600  0.0641 -0.5300 -0.9545
  887MOL0     C16978   6.159   4.344   3.560 -0.6064  0.5532 -0.0905
  887MOL0     C16979   6.170   4.216   3.635 -0.0258 -0.2777  0.0115
  887MOL0     C16980   6.269   4.200   3.731  0.1031  0.0388  1.7098
  887MOL0     C16981   6.292   4.070   3.790 -0.7892  0.6045 -1.2275
  887MOL0     O16982   6.407   4.048   3.856  0.0520  0.3824 -0.1310
  887MOL0     C16983   6.406   3.956   3.962  0.5916 -0.1365  0.2708
  887MOL0     C16984   6.291   3.948   4.041  0.1044 -0.4414  0.4048
  887MOL0     C16985   6.298   3.864   4.155  0.8933  1.2002 -0.0448
  887MOL0     C16986   6.415   3.783   4.172 -0.1731 -1.0621 -0.3216
  887MOL0     O16987   6.404   3.697   4.278  0.3625 -0.3410 -0.1863
  887MOL0     C16988   6.512   3.622   4.318 -0.5183 -0.2728 -0.6007
  887MOL0     C16989   6.464   3.547   4.445 -0.3424 -0.5238  0.1130
  887MOL0     C16990   6.347   3.443   4.422 -0.6006 -0.3919 -0.2706
  887MOL0     C16991   6.302   3.390   4.555  0.1580  0.1180  0.5478
  887MOL0     C16992   6.386   3.278   4.603  0.5232  0.7713 -0.6159
  887MOL0     C16993   6.329   3.141   4.557 -0.1123  0.0092  0.7546
  887MOL0     C16994   6.210   3.078   4.642  0.6124 -0.0784  0.4782
  887MOL0     C16995   6.262   2.982   4.753 -0.1294  0.1479 -0.1032
  887MOL0    Cl16996   6.354   3.070   4.884 -0.0210 -0.5078 -0.2326
  887MOL0     C16997   6.525   3.801   4.090  0.0327  0.8610 -0.0803
  887MOL0     C16998   6.523   3.886   3.982  0.8748  0.4169  0.0835
  887MOL0     O16999   6.230   3.970   3.750  0.8388 -0.6213  0.7756
  887MOL0     C17000   6.342   4.314   3.766 -0.1787  0.2435  0.0274
  887MOL0     C17001   6.306   4.442   3.712 -0.1226  0.0277  0.4949
  887MOL0     N17002   6.716   4.812   3.187  0.4502 -0.0986  0.1229
  887MOL0     N17003   6.769   4.877   3.088 -0.2453 -0.3795  0.0216
  887MOL0     C17004   6.945   5.047   1.967 -0.0504 -0.5458 -0.4673
  887MOL0     C17005   7.011   5.107   1.864 -0.1098 -1.6042 -0.5731
  887MOL0     C17006   7.332   5.141   1.555  1.1201 -0.6251 -0.4034
  887MOL0     C17007   7.286   5.170   1.423  0.1457 -0.0630  0.5778
  887MOL0     C17008   7.379   5.174   1.319  1.6964  0.0828  0.4790
  887MOL0     C17009   7.517   5.153   1.338  0.0422  0.7411  0.4973
  887MOL0     O17010   7.617   5.169   1.250 -0.0220  0.2186 -0.4638
  887MOL0     C17011   7.612   5.132   1.117 -0.6964 -0.5542  0.0123
  887MOL0     C17012   7.605   4.979   1.106 -0.2190 -0.2435  0.5132
  887MOL0     C17013   7.750   4.919   1.126 -0.8031 -0.5820 -0.0605
  887MOL0     C17014   7.757   4.788   1.206  0.3901  0.4430 -1.2533
  887MOL0     C17015   7.714   4.812   1.342  0.6427  0.7878  0.3324
  887MOL0     C17016   7.661   4.826   1.453 -0.4609 -0.2657 -0.5103
  887MOL0     C17017   7.556   5.118   1.474  0.4046 -0.0625 -0.0030
  887MOL0     C17018   7.467   5.114   1.575  0.4502  0.7765  0.2403
  887MOL0     H17019   7.028   4.827   1.679  0.6296 -2.4830  2.0038
  887MOL0     H17020   6.871   4.745   1.845 -0.7871  0.1370 -0.4966
  887MOL0     H17021   6.641   5.003   2.036  1.4282  2.1282  0.1699
  887MOL0     H17022   6.762   5.025   2.172  3.3823  0.2450 -2.6866
  887MOL0     H17023   6.638   4.763   2.175  2.0176  1.3111 -4.6910
  887MOL0     H17024   6.510   4.877   2.185 -0.6791  1.4758  1.6659
  887MOL0     H17025   6.734   4.856   2.375 -1.3223 -3.6435  2.0264
  887MOL0     H17026   6.566   4.824   2.404  0.5413 -0.8274  0.3190
  887MOL0     H17027   6.686   5.100   2.360 -0.1053 -0.2111 -0.4464
  887MOL0     H17028   6.512   5.076   2.329 -0.2907 -1.9184 -0.8847
  887MOL0     H17029   6.483   5.002   2.558  2.5341 -4.5131 -0.1808
  887MOL0     H17030   6.539   5.166   2.561  1.1524 -1.4429  4.1126
  887MOL0     H17031   6.751   5.104   2.649 -1.1038  0.7929  3.4403
  887MOL0     H17032   6.737   4.932   2.595  4.1235  1.6321  2.3584
  887MOL0     H17033   6.606   5.075   2.822 -0.6941 -1.9981  1.1001
  887MOL0     H17034   6.537   4.927   2.757  0.6726 -2.5469 -2.4464
  887MOL0     H17035   6.831   4.983   2.863  1.0716 -0.6308 -0.5263
  887MOL0     H17036   6.764   4.829   2.800 -2.8995  0.6262 -2.3980
  887MOL0     H17037   6.476   4.798   2.973 -3.4225  3.2514  3.7570
  887MOL0     H17038   6.535   4.621   3.279 -2.0817 -0.8065 -0.2900
  887MOL0     H17039   6.403   4.679   3.164 -0.3595  0.6595  0.1288
  887MOL0     H17040   6.406   4.899   3.322  2.8532  0.4923  1.5150
  887MOL0     H17041   6.502   4.796   3.425 -0.6363 -2.0081 -0.0821
  887MOL0     H17042   6.259   4.801   3.473  1.6642  0.5038 -0.8082
  887MOL0     H17043   6.224   4.735   3.311 -1.7638  3.5156  0.6432
  887MOL0     H17044   6.406   4.578   3.480 -0.7389 -0.3331  0.6267
  887MOL0     H17045   6.286   4.516   3.370 -3.2412 -0.4936  1.5511
  887MOL0     H17046   6.104   4.346   3.467 -0.5637  1.4074 -0.1031
  887MOL0     H17047   6.107   4.135   3.600  1.5275 -1.7169  0.4432
  887MOL0     H17048   6.207   4.016   4.035  2.2404  2.5113  1.4235
  887MOL0     H17049   6.204   3.858   4.209 -0.1447  0.5972 -1.8434
  887MOL0     H17050   6.596   3.690   4.337 -1.8623  1.2339  0.1492
  887MOL0     H17051   6.546   3.555   4.238 -0.4855 -1.9488  0.7561
  887MOL0     H17052   6.425   3.623   4.513  0.1651 -0.8441  0.7770
  887MOL0     H17053   6.551   3.495   4.486 -1.2564 -1.9452  0.3409
  887MOL0     H17054   6.374   3.370   4.345  3.5206 -3.2909  3.4240
  887MOL0     H17055   6.273   3.508   4.373  1.3272  0.0706 -2.7803
  887MOL0     H17056   6.314   3.467   4.632 -3.3967  1.4193  0.0296
  887MOL0     H17057   6.198   3.358   4.564  0.1258  0.3869  1.2112
  887MOL0     H17058   6.387   3.276   4.712 -2.2978 -4.7127 -0.3226
  887MOL0     H17059   6.490   3.288   4.568  0.2748  1.3045 -1.2197
  887MOL0     H17060   6.406   3.064   4.543  1.3712  1.8785 -2.6378
  887MOL0     H17061   6.305   3.162   4.452  3.4743  3.0306  0.3097
  887MOL0     H17062   6.147   3.160   4.677 -0.5020 -0.3499 -0.7681
  887MOL0     H17063   6.135   3.025   4.582  0.8753  0.6834 -0.5446
  887MOL0     H17064   6.334   2.918   4.701 -1.2647  0.7625 -2.5963
  887MOL0     H17065   6.183   2.915   4.788  0.7341 -2.0378 -2.0636
  887MOL0     H17066   6.614   3.744   4.112  0.0436  1.5049  1.7503
  887MOL0     H17067   6.607   3.898   3.914  2.7457  0.9592  2.3728
  887MOL0     H17068   6.412   4.326   3.848 -2.2902 -0.2326  1.9952
  887MOL0     H17069   6.343   4.537   3.751  2.3189  0.0837 -1.6550
  887MOL0     H17070   6.932   5.116   2.050  1.0364  0.3476 -1.0152
  887MOL0     H17071   7.048   5.208   1.849 -0.2604 -1.3787  0.5429
  887MOL0     H17072   7.184   5.189   1.393  0.2579  1.3435  1.0098
  887MOL0     H17073   7.332   5.196   1.223  0.3991  1.9889  1.4901
  887MOL0     H17074   7.702   5.165   1.064 -1.1523 -1.2780 -1.2760
  887MOL0     H17075   7.530   5.190   1.073  0.5331  1.1784 -0.1223
  887MOL0     H17076   7.533   4.943   1.181 -1.0977  1.0201  0.3090
  887MOL0     H17077   7.574   4.967   1.002 -1.8969  1.6456  0.7322
  887MOL0     H17078   7.803   4.988   1.192 -0.4834 -0.1691 -0.7454
  887MOL0     H17079   7.801   4.903   1.031  1.6015  0.6349  0.9584
  887MOL0     H17080   7.694   4.715   1.154 -3.7999  0.9154  2.6010
  887MOL0     H17081   7.861   4.755   1.205  0.1429 -0.8659  2.5695
  887MOL0     H17082   7.636   4.851   1.554  2.4968 -0.2950  0.3165
  887MOL0     H17083   7.659   5.084   1.487  0.7801  2.1973  6.7750
  887MOL0     H17084   7.502   5.082   1.673 -1.1642 -1.5129  0.1516
  888MOL0     O17085  10.189   3.377   6.763  0.0671 -0.6327  1.0894
  888MOL0     C17086  10.225   3.486   6.712 -0.2023 -0.2264 -0.1951
  888MOL0     O17087  10.150   3.581   6.649 -0.8711 -0.1600  0.3324
  888MOL0     C17088  10.021   3.577   6.615  0.2256 -0.7083  0.4453
  888MOL0     C17089   9.922   3.484   6.652 -0.0953  0.0311 -0.4631
  888MOL0     C17090   9.791   3.493   6.618  0.6026  0.6450  0.0708
  888MOL0     C17091   9.741   3.602   6.537  0.1642  0.0453  0.4045
  888MOL0     O17092   9.627   3.603   6.460 -0.8753  0.4868 -0.5060
  888MOL0     C17093   9.515   3.537   6.515  0.6562  0.4980  0.0083
  888MOL0     C17094   9.457   3.439   6.416  0.1834  1.6838 -0.4684
  888MOL0     C17095   9.352   3.351   6.488 -0.1823  0.6269 -0.2091
  888MOL0     C17096   9.221   3.436   6.517  0.4771 -0.3719 -0.2426
  888MOL0     C17097   9.115   3.353   6.591  0.1559  0.4688  0.0306
  888MOL0     C17098   8.984   3.426   6.605 -0.6348 -0.5629 -0.3578
  888MOL0     C17099   8.881   3.310   6.638 -0.6890 -0.2521 -0.7604
  888MOL0     C17100   8.756   3.392   6.678 -0.5021  0.1060  0.2007
  888MOL0     N17101   8.707   3.361   6.805 -0.7729 -0.2946  0.7366
  888MOL0     C17102   8.656   3.236   6.832  0.4392  0.9013 -0.3394
  888MOL0     C17103   8.597   3.252   6.950 -0.2300 -0.3934 -0.1364
  888MOL0     C17104   8.508   3.163   7.031 -0.1517  0.0689  0.1351
  888MOL0     C17105   8.354   3.178   7.011  0.3790  0.6801  0.8383
  888MOL0     C17106   8.288   3.268   7.120 -0.0034 -0.0649 -0.0053
  888MOL0     C17107   8.142   3.249   7.131 -0.1133 -1.5598 -0.0800
  888MOL0     O17108   8.119   3.152   7.231 -0.1690  0.7029  0.5911
  888MOL0     C17109   8.020   3.061   7.194  0.5673  0.1461  0.7418
  888MOL0     C17110   8.018   2.939   7.255  0.8640 -0.3066  1.0942
  888MOL0     C17111   7.919   2.847   7.216 -0.4164 -0.3431 -0.9747
  888MOL0     C17112   7.807   2.874   7.144  0.2961 -0.0951  0.9923
  888MOL0     C17113   7.708   2.773   7.104 -0.4480 -0.3129  0.4932
  888MOL0     O17114   7.583   2.821   7.118 -0.6069  0.5051 -0.2909
  888MOL0     C17115   7.487   2.733   7.091  0.0973  0.3811  0.4326
  888MOL0     C17116   7.415   2.724   6.972  0.6410 -0.5529 -0.2269
  888MOL0     C17117   7.323   2.621   6.946 -0.0501 -0.0552 -0.2356
  888MOL0     C17118   7.281   2.541   7.047 -0.6096  0.2479  0.8373
  888MOL0     O17119   7.181   2.453   7.011  0.9084 -0.1789  0.6560
  888MOL0     C17120   7.134   2.359   7.105  0.1540  0.9131 -0.5891
  888MOL0     C17121   7.027   2.421   7.205  0.3879  0.1197  0.9976
  888MOL0     C17122   6.897   2.456   7.145  0.0577 -0.2068  0.3011
  888MOL0     C17123   6.805   2.532   7.252  0.8636 -0.0952  0.8488
  888MOL0     C17124   6.723   2.630   7.169  0.2530 -0.0193 -0.7039
  888MOL0     C17125   6.623   2.724   7.226 -0.4778  0.2884  0.4612
  888MOL0     C17126   6.515   2.643   7.303  0.0074 -0.2601  0.1060
  888MOL0     C17127   6.413   2.733   7.383 -0.0701  0.4642  0.5830
  888MOL0    Cl17128   6.330   2.869   7.298  0.0934 -0.5728  0.3243
  888MOL0     C17129   7.326   2.563   7.177 -0.5165  0.3096  0.5935
  888MOL0     C17130   7.438   2.652   7.192  0.2366  0.0265  0.4543
  888MOL0     O17131   7.744   2.660   7.075 -0.3848  0.2053 -0.0273
  888MOL0     C17132   7.799   3.010   7.095  0.9971  0.0833 -0.8920
  888MOL0     C17133   7.900   3.101   7.130 -0.6764 -0.1200 -0.3167
  888MOL0     N17134   8.624   3.378   6.994  0.7475  1.7844  0.5230
  888MOL0     N17135   8.682   3.447   6.910  1.5085 -0.7103  0.3877
  888MOL0     C17136   9.832   3.710   6.505  0.7661 -0.3852 -0.1656
  888MOL0     C17137   9.966   3.689   6.546 -0.0467  0.7468 -0.3597
  888MOL0     C17138  10.373   3.520   6.722  0.0600  0.0785  1.2168
  888MOL0     C17139  10.405   3.653   6.689  0.3454  0.3828 -0.1143
  888MOL0     C17140  10.546   3.684   6.690 -0.3446 -0.0831 -0.6050
  888MOL0     C17141  10.646   3.599   6.725 -0.0757  0.1244 -0.5963
  888MOL0     O17142  10.773   3.650   6.720 -0.1947  0.1413 -0.4735
  888MOL0     C17143  10.884   3.558   6.733 -0.0080  0.8366  0.8193
  888MOL0     C17144  11.010   3.634   6.707 -0.3737  0.7053  0.1104
  888MOL0     C17145  11.033   3.633   6.555  0.0566 -0.3127  0.3646
  888MOL0     C17146  11.146   3.543   6.509  0.0367 -0.1130  1.0282
  888MOL0     C17147  11.155   3.532   6.363 -0.2381 -0.0154  1.1808
  888MOL0     C17148  11.158   3.518   6.241 -0.6072  0.8373  0.7747
  888MOL0     C17149  10.604   3.476   6.774 -0.0573 -0.0464 -0.0244
  888MOL0     C17150  10.471   3.440   6.767 -0.6721  0.1057  0.0276
  888MOL0     H17151   9.953   3.397   6.710 -1.9407  1.5233  3.0823
  888MOL0     H17152   9.728   3.411   6.652  2.1546  0.4714  2.7715
  888MOL0     H17153   9.440   3.615   6.533  1.6775  1.3972  0.4342
  888MOL0     H17154   9.531   3.492   6.613  1.8189  5.3418  2.3921
  888MOL0     H17155   9.539   3.374   6.385  0.6719  1.6698  0.7889
  888MOL0     H17156   9.405   3.503   6.345  1.1300  5.2986  1.7919
  888MOL0     H17157   9.390   3.311   6.583 -0.1223 -2.9942 -1.6195
  888MOL0     H17158   9.326   3.261   6.432 -0.8742  0.2433  0.7020
  888MOL0     H17159   9.234   3.515   6.592  1.0701 -1.7970  1.2208
  888MOL0     H17160   9.180   3.472   6.422  2.6740 -0.5768 -1.3405
  888MOL0     H17161   9.141   3.315   6.690 -0.0078  1.0404  0.2937
  888MOL0     H17162   9.109   3.262   6.530  2.6791  1.0946 -1.3257
  888MOL0     H17163   8.955   3.487   6.519  2.3654  1.4343 -0.1059
  888MOL0     H17164   8.991   3.497   6.688  1.6040 -2.7151  1.4262
  888MOL0     H17165   8.864   3.240   6.555 -0.1364 -1.6487  0.2662
  888MOL0     H17166   8.910   3.251   6.725  0.3199  2.1324  0.5886
  888MOL0     H17167   8.682   3.372   6.599  1.4100 -0.2865 -1.5647
  888MOL0     H17168   8.768   3.500   6.662 -3.5387  0.2172 -2.4301
  888MOL0     H17169   8.658   3.152   6.763 -2.0572  1.1741 -0.8142
  888MOL0     H17170   8.525   3.206   7.130  2.4084  0.5490 -0.4197
  888MOL0     H17171   8.544   3.061   7.019 -2.3174 -0.5935 -1.1610
  888MOL0     H17172   8.328   3.072   7.007  0.5302  0.5513 -5.0124
  888MOL0     H17173   8.329   3.223   6.914 -1.3898 -0.0500  0.9166
  888MOL0     H17174   8.336   3.263   7.219 -0.5631  0.1432  0.2769
  888MOL0     H17175   8.311   3.370   7.089 -2.4087  1.4816  2.8245
  888MOL0     H17176   8.108   3.238   7.027 -1.0879  1.7460 -0.2058
  888MOL0     H17177   8.092   3.341   7.160  1.2636  0.0625 -2.4638
  888MOL0     H17178   8.100   2.919   7.323  0.2322  4.3434  3.6548
  888MOL0     H17179   7.938   2.749   7.258  0.4990  0.9343  1.9008
  888MOL0     H17180   7.428   2.801   6.896  1.0568 -0.5300 -0.1336
  888MOL0     H17181   7.283   2.618   6.845 -1.7224  0.8697  0.3528
  888MOL0     H17182   7.221   2.319   7.157 -1.1901 -2.1539 -0.5127
  888MOL0     H17183   7.097   2.269   7.055  4.5598 -0.9541 -0.9202
  888MOL0     H17184   7.077   2.510   7.245  1.7536  1.0851 -2.5482
  888MOL0     H17185   7.016   2.352   7.289 -0.1539 -0.4327  0.4799
  888MOL0     H17186   6.845   2.364   7.116  0.8066 -1.1818  1.9048
  888MOL0     H17187   6.908   2.511   7.051  0.5223  0.9599  1.0147
  888MOL0     H17188   6.732   2.463   7.294 -0.7242  0.9502 -0.1037
  888MOL0     H17189   6.861   2.579   7.334  1.7861  1.1541 -0.4456
  888MOL0     H17190   6.661   2.582   7.093 -1.7444  3.8151 -1.7033
  888MOL0     H17191   6.804   2.691   7.128  3.0160 -1.2082  2.4729
  888MOL0     H17192   6.579   2.790   7.150 -1.2892 -3.6070 -2.8683
  888MOL0     H17193   6.676   2.790   7.294  0.7625 -0.0075 -0.1946
  888MOL0     H17194   6.452   2.579   7.240  0.2116 -2.8293  2.3192
  888MOL0     H17195   6.568   2.583   7.377 -2.1041 -1.0333  1.0890
  888MOL0     H17196   6.476   2.776   7.461  2.7308 -0.1607 -1.1627
  888MOL0     H17197   6.345   2.665   7.434 -2.3636  1.7246 -0.6345
  888MOL0     H17198   7.304   2.507   7.267  1.8740 -0.3040  0.8535
  888MOL0     H17199   7.482   2.670   7.289  0.3856 -0.5935  0.5041
  888MOL0     H17200   7.709   3.049   7.048  0.5331  0.6894  0.4427
  888MOL0     H17201   7.874   3.203   7.101  0.3290 -0.0102 -0.8976
  888MOL0     H17202   9.799   3.787   6.436  1.4911 -0.5876 -0.7568
  888MOL0     H17203  10.041   3.761   6.516 -0.7175  1.6180  0.0330
  888MOL0     H17204  10.340   3.737   6.665 -0.0726  1.2977  3.6274
  888MOL0     H17205  10.583   3.777   6.649  0.2183 -0.8113 -1.8214
  888MOL0     H17206  10.879   3.464   6.677  0.0723  0.7777  0.9105
  888MOL0     H17207  10.887   3.527   6.838  2.8727 -1.7057  0.1368
  888MOL0     H17208  11.002   3.734   6.749 -3.1005 -0.0154  1.6075
  888MOL0     H17209  11.094   3.586   6.758 -1.7195  0.9903  2.7231
  888MOL0     H17210  11.047   3.738   6.526 -2.1559 -0.0931 -0.0569
  888MOL0     H17211  10.940   3.613   6.501 -0.2981  2.7355 -0.3981
  888MOL0     H17212  11.234   3.591   6.550 -0.9193  0.6906  2.2132
  888MOL0     H17213  11.142   3.439   6.544  0.7520  0.0099  1.4873
  888MOL0     H17214  11.154   3.510   6.134  1.5953  1.4689  0.5993
  888MOL0     H17215  10.681   3.411   6.814  1.1432  1.7516  0.7339
  888MOL0     H17216  10.440   3.342   6.803 -2.6573  1.5470  2.5881
  889MOL0     O17217  10.977   6.376   9.291 -0.2065  0.6245 -0.0142
  889MOL0     C17218  11.090   6.334   9.266 -0.1902 -0.4147  0.8806
  889MOL0     O17219  11.171   6.377   9.168  0.7872  0.1490  0.3653
  889MOL0     C17220  11.132   6.489   9.100  0.0392  0.8613  0.6817
  889MOL0     C17221  11.017   6.480   9.023 -0.1440 -0.4770  0.7108
  889MOL0     C17222  10.955   6.601   8.967  0.0912 -0.5170 -0.0923
  889MOL0     C17223  11.014   6.725   8.999 -1.0578  0.6646 -0.9465
  889MOL0     O17224  10.962   6.839   8.941  0.0159 -0.4564  0.0912
  889MOL0     C17225  11.058   6.941   8.892 -0.5276  1.3021 -0.4849
  889MOL0     C17226  11.004   7.076   8.837  0.4021 -0.6549 -0.8727
  889MOL0     C17227  10.888   7.066   8.733 -0.2863 -0.8232 -0.3796
  889MOL0     C17228  10.939   6.989   8.609  0.9476 -0.0115  0.8446
  889MOL0     C17229  10.841   7.001   8.484 -0.5394  0.0336  0.5665
  889MOL0     C17230  10.700   6.956   8.502 -1.8622  0.3844  0.2725
  889MOL0     C17231  10.595   6.948   8.388  0.4911  0.2853  0.2386
  889MOL0     C17232  10.649   6.899   8.252  0.2766  0.0531  0.6144
  889MOL0     N17233  10.542   6.904   8.154  0.4870 -0.1709 -0.3709
  889MOL0     C17234  10.424   6.832   8.162 -0.6184 -0.3792  0.1662
  889MOL0     C17235  10.355   6.871   8.050 -0.4058 -0.2532 -0.6981
  889MOL0     C17236  10.226   6.832   7.992 -0.4799 -0.1315 -0.3190
  889MOL0     C17237  10.233   6.726   7.884  0.0150 -1.3321  0.8790
  889MOL0     C17238  10.112   6.712   7.788  0.0060 -0.1954 -0.0991
  889MOL0     C17239  10.097   6.836   7.700  1.0704  1.0204 -0.1429
  889MOL0     O17240  10.204   6.857   7.605 -0.5921 -0.4857  0.3142
  889MOL0     C17241  10.205   6.982   7.540  0.1362  0.5733  0.6272
  889MOL0     C17242  10.281   7.085   7.595  0.3408 -0.4168 -1.2734
  889MOL0     C17243  10.314   7.203   7.522  0.3542  0.8175 -0.4385
  889MOL0     C17244  10.267   7.218   7.391  0.9000 -0.1847  0.2955
  889MOL0     C17245  10.301   7.348   7.319  0.4888 -0.4000  0.3307
  889MOL0     O17246  10.224   7.404   7.214 -0.4477 -0.5799 -0.9027
  889MOL0     C17247  10.248   7.522   7.150 -0.0783 -0.0980  0.8271
  889MOL0     C17248  10.155   7.576   7.075 -0.6318  0.2401  0.3781
  889MOL0     C17249  10.161   7.703   7.014  0.3304  0.5042  0.1376
  889MOL0     C17250  10.271   7.786   7.036  0.1106  0.2403 -0.7540
  889MOL0     O17251  10.262   7.909   6.984  0.1958  0.5553  0.0579
  889MOL0     C17252  10.331   8.030   7.048 -0.5473  0.5508 -0.3301
  889MOL0     C17253  10.420   8.115   6.952  0.6387  0.0629 -0.5429
  889MOL0     C17254  10.337   8.157   6.831  0.2326  0.2266 -0.0186
  889MOL0     C17255  10.415   8.257   6.741 -0.3071  0.0557  0.0786
  889MOL0     C17256  10.341   8.283   6.603 -0.2224  0.2863 -0.5265
  889MOL0     C17257  10.196   8.339   6.612 -0.3486  0.2621 -0.0989
  889MOL0     C17258  10.199   8.476   6.689  0.2422 -0.1336 -0.4071
  889MOL0     C17259  10.270   8.599   6.628  0.8955 -0.0810  0.8547
  889MOL0    Cl17260  10.220   8.614   6.452 -0.2391  0.1100  0.1623
  889MOL0     C17261  10.363   7.736   7.120  0.4961 -0.7594 -0.4171
  889MOL0     C17262  10.354   7.604   7.169 -0.0403 -0.1497 -1.1144
  889MOL0     O17263  10.404   7.398   7.360  0.3089 -0.2226  0.2112
  889MOL0     C17264  10.173   7.124   7.335  0.5535  0.0159  0.2717
  889MOL0     C17265  10.142   7.009   7.418 -0.8023 -0.4839  0.4092
  889MOL0     N17266  10.423   6.963   7.978  0.0819  0.6071 -0.3082
  889MOL0     N17267  10.531   6.990   8.039  0.1316  0.3738 -0.5010
  889MOL0     C17268  11.135   6.726   9.069 -0.2222 -0.3195 -0.4913
  889MOL0     C17269  11.190   6.609   9.125  0.0945 -0.3478  0.3217
  889MOL0     C17270  11.138   6.216   9.336 -0.1149 -0.0390 -0.1136
  889MOL0     C17271  11.072   6.171   9.456 -0.5520 -0.3301 -0.3054
  889MOL0     C17272  11.124   6.063   9.532 -0.2058  1.2363  0.0048
  889MOL0     C17273  11.241   6.000   9.490  0.2099  0.1941 -0.2027
  889MOL0     O17274  11.281   5.899   9.565 -0.1095 -0.5024 -0.3657
  889MOL0     C17275  11.401   5.837   9.542  0.1777 -0.3315  1.0511
  889MOL0     C17276  11.429   5.750   9.665  0.7800 -0.1181  0.4116
  889MOL0     C17277  11.562   5.682   9.642  0.7014 -1.3107  1.1985
  889MOL0     C17278  11.579   5.567   9.733  0.5093  0.2287  0.4470
  889MOL0     C17279  11.588   5.598   9.874  0.1986  1.0702  0.5518
  889MOL0     C17280  11.597   5.620   9.991 -0.7370 -0.2710 -0.2616
  889MOL0     C17281  11.304   6.043   9.372  0.3462  0.2214 -0.1762
  889MOL0     C17282  11.252   6.145   9.290 -0.2768 -0.2942 -0.1620
  889MOL0     H17283  10.963   6.387   9.008  1.4029 -1.1106 -1.3848
  889MOL0     H17284  10.868   6.608   8.903  0.7070  0.4108 -0.8449
  889MOL0     H17285  11.121   6.900   8.812  0.5476  2.2614 -0.1579
  889MOL0     H17286  11.116   6.981   8.976 -1.4731  2.1339 -0.2040
  889MOL0     H17287  11.093   7.117   8.789  0.9544 -2.8907 -1.8888
  889MOL0     H17288  10.957   7.134   8.917  1.9704 -2.1866  1.2610
  889MOL0     H17289  10.851   7.163   8.699  0.4145 -1.0386 -1.8115
  889MOL0     H17290  10.802   7.011   8.773 -1.8732 -0.5987 -3.2098
  889MOL0     H17291  11.036   7.025   8.573  1.4601 -1.9212  0.2017
  889MOL0     H17292  10.960   6.884   8.633 -0.9055 -0.5526  0.2511
  889MOL0     H17293  10.883   6.941   8.402 -1.2285 -1.5055  1.2936
  889MOL0     H17294  10.835   7.099   8.436  0.1893 -0.0103  0.3850
  889MOL0     H17295  10.655   7.025   8.574  1.3446  0.8441  2.0495
  889MOL0     H17296  10.717   6.857   8.545 -1.2170  0.1625 -0.4620
  889MOL0     H17297  10.514   6.881   8.416 -0.2706  1.2009  0.2929
  889MOL0     H17298  10.554   7.046   8.361 -1.0998 -0.3496  0.2979
  889MOL0     H17299  10.675   6.793   8.259 -1.5956 -0.9812 -4.2111
  889MOL0     H17300  10.731   6.948   8.201 -1.0051 -0.1835 -1.8311
  889MOL0     H17301  10.382   6.756   8.227 -1.8391 -1.8925 -2.2667
  889MOL0     H17302  10.184   6.929   7.965 -1.9584 -0.3094  1.1028
  889MOL0     H17303  10.153   6.793   8.064 -1.4189 -2.8460 -2.5295
  889MOL0     H17304  10.270   6.632   7.925  1.0889 -0.1687  2.7133
  889MOL0     H17305  10.319   6.763   7.828 -1.2916 -0.2098 -0.4624
  889MOL0     H17306  10.134   6.622   7.730 -2.1632 -1.1980  0.5130
  889MOL0     H17307  10.025   6.696   7.853 -2.1734  3.3641 -1.7911
  889MOL0     H17308  10.086   6.927   7.759  1.0823  1.3720 -0.6791
  889MOL0     H17309  10.000   6.818   7.652 -0.6402  2.3446  2.5548
  889MOL0     H17310  10.328   7.065   7.690 -2.8149 -0.1761  0.4577
  889MOL0     H17311  10.384   7.273   7.566 -1.8598  2.4768  0.6064
  889MOL0     H17312  10.063   7.518   7.075 -1.2097  1.1241  1.0961
  889MOL0     H17313  10.066   7.733   6.971 -1.5541 -3.1002  1.3423
  889MOL0     H17314  10.408   8.012   7.123 -0.1971  2.2944 -0.2195
  889MOL0     H17315  10.254   8.099   7.083  0.2196  1.3313 -0.1537
  889MOL0     H17316  10.498   8.043   6.927 -0.5123 -1.0387 -1.1114
  889MOL0     H17317  10.464   8.202   7.003  2.2040 -1.6784  1.2422
  889MOL0     H17318  10.244   8.206   6.860  0.1226 -0.7970  1.4553
  889MOL0     H17319  10.302   8.066   6.783  5.6206 -2.1341 -0.1867
  889MOL0     H17320  10.434   8.351   6.794  0.2156 -0.6471  1.1719
  889MOL0     H17321  10.514   8.216   6.717 -1.1418 -0.6583 -2.4317
  889MOL0     H17322  10.322   8.192   6.544 -2.8970 -0.2898  1.0662
  889MOL0     H17323  10.402   8.347   6.538  1.0699 -1.1956 -0.8517
  889MOL0     H17324  10.129   8.269   6.663 -0.7913  0.4034 -0.4803
  889MOL0     H17325  10.161   8.346   6.509 -1.2827  1.4859  0.2809
  889MOL0     H17326  10.093   8.498   6.703  0.7687  0.9311  2.7185
  889MOL0     H17327  10.251   8.472   6.785 -1.2064  1.7372  0.5194
  889MOL0     H17328  10.377   8.578   6.626  0.7379 -0.9788 -1.6774
  889MOL0     H17329  10.258   8.688   6.691 -2.6638 -0.1667  0.4880
  889MOL0     H17330  10.437   7.802   7.165 -0.7838  0.8241 -0.5518
  889MOL0     H17331  10.435   7.574   7.236 -1.5285 -2.5866 -0.2933
  889MOL0     H17332  10.138   7.146   7.235 -1.4047  5.2820  1.7918
  889MOL0     H17333  10.079   6.937   7.367 -1.1604  0.8457 -1.1240
  889MOL0     H17334  11.190   6.814   9.100 -3.4391  1.6867 -0.1247
  889MOL0     H17335  11.280   6.610   9.184  1.2756 -0.0904 -1.4134
  889MOL0     H17336  10.990   6.214   9.513  2.4032 -1.6425  5.7311
  889MOL0     H17337  11.076   6.031   9.624  0.7251  1.0585  0.4365
  889MOL0     H17338  11.487   5.905   9.534 -0.7651  0.6755 -1.9141
  889MOL0     H17339  11.393   5.781   9.448 -4.3049  1.7097 -0.0263
  889MOL0     H17340  11.426   5.811   9.756  2.5696  0.0167  0.4226
  889MOL0     H17341  11.340   5.686   9.670 -1.2340  2.5779  2.7982
  889MOL0     H17342  11.633   5.762   9.663 -1.2641 -0.0256  3.3861
  889MOL0     H17343  11.579   5.634   9.545 -0.4830  2.1356 -0.8909
  889MOL0     H17344  11.506   5.490   9.706  1.1240 -0.3412  0.3907
  889MOL0     H17345  11.677   5.524   9.710  1.4227  2.6810 -0.5568
  889MOL0     H17346  11.603   5.634  10.097  1.7921 -4.5987  0.3703
  889MOL0     H17347  11.401   6.011   9.336  0.2014  1.1365 -1.4743
  889MOL0     H17348  11.314   6.178   9.207 -0.1293 -1.2298 -0.4328
  890MOL0     O17349   4.966   8.610   6.969  0.5116  0.4718  0.1549
  890MOL0     C17350   5.043   8.545   6.888  1.0239  0.4504  0.7940
  890MOL0     O17351   4.997   8.470   6.779  0.6781 -0.2657 -0.2144
  890MOL0     C17352   4.860   8.448   6.769  0.6003  0.9197  0.2499
  890MOL0     C17353   4.804   8.477   6.654 -0.1788 -0.3929  0.7394
  890MOL0     C17354   4.670   8.465   6.629  0.1230  0.1666 -0.4730
  890MOL0     C17355   4.585   8.407   6.727  0.9433  0.2830 -0.5351
  890MOL0     O17356   4.464   8.364   6.692 -0.6591 -0.3238 -0.4656
  890MOL0     C17357   4.360   8.336   6.780  0.5169 -0.0992 -0.5229
  890MOL0     C17358   4.232   8.312   6.694  0.5117  0.3807  0.0437
  890MOL0     C17359   4.245   8.178   6.615 -0.3471 -0.5926 -0.0085
  890MOL0     C17360   4.117   8.147   6.538 -0.1777  0.2262 -0.1164
  890MOL0     C17361   4.139   8.017   6.467 -0.6208 -0.0547 -0.0508
  890MOL0     C17362   4.025   7.971   6.378 -0.1369  0.6069 -0.1011
  890MOL0     C17363   3.918   7.929   6.459  0.7414  0.2998 -0.5724
  890MOL0     C17364   3.809   7.866   6.372  0.5624  0.0170  0.3304
  890MOL0     N17365   3.747   7.950   6.265 -0.5252 -0.4475  0.2417
  890MOL0     C17366   3.666   8.062   6.296  0.5103  0.6939 -0.3336
  890MOL0     C17367   3.639   8.118   6.171  0.1793  0.2200 -0.1068
  890MOL0     C17368   3.545   8.235   6.157 -0.1603  0.5196  0.1118
  890MOL0     C17369   3.597   8.357   6.229  0.4389  0.7173  0.6496
  890MOL0     C17370   3.492   8.465   6.240 -0.8790 -0.6703  0.3059
  890MOL0     C17371   3.484   8.546   6.116 -0.3243 -0.3404 -0.4320
  890MOL0     O17372   3.373   8.642   6.124 -0.9138  0.2241 -0.1964
  890MOL0     C17373   3.393   8.759   6.191  0.5753 -0.1857  0.7040
  890MOL0     C17374   3.274   8.816   6.228 -0.6405 -0.0238  1.5757
  890MOL0     C17375   3.270   8.953   6.274  0.0412 -0.0307 -0.3729
  890MOL0     C17376   3.383   9.029   6.286 -0.7853 -0.6896 -0.3403
  890MOL0     C17377   3.373   9.175   6.320 -0.2782 -0.1240  0.1508
  890MOL0     O17378   3.498   9.241   6.312  0.6533 -1.3916 -0.1686
  890MOL0     C17379   3.514   9.376   6.333  0.5374 -0.4525 -0.0548
  890MOL0     C17380   3.422   9.479   6.313  0.4572 -0.6155 -0.6229
  890MOL0     C17381   3.453   9.611   6.321  0.3550 -1.0916  0.1301
  890MOL0     C17382   3.584   9.642   6.364  0.3278  0.1083 -0.1006
  890MOL0     O17383   3.613   9.777   6.390 -0.6430  0.7296  0.2998
  890MOL0     C17384   3.676   9.805   6.508  0.2601  0.6984  0.4024
  890MOL0     C17385   3.653   9.959   6.544 -0.4620 -0.2602  0.4338
  890MOL0     C17386   3.721  10.032   6.432 -0.1906  0.1356  0.5762
  890MOL0     C17387   3.700  10.187   6.454 -0.3904  0.6515 -0.5424
  890MOL0     C17388   3.784  10.280   6.358 -0.0873 -0.2337  0.1862
  890MOL0     C17389   3.730  10.427   6.354  0.7511  0.8278  0.1952
  890MOL0     C17390   3.581  10.434   6.301  0.8113  0.0076  0.1213
  890MOL0     C17391   3.535  10.572   6.274 -0.0878  0.3587 -0.7352
  890MOL0    Cl17392   3.491  10.653   6.426  0.1018  0.1985 -0.1595
  890MOL0     C17393   3.678   9.550   6.386 -0.7683  0.3917 -0.0027
  890MOL0     C17394   3.640   9.415   6.371 -0.7866  0.0328  0.3651
  890MOL0     O17395   3.263   9.219   6.364 -1.4401  0.1302  0.4420
  890MOL0     C17396   3.505   8.963   6.261 -0.4379  0.3053 -0.5720
  890MOL0     C17397   3.510   8.833   6.210  0.6489  0.7868  0.2006
  890MOL0     N17398   3.711   8.047   6.078 -0.8872  0.0035 -0.5927
  890MOL0     N17399   3.778   7.949   6.128 -0.3178 -0.4485 -0.1356
  890MOL0     C17400   4.642   8.382   6.853  0.4294  0.4089 -1.1921
  890MOL0     C17401   4.777   8.393   6.872 -0.3414 -0.2152  0.5632
  890MOL0     C17402   5.190   8.542   6.912 -0.2906 -0.8463 -0.6530
  890MOL0     C17403   5.272   8.497   6.811 -0.2266  0.6611 -0.6412
  890MOL0     C17404   5.409   8.488   6.826  0.1783 -0.8709  0.3419
  890MOL0     C17405   5.468   8.563   6.936  0.3040  0.1392 -0.2835
  890MOL0     O17406   5.603   8.574   6.955 -0.5844  0.7093  0.3153
  890MOL0     C17407   5.669   8.471   7.029  0.5465  0.3350 -0.4253
  890MOL0     C17408   5.666   8.493   7.177 -0.4592 -0.2520 -0.3132
  890MOL0     C17409   5.748   8.620   7.218 -0.5050 -0.8968  1.2384
  890MOL0     C17410   5.750   8.672   7.359  1.2367  0.3355  0.0978
  890MOL0     C17411   5.803   8.576   7.459 -0.2591  0.0728  0.4979
  890MOL0     C17412   5.835   8.501   7.543  0.1088 -0.1956 -0.1163
  890MOL0     C17413   5.387   8.629   7.033 -0.3255  0.4643 -0.3673
  890MOL0     C17414   5.249   8.611   7.019  0.0393  0.5025 -0.7791
  890MOL0     H17415   4.878   8.495   6.578  0.8781 -1.9725  1.3619
  890MOL0     H17416   4.635   8.488   6.529  1.1262  1.1534 -0.6133
  890MOL0     H17417   4.342   8.410   6.859 -1.4354 -1.8873  0.8251
  890MOL0     H17418   4.380   8.241   6.830  0.8686 -0.6324 -1.6358
  890MOL0     H17419   4.205   8.395   6.628 -0.3184 -1.3877 -1.9265
  890MOL0     H17420   4.140   8.306   6.752 -0.6836  0.9465 -1.7019
  890MOL0     H17421   4.253   8.098   6.690 -1.4496  0.7933  1.6661
  890MOL0     H17422   4.330   8.176   6.546  0.3354 -0.3913  0.8042
  890MOL0     H17423   4.036   8.149   6.610  0.3761  0.2092  0.5148
  890MOL0     H17424   4.120   8.235   6.474 -0.8792  3.0658  3.4402
  890MOL0     H17425   4.167   7.944   6.542 -2.1957 -0.9892 -0.3356
  890MOL0     H17426   4.220   8.033   6.395 -0.2526 -1.9280 -0.0927
  890MOL0     H17427   4.054   7.886   6.316 -0.8829  2.1334 -2.6892
  890MOL0     H17428   3.987   8.059   6.324 -1.7933 -0.2867 -0.4803
  890MOL0     H17429   3.943   7.852   6.533 -1.0544  0.8290  0.6713
  890MOL0     H17430   3.881   8.016   6.515  0.1327 -0.7992  0.8113
  890MOL0     H17431   3.745   7.812   6.443  0.2036 -2.0999 -1.5008
  890MOL0     H17432   3.864   7.784   6.325  2.7927  0.6752  1.6486
  890MOL0     H17433   3.627   8.101   6.390  0.5348  1.7047 -0.7263
  890MOL0     H17434   3.450   8.203   6.201 -0.1186  0.9226  0.5092
  890MOL0     H17435   3.531   8.263   6.052 -0.9211 -1.2869 -0.3123
  890MOL0     H17436   3.690   8.387   6.179  0.6449  0.2386  0.7410
  890MOL0     H17437   3.638   8.336   6.329 -0.2235  1.2827  1.0505
  890MOL0     H17438   3.398   8.419   6.269 -0.5757  0.1254  2.8002
  890MOL0     H17439   3.532   8.535   6.315  1.0822 -0.1447 -1.1292
  890MOL0     H17440   3.467   8.489   6.025 -1.1160  0.7685 -1.0056
  890MOL0     H17441   3.582   8.592   6.096  0.2861 -1.5158 -0.2316
  890MOL0     H17442   3.179   8.769   6.204 -1.4104  1.6032  1.3107
  890MOL0     H17443   3.169   8.990   6.292  0.1053 -0.3912  0.8019
  890MOL0     H17444   3.320   9.453   6.291 -0.6117  3.2703 -1.0807
  890MOL0     H17445   3.387   9.693   6.294 -1.4712 -2.7364 -0.7062
  890MOL0     H17446   3.782   9.786   6.491 -0.4079 -0.5197 -3.4989
  890MOL0     H17447   3.635   9.743   6.588  0.7888 -2.2509 -1.4787
  890MOL0     H17448   3.705   9.973   6.639  0.8889  0.6909 -0.4006
  890MOL0     H17449   3.547   9.981   6.552  0.2213  3.0545  2.1959
  890MOL0     H17450   3.676   9.996   6.339 -0.4447 -0.2040  0.8298
  890MOL0     H17451   3.827  10.010   6.421 -0.3071 -2.0206  2.9256
  890MOL0     H17452   3.593  10.210   6.446 -0.2733  1.4530  0.0023
  890MOL0     H17453   3.715  10.221   6.557 -1.7196 -2.0811  0.6623
  890MOL0     H17454   3.785  10.239   6.257  0.4734  0.8880 -0.2807
  890MOL0     H17455   3.889  10.281   6.388  0.0158 -2.1332 -0.0104
  890MOL0     H17456   3.791  10.493   6.292  0.0200  1.5405  0.2157
  890MOL0     H17457   3.738  10.468   6.455 -1.3128 -1.5670  1.4589
  890MOL0     H17458   3.580  10.374   6.210  1.3569 -2.4088  1.6044
  890MOL0     H17459   3.505  10.394   6.369  1.6592 -1.2559  0.3648
  890MOL0     H17460   3.452  10.563   6.204 -0.8683  3.9008 -0.4642
  890MOL0     H17461   3.614  10.634   6.230  0.5768  1.6920  2.0370
  890MOL0     H17462   3.773   9.577   6.430 -1.9162 -0.7592  3.5143
  890MOL0     H17463   3.719   9.342   6.385 -2.4589 -1.5957  1.9190
  890MOL0     H17464   3.598   9.019   6.267 -1.1326  1.5405  5.9710
  890MOL0     H17465   3.606   8.799   6.174  1.0145  2.0672 -0.0829
  890MOL0     H17466   4.575   8.352   6.934 -1.2569  0.8475 -2.3624
  890MOL0     H17467   4.818   8.367   6.970  0.0445 -2.0899 -0.0504
  890MOL0     H17468   5.226   8.460   6.720 -1.1258  1.9593 -0.7368
  890MOL0     H17469   5.482   8.441   6.761  1.1643  0.5298  0.3947
  890MOL0     H17470   5.774   8.474   6.998  0.4104  1.0079 -0.8440
  890MOL0     H17471   5.626   8.372   7.010 -1.0678  0.6657  1.2915
  890MOL0     H17472   5.565   8.492   7.217 -1.2768 -0.9637 -2.2808
  890MOL0     H17473   5.712   8.404   7.222  1.7024 -0.1779 -2.1605
  890MOL0     H17474   5.710   8.703   7.158  0.2070 -0.4992  1.3285
  890MOL0     H17475   5.849   8.594   7.184  0.4532  3.1755  0.4701
  890MOL0     H17476   5.793   8.771   7.378 -2.3280  1.8042  1.3446
  890MOL0     H17477   5.646   8.677   7.391  1.1811 -0.6173  0.0900
  890MOL0     H17478   5.861   8.436   7.625 -0.7067  3.2337  3.1453
  890MOL0     H17479   5.436   8.681   7.115 -0.8730  0.5743 -0.1080
  890MOL0     H17480   5.182   8.639   7.100 -1.7474  0.7613 -2.2999
  891MOL0     O17481  11.077   1.585   8.395  0.4553 -0.0270 -0.7308
  891MOL0     C17482  11.172   1.527   8.444 -0.2816  0.5846 -0.6477
  891MOL0     O17483  11.253   1.446   8.373 -0.3524 -0.4279 -0.0040
  891MOL0     C17484  11.235   1.411   8.241 -0.3654  1.1753 -0.4221
  891MOL0     C17485  11.326   1.314   8.198  0.3213 -0.8868 -0.5224
  891MOL0     C17486  11.329   1.287   8.059 -0.1501  0.6735 -0.4518
  891MOL0     C17487  11.243   1.342   7.967  0.0156 -1.0082 -0.2442
  891MOL0     O17488  11.241   1.329   7.831  0.0472 -0.2748  0.1215
  891MOL0     C17489  11.367   1.381   7.772 -0.0881  0.2486  0.0741
  891MOL0     C17490  11.370   1.364   7.622  0.7058  1.3720  1.1165
  891MOL0     C17491  11.362   1.221   7.563  0.5373 -0.7487 -0.2181
  891MOL0     C17492  11.343   1.219   7.412  0.2341  0.4614 -0.2535
  891MOL0     C17493  11.359   1.084   7.347  0.6794  0.1857 -0.3328
  891MOL0     C17494  11.269   0.968   7.399 -0.6881 -0.4596  0.1693
  891MOL0     C17495  11.289   0.843   7.315 -0.3387  0.0784  0.4217
  891MOL0     C17496  11.234   0.858   7.170 -0.4143  0.4534 -0.1327
  891MOL0     N17497  11.246   0.731   7.099 -0.2429 -0.3766 -0.7901
  891MOL0     C17498  11.165   0.617   7.104  0.4578 -1.1889 -1.1934
  891MOL0     C17499  11.220   0.529   7.029  0.9841 -0.9068 -0.2664
  891MOL0     C17500  11.160   0.388   7.018  1.3440  1.0212  0.0667
  891MOL0     C17501  11.023   0.366   6.942  0.2292 -0.5122 -0.3266
  891MOL0     C17502  10.999   0.447   6.817  0.6195 -0.5570  0.0426
  891MOL0     C17503  10.929   0.578   6.857 -0.6087  0.3486 -0.0279
  891MOL0     O17504  10.937   0.683   6.750 -0.2402 -0.1802  0.2761
  891MOL0     C17505  11.017   0.785   6.770  1.0950 -0.5209 -0.2365
  891MOL0     C17506  11.137   0.800   6.702  0.7058  0.8385 -0.2107
  891MOL0     C17507  11.209   0.913   6.723  0.4960  0.3078 -0.2157
  891MOL0     C17508  11.174   1.017   6.813  0.4443  0.0931  0.5220
  891MOL0     C17509  11.249   1.139   6.835 -1.1463  0.9938  0.5886
  891MOL0     O17510  11.206   1.215   6.938  0.0629  0.4013  0.5287
  891MOL0     C17511  11.267   1.316   6.994 -0.0359  0.1352 -0.1820
  891MOL0     C17512  11.405   1.347   6.974  0.3850 -0.3120 -0.7534
  891MOL0     C17513  11.478   1.447   7.046  0.2025 -0.7691 -0.2453
  891MOL0     C17514  11.406   1.524   7.135 -0.5473 -0.3979  0.1369
  891MOL0     O17515  11.457   1.641   7.190  0.3179  0.1747  0.0510
  891MOL0     C17516  11.546   1.616   7.299  1.3002  0.1551  0.9515
  891MOL0     C17517  11.629   1.748   7.315  0.4226 -0.2706 -0.1102
  891MOL0     C17518  11.656   1.764   7.469 -0.2606  1.0436  0.0032
  891MOL0     C17519  11.545   1.847   7.519  0.0661  0.8452 -0.3786
  891MOL0     C17520  11.594   1.980   7.559  0.7424 -0.2549  0.4681
  891MOL0     C17521  11.471   2.077   7.601 -0.1772  1.0012 -0.2112
  891MOL0     C17522  11.516   2.209   7.663  0.5569 -0.1066  0.6007
  891MOL0     C17523  11.610   2.300   7.578 -0.8012  0.1633 -0.3190
  891MOL0    Cl17524  11.771   2.324   7.649  0.2887 -0.1694 -0.0324
  891MOL0     C17525  11.272   1.492   7.153  0.5812  0.2259 -1.5345
  891MOL0     C17526  11.198   1.394   7.080 -0.6630  0.1128 -0.1532
  891MOL0     O17527  11.344   1.160   6.761  0.0358  0.4615  0.1549
  891MOL0     C17528  11.055   0.984   6.894 -1.0195 -0.6874 -0.1782
  891MOL0     C17529  10.969   0.878   6.860  0.1871 -0.1191 -0.3658
  891MOL0     N17530  11.333   0.576   6.978 -0.2107 -0.1990 -0.3369
  891MOL0     N17531  11.351   0.702   7.024 -0.7914  0.3484  1.1818
  891MOL0     C17532  11.143   1.420   8.021  0.0078 -0.5197 -0.2935
  891MOL0     C17533  11.147   1.459   8.151 -0.1283 -0.2705  0.4174
  891MOL0     C17534  11.198   1.533   8.589  0.2058 -0.3518 -1.0411
  891MOL0     C17535  11.298   1.461   8.654 -0.6579  0.1450  0.2555
  891MOL0     C17536  11.326   1.458   8.791 -0.0669  0.3595  0.1304
  891MOL0     C17537  11.243   1.553   8.871 -0.1615  1.8543 -0.0785
  891MOL0     O17538  11.255   1.558   9.011  0.0484  0.4269  0.0615
  891MOL0     C17539  11.216   1.439   9.079  0.0338  0.6604  0.3482
  891MOL0     C17540  11.261   1.475   9.224 -0.6300 -0.8573  0.1544
  891MOL0     C17541  11.412   1.451   9.247 -0.9576 -0.2660  0.1198
  891MOL0     C17542  11.472   1.529   9.370 -0.7399  1.1648 -1.0441
  891MOL0     C17543  11.587   1.452   9.412 -0.1013 -0.2306  0.6883
  891MOL0     C17544  11.697   1.415   9.434 -0.3504 -0.3237  0.0239
  891MOL0     C17545  11.142   1.621   8.805 -0.1894 -0.1873 -0.2859
  891MOL0     C17546  11.124   1.625   8.670  0.7543 -0.2913 -0.0024
  891MOL0     H17547  11.390   1.275   8.277 -0.6773 -0.1310  0.7095
  891MOL0     H17548  11.404   1.217   8.026 -1.2173 -0.8158  0.1882
  891MOL0     H17549  11.462   1.343   7.809 -0.2470  0.9907  1.3195
  891MOL0     H17550  11.367   1.490   7.784  0.4499  0.0321  2.6623
  891MOL0     H17551  11.468   1.405   7.595 -0.2675  3.3270  0.3582
  891MOL0     H17552  11.297   1.436   7.585  0.3024  1.0727  1.3179
  891MOL0     H17553  11.281   1.174   7.619  1.1366 -1.5181  0.0197
  891MOL0     H17554  11.455   1.170   7.589  0.9970  0.7794  1.3276
  891MOL0     H17555  11.247   1.264   7.386  1.1281  1.2160 -2.4806
  891MOL0     H17556  11.419   1.282   7.365  1.0318 -1.1818 -1.2947
  891MOL0     H17557  11.462   1.053   7.366 -0.1311 -1.2716  2.2253
  891MOL0     H17558  11.347   1.092   7.238  1.5707 -1.1276 -0.5507
  891MOL0     H17559  11.161   0.987   7.395 -0.8295 -0.0410  3.5553
  891MOL0     H17560  11.285   0.951   7.506  0.1857 -0.8436 -0.0160
  891MOL0     H17561  11.394   0.817   7.305  0.2021  2.7383 -2.9699
  891MOL0     H17562  11.236   0.765   7.371 -0.6972 -0.8773 -1.1673
  891MOL0     H17563  11.294   0.929   7.113  0.0838 -0.1233 -0.3373
  891MOL0     H17564  11.134   0.902   7.161  0.3979  1.9800 -2.6347
  891MOL0     H17565  11.077   0.595   7.164  1.3960  0.6256  1.0018
  891MOL0     H17566  11.142   0.368   7.124  1.2819  3.9584  0.6790
  891MOL0     H17567  11.233   0.313   6.986 -0.8090 -1.9020  1.5313
  891MOL0     H17568  10.938   0.384   7.009  0.3674 -2.3219  0.3725
  891MOL0     H17569  11.022   0.260   6.918 -0.4198 -0.7649  0.7604
  891MOL0     H17570  11.099   0.473   6.781  0.4753 -1.1298 -0.8066
  891MOL0     H17571  10.948   0.381   6.746  1.9071  2.0982 -3.6574
  891MOL0     H17572  10.978   0.633   6.938  1.4528 -2.3461  0.6653
  891MOL0     H17573  10.824   0.559   6.883 -0.7368  0.1500 -0.6742
  891MOL0     H17574  11.169   0.731   6.625 -3.3237  1.0601 -2.3374
  891MOL0     H17575  11.309   0.913   6.680 -0.0266  1.2445 -1.4714
  891MOL0     H17576  11.476   1.289   6.916  3.6691  2.4696  0.1370
  891MOL0     H17577  11.583   1.463   7.025 -0.4231  1.5691 -1.9841
  891MOL0     H17578  11.604   1.529   7.266 -0.8828 -0.2989 -2.1501
  891MOL0     H17579  11.480   1.595   7.384 -0.5393  4.0677  0.7210
  891MOL0     H17580  11.586   1.841   7.278  2.3543 -0.8098 -4.2632
  891MOL0     H17581  11.715   1.728   7.252 -1.1289 -1.6834 -1.8967
  891MOL0     H17582  11.750   1.821   7.476 -0.3821  1.5976 -2.1848
  891MOL0     H17583  11.659   1.667   7.520 -0.9383  0.7343 -0.5359
  891MOL0     H17584  11.467   1.870   7.446 -1.6993  1.3849  1.5666
  891MOL0     H17585  11.495   1.791   7.598  2.8479 -1.3745 -0.0303
  891MOL0     H17586  11.659   2.025   7.483  0.0083 -0.4905 -0.3139
  891MOL0     H17587  11.638   1.979   7.659 -3.9704  0.4051  2.8290
  891MOL0     H17588  11.416   2.032   7.685  2.7949  1.1564  1.9892
  891MOL0     H17589  11.400   2.082   7.518  0.4282 -0.3759 -0.8381
  891MOL0     H17590  11.430   2.273   7.685  1.8638  1.1438  2.3211
  891MOL0     H17591  11.560   2.187   7.760 -1.3824 -1.1822  1.2969
  891MOL0     H17592  11.561   2.397   7.591 -0.5982  0.5322 -2.1246
  891MOL0     H17593  11.612   2.286   7.470 -2.2932  1.4719 -0.5446
  891MOL0     H17594  11.215   1.547   7.227  3.5140 -1.0375  1.9521
  891MOL0     H17595  11.095   1.378   7.113  0.1780 -0.9843  2.1959
  891MOL0     H17596  11.023   1.047   6.976 -3.7153 -1.3762 -0.6241
  891MOL0     H17597  10.877   0.868   6.916  0.4720  2.2100  0.6316
  891MOL0     H17598  11.074   1.468   7.953 -0.8770  0.1329  1.0141
  891MOL0     H17599  11.065   1.521   8.186  0.5453 -1.0568  3.7907
  891MOL0     H17600  11.357   1.398   8.587 -2.4595 -3.0825  1.4856
  891MOL0     H17601  11.407   1.399   8.833 -0.2223  1.2039  1.6543
  891MOL0     H17602  11.259   1.348   9.036 -2.6906  0.1963 -1.6390
  891MOL0     H17603  11.108   1.428   9.069 -0.0307 -0.4988  1.8758
  891MOL0     H17604  11.238   1.582   9.229  2.4772  0.2648 -3.7630
  891MOL0     H17605  11.199   1.421   9.296  1.8786 -1.0740  2.3246
  891MOL0     H17606  11.471   1.476   9.159  0.9263 -2.2609  0.7054
  891MOL0     H17607  11.427   1.342   9.250 -1.6686 -0.3598  0.5553
  891MOL0     H17608  11.497   1.627   9.328  1.2240 -0.6652 -4.6305
  891MOL0     H17609  11.401   1.556   9.449 -1.4058 -0.8770 -0.8850
  891MOL0     H17610  11.797   1.391   9.464 -0.6741 -4.5100 -1.4949
  891MOL0     H17611  11.095   1.692   8.873  1.6402  1.1543 -0.3404
  891MOL0     H17612  11.042   1.682   8.629 -0.2824 -0.0092  2.2805
  892MOL0     O17613   0.325  10.576   3.232 -0.2064 -0.6214  0.3439
  892MOL0     C17614   0.259  10.673   3.255 -0.4789 -0.2760  0.4410
  892MOL0     O17615   0.129  10.678   3.253 -0.0159 -0.1734  0.2385
  892MOL0     C17616   0.062  10.571   3.209 -0.3242  0.1168  0.2172
  892MOL0     C17617   0.068  10.521   3.081 -0.1723  0.0266  0.3317
  892MOL0     C17618  -0.013  10.416   3.038  0.1328 -0.6364 -0.0423
  892MOL0     C17619  -0.116  10.365   3.121  0.7231  1.1294 -0.0809
  892MOL0     O17620  -0.196  10.264   3.071 -0.0448  0.3394  0.1901
  892MOL0     C17621  -0.235  10.160   3.160 -0.9372 -0.0002  0.1241
  892MOL0     C17622  -0.250  10.039   3.062 -0.0956 -1.0068  0.2074
  892MOL0     C17623  -0.268   9.907   3.144  0.2184 -0.4168  0.5393
  892MOL0     C17624  -0.188   9.792   3.061 -0.0834 -0.1447  0.1908
  892MOL0     C17625  -0.158   9.665   3.128  0.9404 -0.2444 -0.2105
  892MOL0     C17626  -0.304   9.607   3.147 -0.2036  1.0064 -0.8027
  892MOL0     C17627  -0.273   9.468   3.205  0.7399 -0.8199  0.6509
  892MOL0     C17628  -0.388   9.389   3.254  0.5513 -0.1203  0.8184
  892MOL0     N17629  -0.475   9.330   3.151  1.1158  0.0044  0.5039
  892MOL0     C17630  -0.431   9.262   3.043 -0.2721  0.6405 -0.2156
  892MOL0     C17631  -0.532   9.246   2.955  0.3173 -0.1856 -0.2845
  892MOL0     C17632  -0.506   9.178   2.824  0.6206  0.2317 -0.5258
  892MOL0     C17633  -0.398   9.250   2.741 -0.8545  0.0341  0.3136
  892MOL0     C17634  -0.398   9.227   2.589 -0.4549  0.6602 -0.4765
  892MOL0     C17635  -0.351   9.084   2.543  0.3377 -0.0719 -1.4471
  892MOL0     O17636  -0.390   9.079   2.404 -0.1417  0.0871 -0.9944
  892MOL0     C17637  -0.500   8.999   2.378 -0.4024 -0.1551 -0.2820
  892MOL0     C17638  -0.610   8.969   2.460  0.0314 -0.1151 -1.0660
  892MOL0     C17639  -0.726   8.904   2.407 -0.4994 -0.1073 -0.2306
  892MOL0     C17640  -0.739   8.874   2.274  1.3072  0.0605 -0.2413
  892MOL0     C17641  -0.860   8.802   2.231  0.0416 -0.1932 -0.5546
  892MOL0     O17642  -0.953   8.785   2.328  0.1844  0.5298 -0.4744
  892MOL0     C17643  -1.076   8.741   2.311 -0.4903 -0.2202 -0.2979
  892MOL0     C17644  -1.134   8.659   2.419 -0.2991 -0.4834  0.1741
  892MOL0     C17645  -1.268   8.618   2.390  0.4543 -1.1054 -0.9209
  892MOL0     C17646  -1.336   8.640   2.268  0.7994 -1.0080 -0.5392
  892MOL0     O17647  -1.472   8.625   2.245 -0.4954  0.2440  0.1654
  892MOL0     C17648  -1.491   8.484   2.260 -0.4067  0.0645  0.7439
  892MOL0     C17649  -1.633   8.441   2.242  0.3721  0.8317 -1.1629
  892MOL0     C17650  -1.697   8.427   2.390  0.3642 -0.7188 -0.2134
  892MOL0     C17651  -1.844   8.398   2.389 -0.1525 -0.6380 -0.3016
  892MOL0     C17652  -1.893   8.377   2.531 -0.9131  0.9372 -0.3651
  892MOL0     C17653  -2.031   8.342   2.544  0.2441 -0.5688  0.1429
  892MOL0     C17654  -2.057   8.352   2.688  0.4028  0.9904  0.4883
  892MOL0     C17655  -2.212   8.351   2.708 -0.1330  0.0232  0.0424
  892MOL0    Cl17656  -2.312   8.202   2.665  0.2139 -0.2322 -0.1957
  892MOL0     C17657  -1.276   8.715   2.167 -0.2635 -0.2031  0.8640
  892MOL0     C17658  -1.147   8.760   2.186  0.3207  0.1518 -0.2356
  892MOL0     O17659  -0.858   8.765   2.115  0.5371 -0.2628 -0.3027
  892MOL0     C17660  -0.635   8.916   2.187 -0.3404 -0.6513  0.0239
  892MOL0     C17661  -0.511   8.959   2.240 -0.2881  0.5170 -0.6935
  892MOL0     N17662  -0.635   9.327   2.999  0.4972 -0.5337 -0.4811
  892MOL0     N17663  -0.600   9.370   3.110  0.1414  0.3075  0.0008
  892MOL0     C17664  -0.135  10.429   3.248  0.2220  0.1388 -0.1158
  892MOL0     C17665  -0.043  10.525   3.290 -0.2634 -0.1973 -0.1024
  892MOL0     C17666   0.323  10.801   3.297  0.8462 -0.4674  0.1964
  892MOL0     C17667   0.446  10.800   3.349  0.5309  0.1456  0.0699
  892MOL0     C17668   0.513  10.916   3.379 -0.1342  0.2861  0.9863
  892MOL0     C17669   0.457  11.045   3.367  0.5485 -0.4309 -0.0751
  892MOL0     O17670   0.530  11.146   3.430 -0.2920  0.0617 -0.2181
  892MOL0     C17671   0.448  11.254   3.478 -0.1124  0.2165 -0.4137
  892MOL0     C17672   0.551  11.359   3.536  0.9449  1.1468  0.2338
  892MOL0     C17673   0.594  11.326   3.681  0.3482 -0.2235  0.3901
  892MOL0     C17674   0.644  11.448   3.779 -0.8062  1.4087  0.5652
  892MOL0     C17675   0.719  11.549   3.698  0.3539 -0.0814  0.4282
  892MOL0     C17676   0.789  11.625   3.641 -0.5862  0.0345  0.5910
  892MOL0     C17677   0.325  11.044   3.319  0.0619  0.0675  0.3346
  892MOL0     C17678   0.257  10.928   3.293  0.4337 -0.0964 -0.0390
  892MOL0     H17679   0.136  10.565   3.009  0.5974 -5.0559 -2.5155
  892MOL0     H17680   0.011  10.392   2.935  0.8140 -1.6731  0.3365
  892MOL0     H17681  -0.334  10.187   3.198  0.2318  1.1416  2.5709
  892MOL0     H17682  -0.160  10.144   3.238  0.4275  0.2780 -1.0919
  892MOL0     H17683  -0.163  10.023   2.997  1.3386 -5.0510  2.7336
  892MOL0     H17684  -0.333  10.052   2.991  1.4281  0.3835 -1.4066
  892MOL0     H17685  -0.374   9.880   3.141  0.1371 -0.2931  1.7991
  892MOL0     H17686  -0.239   9.915   3.249 -0.0319  1.4639  0.5127
  892MOL0     H17687  -0.239   9.774   2.966  0.3135 -0.4437  0.0359
  892MOL0     H17688  -0.096   9.845   3.035 -0.5412  0.6789  0.2146
  892MOL0     H17689  -0.109   9.696   3.221  0.1175 -2.1638  0.9130
  892MOL0     H17690  -0.088   9.606   3.070  3.7128 -0.2052  2.8031
  892MOL0     H17691  -0.344   9.594   3.046 -0.4440  2.5561 -0.9354
  892MOL0     H17692  -0.373   9.665   3.209 -0.3576 -1.3503  1.3639
  892MOL0     H17693  -0.220   9.407   3.131 -0.3449 -0.9750 -0.0186
  892MOL0     H17694  -0.202   9.485   3.287 -0.0948  0.3617  1.1551
  892MOL0     H17695  -0.448   9.459   3.312 -0.6665  2.2234 -2.9382
  892MOL0     H17696  -0.343   9.319   3.325  1.0074  0.6677  1.3138
  892MOL0     H17697  -0.334   9.217   3.028 -0.7586 -0.0275 -1.5649
  892MOL0     H17698  -0.598   9.192   2.766 -0.0047  2.6718  0.9256
  892MOL0     H17699  -0.493   9.070   2.836  0.1113  0.4375  2.7164
  892MOL0     H17700  -0.306   9.223   2.794 -0.3776 -0.4848 -0.7524
  892MOL0     H17701  -0.400   9.359   2.751  4.5251  0.6211 -1.5096
  892MOL0     H17702  -0.503   9.223   2.560 -0.7330 -1.4953  0.6769
  892MOL0     H17703  -0.347   9.314   2.545  1.4773  1.4108  2.9249
  892MOL0     H17704  -0.396   9.006   2.605 -1.8463  2.3454  0.2075
  892MOL0     H17705  -0.245   9.075   2.568  0.8182  0.4287 -3.1303
  892MOL0     H17706  -0.612   8.996   2.565 -2.2164  2.5423 -1.6762
  892MOL0     H17707  -0.811   8.877   2.470  0.4208 -1.6440  0.3915
  892MOL0     H17708  -1.089   8.631   2.514 -5.1989 -1.1357  2.5974
  892MOL0     H17709  -1.333   8.581   2.469  1.1739 -2.9321 -1.1332
  892MOL0     H17710  -1.450   8.445   2.353  1.3173  1.6073  0.6683
  892MOL0     H17711  -1.431   8.433   2.184 -2.2534 -1.3928  0.1746
  892MOL0     H17712  -1.639   8.346   2.188 -1.2488  0.6040 -0.6522
  892MOL0     H17713  -1.685   8.521   2.189  0.2501  2.0025  0.6294
  892MOL0     H17714  -1.704   8.530   2.425 -2.6601 -1.3134  1.2793
  892MOL0     H17715  -1.642   8.359   2.456  2.3191  0.6940 -0.3045
  892MOL0     H17716  -1.896   8.485   2.347  1.2904 -0.3834 -1.6509
  892MOL0     H17717  -1.864   8.309   2.328 -0.0745 -2.4293  2.1493
  892MOL0     H17718  -1.859   8.453   2.602 -1.9816 -1.3101  2.7511
  892MOL0     H17719  -1.835   8.290   2.563  0.8952  1.3115 -2.3444
  892MOL0     H17720  -2.066   8.257   2.485 -3.9309  1.8078 -1.1582
  892MOL0     H17721  -2.082   8.423   2.491  0.2983 -0.7909 -0.2557
  892MOL0     H17722  -2.018   8.260   2.732  1.0730  0.8430 -0.3633
  892MOL0     H17723  -2.020   8.441   2.739  1.7560  2.1493 -2.2475
  892MOL0     H17724  -2.253   8.438   2.657 -4.1512 -1.8867 -0.4086
  892MOL0     H17725  -2.239   8.372   2.811 -1.3557 -0.6901 -0.1115
  892MOL0     H17726  -1.335   8.739   2.079  0.4127  2.5159  1.0766
  892MOL0     H17727  -1.102   8.815   2.103 -1.6879  1.0004 -0.8343
  892MOL0     H17728  -0.658   8.901   2.082 -2.0657  2.8435 -0.2402
  892MOL0     H17729  -0.433   9.000   2.177  0.0874  1.5557  0.4135
  892MOL0     H17730  -0.207  10.395   3.322  1.0102 -1.8576 -0.1884
  892MOL0     H17731  -0.049  10.565   3.391 -0.5719  3.0720 -1.2805
  892MOL0     H17732   0.481  10.698   3.364 -1.5244 -0.6334 -0.0356
  892MOL0     H17733   0.611  10.910   3.425  0.5758  1.7944 -0.2484
  892MOL0     H17734   0.378  11.207   3.548  1.7129 -3.5446 -0.8816
  892MOL0     H17735   0.398  11.294   3.389 -0.0053 -2.6700 -1.8892
  892MOL0     H17736   0.636  11.366   3.468 -0.0990  2.4790 -1.0135
  892MOL0     H17737   0.500  11.456   3.542  1.5295  1.4502  0.3806
  892MOL0     H17738   0.675  11.253   3.677  0.4032 -0.1047 -2.1932
  892MOL0     H17739   0.503  11.283   3.725 -0.5221  0.0131 -1.0876
  892MOL0     H17740   0.553  11.505   3.799 -2.0251  0.9728 -2.9806
  892MOL0     H17741   0.691  11.434   3.877 -3.2750  3.0190  2.0989
  892MOL0     H17742   0.857  11.692   3.594 -0.8026  1.4110  2.1397
  892MOL0     H17743   0.273  11.136   3.294  1.3979  0.3894 -1.4774
  892MOL0     H17744   0.158  10.948   3.253  1.1761  1.2443 -1.3055
  893MOL0     O17745   1.889   4.181   5.185  0.6129 -0.4317  0.3612
  893MOL0     C17746   1.941   4.152   5.077  0.6244  0.5618  0.0054
  893MOL0     O17747   1.892   4.065   4.985 -0.0566 -0.1167  0.7749
  893MOL0     C17748   1.771   3.996   5.009 -0.5977  0.8449 -0.6615
  893MOL0     C17749   1.655   4.010   4.925 -0.3658  0.2447 -0.3186
  893MOL0     C17750   1.539   3.944   4.958  0.3871  0.3283  0.6071
  893MOL0     C17751   1.532   3.857   5.069 -0.1271 -0.1055  0.5322
  893MOL0     O17752   1.414   3.822   5.122  0.4882  0.1763  0.0468
  893MOL0     C17753   1.327   3.760   5.032  0.5148  0.2832 -1.3897
  893MOL0     C17754   1.202   3.833   5.003 -0.1742 -0.0487 -0.0053
  893MOL0     C17755   1.105   3.754   4.904  0.0425 -0.0044  0.3081
  893MOL0     C17756   0.964   3.819   4.891  0.3889  0.4348  0.3344
  893MOL0     C17757   0.862   3.737   4.803 -0.9764  0.3155  0.5046
  893MOL0     C17758   0.913   3.714   4.662 -0.4519  0.0121  0.6289
  893MOL0     C17759   0.809   3.654   4.571 -0.1916 -0.0544 -0.2972
  893MOL0     C17760   0.778   3.501   4.589  0.4595  0.1698 -0.0923
  893MOL0     N17761   0.659   3.449   4.512 -0.2597 -0.2209  0.1066
  893MOL0     C17762   0.626   3.501   4.393 -0.0915 -0.3201  0.2411
  893MOL0     C17763   0.493   3.466   4.375  0.7490 -0.3400 -0.3427
  893MOL0     C17764   0.395   3.507   4.260 -0.4112  0.7863  0.6040
  893MOL0     C17765   0.365   3.396   4.159 -1.0155 -0.6137  0.1472
  893MOL0     C17766   0.266   3.292   4.219  0.4389 -0.3647 -0.0108
  893MOL0     C17767   0.240   3.172   4.135  0.1760 -0.0551  1.1241
  893MOL0     O17768   0.152   3.214   4.028  0.6194 -0.0521 -0.5263
  893MOL0     C17769   0.113   3.116   3.940 -0.6834  0.4633 -1.0983
  893MOL0     C17770   0.157   2.986   3.940 -0.3967 -0.2997  0.5138
  893MOL0     C17771   0.114   2.885   3.844  0.1701  0.3586  0.4709
  893MOL0     C17772   0.039   2.927   3.734  1.3296  0.9957 -0.2418
  893MOL0     C17773   0.016   2.830   3.630 -0.9252  0.5351  0.4919
  893MOL0     O17774  -0.019   2.876   3.507 -0.2795  0.4465  0.1605
  893MOL0     C17775  -0.051   2.778   3.420  1.1365 -0.6877  0.0552
  893MOL0     C17776   0.059   2.728   3.353  0.0300 -0.0809  0.2994
  893MOL0     C17777   0.046   2.629   3.255  0.1085  0.2676 -0.9849
  893MOL0     C17778  -0.083   2.569   3.232  0.1811 -0.8944  0.8087
  893MOL0     O17779  -0.102   2.475   3.130 -0.5642  0.5695 -0.2592
  893MOL0     C17780  -0.002   2.386   3.070 -0.8098  0.2318 -0.6944
  893MOL0     C17781  -0.060   2.253   3.027 -0.7795 -0.2374  0.2723
  893MOL0     C17782  -0.101   2.153   3.137  0.2689 -0.2304 -0.5603
  893MOL0     C17783  -0.018   2.177   3.263 -0.3714  0.5223 -0.0835
  893MOL0     C17784  -0.023   2.043   3.351 -0.0743 -0.5038 -0.1676
  893MOL0     C17785   0.058   2.063   3.482  0.9601  0.2728  1.1297
  893MOL0     C17786   0.030   2.180   3.574  0.4291 -0.9773  0.2553
  893MOL0     C17787   0.138   2.163   3.683  0.2471  0.1622  0.4189
  893MOL0    Cl17788   0.142   2.294   3.812 -0.2268 -0.4661  0.0824
  893MOL0     C17789  -0.198   2.639   3.286 -0.6132  0.2735 -1.5691
  893MOL0     C17790  -0.180   2.727   3.395 -0.5280  1.0285 -0.7460
  893MOL0     O17791   0.032   2.710   3.652  0.3200  0.3559 -0.1131
  893MOL0     C17792  -0.017   3.055   3.740  0.0715 -0.3326  1.1005
  893MOL0     C17793   0.024   3.147   3.834  0.3097 -0.1075 -0.1656
  893MOL0     N17794   0.453   3.387   4.481 -0.3762 -0.0367 -0.3430
  893MOL0     N17795   0.557   3.374   4.569 -0.2104 -0.5354 -0.7308
  893MOL0     C17796   1.649   3.832   5.143  0.1120  0.3090 -0.4025
  893MOL0     C17797   1.760   3.903   5.120 -0.5350 -0.4786  0.3010
  893MOL0     C17798   2.069   4.212   5.038 -0.3327  0.0471  0.0715
  893MOL0     C17799   2.119   4.203   4.898  0.9161 -0.1257 -0.4690
  893MOL0     C17800   2.240   4.269   4.876 -0.3930  0.1677  0.0942
  893MOL0     C17801   2.312   4.336   4.972 -0.4971 -0.9881 -1.0176
  893MOL0     O17802   2.434   4.382   4.920 -0.0367 -0.3011 -0.9273
  893MOL0     C17803   2.510   4.475   5.000  0.6741 -0.1194  0.0396
  893MOL0     C17804   2.458   4.608   4.978 -0.3410 -0.4208 -0.6800
  893MOL0     C17805   2.555   4.725   5.025  0.4602 -1.0933  0.8028
  893MOL0     C17806   2.541   4.771   5.161 -0.0531  0.0081 -1.0533
  893MOL0     C17807   2.662   4.823   5.223 -0.4997 -0.9122 -0.7485
  893MOL0     C17808   2.760   4.868   5.278 -0.3939 -0.6467 -0.3688
  893MOL0     C17809   2.267   4.339   5.108  1.3102  0.0834 -0.2462
  893MOL0     C17810   2.145   4.265   5.140 -0.0899 -1.0075  0.5933
  893MOL0     H17811   1.655   4.082   4.844  1.0607 -2.1630 -2.6200
  893MOL0     H17812   1.460   3.970   4.888  3.4759  1.6547 -2.6907
  893MOL0     H17813   1.298   3.667   5.081  0.1178  0.5353 -1.1438
  893MOL0     H17814   1.373   3.728   4.938  0.8306 -1.2824 -0.7172
  893MOL0     H17815   1.231   3.932   4.967 -2.3444  1.2092  1.4518
  893MOL0     H17816   1.154   3.849   5.100  0.6051 -0.5641  0.4845
  893MOL0     H17817   1.091   3.652   4.941  1.9080 -0.2634  0.4102
  893MOL0     H17818   1.151   3.756   4.804  1.3104  0.4425  0.8817
  893MOL0     H17819   0.912   3.830   4.986 -0.0909 -0.8328  0.2420
  893MOL0     H17820   0.970   3.915   4.839 -2.5766  0.3476 -0.3777
  893MOL0     H17821   0.774   3.802   4.799  1.7124  4.4094  2.0686
  893MOL0     H17822   0.853   3.640   4.854 -2.9627 -0.1913 -0.6775
  893MOL0     H17823   0.984   3.636   4.691 -1.8634 -1.0108  1.4659
  893MOL0     H17824   0.965   3.799   4.617  2.6801 -0.4213  3.0292
  893MOL0     H17825   0.715   3.710   4.576 -0.1620 -0.0942  2.2258
  893MOL0     H17826   0.844   3.674   4.469 -2.6431 -0.1340 -1.2221
  893MOL0     H17827   0.760   3.483   4.696  0.5066 -4.9857 -0.6844
  893MOL0     H17828   0.868   3.443   4.566  0.3607 -1.0627  2.2428
  893MOL0     H17829   0.675   3.578   4.334  2.2931 -1.4772  0.5891
  893MOL0     H17830   0.440   3.592   4.209 -1.4830 -0.0300 -1.8611
  893MOL0     H17831   0.300   3.544   4.299 -1.2636  1.2786 -1.8147
  893MOL0     H17832   0.463   3.353   4.135  0.2802  1.8535  0.5805
  893MOL0     H17833   0.338   3.451   4.068  2.4955 -0.8447 -1.2152
  893MOL0     H17834   0.293   3.246   4.314  1.1937 -1.1477 -0.5965
  893MOL0     H17835   0.167   3.339   4.229  0.3795 -0.7042  1.1283
  893MOL0     H17836   0.190   3.093   4.191 -0.9114 -0.6735 -0.6313
  893MOL0     H17837   0.330   3.137   4.083 -1.1356  1.2418 -2.3567
  893MOL0     H17838   0.238   2.954   4.005 -0.3810 -3.2448 -0.7986
  893MOL0     H17839   0.172   2.795   3.861  0.5544  0.5292  0.0900
  893MOL0     H17840   0.153   2.781   3.356  2.6140 -4.2193  2.9099
  893MOL0     H17841   0.123   2.594   3.188  0.5881  0.4907 -0.5532
  893MOL0     H17842   0.086   2.375   3.134  2.7178  3.7967 -4.3493
  893MOL0     H17843   0.035   2.440   2.983 -1.9055 -0.3682 -1.5661
  893MOL0     H17844   0.006   2.201   2.957  2.8712  2.3787  1.4946
  893MOL0     H17845  -0.146   2.274   2.963  0.3217  1.9056 -0.5800
  893MOL0     H17846  -0.088   2.054   3.091 -0.5176  0.5918 -2.6941
  893MOL0     H17847  -0.203   2.180   3.163  1.4775  3.0393  1.3802
  893MOL0     H17848   0.084   2.213   3.251 -0.6422  0.7869 -1.8321
  893MOL0     H17849  -0.078   2.253   3.316 -2.0083 -1.7112  1.4454
  893MOL0     H17850   0.020   1.958   3.298  1.8752  1.1998 -1.4435
  893MOL0     H17851  -0.127   2.015   3.372 -1.2163  0.6699 -3.6018
  893MOL0     H17852   0.164   2.069   3.454  1.1851 -0.6442  1.7590
  893MOL0     H17853   0.051   1.968   3.536  1.8389  0.4729  1.6083
  893MOL0     H17854   0.055   2.276   3.527 -0.5152  0.6576  2.8631
  893MOL0     H17855  -0.074   2.194   3.606 -1.3385 -1.1390 -4.5401
  893MOL0     H17856   0.238   2.164   3.638  0.1282 -1.1831  0.0917
  893MOL0     H17857   0.126   2.066   3.731  1.4749  0.8535  2.2299
  893MOL0     H17858  -0.300   2.605   3.273 -0.5449 -1.1075  0.9599
  893MOL0     H17859  -0.270   2.749   3.450 -2.0816 -4.5577 -0.4119
  893MOL0     H17860  -0.087   3.089   3.665 -0.1885  0.2608  1.5999
  893MOL0     H17861   0.002   3.252   3.822 -1.3563 -0.4267 -0.1043
  893MOL0     H17862   1.643   3.775   5.235 -0.3601 -1.0259 -1.2405
  893MOL0     H17863   1.836   3.909   5.198 -2.5606  1.0967  2.3031
  893MOL0     H17864   2.068   4.146   4.821 -0.6077 -0.1765  0.5466
  893MOL0     H17865   2.292   4.266   4.781  0.6774  2.7149  0.4975
  893MOL0     H17866   2.614   4.477   4.967  0.7347 -0.2296  0.2201
  893MOL0     H17867   2.522   4.442   5.104  0.9278  0.7351  0.2918
  893MOL0     H17868   2.437   4.627   4.873  0.2521 -2.5294 -1.2289
  893MOL0     H17869   2.360   4.605   5.027  0.0536 -0.9926  0.0981
  893MOL0     H17870   2.529   4.811   4.963  0.2123 -2.4257 -1.0392
  893MOL0     H17871   2.661   4.709   5.004 -0.0617 -0.4676 -2.9017
  893MOL0     H17872   2.456   4.839   5.171 -0.0327 -0.2306  1.1441
  893MOL0     H17873   2.513   4.683   5.220  0.1654 -0.1966 -1.2515
  893MOL0     H17874   2.844   4.902   5.335 -0.8334  0.5403 -0.3983
  893MOL0     H17875   2.318   4.388   5.191  2.1818 -1.5662  0.2395
  893MOL0     H17876   2.111   4.273   5.242  1.0177 -0.2208  0.9281
  894MOL0     O17877   1.385   4.166   9.296 -0.7005  0.4873 -0.1069
  894MOL0     C17878   1.312   4.251   9.252  0.5195  0.5321  0.0832
  894MOL0     O17879   1.314   4.386   9.272 -0.2598  0.0464 -0.5735
  894MOL0     C17880   1.421   4.458   9.324  0.2263 -0.0271 -0.1318
  894MOL0     C17881   1.407   4.592   9.298 -0.1228 -0.6795 -0.1426
  894MOL0     C17882   1.507   4.682   9.331 -0.2325 -0.0460 -0.7016
  894MOL0     C17883   1.621   4.638   9.395  0.2085  1.0557 -0.3549
  894MOL0     O17884   1.734   4.721   9.421 -0.5461 -0.0547 -0.3453
  894MOL0     C17885   1.694   4.857   9.433 -0.1901 -0.5724  0.4980
  894MOL0     C17886   1.821   4.922   9.480 -0.3929 -0.7655 -0.0075
  894MOL0     C17887   1.829   4.946   9.638  0.1346  1.1976  0.2935
  894MOL0     C17888   1.737   5.054   9.694  0.2618 -0.7621 -0.6268
  894MOL0     C17889   1.776   5.122   9.819 -0.3308  0.9303  0.8804
  894MOL0     C17890   1.693   5.256   9.838 -0.6190  0.7707 -0.3189
  894MOL0     C17891   1.760   5.346   9.940 -0.0624 -0.1493  0.3084
  894MOL0     C17892   1.687   5.479   9.967 -0.3125 -0.1111 -0.8518
  894MOL0     N17893   1.647   5.555   9.851 -0.2780  0.5029 -0.1282
  894MOL0     C17894   1.727   5.639   9.787 -0.2989 -0.4537 -0.9612
  894MOL0     C17895   1.650   5.667   9.676  0.4802 -0.4090 -0.7553
  894MOL0     C17896   1.704   5.749   9.573 -0.2965 -0.7139 -0.1964
  894MOL0     C17897   1.601   5.843   9.518 -0.5312 -0.0018 -0.1264
  894MOL0     C17898   1.655   5.949   9.408  0.0829 -0.1542  0.2703
  894MOL0     C17899   1.547   6.061   9.395  0.1270 -0.7985  0.8200
  894MOL0     O17900   1.596   6.178   9.323  0.1364 -0.1491 -0.6703
  894MOL0     C17901   1.647   6.285   9.394  0.3336 -0.7418  0.9232
  894MOL0     C17902   1.626   6.302   9.526 -0.7888  0.6743 -0.3071
  894MOL0     C17903   1.667   6.416   9.590  0.1234  0.3990 -0.1304
  894MOL0     C17904   1.746   6.509   9.530 -0.1675 -0.3117  0.1249
  894MOL0     C17905   1.817   6.618   9.613 -0.7413 -0.1561 -1.4621
  894MOL0     O17906   1.740   6.673   9.718  0.3266 -0.5104  0.1613
  894MOL0     C17907   1.791   6.777   9.790 -0.7594  0.0218 -0.2024
  894MOL0     C17908   1.803   6.766   9.927 -1.1630  0.0189  0.6761
  894MOL0     C17909   1.833   6.877  10.001  0.4194 -0.1198  1.0390
  894MOL0     C17910   1.859   6.997   9.937 -0.1180  0.2968 -1.3889
  894MOL0     O17911   1.889   7.103  10.013  0.1241 -0.1560 -0.3436
  894MOL0     C17912   1.837   7.117  10.149  0.0775  0.1181  0.2485
  894MOL0     C17913   1.941   7.092  10.254  0.9972  0.6338 -1.0698
  894MOL0     C17914   1.955   7.204  10.355 -0.2836 -0.2094  1.0115
  894MOL0     C17915   1.847   7.220  10.457 -0.0334 -0.0996  0.2097
  894MOL0     C17916   1.900   7.327  10.557  0.6651 -0.2071 -0.5363
  894MOL0     C17917   1.785   7.372  10.647 -0.0532  0.2397  0.3166
  894MOL0     C17918   1.687   7.471  10.573 -0.9316  0.1514 -0.7928
  894MOL0     C17919   1.576   7.524  10.661  0.9719  0.1179  0.1379
  894MOL0    Cl17920   1.644   7.602  10.815  0.0821  0.0530 -0.0817
  894MOL0     C17921   1.853   7.011   9.802 -0.4084  0.4769  0.8824
  894MOL0     C17922   1.809   6.900   9.728 -0.3014 -0.3752 -0.0147
  894MOL0     O17923   1.932   6.643   9.586  0.0096 -0.0800 -0.5890
  894MOL0     C17924   1.775   6.486   9.397 -0.9360 -0.5490 -0.4178
  894MOL0     C17925   1.726   6.376   9.325  0.5273  0.4069  0.9837
  894MOL0     N17926   1.534   5.599   9.683  0.8297 -0.2672  1.0384
  894MOL0     N17927   1.531   5.532   9.787  0.1660  0.6713 -0.0571
  894MOL0     C17928   1.638   4.501   9.410 -0.2733 -0.6444 -0.2342
  894MOL0     C17929   1.534   4.410   9.383  0.6756 -0.1009  0.0805
  894MOL0     C17930   1.192   4.220   9.179  0.9647  0.1246  0.4889
  894MOL0     C17931   1.141   4.082   9.180 -0.2817  0.3332  0.3953
  894MOL0     C17932   1.018   4.047   9.105 -1.3289 -0.0885 -0.6920
  894MOL0     C17933   0.955   4.144   9.032 -0.8625 -0.5866  0.1842
  894MOL0     O17934   0.842   4.125   8.948  0.9113  0.0476  0.1065
  894MOL0     C17935   0.808   3.990   8.912  0.1265 -0.6895 -0.2321
  894MOL0     C17936   0.696   3.997   8.810 -0.9908 -0.3427  1.2772
  894MOL0     C17937   0.582   4.082   8.859  0.5124 -0.0801 -0.2395
  894MOL0     C17938   0.447   4.061   8.789 -0.2521 -0.4658  0.5366
  894MOL0     C17939   0.349   4.166   8.832  0.0352  0.3451 -0.3890
  894MOL0     C17940   0.262   4.246   8.851  0.2407 -0.1532 -0.0844
  894MOL0     C17941   0.998   4.274   9.034 -0.3158  0.0781  0.6467
  894MOL0     C17942   1.107   4.312   9.110 -0.1134 -0.4247 -0.0431
  894MOL0     H17943   1.329   4.633   9.236  2.0367 -0.2259 -2.7244
  894MOL0     H17944   1.519   4.778   9.281 -1.1148  0.8539  0.7361
  894MOL0     H17945   1.611   4.889   9.497  0.3190 -0.5937  1.1885
  894MOL0     H17946   1.679   4.897   9.332 -3.4090 -0.1413  1.0480
  894MOL0     H17947   1.844   5.023   9.445 -1.4036 -0.6913 -0.4883
  894MOL0     H17948   1.905   4.859   9.448  0.6558  1.9686 -3.2087
  894MOL0     H17949   1.934   4.957   9.667  1.0207  0.5470 -2.4007
  894MOL0     H17950   1.793   4.852   9.678  0.3664  1.6434  1.6066
  894MOL0     H17951   1.723   5.121   9.608 -0.9185 -1.4687 -1.0110
  894MOL0     H17952   1.646   4.995   9.709  1.5747 -2.1849  2.5248
  894MOL0     H17953   1.883   5.148   9.818 -0.8457  3.2408  0.2704
  894MOL0     H17954   1.762   5.042   9.891 -1.2168  1.0215  0.8163
  894MOL0     H17955   1.601   5.213   9.879 -0.5979 -2.3609 -3.1373
  894MOL0     H17956   1.686   5.316   9.746 -1.9677  3.3370  1.3380
  894MOL0     H17957   1.771   5.291  10.034 -0.9670 -1.0680 -0.0974
  894MOL0     H17958   1.865   5.352   9.910  0.4060 -3.4456  0.9066
  894MOL0     H17959   1.758   5.541  10.023 -0.2327 -1.9238  1.2100
  894MOL0     H17960   1.601   5.464  10.033  0.8768  1.9301  1.3428
  894MOL0     H17961   1.821   5.679   9.826 -2.2814  0.9081  2.9441
  894MOL0     H17962   1.747   5.683   9.497  2.5298 -2.2421  2.4740
  894MOL0     H17963   1.787   5.811   9.609 -0.3494 -0.6136 -0.2508
  894MOL0     H17964   1.542   5.897   9.593 -2.1832 -0.0969 -1.2981
  894MOL0     H17965   1.541   5.778   9.453 -0.8243  0.4556 -0.3189
  894MOL0     H17966   1.740   6.001   9.452 -0.1756 -0.4591  1.1663
  894MOL0     H17967   1.685   5.908   9.312 -1.6968  1.8166 -1.2337
  894MOL0     H17968   1.496   6.081   9.489 -2.8293 -2.3392 -0.3079
  894MOL0     H17969   1.471   6.022   9.326  3.1527 -2.0561 -2.0670
  894MOL0     H17970   1.568   6.235   9.589  0.0371 -0.8032 -1.0637
  894MOL0     H17971   1.642   6.425   9.695  0.8836 -0.2813  0.1201
  894MOL0     H17972   1.791   6.673   9.981  0.9274 -1.0977 -0.6568
  894MOL0     H17973   1.840   6.863  10.108 -3.3712  0.0831  1.4599
  894MOL0     H17974   1.758   7.048  10.179  3.5318 -4.4616 -0.0253
  894MOL0     H17975   1.794   7.217  10.147 -2.5544 -0.9214  1.1572
  894MOL0     H17976   2.043   7.083  10.216  1.8167 -0.6782  1.2492
  894MOL0     H17977   1.933   6.991  10.295  3.0327 -0.1349 -2.3978
  894MOL0     H17978   1.962   7.294  10.294  2.0573 -2.4723 -2.4288
  894MOL0     H17979   2.052   7.195  10.404  0.3975  5.1541  1.2536
  894MOL0     H17980   1.759   7.254  10.402  0.3301 -1.7633 -1.5169
  894MOL0     H17981   1.828   7.122  10.503  1.6951 -2.6372 -3.8787
  894MOL0     H17982   1.929   7.415  10.498  2.4437  0.8859  1.7829
  894MOL0     H17983   1.980   7.285  10.619 -1.6501 -0.6221  2.4385
  894MOL0     H17984   1.824   7.421  10.737 -3.1495  2.1911  0.7350
  894MOL0     H17985   1.727   7.290  10.691  2.4377  0.1459  3.8347
  894MOL0     H17986   1.745   7.549  10.523  1.1574 -0.9453 -0.1948
  894MOL0     H17987   1.648   7.410  10.490 -0.4342 -0.2554 -0.7300
  894MOL0     H17988   1.509   7.442  10.689  1.4420  0.4135  2.3770
  894MOL0     H17989   1.507   7.590  10.608  1.4413 -0.8173 -1.6830
  894MOL0     H17990   1.881   7.109   9.767 -1.3711  0.0915 -1.0685
  894MOL0     H17991   1.770   6.910   9.627 -3.3766 -0.9474  0.9879
  894MOL0     H17992   1.838   6.564   9.355  1.4652  0.3543  4.2307
  894MOL0     H17993   1.739   6.355   9.219 -0.2979  0.2912  0.8996
  894MOL0     H17994   1.719   4.449   9.459 -0.6101 -1.6361 -0.7088
  894MOL0     H17995   1.541   4.305   9.411 -0.1539 -0.8530 -2.2399
  894MOL0     H17996   1.186   4.006   9.243 -2.9185 -1.2307  0.5753
  894MOL0     H17997   0.982   3.945   9.097  0.6962 -0.7349 -2.8629
  894MOL0     H17998   0.769   3.922   8.988 -1.1524  0.4106  0.1328
  894MOL0     H17999   0.895   3.939   8.869  1.1562 -0.7491  1.8277
  894MOL0     H18000   0.744   4.039   8.721 -1.5184 -2.9732 -0.3526
  894MOL0     H18001   0.662   3.898   8.779 -0.7454 -0.8156  2.4580
  894MOL0     H18002   0.602   4.189   8.846  1.5350 -0.5317 -3.0284
  894MOL0     H18003   0.566   4.052   8.963  2.9830  0.6256  0.4115
  894MOL0     H18004   0.462   4.066   8.681 -2.0989  0.5545  0.2768
  894MOL0     H18005   0.400   3.963   8.794 -1.2747 -0.2230 -2.5568
  894MOL0     H18006   0.180   4.312   8.871  0.6941  1.2400 -2.4679
  894MOL0     H18007   0.947   4.347   8.972  0.8952 -1.8719 -2.8902
  894MOL0     H18008   1.133   4.416   9.096 -3.0870  0.2608 -1.3131
  895MOL0     O18009   6.750   7.484   7.344 -0.2777 -0.9284  0.1299
  895MOL0     C18010   6.679   7.511   7.248 -0.3335 -0.1375  0.2337
  895MOL0     O18011   6.724   7.533   7.116 -0.6522 -0.2578 -0.2241
  895MOL0     C18012   6.851   7.502   7.086 -0.4690 -0.0473  0.2460
  895MOL0     C18013   6.909   7.382   7.118  0.6632 -0.7429  0.4210
  895MOL0     C18014   7.048   7.352   7.094  0.3946  0.6993 -0.4153
  895MOL0     C18015   7.126   7.450   7.034  1.0020 -0.3123 -0.2560
  895MOL0     O18016   7.262   7.429   7.009  0.1479  0.0705 -0.7838
  895MOL0     C18017   7.306   7.465   6.875  0.5195 -0.6807  0.5224
  895MOL0     C18018   7.438   7.393   6.860  0.1503  0.6336 -0.3013
  895MOL0     C18019   7.551   7.481   6.883 -0.3180  0.4563 -0.4248
  895MOL0     C18020   7.570   7.532   7.021 -0.4593 -0.5468  1.0969
  895MOL0     C18021   7.675   7.650   7.043 -0.1590  0.5360  0.0444
  895MOL0     C18022   7.636   7.790   6.981  0.3046  0.4411  1.5830
  895MOL0     C18023   7.494   7.834   7.031  0.3439  0.0021  0.2640
  895MOL0     C18024   7.476   7.983   7.024  1.2159  1.0424  0.8809
  895MOL0     N18025   7.570   8.055   7.103 -0.5011  0.1578  0.4035
  895MOL0     C18026   7.664   8.148   7.069  0.5606  0.2033  0.3549
  895MOL0     C18027   7.718   8.197   7.184  0.0911  0.3851 -0.7947
  895MOL0     C18028   7.814   8.319   7.196  0.3520  0.2933  0.2683
  895MOL0     C18029   7.949   8.279   7.237 -0.7472  0.4073  0.3579
  895MOL0     C18030   7.955   8.209   7.377 -0.4148 -1.0964  0.0730
  895MOL0     C18031   8.102   8.216   7.441  0.0715  0.1701  0.4974
  895MOL0     O18032   8.122   8.099   7.521 -0.7737  0.1803 -0.0723
  895MOL0     C18033   8.255   8.069   7.535 -0.3414  0.8587 -0.0821
  895MOL0     C18034   8.275   7.931   7.545  0.1322 -0.7899 -0.2346
  895MOL0     C18035   8.405   7.884   7.556 -0.1021  0.3390  0.1938
  895MOL0     C18036   8.515   7.969   7.569 -0.5567  0.3289  0.0628
  895MOL0     C18037   8.651   7.920   7.591 -1.5411 -0.2651  0.0944
  895MOL0     O18038   8.770   8.005   7.579  0.8399  0.2762 -0.1698
  895MOL0     C18039   8.896   7.956   7.578  0.6286  0.6404 -0.0894
  895MOL0     C18040   8.938   7.878   7.683  0.2994  0.3892 -0.4264
  895MOL0     C18041   9.081   7.862   7.699  0.4603  0.1004 -0.4630
  895MOL0     C18042   9.174   7.921   7.619 -0.5166 -0.3098  1.5543
  895MOL0     O18043   9.307   7.886   7.642 -0.4650  0.8841 -0.1069
  895MOL0     C18044   9.412   7.969   7.588  1.9028 -0.0613  0.0221
  895MOL0     C18045   9.549   7.938   7.632 -0.3981 -0.3036  0.0905
  895MOL0     C18046   9.649   8.061   7.609  0.3361  0.6257 -0.6669
  895MOL0     C18047   9.783   8.034   7.680  0.3516 -0.2738 -0.0538
  895MOL0     C18048   9.889   8.132   7.633  0.4767  0.5068 -0.2881
  895MOL0     C18049  10.020   8.101   7.702  0.7615 -0.2028  0.5815
  895MOL0     C18050  10.138   8.133   7.625  0.4392 -1.2295  0.4810
  895MOL0     C18051  10.139   8.260   7.543 -0.5851  0.9349 -1.0609
  895MOL0    Cl18052  10.305   8.280   7.471  0.4427  0.4398 -0.4577
  895MOL0     C18053   9.127   7.997   7.511 -0.2110  0.5648 -1.0875
  895MOL0     C18054   8.988   8.017   7.497 -0.6640 -0.1762  0.0219
  895MOL0     O18055   8.653   7.802   7.612 -0.6977 -0.7741 -0.5714
  895MOL0     C18056   8.491   8.104   7.567  0.1810 -0.5702  0.1312
  895MOL0     C18057   8.362   8.157   7.543  0.8657 -0.4265  0.3324
  895MOL0     N18058   7.672   8.118   7.285  0.6076 -0.3723 -0.6804
  895MOL0     N18059   7.588   8.031   7.236 -0.8015  0.0544 -0.2580
  895MOL0     C18060   7.065   7.573   7.001 -0.1846 -0.7706 -0.5600
  895MOL0     C18061   6.934   7.606   7.022 -0.1342  0.9950 -0.4639
  895MOL0     C18062   6.529   7.517   7.280 -1.2130  0.4416  0.1502
  895MOL0     C18063   6.441   7.496   7.174 -0.8691 -0.1380 -0.5912
  895MOL0     C18064   6.306   7.499   7.209  0.2015  0.1117 -0.5344
  895MOL0     C18065   6.254   7.518   7.333  0.3033 -0.9953  1.3347
  895MOL0     O18066   6.109   7.492   7.345 -0.0433  0.6950 -0.2851
  895MOL0     C18067   6.050   7.526   7.471  0.4232 -0.3696 -0.0145
  895MOL0     C18068   6.073   7.412   7.575 -0.4262  0.4810  0.2591
  895MOL0     C18069   5.966   7.299   7.574 -0.3976 -0.7376  0.4840
  895MOL0     C18070   5.982   7.183   7.468 -0.0825  0.5949  0.3622
  895MOL0     C18071   6.105   7.095   7.491  0.4528  0.5514 -0.5349
  895MOL0     C18072   6.205   7.026   7.495 -0.8739 -0.4908 -1.0030
  895MOL0     C18073   6.342   7.536   7.437  0.4334 -1.4245 -0.3414
  895MOL0     C18074   6.475   7.531   7.412 -0.2805 -0.0573  0.1693
  895MOL0     H18075   6.841   7.308   7.162 -0.9795  1.2754  1.4696
  895MOL0     H18076   7.090   7.261   7.134 -2.2676  1.4818  5.1152
  895MOL0     H18077   7.311   7.573   6.861 -2.6687 -0.4824  0.1307
  895MOL0     H18078   7.224   7.433   6.811 -0.1640  0.4049  0.8170
  895MOL0     H18079   7.449   7.360   6.756  1.1129  2.3902 -0.7919
  895MOL0     H18080   7.450   7.306   6.926  0.0903 -1.0170 -2.3461
  895MOL0     H18081   7.552   7.569   6.817  0.0384  1.3153  0.6853
  895MOL0     H18082   7.641   7.420   6.869  0.4332  1.1176  1.2100
  895MOL0     H18083   7.479   7.552   7.078  0.9841 -3.2393  4.7241
  895MOL0     H18084   7.617   7.451   7.077 -0.0771 -0.2919  1.1496
  895MOL0     H18085   7.774   7.621   7.007  0.1633 -0.7170  1.8086
  895MOL0     H18086   7.669   7.657   7.152  1.4863 -0.1180  0.2001
  895MOL0     H18087   7.635   7.794   6.871  0.3520  1.2258  1.6044
  895MOL0     H18088   7.706   7.868   7.013 -0.1652  1.3271  0.5274
  895MOL0     H18089   7.417   7.784   6.972  2.4834 -3.2771  0.0242
  895MOL0     H18090   7.472   7.803   7.134 -0.7758  0.6955  0.2442
  895MOL0     H18091   7.375   8.006   7.058  0.4610 -1.5719  0.6279
  895MOL0     H18092   7.482   8.022   6.922 -1.4989  1.1480  0.6964
  895MOL0     H18093   7.676   8.208   6.979  0.3433 -2.9584 -1.9477
  895MOL0     H18094   7.779   8.390   7.271  0.5599  0.2002  0.4516
  895MOL0     H18095   7.821   8.370   7.099 -3.1453  1.3621  0.4455
  895MOL0     H18096   8.020   8.362   7.225 -0.3884 -0.0118 -0.5029
  895MOL0     H18097   7.982   8.215   7.155 -1.6170 -0.0892  0.3936
  895MOL0     H18098   7.876   8.252   7.439  0.4764 -0.8208  1.0535
  895MOL0     H18099   7.936   8.103   7.361 -2.2956 -0.5576 -1.6965
  895MOL0     H18100   8.097   8.309   7.499 -0.1878 -0.5822  1.7025
  895MOL0     H18101   8.174   8.232   7.361  0.7571  1.8486  1.3824
  895MOL0     H18102   8.182   7.877   7.533 -1.1652  0.6710  2.2957
  895MOL0     H18103   8.427   7.778   7.551  2.8532  0.9127 -2.4392
  895MOL0     H18104   8.863   7.850   7.756  1.9030  1.6770  1.8371
  895MOL0     H18105   9.112   7.791   7.776 -0.6400  3.3537  3.3056
  895MOL0     H18106   9.387   8.069   7.624  0.1596 -0.3271 -0.3509
  895MOL0     H18107   9.407   7.979   7.479  2.2795 -1.7286 -0.1687
  895MOL0     H18108   9.587   7.845   7.590  0.0249  0.2469 -0.7834
  895MOL0     H18109   9.539   7.922   7.740 -3.3566 -2.5351 -0.4013
  895MOL0     H18110   9.613   8.160   7.639  0.1681  0.7378 -1.2162
  895MOL0     H18111   9.672   8.079   7.503  1.7671  2.0267 -0.1578
  895MOL0     H18112   9.780   8.044   7.789  5.2207  0.8295  0.2236
  895MOL0     H18113   9.812   7.929   7.665 -1.2806 -0.4946 -2.0781
  895MOL0     H18114   9.862   8.234   7.660 -3.5398 -0.4256 -0.1325
  895MOL0     H18115   9.914   8.119   7.527 -0.2087 -1.4754 -0.2530
  895MOL0     H18116  10.030   7.998   7.738  3.1012 -0.7612 -1.4787
  895MOL0     H18117  10.028   8.168   7.788 -0.0021 -0.2257  0.6762
  895MOL0     H18118  10.229   8.134   7.686  0.9418 -0.9773 -0.2522
  895MOL0     H18119  10.150   8.051   7.554 -3.8517 -1.5008 -0.1918
  895MOL0     H18120  10.110   8.345   7.606  0.2323  0.7648 -0.4456
  895MOL0     H18121  10.062   8.262   7.466  0.8547 -0.1450 -2.5820
  895MOL0     H18122   9.182   8.047   7.432 -0.8155  0.1551 -1.7846
  895MOL0     H18123   8.951   8.091   7.427  2.0608  0.4892 -0.8118
  895MOL0     H18124   8.573   8.169   7.596 -0.0710  0.1196 -0.6553
  895MOL0     H18125   8.334   8.260   7.557  0.4953 -0.3258 -1.0005
  895MOL0     H18126   7.128   7.655   6.967 -1.4471  0.3193 -0.3690
  895MOL0     H18127   6.910   7.710   7.005 -0.4515  1.2677  1.4226
  895MOL0     H18128   6.470   7.474   7.072 -1.1411 -1.5591 -0.3841
  895MOL0     H18129   6.225   7.483   7.138  1.0154  0.9446 -1.6787
  895MOL0     H18130   5.944   7.545   7.455  0.0582 -1.0875  1.4203
  895MOL0     H18131   6.097   7.610   7.522  1.5500 -1.6633  1.1900
  895MOL0     H18132   6.171   7.365   7.568  0.2782  1.9477  0.0128
  895MOL0     H18133   6.073   7.462   7.672 -0.4271 -1.0644  1.0864
  895MOL0     H18134   5.874   7.351   7.546  0.6876  1.1287  0.2476
  895MOL0     H18135   5.945   7.264   7.676 -1.1929  0.6864  0.8388
  895MOL0     H18136   5.893   7.120   7.469 -0.4500  0.8171 -3.2173
  895MOL0     H18137   5.985   7.222   7.366  0.7285 -0.9656 -0.2611
  895MOL0     H18138   6.295   6.969   7.501  0.1209  1.1324  0.2676
  895MOL0     H18139   6.314   7.561   7.539  1.3878  0.1579 -0.4358
  895MOL0     H18140   6.539   7.577   7.486  0.0520  2.3178 -1.4858
  896MOL0     O18141   8.175   8.164   0.458 -0.8644 -0.8455 -0.0864
  896MOL0     C18142   8.224   8.144   0.570 -0.0578  0.7074 -0.8954
  896MOL0     O18143   8.339   8.205   0.621  0.6312  0.1796  0.2416
  896MOL0     C18144   8.413   8.282   0.526 -0.1846 -0.3972  0.1962
  896MOL0     C18145   8.502   8.231   0.431 -0.1796 -0.3206  0.3812
  896MOL0     C18146   8.554   8.313   0.331  0.2906  0.1932  0.2172
  896MOL0     C18147   8.530   8.446   0.318  0.1893  0.1613 -0.4276
  896MOL0     O18148   8.597   8.503   0.214 -0.3254  0.1338  0.4280
  896MOL0     C18149   8.560   8.625   0.154  1.3549 -1.3234  0.8256
  896MOL0     C18150   8.438   8.612   0.052 -0.2941 -0.0978  0.6808
  896MOL0     C18151   8.501   8.562  -0.079  0.5303 -0.7983 -0.6386
  896MOL0     C18152   8.401   8.549  -0.192  0.1734 -0.2573  0.2620
  896MOL0     C18153   8.437   8.425  -0.282  0.2205  0.9342 -0.3083
  896MOL0     C18154   8.390   8.298  -0.208  0.5914 -0.8527  0.4615
  896MOL0     C18155   8.385   8.176  -0.299  0.1091  0.2409 -0.2278
  896MOL0     C18156   8.509   8.087  -0.290 -0.2379 -0.2279  0.3343
  896MOL0     N18157   8.493   7.977  -0.385  0.5352  0.0912 -0.1578
  896MOL0     C18158   8.405   7.874  -0.371 -0.2542  0.4070 -1.1876
  896MOL0     C18159   8.433   7.793  -0.478 -0.3591 -0.0846 -0.4870
  896MOL0     C18160   8.354   7.664  -0.518 -0.1269  0.1668 -0.2602
  896MOL0     C18161   8.440   7.538  -0.479 -0.1435 -0.4509  0.0875
  896MOL0     C18162   8.535   7.495  -0.588  0.6519 -0.3776  0.6870
  896MOL0     C18163   8.453   7.450  -0.717 -0.3800 -0.5496 -0.0923
  896MOL0     O18164   8.552   7.394  -0.802 -0.6841  0.3884  0.0013
  896MOL0     C18165   8.507   7.336  -0.919  0.6377 -0.3086 -0.6042
  896MOL0     C18166   8.535   7.403  -1.034  0.4796 -0.4377  0.2581
  896MOL0     C18167   8.506   7.353  -1.160  0.7742 -0.0461 -0.4915
  896MOL0     C18168   8.459   7.220  -1.174  0.7376  0.4380  0.4488
  896MOL0     C18169   8.395   7.170  -1.296 -0.5059 -0.2550 -0.3066
  896MOL0     O18170   8.319   7.054  -1.287 -0.8690  0.1897  0.0358
  896MOL0     C18171   8.263   7.001  -1.406 -0.6449 -0.9248 -0.6512
  896MOL0     C18172   8.128   7.016  -1.431 -0.4356 -0.3124  0.3051
  896MOL0     C18173   8.073   6.968  -1.554 -0.0776 -0.6367  0.0998
  896MOL0     C18174   8.154   6.921  -1.655  0.6527  0.0186  0.7056
  896MOL0     O18175   8.104   6.872  -1.772  0.3399 -0.1923 -0.6150
  896MOL0     C18176   7.983   6.791  -1.761 -0.1490 -0.1500 -0.0460
  896MOL0     C18177   7.858   6.859  -1.832  0.0372 -0.2749  0.2653
  896MOL0     C18178   7.902   6.885  -1.972  0.9891 -0.1758  0.1100
  896MOL0     C18179   7.784   6.885  -2.059  0.3617 -0.0711  0.7887
  896MOL0     C18180   7.716   6.741  -2.075 -0.5207  0.0394 -0.2673
  896MOL0     C18181   7.824   6.634  -2.133 -0.5830  0.1452  0.5925
  896MOL0     C18182   7.864   6.670  -2.283  0.2046  0.2203 -0.1754
  896MOL0     C18183   7.744   6.685  -2.368  0.1399 -0.1684 -0.1566
  896MOL0    Cl18184   7.637   6.547  -2.358  0.1118 -0.0340  0.3554
  896MOL0     C18185   8.288   6.916  -1.632  0.0582  0.2173 -0.0107
  896MOL0     C18186   8.347   6.949  -1.507  0.3490  0.1603 -0.2102
  896MOL0     O18187   8.419   7.235  -1.395  0.1472 -0.6269 -0.1384
  896MOL0     C18188   8.435   7.148  -1.052  0.1146 -0.6049 -0.2425
  896MOL0     C18189   8.454   7.206  -0.922  0.5182  0.4561 -0.1775
  896MOL0     N18190   8.548   7.845  -0.539  0.6171  0.0401  0.2277
  896MOL0     N18191   8.579   7.954  -0.489 -0.2323 -0.7006 -0.3017
  896MOL0     C18192   8.438   8.506   0.406 -0.0985  0.7032  0.1090
  896MOL0     C18193   8.373   8.420   0.507  0.0348 -0.3320  0.5805
  896MOL0     C18194   8.154   8.049   0.653 -0.0922 -0.1394 -0.7782
  896MOL0     C18195   8.204   8.013   0.779  0.4719  0.6235  0.1797
  896MOL0     C18196   8.140   7.909   0.853  0.0137 -0.6259 -0.7086
  896MOL0     C18197   8.019   7.852   0.808 -0.0691  2.2785  0.2174
  896MOL0     O18198   7.959   7.751   0.888 -0.1341  0.1342 -0.3588
  896MOL0     C18199   7.829   7.701   0.849 -0.2841  0.4335  0.3953
  896MOL0     C18200   7.806   7.579   0.948  0.0690  0.7841  0.4234
  896MOL0     C18201   7.937   7.482   0.950 -0.2156  0.1795  0.2983
  896MOL0     C18202   7.901   7.329   0.987 -0.6001 -0.1809  0.3903
  896MOL0     C18203   8.026   7.251   0.975 -0.4117  0.3252  0.7062
  896MOL0     C18204   8.130   7.190   0.961  1.0188 -0.2853 -0.2600
  896MOL0     C18205   7.964   7.900   0.683  0.4635 -0.1254 -1.2238
  896MOL0     C18206   8.047   7.981   0.605  0.9900 -0.5539  0.8367
  896MOL0     H18207   8.539   8.129   0.436 -2.2074 -1.2107 -1.1726
  896MOL0     H18208   8.624   8.276   0.257  1.9237  1.7555  0.8933
  896MOL0     H18209   8.651   8.664   0.107 -0.6186  1.5349 -0.8902
  896MOL0     H18210   8.533   8.694   0.234  4.0423  1.1758 -0.2555
  896MOL0     H18211   8.400   8.714   0.041  1.5090  0.4782 -0.8578
  896MOL0     H18212   8.362   8.542   0.086  1.4417 -3.4084 -1.6673
  896MOL0     H18213   8.532   8.463  -0.044  1.7599  0.7344  3.1553
  896MOL0     H18214   8.590   8.618  -0.108  2.6770 -1.8037  3.3191
  896MOL0     H18215   8.292   8.545  -0.177 -0.3237  1.3466 -2.2513
  896MOL0     H18216   8.399   8.644  -0.247 -2.2130  0.8963  2.1266
  896MOL0     H18217   8.544   8.413  -0.299  0.4007 -0.4187  1.4697
  896MOL0     H18218   8.390   8.418  -0.380  1.1927 -2.0652 -0.6682
  896MOL0     H18219   8.284   8.319  -0.189 -0.2943 -0.8060 -3.6700
  896MOL0     H18220   8.448   8.278  -0.117 -0.8641  1.2426  1.9641
  896MOL0     H18221   8.296   8.116  -0.280  1.9401 -2.3507  0.6076
  896MOL0     H18222   8.374   8.221  -0.398 -0.8178 -0.4702 -0.4623
  896MOL0     H18223   8.535   8.054  -0.189  0.1387  1.4826  0.8220
  896MOL0     H18224   8.600   8.139  -0.320 -1.2546  1.5669  0.2020
  896MOL0     H18225   8.337   7.857  -0.288  0.6585  0.0904 -0.4833
  896MOL0     H18226   8.349   7.667  -0.627  1.5266 -0.2806 -0.3715
  896MOL0     H18227   8.255   7.673  -0.471 -1.2526  3.3975 -2.8571
  896MOL0     H18228   8.384   7.450  -0.448  0.7173 -0.8141  0.6585
  896MOL0     H18229   8.504   7.559  -0.392  3.4206 -1.9426 -1.9480
  896MOL0     H18230   8.607   7.572  -0.617 -0.2871 -0.5539 -2.5321
  896MOL0     H18231   8.579   7.401  -0.551 -2.2340 -1.7494  0.8729
  896MOL0     H18232   8.410   7.532  -0.775  2.1234  1.6775  1.0107
  896MOL0     H18233   8.373   7.381  -0.688 -1.3666  0.5354 -0.1516
  896MOL0     H18234   8.574   7.505  -1.036  0.4365 -0.4117 -2.0143
  896MOL0     H18235   8.506   7.420  -1.246  1.6579  1.7016  0.8087
  896MOL0     H18236   8.066   7.045  -1.347 -0.1324  0.0613  0.4048
  896MOL0     H18237   7.967   6.968  -1.577  0.6520 -1.4409 -3.9608
  896MOL0     H18238   7.955   6.783  -1.655 -0.5477  0.9815 -0.0525
  896MOL0     H18239   8.010   6.693  -1.803  1.2820  0.4485 -0.5503
  896MOL0     H18240   7.833   6.954  -1.785  1.6810  1.7823 -2.6796
  896MOL0     H18241   7.767   6.801  -1.817 -1.7668  1.8999 -1.5859
  896MOL0     H18242   7.975   6.819  -2.019  1.2079 -2.0473  2.8916
  896MOL0     H18243   7.951   6.982  -1.961  3.2198 -1.2374  0.0074
  896MOL0     H18244   7.707   6.957  -2.030 -1.4441 -1.3219 -0.6570
  896MOL0     H18245   7.823   6.925  -2.153 -1.6792  2.5209  0.9239
  896MOL0     H18246   7.620   6.741  -2.128 -0.3082  1.9151 -0.7143
  896MOL0     H18247   7.681   6.712  -1.976 -2.0854  0.0622 -0.7797
  896MOL0     H18248   7.774   6.537  -2.128  2.2645 -1.3839  1.7722
  896MOL0     H18249   7.912   6.629  -2.068 -1.2825  0.5593  1.6108
  896MOL0     H18250   7.917   6.766  -2.282  3.2085 -1.3144  0.0367
  896MOL0     H18251   7.929   6.595  -2.330  0.5381 -0.1267  0.8154
  896MOL0     H18252   7.772   6.686  -2.474 -3.5561  1.6076 -1.2920
  896MOL0     H18253   7.687   6.776  -2.351  3.7536  2.6913 -1.9127
  896MOL0     H18254   8.350   6.872  -1.708  0.0491 -2.8980  1.6380
  896MOL0     H18255   8.455   6.942  -1.502  0.1823 -2.4984  1.3801
  896MOL0     H18256   8.386   7.052  -1.046 -1.3200 -0.3157 -4.2703
  896MOL0     H18257   8.463   7.149  -0.831  1.1599 -2.6887 -2.0562
  896MOL0     H18258   8.411   8.611   0.401  1.8695  1.6632  4.5184
  896MOL0     H18259   8.314   8.480   0.576  0.2499  1.4768 -0.7511
  896MOL0     H18260   8.298   8.043   0.825  0.4782  1.0001 -0.0739
  896MOL0     H18261   8.175   7.864   0.945  0.6066  1.4527  0.1387
  896MOL0     H18262   7.833   7.668   0.744 -0.3809  2.1602 -0.1723
  896MOL0     H18263   7.746   7.772   0.855  0.2939  1.1557 -0.0351
  896MOL0     H18264   7.772   7.618   1.044  1.6536 -0.2943  1.4534
  896MOL0     H18265   7.726   7.521   0.901  1.1622 -2.2770  2.0971
  896MOL0     H18266   8.012   7.521   1.020  1.5914  0.4045 -1.6853
  896MOL0     H18267   7.987   7.483   0.853 -1.8378  0.5372 -0.5571
  896MOL0     H18268   7.855   7.324   1.086 -3.0693 -2.0452 -0.7298
  896MOL0     H18269   7.825   7.292   0.918  0.8569  0.6846 -1.8095
  896MOL0     H18270   8.214   7.129   0.937 -0.2423 -1.3027 -2.3631
  896MOL0     H18271   7.864   7.884   0.644  0.3674 -3.3713  0.0757
  896MOL0     H18272   8.013   7.998   0.503  0.2692 -0.2574  1.1125
  897MOL0     O18273   3.141   5.229   5.156  0.5123 -0.1294 -0.0031
  897MOL0     C18274   3.255   5.216   5.193 -0.3665  0.5972 -0.4372
  897MOL0     O18275   3.286   5.177   5.321 -0.1321  0.1953 -0.1166
  897MOL0     C18276   3.187   5.147   5.404  0.1688  0.9732 -0.6046
  897MOL0     C18277   3.089   5.237   5.438  0.5934  0.9874  0.4612
  897MOL0     C18278   2.987   5.189   5.522 -0.5522 -0.4575 -0.1206
  897MOL0     C18279   2.998   5.072   5.596 -0.3708  0.1484  0.4574
  897MOL0     O18280   2.895   5.055   5.682 -0.4276  0.2450 -0.3660
  897MOL0     C18281   2.871   4.918   5.732  0.5383 -0.6509 -0.4603
  897MOL0     C18282   2.791   4.923   5.864 -0.7802 -0.2015  1.4134
  897MOL0     C18283   2.881   4.954   5.985 -0.4111 -0.6145  0.0927
  897MOL0     C18284   2.986   5.057   5.964 -0.7928 -0.6531 -0.4591
  897MOL0     C18285   3.073   5.070   6.101  0.0485  0.1721  0.2015
  897MOL0     C18286   3.208   5.126   6.066  0.2412 -0.8420  1.1587
  897MOL0     C18287   3.303   5.136   6.179  0.2990 -0.2920  0.7101
  897MOL0     C18288   3.445   5.189   6.125 -0.0024  0.0849  0.2666
  897MOL0     N18289   3.528   5.235   6.238  0.4183 -0.3508 -0.0705
  897MOL0     C18290   3.642   5.171   6.285  0.5005 -1.0554  0.8517
  897MOL0     C18291   3.689   5.254   6.391  0.0757  0.6207  0.6962
  897MOL0     C18292   3.813   5.235   6.479  0.0236 -0.0726  0.8114
  897MOL0     C18293   3.932   5.205   6.382 -0.1156  0.2696  0.5491
  897MOL0     C18294   4.045   5.301   6.430 -0.6456  1.0047 -0.4219
  897MOL0     C18295   4.190   5.294   6.377  0.6197 -0.3464  0.0806
  897MOL0     O18296   4.229   5.159   6.413  0.3153  0.9411 -0.4869
  897MOL0     C18297   4.343   5.110   6.368 -0.9081  0.1837 -0.0046
  897MOL0     C18298   4.379   4.979   6.404  0.6710 -0.0824 -0.1506
  897MOL0     C18299   4.503   4.920   6.370 -0.0609  0.1631 -0.6986
  897MOL0     C18300   4.599   5.005   6.300  0.1715  0.3145  0.3475
  897MOL0     C18301   4.738   4.956   6.259  0.6413  0.4408  0.0894
  897MOL0     O18302   4.815   5.039   6.170 -0.9134  0.1164 -0.4041
  897MOL0     C18303   4.945   4.994   6.129  0.8133 -0.1651 -0.0568
  897MOL0     C18304   4.969   4.860   6.086 -0.4825  0.7258 -0.8390
  897MOL0     C18305   5.099   4.819   6.059 -0.1805 -0.0672  0.7226
  897MOL0     C18306   5.201   4.915   6.059  0.5688  0.4421 -0.9562
  897MOL0     O18307   5.331   4.885   6.036  0.1989 -0.5211  0.7192
  897MOL0     C18308   5.404   4.798   6.128  0.2680  0.3225 -1.6050
  897MOL0     C18309   5.544   4.764   6.083 -0.0935 -0.5763  0.0622
  897MOL0     C18310   5.624   4.893   6.079  0.0115 -0.1379 -0.0538
  897MOL0     C18311   5.747   4.878   5.991  0.7077  0.4169  0.1699
  897MOL0     C18312   5.836   4.999   5.975 -0.4506 -0.0797 -0.0629
  897MOL0     C18313   5.896   5.037   6.114 -0.7965  0.3080  0.5112
  897MOL0     C18314   5.994   5.147   6.095 -0.5271 -0.1545 -0.5761
  897MOL0     C18315   6.048   5.196   6.236  0.5936 -0.6179 -0.0141
  897MOL0    Cl18316   6.135   5.053   6.311  0.3471  0.0822 -0.1833
  897MOL0     C18317   5.174   5.046   6.092  1.4143  0.3863 -0.1970
  897MOL0     C18318   5.045   5.088   6.136  0.5577 -0.0682 -0.3980
  897MOL0     O18319   4.770   4.846   6.310  0.3748 -0.2151  0.2558
  897MOL0     C18320   4.563   5.138   6.269  0.1956 -0.4428 -0.8699
  897MOL0     C18321   4.440   5.190   6.304  0.6084  0.7401 -0.3569
  897MOL0     N18322   3.587   5.345   6.416  0.3537  0.2271  0.3054
  897MOL0     N18323   3.495   5.333   6.324  0.0058  0.0961  0.0321
  897MOL0     C18324   3.114   4.996   5.572  0.3764  0.5633 -0.4761
  897MOL0     C18325   3.202   5.030   5.473 -0.5576 -0.0730  0.1287
  897MOL0     C18326   3.364   5.218   5.090  0.7488  0.5249  0.0579
  897MOL0     C18327   3.486   5.168   5.110 -0.2415  0.0108  0.1389
  897MOL0     C18328   3.593   5.184   5.015 -0.3097 -0.5142 -0.2932
  897MOL0     C18329   3.570   5.244   4.891 -0.2160  0.8845  0.8351
  897MOL0     O18330   3.664   5.269   4.793 -0.4044 -0.6389  0.3240
  897MOL0     C18331   3.784   5.194   4.810 -1.0652  0.8929 -0.4202
  897MOL0     C18332   3.871   5.216   4.685  0.0872  0.1498 -0.2582
  897MOL0     C18333   3.850   5.352   4.609  0.2884  0.2956  0.6795
  897MOL0     C18334   3.935   5.390   4.488 -0.3715  0.3537  0.5610
  897MOL0     C18335   3.947   5.540   4.472 -1.0493  0.3910 -0.6051
  897MOL0     C18336   3.963   5.659   4.498  0.9347 -1.0588 -0.1465
  897MOL0     C18337   3.445   5.303   4.875 -0.8235 -0.2160  0.1543
  897MOL0     C18338   3.339   5.290   4.973  0.6856  0.0310 -0.3210
  897MOL0     H18339   3.077   5.335   5.394 -0.4065 -0.4401 -2.7378
  897MOL0     H18340   2.908   5.262   5.539 -2.2385 -2.2671  0.1971
  897MOL0     H18341   2.961   4.857   5.743  2.4984  2.1063 -0.0147
  897MOL0     H18342   2.819   4.864   5.653  1.0210 -1.1314 -0.4590
  897MOL0     H18343   2.747   4.823   5.875  1.9405 -1.8350 -0.8560
  897MOL0     H18344   2.706   4.991   5.859  0.0502  0.7992  0.2016
  897MOL0     H18345   2.938   4.862   5.999 -2.2873 -1.6971  0.9603
  897MOL0     H18346   2.810   4.977   6.065  0.0663  0.5113  0.2200
  897MOL0     H18347   3.050   5.016   5.885  1.0402  1.1391 -0.0012
  897MOL0     H18348   2.957   5.158   5.932  1.5619  0.0125 -0.6797
  897MOL0     H18349   3.078   4.968   6.141  0.9057  1.4192  3.6454
  897MOL0     H18350   3.026   5.129   6.180 -0.3234 -1.8394  1.5629
  897MOL0     H18351   3.184   5.225   6.027  0.6524 -1.2785 -0.2548
  897MOL0     H18352   3.242   5.065   5.982 -2.1993 -0.0794 -0.4595
  897MOL0     H18353   3.271   5.206   6.256  2.4397  0.1043  1.3004
  897MOL0     H18354   3.299   5.041   6.233 -0.9084  0.7084  2.4724
  897MOL0     H18355   3.421   5.275   6.062 -4.1129 -2.5137 -2.2590
  897MOL0     H18356   3.498   5.108   6.073  1.0436 -1.9197  4.0839
  897MOL0     H18357   3.679   5.076   6.246  0.5438 -1.0530  0.8864
  897MOL0     H18358   3.808   5.150   6.547  3.8523 -2.3927 -1.3917
  897MOL0     H18359   3.821   5.318   6.549 -0.6623 -1.9624  3.2529
  897MOL0     H18360   3.904   5.230   6.279  0.5081  0.4147  0.4100
  897MOL0     H18361   3.956   5.098   6.389 -1.1723  0.0492  1.0020
  897MOL0     H18362   4.019   5.405   6.407  1.8472  1.3017 -2.3027
  897MOL0     H18363   4.062   5.288   6.537 -2.1457  0.2877 -0.2308
  897MOL0     H18364   4.261   5.360   6.428 -0.5753 -0.8723  2.5937
  897MOL0     H18365   4.197   5.313   6.270 -1.0222  1.0346  0.1687
  897MOL0     H18366   4.313   4.914   6.461  2.1907 -1.4702  0.1121
  897MOL0     H18367   4.515   4.817   6.399 -0.7584  0.4754  0.8093
  897MOL0     H18368   4.879   4.801   6.083 -1.9138  2.7474 -0.1422
  897MOL0     H18369   5.116   4.717   6.027  3.1434  1.6032 -4.1142
  897MOL0     H18370   5.347   4.705   6.140  0.2070  0.6358  1.2668
  897MOL0     H18371   5.402   4.853   6.222 -2.0995 -1.6721 -0.3663
  897MOL0     H18372   5.526   4.722   5.984  2.3720 -0.0669 -0.6544
  897MOL0     H18373   5.596   4.695   6.150  3.7494  2.2639  0.3699
  897MOL0     H18374   5.653   4.939   6.174  2.6622 -0.2818 -0.7236
  897MOL0     H18375   5.561   4.966   6.027  3.2996  1.6995 -1.7337
  897MOL0     H18376   5.806   4.794   6.028 -1.5840 -1.7545 -0.8130
  897MOL0     H18377   5.718   4.840   5.892  0.7865  3.2767 -1.0558
  897MOL0     H18378   5.786   5.085   5.931 -1.0344 -0.7555 -0.7414
  897MOL0     H18379   5.925   4.971   5.919 -0.7712  0.2771 -0.7564
  897MOL0     H18380   5.932   4.947   6.163 -1.8233 -0.2928  0.1977
  897MOL0     H18381   5.805   5.069   6.166  0.1289  0.5591  2.0095
  897MOL0     H18382   6.081   5.107   6.042 -0.6068 -1.5525  0.2766
  897MOL0     H18383   5.952   5.227   6.034 -0.5873 -0.5529 -1.0583
  897MOL0     H18384   5.974   5.237   6.306 -1.7466  1.0863 -3.2132
  897MOL0     H18385   6.122   5.271   6.205 -2.0031  0.9243 -2.9981
  897MOL0     H18386   5.254   5.120   6.096  3.2258 -1.4407 -0.7521
  897MOL0     H18387   5.014   5.186   6.172 -1.2301 -1.2677  1.5514
  897MOL0     H18388   4.627   5.205   6.214  1.5442 -0.8963  0.0881
  897MOL0     H18389   4.417   5.290   6.267 -2.2408  0.3634  0.1659
  897MOL0     H18390   3.133   4.912   5.638 -2.2421 -0.2294 -0.6246
  897MOL0     H18391   3.289   4.968   5.451 -0.7803  0.3236 -2.0716
  897MOL0     H18392   3.505   5.137   5.212 -2.3405 -1.1879  0.2184
  897MOL0     H18393   3.686   5.163   5.066  0.1747  4.7874  1.6224
  897MOL0     H18394   3.761   5.088   4.824 -1.7921  1.2302  1.3244
  897MOL0     H18395   3.849   5.230   4.891 -1.1871  1.0776 -0.4033
  897MOL0     H18396   3.978   5.230   4.703 -0.0190  2.3251 -0.9915
  897MOL0     H18397   3.858   5.130   4.618  0.7875 -1.9377  2.1545
  897MOL0     H18398   3.843   5.435   4.680 -1.6517  0.5913  0.1978
  897MOL0     H18399   3.747   5.360   4.571  0.4134 -0.5616  0.1394
  897MOL0     H18400   4.033   5.344   4.496  1.0573  3.4906  3.4554
  897MOL0     H18401   3.880   5.350   4.402  1.3317 -0.5285 -0.1559
  897MOL0     H18402   3.978   5.763   4.518  0.8856 -1.2107  0.7232
  897MOL0     H18403   3.416   5.363   4.789  1.0621  0.7927  0.1809
  897MOL0     H18404   3.243   5.336   4.953  0.9085  1.2097  1.1170
  898MOL0     O18405  10.025   7.008   0.333  0.2181  0.0708  0.2037
  898MOL0     C18406   9.958   7.008   0.226 -0.0661  0.8913 -0.3792
  898MOL0     O18407   9.915   7.123   0.158 -0.1537 -0.4738 -0.3716
  898MOL0     C18408   9.955   7.245   0.197  1.0347 -0.5167  0.4856
  898MOL0     C18409   9.849   7.345   0.202  0.1496 -0.1554 -0.2994
  898MOL0     C18410   9.894   7.477   0.193  0.1936 -0.4988  0.3323
  898MOL0     C18411  10.025   7.523   0.206 -0.4731 -0.4869 -0.2924
  898MOL0     O18412  10.078   7.648   0.181 -0.2845 -0.4414 -0.1164
  898MOL0     C18413  10.064   7.746   0.290  0.1504  0.0054  0.4255
  898MOL0     C18414  10.178   7.839   0.302  0.7902 -0.9900 -0.3530
  898MOL0     C18415  10.160   7.933   0.430  0.5580  0.3850 -0.2784
  898MOL0     C18416  10.067   8.055   0.403 -0.4005 -0.1619 -0.5527
  898MOL0     C18417  10.062   8.146   0.531 -0.5841  1.2462 -0.4606
  898MOL0     C18418   9.955   8.254   0.505 -1.1436  0.0067  0.6377
  898MOL0     C18419   9.806   8.208   0.531  0.0407 -0.2553  0.9283
  898MOL0     C18420   9.705   8.322   0.586 -1.7555  0.4635  0.1631
  898MOL0     N18421   9.572   8.268   0.609  0.1175 -0.1407  0.1430
  898MOL0     C18422   9.480   8.244   0.508 -0.4660 -0.7398 -0.4256
  898MOL0     C18423   9.362   8.244   0.579 -0.4704  0.0805  0.4718
  898MOL0     C18424   9.235   8.238   0.515  0.4444 -0.3197 -0.7808
  898MOL0     C18425   9.210   8.373   0.438 -0.0097  0.3130  0.3076
  898MOL0     C18426   9.048   8.384   0.423 -0.5805 -0.0575 -0.1814
  898MOL0     C18427   8.990   8.282   0.314 -0.3158 -0.5699 -1.4262
  898MOL0     O18428   8.941   8.163   0.383 -0.4898  0.1143  0.2432
  898MOL0     C18429   8.852   8.087   0.318 -0.0379  0.4852  1.1135
  898MOL0     C18430   8.819   8.103   0.179  0.3042  0.1834  0.7396
  898MOL0     C18431   8.732   8.013   0.112  0.0667  0.6247  0.2439
  898MOL0     C18432   8.673   7.909   0.179  0.0867  0.3518  0.1024
  898MOL0     C18433   8.571   7.819   0.112 -0.5840 -0.4331  0.8184
  898MOL0     O18434   8.539   7.707   0.178 -0.0451  0.0166  0.6099
  898MOL0     C18435   8.477   7.591   0.132 -0.6973  0.3986  0.9801
  898MOL0     C18436   8.454   7.560  -0.009 -0.3680 -0.0366 -1.3247
  898MOL0     C18437   8.383   7.445  -0.038 -0.2643 -0.2385  0.0365
  898MOL0     C18438   8.335   7.361   0.065 -0.2005 -0.8001 -0.1783
  898MOL0     O18439   8.264   7.252   0.021 -1.0931 -0.3435 -0.3648
  898MOL0     C18440   8.179   7.185   0.110  0.6999  1.0585  0.8909
  898MOL0     C18441   8.051   7.137   0.026  0.0687  0.7999  0.4955
  898MOL0     C18442   7.967   7.245  -0.044 -1.3903 -0.2620 -0.3722
  898MOL0     C18443   7.900   7.308   0.084  0.4996  0.4919  0.4592
  898MOL0     C18444   7.756   7.365   0.057 -0.3645  0.8101 -0.2866
  898MOL0     C18445   7.684   7.396   0.194 -0.2570 -0.2553  0.1790
  898MOL0     C18446   7.541   7.418   0.174  0.1814  0.1597 -0.6784
  898MOL0     C18447   7.506   7.556   0.215  0.3115  0.0677  0.1848
  898MOL0    Cl18448   7.327   7.591   0.177  0.1826 -0.4525  0.1314
  898MOL0     C18449   8.369   7.385   0.201 -0.4911 -0.1015 -0.1463
  898MOL0     C18450   8.447   7.499   0.222 -0.0954  0.5978 -0.1532
  898MOL0     O18451   8.528   7.850   0.000 -0.3004  0.1730  0.7928
  898MOL0     C18452   8.709   7.887   0.316  0.3345 -0.3377  0.6715
  898MOL0     C18453   8.801   7.981   0.378 -1.1102 -0.0641  0.4863
  898MOL0     N18454   9.392   8.247   0.717 -0.2741  0.8801  0.1474
  898MOL0     N18455   9.518   8.271   0.729  0.4262 -0.1246 -0.0272
  898MOL0     C18456  10.126   7.417   0.206  0.2342 -0.0297  0.2638
  898MOL0     C18457  10.092   7.277   0.202  0.4602  0.6326  0.0312
  898MOL0     C18458   9.917   6.878   0.158 -0.8427 -0.0902  0.0806
  898MOL0     C18459   9.917   6.753   0.223  0.3823  0.2729  0.7829
  898MOL0     C18460   9.899   6.631   0.158 -0.4046  0.4922  0.1855
  898MOL0     C18461   9.869   6.638   0.023  0.4866 -0.9747  0.0402
  898MOL0     O18462   9.846   6.526  -0.056  0.3081  0.4653 -0.7581
  898MOL0     C18463   9.862   6.401   0.002 -0.0046  0.8503  0.4355
  898MOL0     C18464   9.843   6.291  -0.108 -0.9079  0.9147  0.5947
  898MOL0     C18465   9.792   6.169  -0.042 -0.5162 -0.0338 -0.0520
  898MOL0     C18466   9.787   6.045  -0.135 -0.6194 -0.4712 -0.1014
  898MOL0     C18467   9.682   6.053  -0.237 -0.2921  0.1320 -0.7105
  898MOL0     C18468   9.598   6.040  -0.324 -0.0535 -0.6634 -0.0217
  898MOL0     C18469   9.853   6.763  -0.040  0.2961  0.3022  0.7612
  898MOL0     C18470   9.888   6.875   0.018 -0.4700  0.6781 -0.3035
  898MOL0     H18471   9.745   7.312   0.199  0.4570 -1.1582 -0.4654
  898MOL0     H18472   9.811   7.541   0.163  0.6978  0.0146  0.0043
  898MOL0     H18473  10.037   7.683   0.376  1.4085 -1.8249 -0.4431
  898MOL0     H18474   9.971   7.800   0.270 -0.8658 -2.3033 -1.7176
  898MOL0     H18475  10.185   7.894   0.208  0.8319 -1.8654 -0.8713
  898MOL0     H18476  10.274   7.788   0.316  1.2500 -0.1317 -0.2733
  898MOL0     H18477  10.257   7.979   0.450 -0.3383  1.7730  1.0236
  898MOL0     H18478  10.115   7.871   0.508 -0.4371 -2.3241 -2.7870
  898MOL0     H18479  10.095   8.108   0.311 -0.5586  1.0831  0.1026
  898MOL0     H18480   9.966   8.019   0.383 -1.6727  2.0515  1.4295
  898MOL0     H18481  10.162   8.185   0.549  0.8230 -2.3151  0.3604
  898MOL0     H18482  10.041   8.093   0.625  2.1595  0.3829 -0.2583
  898MOL0     H18483   9.961   8.288   0.401 -1.3756 -3.0241 -0.4877
  898MOL0     H18484   9.969   8.342   0.568  0.7178 -0.0661  0.3987
  898MOL0     H18485   9.761   8.162   0.443  0.0599  0.1547  0.7035
  898MOL0     H18486   9.811   8.132   0.609 -0.4327 -2.1613 -0.8098
  898MOL0     H18487   9.691   8.393   0.503  2.3653  0.8153 -0.4771
  898MOL0     H18488   9.744   8.375   0.673 -2.4664  0.4015  0.5269
  898MOL0     H18489   9.494   8.239   0.400 -0.9195  1.6461 -0.6368
  898MOL0     H18490   9.155   8.209   0.584  0.3756 -0.4012 -0.8940
  898MOL0     H18491   9.237   8.158   0.441 -0.7844 -1.3264  0.2114
  898MOL0     H18492   9.258   8.353   0.341 -1.3327 -0.5178 -0.2124
  898MOL0     H18493   9.245   8.464   0.487 -2.3233  2.4071 -1.6523
  898MOL0     H18494   9.004   8.368   0.522  3.5625 -0.1392  1.8670
  898MOL0     H18495   9.034   8.490   0.398 -1.8414  0.2082  1.4802
  898MOL0     H18496   9.078   8.272   0.249 -0.1919  1.3015 -1.6033
  898MOL0     H18497   8.917   8.338   0.255 -1.4364 -2.6033 -2.0724
  898MOL0     H18498   8.872   8.179   0.123  5.1783 -3.6321 -0.4755
  898MOL0     H18499   8.697   8.027   0.010 -2.5441  1.3781  1.1802
  898MOL0     H18500   8.490   7.628  -0.086 -1.7265  0.6711 -1.3740
  898MOL0     H18501   8.361   7.432  -0.144  0.4352  0.0739 -0.1505
  898MOL0     H18502   8.147   7.263   0.181  1.3982 -0.2948  2.7710
  898MOL0     H18503   8.224   7.099   0.160  1.9645  0.0895 -1.7616
  898MOL0     H18504   7.991   7.070   0.088 -1.3742  2.9984  1.5887
  898MOL0     H18505   8.104   7.089  -0.057 -0.8415  2.6262 -1.2375
  898MOL0     H18506   7.903   7.202  -0.122  2.2161 -0.4220 -3.5349
  898MOL0     H18507   8.027   7.320  -0.096  0.3507 -0.6036  1.0554
  898MOL0     H18508   7.892   7.229   0.159 -0.2986 -0.8439 -0.9959
  898MOL0     H18509   7.966   7.385   0.126 -0.2902  1.2188  0.3839
  898MOL0     H18510   7.695   7.287   0.010 -0.9824  0.7884  0.5168
  898MOL0     H18511   7.769   7.449  -0.013  3.3490 -1.1559 -2.2717
  898MOL0     H18512   7.738   7.480   0.239  2.4007 -1.8024  0.0364
  898MOL0     H18513   7.691   7.319   0.271 -0.0402  1.2978  1.7756
  898MOL0     H18514   7.510   7.416   0.069  1.2514  4.0887 -1.2424
  898MOL0     H18515   7.480   7.350   0.235  1.9941 -1.1397 -0.2410
  898MOL0     H18516   7.554   7.628   0.149  0.0391 -0.6883 -0.8520
  898MOL0     H18517   7.513   7.578   0.322  0.2369 -0.2553  0.2570
  898MOL0     H18518   8.346   7.313   0.279 -4.3305  1.2457  0.1879
  898MOL0     H18519   8.471   7.516   0.326 -0.7577 -2.6138  0.6304
  898MOL0     H18520   8.668   7.804   0.373  0.2119 -1.3100 -0.7709
  898MOL0     H18521   8.823   7.970   0.483  1.3234  2.4084  0.3365
  898MOL0     H18522  10.230   7.447   0.210  0.6923 -1.6548  2.7887
  898MOL0     H18523  10.175   7.208   0.199  1.0661  1.3127  0.7376
  898MOL0     H18524   9.938   6.757   0.329  1.4748  1.1238  0.5545
  898MOL0     H18525   9.898   6.538   0.214  2.7497 -2.2300 -3.6901
  898MOL0     H18526   9.803   6.400   0.094  1.1172  0.1856  1.1678
  898MOL0     H18527   9.962   6.385   0.043 -0.5444 -0.8346  1.1805
  898MOL0     H18528   9.770   6.323  -0.183  0.9772 -0.7825 -2.1978
  898MOL0     H18529   9.935   6.279  -0.166 -3.7294  1.6486 -4.6950
  898MOL0     H18530   9.691   6.183  -0.002 -0.3585 -2.3124  1.3249
  898MOL0     H18531   9.858   6.143   0.041  2.4342 -0.1753 -2.2741
  898MOL0     H18532   9.885   6.042  -0.183 -0.5783 -1.0583  0.0135
  898MOL0     H18533   9.761   5.955  -0.079 -0.5107  0.9239  2.3007
  898MOL0     H18534   9.512   6.018  -0.383  0.2518 -1.7894 -0.0680
  898MOL0     H18535   9.828   6.773  -0.145 -0.1931 -1.1720  0.7173
  898MOL0     H18536   9.887   6.972  -0.031 -0.9723  0.2437 -1.1763
  899MOL0     O18537   5.487   1.572   8.857  0.4292  0.6239 -0.7304
  899MOL0     C18538   5.409   1.523   8.776  0.5319 -0.3555  0.5497
  899MOL0     O18539   5.445   1.438   8.671 -0.1201  0.9795 -0.3622
  899MOL0     C18540   5.574   1.389   8.649  0.6002  0.1176 -0.7261
  899MOL0     C18541   5.663   1.369   8.750  0.1705 -0.3722  0.2639
  899MOL0     C18542   5.780   1.314   8.724 -0.0314  0.4378  0.0764
  899MOL0     C18543   5.818   1.259   8.597  0.5378  0.1837  0.2022
  899MOL0     O18544   5.931   1.189   8.560  0.3410 -1.0419 -0.3823
  899MOL0     C18545   5.977   1.073   8.645 -0.3201  0.2221  0.3956
  899MOL0     C18546   6.121   1.054   8.599  1.1714  1.0968 -0.3433
  899MOL0     C18547   6.178   0.916   8.642 -0.3219  0.0019 -0.0256
  899MOL0     C18548   6.324   0.906   8.587  0.0921  0.3102 -0.0874
  899MOL0     C18549   6.378   0.762   8.608  0.2677 -0.2195 -0.2343
  899MOL0     C18550   6.509   0.749   8.529  0.3092 -0.3227 -0.2106
  899MOL0     C18551   6.591   0.629   8.577 -0.7113  0.2407 -0.4552
  899MOL0     C18552   6.735   0.623   8.534 -0.4266 -0.3912 -0.5396
  899MOL0     N18553   6.764   0.644   8.395  0.1256 -0.7699 -0.4674
  899MOL0     C18554   6.737   0.555   8.298  0.2433 -1.4793  0.5272
  899MOL0     C18555   6.794   0.617   8.189 -0.7562 -0.5536  0.2450
  899MOL0     C18556   6.795   0.564   8.048  0.2720  0.4496  0.6109
  899MOL0     C18557   6.803   0.679   7.945  0.1405 -0.0496  0.3502
  899MOL0     C18558   6.669   0.764   7.948  0.1511 -0.8930  0.7716
  899MOL0     C18559   6.688   0.896   8.011 -1.0502  0.7475 -0.1982
  899MOL0     O18560   6.588   0.992   7.978 -0.2904 -0.6267 -0.4794
  899MOL0     C18561   6.461   0.967   8.035 -0.3252 -0.1227  0.0525
  899MOL0     C18562   6.354   1.020   7.961  0.1021  0.2463 -0.2061
  899MOL0     C18563   6.222   0.993   7.999 -0.2123 -1.1522  0.3198
  899MOL0     C18564   6.182   0.912   8.101  0.1370 -0.2030 -0.4414
  899MOL0     C18565   6.043   0.873   8.140  0.6155 -0.2550 -0.6919
  899MOL0     O18566   5.947   0.964   8.120 -1.0981  0.1061  0.6601
  899MOL0     C18567   5.823   0.953   8.171  0.2344  0.0967 -0.1858
  899MOL0     C18568   5.710   0.907   8.094 -0.1886 -0.2741 -0.1700
  899MOL0     C18569   5.590   0.885   8.157  0.0877  1.4646 -0.1237
  899MOL0     C18570   5.573   0.903   8.297  0.5139 -0.5371  0.7219
  899MOL0     O18571   5.448   0.876   8.344 -0.1811  0.7768 -1.0908
  899MOL0     C18572   5.416   0.873   8.482 -0.3213 -0.0838  0.6640
  899MOL0     C18573   5.361   1.002   8.532 -0.8191 -0.5590  0.4369
  899MOL0     C18574   5.292   0.993   8.669 -0.1988 -0.2015  0.0492
  899MOL0     C18575   5.151   1.064   8.692  0.6379  0.1106  0.3121
  899MOL0     C18576   5.124   1.077   8.840  0.0119  0.0886  0.5278
  899MOL0     C18577   5.172   1.207   8.889  0.1143 -0.3962  0.0910
  899MOL0     C18578   5.129   1.236   9.035  0.2940  0.1594 -0.2831
  899MOL0     C18579   5.195   1.370   9.076 -0.5879 -0.4081 -0.9980
  899MOL0    Cl18580   5.379   1.365   9.050 -0.2881 -0.1584 -0.2248
  899MOL0     C18581   5.679   0.961   8.368 -0.2005  0.2622 -0.0408
  899MOL0     C18582   5.806   0.984   8.308 -0.5953  0.5432  1.1106
  899MOL0     O18583   6.029   0.767   8.203 -0.6152  0.0011 -0.4305
  899MOL0     C18584   6.298   0.861   8.180 -0.8635  0.1262 -0.1298
  899MOL0     C18585   6.433   0.891   8.148  1.0110  0.6681  0.1420
  899MOL0     N18586   6.844   0.744   8.225  0.2514 -0.5903 -0.3449
  899MOL0     N18587   6.826   0.760   8.344  0.4130 -0.3275 -0.1007
  899MOL0     C18588   5.734   1.297   8.491 -0.0370  0.1552 -0.3194
  899MOL0     C18589   5.608   1.349   8.518  0.1782 -0.3478 -0.0404
  899MOL0     C18590   5.275   1.578   8.750 -0.5102 -0.3190  0.3393
  899MOL0     C18591   5.194   1.510   8.655 -0.0537  0.0339 -0.1120
  899MOL0     C18592   5.066   1.555   8.626 -0.0348 -0.1029 -0.1377
  899MOL0     C18593   5.004   1.642   8.709  0.8970  0.0227  0.4010
  899MOL0     O18594   4.872   1.681   8.689 -0.2937  0.1145 -0.2480
  899MOL0     C18595   4.771   1.572   8.701  0.3998 -0.9711  0.2027
  899MOL0     C18596   4.636   1.641   8.705  0.3381 -0.1800 -0.9687
  899MOL0     C18597   4.521   1.533   8.673 -0.1620 -0.8118  0.8277
  899MOL0     C18598   4.483   1.520   8.525  0.5786  0.4852 -0.4772
  899MOL0     C18599   4.429   1.637   8.455  0.1713 -0.3000 -0.8699
  899MOL0     C18600   4.385   1.736   8.407 -0.0762 -0.2328 -0.3027
  899MOL0     C18601   5.078   1.708   8.811  0.3169  0.0481 -0.2090
  899MOL0     C18602   5.214   1.676   8.827  0.3542 -1.1465 -0.7378
  899MOL0     H18603   5.651   1.400   8.854 -1.3716  2.8336 -0.7490
  899MOL0     H18604   5.854   1.306   8.803 -1.8566 -0.5784  1.7862
  899MOL0     H18605   5.913   0.988   8.619  2.4771 -1.5708 -1.2902
  899MOL0     H18606   5.963   1.102   8.749 -0.8737  0.3406  0.2915
  899MOL0     H18607   6.189   1.129   8.640  2.4645 -1.0105  1.5893
  899MOL0     H18608   6.132   1.068   8.491  2.3459  0.1949 -0.3574
  899MOL0     H18609   6.121   0.829   8.608  1.1711 -0.6594 -0.9422
  899MOL0     H18610   6.173   0.912   8.751  2.3524  2.3531  0.3104
  899MOL0     H18611   6.326   0.921   8.478 -0.3169 -1.9723 -0.4683
  899MOL0     H18612   6.394   0.972   8.638  1.3407 -1.1724  0.2210
  899MOL0     H18613   6.315   0.677   8.580 -1.6538  1.4570 -1.1798
  899MOL0     H18614   6.390   0.754   8.717  0.7198  1.7845 -0.0950
  899MOL0     H18615   6.567   0.839   8.551  0.4007 -0.7384  1.4182
  899MOL0     H18616   6.494   0.741   8.421  1.4351 -1.7436 -0.2883
  899MOL0     H18617   6.582   0.613   8.685  0.1588  0.3601 -0.3535
  899MOL0     H18618   6.548   0.543   8.526 -0.8375  1.5015 -2.6110
  899MOL0     H18619   6.770   0.524   8.566 -0.6232 -0.4774 -0.5864
  899MOL0     H18620   6.797   0.695   8.587  0.1143 -0.8551 -0.5374
  899MOL0     H18621   6.673   0.468   8.303 -2.7015  0.1594 -2.9985
  899MOL0     H18622   6.705   0.505   8.029 -0.6480  0.1972  4.9055
  899MOL0     H18623   6.886   0.503   8.044  0.7246  1.1625 -1.5498
  899MOL0     H18624   6.807   0.638   7.844 -3.0957  0.4837 -0.1151
  899MOL0     H18625   6.896   0.734   7.960  1.5857 -1.8707 -1.3243
  899MOL0     H18626   6.639   0.791   7.846 -0.6244 -2.3987  0.5729
  899MOL0     H18627   6.588   0.704   7.989 -1.7584 -0.7151 -2.3727
  899MOL0     H18628   6.780   0.942   7.972 -1.6610  3.0550  0.8778
  899MOL0     H18629   6.691   0.884   8.119 -0.6898 -1.9809 -0.4494
  899MOL0     H18630   6.365   1.067   7.864 -1.1497 -1.6902 -1.3354
  899MOL0     H18631   6.148   1.046   7.940  1.4340  0.5990 -0.2868
  899MOL0     H18632   5.733   0.903   7.988  3.3209 -1.6169  0.4873
  899MOL0     H18633   5.498   0.856   8.107 -0.3473 -0.7602  1.8049
  899MOL0     H18634   5.501   0.861   8.549  1.4087  0.0372 -1.4134
  899MOL0     H18635   5.348   0.789   8.500 -0.6937 -0.8275 -3.2576
  899MOL0     H18636   5.284   1.024   8.458  0.7979 -0.4192 -1.2811
  899MOL0     H18637   5.439   1.078   8.525 -1.5521  0.0753 -1.3684
  899MOL0     H18638   5.357   1.041   8.743 -0.2139 -2.4284  1.6163
  899MOL0     H18639   5.282   0.889   8.702  0.0167  0.8325  3.9911
  899MOL0     H18640   5.146   1.160   8.641  3.5750 -0.0145 -0.4011
  899MOL0     H18641   5.083   1.000   8.636  4.0123 -3.0600 -0.5677
  899MOL0     H18642   5.175   1.002   8.901 -0.3921 -0.8019 -0.1973
  899MOL0     H18643   5.017   1.067   8.857 -0.1192  1.7650  0.8154
  899MOL0     H18644   5.133   1.282   8.819  0.8157 -0.7603 -0.7087
  899MOL0     H18645   5.278   1.214   8.865 -0.4402 -1.4490 -3.2546
  899MOL0     H18646   5.022   1.258   9.042  0.7483  2.9083 -0.7700
  899MOL0     H18647   5.154   1.153   9.101 -2.9676 -0.8230 -0.1431
  899MOL0     H18648   5.181   1.393   9.182  1.5849  4.5370 -1.5347
  899MOL0     H18649   5.159   1.448   9.009  0.9266  1.2350  0.0314
  899MOL0     H18650   5.669   0.997   8.470 -1.0313 -2.3939  0.8968
  899MOL0     H18651   5.892   1.025   8.361  0.9549 -2.1236  0.8510
  899MOL0     H18652   6.279   0.818   8.278  0.6006 -0.1077  0.0814
  899MOL0     H18653   6.512   0.850   8.211 -0.4819 -2.6248  0.0873
  899MOL0     H18654   5.747   1.248   8.395 -0.2106  0.0652 -0.2970
  899MOL0     H18655   5.528   1.367   8.447  0.6139  1.2939 -0.1532
  899MOL0     H18656   5.244   1.435   8.594  0.0812 -0.1679  0.2401
  899MOL0     H18657   5.019   1.530   8.531 -3.0186  2.5464  0.4601
  899MOL0     H18658   4.755   1.519   8.795  0.5352 -2.0943 -0.4011
  899MOL0     H18659   4.766   1.495   8.624  0.5336 -0.9552  0.1765
  899MOL0     H18660   4.617   1.684   8.804 -2.5581  0.9095 -1.8991
  899MOL0     H18661   4.622   1.730   8.642 -0.5887  1.3122  1.2290
  899MOL0     H18662   4.434   1.550   8.737  1.3195 -2.1124  3.3514
  899MOL0     H18663   4.568   1.436   8.692  1.0804 -1.3722 -3.8193
  899MOL0     H18664   4.576   1.490   8.475 -1.2558 -3.0702 -2.1186
  899MOL0     H18665   4.424   1.430   8.508  1.0195 -0.0721  0.8039
  899MOL0     H18666   4.354   1.826   8.357 -1.3610  0.1547  1.1130
  899MOL0     H18667   5.039   1.770   8.891 -1.0723  2.1117 -2.3474
  899MOL0     H18668   5.267   1.712   8.914 -1.6790 -2.7073  1.2579
  900MOL0     O18669   5.814   8.675   2.663  0.4115  0.6637  1.1717
  900MOL0     C18670   5.704   8.714   2.643  0.0637 -0.2393 -0.9682
  900MOL0     O18671   5.665   8.756   2.524  1.1553 -0.2289  0.0805
  900MOL0     C18672   5.743   8.741   2.413 -0.8428 -0.5297 -1.0912
  900MOL0     C18673   5.779   8.623   2.372  0.4536 -0.1823  0.8957
  900MOL0     C18674   5.851   8.597   2.257 -0.3263 -0.3600  0.0069
  900MOL0     C18675   5.874   8.704   2.170 -0.6552  0.2054  1.1188
  900MOL0     O18676   5.947   8.707   2.060  0.5546 -0.6956  0.1081
  900MOL0     C18677   5.996   8.596   1.990 -0.2275 -0.8206  0.1220
  900MOL0     C18678   6.147   8.604   1.984 -0.3375  0.9847  0.8308
  900MOL0     C18679   6.191   8.719   1.905  0.6690 -0.2542  1.4034
  900MOL0     C18680   6.344   8.719   1.899 -0.1228  0.2657  0.5805
  900MOL0     C18681   6.408   8.729   2.042 -0.0729 -0.0576  0.1474
  900MOL0     C18682   6.547   8.773   2.028  1.0854 -0.1169  0.0234
  900MOL0     C18683   6.621   8.786   2.161 -0.6254 -0.4075 -0.4774
  900MOL0     C18684   6.760   8.856   2.151 -0.0329 -1.1743 -0.1309
  900MOL0     N18685   6.843   8.833   2.272 -0.2708 -0.1925  0.7097
  900MOL0     C18686   6.859   8.711   2.337 -0.9554  0.1180  0.0302
  900MOL0     C18687   6.940   8.742   2.438 -0.7609  0.2168 -0.7508
  900MOL0     C18688   7.024   8.642   2.512 -0.2257 -0.0882  0.0742
  900MOL0     C18689   6.949   8.585   2.635  0.4643  0.0706  0.8464
  900MOL0     C18690   6.839   8.481   2.597 -0.7750 -0.2293  0.0104
  900MOL0     C18691   6.705   8.546   2.580  0.4964  0.8809 -0.1274
  900MOL0     O18692   6.635   8.494   2.470 -0.6235  0.8681  0.4617
  900MOL0     C18693   6.567   8.378   2.491 -0.1506  0.0188 -0.3331
  900MOL0     C18694   6.564   8.299   2.610  0.3977  0.6091 -0.0364
  900MOL0     C18695   6.486   8.178   2.600  0.6672 -0.4733  0.4084
  900MOL0     C18696   6.411   8.138   2.485  0.5181 -0.3466 -0.4046
  900MOL0     C18697   6.319   8.027   2.472  0.4370  0.2435  0.1102
  900MOL0     O18698   6.283   7.967   2.592 -0.3447 -0.6778 -0.7004
  900MOL0     C18699   6.201   7.859   2.599  0.1581  0.4311  0.1548
  900MOL0     C18700   6.225   7.728   2.555  0.4923 -0.1767  0.2029
  900MOL0     C18701   6.132   7.624   2.569 -0.3820  0.1438  0.7868
  900MOL0     C18702   6.006   7.636   2.608 -1.0252 -0.0122 -0.3329
  900MOL0     O18703   5.931   7.519   2.636 -0.1489 -0.6783  0.1783
  900MOL0     C18704   5.794   7.528   2.678  0.7956  0.5531  0.6014
  900MOL0     C18705   5.727   7.410   2.613 -1.1671  0.6040 -0.3167
  900MOL0     C18706   5.757   7.386   2.460 -0.0153  0.5490 -0.6652
  900MOL0     C18707   5.714   7.519   2.387 -0.0243  0.4995  0.8928
  900MOL0     C18708   5.691   7.509   2.236  0.6681  0.4338 -0.5311
  900MOL0     C18709   5.809   7.454   2.162 -0.6795 -0.3631  0.0884
  900MOL0     C18710   5.928   7.547   2.131 -0.8459 -0.2337  0.1887
  900MOL0     C18711   6.025   7.585   2.249 -0.6220  0.0508 -0.6300
  900MOL0    Cl18712   6.166   7.677   2.174 -0.6168 -0.2038 -0.1904
  900MOL0     C18713   5.978   7.772   2.640  0.0111  0.6403  0.1414
  900MOL0     C18714   6.071   7.883   2.627 -0.9281 -0.2478 -0.0381
  900MOL0     O18715   6.291   7.982   2.368  0.3944 -0.2275  0.6103
  900MOL0     C18716   6.412   8.235   2.376  0.3033  0.5817  1.2542
  900MOL0     C18717   6.499   8.337   2.372 -0.1408  0.6474 -0.5391
  900MOL0     N18718   6.961   8.884   2.436 -0.0415 -0.2446 -0.3969
  900MOL0     N18719   6.912   8.932   2.334 -0.0155  0.2338  0.9039
  900MOL0     C18720   5.824   8.832   2.204 -0.2276 -0.6017 -0.0127
  900MOL0     C18721   5.746   8.845   2.322  0.9786 -0.1159  0.5752
  900MOL0     C18722   5.613   8.703   2.759  0.3674 -0.2265  0.5221
  900MOL0     C18723   5.482   8.728   2.738  0.5210  0.6730 -0.7342
  900MOL0     C18724   5.393   8.720   2.844  0.3133 -0.2579  1.0215
  900MOL0     C18725   5.430   8.690   2.978 -0.5389  0.7236  0.3489
  900MOL0     O18726   5.327   8.696   3.070  0.3122  0.2816  0.9748
  900MOL0     C18727   5.357   8.669   3.212  0.1507  0.4122  0.7834
  900MOL0     C18728   5.233   8.669   3.300 -0.3590 -0.1574  0.3807
  900MOL0     C18729   5.188   8.816   3.329  0.1145  0.2964  0.0186
  900MOL0     C18730   5.064   8.822   3.409 -0.2128  0.3199 -0.4171
  900MOL0     C18731   5.084   8.797   3.558  0.1928 -0.0796  0.8994
  900MOL0     C18732   5.104   8.773   3.671  0.1451 -0.2646 -0.0949
  900MOL0     C18733   5.565   8.673   3.001 -0.1990  0.1143  0.0497
  900MOL0     C18734   5.654   8.672   2.893  0.2735  1.4197 -0.1259
  900MOL0     H18735   5.775   8.542   2.443  1.5364 -0.8610  0.1977
  900MOL0     H18736   5.888   8.496   2.241 -0.5342 -0.0331 -3.1115
  900MOL0     H18737   5.968   8.587   1.884  0.3807 -0.8365 -0.0397
  900MOL0     H18738   5.959   8.503   2.034  0.3195 -0.5197  1.2410
  900MOL0     H18739   6.188   8.508   1.950 -0.3512  1.5913 -0.9708
  900MOL0     H18740   6.194   8.618   2.082  3.1427  3.4974 -0.9930
  900MOL0     H18741   6.150   8.806   1.956  0.5288 -0.7973  2.2280
  900MOL0     H18742   6.166   8.706   1.799  2.7676  1.7393  0.5624
  900MOL0     H18743   6.379   8.628   1.850 -0.3955  0.5745 -0.1988
  900MOL0     H18744   6.365   8.807   1.837 -2.1304 -0.2899 -1.0319
  900MOL0     H18745   6.406   8.634   2.096 -0.3818 -0.5436 -0.7027
  900MOL0     H18746   6.346   8.800   2.098  0.6264 -0.0680  0.9573
  900MOL0     H18747   6.557   8.867   1.973  4.0049 -1.4147 -1.8947
  900MOL0     H18748   6.595   8.699   1.964 -0.6870  1.9406 -4.0848
  900MOL0     H18749   6.566   8.849   2.231  1.4422 -0.6398  1.4459
  900MOL0     H18750   6.624   8.688   2.210  0.8151  1.0401  2.5976
  900MOL0     H18751   6.768   8.962   2.125  2.2435 -1.8246 -2.4275
  900MOL0     H18752   6.812   8.797   2.075  0.5269 -3.8816  2.1542
  900MOL0     H18753   6.828   8.611   2.306  0.5744 -0.0551 -1.0506
  900MOL0     H18754   7.119   8.693   2.533 -0.4628  0.8281 -0.9876
  900MOL0     H18755   7.049   8.557   2.449  0.5885  1.5118 -1.8640
  900MOL0     H18756   6.901   8.666   2.690 -1.0243  3.3091 -4.4513
  900MOL0     H18757   7.027   8.541   2.697 -0.3624 -1.8482  0.6176
  900MOL0     H18758   6.863   8.426   2.506 -1.2213 -2.3656  1.1330
  900MOL0     H18759   6.832   8.409   2.679 -1.6827  1.9243  1.9262
  900MOL0     H18760   6.723   8.653   2.568 -0.6781  1.1640  0.4240
  900MOL0     H18761   6.650   8.541   2.675  0.6341 -3.4685 -0.0738
  900MOL0     H18762   6.616   8.326   2.701 -1.4805  0.7244  1.0493
  900MOL0     H18763   6.481   8.118   2.690  0.4109  0.2512  0.8821
  900MOL0     H18764   6.329   7.698   2.541  0.3723 -0.4458 -0.1311
  900MOL0     H18765   6.167   7.527   2.534  1.6857  2.5091 -4.9295
  900MOL0     H18766   5.746   7.620   2.645  0.6431 -1.0782 -4.7922
  900MOL0     H18767   5.801   7.514   2.786  0.0630  2.8734  1.0004
  900MOL0     H18768   5.620   7.421   2.635 -1.7507  2.2525 -3.4247
  900MOL0     H18769   5.765   7.321   2.664  1.1773 -0.2098 -3.1556
  900MOL0     H18770   5.699   7.303   2.417 -1.0325 -0.4654  2.3869
  900MOL0     H18771   5.865   7.376   2.449  0.2508  1.3461  0.9860
  900MOL0     H18772   5.623   7.562   2.431  0.3432  0.4522  1.7212
  900MOL0     H18773   5.785   7.601   2.404 -0.1410  1.2161 -1.7333
  900MOL0     H18774   5.660   7.601   2.184  1.7425  0.6737 -0.7738
  900MOL0     H18775   5.609   7.439   2.219  1.1290 -0.1705 -0.2707
  900MOL0     H18776   5.763   7.423   2.068  3.6579 -0.7275 -2.2072
  900MOL0     H18777   5.854   7.359   2.192  1.2461 -0.5011 -2.8121
  900MOL0     H18778   5.990   7.496   2.056  0.0257 -5.5337  3.9245
  900MOL0     H18779   5.887   7.645   2.106  1.7438  1.8651  3.2533
  900MOL0     H18780   6.069   7.497   2.296  0.5949 -0.3373 -2.3835
  900MOL0     H18781   5.959   7.642   2.315 -2.8769  0.1286 -2.7907
  900MOL0     H18782   5.872   7.789   2.660 -0.8511 -1.0717 -2.4529
  900MOL0     H18783   6.034   7.984   2.635  0.3359  0.1495  1.2435
  900MOL0     H18784   6.352   8.215   2.288  1.5409  0.5261  0.3983
  900MOL0     H18785   6.496   8.396   2.281 -0.6658 -5.2526 -4.9408
  900MOL0     H18786   5.832   8.917   2.136 -0.1188 -0.1375  0.5700
  900MOL0     H18787   5.687   8.933   2.347  1.2953 -0.3757  2.3787
  900MOL0     H18788   5.435   8.736   2.641 -3.7765 -0.5053  1.0100
  900MOL0     H18789   5.293   8.748   2.812  1.4679 -0.7017 -3.7224
  900MOL0     H18790   5.431   8.745   3.236  1.4409 -0.1277 -1.1957
  900MOL0     H18791   5.396   8.567   3.221 -1.7053 -0.3682  0.5524
  900MOL0     H18792   5.154   8.610   3.254 -2.3985  1.2253  1.9224
  900MOL0     H18793   5.255   8.610   3.390 -1.2878 -2.0825 -0.6069
  900MOL0     H18794   5.168   8.849   3.226  1.3887  2.5842  0.4433
  900MOL0     H18795   5.267   8.878   3.374 -1.0603  0.3197  2.1722
  900MOL0     H18796   5.002   8.908   3.380 -1.9230 -1.3642 -2.0507
  900MOL0     H18797   5.001   8.737   3.384 -1.3306  0.3098  2.1405
  900MOL0     H18798   5.108   8.757   3.777 -0.1610 -1.8947 -0.3036
  900MOL0     H18799   5.595   8.648   3.103 -1.8635 -2.1111  0.0739
  900MOL0     H18800   5.759   8.650   2.912 -0.2592 -1.5172 -0.1389
  901MOL0     O18801   2.819   1.015   2.235  0.0425  0.4690 -1.1268
  901MOL0     C18802   2.807   0.929   2.147 -0.3281  0.0034 -0.5507
  901MOL0     O18803   2.829   0.800   2.154 -0.7407  0.2836 -0.0019
  901MOL0     C18804   2.876   0.759   2.275 -0.1830 -0.3268  0.9138
  901MOL0     C18805   2.991   0.815   2.332  0.3237 -0.4250 -0.2446
  901MOL0     C18806   3.028   0.795   2.471 -0.6833  0.6879 -0.1083
  901MOL0     C18807   2.949   0.708   2.554  0.2764  0.6518  0.1934
  901MOL0     O18808   2.983   0.684   2.688  0.3201 -0.5444  0.6088
  901MOL0     C18809   2.879   0.710   2.776  0.5930 -0.3002  0.2636
  901MOL0     C18810   2.928   0.739   2.922 -0.3200 -0.0701 -0.6285
  901MOL0     C18811   3.036   0.848   2.933  0.0520 -0.4282  0.0190
  901MOL0     C18812   3.110   0.848   3.074  0.1429 -0.0402 -0.2316
  901MOL0     C18813   3.123   0.979   3.145 -0.2913  0.3075 -1.0969
  901MOL0     C18814   3.202   0.964   3.276  0.4868  0.0728 -0.3691
  901MOL0     C18815   3.251   1.093   3.322 -0.3714  0.3443 -0.3628
  901MOL0     C18816   3.365   1.165   3.243 -0.0166 -0.1617 -0.0178
  901MOL0     N18817   3.468   1.072   3.208  0.8992 -0.0427 -0.2827
  901MOL0     C18818   3.500   1.036   3.083  1.1329  0.2330  0.0023
  901MOL0     C18819   3.629   0.992   3.096 -0.5368  0.6825 -0.2813
  901MOL0     C18820   3.713   0.949   2.980 -1.4498  0.1939 -0.5990
  901MOL0     C18821   3.803   0.832   3.020 -0.4221  0.0353  0.4771
  901MOL0     C18822   3.868   0.808   2.889  0.3700 -0.6136 -0.1445
  901MOL0     C18823   3.937   0.676   2.865 -0.5425  0.3034  0.6243
  901MOL0     O18824   3.853   0.565   2.891 -0.3129 -0.5576 -0.5179
  901MOL0     C18825   3.910   0.439   2.887 -0.5558  0.4366  0.6752
  901MOL0     C18826   4.048   0.405   2.877 -0.7492  0.2315 -0.2543
  901MOL0     C18827   4.092   0.270   2.868  0.7822  2.1596  0.4424
  901MOL0     C18828   3.992   0.172   2.867 -0.7937 -0.4656 -0.1818
  901MOL0     C18829   4.025   0.030   2.846 -0.8982 -0.5746 -0.0096
  901MOL0     O18830   3.935  -0.069   2.814  0.2519 -0.1740  0.0444
  901MOL0     C18831   3.982  -0.203   2.789 -0.2354 -0.5132 -0.8163
  901MOL0     C18832   3.961  -0.267   2.658  0.2671 -0.5688  0.6103
  901MOL0     C18833   4.009  -0.388   2.631 -0.7122 -0.8453 -0.4202
  901MOL0     C18834   4.067  -0.462   2.731  0.4461 -0.8025  0.4111
  901MOL0     O18835   4.106  -0.584   2.687 -0.1282 -0.5627  0.5616
  901MOL0     C18836   4.224  -0.639   2.757  0.6945 -0.3086 -0.8191
  901MOL0     C18837   4.354  -0.555   2.767 -0.3950 -0.8526 -1.0497
  901MOL0     C18838   4.481  -0.644   2.769  0.2628 -0.4180 -0.3586
  901MOL0     C18839   4.461  -0.786   2.839 -0.3654 -0.2759  0.3271
  901MOL0     C18840   4.598  -0.848   2.880  0.1577  0.2681 -0.4385
  901MOL0     C18841   4.665  -0.891   2.754 -0.3363 -0.5034 -0.1710
  901MOL0     C18842   4.796  -0.952   2.788 -0.8421  0.9771 -0.2498
  901MOL0     C18843   4.865  -1.039   2.680 -0.7249  0.2176  0.2006
  901MOL0    Cl18844   5.048  -1.032   2.677 -0.4608  0.0241  0.0381
  901MOL0     C18845   4.082  -0.401   2.866 -0.6737  0.4408 -0.6076
  901MOL0     C18846   4.032  -0.277   2.894 -0.3640 -0.7859  0.0824
  901MOL0     O18847   4.145   0.003   2.840  0.0757  0.0163 -0.6283
  901MOL0     C18848   3.855   0.200   2.861 -1.1413  0.0045  0.6919
  901MOL0     C18849   3.823   0.331   2.876 -0.1557  0.4498 -0.8225
  901MOL0     N18850   3.661   0.976   3.231  0.4120 -0.9564 -0.6540
  901MOL0     N18851   3.562   1.025   3.295 -0.6353  0.4161 -0.8554
  901MOL0     C18852   2.847   0.637   2.494  0.0910 -0.5576 -0.1936
  901MOL0     C18853   2.810   0.663   2.361  0.6460  0.7101 -0.1194
  901MOL0     C18854   2.790   0.969   2.010  0.7086  0.3541 -0.2040
  901MOL0     C18855   2.775   1.111   1.979  0.9777  0.3895  0.0782
  901MOL0     C18856   2.736   1.172   1.852  0.5248  0.3974 -0.3480
  901MOL0     C18857   2.728   1.072   1.748 -1.1483  0.7151 -0.2667
  901MOL0     O18858   2.704   1.098   1.617  0.4608 -0.4463  0.2061
  901MOL0     C18859   2.589   1.181   1.592  0.0331  0.4153 -0.1763
  901MOL0     C18860   2.517   1.110   1.472 -0.1066 -0.0387  0.0119
  901MOL0     C18861   2.561   1.169   1.338  0.1748 -0.1978  0.1746
  901MOL0     C18862   2.463   1.171   1.222  0.1522 -0.0984  0.1215
  901MOL0     C18863   2.346   1.246   1.236 -0.4293 -1.1567 -0.0342
  901MOL0     C18864   2.238   1.305   1.232  0.8088 -0.8129 -0.2115
  901MOL0     C18865   2.752   0.933   1.771 -0.7505  0.2047 -1.1085
  901MOL0     C18866   2.788   0.882   1.897  0.1760  0.1275  0.0348
  901MOL0     H18867   3.051   0.879   2.268 -0.7789 -1.3583 -2.3009
  901MOL0     H18868   3.116   0.850   2.504  1.4835 -1.7219 -1.5607
  901MOL0     H18869   2.807   0.627   2.771  0.7433 -0.3611 -2.4101
  901MOL0     H18870   2.817   0.797   2.751  0.5710 -0.8117 -1.6317
  901MOL0     H18871   2.957   0.645   2.969 -2.9747 -0.8102 -0.2929
  901MOL0     H18872   2.847   0.773   2.988  2.6716  0.7349  2.9003
  901MOL0     H18873   2.972   0.935   2.922 -2.8648 -2.2373  1.3696
  901MOL0     H18874   3.113   0.849   2.854  1.1253 -1.2511  1.0084
  901MOL0     H18875   3.051   0.785   3.142 -2.1296 -0.0600 -2.1026
  901MOL0     H18876   3.206   0.795   3.070  0.0538 -0.1875 -0.4223
  901MOL0     H18877   3.026   1.025   3.165 -0.2471 -1.1266  3.5271
  901MOL0     H18878   3.172   1.058   3.086  1.6033  1.4664  1.7632
  901MOL0     H18879   3.274   0.882   3.282 -1.9941 -2.1512  2.9011
  901MOL0     H18880   3.136   0.936   3.359  0.8450 -2.3328 -0.8182
  901MOL0     H18881   3.173   1.169   3.335  0.0893  0.6183  0.8935
  901MOL0     H18882   3.291   1.075   3.422 -1.3374 -0.5145 -0.1200
  901MOL0     H18883   3.411   1.241   3.306 -0.3240  0.1240 -0.1390
  901MOL0     H18884   3.325   1.221   3.158  0.6206  1.2223  0.5597
  901MOL0     H18885   3.454   1.053   2.986 -1.1631  0.5454  1.0730
  901MOL0     H18886   3.778   1.030   2.947  0.5629 -1.4676 -0.9716
  901MOL0     H18887   3.648   0.921   2.897  1.2286 -0.5308 -2.6028
  901MOL0     H18888   3.752   0.739   3.045  1.4911 -1.4184 -0.7953
  901MOL0     H18889   3.866   0.858   3.106 -0.4527 -1.5811  1.0175
  901MOL0     H18890   3.788   0.805   2.815  2.3966  1.5637 -2.6568
  901MOL0     H18891   3.945   0.882   2.866 -0.4255 -0.0102 -0.9418
  901MOL0     H18892   4.024   0.669   2.930  1.1835 -1.4974 -1.7406
  901MOL0     H18893   3.974   0.680   2.762  0.8132  3.2387  1.1159
  901MOL0     H18894   4.120   0.486   2.863 -2.1724  1.8131  1.0775
  901MOL0     H18895   4.198   0.252   2.860  0.3463 -1.5367  0.9361
  901MOL0     H18896   3.948  -0.197   2.576 -0.3700 -0.9406  0.3802
  901MOL0     H18897   4.032  -0.413   2.528  2.2427  1.4956 -0.4457
  901MOL0     H18898   4.243  -0.736   2.709 -1.2779  0.3859 -3.1874
  901MOL0     H18899   4.183  -0.673   2.853  1.2473  0.4545 -0.3100
  901MOL0     H18900   4.351  -0.508   2.866  0.1365 -1.3360 -0.8000
  901MOL0     H18901   4.355  -0.474   2.693 -0.5706  1.5379  1.3992
  901MOL0     H18902   4.571  -0.603   2.816  1.9821 -2.8476 -1.2940
  901MOL0     H18903   4.508  -0.661   2.664  0.5987  0.9349 -0.5028
  901MOL0     H18904   4.394  -0.770   2.924  0.8059  2.7832  0.8097
  901MOL0     H18905   4.406  -0.857   2.777  0.7853 -2.2220  1.4455
  901MOL0     H18906   4.582  -0.937   2.942 -0.4958  0.5677 -0.1557
  901MOL0     H18907   4.652  -0.781   2.948 -0.3063 -1.4986  1.8046
  901MOL0     H18908   4.677  -0.805   2.686 -1.9380 -0.0218  0.1227
  901MOL0     H18909   4.603  -0.970   2.711  2.0946 -1.6896 -1.7380
  901MOL0     H18910   4.863  -0.868   2.811 -0.8138  2.0328 -3.6085
  901MOL0     H18911   4.794  -1.017   2.876  1.3817 -0.3310 -1.0861
  901MOL0     H18912   4.817  -1.023   2.583 -0.6349 -2.7345 -0.4160
  901MOL0     H18913   4.844  -1.143   2.706  0.5935  0.3066  1.8148
  901MOL0     H18914   4.140  -0.449   2.945  0.3209 -1.4132 -2.3737
  901MOL0     H18915   4.038  -0.224   2.988 -0.3745  0.5590 -0.6544
  901MOL0     H18916   3.773   0.129   2.863 -0.8147 -0.3899  0.4344
  901MOL0     H18917   3.721   0.363   2.859 -0.3384  0.1611 -0.2881
  901MOL0     H18918   2.802   0.559   2.555 -0.1491  0.9919  1.7011
  901MOL0     H18919   2.728   0.600   2.327  2.7689 -3.3983  1.6825
  901MOL0     H18920   2.758   1.180   2.061 -1.2166  0.5648 -0.4670
  901MOL0     H18921   2.709   1.274   1.826 -0.2345  0.4826  0.7097
  901MOL0     H18922   2.614   1.285   1.571 -0.2640  1.0711  2.3381
  901MOL0     H18923   2.516   1.182   1.673 -0.6081 -2.6755 -0.5731
  901MOL0     H18924   2.552   1.007   1.476 -1.2258 -0.4132  0.5587
  901MOL0     H18925   2.408   1.112   1.487 -0.3288 -0.1758 -1.4928
  901MOL0     H18926   2.646   1.118   1.292 -0.7793 -0.6925 -1.1256
  901MOL0     H18927   2.591   1.272   1.360 -2.6156  1.1541 -1.7419
  901MOL0     H18928   2.524   1.193   1.133  0.8260 -2.7912 -0.1811
  901MOL0     H18929   2.430   1.068   1.202  0.9588 -0.0369 -1.7754
  901MOL0     H18930   2.152   1.367   1.217 -1.0126 -3.6886 -2.8147
  901MOL0     H18931   2.762   0.864   1.688  0.6995  0.2037 -0.9416
  901MOL0     H18932   2.803   0.776   1.916  3.2187  0.4163 -0.3136
  902MOL0     O18933   3.780  10.961   6.824  0.7531  0.1670 -0.5970
  902MOL0     C18934   3.896  10.940   6.832  0.3958  0.2669 -0.6457
  902MOL0     O18935   3.981  10.979   6.936 -0.3206  0.1830 -0.2103
  902MOL0     C18936   3.943  11.051   7.047  0.4618  0.2823 -0.3168
  902MOL0     C18937   4.055  11.085   7.121  0.2981 -0.2873  1.1729
  902MOL0     C18938   4.033  11.135   7.251 -0.2252 -0.3920  0.2233
  902MOL0     C18939   3.905  11.177   7.293  0.5787  0.6332  0.8443
  902MOL0     O18940   3.867  11.228   7.423  0.5864  0.1643 -0.3394
  902MOL0     C18941   3.979  11.245   7.516  0.3401  0.2842 -0.2156
  902MOL0     C18942   3.952  11.322   7.648  0.1853 -0.0702 -0.8412
  902MOL0     C18943   3.897  11.466   7.634  0.4244 -0.0951  0.6994
  902MOL0     C18944   3.742  11.494   7.604 -0.1698  0.5064  0.7376
  902MOL0     C18945   3.704  11.639   7.657 -0.8507 -0.2575 -0.4940
  902MOL0     C18946   3.691  11.627   7.814  0.1747 -0.7879 -0.4151
  902MOL0     C18947   3.679  11.762   7.874  0.2585 -0.2615 -0.8156
  902MOL0     C18948   3.706  11.762   8.028  0.9464 -0.6153 -0.4896
  902MOL0     N18949   3.698  11.895   8.089 -1.2407 -0.8332  0.6390
  902MOL0     C18950   3.795  11.994   8.085  0.0186  0.5890 -0.0347
  902MOL0     C18951   3.732  12.108   8.099  0.1546 -0.3980  1.6908
  902MOL0     C18952   3.792  12.245   8.075  0.1936  0.0770  0.0004
  902MOL0     C18953   3.718  12.318   7.966  0.2182 -0.0590  0.4035
  902MOL0     C18954   3.792  12.442   7.926 -0.5737  0.5791  0.6637
  902MOL0     C18955   3.761  12.505   7.794  0.6615  0.0901  0.0973
  902MOL0     O18956   3.787  12.407   7.683  0.6549  0.4848  0.0571
  902MOL0     C18957   3.855  12.450   7.566 -0.5431 -0.1931 -0.8073
  902MOL0     C18958   3.857  12.575   7.523 -0.7156 -1.9492  0.0733
  902MOL0     C18959   3.955  12.623   7.438 -0.4608  0.1915 -0.0997
  902MOL0     C18960   4.045  12.530   7.370 -0.0733  0.4716  0.0692
  902MOL0     C18961   4.137  12.573   7.268  1.0524 -0.6253 -0.2266
  902MOL0     O18962   4.122  12.704   7.232 -0.6116 -0.1348  0.0583
  902MOL0     C18963   4.175  12.770   7.121  0.0435 -0.1955  0.4179
  902MOL0     C18964   4.179  12.910   7.117 -0.3581 -0.1234  0.9045
  902MOL0     C18965   4.231  12.970   7.008 -0.2473  0.8101 -0.6777
  902MOL0     C18966   4.285  12.896   6.901 -0.1268  0.4130 -0.7162
  902MOL0     O18967   4.327  12.981   6.797 -0.2482  0.0653 -0.1830
  902MOL0     C18968   4.368  12.908   6.673 -0.2333  0.3206  0.3164
  902MOL0     C18969   4.445  12.998   6.580  0.2696 -1.2351 -0.7726
  902MOL0     C18970   4.459  12.945   6.440  0.7632  0.4895  0.3133
  902MOL0     C18971   4.526  13.047   6.347 -0.3559 -0.0822  0.4436
  902MOL0     C18972   4.538  13.021   6.194  0.3361  0.4245 -0.7358
  902MOL0     C18973   4.546  12.873   6.168  0.0586  0.7061  0.4834
  902MOL0     C18974   4.508  12.839   6.024 -0.3058 -0.1830 -0.2061
  902MOL0     C18975   4.534  12.690   5.992 -0.2409  0.5806  0.7410
  902MOL0    Cl18976   4.471  12.626   5.832  0.0107 -0.1651  1.0096
  902MOL0     C18977   4.307  12.755   6.914  0.1321  1.1205  0.1491
  902MOL0     C18978   4.246  12.693   7.023  0.0776  0.4034  0.4561
  902MOL0     O18979   4.216  12.498   7.219  0.3674  0.5522 -0.2465
  902MOL0     C18980   4.040  12.395   7.405 -0.8645  0.4175 -0.6400
  902MOL0     C18981   3.960  12.361   7.513 -0.4485  0.1100  0.0250
  902MOL0     N18982   3.593  12.083   8.113 -0.1600 -0.0684 -0.2945
  902MOL0     N18983   3.580  11.953   8.112  0.3367  0.0590  0.2056
  902MOL0     C18984   3.798  11.172   7.200  0.1567  0.0641  0.9009
  902MOL0     C18985   3.815  11.093   7.083 -0.1155  0.4684  0.4151
  902MOL0     C18986   3.954  10.858   6.727 -0.3735 -0.1491 -0.1200
  902MOL0     C18987   3.904  10.835   6.599  0.1045  0.2208 -0.2425
  902MOL0     C18988   3.974  10.763   6.501  0.7626 -0.0711  0.8056
  902MOL0     C18989   4.104  10.715   6.525 -0.1284 -0.1178 -1.0425
  902MOL0     O18990   4.174  10.645   6.439  0.3782 -0.4483 -0.5884
  902MOL0     C18991   4.153  10.679   6.297 -0.7149  0.0235  0.1989
  902MOL0     C18992   4.264  10.622   6.210 -0.2817 -0.3494  0.9431
  902MOL0     C18993   4.314  10.475   6.231 -0.6897  0.0002 -0.5120
  902MOL0     C18994   4.328  10.378   6.115  0.1558  0.2683 -0.8804
  902MOL0     C18995   4.188  10.345   6.078  0.3044 -0.4287 -0.0262
  902MOL0     C18996   4.065  10.330   6.064  0.2828 -0.5576 -0.4997
  902MOL0     C18997   4.161  10.735   6.647 -0.5756 -0.5202  0.1095
  902MOL0     C18998   4.088  10.809   6.746  0.6418  0.5627 -0.0460
  902MOL0     H18999   4.155  11.054   7.092  0.9507 -0.3627  3.3241
  902MOL0     H19000   4.119  11.122   7.316  0.1751 -1.5043 -0.5090
  902MOL0     H19001   4.068  11.290   7.470  0.8449  2.2443  2.4713
  902MOL0     H19002   4.012  11.146   7.549 -1.8445  0.3148  2.3702
  902MOL0     H19003   4.043  11.325   7.709 -2.4673 -1.9286  3.6928
  902MOL0     H19004   3.885  11.263   7.710  1.6564 -2.8060 -1.7143
  902MOL0     H19005   3.942  11.507   7.543 -1.3612 -0.3648 -0.3359
  902MOL0     H19006   3.936  11.535   7.711  0.7822  0.2640  0.2067
  902MOL0     H19007   3.729  11.498   7.496  2.4502 -4.3058 -0.0732
  902MOL0     H19008   3.673  11.418   7.642 -1.3306  2.8252  3.7384
  902MOL0     H19009   3.604  11.665   7.621 -1.9147 -1.8503  1.1351
  902MOL0     H19010   3.769  11.721   7.627 -0.4874  0.0610  1.0531
  902MOL0     H19011   3.781  11.586   7.860  1.0278 -0.6652 -1.8875
  902MOL0     H19012   3.608  11.564   7.847  0.4198  0.6503  3.3737
  902MOL0     H19013   3.758  11.821   7.826  2.4212 -1.4899  1.0538
  902MOL0     H19014   3.584  11.812   7.851  0.4644 -0.5886 -2.5251
  902MOL0     H19015   3.807  11.720   8.033  0.4432 -1.8206 -0.1837
  902MOL0     H19016   3.627  11.700   8.071  1.3982 -1.2871 -0.6164
  902MOL0     H19017   3.900  11.973   8.063 -0.0293  1.2422 -0.9697
  902MOL0     H19018   3.897  12.234   8.047 -0.3949 -3.5993 -1.3767
  902MOL0     H19019   3.786  12.305   8.166 -0.3643 -0.5992  0.4224
  902MOL0     H19020   3.620  12.350   8.004 -0.1146  1.5152 -1.6212
  902MOL0     H19021   3.700  12.255   7.879 -0.8737  1.0030 -0.1761
  902MOL0     H19022   3.777  12.518   8.004  0.6349  0.3063  1.1914
  902MOL0     H19023   3.895  12.409   7.911 -0.2511  0.8040  2.2340
  902MOL0     H19024   3.817  12.597   7.775 -0.4620  0.4869 -1.5216
  902MOL0     H19025   3.657  12.537   7.803 -0.3648 -2.0971 -2.5441
  902MOL0     H19026   3.782  12.643   7.562 -0.3655 -0.8687 -1.0714
  902MOL0     H19027   3.956  12.728   7.411 -0.7944 -0.1814 -1.6397
  902MOL0     H19028   4.144  12.972   7.199 -3.2838 -2.1328  1.3223
  902MOL0     H19029   4.252  13.076   7.017  0.1835  0.6468  0.4478
  902MOL0     H19030   4.283  12.872   6.615 -0.5649 -1.9028  2.0720
  902MOL0     H19031   4.436  12.825   6.695  0.2838  1.8224  5.8667
  902MOL0     H19032   4.547  13.010   6.619  1.0144 -2.3525 -2.2930
  902MOL0     H19033   4.409  13.101   6.580  2.5745 -0.2827  2.2584
  902MOL0     H19034   4.361  12.910   6.406  2.1329 -2.1919 -1.2361
  902MOL0     H19035   4.517  12.852   6.436 -1.3357 -0.8656 -0.5932
  902MOL0     H19036   4.461  13.135   6.348  3.4870  3.1073 -1.0389
  902MOL0     H19037   4.621  13.087   6.386  0.2938  0.1089 -1.2488
  902MOL0     H19038   4.612  13.084   6.144 -0.9647  0.4597 -2.7361
  902MOL0     H19039   4.441  13.054   6.154  0.1647  0.7620 -0.0634
  902MOL0     H19040   4.464  12.813   6.209  0.2323 -1.0023 -1.4503
  902MOL0     H19041   4.646  12.834   6.188  0.2427  1.8826  1.9226
  902MOL0     H19042   4.404  12.871   6.010 -1.1413 -0.6911  3.8097
  902MOL0     H19043   4.573  12.898   5.958  0.5023  0.5229  1.1890
  902MOL0     H19044   4.500  12.625   6.072 -0.2361 -0.5639 -0.1654
  902MOL0     H19045   4.640  12.669   5.979 -0.3059  0.7860 -0.1937
  902MOL0     H19046   4.367  12.703   6.840  1.4271  0.9352  1.2825
  902MOL0     H19047   4.260  12.586   7.009 -4.5491 -0.0991 -2.6065
  902MOL0     H19048   4.113  12.325   7.367 -0.0601  0.5602  0.5964
  902MOL0     H19049   3.981  12.262   7.553  3.1572  1.2720  1.3676
  902MOL0     H19050   3.700  11.214   7.219 -0.4114  0.6267 -2.5320
  902MOL0     H19051   3.725  11.080   7.023 -0.6066  1.3658  0.9348
  902MOL0     H19052   3.800  10.857   6.576 -0.1338  0.3706  0.9154
  902MOL0     H19053   3.927  10.746   6.405  2.1162 -0.6077  0.2158
  902MOL0     H19054   4.149  10.788   6.303 -1.8461 -0.0754  1.9699
  902MOL0     H19055   4.056  10.648   6.258 -0.5726 -0.7739  0.4434
  902MOL0     H19056   4.221  10.630   6.109  1.4196 -0.0853  0.2035
  902MOL0     H19057   4.350  10.689   6.222  0.3661 -0.9793 -0.0722
  902MOL0     H19058   4.245  10.427   6.301 -1.1825  0.9736 -0.3097
  902MOL0     H19059   4.412  10.466   6.278 -1.1438  0.9271  0.6814
  902MOL0     H19060   4.385  10.410   6.028  3.4567  0.5934  1.2515
  902MOL0     H19061   4.382  10.293   6.157 -0.8140  0.9984  2.0877
  902MOL0     H19062   3.958  10.322   6.054  0.3610 -0.9649 -1.0242
  902MOL0     H19063   4.265  10.704   6.656 -1.1144 -2.1093  1.4026
  902MOL0     H19064   4.134  10.831   6.842 -2.5715  2.2554  1.2672
  903MOL0     O19065  10.239  10.010  10.935 -0.2693  0.3400  1.1177
  903MOL0     C19066  10.161   9.970  10.847  0.2969  0.5437 -0.5334
  903MOL0     O19067  10.109   9.847  10.841  0.1766  0.1483  0.1341
  903MOL0     C19068  10.147   9.752  10.931 -0.8541  0.2845  0.2675
  903MOL0     C19069  10.271   9.674  10.914  0.1313  0.0221 -1.1536
  903MOL0     C19070  10.295   9.566  11.000 -0.8246 -0.1357  0.2559
  903MOL0     C19071  10.205   9.529  11.094  0.2336  0.2863  0.0579
  903MOL0     O19072  10.202   9.431  11.183  0.2820  0.7746 -0.0555
  903MOL0     C19073  10.293   9.323  11.150  0.6773  0.0385  0.1382
  903MOL0     C19074  10.269   9.205  11.249  0.0697  0.2651 -0.2561
  903MOL0     C19075  10.359   9.085  11.218  0.7510 -0.0986  1.1051
  903MOL0     C19076  10.500   9.085  11.268  0.7452 -0.3855 -0.0306
  903MOL0     C19077  10.602   9.026  11.168  0.4841  0.1918 -1.0285
  903MOL0     C19078  10.627   9.119  11.054 -0.5733 -0.5835  0.1487
  903MOL0     C19079  10.684   9.063  10.924 -1.2545 -0.6731 -0.9139
  903MOL0     C19080  10.723   9.189  10.831 -0.2017 -0.9246 -0.6127
  903MOL0     N19081  10.744   9.140  10.692 -0.0374 -0.2397 -0.1854
  903MOL0     C19082  10.648   9.103  10.604  0.4022  1.0293  1.1283
  903MOL0     C19083  10.707   9.121  10.487  0.0497 -0.1311 -0.0891
  903MOL0     C19084  10.640   9.090  10.349 -0.1323  0.1292 -0.8014
  903MOL0     C19085  10.642   9.212  10.252  0.4981 -0.7652 -1.2420
  903MOL0     C19086  10.547   9.325  10.311 -0.2634  0.4573 -0.0781
  903MOL0     C19087  10.615   9.459  10.355  0.6456 -0.9195  0.1990
  903MOL0     O19088  10.529   9.573  10.323  0.1993  0.3628  0.0199
  903MOL0     C19089  10.569   9.659  10.225 -0.8538  0.0412  0.2653
  903MOL0     C19090  10.579   9.604  10.100  0.6168 -1.0844  0.3625
  903MOL0     C19091  10.608   9.685   9.985  0.3025  0.3782  1.4470
  903MOL0     C19092  10.603   9.827   9.996 -0.2374  0.5267  0.6380
  903MOL0     C19093  10.623   9.926   9.886  0.7539 -0.2105  0.4903
  903MOL0     O19094  10.664  10.047   9.913  0.7889  0.0444 -0.7733
  903MOL0     C19095  10.697  10.125   9.810 -0.3242 -0.0466 -0.3275
  903MOL0     C19096  10.639  10.140   9.683  0.4661 -0.7462 -0.4174
  903MOL0     C19097  10.713  10.206   9.582 -0.6307 -0.0059  0.5836
  903MOL0     C19098  10.826  10.290   9.602  0.5364  0.3009 -0.3341
  903MOL0     O19099  10.890  10.371   9.516 -0.4592  0.0638 -0.0075
  903MOL0     C19100  10.825  10.388   9.384 -0.3548 -0.1626 -0.7230
  903MOL0     C19101  10.935  10.462   9.306  0.3432  0.3045 -0.1689
  903MOL0     C19102  10.887  10.516   9.170 -0.2020 -0.0365  0.3684
  903MOL0     C19103  10.999  10.590   9.084  0.0724  0.4061 -0.2385
  903MOL0     C19104  11.102  10.499   9.015  0.0774  0.0045 -1.2425
  903MOL0     C19105  11.148  10.560   8.880 -0.1388  0.8020 -0.1397
  903MOL0     C19106  11.215  10.458   8.791 -0.0751 -0.1636  0.0887
  903MOL0     C19107  11.309  10.524   8.682  0.1683  0.1339  0.3798
  903MOL0    Cl19108  11.222  10.647   8.581  0.4740 -0.1328  0.1280
  903MOL0     C19109  10.873  10.289   9.733 -0.1453  0.2049  0.3193
  903MOL0     C19110  10.808  10.217   9.832  0.4232  1.6907  0.4252
  903MOL0     O19111  10.617   9.873   9.772  0.6146  0.1146  0.9489
  903MOL0     C19112  10.586   9.885  10.125  1.2783 -0.0300 -0.9616
  903MOL0     C19113  10.579   9.797  10.240  0.1114 -0.8067 -0.1184
  903MOL0     N19114  10.838   9.149  10.508 -0.5285 -0.3304 -0.6882
  903MOL0     N19115  10.865   9.155  10.637  0.6159 -0.3404  0.9061
  903MOL0     C19116  10.086   9.612  11.107  0.0032  0.4647  1.0582
  903MOL0     C19117  10.069   9.719  11.024  0.8206  0.1166 -0.3986
  903MOL0     C19118  10.115  10.065  10.748  0.6963 -0.3166  0.8016
  903MOL0     C19119  10.151  10.199  10.760 -0.1921 -0.2514 -0.0499
  903MOL0     C19120  10.099  10.294  10.669  0.8507 -0.2857 -1.4904
  903MOL0     C19121  10.027  10.265  10.560  0.2362  0.1538  0.5107
  903MOL0     O19122   9.975  10.376  10.486 -0.3998  0.0422  0.1449
  903MOL0     C19123   9.848  10.354  10.435 -0.1523  0.1660 -0.2091
  903MOL0     C19124   9.850  10.300  10.293 -0.3083  0.4966 -0.6493
  903MOL0     C19125   9.711  10.267  10.227  0.2995 -0.1003  0.3326
  903MOL0     C19126   9.631  10.391  10.196  0.3330  0.3881  0.0909
  903MOL0     C19127   9.698  10.468  10.095  0.0880  0.9017  0.7105
  903MOL0     C19128   9.762  10.522  10.011 -0.2130 -0.0540 -0.6353
  903MOL0     C19129   9.986  10.129  10.542  0.8913 -0.0649 -0.2436
  903MOL0     C19130  10.034  10.031  10.635  0.8284  0.7178 -0.0066
  903MOL0     H19131  10.350   9.711  10.849  2.2583 -2.4459 -0.1517
  903MOL0     H19132  10.396   9.530  10.984  1.1099  3.3276  3.2815
  903MOL0     H19133  10.398   9.349  11.165  1.0608 -2.0926  1.6003
  903MOL0     H19134  10.275   9.288  11.048  1.1749 -0.7300  0.3061
  903MOL0     H19135  10.168   9.169  11.227 -1.1814  2.8456  0.8517
  903MOL0     H19136  10.286   9.244  11.350  4.5610 -1.4837 -0.0876
  903MOL0     H19137  10.348   9.062  11.112  3.0062  1.4759  0.4609
  903MOL0     H19138  10.302   9.005  11.267  0.3185 -0.5080 -0.0545
  903MOL0     H19139  10.528   9.185  11.303 -0.1288  0.9177 -2.7864
  903MOL0     H19140  10.497   9.016  11.353  3.5665 -0.0374  0.4436
  903MOL0     H19141  10.563   8.931  11.131  0.2398 -1.0565  2.1013
  903MOL0     H19142  10.697   8.998  11.215  0.3221  1.5769  0.2401
  903MOL0     H19143  10.692   9.196  11.097  0.0170 -2.4678  2.9094
  903MOL0     H19144  10.533   9.161  11.019  0.3606  0.4080 -1.2760
  903MOL0     H19145  10.775   9.004  10.937 -2.0346 -1.9973 -1.2385
  903MOL0     H19146  10.616   8.990  10.877 -0.3639 -0.6263 -2.3297
  903MOL0     H19147  10.808   9.251  10.863 -1.6340  1.1571 -0.6384
  903MOL0     H19148  10.636   9.255  10.839 -0.7094 -1.1539 -3.3984
  903MOL0     H19149  10.543   9.078  10.620  0.0229  2.0058  0.2193
  903MOL0     H19150  10.550   9.032  10.371 -0.0528 -0.3352 -1.6723
  903MOL0     H19151  10.702   9.010  10.307 -1.1521 -2.0589  1.5588
  903MOL0     H19152  10.613   9.176  10.153 -1.9275  0.4208 -1.0177
  903MOL0     H19153  10.742   9.256  10.242 -0.0917  0.1584 -3.8115
  903MOL0     H19154  10.469   9.360  10.244 -0.7150 -0.4287 -0.0380
  903MOL0     H19155  10.498   9.275  10.396 -0.1468 -0.0112 -0.2812
  903MOL0     H19156  10.707   9.463  10.296  0.5717 -0.4604  0.1156
  903MOL0     H19157  10.643   9.485  10.458 -0.5301  4.3209 -0.5371
  903MOL0     H19158  10.556   9.499  10.081 -1.1146 -0.6262 -0.3593
  903MOL0     H19159  10.604   9.645   9.884  0.2961 -1.9935  2.3186
  903MOL0     H19160  10.550  10.084   9.657  1.0220 -2.1373  0.5073
  903MOL0     H19161  10.661  10.197   9.487 -0.6636  0.2219  0.5785
  903MOL0     H19162  10.724  10.429   9.390 -1.2543 -2.2876  4.7496
  903MOL0     H19163  10.807  10.292   9.334  1.9859 -0.3404 -1.3390
  903MOL0     H19164  11.009  10.381   9.293 -0.0093  0.1204 -1.0749
  903MOL0     H19165  10.988  10.533   9.370  1.4170 -0.8543  0.2810
  903MOL0     H19166  10.806  10.588   9.181  0.0542  0.5410 -1.2214
  903MOL0     H19167  10.833  10.435   9.120  0.1470 -0.4281  0.6130
  903MOL0     H19168  10.953  10.643   9.000  2.3837 -0.6161 -2.2782
  903MOL0     H19169  11.039  10.678   9.135 -2.1469  1.9816 -1.0721
  903MOL0     H19170  11.057  10.399   9.008 -0.0055 -0.2530  1.6800
  903MOL0     H19171  11.187  10.495   9.084 -0.6165  4.1357  0.1002
  903MOL0     H19172  11.213  10.647   8.891 -1.0866  1.4847  0.2460
  903MOL0     H19173  11.065  10.592   8.816 -0.4212  0.4281  0.0354
  903MOL0     H19174  11.278  10.380   8.835 -1.1189 -1.5008 -0.7040
  903MOL0     H19175  11.133  10.411   8.738  0.9999 -1.9762 -0.0526
  903MOL0     H19176  11.330  10.439   8.616 -1.9249 -0.3680  0.2917
  903MOL0     H19177  11.388  10.577   8.736 -2.1414  4.4047  0.0658
  903MOL0     H19178  10.974  10.327   9.745  0.1505 -1.0950  2.5970
  903MOL0     H19179  10.847  10.229   9.933 -5.8367  0.9225  3.4194
  903MOL0     H19180  10.599   9.989  10.156 -5.1194  0.8494  0.1698
  903MOL0     H19181  10.604   9.829  10.341 -0.8388 -2.4343  0.6723
  903MOL0     H19182  10.009   9.595  11.181  1.4824 -1.0014  2.3493
  903MOL0     H19183   9.978   9.776  11.039 -0.8738 -1.9090 -2.2381
  903MOL0     H19184  10.228  10.225  10.832 -1.9528  2.4088  1.0508
  903MOL0     H19185  10.131  10.397  10.687 -0.1017 -0.2549  0.2046
  903MOL0     H19186   9.802  10.453  10.440  0.8104  0.8339 -2.9553
  903MOL0     H19187   9.789  10.289  10.501 -1.6665  1.4733 -0.2047
  903MOL0     H19188   9.909  10.374  10.237  0.9023 -0.2876 -0.4506
  903MOL0     H19189   9.908  10.208  10.279 -0.3956  0.6488 -2.1714
  903MOL0     H19190   9.647  10.205  10.290  0.4919 -1.5473 -0.8388
  903MOL0     H19191   9.726  10.213  10.133  0.6599 -1.2894  1.0574
  903MOL0     H19192   9.534  10.361  10.154 -0.0439  2.6379 -0.7864
  903MOL0     H19193   9.604  10.455  10.281  1.4020 -0.9458  1.4812
  903MOL0     H19194   9.816  10.585   9.943 -0.4480 -1.8876 -2.6176
  903MOL0     H19195   9.919  10.079  10.473  1.8922 -0.1852 -1.1462
  903MOL0     H19196  10.019   9.926  10.615  0.4303  0.3925  1.7649
  904MOL0     O19197  10.938   8.115   7.117  0.2971 -0.2922  0.2041
  904MOL0     C19198  10.885   8.006   7.133 -0.1071 -0.6526 -0.0904
  904MOL0     O19199  10.810   7.936   7.034 -0.0846 -0.0966  0.5068
  904MOL0     C19200  10.802   7.985   6.900  0.2406  0.9529  0.3244
  904MOL0     C19201  10.823   8.118   6.859 -0.2523 -0.0341 -0.0001
  904MOL0     C19202  10.808   8.149   6.725  0.2607 -0.0716 -0.1225
  904MOL0     C19203  10.761   8.058   6.627 -0.3713  0.4722  0.1838
  904MOL0     O19204  10.734   8.099   6.493  0.0975 -0.0340  0.0477
  904MOL0     C19205  10.713   8.242   6.472  0.3085  0.6106 -0.4163
  904MOL0     C19206  10.696   8.223   6.318  0.1312  0.3789 -0.7332
  904MOL0     C19207  10.742   8.342   6.240 -0.1625  0.1488  0.7854
  904MOL0     C19208  10.733   8.306   6.088  0.1437 -0.2482  0.5225
  904MOL0     C19209  10.743   8.434   5.999 -0.9717 -0.0471 -0.0969
  904MOL0     C19210  10.768   8.392   5.859 -0.9937  0.4834 -0.6652
  904MOL0     C19211  10.802   8.503   5.765 -0.0685 -0.0279 -0.0841
  904MOL0     C19212  10.958   8.522   5.759 -0.5833  0.9801 -0.2875
  904MOL0     N19213  11.040   8.401   5.715  0.2974  0.0764  0.1246
  904MOL0     C19214  11.049   8.344   5.593  0.4542  0.2769 -0.6178
  904MOL0     C19215  11.147   8.249   5.599 -0.9768 -0.0399 -0.8531
  904MOL0     C19216  11.201   8.162   5.483  0.1821 -0.1290 -1.1193
  904MOL0     C19217  11.329   8.227   5.428  0.1673  0.2921 -1.0161
  904MOL0     C19218  11.311   8.329   5.325  0.4187 -0.3069  0.3712
  904MOL0     C19219  11.440   8.345   5.248 -0.7042 -0.4218  0.5561
  904MOL0     O19220  11.548   8.388   5.331 -0.6945  0.1260 -0.3935
  904MOL0     C19221  11.687   8.382   5.298 -0.6657 -0.6923  0.4972
  904MOL0     C19222  11.740   8.350   5.171 -0.6806 -0.1087 -0.1791
  904MOL0     C19223  11.881   8.339   5.146 -0.2959 -0.2050  0.7011
  904MOL0     C19224  11.974   8.373   5.257  0.7819 -0.5481  0.4460
  904MOL0     C19225  12.120   8.366   5.238 -0.3182 -0.4077 -0.1720
  904MOL0     O19226  12.198   8.425   5.341  0.5151 -0.4589  0.0368
  904MOL0     C19227  12.330   8.423   5.313 -0.6229 -1.0671  0.4954
  904MOL0     C19228  12.380   8.511   5.208 -0.9452 -0.2296  0.3222
  904MOL0     C19229  12.518   8.520   5.187  0.3736  0.3481 -0.4251
  904MOL0     C19230  12.616   8.445   5.255  0.1754  0.6920 -0.0078
  904MOL0     O19231  12.745   8.464   5.218 -0.3381  0.2390 -0.0660
  904MOL0     C19232  12.847   8.368   5.244  0.0616  0.4679  0.3307
  904MOL0     C19233  12.962   8.398   5.137 -0.6799 -0.7563  0.3081
  904MOL0     C19234  13.078   8.294   5.157 -0.6512 -0.7982  0.2992
  904MOL0     C19235  13.188   8.309   5.047 -0.8214 -0.2056  0.3854
  904MOL0     C19236  13.272   8.448   5.067  0.4720  0.3132  0.2516
  904MOL0     C19237  13.218   8.562   4.971  0.0976  0.0710  0.3766
  904MOL0     C19238  13.293   8.685   5.014 -0.3951 -0.0646  1.0083
  904MOL0     C19239  13.269   8.809   4.929  0.1730 -0.8969 -0.1268
  904MOL0    Cl19240  13.308   8.782   4.765  0.6066 -0.0890 -0.3180
  904MOL0     C19241  12.571   8.377   5.362 -0.1761  0.0187 -0.0176
  904MOL0     C19242  12.435   8.362   5.390  0.1731  0.7192 -0.1476
  904MOL0     O19243  12.167   8.308   5.143  0.6504  0.3314  0.1296
  904MOL0     C19244  11.912   8.405   5.381  0.7183  0.2313 -0.9067
  904MOL0     C19245  11.773   8.411   5.400  0.5858  0.3300 -1.0407
  904MOL0     N19246  11.198   8.252   5.727 -0.5449 -0.1307 -0.5616
  904MOL0     N19247  11.133   8.336   5.791 -0.1390  0.4079 -1.8858
  904MOL0     C19248  10.738   7.921   6.673 -0.0663  1.2386 -0.2108
  904MOL0     C19249  10.745   7.888   6.814 -0.3134 -0.3938  0.4821
  904MOL0     C19250  10.873   7.966   7.275  0.1894 -0.7873  1.2910
  904MOL0     C19251  10.760   7.886   7.307 -0.2172 -0.9062 -1.1617
  904MOL0     C19252  10.716   7.860   7.436  0.3099  0.5163  0.1370
  904MOL0     C19253  10.793   7.910   7.542  0.1588  0.0709  0.1877
  904MOL0     O19254  10.768   7.896   7.684  0.1817  0.4529  0.8258
  904MOL0     C19255  10.641   7.846   7.719 -0.2103 -0.1069 -0.0589
  904MOL0     C19256  10.611   7.886   7.858  0.0948 -0.2325 -0.0283
  904MOL0     C19257  10.679   7.785   7.951 -0.0946 -0.0525  0.0616
  904MOL0     C19258  10.824   7.802   7.987  0.3912 -0.5334  0.0008
  904MOL0     C19259  10.870   7.694   8.075  0.0107  0.1949  0.3690
  904MOL0     C19260  10.884   7.602   8.160 -0.7888 -0.7946  0.7434
  904MOL0     C19261  10.907   7.993   7.507 -0.1110  0.1171  0.1671
  904MOL0     C19262  10.945   8.027   7.379 -0.6677  0.8908 -0.3907
  904MOL0     H19263  10.872   8.198   6.913  0.3305 -0.6494  0.4044
  904MOL0     H19264  10.820   8.256   6.711 -3.9174  1.0834  2.9357
  904MOL0     H19265  10.802   8.286   6.518 -1.0619  0.3749  2.7828
  904MOL0     H19266  10.627   8.281   6.528  0.8900  0.2970  0.7258
  904MOL0     H19267  10.590   8.217   6.291 -0.0332  3.2228 -1.0907
  904MOL0     H19268  10.741   8.130   6.283  0.2595  0.3927 -0.6050
  904MOL0     H19269  10.845   8.365   6.267 -1.0703  3.6740  1.6980
  904MOL0     H19270  10.678   8.427   6.265 -0.2427 -0.0048  1.1089
  904MOL0     H19271  10.814   8.235   6.068 -0.4400 -1.1078  1.1401
  904MOL0     H19272  10.639   8.257   6.062 -1.4596  1.3977  2.7894
  904MOL0     H19273  10.828   8.491   6.039 -0.2960  0.5995 -2.2872
  904MOL0     H19274  10.659   8.504   5.999 -0.2489  0.8635  1.4695
  904MOL0     H19275  10.673   8.346   5.826 -0.8552 -2.9353  2.9639
  904MOL0     H19276  10.840   8.310   5.857 -4.2072 -2.7248  1.5494
  904MOL0     H19277  10.765   8.494   5.662 -1.7362 -0.4451  0.5154
  904MOL0     H19278  10.769   8.598   5.809  2.3757 -0.6413  3.5326
  904MOL0     H19279  10.992   8.549   5.860  0.3190 -1.2975  0.0665
  904MOL0     H19280  10.988   8.605   5.695  3.3810  0.4435  0.6196
  904MOL0     H19281  10.986   8.378   5.511 -0.8907 -1.2789 -0.2706
  904MOL0     H19282  11.125   8.173   5.405  0.6370  0.2509 -1.5167
  904MOL0     H19283  11.209   8.057   5.513 -0.9224 -0.2412 -1.1607
  904MOL0     H19284  11.381   8.141   5.385  0.7799 -0.2055  0.6310
  904MOL0     H19285  11.391   8.277   5.502 -1.7325  1.0533  0.1314
  904MOL0     H19286  11.241   8.288   5.251  0.5903  1.4210 -0.8137
  904MOL0     H19287  11.282   8.422   5.374 -2.4827 -1.1817  0.5180
  904MOL0     H19288  11.425   8.423   5.173  2.2159 -1.0419 -0.8489
  904MOL0     H19289  11.454   8.251   5.194 -2.7129 -0.5101  0.1451
  904MOL0     H19290  11.668   8.344   5.090 -1.6858 -1.0152  0.7365
  904MOL0     H19291  11.901   8.310   5.043 -2.4645  0.1862  0.1237
  904MOL0     H19292  12.309   8.578   5.162  0.9928  1.7826  0.0891
  904MOL0     H19293  12.558   8.581   5.106  3.7014 -3.3792 -1.9328
  904MOL0     H19294  12.807   8.267   5.230  3.5105 -1.2730  1.9757
  904MOL0     H19295  12.875   8.368   5.349  0.1143  2.8877  0.3746
  904MOL0     H19296  12.999   8.501   5.146 -1.8642 -0.1859 -1.0248
  904MOL0     H19297  12.918   8.392   5.037 -0.8936  2.3025  0.1327
  904MOL0     H19298  13.025   8.200   5.134  0.7787 -1.2078 -1.5498
  904MOL0     H19299  13.123   8.299   5.256  1.1836 -0.4145 -0.5195
  904MOL0     H19300  13.254   8.225   5.071 -0.1512 -0.0866 -0.9315
  904MOL0     H19301  13.135   8.299   4.951 -3.0698  2.9797  1.1294
  904MOL0     H19302  13.377   8.430   5.040  0.7623  1.8356  0.2756
  904MOL0     H19303  13.277   8.467   5.174 -0.0092 -1.5094  0.6294
  904MOL0     H19304  13.108   8.560   4.976 -0.1094 -1.2727 -2.4466
  904MOL0     H19305  13.242   8.549   4.865  4.0756  0.5464  1.0648
  904MOL0     H19306  13.252   8.697   5.115 -1.2350 -0.3943  0.7136
  904MOL0     H19307  13.402   8.671   5.007 -0.8154 -3.0259 -2.1892
  904MOL0     H19308  13.331   8.892   4.964  0.3452 -1.3624  0.7016
  904MOL0     H19309  13.170   8.849   4.953  2.4549  2.6824  5.4061
  904MOL0     H19310  12.648   8.321   5.414  3.3141  0.0982 -4.5087
  904MOL0     H19311  12.403   8.300   5.474 -0.0074  0.7152 -0.2201
  904MOL0     H19312  11.973   8.408   5.471 -1.9920  0.8958  1.0296
  904MOL0     H19313  11.748   8.427   5.504  0.4690 -0.0395 -1.0115
  904MOL0     H19314  10.699   7.855   6.597 -0.5631 -0.1106  1.1636
  904MOL0     H19315  10.716   7.789   6.847 -0.4871 -2.0878 -4.0864
  904MOL0     H19316  10.723   7.834   7.219 -2.5041  0.9425 -1.4076
  904MOL0     H19317  10.629   7.796   7.445 -0.4635  1.3141 -1.2302
  904MOL0     H19318  10.639   7.737   7.719  0.6088 -0.1630  1.8946
  904MOL0     H19319  10.554   7.886   7.666 -0.1011  2.0596  1.2381
  904MOL0     H19320  10.653   7.984   7.884  1.5458 -1.0794  1.0181
  904MOL0     H19321  10.503   7.882   7.873 -0.2041  4.0400  0.0378
  904MOL0     H19322  10.667   7.687   7.905  2.4353 -0.8882  1.0232
  904MOL0     H19323  10.624   7.788   8.046  4.0654  0.9188  2.7156
  904MOL0     H19324  10.882   7.800   7.894  0.8828  1.0209  0.2417
  904MOL0     H19325  10.847   7.903   8.023  0.2969  0.2322 -1.9646
  904MOL0     H19326  10.914   7.537   8.240 -0.9252  0.8760  2.2141
  904MOL0     H19327  10.970   8.047   7.577  2.1653  0.6115 -2.1052
  904MOL0     H19328  11.034   8.089   7.376  1.6160 -2.0538  1.3566
  905MOL0     O19329   6.542   7.242   6.699 -0.4730  0.7794  0.1576
  905MOL0     C19330   6.447   7.299   6.748  0.9742  0.8005 -0.1564
  905MOL0     O19331   6.314   7.257   6.738 -0.8016 -0.3945 -0.5841
  905MOL0     C19332   6.263   7.154   6.662 -0.1469  0.4752 -0.3161
  905MOL0     C19333   6.329   7.089   6.559 -0.0259  0.6291 -0.8315
  905MOL0     C19334   6.276   6.987   6.493  0.2838 -0.9773  0.7044
  905MOL0     C19335   6.142   6.952   6.511 -0.4213 -0.2683  0.1688
  905MOL0     O19336   6.074   6.861   6.431  1.0959 -0.1269  0.4049
  905MOL0     C19337   6.083   6.884   6.292  0.2600  0.4691 -0.2094
  905MOL0     C19338   6.022   6.773   6.217  0.5825  1.0751  0.3557
  905MOL0     C19339   5.999   6.813   6.076 -0.4842 -0.0674  1.0929
  905MOL0     C19340   5.936   6.703   5.981  0.0137  0.3275 -0.3415
  905MOL0     C19341   5.891   6.768   5.852 -0.6158  0.3431 -0.3799
  905MOL0     C19342   5.772   6.709   5.783 -0.0715 -0.1775  0.6836
  905MOL0     C19343   5.748   6.777   5.653  1.1447 -0.1763  0.1051
  905MOL0     C19344   5.839   6.763   5.532  0.4659 -0.1626 -0.4034
  905MOL0     N19345   5.799   6.850   5.415 -0.0929  0.1293  0.0356
  905MOL0     C19346   5.837   6.979   5.405 -0.8802 -0.2507  0.7767
  905MOL0     C19347   5.799   7.027   5.286 -0.3444 -0.8352  1.1253
  905MOL0     C19348   5.811   7.161   5.228  0.4122 -0.2274 -0.4878
  905MOL0     C19349   5.780   7.281   5.318  0.1725  0.5760  0.1148
  905MOL0     C19350   5.671   7.274   5.431 -0.8371 -0.1600  0.0751
  905MOL0     C19351   5.533   7.238   5.357 -0.5122  0.1962 -0.4029
  905MOL0     O19352   5.424   7.258   5.437  0.6968 -0.2290 -0.1009
  905MOL0     C19353   5.389   7.376   5.488 -0.2225  0.2611 -0.0714
  905MOL0     C19354   5.314   7.371   5.606  0.4407 -0.4785  0.0244
  905MOL0     C19355   5.284   7.496   5.673  0.2410  0.5935 -0.0162
  905MOL0     C19356   5.312   7.625   5.618 -0.8867 -0.2327 -0.5989
  905MOL0     C19357   5.285   7.749   5.700  0.4181 -0.2428  0.3250
  905MOL0     O19358   5.224   7.734   5.814  0.8498 -0.2325 -1.0352
  905MOL0     C19359   5.184   7.842   5.892  0.5781 -0.8989  0.5859
  905MOL0     C19360   5.151   7.970   5.841 -0.2044  0.1324 -0.5651
  905MOL0     C19361   5.096   8.069   5.917  0.4362 -0.8937  0.2371
  905MOL0     C19362   5.082   8.051   6.063  0.0465  0.6819  0.7584
  905MOL0     O19363   5.027   8.158   6.126 -0.3985  0.9085  0.1322
  905MOL0     C19364   4.881   8.152   6.129 -0.2861 -0.5405 -0.5288
  905MOL0     C19365   4.825   8.198   6.271 -0.0154 -0.1731 -0.8770
  905MOL0     C19366   4.672   8.214   6.279  0.5584 -0.1449  0.0123
  905MOL0     C19367   4.605   8.104   6.360  1.1937 -1.2064  0.1614
  905MOL0     C19368   4.607   7.966   6.300 -0.7011  0.2022 -0.4052
  905MOL0     C19369   4.514   7.873   6.371 -0.5765 -0.8819 -0.0143
  905MOL0     C19370   4.502   7.723   6.330  1.0917  0.0341 -0.1179
  905MOL0     C19371   4.404   7.631   6.403 -0.0129 -0.1901 -0.0317
  905MOL0    Cl19372   4.240   7.684   6.362 -0.0871  0.3913 -0.3324
  905MOL0     C19373   5.114   7.921   6.111  0.1607  0.5292 -0.5346
  905MOL0     C19374   5.169   7.817   6.026  0.3540 -0.1940  0.5506
  905MOL0     O19375   5.326   7.855   5.658 -0.6104 -0.9244 -0.3840
  905MOL0     C19376   5.384   7.621   5.502 -0.1359  0.3848  0.5493
  905MOL0     C19377   5.416   7.502   5.430 -0.4282 -0.2113 -1.4635
  905MOL0     N19378   5.737   6.919   5.227  0.4953 -0.8486 -1.1778
  905MOL0     N19379   5.734   6.817   5.301  0.1670 -0.3824 -0.7689
  905MOL0     C19380   6.069   7.023   6.610 -0.2492  0.5716 -0.6545
  905MOL0     C19381   6.131   7.119   6.684  0.8469  0.3631 -0.5591
  905MOL0     C19382   6.460   7.442   6.793  0.0867  1.1534  0.3326
  905MOL0     C19383   6.584   7.487   6.802 -0.6552 -0.2573 -1.0693
  905MOL0     C19384   6.609   7.622   6.833  0.4470  0.5508  0.3835
  905MOL0     C19385   6.504   7.702   6.871  0.3103 -0.1458  0.6854
  905MOL0     O19386   6.529   7.825   6.915 -0.2829  0.4216 -0.0964
  905MOL0     C19387   6.429   7.925   6.931  0.1114  0.2364  0.3013
  905MOL0     C19388   6.349   7.925   7.060 -0.5456  1.1371  0.1020
  905MOL0     C19389   6.428   7.925   7.188 -0.4124  0.7702 -1.0680
  905MOL0     C19390   6.338   7.925   7.319 -0.9729  1.0883  0.2546
  905MOL0     C19391   6.418   7.892   7.435 -0.4438  0.2768 -0.8333
  905MOL0     C19392   6.470   7.871   7.544  0.4188 -0.3060  0.3813
  905MOL0     C19393   6.371   7.660   6.842  0.9482  0.3538  0.2179
  905MOL0     C19394   6.352   7.526   6.800  0.2250  0.1953 -0.6914
  905MOL0     H19395   6.433   7.111   6.535  0.3171  0.4881  0.4210
  905MOL0     H19396   6.330   6.941   6.411 -0.5199  1.8224 -1.5239
  905MOL0     H19397   6.188   6.889   6.264  0.2108  0.3086 -0.4306
  905MOL0     H19398   6.028   6.977   6.273 -1.1989 -0.4942 -0.9443
  905MOL0     H19399   5.938   6.736   6.276  0.7517  2.7218  1.6975
  905MOL0     H19400   6.092   6.688   6.217 -0.3427  0.2734 -0.9143
  905MOL0     H19401   6.095   6.846   6.034 -1.3330  1.6107  0.3714
  905MOL0     H19402   5.941   6.905   6.075 -2.0353 -0.9557  2.9740
  905MOL0     H19403   6.012   6.625   5.962 -1.6680 -1.1423 -1.3620
  905MOL0     H19404   5.847   6.654   6.020  1.4020 -3.1058 -1.0968
  905MOL0     H19405   5.983   6.780   5.793  0.1422  1.8956  1.0399
  905MOL0     H19406   5.863   6.870   5.879  0.4514  0.2932  1.0413
  905MOL0     H19407   5.679   6.733   5.834 -2.8868 -1.0607 -3.4944
  905MOL0     H19408   5.792   6.602   5.769  1.4751  0.3323 -1.6079
  905MOL0     H19409   5.645   6.748   5.633 -0.2804  4.1858 -0.0402
  905MOL0     H19410   5.750   6.882   5.684  1.5732 -0.1495  0.0006
  905MOL0     H19411   5.845   6.656   5.514  1.6026 -0.5331  1.7711
  905MOL0     H19412   5.936   6.782   5.579 -0.6245 -0.3420  2.0835
  905MOL0     H19413   5.891   7.024   5.488 -0.8091  0.7843  0.1957
  905MOL0     H19414   5.740   7.175   5.146  0.0592 -0.5911 -0.2481
  905MOL0     H19415   5.913   7.175   5.192 -0.1643 -0.0132 -2.1049
  905MOL0     H19416   5.760   7.368   5.256 -2.7116  1.3723  1.9219
  905MOL0     H19417   5.869   7.308   5.376 -0.7130  0.5537  1.5496
  905MOL0     H19418   5.703   7.205   5.510 -2.5585  0.1309  1.0887
  905MOL0     H19419   5.661   7.371   5.482 -2.8214 -0.5776  0.5355
  905MOL0     H19420   5.526   7.132   5.329  1.9587 -0.2809  0.5674
  905MOL0     H19421   5.524   7.308   5.274  0.5195 -2.5928 -3.0201
  905MOL0     H19422   5.280   7.276   5.647  1.7844 -1.9532 -2.0863
  905MOL0     H19423   5.245   7.484   5.774  2.6149 -2.5204  0.7056
  905MOL0     H19424   5.148   7.999   5.737 -4.0303  2.8510  0.0701
  905MOL0     H19425   5.064   8.163   5.873 -0.9751 -0.8100  1.3690
  905MOL0     H19426   4.847   8.049   6.114 -0.6122 -0.2779 -1.7364
  905MOL0     H19427   4.841   8.202   6.040  1.5145 -1.2930 -1.8208
  905MOL0     H19428   4.863   8.299   6.287  1.2249 -0.6757 -0.5773
  905MOL0     H19429   4.861   8.133   6.351 -0.0377  0.0135 -0.7130
  905MOL0     H19430   4.626   8.218   6.180 -0.4127 -3.7363  0.1931
  905MOL0     H19431   4.656   8.314   6.321  0.2007 -0.2052  0.0196
  905MOL0     H19432   4.644   8.087   6.461 -3.1031 -0.6614  2.1099
  905MOL0     H19433   4.502   8.134   6.382  1.4936 -0.0078 -0.0237
  905MOL0     H19434   4.709   7.927   6.304 -0.5614  0.6246  3.6573
  905MOL0     H19435   4.582   7.967   6.193 -0.9455 -2.5088 -0.4393
  905MOL0     H19436   4.416   7.920   6.359  0.3361  0.5107 -2.7875
  905MOL0     H19437   4.535   7.880   6.478  0.4153  1.7306 -0.3282
  905MOL0     H19438   4.480   7.721   6.222 -1.8774  1.0337  0.3845
  905MOL0     H19439   4.598   7.671   6.340  0.4939 -1.3031 -0.9743
  905MOL0     H19440   4.426   7.630   6.511 -0.4083  3.4321  0.2001
  905MOL0     H19441   4.436   7.534   6.364 -0.7606  0.2774 -1.9076
  905MOL0     H19442   5.085   7.895   6.212 -2.5718 -0.5283 -1.5031
  905MOL0     H19443   5.203   7.720   6.063  0.0526 -1.2930 -1.8687
  905MOL0     H19444   5.419   7.717   5.465  2.5402 -0.5768  0.3647
  905MOL0     H19445   5.471   7.501   5.336  0.2449  0.0204 -1.0780
  905MOL0     H19446   5.966   6.991   6.624 -0.0279 -0.5580 -1.4927
  905MOL0     H19447   6.074   7.165   6.764 -1.2433 -2.3050 -0.3877
  905MOL0     H19448   6.674   7.427   6.806 -1.3180 -1.2199 -0.1511
  905MOL0     H19449   6.708   7.664   6.849  1.5848 -1.4675 -0.8304
  905MOL0     H19450   6.352   7.933   6.854 -0.6106 -2.4445  0.6560
  905MOL0     H19451   6.486   8.018   6.919  2.4576 -1.1374  0.0840
  905MOL0     H19452   6.296   8.021   7.064  1.5312  2.4005 -0.7621
  905MOL0     H19453   6.282   7.839   7.060  0.3252  0.4206 -1.3244
  905MOL0     H19454   6.492   8.012   7.173  0.5771 -0.3158 -3.7588
  905MOL0     H19455   6.491   7.836   7.199  2.7264  2.7407 -1.7568
  905MOL0     H19456   6.310   8.027   7.349  1.3808  0.6630  4.7580
  905MOL0     H19457   6.249   7.861   7.314 -2.1916  2.5221  2.1275
  905MOL0     H19458   6.523   7.867   7.637  4.2655 -4.6318 -1.6051
  905MOL0     H19459   6.286   7.727   6.848 -0.5970 -0.9044 -3.9526
  905MOL0     H19460   6.257   7.482   6.769  0.9926 -1.2930 -1.0184
  906MOL0     O19461   3.933   6.643  10.514 -0.2892 -0.1664 -0.1446
  906MOL0     C19462   3.888   6.754  10.535  0.2624 -0.0129 -0.0445
  906MOL0     O19463   3.798   6.819  10.455 -0.2635 -0.3401 -0.0719
  906MOL0     C19464   3.742   6.751  10.349 -0.6332 -0.1230  0.3817
  906MOL0     C19465   3.719   6.814  10.228  0.6061  0.3342 -0.5663
  906MOL0     C19466   3.654   6.743  10.125 -1.3725 -0.4641  0.4430
  906MOL0     C19467   3.612   6.610  10.137 -0.5531 -0.7638 -0.2332
  906MOL0     O19468   3.521   6.549  10.048 -0.6095  0.2217  0.3562
  906MOL0     C19469   3.536   6.570   9.908 -0.9520 -0.0722  0.4525
  906MOL0     C19470   3.491   6.446   9.840  0.7837  0.3505 -0.1546
  906MOL0     C19471   3.597   6.374   9.747  0.1079 -0.3830  0.0789
  906MOL0     C19472   3.531   6.264   9.661 -0.1410 -0.0019 -0.4177
  906MOL0     C19473   3.620   6.190   9.564 -0.3778  1.0872  0.8686
  906MOL0     C19474   3.519   6.130   9.460  0.0258  0.6978  0.1117
  906MOL0     C19475   3.593   6.058   9.337  0.2519 -0.1453 -0.5387
  906MOL0     C19476   3.636   5.914   9.358 -0.5147 -0.0607 -0.5924
  906MOL0     N19477   3.732   5.877   9.263 -0.2165  0.8862  0.7406
  906MOL0     C19478   3.712   5.846   9.129 -0.0709  0.3751 -0.0933
  906MOL0     C19479   3.841   5.844   9.080 -0.0957 -0.2403 -0.4964
  906MOL0     C19480   3.888   5.818   8.936 -0.4295  0.0530 -0.9115
  906MOL0     C19481   3.794   5.732   8.856  0.3184  0.6296 -0.3501
  906MOL0     C19482   3.827   5.740   8.704 -0.8019 -0.0450 -0.0447
  906MOL0     C19483   3.722   5.647   8.638 -0.8666  0.2156  0.5467
  906MOL0     O19484   3.605   5.732   8.613  0.7341  0.6029  0.0248
  906MOL0     C19485   3.505   5.666   8.547  0.6112 -0.8384 -0.2866
  906MOL0     C19486   3.379   5.730   8.566 -0.1271 -0.7374 -0.7621
  906MOL0     C19487   3.260   5.676   8.519  1.4612 -0.7533  0.2098
  906MOL0     C19488   3.265   5.553   8.452 -1.3156 -0.3251 -0.0408
  906MOL0     C19489   3.135   5.485   8.422 -0.6900 -0.2275 -0.0891
  906MOL0     O19490   3.017   5.561   8.445 -0.0146  0.0671  0.1178
  906MOL0     C19491   2.897   5.499   8.442  0.9857  0.4425 -0.0770
  906MOL0     C19492   2.877   5.363   8.459  0.4968  1.2292  0.5620
  906MOL0     C19493   2.744   5.314   8.478  0.0654  0.4855 -0.4076
  906MOL0     C19494   2.640   5.407   8.493 -0.0393  0.8686 -0.9980
  906MOL0     O19495   2.513   5.376   8.541 -1.2641 -0.1146 -0.0248
  906MOL0     C19496   2.481   5.253   8.601  1.1462 -0.6935 -0.5158
  906MOL0     C19497   2.539   5.226   8.745 -0.3422  0.3356  0.7105
  906MOL0     C19498   2.498   5.092   8.799 -0.2058  0.6161 -0.7820
  906MOL0     C19499   2.345   5.102   8.834 -0.2096 -0.0293  0.6542
  906MOL0     C19500   2.308   5.043   8.980  0.1327 -0.6124 -0.1651
  906MOL0     C19501   2.162   5.064   9.027  0.0166  0.5421 -1.3279
  906MOL0     C19502   2.078   4.977   8.951  0.1542  0.1005 -0.4271
  906MOL0     C19503   1.931   4.973   9.014 -0.2050 -0.0632 -0.4026
  906MOL0    Cl19504   1.816   4.867   8.919  0.4664 -0.4512 -0.4007
  906MOL0     C19505   2.661   5.539   8.462 -1.0296  0.1223  0.0148
  906MOL0     C19506   2.792   5.587   8.443 -0.2902  0.2125  0.3466
  906MOL0     O19507   3.140   5.387   8.359 -1.2821  0.5444 -0.6138
  906MOL0     C19508   3.393   5.495   8.420  0.5837 -1.2975  0.2532
  906MOL0     C19509   3.509   5.562   8.459 -0.2191 -0.1127  0.2894
  906MOL0     N19510   3.928   5.886   9.179  0.1019  0.2732  0.6099
  906MOL0     N19511   3.861   5.897   9.285  0.1360  0.1299 -0.4968
  906MOL0     C19512   3.627   6.552  10.264 -0.0708  0.0627  0.4846
  906MOL0     C19513   3.692   6.615  10.366 -0.7745 -0.4722  0.1887
  906MOL0     C19514   3.951   6.836  10.640 -0.7108 -0.1753  0.3546
  906MOL0     C19515   3.902   6.973  10.668 -0.1909 -0.5524 -0.1756
  906MOL0     C19516   3.972   7.055  10.763  1.0929 -0.4780  0.1451
  906MOL0     C19517   4.089   7.013  10.818 -0.3715  0.7238 -0.1981
  906MOL0     O19518   4.150   7.098  10.904 -0.7024 -0.0723 -0.1118
  906MOL0     C19519   4.240   7.047  11.009  0.0124  0.1667 -0.2089
  906MOL0     C19520   4.155   6.964  11.105  0.7196 -0.0070  1.1050
  906MOL0     C19521   4.210   6.931  11.249 -0.4732 -0.8621 -0.8100
  906MOL0     C19522   4.268   7.042  11.338 -0.1214  0.2234  0.7365
  906MOL0     C19523   4.359   6.994  11.442  0.6966  0.2962  0.7660
  906MOL0     C19524   4.431   6.951  11.530 -0.0892  0.6031 -0.0485
  906MOL0     C19525   4.142   6.886  10.777 -0.3456  0.2313 -0.0907
  906MOL0     C19526   4.080   6.794  10.691 -0.6203 -0.0182  0.2404
  906MOL0     H19527   3.733   6.921  10.219  0.4055  0.4589  0.5021
  906MOL0     H19528   3.633   6.794  10.031 -0.4800 -0.7472  0.0810
  906MOL0     H19529   3.635   6.602   9.874 -0.8593 -1.5021 -0.7112
  906MOL0     H19530   3.472   6.654   9.881  0.0419  0.3745 -0.5842
  906MOL0     H19531   3.411   6.477   9.772  0.6829  3.0363  1.0639
  906MOL0     H19532   3.461   6.374   9.917 -1.4676 -1.1650 -2.2617
  906MOL0     H19533   3.673   6.332   9.815  0.9505  3.6607  1.9764
  906MOL0     H19534   3.656   6.445   9.689 -1.4021 -0.5682 -1.7770
  906MOL0     H19535   3.472   6.193   9.719 -2.3832 -0.4017 -2.9757
  906MOL0     H19536   3.451   6.316   9.608 -2.0870 -1.5710  0.8466
  906MOL0     H19537   3.678   6.120   9.624 -0.5444  1.4862  1.5002
  906MOL0     H19538   3.684   6.261   9.510 -2.8963  2.0644 -1.0783
  906MOL0     H19539   3.465   6.216   9.418  0.9189  0.1878 -2.2504
  906MOL0     H19540   3.455   6.060   9.514  0.8637 -1.7220 -1.8445
  906MOL0     H19541   3.525   6.063   9.252  1.2214  1.1553 -1.2915
  906MOL0     H19542   3.682   6.115   9.308  0.2692 -1.5764 -3.7217
  906MOL0     H19543   3.551   5.844   9.354  1.3027 -2.5023  0.9042
  906MOL0     H19544   3.685   5.910   9.456 -0.7150 -0.5632 -0.5058
  906MOL0     H19545   3.614   5.827   9.086 -0.2578 -0.1966  0.5638
  906MOL0     H19546   3.982   5.765   8.952  0.2937  2.2594  4.3335
  906MOL0     H19547   3.893   5.915   8.885 -2.2025  0.4281 -0.4508
  906MOL0     H19548   3.687   5.756   8.856  0.0311 -0.3790 -2.7461
  906MOL0     H19549   3.809   5.626   8.881  0.1420 -0.1868 -3.3151
  906MOL0     H19550   3.823   5.842   8.664  0.5725 -0.6936 -1.9871
  906MOL0     H19551   3.928   5.701   8.690 -1.5859 -1.8327 -0.9600
  906MOL0     H19552   3.692   5.561   8.698 -3.6402  0.6655 -0.0497
  906MOL0     H19553   3.764   5.625   8.540  0.3601  5.2677 -0.3378
  906MOL0     H19554   3.398   5.825   8.615  0.6554  0.7976 -3.7410
  906MOL0     H19555   3.164   5.722   8.538  0.4079 -2.7996  0.1876
  906MOL0     H19556   2.959   5.293   8.456 -1.2865 -1.0813  2.4198
  906MOL0     H19557   2.714   5.210   8.488 -1.1178  0.7536 -0.9816
  906MOL0     H19558   2.507   5.177   8.526  1.1554 -1.8246  0.6101
  906MOL0     H19559   2.374   5.240   8.614  1.5316 -1.9789  1.8625
  906MOL0     H19560   2.502   5.309   8.806 -0.5435 -0.6859  2.0333
  906MOL0     H19561   2.646   5.242   8.730 -0.5714 -0.2004 -1.9524
  906MOL0     H19562   2.570   5.065   8.877 -1.3119  0.4609  0.2079
  906MOL0     H19563   2.525   5.011   8.732 -0.7592 -2.6740  2.6507
  906MOL0     H19564   2.306   5.201   8.859  0.6467  0.3295  0.6289
  906MOL0     H19565   2.280   5.049   8.764  0.1636 -1.4713  1.3679
  906MOL0     H19566   2.373   5.080   9.060 -2.4461  0.6422  1.4823
  906MOL0     H19567   2.326   4.936   8.965 -1.9429 -1.2998  1.7786
  906MOL0     H19568   2.130   5.167   9.010 -1.6529 -0.1207 -2.4493
  906MOL0     H19569   2.144   5.037   9.132 -0.8463  1.6298 -1.1858
  906MOL0     H19570   2.076   5.030   8.855  1.9916  2.5481  0.7649
  906MOL0     H19571   2.113   4.874   8.944 -0.1555 -0.3569  3.2168
  906MOL0     H19572   1.882   5.069   9.033 -2.2942 -1.4480  1.6343
  906MOL0     H19573   1.937   4.918   9.108 -1.2709  0.0762 -0.2444
  906MOL0     H19574   2.589   5.619   8.474 -1.2534 -0.1155  0.2659
  906MOL0     H19575   2.802   5.693   8.426  1.1245  0.1020  0.4011
  906MOL0     H19576   3.400   5.407   8.356 -1.4867 -1.7774  0.5914
  906MOL0     H19577   3.600   5.524   8.415  0.1093  0.7531  0.2104
  906MOL0     H19578   3.606   6.446  10.259 -1.9505  0.4730 -1.0834
  906MOL0     H19579   3.701   6.562  10.460  1.1282 -0.9366 -0.2115
  906MOL0     H19580   3.816   7.013  10.616 -2.4774 -0.8706  3.0609
  906MOL0     H19581   3.940   7.159  10.762 -4.8105 -1.9287 -1.0151
  906MOL0     H19582   4.289   7.138  11.046 -1.4084  1.8095 -2.1452
  906MOL0     H19583   4.317   6.978  10.973 -1.0753 -2.1859  1.7312
  906MOL0     H19584   4.062   7.020  11.114 -0.0423 -0.5372 -2.1892
  906MOL0     H19585   4.129   6.870  11.056  0.8796  0.1742  0.6675
  906MOL0     H19586   4.291   6.865  11.217  0.0572 -0.0700 -1.1339
  906MOL0     H19587   4.142   6.882  11.319 -0.9229  0.9838  0.0941
  906MOL0     H19588   4.328   7.111  11.279 -0.6279 -0.4805 -0.6268
  906MOL0     H19589   4.188   7.099  11.388  0.6377  0.2648  1.9375
  906MOL0     H19590   4.477   6.911  11.619  1.9709  3.5884  0.4005
  906MOL0     H19591   4.240   6.850  10.807  0.5971  0.2420 -2.8370
  906MOL0     H19592   4.117   6.698  10.654 -0.3496 -1.1100  3.0808
  907MOL0     O19593  10.437   8.536   5.302 -0.0702 -0.6072 -0.9461
  907MOL0     C19594  10.541   8.472   5.294  0.0349 -0.1623  0.7568
  907MOL0     O19595  10.640   8.497   5.195  0.5995  0.0653 -0.3842
  907MOL0     C19596  10.625   8.593   5.099 -0.1914 -1.4853 -0.6501
  907MOL0     C19597  10.627   8.562   4.961  1.2168  0.5404 -0.6916
  907MOL0     C19598  10.620   8.674   4.874 -0.4582 -0.0381 -0.5167
  907MOL0     C19599  10.614   8.804   4.916 -0.6267  0.1533 -0.1340
  907MOL0     O19600  10.638   8.891   4.819  0.3479  0.2123 -0.0276
  907MOL0     C19601  10.740   8.983   4.841 -0.2724 -0.3597  0.4056
  907MOL0     C19602  10.729   9.111   4.761  0.9346  0.1863  0.2594
  907MOL0     C19603  10.848   9.203   4.753  0.5995  0.2453 -1.0369
  907MOL0     C19604  10.945   9.163   4.647 -0.5188 -0.7315 -0.9630
  907MOL0     C19605  11.075   9.251   4.661 -0.3394  0.0597  0.2927
  907MOL0     C19606  11.068   9.412   4.664 -0.3847 -0.0184 -0.8246
  907MOL0     C19607  11.196   9.504   4.657 -1.1044 -0.1920  0.1252
  907MOL0     C19608  11.266   9.493   4.520  0.1517  0.4894  0.4216
  907MOL0     N19609  11.400   9.545   4.519  0.3017 -0.5310  0.9089
  907MOL0     C19610  11.423   9.680   4.532 -0.4310 -0.7643  0.2387
  907MOL0     C19611  11.551   9.687   4.496 -0.3525 -0.0412  0.1009
  907MOL0     C19612  11.635   9.807   4.508  0.4144  0.1025  0.3948
  907MOL0     C19613  11.657   9.898   4.393 -0.2731  0.3665 -1.1258
  907MOL0     C19614  11.737  10.022   4.436 -0.3023 -0.1077 -0.5155
  907MOL0     C19615  11.880   9.989   4.473  0.1077 -0.5512 -0.0121
  907MOL0     O19616  11.932   9.866   4.432 -0.3762 -0.7527  0.1949
  907MOL0     C19617  11.982   9.871   4.301 -1.0357 -1.0193  0.2493
  907MOL0     C19618  11.983   9.746   4.240 -0.2510  0.1144  0.4913
  907MOL0     C19619  12.049   9.733   4.119  0.6957 -0.1368  0.7275
  907MOL0     C19620  12.111   9.835   4.061  0.8026 -0.5016  0.0816
  907MOL0     C19621  12.198   9.809   3.943  0.4121  0.0844  0.4432
  907MOL0     O19622  12.215   9.687   3.893 -0.3418  0.2245 -0.0899
  907MOL0     C19623  12.288   9.673   3.781  0.9822  0.5550  0.4931
  907MOL0     C19624  12.242   9.729   3.662  0.1710 -0.8744  0.6544
  907MOL0     C19625  12.301   9.699   3.535  1.5801  0.1369  0.1147
  907MOL0     C19626  12.407   9.611   3.525 -0.2724  0.4243  0.6092
  907MOL0     O19627  12.472   9.584   3.411 -0.1100 -0.1535 -0.1970
  907MOL0     C19628  12.489   9.687   3.314 -0.4982 -0.5390 -0.1376
  907MOL0     C19629  12.631   9.664   3.247  0.4976 -0.2073  0.3361
  907MOL0     C19630  12.758   9.701   3.324  0.5676 -0.3624 -0.8509
  907MOL0     C19631  12.769   9.642   3.464 -0.0716 -0.9266  0.4342
  907MOL0     C19632  12.886   9.718   3.515  0.1627  0.2120  0.1985
  907MOL0     C19633  12.941   9.653   3.639  0.0983  0.2879 -0.2111
  907MOL0     C19634  13.003   9.508   3.617  0.0010  0.2320 -0.3678
  907MOL0     C19635  13.119   9.477   3.716 -0.4731 -0.0460  0.1948
  907MOL0    Cl19636  13.270   9.568   3.699  0.1230 -0.0947 -0.3247
  907MOL0     C19637  12.441   9.547   3.642 -0.3231  0.3157 -0.4383
  907MOL0     C19638  12.400   9.594   3.770 -0.0719  1.0145 -0.2486
  907MOL0     O19639  12.239   9.910   3.889 -0.0951  0.1103 -0.1708
  907MOL0     C19640  12.107   9.958   4.119 -1.2182 -0.4111  0.2888
  907MOL0     C19641  12.044   9.981   4.230  0.2559  0.8309 -0.4656
  907MOL0     N19642  11.607   9.565   4.469 -1.2099 -0.4268 -0.3243
  907MOL0     N19643  11.510   9.488   4.481  0.4683  0.9887  0.9919
  907MOL0     C19644  10.605   8.833   5.053 -0.7905 -1.0244 -0.2127
  907MOL0     C19645  10.612   8.731   5.142 -0.1634  0.8490  0.3464
  907MOL0     C19646  10.567   8.371   5.393  0.5984  0.0077  0.6800
  907MOL0     C19647  10.687   8.297   5.386  0.9355 -0.5167  1.5932
  907MOL0     C19648  10.710   8.197   5.474 -0.6578  0.2412  0.3103
  907MOL0     C19649  10.634   8.182   5.587  1.7977 -0.0855 -1.3458
  907MOL0     O19650  10.689   8.113   5.692 -0.4012  0.4711  0.8186
  907MOL0     C19651  10.617   8.086   5.814  0.0872 -0.6316  0.2223
  907MOL0     C19652  10.669   7.963   5.884 -0.8095 -0.1850 -0.0718
  907MOL0     C19653  10.671   7.837   5.792 -0.3767 -0.5239  0.3076
  907MOL0     C19654  10.516   7.789   5.766 -0.9707 -0.5069 -0.6333
  907MOL0     C19655  10.506   7.697   5.654 -0.7034  0.0293 -0.6099
  907MOL0     C19656  10.496   7.619   5.565 -0.0556 -0.3281  0.7816
  907MOL0     C19657  10.524   8.266   5.603  0.7147  0.3422  0.5294
  907MOL0     C19658  10.484   8.352   5.498  0.5722  0.2860 -0.3934
  907MOL0     H19659  10.647   8.459   4.935 -1.7232 -0.4994  0.6260
  907MOL0     H19660  10.621   8.657   4.767  1.3505 -1.2778 -0.3442
  907MOL0     H19661  10.828   8.931   4.802 -0.1652  0.5403 -0.6276
  907MOL0     H19662  10.764   9.019   4.941 -2.0903  0.6672  0.5069
  907MOL0     H19663  10.637   9.163   4.791 -1.6184 -2.1419 -2.8138
  907MOL0     H19664  10.699   9.076   4.662  0.1252  0.3922  0.4193
  907MOL0     H19665  10.891   9.217   4.853 -2.9785  3.0431  0.3415
  907MOL0     H19666  10.801   9.299   4.731 -3.1367 -1.0848  0.3220
  907MOL0     H19667  10.960   9.055   4.656 -2.9504 -1.1113 -0.6390
  907MOL0     H19668  10.903   9.174   4.547  0.0443 -0.4010 -1.1665
  907MOL0     H19669  11.134   9.234   4.571 -1.5985 -1.4667 -0.2951
  907MOL0     H19670  11.135   9.212   4.743 -0.3826 -2.7095 -0.8997
  907MOL0     H19671  11.005   9.441   4.748 -0.0751  2.8900 -1.5047
  907MOL0     H19672  11.014   9.443   4.575 -2.0237 -0.9166 -0.1808
  907MOL0     H19673  11.172   9.610   4.667  1.9655  0.7849 -1.4227
  907MOL0     H19674  11.263   9.475   4.738  2.4903 -1.2304 -2.9177
  907MOL0     H19675  11.217   9.557   4.447  1.5726  0.3475 -0.7076
  907MOL0     H19676  11.263   9.396   4.470 -0.4854  1.7558 -2.1787
  907MOL0     H19677  11.346   9.756   4.549 -2.5539 -1.9085 -3.1188
  907MOL0     H19678  11.729   9.768   4.549  0.1992 -0.7598  0.0878
  907MOL0     H19679  11.590   9.867   4.588 -3.2987 -0.9566 -0.6942
  907MOL0     H19680  11.561   9.934   4.354 -0.8950  1.5793  1.3531
  907MOL0     H19681  11.709   9.829   4.327  0.9141 -1.4457  1.5468
  907MOL0     H19682  11.733  10.084   4.346 -0.3692  1.3464  0.4561
  907MOL0     H19683  11.685  10.081   4.511 -0.7176 -1.1872  0.0683
  907MOL0     H19684  11.878   9.985   4.582  0.4228  1.6328  0.1240
  907MOL0     H19685  11.937  10.078   4.444  0.0179 -0.7705 -0.8960
  907MOL0     H19686  11.932   9.669   4.297 -0.9229  1.3822  1.6533
  907MOL0     H19687  12.050   9.629   4.086 -1.5787 -0.2722  0.9673
  907MOL0     H19688  12.160   9.800   3.664  0.3606 -0.6489  3.1864
  907MOL0     H19689  12.256   9.757   3.455  1.1291 -2.2118 -1.4214
  907MOL0     H19690  12.483   9.780   3.372  0.4151  1.1793 -2.6413
  907MOL0     H19691  12.411   9.682   3.238 -2.6248 -1.9101  1.9805
  907MOL0     H19692  12.623   9.715   3.151  1.0357  1.3382  1.0725
  907MOL0     H19693  12.655   9.559   3.234  0.6788 -0.1798  0.4500
  907MOL0     H19694  12.760   9.810   3.333  0.5944 -0.4515  0.3775
  907MOL0     H19695  12.838   9.667   3.259  0.8102  1.1702 -1.3853
  907MOL0     H19696  12.679   9.680   3.512 -1.0677  1.3235 -2.8757
  907MOL0     H19697  12.774   9.533   3.469  0.6782 -0.9669 -0.6556
  907MOL0     H19698  12.851   9.819   3.537 -2.9242 -0.2588 -1.9208
  907MOL0     H19699  12.982   9.722   3.462  1.5116  0.6875  2.5036
  907MOL0     H19700  12.862   9.647   3.714  1.1142  2.0505  1.0797
  907MOL0     H19701  13.005   9.726   3.689 -0.7332  0.6585  0.3491
  907MOL0     H19702  12.913   9.446   3.620 -1.7677  2.6189 -0.4601
  907MOL0     H19703  13.043   9.504   3.515 -0.6160 -1.9491 -0.5562
  907MOL0     H19704  13.150   9.374   3.696  1.9281  0.3454  1.4604
  907MOL0     H19705  13.095   9.476   3.822  0.5470 -3.3869  0.5216
  907MOL0     H19706  12.513   9.466   3.640  1.8519  2.1160  0.2938
  907MOL0     H19707  12.452   9.550   3.854  1.4693  1.4594 -0.9442
  907MOL0     H19708  12.167  10.041   4.082 -0.6232 -0.6713  0.6433
  907MOL0     H19709  12.047  10.079   4.278  0.9764  0.2097  0.8012
  907MOL0     H19710  10.616   8.937   5.082  3.2961 -1.5133  0.5284
  907MOL0     H19711  10.600   8.758   5.246  0.4804 -1.6544  1.1490
  907MOL0     H19712  10.762   8.318   5.311  3.4848  0.9745  4.3442
  907MOL0     H19713  10.792   8.131   5.450 -2.6242 -1.5329 -2.1262
  907MOL0     H19714  10.508   8.083   5.804 -0.1967 -3.1024  2.7985
  907MOL0     H19715  10.640   8.171   5.880 -2.6895  2.7210 -2.7060
  907MOL0     H19716  10.764   7.970   5.937 -2.4007  1.7318  2.7856
  907MOL0     H19717  10.600   7.936   5.964 -0.3500 -1.8074 -0.1834
  907MOL0     H19718  10.743   7.763   5.829 -0.9394 -1.3179 -0.1594
  907MOL0     H19719  10.718   7.883   5.705  0.9311  1.8556  2.1211
  907MOL0     H19720  10.482   7.736   5.854 -2.4978 -1.0124 -1.4878
  907MOL0     H19721  10.452   7.875   5.743 -1.7932 -0.5336  1.3636
  907MOL0     H19722  10.500   7.546   5.487  1.3655 -1.8791  2.2197
  907MOL0     H19723  10.472   8.274   5.697  2.2401 -3.4715  1.8920
  907MOL0     H19724  10.391   8.408   5.505  1.8998  2.4415  1.2976
  908MOL0     O19725   1.070   0.692   1.325  0.6844 -0.0391  0.2322
  908MOL0     C19726   1.119   0.779   1.400 -0.0755  0.3049  0.4373
  908MOL0     O19727   1.200   0.880   1.353 -1.0950  0.4116 -0.2941
  908MOL0     C19728   1.225   0.885   1.223  0.5146 -0.1988  0.5863
  908MOL0     C19729   1.348   0.860   1.165 -0.1893  1.2458 -1.1687
  908MOL0     C19730   1.361   0.857   1.025 -1.1433  0.0008 -0.4735
  908MOL0     C19731   1.252   0.883   0.949  0.9023  0.1078  0.3684
  908MOL0     O19732   1.245   0.872   0.817  0.6852 -0.1484 -0.3209
  908MOL0     C19733   1.364   0.889   0.734  1.2508  0.5831 -0.5682
  908MOL0     C19734   1.318   0.915   0.587 -0.5152  0.6647  0.5260
  908MOL0     C19735   1.317   1.059   0.565 -0.6859 -0.4006  0.8933
  908MOL0     C19736   1.245   1.096   0.434  0.8745  0.2314 -0.1526
  908MOL0     C19737   1.220   1.253   0.419  0.2457 -0.6969  0.2183
  908MOL0     C19738   1.198   1.288   0.274 -0.2756  0.1435  0.6966
  908MOL0     C19739   1.186   1.437   0.236 -0.2451  0.7242 -0.6422
  908MOL0     C19740   1.093   1.511   0.333  0.7048 -0.3853 -0.5068
  908MOL0     N19741   1.070   1.645   0.281  0.3583  0.7823 -0.0237
  908MOL0     C19742   1.150   1.748   0.325 -0.0717  0.3534 -1.5659
  908MOL0     C19743   1.112   1.851   0.246  0.3273  0.3511  0.1490
  908MOL0     C19744   1.154   1.989   0.274 -0.8854  1.3086  0.3570
  908MOL0     C19745   1.084   2.042   0.403  0.0018 -1.2342  0.0475
  908MOL0     C19746   1.096   2.201   0.411  0.0937  0.8183  0.8281
  908MOL0     C19747   1.016   2.263   0.519 -0.2641  0.7704  0.0343
  908MOL0     O19748   1.036   2.408   0.535  0.0748  0.2796 -0.6543
  908MOL0     C19749   1.032   2.499   0.432  0.4796 -0.3173  0.6845
  908MOL0     C19750   1.121   2.611   0.428  0.6786  0.2621 -0.4893
  908MOL0     C19751   1.087   2.724   0.344 -0.1027  0.3871 -0.6448
  908MOL0     C19752   0.990   2.709   0.239 -0.3429 -0.1448 -0.6743
  908MOL0     C19753   0.954   2.821   0.140  1.1062 -0.2560 -0.8168
  908MOL0     O19754   1.055   2.906   0.114  0.1333 -0.3940 -0.2473
  908MOL0     C19755   1.059   2.982   0.002 -0.3153 -0.3999 -0.6429
  908MOL0     C19756   1.065   3.125   0.004 -0.6007  1.0428  0.5323
  908MOL0     C19757   1.054   3.197  -0.118  0.7683 -0.0107 -0.6330
  908MOL0     C19758   1.072   3.134  -0.237  0.5682 -0.2748 -0.5306
  908MOL0     O19759   1.081   3.212  -0.345  0.2589  0.4829  1.4049
  908MOL0     C19760   1.145   3.175  -0.461  1.0735 -0.0453 -0.1321
  908MOL0     C19761   1.127   3.271  -0.583 -0.0956  0.8338 -1.0759
  908MOL0     C19762   1.215   3.402  -0.579 -0.2441  0.0463 -0.1269
  908MOL0     C19763   1.245   3.458  -0.716  0.2597 -1.1173  0.9504
  908MOL0     C19764   1.298   3.596  -0.712  0.6600  1.0778 -0.6012
  908MOL0     C19765   1.298   3.669  -0.842  0.6885  0.1517  0.8068
  908MOL0     C19766   1.350   3.604  -0.971  0.1564  0.2723 -0.0096
  908MOL0     C19767   1.443   3.699  -1.050 -0.5615 -0.2531 -0.6955
  908MOL0    Cl19768   1.602   3.702  -0.968  0.2829 -0.3125 -0.6606
  908MOL0     C19769   1.104   2.993  -0.230  0.2053 -0.8082  0.6744
  908MOL0     C19770   1.079   2.918  -0.119  0.1596  0.1688 -0.5080
  908MOL0     O19771   0.846   2.817   0.070 -0.3044  0.2163  0.0301
  908MOL0     C19772   0.922   2.594   0.233  0.3975 -1.1888 -0.6250
  908MOL0     C19773   0.934   2.498   0.334 -0.4364 -0.3020  0.7784
  908MOL0     N19774   1.012   1.815   0.160  0.5604 -0.1703 -0.8958
  908MOL0     N19775   0.997   1.690   0.173 -0.4591  0.3912  0.2926
  908MOL0     C19776   1.131   0.911   1.003  0.6986  0.0653 -0.1878
  908MOL0     C19777   1.124   0.918   1.140  0.7609  0.4440 -1.0198
  908MOL0     C19778   1.095   0.761   1.540 -0.2667  0.1146 -0.4324
  908MOL0     C19779   1.065   0.861   1.630  0.5561  0.5216  1.1090
  908MOL0     C19780   1.035   0.830   1.759 -0.3780  0.2438 -0.3891
  908MOL0     C19781   1.046   0.706   1.806 -0.1389  0.8186  0.0355
  908MOL0     O19782   1.003   0.695   1.939  0.8689  0.6255 -0.5356
  908MOL0     C19783   0.981   0.556   1.990 -0.8497  0.7994  0.1595
  908MOL0     C19784   0.902   0.580   2.111  0.1751  0.8623 -1.1928
  908MOL0     C19785   0.978   0.669   2.212 -0.0923  0.2768  0.1710
  908MOL0     C19786   0.948   0.621   2.355 -0.3658  0.2134 -0.4339
  908MOL0     C19787   1.065   0.662   2.435  0.0105 -0.4159 -0.2374
  908MOL0     C19788   1.148   0.711   2.501 -0.1527 -1.8858 -0.1265
  908MOL0     C19789   1.085   0.605   1.722  0.8617  0.3735 -0.7357
  908MOL0     C19790   1.113   0.631   1.589  0.0684  0.3674 -0.4075
  908MOL0     H19791   1.431   0.829   1.227 -2.5934 -3.9699 -0.0248
  908MOL0     H19792   1.459   0.829   0.986 -0.2337  0.0471  1.6212
  908MOL0     H19793   1.429   0.801   0.737  1.5225  0.7642  2.4710
  908MOL0     H19794   1.432   0.968   0.767  2.5188  0.0186 -1.6932
  908MOL0     H19795   1.215   0.878   0.584  0.2123 -1.9575  3.4473
  908MOL0     H19796   1.381   0.863   0.514 -1.9988 -0.9733  0.3460
  908MOL0     H19797   1.421   1.093   0.558 -1.2441  1.2663  0.1833
  908MOL0     H19798   1.269   1.115   0.646  1.6236 -0.7700  2.6103
  908MOL0     H19799   1.301   1.043   0.356  0.5626 -3.2886  1.8152
  908MOL0     H19800   1.148   1.046   0.429 -0.4637  2.6212  0.2757
  908MOL0     H19801   1.320   1.294   0.437 -0.5366  1.3720  0.1017
  908MOL0     H19802   1.153   1.298   0.493  1.8608  2.6837 -0.1820
  908MOL0     H19803   1.108   1.237   0.239  1.3732 -0.6064 -2.7829
  908MOL0     H19804   1.287   1.253   0.222 -0.5792 -2.3975  1.7438
  908MOL0     H19805   1.286   1.480   0.236 -0.5067  1.5194  1.9718
  908MOL0     H19806   1.136   1.440   0.139 -1.0409  2.7432 -0.2370
  908MOL0     H19807   1.123   1.504   0.438 -1.4259 -2.8078  0.0433
  908MOL0     H19808   0.989   1.479   0.341  0.4277  0.7009  0.6652
  908MOL0     H19809   1.212   1.751   0.414  0.2942 -0.5781 -1.7757
  908MOL0     H19810   1.123   2.054   0.192 -1.7606  0.0470 -0.3524
  908MOL0     H19811   1.263   1.991   0.280 -0.9033 -0.3839  2.4514
  908MOL0     H19812   1.127   1.990   0.490  1.0889 -1.2734 -0.4973
  908MOL0     H19813   0.980   2.009   0.404 -0.7930  1.0399  1.1807
  908MOL0     H19814   1.200   2.233   0.415  0.0771  0.8051  1.5580
  908MOL0     H19815   1.065   2.232   0.311 -1.1087 -3.6484 -0.4064
  908MOL0     H19816   1.032   2.206   0.611  0.5229 -0.8921 -1.0804
  908MOL0     H19817   0.916   2.244   0.479 -0.1250  0.8353 -0.3473
  908MOL0     H19818   1.182   2.628   0.516 -2.5040 -0.7535  2.1216
  908MOL0     H19819   1.141   2.814   0.371 -0.0363  0.1217  0.1164
  908MOL0     H19820   1.060   3.176   0.100  2.2511 -0.9405  1.8874
  908MOL0     H19821   1.033   3.303  -0.118 -2.1362 -0.5059 -0.8466
  908MOL0     H19822   1.093   3.086  -0.499 -1.9128  2.6868 -3.0907
  908MOL0     H19823   1.251   3.153  -0.449  0.9502 -0.9945 -0.6988
  908MOL0     H19824   1.024   3.304  -0.598  0.1318  1.8870 -0.4520
  908MOL0     H19825   1.153   3.221  -0.676  0.1717  0.7896 -0.9792
  908MOL0     H19826   1.311   3.377  -0.532 -0.7007  1.7676  1.8632
  908MOL0     H19827   1.162   3.470  -0.511 -3.0285  1.0029 -3.0391
  908MOL0     H19828   1.320   3.391  -0.757  1.0714  0.0270  0.5166
  908MOL0     H19829   1.154   3.453  -0.777  0.2393 -3.0023  1.0752
  908MOL0     H19830   1.395   3.602  -0.662  0.6609  2.6342 -0.7231
  908MOL0     H19831   1.242   3.666  -0.649 -0.6224 -1.2991  1.0310
  908MOL0     H19832   1.363   3.757  -0.835 -2.5416  3.0455 -1.8936
  908MOL0     H19833   1.200   3.713  -0.862  1.9726  2.4104 -1.2412
  908MOL0     H19834   1.394   3.504  -0.965  0.2383  0.2104 -1.3428
  908MOL0     H19835   1.265   3.593  -1.040  1.6213 -0.6443 -1.7818
  908MOL0     H19836   1.391   3.795  -1.051 -0.8288 -0.3745 -3.2909
  908MOL0     H19837   1.453   3.666  -1.154 -0.8738  0.0869 -0.8336
  908MOL0     H19838   1.113   2.932  -0.319 -2.7967  0.0490 -0.3607
  908MOL0     H19839   1.080   2.810  -0.129  1.3122 -0.4072  3.7970
  908MOL0     H19840   0.851   2.581   0.151 -2.8638 -1.9483  2.0689
  908MOL0     H19841   0.870   2.411   0.326  1.4750 -1.8092  1.1100
  908MOL0     H19842   1.048   0.927   0.935 -0.5308 -0.6242  1.0894
  908MOL0     H19843   1.032   0.940   1.193  0.4390  1.6187 -2.0238
  908MOL0     H19844   1.043   0.958   1.587 -0.7619  0.4542  1.5857
  908MOL0     H19845   1.001   0.904   1.831  1.7745  2.4756 -1.5381
  908MOL0     H19846   1.070   0.499   2.018 -1.0923  0.0424 -0.5762
  908MOL0     H19847   0.919   0.491   1.928  1.6416 -1.6606  0.0505
  908MOL0     H19848   0.806   0.624   2.084  0.3910  1.2072 -1.4112
  908MOL0     H19849   0.878   0.483   2.155 -2.1065  2.3232  1.0086
  908MOL0     H19850   0.955   0.775   2.200 -1.5449  0.2280  2.0328
  908MOL0     H19851   1.085   0.667   2.191  0.2909 -2.3612  1.8609
  908MOL0     H19852   0.853   0.672   2.373  0.3381  2.6037 -2.9301
  908MOL0     H19853   0.948   0.512   2.364  4.7393 -0.0041 -0.1908
  908MOL0     H19854   1.204   0.765   2.574  0.1882 -1.5489 -0.6342
  908MOL0     H19855   1.096   0.507   1.767 -0.5248  1.2611  1.6821
  908MOL0     H19856   1.140   0.542   1.531  1.0755  0.6855 -0.4532
  909MOL0     O19857   3.016   2.281  10.763  0.7886  0.1804  0.3243
  909MOL0     C19858   3.014   2.387  10.703  0.1095  0.0071 -0.1028
  909MOL0     O19859   3.029   2.399  10.572  0.8459  0.5892 -0.0702
  909MOL0     C19860   3.048   2.289  10.494 -0.1533 -0.3219  0.8127
  909MOL0     C19861   3.155   2.292  10.411 -1.0147 -0.9254  0.2295
  909MOL0     C19862   3.200   2.178  10.343  0.1791  0.3196  0.9191
  909MOL0     C19863   3.135   2.051  10.353  1.1958 -0.4989  0.0255
  909MOL0     O19864   3.171   1.933  10.273 -0.3625  0.1617 -0.1409
  909MOL0     C19865   3.174   1.824  10.361  0.2967 -0.4888 -0.4199
  909MOL0     C19866   3.324   1.786  10.377 -0.0944 -0.6465  0.9005
  909MOL0     C19867   3.343   1.711  10.507 -0.3283  0.1719  0.3565
  909MOL0     C19868   3.488   1.640  10.522  0.2336  0.4217 -0.3361
  909MOL0     C19869   3.516   1.603  10.668  0.7106 -0.2035 -1.1905
  909MOL0     C19870   3.417   1.516  10.742  0.4626  1.1988 -0.4719
  909MOL0     C19871   3.409   1.372  10.686  0.9392  0.0970  0.2781
  909MOL0     C19872   3.325   1.287  10.786  0.1809  0.3357 -1.1800
  909MOL0     N19873   3.309   1.152  10.745  0.1551  0.7542 -0.5390
  909MOL0     C19874   3.210   1.095  10.668  1.1780 -0.4156  0.6365
  909MOL0     C19875   3.247   0.970  10.635  0.1629 -0.2124 -0.2804
  909MOL0     C19876   3.168   0.867  10.555 -0.1885  0.0324  0.1554
  909MOL0     C19877   3.040   0.920  10.493 -0.1242 -0.0166  0.4703
  909MOL0     C19878   2.944   0.809  10.448  0.3850 -0.2636 -0.1947
  909MOL0     C19879   3.001   0.702  10.361  0.3142  0.5348  0.5008
  909MOL0     O19880   3.091   0.749  10.259  0.2195 -0.6602  0.2532
  909MOL0     C19881   3.051   0.721  10.130 -0.3389 -0.0824  0.2235
  909MOL0     C19882   2.973   0.817  10.068 -0.2180  0.0808 -0.9184
  909MOL0     C19883   2.919   0.797   9.944 -0.0903 -0.9385  1.0993
  909MOL0     C19884   2.949   0.675   9.876  0.4670 -0.0653 -0.1598
  909MOL0     C19885   2.880   0.628   9.759 -0.0376 -1.0662  0.5952
  909MOL0     O19886   2.941   0.537   9.675 -0.4595 -0.1385 -0.8458
  909MOL0     C19887   2.911   0.528   9.544  0.2065 -0.3111  0.1811
  909MOL0     C19888   2.860   0.407   9.478 -0.5371 -0.4264 -0.3439
  909MOL0     C19889   2.849   0.394   9.341  1.3158  0.2025 -0.5064
  909MOL0     C19890   2.899   0.494   9.268 -0.0342 -0.5742  0.3791
  909MOL0     O19891   2.909   0.492   9.134  0.0701  0.2237  0.3441
  909MOL0     C19892   2.912   0.357   9.069  0.2663 -0.1287  0.0079
  909MOL0     C19893   2.994   0.362   8.934  0.4296  0.7616 -0.2741
  909MOL0     C19894   3.142   0.387   8.954 -0.8503 -0.0492  0.0017
  909MOL0     C19895   3.203   0.469   8.837  0.4410  0.4330  0.4746
  909MOL0     C19896   3.195   0.375   8.714  0.0532  0.0579  0.5194
  909MOL0     C19897   3.271   0.442   8.598  0.0051  0.3430 -0.3516
  909MOL0     C19898   3.310   0.346   8.487  0.7943  0.6600  0.6277
  909MOL0     C19899   3.422   0.402   8.401 -0.6142  0.6031  0.0761
  909MOL0    Cl19900   3.574   0.426   8.497  0.0974 -0.1596  1.0932
  909MOL0     C19901   2.927   0.621   9.322 -0.1165  0.3837 -0.1016
  909MOL0     C19902   2.934   0.638   9.461 -0.1638 -0.2377  0.1823
  909MOL0     O19903   2.792   0.707   9.721 -0.3681  0.6241 -0.0220
  909MOL0     C19904   3.035   0.589   9.940  0.4129 -0.3625 -0.0221
  909MOL0     C19905   3.095   0.606  10.064  0.3715 -0.0420  0.2667
  909MOL0     N19906   3.366   0.943  10.696 -0.3945  0.0878  0.3080
  909MOL0     N19907   3.393   1.046  10.764  0.8846 -1.0759  0.4994
  909MOL0     C19908   3.006   2.054  10.424  0.1613  0.3839 -0.8996
  909MOL0     C19909   2.968   2.173  10.495 -0.4982  0.0707  0.2482
  909MOL0     C19910   2.978   2.506  10.772 -0.1219  0.7148 -0.1940
  909MOL0     C19911   3.009   2.633  10.731  0.2691  0.5185 -0.1092
  909MOL0     C19912   2.971   2.754  10.796 -0.6826  0.4804 -0.5798
  909MOL0     C19913   2.918   2.753  10.918  0.9879  0.9714 -0.5708
  909MOL0     O19914   2.877   2.874  10.979 -0.2475  0.0957  0.3551
  909MOL0     C19915   2.818   2.870  11.110 -0.5967 -0.1281  0.5511
  909MOL0     C19916   2.824   3.017  11.161  0.8966 -0.7375  0.1791
  909MOL0     C19917   2.791   3.029  11.305 -0.9706 -0.2870 -1.2041
  909MOL0     C19918   2.755   3.178  11.328 -0.0161 -0.5867  0.0103
  909MOL0     C19919   2.874   3.275  11.328 -0.8831  0.0652  0.8833
  909MOL0     C19920   2.965   3.350  11.306  0.4817 -0.4126  1.0911
  909MOL0     C19921   2.894   2.623  10.975 -0.7665 -0.5442  0.9704
  909MOL0     C19922   2.925   2.502  10.909  0.9073 -0.9512 -0.3609
  909MOL0     H19923   3.199   2.387  10.385 -2.5164  0.9514  3.8174
  909MOL0     H19924   3.286   2.172  10.277 -1.9344  0.2168 -2.0578
  909MOL0     H19925   3.111   1.741  10.325 -0.2628 -0.9473  1.4824
  909MOL0     H19926   3.129   1.847  10.458 -1.6417  0.9248 -1.5801
  909MOL0     H19927   3.379   1.880  10.389 -4.4579  2.6142 -1.3764
  909MOL0     H19928   3.370   1.737  10.291  0.3091  2.5540 -0.8783
  909MOL0     H19929   3.270   1.630  10.511 -2.0263  1.5234 -1.3810
  909MOL0     H19930   3.332   1.769  10.599 -0.0776  0.5036  0.1780
  909MOL0     H19931   3.474   1.550  10.461 -4.7878  2.1607 -2.2336
  909MOL0     H19932   3.564   1.703  10.475 -1.2490 -0.8291 -4.9300
  909MOL0     H19933   3.521   1.694  10.728 -1.8833  0.8458 -2.4345
  909MOL0     H19934   3.618   1.563  10.659  1.0402  0.5432 -0.8170
  909MOL0     H19935   3.319   1.560  10.759  0.1414  0.9707 -1.6790
  909MOL0     H19936   3.451   1.500  10.845 -0.1490 -0.2144 -0.4649
  909MOL0     H19937   3.351   1.361  10.593  0.5932 -0.4452  0.5554
  909MOL0     H19938   3.507   1.324  10.689  0.4532 -0.8393  1.7511
  909MOL0     H19939   3.230   1.341  10.790 -0.0575 -0.1360 -0.3468
  909MOL0     H19940   3.364   1.280  10.887 -1.8250 -0.6094 -0.4122
  909MOL0     H19941   3.128   1.156  10.632  2.6669  1.2045 -0.1826
  909MOL0     H19942   3.137   0.784  10.619 -0.5219  1.3714  1.8215
  909MOL0     H19943   3.230   0.842  10.469 -1.4973  0.6663 -1.0115
  909MOL0     H19944   3.062   0.981  10.405 -1.9786  0.8331  0.5462
  909MOL0     H19945   2.981   0.984  10.559 -1.9750  3.2120 -3.7859
  909MOL0     H19946   2.896   0.766  10.536  0.9047  1.8832  1.2166
  909MOL0     H19947   2.868   0.861  10.389 -0.1569 -1.1127 -0.2556
  909MOL0     H19948   2.921   0.636  10.326  0.3378 -1.9189  4.4324
  909MOL0     H19949   3.048   0.634  10.433  1.3581 -0.7432 -1.3072
  909MOL0     H19950   2.924   0.891  10.130 -1.1908 -0.1201 -1.4387
  909MOL0     H19951   2.858   0.875   9.899 -2.0158 -1.9565  1.8196
  909MOL0     H19952   2.826   0.330   9.546  0.5461 -0.0668  0.6465
  909MOL0     H19953   2.802   0.309   9.292  1.2470 -0.7176  1.0932
  909MOL0     H19954   2.811   0.321   9.047 -0.2108  0.6472  0.7985
  909MOL0     H19955   2.954   0.279   9.133  2.7680  2.4844  1.8135
  909MOL0     H19956   2.949   0.443   8.877  0.4258  0.6592 -0.4167
  909MOL0     H19957   2.971   0.275   8.871 -2.2310  1.7191 -0.7486
  909MOL0     H19958   3.204   0.299   8.972 -0.2260  0.4329  0.2377
  909MOL0     H19959   3.162   0.448   9.042  3.1739  0.7142 -1.2317
  909MOL0     H19960   3.155   0.568   8.829 -0.1663  0.0700 -0.5352
  909MOL0     H19961   3.308   0.491   8.857 -0.3084  1.2085  4.6649
  909MOL0     H19962   3.096   0.344   8.678  1.1506 -0.7275 -2.1026
  909MOL0     H19963   3.246   0.281   8.738  1.7525  1.0462  0.9059
  909MOL0     H19964   3.358   0.487   8.646 -0.6477  0.6065  0.6318
  909MOL0     H19965   3.214   0.517   8.543  3.4603  2.7076 -0.9975
  909MOL0     H19966   3.348   0.249   8.522  3.3944  0.1336 -3.0475
  909MOL0     H19967   3.224   0.319   8.425  1.7573 -2.8306  0.6048
  909MOL0     H19968   3.390   0.491   8.347  1.8202  1.5549  0.0339
  909MOL0     H19969   3.450   0.326   8.327 -0.6116  0.4724  0.2095
  909MOL0     H19970   2.967   0.688   9.247  2.9296  0.6643  1.5815
  909MOL0     H19971   2.978   0.726   9.506 -2.7530  1.4582 -0.3247
  909MOL0     H19972   3.068   0.495   9.897 -2.1907 -1.9144  1.1366
  909MOL0     H19973   3.167   0.541  10.113 -0.6635 -1.5376 -0.1099
  909MOL0     H19974   2.935   1.972  10.422  1.3908 -0.7235 -1.9244
  909MOL0     H19975   2.882   2.173  10.561 -0.9572 -0.2457 -0.3366
  909MOL0     H19976   3.042   2.649  10.629 -1.5837  0.0520 -0.8148
  909MOL0     H19977   2.995   2.837  10.731  3.5377 -0.3932 -0.4384
  909MOL0     H19978   2.879   2.803  11.172 -0.1906 -1.0208 -0.7708
  909MOL0     H19979   2.716   2.832  11.109 -1.4465  2.0233 -0.8229
  909MOL0     H19980   2.926   3.052  11.138  1.3835 -1.1289  1.6440
  909MOL0     H19981   2.756   3.075  11.098  0.0443 -0.2769  1.5007
  909MOL0     H19982   2.873   3.004  11.372  1.6446  2.6914 -2.9641
  909MOL0     H19983   2.716   2.956  11.336  2.1070 -2.9828  0.4137
  909MOL0     H19984   2.681   3.213  11.255  2.2067  1.6724 -1.3083
  909MOL0     H19985   2.706   3.188  11.425 -0.7707 -0.8222 -0.3306
  909MOL0     H19986   3.050   3.405  11.270 -1.0026  1.2103 -0.1245
  909MOL0     H19987   2.835   2.626  11.066 -0.2895 -0.6264  1.2891
  909MOL0     H19988   2.911   2.406  10.957 -0.0791 -0.3893  0.5316
  910MOL0     O19989   9.786   3.413   7.211  0.7761  0.9724  0.1424
  910MOL0     C19990   9.838   3.452   7.111 -0.5360 -0.6647  0.3411
  910MOL0     O19991   9.786   3.439   6.981 -0.6387  0.4986  0.2456
  910MOL0     C19992   9.688   3.347   6.962  0.1817 -0.3183  0.2927
  910MOL0     C19993   9.578   3.396   6.883 -0.4240 -0.9758 -0.2370
  910MOL0     C19994   9.470   3.314   6.868 -1.2691 -0.6217 -0.1516
  910MOL0     C19995   9.470   3.180   6.905 -0.5935  0.4607 -0.1887
  910MOL0     O19996   9.358   3.109   6.878 -0.2003 -0.5645  0.0281
  910MOL0     C19997   9.256   3.110   6.976 -0.0793  0.8710 -0.8200
  910MOL0     C19998   9.150   3.012   6.919 -0.1519  0.9395  0.7327
  910MOL0     C19999   9.033   2.999   7.017 -0.1524 -0.0618 -0.0746
  910MOL0     C20000   8.906   2.935   6.961 -1.0794  0.2160  0.1169
  910MOL0     C20001   8.925   2.781   6.962  0.4610  0.8504  0.4202
  910MOL0     C20002   8.793   2.705   6.917  0.5487 -0.6111  0.2933
  910MOL0     C20003   8.674   2.733   7.013 -0.0366 -0.5551 -0.6479
  910MOL0     C20004   8.576   2.620   7.007  1.2281 -0.4032  0.3086
  910MOL0     N20005   8.439   2.664   7.044  0.9737  0.8053  0.0836
  910MOL0     C20006   8.361   2.724   6.952 -0.6210 -0.3528  0.0054
  910MOL0     C20007   8.238   2.690   6.995 -0.1373 -1.6452 -0.9270
  910MOL0     C20008   8.100   2.734   6.927  0.1812  0.3949  0.0423
  910MOL0     C20009   8.095   2.850   6.833  0.1772 -0.8551  0.4254
  910MOL0     C20010   8.103   2.816   6.682 -0.3022 -1.2966 -1.3904
  910MOL0     C20011   8.239   2.775   6.644 -0.2515 -0.2984  0.6673
  910MOL0     O20012   8.333   2.884   6.660 -0.2894 -0.3088  0.4017
  910MOL0     C20013   8.464   2.862   6.610  0.2426  0.2213 -0.0076
  910MOL0     C20014   8.543   2.980   6.597  0.4811  0.6792  0.0641
  910MOL0     C20015   8.671   2.967   6.549  0.2229  0.0402 -0.2093
  910MOL0     C20016   8.734   2.851   6.519  0.7748 -0.3608  1.1199
  910MOL0     C20017   8.882   2.847   6.477  0.4044 -0.1161  0.3008
  910MOL0     O20018   8.944   2.964   6.476 -0.7602 -0.7822  0.1729
  910MOL0     C20019   9.084   2.959   6.455  0.3595 -0.9026 -0.2537
  910MOL0     C20020   9.145   3.016   6.344 -1.1871 -0.5579  0.3106
  910MOL0     C20021   9.291   3.028   6.345  0.8691 -0.8527  0.0610
  910MOL0     C20022   9.366   2.989   6.460  1.3907  0.3255  0.2200
  910MOL0     O20023   9.496   3.014   6.444  0.1029  0.5286  0.1238
  910MOL0     C20024   9.582   2.944   6.540  0.5459 -0.4601  0.4869
  910MOL0     C20025   9.728   2.985   6.501  0.5038  0.1053 -0.6170
  910MOL0     C20026   9.820   2.914   6.604  0.2395 -0.5777 -0.0561
  910MOL0     C20027   9.953   2.988   6.609 -1.0192 -0.0093  0.4207
  910MOL0     C20028  10.055   2.900   6.694 -0.7424 -0.3829  0.1362
  910MOL0     C20029  10.205   2.953   6.695 -0.1623 -0.5221  0.7588
  910MOL0     C20030  10.239   3.021   6.562  0.1246 -0.5296 -1.2233
  910MOL0     C20031  10.394   3.075   6.568  0.5365  0.0467 -0.8184
  910MOL0    Cl20032  10.461   3.087   6.390 -0.0067 -0.2159 -0.3034
  910MOL0     C20033   9.300   2.929   6.571 -0.1581  0.7747 -0.5243
  910MOL0     C20034   9.159   2.916   6.564 -0.4549  0.2289 -0.5920
  910MOL0     O20035   8.937   2.738   6.452 -0.3869 -0.4894 -0.1317
  910MOL0     C20036   8.654   2.728   6.538 -0.1152 -0.9039 -0.0589
  910MOL0     C20037   8.522   2.743   6.580  0.3234  0.1783  0.9039
  910MOL0     N20038   8.238   2.626   7.108 -0.1368 -0.5189 -0.0358
  910MOL0     N20039   8.361   2.612   7.144  1.5064 -0.8350  0.5771
  910MOL0     C20040   9.575   3.130   6.977 -0.5721  0.7028  0.2395
  910MOL0     C20041   9.676   3.213   7.008 -1.0282  0.2013  0.0118
  910MOL0     C20042   9.955   3.543   7.128 -0.6721  0.0760  0.7031
  910MOL0     C20043  10.034   3.575   7.006  0.2481  0.3319  0.5552
  910MOL0     C20044  10.157   3.654   7.022  0.9688 -0.5005  0.8257
  910MOL0     C20045  10.206   3.697   7.138 -0.3426 -0.3753 -0.1053
  910MOL0     O20046  10.324   3.769   7.141  0.7635 -0.4938  0.4804
  910MOL0     C20047  10.442   3.700   7.093  0.6725 -0.2297  0.5295
  910MOL0     C20048  10.555   3.748   7.185  0.4579  0.0611  0.9815
  910MOL0     C20049  10.685   3.687   7.112  0.4220 -0.1876  0.7879
  910MOL0     C20050  10.823   3.714   7.169 -0.3319  0.1747  0.6031
  910MOL0     C20051  10.854   3.857   7.196 -0.6336  0.0932 -0.0348
  910MOL0     C20052  10.884   3.978   7.215 -0.5260  0.4937 -0.3112
  910MOL0     C20053  10.137   3.666   7.258  0.5668  0.0537  0.2490
  910MOL0     C20054  10.012   3.589   7.256 -0.3847 -0.2391 -0.1610
  910MOL0     H20055   9.586   3.496   6.841  0.4008 -1.4816 -1.3135
  910MOL0     H20056   9.379   3.353   6.822  0.9377  3.9210 -1.3032
  910MOL0     H20057   9.212   3.207   7.001 -0.2835  0.3320  1.1104
  910MOL0     H20058   9.304   3.082   7.071 -0.9929  3.3092  0.4705
  910MOL0     H20059   9.203   2.917   6.908 -2.2471 -0.1260 -1.0174
  910MOL0     H20060   9.104   3.049   6.827 -3.8856  0.9017  2.3930
  910MOL0     H20061   8.999   3.099   7.046  1.0662  0.3602 -0.0300
  910MOL0     H20062   9.054   2.939   7.106 -1.0942 -0.8492 -0.3669
  910MOL0     H20063   8.834   2.966   7.038  0.4923 -1.2593  2.3256
  910MOL0     H20064   8.880   2.971   6.861 -1.6548 -0.9179 -0.1593
  910MOL0     H20065   8.950   2.747   7.063  1.5984 -0.0282 -0.1315
  910MOL0     H20066   8.997   2.743   6.888 -0.5909 -0.1131 -0.1422
  910MOL0     H20067   8.820   2.600   6.926 -2.0320 -1.2596  1.6656
  910MOL0     H20068   8.764   2.738   6.816 -2.6134  0.3741  1.4110
  910MOL0     H20069   8.709   2.757   7.113 -0.1998 -4.2686  0.4525
  910MOL0     H20070   8.618   2.819   6.973  1.0501 -0.0748 -1.1619
  910MOL0     H20071   8.597   2.544   7.083  1.3573  1.3287  2.0780
  910MOL0     H20072   8.571   2.587   6.903  1.5335  1.4294 -0.3178
  910MOL0     H20073   8.396   2.780   6.866 -3.0967 -0.4083 -1.1191
  910MOL0     H20074   8.030   2.755   7.009 -0.5124  0.3592 -0.5321
  910MOL0     H20075   8.053   2.654   6.868 -0.1470 -0.4307  1.3724
  910MOL0     H20076   8.154   2.937   6.866 -0.4338  0.2229 -1.2091
  910MOL0     H20077   7.992   2.886   6.833 -0.4835 -2.4569  3.5119
  910MOL0     H20078   8.028   2.744   6.647  0.4521 -2.8480  0.0703
  910MOL0     H20079   8.084   2.908   6.626  0.3804  0.7898  1.5865
  910MOL0     H20080   8.236   2.732   6.544  1.7649 -2.6345  1.5067
  910MOL0     H20081   8.262   2.686   6.703  1.0561  0.0074  0.6541
  910MOL0     H20082   8.514   3.081   6.623  0.8559  0.4141  1.6246
  910MOL0     H20083   8.728   3.059   6.545 -1.5343  1.4584  3.0698
  910MOL0     H20084   9.098   3.059   6.256  1.2405 -0.1003 -0.8487
  910MOL0     H20085   9.347   3.079   6.267  2.1951  0.5627  1.8285
  910MOL0     H20086   9.562   2.839   6.516 -0.9412  0.8137 -5.5829
  910MOL0     H20087   9.561   2.975   6.643  4.3154  1.1427  0.9136
  910MOL0     H20088   9.729   3.094   6.506  0.1368  0.0497  1.3401
  910MOL0     H20089   9.755   2.950   6.401  3.5197  2.5213 -0.8067
  910MOL0     H20090   9.836   2.808   6.585  0.3860 -0.6740  0.5827
  910MOL0     H20091   9.759   2.923   6.695 -2.2931 -0.4156 -1.6838
  910MOL0     H20092   9.987   3.002   6.506 -0.7965  2.8436  0.8239
  910MOL0     H20093   9.965   3.089   6.647  1.8249  0.8186 -2.2567
  910MOL0     H20094  10.060   2.795   6.667  2.4217 -0.1703 -0.5519
  910MOL0     H20095  10.026   2.895   6.799 -0.2495  2.0292  0.4580
  910MOL0     H20096  10.272   2.869   6.713  0.2362 -0.4616 -0.3536
  910MOL0     H20097  10.208   3.022   6.780  0.0177 -2.3884  2.3229
  910MOL0     H20098  10.220   2.957   6.475 -1.5660 -0.6034 -0.8501
  910MOL0     H20099  10.178   3.111   6.547 -1.4970 -1.1466  0.9844
  910MOL0     H20100  10.449   2.998   6.623 -0.1055  1.2105  1.5995
  910MOL0     H20101  10.413   3.166   6.627 -0.8565  0.5615 -1.1233
  910MOL0     H20102   9.362   2.898   6.654 -1.5868  2.0135  1.0749
  910MOL0     H20103   9.095   2.873   6.640 -0.8151  0.6988 -0.6234
  910MOL0     H20104   8.709   2.635   6.536  0.3626 -0.7225  2.1432
  910MOL0     H20105   8.470   2.648   6.595  1.0197 -0.7806 -1.9918
  910MOL0     H20106   9.553   3.032   7.018  0.8960  0.5667  0.7773
  910MOL0     H20107   9.751   3.167   7.071  2.4425  1.7743 -2.6658
  910MOL0     H20108  10.006   3.533   6.910 -0.6978  2.1800 -0.0377
  910MOL0     H20109  10.224   3.669   6.938  2.0356 -1.9468  1.3826
  910MOL0     H20110  10.461   3.733   6.991  0.1329  1.7241  1.0262
  910MOL0     H20111  10.432   3.591   7.096  1.6281 -0.2936  2.4042
  910MOL0     H20112  10.573   3.856   7.187 -1.0311  0.3727 -0.2827
  910MOL0     H20113  10.538   3.712   7.287 -0.3888  0.0897  0.8580
  910MOL0     H20114  10.691   3.718   7.007  0.0669 -0.3676  0.7130
  910MOL0     H20115  10.673   3.579   7.113  2.7509 -0.5059  1.6871
  910MOL0     H20116  10.827   3.649   7.257 -3.8082  0.7542  1.3380
  910MOL0     H20117  10.893   3.683   7.090 -0.8971 -2.9187  1.1767
  910MOL0     H20118  10.915   4.075   7.247  2.5909 -0.5152  0.0450
  910MOL0     H20119  10.172   3.714   7.349 -3.1463  0.3841  1.6744
  910MOL0     H20120   9.944   3.561   7.336 -2.5360  0.8917 -1.4980
  911MOL0     O20121   1.740   2.893   7.266  0.1117  0.2855 -0.1500
  911MOL0     C20122   1.687   3.010   7.275 -0.4084  0.2309  0.3312
  911MOL0     O20123   1.557   3.037   7.241 -0.3261 -0.6717 -0.8329
  911MOL0     C20124   1.493   2.943   7.161 -0.9521  0.4903 -0.3281
  911MOL0     C20125   1.392   2.861   7.214  0.0190  0.8599  0.3571
  911MOL0     C20126   1.332   2.752   7.141 -0.8462  0.2961  0.2894
  911MOL0     C20127   1.361   2.742   7.002  0.1199 -0.5765 -0.8774
  911MOL0     O20128   1.298   2.638   6.944 -0.7847  0.1395  0.5584
  911MOL0     C20129   1.237   2.677   6.825  0.4362 -0.6401  0.6056
  911MOL0     C20130   1.098   2.741   6.856 -1.0723  0.0985 -0.0230
  911MOL0     C20131   1.007   2.648   6.935  0.8935  0.7702 -1.0192
  911MOL0     C20132   0.944   2.536   6.844  0.2899  0.4705 -0.8818
  911MOL0     C20133   0.843   2.449   6.923 -1.2354  0.2945  0.5598
  911MOL0     C20134   0.698   2.431   6.872  0.6203  0.3799  0.0863
  911MOL0     C20135   0.691   2.389   6.729 -0.1564  1.2196  1.2401
  911MOL0     C20136   0.595   2.276   6.700 -0.0716 -0.3119 -0.5778
  911MOL0     N20137   0.455   2.318   6.699 -1.2883 -1.1096  0.1574
  911MOL0     C20138   0.374   2.377   6.603  0.7336 -0.0078 -0.0349
  911MOL0     C20139   0.244   2.367   6.651  0.5870 -0.4298 -0.1967
  911MOL0     C20140   0.110   2.390   6.598 -0.1744  0.0870 -0.2262
  911MOL0     C20141   0.043   2.514   6.658 -0.9731  0.3554  0.2682
  911MOL0     C20142   0.027   2.515   6.810  0.4943  0.1769 -0.0590
  911MOL0     C20143  -0.088   2.411   6.854 -0.9269 -0.0064  1.0307
  911MOL0     O20144  -0.220   2.450   6.798 -0.5832  0.4252  0.1600
  911MOL0     C20145  -0.326   2.374   6.833  0.4655  0.0724  0.7256
  911MOL0     C20146  -0.431   2.402   6.762 -0.5482 -0.5426  0.4158
  911MOL0     C20147  -0.548   2.335   6.771 -0.2146  0.4664 -1.1285
  911MOL0     C20148  -0.551   2.228   6.855 -0.0275 -0.8279  0.2823
  911MOL0     C20149  -0.682   2.158   6.859 -0.3906  0.0533 -0.3697
  911MOL0     O20150  -0.782   2.199   6.776  0.1726  0.2580  0.5158
  911MOL0     C20151  -0.909   2.145   6.773  0.6880 -0.1826 -0.4498
  911MOL0     C20152  -0.983   2.102   6.884 -0.9077  0.6671 -0.4688
  911MOL0     C20153  -1.114   2.084   6.881 -1.1333 -0.1817  1.6112
  911MOL0     C20154  -1.184   2.096   6.757  0.0566 -0.0055  0.9364
  911MOL0     O20155  -1.316   2.053   6.766 -0.3069 -0.4174  0.2378
  911MOL0     C20156  -1.384   2.013   6.641 -0.4162 -0.2274 -0.5405
  911MOL0     C20157  -1.491   1.910   6.667  0.2573 -0.2906  0.4367
  911MOL0     C20158  -1.562   1.860   6.539  0.0153 -0.1469 -0.2328
  911MOL0     C20159  -1.682   1.777   6.583  0.8497  0.1442 -0.6059
  911MOL0     C20160  -1.746   1.727   6.447  0.2272 -0.2118  0.0362
  911MOL0     C20161  -1.894   1.701   6.462  0.0750 -0.2036  0.1526
  911MOL0     C20162  -1.921   1.603   6.576  0.2881 -0.6087  0.3256
  911MOL0     C20163  -2.048   1.513   6.541 -0.4042 -0.8520  0.5373
  911MOL0    Cl20164  -2.182   1.622   6.555 -0.0140 -0.0653  0.5889
  911MOL0     C20165  -1.112   2.135   6.644  0.6871 -1.2971 -0.2544
  911MOL0     C20166  -0.983   2.182   6.657 -0.4775  0.5967 -0.9548
  911MOL0     O20167  -0.688   2.063   6.938  0.1525  0.0672 -0.0405
  911MOL0     C20168  -0.436   2.188   6.932  0.4450 -0.5968  0.1052
  911MOL0     C20169  -0.319   2.260   6.921  0.0361 -0.1843 -0.1199
  911MOL0     N20170   0.250   2.307   6.774 -1.1254  0.2422  0.2710
  911MOL0     N20171   0.374   2.278   6.796  0.3458 -0.5155 -0.3719
  911MOL0     C20172   1.457   2.825   6.950  0.6810 -1.0097 -0.7437
  911MOL0     C20173   1.537   2.912   7.032 -0.6032  0.1417  0.4467
  911MOL0     C20174   1.768   3.129   7.301 -0.4286 -1.1334 -0.3205
  911MOL0     C20175   1.710   3.253   7.324  0.4040  0.0639 -0.1060
  911MOL0     C20176   1.786   3.361   7.346  0.5143 -1.0002  0.2433
  911MOL0     C20177   1.934   3.353   7.351  1.6361  0.1574 -0.8125
  911MOL0     O20178   2.000   3.469   7.370  0.4906  0.9349 -0.6966
  911MOL0     C20179   2.140   3.474   7.378  0.0607 -0.0793 -0.7400
  911MOL0     C20180   2.194   3.449   7.233 -0.0588  0.1236 -0.6418
  911MOL0     C20181   2.325   3.363   7.232  0.0035 -0.2251 -0.4955
  911MOL0     C20182   2.391   3.351   7.091  0.1812  0.5307 -0.3996
  911MOL0     C20183   2.528   3.287   7.103 -0.3406  0.5006 -0.3616
  911MOL0     C20184   2.645   3.247   7.102 -0.3475  0.0644  0.4039
  911MOL0     C20185   1.995   3.230   7.319  0.7625  1.0318  0.4861
  911MOL0     C20186   1.911   3.122   7.301  0.0839  0.7691  0.2574
  911MOL0     H20187   1.365   2.870   7.319  2.3487 -0.0371  1.0788
  911MOL0     H20188   1.266   2.683   7.192 -3.4466  1.2457 -1.5991
  911MOL0     H20189   1.219   2.594   6.755 -3.0315  2.7295 -2.9835
  911MOL0     H20190   1.289   2.753   6.766 -2.4223  1.8709  1.1239
  911MOL0     H20191   1.059   2.754   6.755  1.4930 -1.6453 -1.3385
  911MOL0     H20192   1.110   2.834   6.913  2.7050 -1.0148  1.2988
  911MOL0     H20193   0.922   2.697   6.984  0.1960 -1.5642  0.2767
  911MOL0     H20194   1.066   2.604   7.015 -1.4199 -2.9972 -1.1225
  911MOL0     H20195   0.886   2.583   6.764 -5.6978 -0.1800  2.4837
  911MOL0     H20196   1.023   2.467   6.814  1.1858  2.2952 -2.9917
  911MOL0     H20197   0.840   2.499   7.020  3.9649  4.1012 -0.8081
  911MOL0     H20198   0.890   2.354   6.951  2.7351  1.7385 -0.5838
  911MOL0     H20199   0.648   2.528   6.874 -1.7443 -0.5677 -3.5506
  911MOL0     H20200   0.655   2.357   6.940  3.4904  1.4729  3.3896
  911MOL0     H20201   0.661   2.482   6.679 -0.1747  0.1995 -0.7553
  911MOL0     H20202   0.788   2.350   6.696 -0.8735  0.5944 -0.2189
  911MOL0     H20203   0.603   2.194   6.772  0.0686  2.2708  2.5772
  911MOL0     H20204   0.612   2.232   6.601 -5.1695 -1.7286 -1.1047
  911MOL0     H20205   0.404   2.385   6.499  0.7593 -2.4581 -0.2645
  911MOL0     H20206   0.049   2.300   6.606 -1.3761  0.6810 -2.0077
  911MOL0     H20207   0.125   2.418   6.493  2.6933  0.6810  0.2535
  911MOL0     H20208  -0.056   2.524   6.612 -1.0372  1.7512  0.6527
  911MOL0     H20209   0.099   2.601   6.623 -0.9297 -1.1366 -3.8757
  911MOL0     H20210   0.117   2.492   6.868  0.3930 -1.4085 -0.4719
  911MOL0     H20211  -0.008   2.616   6.832  1.9628  0.8692 -0.7877
  911MOL0     H20212  -0.087   2.403   6.964  1.1442 -1.3037  0.9609
  911MOL0     H20213  -0.057   2.312   6.821  2.3293  1.6759 -1.6374
  911MOL0     H20214  -0.432   2.480   6.687 -3.2509 -0.8204  0.0509
  911MOL0     H20215  -0.626   2.373   6.706  0.6046  0.9767 -1.8359
  911MOL0     H20216  -0.943   2.096   6.985 -4.5947  3.3822  1.3919
  911MOL0     H20217  -1.177   2.051   6.963 -2.0341 -3.5978 -0.2690
  911MOL0     H20218  -1.305   1.958   6.588 -0.0474 -2.3733  2.0404
  911MOL0     H20219  -1.416   2.098   6.579  0.5199  0.1648 -0.4943
  911MOL0     H20220  -1.555   1.964   6.736  1.0469 -0.0487  0.9912
  911MOL0     H20221  -1.452   1.820   6.716 -0.3956  0.1065  1.7043
  911MOL0     H20222  -1.499   1.811   6.464 -1.7913 -2.2273 -0.4854
  911MOL0     H20223  -1.593   1.946   6.479  0.5266 -0.5318 -1.0750
  911MOL0     H20224  -1.662   1.689   6.645  0.2758 -0.8158 -1.7335
  911MOL0     H20225  -1.756   1.839   6.634 -1.5175 -2.7271 -0.2580
  911MOL0     H20226  -1.706   1.628   6.426 -2.7543 -1.8514  1.4754
  911MOL0     H20227  -1.714   1.786   6.360  0.4250 -1.0338 -0.4561
  911MOL0     H20228  -1.923   1.672   6.361  1.2463  1.0388 -0.5648
  911MOL0     H20229  -1.948   1.791   6.494 -0.3297  0.0032 -1.0549
  911MOL0     H20230  -1.839   1.531   6.574 -1.0558 -2.2145 -0.0683
  911MOL0     H20231  -1.930   1.650   6.674 -2.4641 -1.3349  0.4995
  911MOL0     H20232  -2.058   1.432   6.614 -1.1361 -2.3038 -1.0806
  911MOL0     H20233  -2.054   1.457   6.447 -2.7538  0.2850 -0.0674
  911MOL0     H20234  -1.161   2.134   6.548 -4.7260 -2.6669  2.1614
  911MOL0     H20235  -0.925   2.211   6.570  1.1779  3.0160  0.8407
  911MOL0     H20236  -0.439   2.101   6.997 -1.7087  1.5917  3.2481
  911MOL0     H20237  -0.230   2.224   6.970 -1.5466 -0.6331  2.6398
  911MOL0     H20238   1.490   2.814   6.847  1.7492  0.2461 -0.5681
  911MOL0     H20239   1.626   2.958   6.990  0.9600 -3.8038 -1.0231
  911MOL0     H20240   1.602   3.248   7.331  0.3967 -0.8270 -0.7738
  911MOL0     H20241   1.745   3.458   7.371 -0.3180 -1.4554  0.7187
  911MOL0     H20242   2.179   3.400   7.448 -1.0667  0.5559  0.5879
  911MOL0     H20243   2.173   3.569   7.419  0.9153  0.5998 -2.8427
  911MOL0     H20244   2.130   3.397   7.161 -1.3395 -2.7329  2.3242
  911MOL0     H20245   2.220   3.545   7.188 -0.8683 -1.4242 -4.9162
  911MOL0     H20246   2.310   3.259   7.265 -1.4269  0.8635  2.6131
  911MOL0     H20247   2.394   3.419   7.296 -0.0319 -0.6663 -0.0571
  911MOL0     H20248   2.337   3.297   7.013  1.7927 -0.7967 -0.6505
  911MOL0     H20249   2.395   3.447   7.039  0.8020  1.8445  1.8855
  911MOL0     H20250   2.745   3.208   7.095 -0.1026  0.9355 -2.3090
  911MOL0     H20251   2.102   3.212   7.308  0.2857 -2.0129  0.0422
  911MOL0     H20252   1.958   3.024   7.296 -0.2331  0.6835 -1.8457
  912MOL0     O20253   3.166  10.043   9.592 -0.9245 -0.3009  0.3923
  912MOL0     C20254   3.064   9.993   9.543 -0.8357  0.6822  0.0008
  912MOL0     O20255   2.938  10.007   9.589  0.5907 -0.0206  0.3973
  912MOL0     C20256   2.919  10.074   9.705  0.5505 -0.0416  0.6392
  912MOL0     C20257   2.992  10.067   9.825 -0.2517 -0.4064 -1.0490
  912MOL0     C20258   2.952  10.135   9.932  0.1536  0.0990 -0.4761
  912MOL0     C20259   2.854  10.240   9.919  0.4133  0.5006  0.0735
  912MOL0     O20260   2.825  10.330  10.016 -0.1755  0.0934 -0.6323
  912MOL0     C20261   2.812  10.476   9.983 -0.7571  0.5966 -0.6829
  912MOL0     C20262   2.732  10.542  10.095 -0.6607  0.2708  0.1380
  912MOL0     C20263   2.792  10.524  10.232  0.5302  0.2782 -0.4407
  912MOL0     C20264   2.720  10.591  10.352  1.1023 -0.3279 -0.8474
  912MOL0     C20265   2.793  10.724  10.387  0.2672  0.4125  0.5015
  912MOL0     C20266   2.744  10.759  10.528  0.1381 -0.0726  0.6899
  912MOL0     C20267   2.830  10.875  10.590 -1.0887  0.0259  0.3272
  912MOL0     C20268   2.773  10.925  10.723  0.9235 -0.4437 -1.4783
  912MOL0     N20269   2.776  10.831  10.831  0.3709  0.1899  0.1703
  912MOL0     C20270   2.683  10.725  10.849 -0.0979  0.3225 -0.9694
  912MOL0     C20271   2.744  10.655  10.947  0.0962  0.6460 -0.1370
  912MOL0     C20272   2.681  10.540  10.996  0.1525 -0.2559 -0.7797
  912MOL0     C20273   2.772  10.418  11.000 -0.1549 -0.0085  0.4467
  912MOL0     C20274   2.690  10.303  11.040  0.6136  0.0603 -0.1581
  912MOL0     C20275   2.768  10.179  11.071  0.5383 -0.4049  0.4782
  912MOL0     O20276   2.675  10.067  11.080 -0.1710  0.1681  0.3052
  912MOL0     C20277   2.717   9.958  11.005  0.0293  0.0660  0.5565
  912MOL0     C20278   2.735   9.972  10.872  0.7654  0.0823  0.6571
  912MOL0     C20279   2.743   9.857  10.794 -0.4408  0.6033  0.4237
  912MOL0     C20280   2.738   9.725  10.856  0.1824  0.3210 -0.8999
  912MOL0     C20281   2.764   9.606  10.775  0.7124 -0.1195 -0.6080
  912MOL0     O20282   2.698   9.594  10.658 -0.7437 -0.1542  0.3090
  912MOL0     C20283   2.723   9.486  10.575 -0.8040  1.0303 -0.3742
  912MOL0     C20284   2.739   9.348  10.623 -0.6305 -0.2791  0.3352
  912MOL0     C20285   2.752   9.243  10.535  0.0321 -0.8247  1.6808
  912MOL0     C20286   2.756   9.273  10.395  0.3233 -0.1305 -0.3909
  912MOL0     O20287   2.764   9.174  10.305 -0.2484 -0.1192  0.2732
  912MOL0     C20288   2.894   9.130  10.280 -0.5832  0.3917  0.0689
  912MOL0     C20289   2.906   8.999  10.202  0.6690 -0.2523 -0.4162
  912MOL0     C20290   3.022   8.981  10.108  0.5168 -0.2457  0.0761
  912MOL0     C20291   3.145   8.968  10.184 -0.6685 -1.5298 -0.0723
  912MOL0     C20292   3.268   8.957  10.090  0.3802  0.7572 -0.4573
  912MOL0     C20293   3.390   8.968  10.172  0.0327  0.2674  0.2115
  912MOL0     C20294   3.424   9.101  10.241  0.2150  0.0291 -0.1125
  912MOL0     C20295   3.561   9.097  10.298 -0.3904 -0.3937 -1.0001
  912MOL0    Cl20296   3.606   9.261  10.366  0.0090  0.1619 -0.1186
  912MOL0     C20297   2.757   9.404  10.348  0.5394 -0.1806  0.8285
  912MOL0     C20298   2.725   9.503  10.442 -0.1670 -0.1122 -0.0783
  912MOL0     O20299   2.836   9.518  10.825  0.3322 -0.4957  0.1123
  912MOL0     C20300   2.735   9.715  10.997  0.4571 -0.4706  0.0443
  912MOL0     C20301   2.721   9.836  11.068 -0.5489  0.3867  0.0886
  912MOL0     N20302   2.864  10.710  10.983 -0.0129 -0.1604  0.9342
  912MOL0     N20303   2.880  10.820  10.923  0.0782  0.3263 -0.4632
  912MOL0     C20304   2.787  10.254   9.800 -0.6490 -1.0268  0.5853
  912MOL0     C20305   2.819  10.171   9.699  0.7474 -0.5296  0.0518
  912MOL0     C20306   3.068   9.911   9.428 -0.3247 -0.6259 -0.4654
  912MOL0     C20307   2.946   9.879   9.370  0.4505  0.2403  0.3306
  912MOL0     C20308   2.931   9.815   9.245  0.1718  0.2252 -0.2316
  912MOL0     C20309   3.035   9.752   9.190 -0.0604 -0.0438 -0.3056
  912MOL0     O20310   3.023   9.677   9.079  0.5360  0.3163  1.2052
  912MOL0     C20311   3.000   9.746   8.956  0.5822  0.2023 -0.7052
  912MOL0     C20312   2.937   9.653   8.852  0.5321 -0.1317 -1.2010
  912MOL0     C20313   2.787   9.620   8.892 -0.2660 -0.0041 -0.2023
  912MOL0     C20314   2.707   9.565   8.781 -0.1125 -0.2649 -0.0797
  912MOL0     C20315   2.687   9.669   8.677  0.3463  0.0898  0.0242
  912MOL0     C20316   2.648   9.760   8.607  0.0702 -0.6032 -0.1526
  912MOL0     C20317   3.160   9.773   9.249 -0.1019  0.3224  0.6588
  912MOL0     C20318   3.179   9.855   9.363 -0.2158  0.1162 -0.1895
  912MOL0     H20319   3.065   9.988   9.840  2.7454  2.4181  0.9440
  912MOL0     H20320   2.988  10.115  10.032 -2.5216  3.4897  1.3775
  912MOL0     H20321   2.759  10.484   9.888 -3.1255 -4.1968 -0.0702
  912MOL0     H20322   2.916  10.507   9.967  0.1336 -1.1864  1.0609
  912MOL0     H20323   2.628  10.508  10.101 -2.0034  4.0942  2.1370
  912MOL0     H20324   2.732  10.649  10.077  0.8758  0.1062 -0.9731
  912MOL0     H20325   2.897  10.553  10.245  0.5742 -0.4178  0.8635
  912MOL0     H20326   2.795  10.416  10.244 -0.9127  0.4947  2.7020
  912MOL0     H20327   2.616  10.616  10.329  0.7726  0.1832  1.0203
  912MOL0     H20328   2.718  10.524  10.439 -1.0313 -1.9179 -2.0533
  912MOL0     H20329   2.767  10.799  10.312  1.5219 -0.7100 -1.1184
  912MOL0     H20330   2.902  10.714  10.393  0.0859 -1.6104  0.9366
  912MOL0     H20331   2.751  10.669  10.589 -0.2416 -2.1967 -2.2068
  912MOL0     H20332   2.639  10.790  10.525  0.1018 -0.1761 -1.9717
  912MOL0     H20333   2.938  10.863  10.588 -0.8869  1.6141 -1.9543
  912MOL0     H20334   2.820  10.954  10.516 -3.1883  1.3359  1.8775
  912MOL0     H20335   2.669  10.955  10.711  1.4234  0.9573 -2.5700
  912MOL0     H20336   2.824  11.017  10.754 -0.7032 -0.5832  2.2297
  912MOL0     H20337   2.592  10.700  10.795 -0.8751 -2.5220  1.3581
  912MOL0     H20338   2.597  10.509  10.933 -1.2814  1.5101  0.1607
  912MOL0     H20339   2.641  10.572  11.093 -1.3396  0.5973 -1.6438
  912MOL0     H20340   2.857  10.434  11.068  1.1544 -2.8078 -0.3492
  912MOL0     H20341   2.809  10.389  10.901  1.1534 -0.0052  0.9138
  912MOL0     H20342   2.636  10.323  11.133  1.1879  1.5664 -0.1262
  912MOL0     H20343   2.610  10.278  10.970  2.2367 -0.4157 -1.9226
  912MOL0     H20344   2.809  10.185  11.172  0.7190  4.5746  0.3190
  912MOL0     H20345   2.849  10.171  10.998 -0.1510  0.7065 -0.4420
  912MOL0     H20346   2.741  10.074  10.835  3.0189 -0.3691 -0.4134
  912MOL0     H20347   2.762   9.876  10.689  1.7579 -1.9497  0.2460
  912MOL0     H20348   2.733   9.317  10.726 -2.4773 -1.3971 -0.0667
  912MOL0     H20349   2.760   9.139  10.565 -0.1726 -2.3615 -2.9378
  912MOL0     H20350   2.953   9.123  10.372  0.4948  3.7482 -0.2281
  912MOL0     H20351   2.955   9.201  10.224  1.7510 -1.5980 -0.0567
  912MOL0     H20352   2.809   8.997  10.151  1.1051 -1.5809 -1.2240
  912MOL0     H20353   2.898   8.916  10.272  2.8052  1.0190  1.4939
  912MOL0     H20354   3.023   9.079  10.060  3.1809 -0.7756 -1.1273
  912MOL0     H20355   2.990   8.906  10.036 -2.4773  1.4489 -0.5320
  912MOL0     H20356   3.159   9.057  10.246 -1.8113  0.4439 -2.4437
  912MOL0     H20357   3.148   8.887  10.257  3.8266  0.5152  2.4243
  912MOL0     H20358   3.277   9.030  10.009  0.8599  0.8729 -0.3022
  912MOL0     H20359   3.263   8.857  10.045 -3.9808  1.9037 -3.0738
  912MOL0     H20360   3.459   8.944  10.091 -2.0520  1.6331 -2.1054
  912MOL0     H20361   3.399   8.886  10.244 -1.8032 -0.7795 -0.6916
  912MOL0     H20362   3.428   9.179  10.164  0.5484 -0.1491 -0.2774
  912MOL0     H20363   3.348   9.117  10.318 -1.1534 -2.7605 -0.7805
  912MOL0     H20364   3.619   9.072  10.209 -1.2740  0.0919 -1.7357
  912MOL0     H20365   3.575   9.025  10.379 -0.0447 -0.6190 -1.2592
  912MOL0     H20366   2.763   9.417  10.241  1.4614 -2.4835  0.5427
  912MOL0     H20367   2.688   9.603  10.420 -2.5035 -0.9310 -0.0627
  912MOL0     H20368   2.741   9.613  11.034 -0.5417 -2.0674 -3.7682
  912MOL0     H20369   2.712   9.843  11.176 -0.0683 -0.1575  0.1684
  912MOL0     H20370   2.706  10.321   9.770 -1.1051 -1.8868 -0.1418
  912MOL0     H20371   2.763  10.175   9.605  1.4577  1.4644 -0.3251
  912MOL0     H20372   2.854   9.926   9.405  2.1762  1.9858  2.8407
  912MOL0     H20373   2.834   9.810   9.197  0.2367 -0.7034 -0.2693
  912MOL0     H20374   3.096   9.785   8.920  1.9649  0.1378  2.5418
  912MOL0     H20375   2.932   9.831   8.967 -1.5685 -1.2663 -1.9193
  912MOL0     H20376   2.944   9.703   8.755  0.0076  0.5941 -0.8763
  912MOL0     H20377   3.003   9.567   8.840  1.5845  0.5380 -0.4352
  912MOL0     H20378   2.726   9.705   8.923 -2.6200 -0.1015 -3.9045
  912MOL0     H20379   2.794   9.542   8.968  0.6924 -0.9762 -1.2354
  912MOL0     H20380   2.751   9.475   8.738  1.6585  1.1178 -1.3178
  912MOL0     H20381   2.614   9.518   8.814 -0.5602 -1.6288 -3.0171
  912MOL0     H20382   2.609   9.843   8.552 -0.7493  1.5114  3.3237
  912MOL0     H20383   3.245   9.720   9.207  1.3411  4.2863 -2.0387
  912MOL0     H20384   3.274   9.891   9.402 -1.3950  4.2272 -0.6874
  913MOL0     O20385   2.074   9.156   1.872  0.0817  0.2949 -0.9685
  913MOL0     C20386   2.052   9.205   1.989 -0.9994 -0.6382 -0.3724
  913MOL0     O20387   1.985   9.316   2.012 -0.1707  0.0241  0.2753
  913MOL0     C20388   1.898   9.364   1.911 -0.0103 -0.8567  0.8445
  913MOL0     C20389   1.768   9.390   1.948  0.1504 -0.7859 -0.2853
  913MOL0     C20390   1.672   9.447   1.853 -0.6561  0.3091 -0.7609
  913MOL0     C20391   1.722   9.466   1.720  0.1700 -0.5030  0.6811
  913MOL0     O20392   1.633   9.507   1.626  0.4105 -0.4259  0.2602
  913MOL0     C20393   1.553   9.408   1.568 -0.5031 -0.5679  0.3015
  913MOL0     C20394   1.528   9.471   1.428 -0.0531  0.3278  0.8823
  913MOL0     C20395   1.467   9.362   1.344  0.4801 -0.7281 -0.0233
  913MOL0     C20396   1.491   9.391   1.196 -0.6954 -0.0984 -0.5783
  913MOL0     C20397   1.631   9.337   1.152  0.4040 -0.0473 -0.8807
  913MOL0     C20398   1.634   9.290   1.008  0.4690  0.5604 -0.4441
  913MOL0     C20399   1.774   9.292   0.944  0.4178  0.8652  0.6730
  913MOL0     C20400   1.877   9.185   1.007 -0.3938 -0.3900 -0.0150
  913MOL0     N20401   2.004   9.181   0.940  0.3527  0.3929 -0.6948
  913MOL0     C20402   2.073   9.298   0.912 -0.5575  0.5883  0.2971
  913MOL0     C20403   2.195   9.255   0.863  0.0526 -0.0936  0.1054
  913MOL0     C20404   2.301   9.358   0.815 -0.1521  0.4148 -0.4804
  913MOL0     C20405   2.439   9.355   0.879 -0.3747  0.0111 -0.1320
  913MOL0     C20406   2.433   9.360   1.030 -0.5536 -1.0442 -0.5394
  913MOL0     C20407   2.561   9.318   1.089 -0.3250 -0.1932 -0.0179
  913MOL0     O20408   2.556   9.355   1.223  0.1157  0.4920 -0.5310
  913MOL0     C20409   2.647   9.302   1.305 -0.3222  1.0462  0.5855
  913MOL0     C20410   2.638   9.338   1.437  0.1842  0.1484  0.6237
  913MOL0     C20411   2.725   9.286   1.531  0.2667 -0.3162 -1.2154
  913MOL0     C20412   2.832   9.206   1.496 -0.7531  1.1450  0.4215
  913MOL0     C20413   2.938   9.184   1.599  0.3937  0.2239  0.1844
  913MOL0     O20414   2.911   9.214   1.728  0.0270  0.3536 -0.3940
  913MOL0     C20415   2.995   9.155   1.828  0.0575 -1.1329  1.3767
  913MOL0     C20416   3.011   9.022   1.846 -0.1916  0.1528  0.1904
  913MOL0     C20417   3.093   8.975   1.954  0.1226  0.2898 -0.0111
  913MOL0     C20418   3.171   9.067   2.034 -0.2961  0.2772  0.0442
  913MOL0     O20419   3.260   9.024   2.128 -1.0939  0.4287  0.2132
  913MOL0     C20420   3.205   9.018   2.260  0.3716 -0.1322  0.3053
  913MOL0     C20421   3.238   8.893   2.335 -0.4119  0.2170  0.6945
  913MOL0     C20422   3.219   8.918   2.484  0.3142 -0.2330 -0.3704
  913MOL0     C20423   3.305   8.818   2.563  0.3596 -0.3185  0.2198
  913MOL0     C20424   3.216   8.701   2.616 -0.7845  1.3979  0.6044
  913MOL0     C20425   3.291   8.571   2.600 -0.1887 -0.4149 -0.0317
  913MOL0     C20426   3.290   8.531   2.454  0.4865  0.1278  0.0101
  913MOL0     C20427   3.148   8.473   2.411 -0.1181  0.6851 -0.0552
  913MOL0    Cl20428   3.113   8.325   2.502  0.1744 -0.0721 -0.4438
  913MOL0     C20429   3.144   9.200   2.014  0.8239 -0.4728 -0.6887
  913MOL0     C20430   3.054   9.241   1.915  0.0601  0.6219  0.8556
  913MOL0     O20431   3.046   9.147   1.560 -0.3213  0.0130 -0.0640
  913MOL0     C20432   2.846   9.154   1.356  0.0563 -0.1865  0.1242
  913MOL0     C20433   2.759   9.221   1.259  0.5741  0.3175  0.2154
  913MOL0     N20434   2.202   9.114   0.885  0.8820  0.5580 -0.7040
  913MOL0     N20435   2.089   9.076   0.931 -0.2919  0.2795 -0.3580
  913MOL0     C20436   1.848   9.440   1.684  0.5802  0.1663 -0.5709
  913MOL0     C20437   1.943   9.398   1.777 -0.0936  0.1026  0.7400
  913MOL0     C20438   2.090   9.122   2.100 -0.3664 -0.6140 -0.3782
  913MOL0     C20439   2.197   9.040   2.082 -0.0965  0.0914 -0.9556
  913MOL0     C20440   2.253   8.966   2.187  0.5005  0.1181  0.7421
  913MOL0     C20441   2.197   8.989   2.317 -0.3663  0.0925 -0.5027
  913MOL0     O20442   2.254   8.928   2.432 -0.3319 -0.3056 -0.1430
  913MOL0     C20443   2.290   8.793   2.439  0.1055  0.7597  0.8088
  913MOL0     C20444   2.186   8.707   2.515  0.0109 -0.0993 -0.7034
  913MOL0     C20445   2.039   8.707   2.455  0.1023 -0.0954 -0.3279
  913MOL0     C20446   2.008   8.565   2.397  0.8180  0.0460 -0.2918
  913MOL0     C20447   2.110   8.507   2.305 -0.7582  1.1686  0.0669
  913MOL0     C20448   2.196   8.454   2.233  0.6111 -0.9564 -0.3241
  913MOL0     C20449   2.090   9.077   2.337  0.0047  1.1045 -0.6741
  913MOL0     C20450   2.035   9.143   2.233 -0.6876 -0.6627  0.6571
  913MOL0     H20451   1.734   9.367   2.049 -1.3843  1.0005 -0.3465
  913MOL0     H20452   1.573   9.478   1.884  0.0911  0.5744  1.5618
  913MOL0     H20453   1.462   9.404   1.628 -2.4372  4.6641 -1.6943
  913MOL0     H20454   1.611   9.315   1.557 -1.5413 -1.0708 -1.3879
  913MOL0     H20455   1.625   9.506   1.392  0.5618 -0.1042  2.0602
  913MOL0     H20456   1.467   9.561   1.431 -0.5125  0.0380  0.3877
  913MOL0     H20457   1.359   9.348   1.346  0.6107 -1.7476  1.4075
  913MOL0     H20458   1.514   9.265   1.364  1.3036 -0.7879 -1.9715
  913MOL0     H20459   1.410   9.367   1.127  1.3337 -0.7662 -2.8656
  913MOL0     H20460   1.502   9.498   1.175  2.1492  0.3764  2.5243
  913MOL0     H20461   1.677   9.254   1.208 -3.5338 -3.7627 -2.5774
  913MOL0     H20462   1.697   9.422   1.169  0.7469 -0.6165  0.8732
  913MOL0     H20463   1.577   9.355   0.941 -0.4652 -0.9069 -1.1266
  913MOL0     H20464   1.600   9.188   0.986  1.0788 -0.3105  2.2650
  913MOL0     H20465   1.765   9.274   0.837 -0.5518  2.5370  0.4414
  913MOL0     H20466   1.808   9.396   0.954  2.6259  0.6220 -2.6590
  913MOL0     H20467   1.835   9.084   1.003 -2.4893  0.3275  1.8488
  913MOL0     H20468   1.895   9.201   1.113 -2.8555  0.9379  0.2693
  913MOL0     H20469   2.053   9.403   0.927  3.6002  1.4577  1.0549
  913MOL0     H20470   2.255   9.452   0.847 -0.4299 -0.2412  1.1491
  913MOL0     H20471   2.326   9.362   0.709  0.8994  0.8469 -0.2261
  913MOL0     H20472   2.491   9.443   0.842  0.0687 -0.8701 -1.6875
  913MOL0     H20473   2.496   9.267   0.847  0.3936  0.6489 -0.5296
  913MOL0     H20474   2.419   9.464   1.061  0.6781 -0.6210 -1.3558
  913MOL0     H20475   2.348   9.301   1.068 -2.0103  0.9023 -0.6432
  913MOL0     H20476   2.645   9.368   1.039 -0.6970  0.7565  0.2866
  913MOL0     H20477   2.575   9.210   1.079 -0.6927 -0.2516  0.0911
  913MOL0     H20478   2.571   9.421   1.459  1.3410  1.2370  0.1397
  913MOL0     H20479   2.710   9.338   1.625 -1.2328  1.3047 -2.2875
  913MOL0     H20480   2.953   8.959   1.779 -1.9459  0.0631  1.7105
  913MOL0     H20481   3.101   8.866   1.953 -2.1721  0.0627 -1.1474
  913MOL0     H20482   3.097   9.034   2.247  0.5727 -0.0002 -1.4612
  913MOL0     H20483   3.244   9.112   2.301  1.2005  0.9815 -2.7221
  913MOL0     H20484   3.344   8.879   2.314 -0.9082 -1.1129 -1.1529
  913MOL0     H20485   3.183   8.802   2.313  0.8762 -1.2926  3.2756
  913MOL0     H20486   3.113   8.934   2.507  0.1197  2.4073 -2.6224
  913MOL0     H20487   3.268   9.012   2.511  1.2528  0.2077 -3.2474
  913MOL0     H20488   3.387   8.779   2.501  1.7261  1.6288  0.7202
  913MOL0     H20489   3.344   8.877   2.647  0.5277 -0.9305  0.5828
  913MOL0     H20490   3.124   8.700   2.556  0.3568  1.2019 -1.2253
  913MOL0     H20491   3.186   8.720   2.719 -0.3054 -3.3482  1.8501
  913MOL0     H20492   3.235   8.498   2.659 -1.5337  1.3339  0.9752
  913MOL0     H20493   3.393   8.588   2.635  0.2613  3.0636 -2.5415
  913MOL0     H20494   3.312   8.616   2.388 -1.6405  0.8746  0.1832
  913MOL0     H20495   3.374   8.464   2.435 -0.9282 -1.5241 -0.7206
  913MOL0     H20496   3.140   8.456   2.303 -2.0010  0.4572  0.0870
  913MOL0     H20497   3.061   8.537   2.432 -0.0064  1.6236 -2.1972
  913MOL0     H20498   3.188   9.281   2.071  0.8658  0.8529 -2.5166
  913MOL0     H20499   3.041   9.348   1.902 -0.5701  0.3327 -1.5518
  913MOL0     H20500   2.929   9.094   1.321  2.0832  1.7551  1.2973
  913MOL0     H20501   2.779   9.183   1.160 -1.2820 -0.4009  0.0761
  913MOL0     H20502   1.881   9.464   1.583  2.0084  0.5073 -0.0525
  913MOL0     H20503   2.042   9.384   1.734  0.5946  1.4641  1.8044
  913MOL0     H20504   2.244   9.037   1.984 -0.1519  1.1019 -1.0170
  913MOL0     H20505   2.342   8.905   2.177  0.3961  0.3613 -4.3829
  913MOL0     H20506   2.377   8.797   2.505 -1.3386  1.8523  2.7412
  913MOL0     H20507   2.320   8.748   2.344  2.2700 -0.2453  1.8760
  913MOL0     H20508   2.222   8.605   2.530 -1.8730 -0.5869  0.8594
  913MOL0     H20509   2.167   8.740   2.617 -0.0382 -1.8065 -0.1428
  913MOL0     H20510   2.035   8.781   2.374  2.5859 -1.9077 -2.3065
  913MOL0     H20511   1.957   8.728   2.523  0.5862 -0.6742  0.4495
  913MOL0     H20512   1.991   8.498   2.481 -3.1372  1.6302  0.3985
  913MOL0     H20513   1.907   8.569   2.355 -0.2358 -2.5397  1.7283
  913MOL0     H20514   2.279   8.407   2.184 -0.6727 -3.9896  0.1317
  913MOL0     H20515   2.055   9.084   2.440  0.3785 -0.6608 -0.3877
  913MOL0     H20516   1.944   9.198   2.255  0.7499  1.9287  0.4464
  914MOL0     O20517   9.631   4.190   5.629 -0.2139 -0.6126 -0.2559
  914MOL0     C20518   9.747   4.237   5.599 -0.5341  0.3027 -0.1242
  914MOL0     O20519   9.871   4.219   5.679  0.0490  0.9519  1.1527
  914MOL0     C20520   9.856   4.138   5.783 -0.5205  0.0317  0.0188
  914MOL0     C20521   9.923   4.023   5.775  1.4094  0.0344  0.2777
  914MOL0     C20522   9.929   3.934   5.876 -0.6250  0.7638 -0.4582
  914MOL0     C20523   9.867   3.960   6.000  0.2024  0.0974  0.4171
  914MOL0     O20524   9.860   3.882   6.120 -0.2435 -0.1152  0.1395
  914MOL0     C20525   9.939   3.766   6.124 -0.1523  0.1833 -0.2753
  914MOL0     C20526  10.087   3.779   6.143 -0.0479 -0.1373 -0.3355
  914MOL0     C20527  10.148   3.662   6.223  0.7489  0.4803  1.4834
  914MOL0     C20528  10.305   3.674   6.217  0.6252 -0.3572 -0.1812
  914MOL0     C20529  10.357   3.554   6.294 -0.3729 -0.3449 -0.0831
  914MOL0     C20530  10.504   3.557   6.319  0.1013  0.2513 -0.1470
  914MOL0     C20531  10.566   3.416   6.320 -0.3595  0.8185  0.5121
  914MOL0     C20532  10.719   3.426   6.326 -1.0813 -0.3628 -0.4260
  914MOL0     N20533  10.774   3.296   6.351 -0.5264  0.0040 -0.2152
  914MOL0     C20534  10.853   3.219   6.278 -0.3763 -0.3046 -0.5418
  914MOL0     C20535  10.875   3.117   6.352 -0.2395 -0.7815  0.4640
  914MOL0     C20536  10.952   3.000   6.295  0.5663 -0.1818  0.3854
  914MOL0     C20537  11.084   3.037   6.222 -1.0145 -0.7168 -0.3970
  914MOL0     C20538  11.182   3.124   6.315  0.1096  0.4521 -0.2118
  914MOL0     C20539  11.326   3.112   6.254 -0.7512  0.6527  0.5609
  914MOL0     O20540  11.417   3.127   6.368 -0.1577  0.7088  0.3123
  914MOL0     C20541  11.443   3.251   6.401 -0.0713 -0.0460  0.3231
  914MOL0     C20542  11.460   3.370   6.315 -0.6502 -0.5046 -0.1576
  914MOL0     C20543  11.506   3.493   6.371 -0.0353  0.1098  0.3564
  914MOL0     C20544  11.545   3.500   6.509 -0.4993  1.3200  0.0306
  914MOL0     C20545  11.620   3.613   6.562  0.3091 -0.1761  0.2066
  914MOL0     O20546  11.705   3.590   6.668  1.3079 -0.4187 -0.0063
  914MOL0     C20547  11.784   3.698   6.704  0.0137 -0.6666  0.1547
  914MOL0     C20548  11.755   3.792   6.806 -0.0316 -0.0411 -0.7409
  914MOL0     C20549  11.837   3.907   6.813 -0.4105 -0.1229  0.0382
  914MOL0     C20550  11.953   3.933   6.734 -0.4161  0.0714  0.7009
  914MOL0     O20551  12.047   4.034   6.758  0.1169  0.1273  0.4701
  914MOL0     C20552  12.003   4.140   6.847  0.3997  1.0543  0.4506
  914MOL0     C20553  12.134   4.220   6.863  1.1388 -0.2766 -0.4173
  914MOL0     C20554  12.159   4.315   6.752 -0.2257 -0.4054 -0.3320
  914MOL0     C20555  12.313   4.346   6.754 -0.3189 -0.4390 -0.3062
  914MOL0     C20556  12.356   4.477   6.693 -0.5709  0.4714  0.9753
  914MOL0     C20557  12.347   4.453   6.545 -0.0513 -0.4951  0.1140
  914MOL0     C20558  12.385   4.580   6.467 -0.1631 -0.1288  0.1754
  914MOL0     C20559  12.270   4.681   6.471 -0.1990  0.1278  0.8986
  914MOL0    Cl20560  12.138   4.601   6.383  0.5802  0.2333  1.0608
  914MOL0     C20561  11.978   3.842   6.634 -0.0274  0.0474  0.6718
  914MOL0     C20562  11.898   3.726   6.616 -0.1115  0.3999 -0.7055
  914MOL0     O20563  11.597   3.721   6.511 -0.2820 -0.4191  0.2679
  914MOL0     C20564  11.520   3.388   6.594 -0.1936  0.0717  0.2542
  914MOL0     C20565  11.465   3.266   6.543  0.4792  0.2682  0.3266
  914MOL0     N20566  10.814   3.123   6.475  0.0221 -0.5757  0.3561
  914MOL0     N20567  10.751   3.231   6.468  0.3338  0.2416 -0.7139
  914MOL0     C20568   9.794   4.083   6.015 -0.2506 -0.7145 -0.1292
  914MOL0     C20569   9.792   4.178   5.905  0.8235  0.8506  1.1700
  914MOL0     C20570   9.752   4.325   5.466 -0.2951  0.8012 -0.1136
  914MOL0     C20571   9.876   4.355   5.416 -0.7802 -0.6526 -0.3304
  914MOL0     C20572   9.895   4.426   5.296  0.2641  0.1682 -0.9483
  914MOL0     C20573   9.772   4.482   5.233 -0.9265  0.2311 -1.1309
  914MOL0     O20574   9.769   4.557   5.118 -0.1068 -0.1483  0.6103
  914MOL0     C20575   9.897   4.579   5.068 -0.9113 -0.2469 -0.4642
  914MOL0     C20576   9.900   4.656   4.933 -0.8623 -0.0993 -0.2939
  914MOL0     C20577   9.852   4.800   4.956  0.1228  0.0015 -0.8571
  914MOL0     C20578   9.855   4.888   4.831 -0.2612  0.2819  0.5315
  914MOL0     C20579   9.813   5.025   4.847 -0.4746  0.1114 -1.2694
  914MOL0     C20580   9.774   5.144   4.848  0.1168 -0.4814 -0.0285
  914MOL0     C20581   9.649   4.439   5.283 -0.8030 -1.0310  0.5927
  914MOL0     C20582   9.640   4.368   5.398  0.9560  0.8552 -1.1442
  914MOL0     H20583   9.981   4.002   5.686  1.4601  0.3807  0.2245
  914MOL0     H20584   9.981   3.840   5.871  3.3866  2.6432  1.4829
  914MOL0     H20585   9.901   3.702   6.044 -2.9722 -1.0561  1.8989
  914MOL0     H20586   9.906   3.719   6.217  1.9299 -0.7209  0.0613
  914MOL0     H20587  10.112   3.874   6.191 -0.0726  1.0551 -2.5863
  914MOL0     H20588  10.145   3.768   6.051 -0.5688 -0.6080 -0.6129
  914MOL0     H20589  10.114   3.564   6.187  0.5819  0.4828  1.6339
  914MOL0     H20590  10.105   3.658   6.323 -1.9924  2.2203  0.4842
  914MOL0     H20591  10.350   3.674   6.118  0.1696  0.4461 -0.4001
  914MOL0     H20592  10.316   3.768   6.271 -4.0254 -0.8531  2.1721
  914MOL0     H20593  10.337   3.466   6.231 -0.8681  1.1115 -2.0896
  914MOL0     H20594  10.296   3.545   6.384 -1.4361 -0.4937 -0.8051
  914MOL0     H20595  10.532   3.597   6.416  1.2156 -3.1114  1.0543
  914MOL0     H20596  10.556   3.608   6.237  1.3678 -1.1088 -0.2330
  914MOL0     H20597  10.530   3.350   6.400 -2.7233 -2.4128 -2.8881
  914MOL0     H20598  10.538   3.363   6.229 -2.6357  0.5306  1.3081
  914MOL0     H20599  10.742   3.485   6.415  2.0626  0.6836 -1.7872
  914MOL0     H20600  10.766   3.484   6.246 -1.4420  0.6415  0.0649
  914MOL0     H20601  10.883   3.238   6.175  0.3431  1.0698 -0.1023
  914MOL0     H20602  10.895   2.949   6.217  2.5750 -2.7319  0.4373
  914MOL0     H20603  10.975   2.930   6.376  0.6565 -1.5644 -0.8116
  914MOL0     H20604  11.061   3.088   6.128  0.8982 -2.8588 -2.1439
  914MOL0     H20605  11.135   2.944   6.197 -0.2199 -0.2309 -0.6213
  914MOL0     H20606  11.152   3.229   6.314  3.2509  1.4465  0.5893
  914MOL0     H20607  11.165   3.101   6.421  0.3522 -1.7972 -0.6098
  914MOL0     H20608  11.336   3.186   6.175  0.0152  0.1610  0.1910
  914MOL0     H20609  11.353   3.018   6.205  2.1290  1.9574 -0.5804
  914MOL0     H20610  11.434   3.373   6.210  0.1068  1.7001 -0.3557
  914MOL0     H20611  11.510   3.581   6.308  0.4606 -0.7560 -0.8482
  914MOL0     H20612  11.689   3.765   6.887  1.5529  0.6434  0.8462
  914MOL0     H20613  11.825   3.968   6.902 -1.8964  2.8188 -2.0177
  914MOL0     H20614  11.977   4.093   6.942 -1.9322 -4.0401 -2.3176
  914MOL0     H20615  11.912   4.186   6.806 -2.1451 -1.7966  2.4582
  914MOL0     H20616  12.221   4.155   6.863  1.5568  0.2781 -0.4334
  914MOL0     H20617  12.124   4.274   6.957 -0.2564  0.2885 -0.8547
  914MOL0     H20618  12.106   4.410   6.769 -2.5576 -1.7248  0.2033
  914MOL0     H20619  12.122   4.273   6.658  0.4652  0.5974 -1.0689
  914MOL0     H20620  12.347   4.358   6.857 -2.1492  0.9411  0.2027
  914MOL0     H20621  12.367   4.259   6.716  0.1220 -0.0706 -0.5231
  914MOL0     H20622  12.462   4.498   6.711 -0.2918  0.7605 -0.7665
  914MOL0     H20623  12.287   4.551   6.734 -3.6829  0.8532 -4.1074
  914MOL0     H20624  12.250   4.407   6.524 -0.5667  0.3889  0.4760
  914MOL0     H20625  12.434   4.394   6.514  1.2805  1.9396 -1.0585
  914MOL0     H20626  12.475   4.624   6.510 -0.9755  1.7706  0.0180
  914MOL0     H20627  12.403   4.560   6.361  2.2584 -0.2122  0.5492
  914MOL0     H20628  12.298   4.772   6.418  1.2331 -0.8638 -0.1167
  914MOL0     H20629  12.242   4.715   6.571 -3.2149 -1.4690  0.7415
  914MOL0     H20630  12.057   3.865   6.563 -0.5616 -0.3225 -0.0545
  914MOL0     H20631  11.924   3.667   6.530 -2.0189 -0.5444 -0.6862
  914MOL0     H20632  11.536   3.384   6.702  1.2463 -0.2075  0.0412
  914MOL0     H20633  11.464   3.187   6.617  2.3183 -1.0441 -0.9377
  914MOL0     H20634   9.751   4.117   6.109  1.3609  3.6334 -0.7539
  914MOL0     H20635   9.740   4.272   5.921 -1.6714 -0.3763  0.7942
  914MOL0     H20636   9.969   4.318   5.457 -0.3109  1.1531  0.3440
  914MOL0     H20637  10.000   4.437   5.270  0.9569 -0.9230  1.1261
  914MOL0     H20638   9.949   4.483   5.055  0.8704  0.8005 -1.3091
  914MOL0     H20639   9.944   4.643   5.143 -0.1252  0.8963 -1.8751
  914MOL0     H20640   9.996   4.674   4.883 -0.3601 -0.4436  0.5276
  914MOL0     H20641   9.830   4.609   4.863 -1.6745  2.9808 -1.6866
  914MOL0     H20642   9.923   4.858   5.015 -0.3921  1.1408 -1.3321
  914MOL0     H20643   9.749   4.805   4.994  0.0612 -2.5739 -0.4608
  914MOL0     H20644   9.958   4.882   4.795 -0.4434 -4.4970  0.1050
  914MOL0     H20645   9.792   4.841   4.755 -3.3586  1.0601  2.4360
  914MOL0     H20646   9.755   5.249   4.843  1.0448 -0.3161 -0.3880
  914MOL0     H20647   9.553   4.472   5.244  0.1277 -0.3752 -1.2624
  914MOL0     H20648   9.545   4.346   5.445  1.3041  5.6213  2.5704
  915MOL0     O20649   9.749   1.101   8.266 -0.1032  0.1001 -0.3730
  915MOL0     C20650   9.719   1.171   8.167  0.1015 -0.2588 -0.6554
  915MOL0     O20651   9.790   1.193   8.055  0.1498 -0.0547 -0.0541
  915MOL0     C20652   9.901   1.119   8.032 -0.4845  0.0083 -0.0124
  915MOL0     C20653  10.017   1.129   8.115 -0.2234 -0.2479  0.5493
  915MOL0     C20654  10.136   1.060   8.098  0.2031 -0.7936  0.1035
  915MOL0     C20655  10.136   0.956   8.000 -0.3552 -0.6686 -0.5640
  915MOL0     O20656  10.235   0.860   7.973 -0.4074  0.3019 -1.7612
  915MOL0     C20657  10.372   0.890   8.023  0.5192 -0.6888 -1.0584
  915MOL0     C20658  10.479   0.809   7.955  0.0496  0.7221  0.1263
  915MOL0     C20659  10.464   0.659   7.989  0.2647 -0.5520 -1.2552
  915MOL0     C20660  10.589   0.586   7.953  0.9199  0.2798 -0.4004
  915MOL0     C20661  10.607   0.556   7.806  0.2314  0.7281 -0.4853
  915MOL0     C20662  10.707   0.439   7.778  0.2594 -0.9680 -1.0752
  915MOL0     C20663  10.738   0.419   7.624  0.0520  0.0906  0.1583
  915MOL0     C20664  10.824   0.292   7.618 -0.1788 -0.0021  0.0915
  915MOL0     N20665  10.853   0.265   7.483  0.3366  0.1608  0.5873
  915MOL0     C20666  10.829   0.151   7.405 -0.3510  0.0534 -0.1845
  915MOL0     C20667  10.890   0.170   7.294  0.7663 -0.2713  0.0572
  915MOL0     C20668  10.889   0.088   7.167  0.0018  0.0130 -0.3565
  915MOL0     C20669  10.946  -0.050   7.203  0.4156  0.3001  0.6088
  915MOL0     C20670  11.078  -0.051   7.286  0.3249  0.8998  0.6538
  915MOL0     C20671  11.174  -0.161   7.240 -0.2329  0.3572  0.4366
  915MOL0     O20672  11.132  -0.289   7.288  0.4466  0.8085 -0.7571
  915MOL0     C20673  11.205  -0.394   7.242 -0.1952  1.4811  0.6509
  915MOL0     C20674  11.137  -0.497   7.179  0.1125 -1.7368 -0.5991
  915MOL0     C20675  11.211  -0.604   7.127  0.4634 -0.3701 -0.7992
  915MOL0     C20676  11.351  -0.598   7.119  0.5763 -0.9101 -1.4097
  915MOL0     C20677  11.429  -0.711   7.051 -0.0142 -0.0480 -1.3456
  915MOL0     O20678  11.562  -0.691   7.023  0.0849 -0.3555 -0.4173
  915MOL0     C20679  11.638  -0.788   6.952 -0.1812 -0.0307  0.7573
  915MOL0     C20680  11.690  -0.754   6.829  0.4723  1.0253 -0.0529
  915MOL0     C20681  11.763  -0.851   6.760 -0.8928 -0.0532  0.9470
  915MOL0     C20682  11.786  -0.978   6.808 -0.3856  0.0305  0.3675
  915MOL0     O20683  11.876  -1.070   6.754  0.4579  0.7157 -0.2191
  915MOL0     C20684  11.979  -1.028   6.674 -0.4453 -0.3980 -0.0293
  915MOL0     C20685  12.072  -1.153   6.639 -0.0944  0.9750  0.2760
  915MOL0     C20686  12.198  -1.108   6.562  1.3054  0.6948 -1.0024
  915MOL0     C20687  12.169  -1.076   6.412  0.8248 -0.3961  0.1694
  915MOL0     C20688  12.293  -1.064   6.336 -1.0214 -0.3269  0.5808
  915MOL0     C20689  12.394  -0.965   6.403  0.9691  0.4295 -0.2497
  915MOL0     C20690  12.502  -0.943   6.298  0.0883  1.3185 -0.5425
  915MOL0     C20691  12.631  -0.880   6.358  0.1453  0.0889  0.2963
  915MOL0    Cl20692  12.746  -1.002   6.443 -0.0601  0.3407 -0.1959
  915MOL0     C20693  11.726  -1.022   6.931  0.0386  0.3237 -0.1065
  915MOL0     C20694  11.659  -0.924   7.004  0.1965 -0.7523 -0.1373
  915MOL0     O20695  11.370  -0.812   7.020  0.2627  0.1343  0.9253
  915MOL0     C20696  11.418  -0.492   7.192 -0.3356  0.2241  0.6592
  915MOL0     C20697  11.349  -0.386   7.237 -0.8800  0.2790 -0.2889
  915MOL0     N20698  10.950   0.291   7.295  0.5165  0.2577 -0.4598
  915MOL0     N20699  10.940   0.343   7.409  0.5707 -0.0333  0.4195
  915MOL0     C20700  10.021   0.937   7.926 -0.2222  0.3928  0.2173
  915MOL0     C20701   9.912   1.025   7.930 -0.5208  0.5463 -0.5569
  915MOL0     C20702   9.598   1.258   8.180  1.0165  1.0252  0.1347
  915MOL0     C20703   9.576   1.374   8.090 -0.4929 -0.7189  0.1972
  915MOL0     C20704   9.467   1.462   8.112 -0.1016 -0.0264 -0.8064
  915MOL0     C20705   9.388   1.440   8.232  0.5405 -0.2861 -0.3084
  915MOL0     O20706   9.288   1.536   8.258  0.5225 -0.0886 -0.8604
  915MOL0     C20707   9.218   1.554   8.382 -0.7887  0.0467  0.0580
  915MOL0     C20708   9.174   1.700   8.401 -0.0293 -0.6705  1.2559
  915MOL0     C20709   9.064   1.729   8.289 -0.0692 -0.9773 -1.2687
  915MOL0     C20710   9.006   1.874   8.274  0.2674 -0.3103 -0.2764
  915MOL0     C20711   8.921   1.895   8.394  0.5270  0.2702 -0.9771
  915MOL0     C20712   8.868   1.884   8.506  0.4763 -0.0470 -0.0661
  915MOL0     C20713   9.412   1.335   8.324 -0.2727 -0.2635  0.6968
  915MOL0     C20714   9.524   1.248   8.302  0.3292  0.0631  0.4041
  915MOL0     H20715  10.015   1.194   8.202  0.7082  1.7238 -0.8459
  915MOL0     H20716  10.220   1.075   8.165  1.2922 -0.5972 -1.2740
  915MOL0     H20717  10.379   0.895   8.132  0.5782  1.0272 -1.1231
  915MOL0     H20718  10.387   0.994   7.994 -2.0358  0.0037 -0.1679
  915MOL0     H20719  10.574   0.862   7.970 -1.2812  2.8480  1.4641
  915MOL0     H20720  10.462   0.805   7.847  4.3948  2.3571 -0.8311
  915MOL0     H20721  10.371   0.633   7.937  1.7043 -1.9712 -3.3018
  915MOL0     H20722  10.437   0.645   8.093 -1.5225  1.6922 -1.3451
  915MOL0     H20723  10.679   0.635   7.992 -1.0113  0.3996  4.7879
  915MOL0     H20724  10.580   0.488   8.001 -2.2980  0.8575  0.3800
  915MOL0     H20725  10.660   0.639   7.756  0.9575 -0.8971 -2.5844
  915MOL0     H20726  10.519   0.529   7.746  0.4363  1.1483 -0.9869
  915MOL0     H20727  10.661   0.343   7.804 -3.1893  0.4637 -1.2700
  915MOL0     H20728  10.801   0.455   7.831 -1.8928  1.9836  2.2824
  915MOL0     H20729  10.645   0.413   7.567 -1.3400  2.9781  1.8492
  915MOL0     H20730  10.801   0.504   7.596 -0.1050  0.7100  1.5862
  915MOL0     H20731  10.764   0.210   7.660 -0.1151 -0.0234  0.1415
  915MOL0     H20732  10.918   0.291   7.674  1.1277  0.7293 -2.0000
  915MOL0     H20733  10.773   0.061   7.428  0.9207 -0.6762  0.1936
  915MOL0     H20734  10.943   0.145   7.091  0.3834  1.8693  1.2200
  915MOL0     H20735  10.782   0.084   7.145 -0.2273 -2.1631  0.9225
  915MOL0     H20736  10.960  -0.112   7.113 -1.6988  0.2987  0.2320
  915MOL0     H20737  10.872  -0.099   7.267 -2.8134  3.8889  0.0002
  915MOL0     H20738  11.119   0.050   7.296 -0.2483  1.1904  0.0999
  915MOL0     H20739  11.067  -0.082   7.391 -1.5072  0.4667  0.3653
  915MOL0     H20740  11.271  -0.133   7.281  0.0219  0.0913  0.0196
  915MOL0     H20741  11.186  -0.175   7.133  1.1247  1.4078  0.4387
  915MOL0     H20742  11.028  -0.490   7.181  0.2062  0.7510  1.8273
  915MOL0     H20743  11.165  -0.691   7.080  1.5205 -1.9722  0.9730
  915MOL0     H20744  11.668  -0.657   6.786 -1.6840  1.1913  1.2768
  915MOL0     H20745  11.811  -0.837   6.664  2.2799 -0.8983  2.2920
  915MOL0     H20746  12.042  -0.960   6.732  0.0261 -2.2164  1.6812
  915MOL0     H20747  11.943  -0.970   6.588  1.6030 -2.5689 -2.5209
  915MOL0     H20748  12.028  -1.231   6.576  2.5548  0.1623 -0.7505
  915MOL0     H20749  12.099  -1.202   6.733 -2.6507  2.6379  2.0070
  915MOL0     H20750  12.279  -1.178   6.584  0.1565  0.5860  4.1270
  915MOL0     H20751  12.241  -1.019   6.610 -0.7857  0.1864  2.1095
  915MOL0     H20752  12.096  -1.142   6.365  1.6180 -1.5849  0.5717
  915MOL0     H20753  12.128  -0.977   6.390  2.5306 -0.2796 -3.0639
  915MOL0     H20754  12.278  -1.036   6.232 -1.2566  0.7283  0.8877
  915MOL0     H20755  12.333  -1.166   6.337 -1.3534 -0.4806  2.1114
  915MOL0     H20756  12.419  -1.007   6.500 -1.0766  0.9879  0.5616
  915MOL0     H20757  12.346  -0.867   6.414 -2.0648 -0.9159 -0.5094
  915MOL0     H20758  12.522  -1.043   6.259  0.4688  1.6579 -1.2540
  915MOL0     H20759  12.464  -0.872   6.224  0.2918  0.2467 -1.7151
  915MOL0     H20760  12.603  -0.800   6.426  1.1140 -0.1189  0.9609
  915MOL0     H20761  12.681  -0.836   6.272 -0.7344  1.1564  0.3046
  915MOL0     H20762  11.748  -1.125   6.956 -1.1583  0.4093  1.4565
  915MOL0     H20763  11.616  -0.961   7.097  1.7977 -1.4629  0.3630
  915MOL0     H20764  11.527  -0.493   7.189  0.0185 -5.0115  3.3262
  915MOL0     H20765  11.401  -0.300   7.278  0.6362  0.2097 -1.9317
  915MOL0     H20766  10.023   0.857   7.853  1.4446  0.4856  0.1371
  915MOL0     H20767   9.838   1.004   7.853  0.5937  0.6763 -1.6986
  915MOL0     H20768   9.651   1.386   8.013 -0.1015 -0.0129  0.6844
  915MOL0     H20769   9.444   1.542   8.042 -1.1420 -0.7823 -1.3692
  915MOL0     H20770   9.280   1.530   8.469  0.5883  0.0567 -0.8846
  915MOL0     H20771   9.137   1.481   8.377  0.8515 -1.7317 -2.6151
  915MOL0     H20772   9.135   1.717   8.502 -0.1900  1.7246  0.8581
  915MOL0     H20773   9.261   1.763   8.379  0.2124 -1.5688 -0.5883
  915MOL0     H20774   8.981   1.659   8.293 -3.3466  2.4858 -2.5524
  915MOL0     H20775   9.117   1.716   8.194  3.2334 -1.6477  0.5344
  915MOL0     H20776   9.080   1.955   8.273  0.2123 -0.2388 -2.0498
  915MOL0     H20777   8.940   1.885   8.187  1.1425  0.4441 -0.8765
  915MOL0     H20778   8.818   1.880   8.600  3.0696  0.2942  1.4248
  915MOL0     H20779   9.358   1.310   8.415 -0.8480 -0.9237  0.1858
  915MOL0     H20780   9.548   1.166   8.369  3.3908  0.5297  0.0170
  916MOL0     O20781   7.509   2.724   4.856  0.0827  1.1004  0.0638
  916MOL0     C20782   7.627   2.709   4.867 -0.9021  0.9567 -0.7065
  916MOL0     O20783   7.694   2.594   4.906  0.1570 -0.2132  0.3428
  916MOL0     C20784   7.612   2.489   4.933  0.0169  0.2287  0.0858
  916MOL0     C20785   7.523   2.487   5.046 -0.4649 -0.6267 -0.1243
  916MOL0     C20786   7.450   2.379   5.086 -0.3727  1.1824 -0.1346
  916MOL0     C20787   7.440   2.267   5.009 -0.1143  0.6506  0.5029
  916MOL0     O20788   7.363   2.157   5.031  0.0744  0.2975 -0.4085
  916MOL0     C20789   7.262   2.164   5.146 -0.7294 -0.4770  0.3139
  916MOL0     C20790   7.176   2.040   5.129 -0.8922 -0.4522  0.7207
  916MOL0     C20791   7.241   1.912   5.188 -0.0766  0.6083  0.1408
  916MOL0     C20792   7.156   1.794   5.159 -0.2984 -0.7125 -0.9138
  916MOL0     C20793   7.213   1.663   5.209 -0.8682  0.0501  0.7074
  916MOL0     C20794   7.198   1.543   5.107 -0.0186 -1.1625  0.6385
  916MOL0     C20795   7.239   1.417   5.173  0.3715 -0.8408  0.0503
  916MOL0     C20796   7.126   1.343   5.240 -0.5731  0.4383 -0.3546
  916MOL0     N20797   7.143   1.201   5.252  0.7462  0.2407  0.1521
  916MOL0     C20798   7.169   1.111   5.152  0.4812  0.2351  0.1231
  916MOL0     C20799   7.196   0.996   5.223  0.1685 -0.4964 -0.0849
  916MOL0     C20800   7.247   0.871   5.157  0.9747 -0.2195 -0.6450
  916MOL0     C20801   7.388   0.835   5.210 -1.3462  0.7706  0.7134
  916MOL0     C20802   7.452   0.728   5.113 -0.7338  0.2588  0.3296
  916MOL0     C20803   7.486   0.777   4.962 -0.2657 -0.9188  0.0755
  916MOL0     O20804   7.545   0.907   4.964 -0.6159 -0.0404 -0.1348
  916MOL0     C20805   7.587   0.955   4.842 -0.3735  0.0042 -0.7125
  916MOL0     C20806   7.611   1.091   4.842 -0.1285 -0.5260 -0.3981
  916MOL0     C20807   7.651   1.167   4.735  0.1607 -0.2382 -0.4630
  916MOL0     C20808   7.691   1.103   4.613 -0.6612  0.0745  0.3919
  916MOL0     C20809   7.766   1.156   4.502  0.4558  0.1532 -0.3379
  916MOL0     O20810   7.820   1.279   4.527 -1.3245 -1.3865  0.4664
  916MOL0     C20811   7.845   1.371   4.425  0.1958  0.4657  1.3216
  916MOL0     C20812   7.841   1.506   4.459  0.0381 -0.0153 -0.4256
  916MOL0     C20813   7.861   1.604   4.356  0.2448 -0.6197  0.1022
  916MOL0     C20814   7.919   1.571   4.233 -0.3887  0.8151  0.3526
  916MOL0     O20815   7.951   1.673   4.137  0.0359 -0.2964  0.0495
  916MOL0     C20816   7.987   1.811   4.184  0.2656 -0.1258  0.1685
  916MOL0     C20817   8.094   1.811   4.288  0.1551 -1.2644 -0.1931
  916MOL0     C20818   8.225   1.785   4.232 -0.4279  1.2877 -0.6362
  916MOL0     C20819   8.340   1.788   4.340  0.6918  0.6905  0.3273
  916MOL0     C20820   8.476   1.731   4.302  0.1152 -0.1605  0.0227
  916MOL0     C20821   8.545   1.780   4.174  0.2103 -0.4923  1.9426
  916MOL0     C20822   8.677   1.701   4.154 -0.3134 -0.0413  0.3575
  916MOL0     C20823   8.791   1.794   4.121  0.2666 -0.6733 -0.3350
  916MOL0    Cl20824   8.950   1.711   4.105 -0.3935 -0.5931 -0.4674
  916MOL0     C20825   7.937   1.435   4.198  0.0475 -0.2561 -0.5202
  916MOL0     C20826   7.893   1.336   4.297  0.4194 -0.7198  0.3456
  916MOL0     O20827   7.745   1.102   4.393 -0.4909 -0.4389 -0.0701
  916MOL0     C20828   7.670   0.967   4.611 -0.1690 -0.3127 -0.0186
  916MOL0     C20829   7.611   0.897   4.720 -0.5955  0.8163  0.1228
  916MOL0     N20830   7.175   1.022   5.360  0.0784  0.4180  0.3729
  916MOL0     N20831   7.134   1.141   5.374  0.0419 -0.4864  0.6949
  916MOL0     C20832   7.521   2.266   4.893 -0.1206 -0.2626 -0.0409
  916MOL0     C20833   7.601   2.376   4.856 -0.1139  0.5259 -0.2218
  916MOL0     C20834   7.711   2.828   4.856 -0.4285 -0.1905  0.0129
  916MOL0     C20835   7.650   2.958   4.860 -0.1003  0.6555 -0.4390
  916MOL0     C20836   7.723   3.074   4.838 -0.3797  1.1045  0.9935
  916MOL0     C20837   7.862   3.075   4.817 -1.2649 -0.3088 -0.7787
  916MOL0     O20838   7.912   3.200   4.784 -0.3046  0.3976 -0.1021
  916MOL0     C20839   8.044   3.215   4.756 -0.6398  0.4140  0.0727
  916MOL0     C20840   8.087   3.358   4.747  1.2623  0.7459 -0.5561
  916MOL0     C20841   8.014   3.449   4.642 -0.3522  0.3578 -0.2296
  916MOL0     C20842   7.982   3.594   4.673  0.2312 -0.2791  0.9947
  916MOL0     C20843   7.939   3.621   4.813 -0.0929  0.5577 -0.1534
  916MOL0     C20844   7.903   3.634   4.927  0.3685 -0.5412 -0.3821
  916MOL0     C20845   7.928   2.958   4.825  0.3108 -0.1685  0.4163
  916MOL0     C20846   7.854   2.834   4.838 -0.4399  0.3947 -0.5830
  916MOL0     H20847   7.517   2.571   5.115  1.2304 -0.8729  0.3856
  916MOL0     H20848   7.399   2.379   5.182 -0.0596 -1.5244  0.1234
  916MOL0     H20849   7.201   2.255   5.137  0.4003  0.4082  1.2491
  916MOL0     H20850   7.306   2.157   5.246 -0.7482 -3.5377  0.1765
  916MOL0     H20851   7.160   2.033   5.021  1.6700  1.3252  0.1299
  916MOL0     H20852   7.075   2.044   5.169 -1.3907 -0.3802 -0.5062
  916MOL0     H20853   7.261   1.931   5.294  0.2551  2.7685 -0.2601
  916MOL0     H20854   7.331   1.884   5.133 -1.8846 -3.0447 -1.3012
  916MOL0     H20855   7.061   1.808   5.211 -0.9888 -0.2576 -2.2510
  916MOL0     H20856   7.130   1.797   5.053 -0.5798  0.1754 -0.8269
  916MOL0     H20857   7.152   1.648   5.298 -1.2591  0.5541  0.5290
  916MOL0     H20858   7.319   1.671   5.232 -0.4586  2.9082 -1.5390
  916MOL0     H20859   7.258   1.554   5.016 -0.8901  0.4420  0.2238
  916MOL0     H20860   7.094   1.541   5.073 -0.4990  0.9402  1.7752
  916MOL0     H20861   7.276   1.350   5.094 -2.4536 -1.1498 -1.1266
  916MOL0     H20862   7.329   1.432   5.233 -0.4495 -0.4333  1.1997
  916MOL0     H20863   7.034   1.358   5.184 -0.7816 -0.0973 -0.1691
  916MOL0     H20864   7.118   1.381   5.342  2.1664 -1.2869  0.6257
  916MOL0     H20865   7.166   1.125   5.045  0.0815  0.1266  0.1145
  916MOL0     H20866   7.255   0.878   5.048  3.4247 -0.5410 -0.5452
  916MOL0     H20867   7.178   0.787   5.172  0.0076  0.6664  0.0265
  916MOL0     H20868   7.386   0.810   5.317  0.5105 -0.5187  0.5043
  916MOL0     H20869   7.455   0.920   5.196  0.9445 -1.4417 -3.6884
  916MOL0     H20870   7.549   0.689   5.145 -1.3281 -1.0974  0.5581
  916MOL0     H20871   7.385   0.641   5.113 -1.3589  0.6917 -1.3073
  916MOL0     H20872   7.393   0.784   4.906 -0.8137  6.5764  0.8395
  916MOL0     H20873   7.559   0.716   4.909  0.0674  0.1415 -0.7138
  916MOL0     H20874   7.597   1.148   4.933  2.6626 -0.6125  0.1770
  916MOL0     H20875   7.663   1.274   4.749  0.1829 -0.0014 -2.0677
  916MOL0     H20876   7.809   1.550   4.552  0.5270  4.8032 -2.2456
  916MOL0     H20877   7.857   1.709   4.385  1.9014 -0.0028 -1.6513
  916MOL0     H20878   7.904   1.869   4.226  0.5441  1.4572 -1.3811
  916MOL0     H20879   8.023   1.857   4.092  4.2247  2.0477  2.5166
  916MOL0     H20880   8.063   1.736   4.362 -0.8886 -0.5204  0.1467
  916MOL0     H20881   8.088   1.899   4.353 -0.7082 -1.9662  0.7224
  916MOL0     H20882   8.248   1.857   4.154 -1.0403  2.2973  0.0989
  916MOL0     H20883   8.221   1.684   4.189 -1.3025  0.0717  2.0553
  916MOL0     H20884   8.366   1.895   4.348  1.2194  0.5853  0.0250
  916MOL0     H20885   8.296   1.751   4.433  3.4931  2.1158  2.3794
  916MOL0     H20886   8.459   1.623   4.293  0.8258 -0.6517  3.4510
  916MOL0     H20887   8.540   1.751   4.388 -0.6323  2.4865  0.0340
  916MOL0     H20888   8.569   1.886   4.182  0.2101 -0.2201 -0.7577
  916MOL0     H20889   8.482   1.764   4.086  0.5016  2.4704  1.1061
  916MOL0     H20890   8.714   1.644   4.240  0.4012 -0.8985 -0.4882
  916MOL0     H20891   8.662   1.629   4.073 -1.1185  1.8604 -1.2484
  916MOL0     H20892   8.801   1.870   4.199 -0.8099 -1.7184  0.8687
  916MOL0     H20893   8.772   1.841   4.024  0.5206 -2.6411 -1.3810
  916MOL0     H20894   7.970   1.398   4.102  0.4705 -3.1653  0.6479
  916MOL0     H20895   7.921   1.236   4.266  2.8821  0.5103 -1.7688
  916MOL0     H20896   7.682   0.910   4.520 -1.2385 -2.1748  0.9664
  916MOL0     H20897   7.598   0.790   4.714 -0.2089  0.4983  3.2369
  916MOL0     H20898   7.521   2.172   4.839 -1.8076 -1.2325  1.5443
  916MOL0     H20899   7.677   2.366   4.779  4.8301 -0.6866  4.1684
  916MOL0     H20900   7.543   2.976   4.866  0.2357  3.3645 -0.8733
  916MOL0     H20901   7.671   3.167   4.816 -3.1062 -0.4545  0.4998
  916MOL0     H20902   8.067   3.152   4.670 -1.0411  2.2356 -1.4416
  916MOL0     H20903   8.101   3.184   4.843 -0.5692 -1.8015 -0.7027
  916MOL0     H20904   8.059   3.391   4.848 -2.9489 -1.2309 -0.8535
  916MOL0     H20905   8.194   3.363   4.726  1.3117  0.2687 -0.4516
  916MOL0     H20906   7.923   3.398   4.608  0.1269 -2.1290  1.9440
  916MOL0     H20907   8.070   3.472   4.550  0.5471  3.3304  0.9369
  916MOL0     H20908   8.062   3.661   4.643  2.0437 -2.3386  0.9923
  916MOL0     H20909   7.897   3.623   4.610  1.5732  0.4137 -0.5449
  916MOL0     H20910   7.873   3.653   5.028 -1.0845 -1.1671 -0.6748
  916MOL0     H20911   8.033   2.946   4.799  0.5819  1.6679  0.5509
  916MOL0     H20912   7.916   2.746   4.833 -0.7018  0.2529 -1.8998
  917MOL0     O20913  10.967   9.938   8.683 -0.3385  0.0576  0.2681
  917MOL0     C20914  11.045  10.019   8.743 -0.5889 -0.1213 -0.9235
  917MOL0     O20915  11.151  10.066   8.691 -0.3313 -0.2564 -0.1905
  917MOL0     C20916  11.183  10.053   8.562  0.2899 -0.4616 -0.4698
  917MOL0     C20917  11.164   9.942   8.474  0.1191  0.2263  0.3029
  917MOL0     C20918  11.196   9.942   8.338  0.0184  0.0502 -0.2379
  917MOL0     C20919  11.243  10.056   8.277  0.6205 -0.3423  0.5680
  917MOL0     O20920  11.278  10.065   8.145 -0.6451  0.1181 -0.3027
  917MOL0     C20921  11.341   9.949   8.084 -1.0848 -1.0201  0.1382
  917MOL0     C20922  11.495   9.937   8.110 -0.0530  0.0856  0.9551
  917MOL0     C20923  11.547   9.799   8.055 -0.7091 -0.5252  0.0236
  917MOL0     C20924  11.697   9.789   8.064  0.0663 -0.1060 -0.6821
  917MOL0     C20925  11.742   9.651   8.033  0.0014 -0.4612 -0.1397
  917MOL0     C20926  11.898   9.639   8.066 -0.1686 -1.4769 -0.0847
  917MOL0     C20927  11.940   9.487   8.069 -0.3273 -0.3365  0.4366
  917MOL0     C20928  12.092   9.477   8.086 -0.2358  0.5134 -0.0995
  917MOL0     N20929  12.134   9.337   8.037  0.1280  0.4499  1.2479
  917MOL0     C20930  12.099   9.214   8.082 -0.5496  0.0258  0.3327
  917MOL0     C20931  12.164   9.124   7.998 -1.0044  0.1912 -0.4899
  917MOL0     C20932  12.152   8.976   8.016  0.4737 -0.0797 -0.1707
  917MOL0     C20933  12.289   8.925   8.055  0.5837 -0.0837 -0.2042
  917MOL0     C20934  12.330   8.973   8.192  1.3271  0.4699 -0.2175
  917MOL0     C20935  12.428   8.882   8.256  0.2360  0.6216 -0.4785
  917MOL0     O20936  12.430   8.913   8.398 -0.1463 -0.2019  0.9716
  917MOL0     C20937  12.371   8.817   8.482 -0.1743  0.9772 -0.4899
  917MOL0     C20938  12.257   8.740   8.446  0.6263  1.1271  0.1250
  917MOL0     C20939  12.215   8.635   8.529  0.2356  0.0877  0.8353
  917MOL0     C20940  12.260   8.615   8.658 -0.2694  0.5222  0.2689
  917MOL0     C20941  12.200   8.508   8.737  0.9577 -0.1022 -0.1468
  917MOL0     O20942  12.242   8.497   8.862  0.3717 -0.2927 -0.1635
  917MOL0     C20943  12.223   8.383   8.938  0.3734  0.8940  0.4441
  917MOL0     C20944  12.143   8.270   8.906  0.9530  0.6268 -0.1515
  917MOL0     C20945  12.141   8.150   8.982 -0.2115 -0.3254  0.0346
  917MOL0     C20946  12.226   8.138   9.098  0.5556  0.5116 -0.0168
  917MOL0     O20947  12.220   8.026   9.174  0.1542  0.3046 -0.4757
  917MOL0     C20948  12.248   8.030   9.313  0.2187 -0.5829 -0.4359
  917MOL0     C20949  12.166   7.920   9.391  0.8958 -0.2456  0.0968
  917MOL0     C20950  12.183   7.921   9.540 -0.4610 -0.7500  0.1975
  917MOL0     C20951  12.324   7.913   9.596  1.3376  0.2349 -0.2484
  917MOL0     C20952  12.405   7.804   9.536 -0.0738 -0.1956 -0.1589
  917MOL0     C20953  12.473   7.724   9.651  0.3402  0.0901 -0.0358
  917MOL0     C20954  12.528   7.590   9.607 -0.0951 -0.3684 -0.4918
  917MOL0     C20955  12.606   7.506   9.707  0.8398 -0.0671  0.9588
  917MOL0    Cl20956  12.501   7.441   9.838 -0.1958  0.1190 -0.3529
  917MOL0     C20957  12.308   8.243   9.135  0.6646 -0.9167 -0.5091
  917MOL0     C20958  12.310   8.360   9.049 -0.0204 -0.7235  0.2251
  917MOL0     O20959  12.118   8.434   8.677 -0.3773 -0.2016  0.3385
  917MOL0     C20960  12.370   8.701   8.700  0.9422  0.6306  0.4142
  917MOL0     C20961  12.420   8.797   8.613 -0.0711  1.1257  0.2013
  917MOL0     N20962  12.241   9.195   7.910  0.1527 -0.8472 -0.3748
  917MOL0     N20963  12.217   9.327   7.925 -0.6545 -0.0978  0.1334
  917MOL0     C20964  11.248  10.167   8.357 -0.1372  0.4731  0.2241
  917MOL0     C20965  11.219  10.173   8.499 -0.3928  0.0062  0.3456
  917MOL0     C20966  11.021  10.040   8.885 -0.3190 -0.9973 -0.1326
  917MOL0     C20967  11.107  10.108   8.964  0.3440 -0.0411  0.0697
  917MOL0     C20968  11.080  10.133   9.099 -1.0542  0.3546  0.3246
  917MOL0     C20969  10.976  10.078   9.162 -0.9164 -1.2000 -0.7146
  917MOL0     O20970  10.965  10.109   9.297  0.4290 -0.3754 -0.6087
  917MOL0     C20971  10.935  10.008   9.392 -0.6292  0.7152  0.2463
  917MOL0     C20972  11.030   9.995   9.513 -0.2832 -0.2987  0.0444
  917MOL0     C20973  10.971   9.914   9.620  0.1178 -0.1568 -0.5320
  917MOL0     C20974  11.051   9.919   9.756 -0.4300 -1.2419  0.5391
  917MOL0     C20975  11.185   9.869   9.745 -0.6138 -0.4922  0.4763
  917MOL0     C20976  11.306   9.844   9.761  0.7438 -0.1979 -0.0572
  917MOL0     C20977  10.884  10.004   9.090 -0.6788 -0.0596  0.1575
  917MOL0     C20978  10.913   9.980   8.952  0.3705 -0.4010  0.1804
  917MOL0     H20979  11.138   9.843   8.509  2.8241 -0.0607  1.8052
  917MOL0     H20980  11.158   9.858   8.281  0.7549 -0.2698 -0.2607
  917MOL0     H20981  11.326   9.964   7.977 -0.8059 -0.3617  0.1887
  917MOL0     H20982  11.286   9.854   8.092 -0.2637 -1.8066 -2.4311
  917MOL0     H20983  11.525   9.937   8.215  3.8113 -3.0465  0.0984
  917MOL0     H20984  11.556  10.011   8.058 -0.3909  0.3219  0.8947
  917MOL0     H20985  11.519   9.783   7.951  1.3296 -0.6313 -0.5572
  917MOL0     H20986  11.502   9.726   8.123 -0.7034  0.5869  1.2677
  917MOL0     H20987  11.746   9.863   8.000  0.6425 -0.0461 -0.1758
  917MOL0     H20988  11.725   9.820   8.165  0.3815 -2.6812  0.0876
  917MOL0     H20989  11.724   9.631   7.927 -1.3047  2.3691 -0.5461
  917MOL0     H20990  11.678   9.577   8.082 -1.6650  0.8430 -0.2435
  917MOL0     H20991  11.916   9.666   8.170 -2.8486  1.7320 -0.3022
  917MOL0     H20992  11.963   9.699   8.003 -0.9919  2.2895  2.3277
  917MOL0     H20993  11.884   9.433   8.147 -3.3170  0.5212 -0.9860
  917MOL0     H20994  11.918   9.450   7.969  1.2534  1.1015 -0.4986
  917MOL0     H20995  12.110   9.495   8.193 -0.3254  0.5126 -0.0845
  917MOL0     H20996  12.138   9.564   8.038  0.4555  0.5867  0.6679
  917MOL0     H20997  12.050   9.195   8.177 -1.7693 -0.4788 -0.3751
  917MOL0     H20998  12.120   8.932   7.921  0.2484  0.8279 -0.5347
  917MOL0     H20999  12.076   8.965   8.094  1.2175  0.1377  0.5986
  917MOL0     H21000  12.366   8.952   7.983  0.7790 -0.2990 -0.0800
  917MOL0     H21001  12.276   8.817   8.065  2.4108 -0.2251  1.2787
  917MOL0     H21002  12.379   9.070   8.192 -0.3765  1.6972  5.3319
  917MOL0     H21003  12.239   8.978   8.253  2.0945 -1.3194  1.1783
  917MOL0     H21004  12.533   8.892   8.225  0.5433 -0.5547  0.1298
  917MOL0     H21005  12.392   8.780   8.240 -0.8358  0.7675  0.8790
  917MOL0     H21006  12.212   8.748   8.347 -0.0003 -0.1452  0.2863
  917MOL0     H21007  12.136   8.576   8.483  0.8980  0.5912 -1.0452
  917MOL0     H21008  12.069   8.257   8.827  1.1847  0.2932 -0.3175
  917MOL0     H21009  12.086   8.058   8.967 -1.0529 -0.1851  1.9446
  917MOL0     H21010  12.213   8.123   9.358 -0.7032 -1.3527  0.4845
  917MOL0     H21011  12.352   7.998   9.320  0.5712 -0.6934 -4.1718
  917MOL0     H21012  12.210   7.834   9.340 -2.8952 -2.3695  0.0243
  917MOL0     H21013  12.061   7.931   9.364  0.9449  2.1012  0.6938
  917MOL0     H21014  12.137   7.834   9.588  1.2957 -0.4065  2.7085
  917MOL0     H21015  12.143   8.016   9.577  3.4764  2.2749 -2.5354
  917MOL0     H21016  12.362   8.014   9.579 -0.6506  1.1710  0.5243
  917MOL0     H21017  12.310   7.906   9.704  2.0527  1.6879 -0.0428
  917MOL0     H21018  12.481   7.856   9.479  1.2162  3.7546  4.5041
  917MOL0     H21019  12.334   7.743   9.478  2.2820 -0.5818 -2.8739
  917MOL0     H21020  12.388   7.703   9.717 -0.4130  0.6002 -0.8224
  917MOL0     H21021  12.550   7.790   9.692  1.2203  0.8097 -2.6721
  917MOL0     H21022  12.446   7.536   9.561 -0.1823  0.6112 -1.5549
  917MOL0     H21023  12.604   7.622   9.534  2.3675 -1.1009  1.5960
  917MOL0     H21024  12.699   7.552   9.742  1.7129 -2.1709  1.5122
  917MOL0     H21025  12.638   7.418   9.652 -2.7178 -0.6582 -0.4126
  917MOL0     H21026  12.383   8.216   9.209 -1.1743 -3.6907  0.4909
  917MOL0     H21027  12.389   8.433   9.068  0.2885 -1.4798  2.0630
  917MOL0     H21028  12.423   8.691   8.794  2.4704 -0.6917 -0.5326
  917MOL0     H21029  12.498   8.860   8.654 -0.1004 -0.1621  2.3873
  917MOL0     H21030  11.284  10.258   8.308 -1.9048  1.7281  1.1406
  917MOL0     H21031  11.229  10.271   8.546  1.2155  0.1420 -0.2047
  917MOL0     H21032  11.196  10.139   8.910 -1.1444  2.3132 -1.1902
  917MOL0     H21033  11.144  10.200   9.155  1.0686 -0.9696 -0.3870
  917MOL0     H21034  10.920   9.911   9.343 -0.2512 -0.3796  2.1634
  917MOL0     H21035  10.843  10.032   9.445 -0.3169  0.4488  0.9263
  917MOL0     H21036  11.127   9.958   9.477  0.0150  0.1247  0.3939
  917MOL0     H21037  11.056  10.096   9.546  0.1736 -0.3030 -0.2868
  917MOL0     H21038  10.964   9.812   9.580  1.1465  2.0342 -7.5705
  917MOL0     H21039  10.871   9.951   9.646 -0.9696 -2.1675 -1.6462
  917MOL0     H21040  11.041  10.023   9.786 -0.1568 -1.5772  1.8470
  917MOL0     H21041  11.003   9.862   9.836 -4.7690  2.8697  1.2867
  917MOL0     H21042  11.412   9.837   9.777  0.6650 -1.2296  0.0967
  917MOL0     H21043  10.797   9.958   9.136 -1.0750 -1.2144 -1.6708
  917MOL0     H21044  10.832   9.934   8.896 -2.3525  1.3154  2.4244
  918MOL0     O21045   2.960   2.196   2.152  0.1649 -0.3766 -0.3699
  918MOL0     C21046   2.930   2.164   2.268 -0.0747  1.2103 -1.1291
  918MOL0     O21047   3.004   2.089   2.355  0.8299  0.8785 -0.6004
  918MOL0     C21048   3.097   2.003   2.310 -0.2275  1.0782  0.2712
  918MOL0     C21049   3.198   1.966   2.399 -0.2854 -1.1037  0.7332
  918MOL0     C21050   3.299   1.876   2.354  0.9446  0.2174 -0.4164
  918MOL0     C21051   3.289   1.814   2.231 -0.1041  0.3448  0.6947
  918MOL0     O21052   3.391   1.727   2.208  0.1140  1.0084 -0.5231
  918MOL0     C21053   3.387   1.641   2.094 -1.1788  0.4783  0.5376
  918MOL0     C21054   3.515   1.558   2.084 -0.4529  0.5003  0.3362
  918MOL0     C21055   3.505   1.457   1.969 -0.4871 -1.7047 -0.4650
  918MOL0     C21056   3.508   1.530   1.832  0.0123 -0.3568 -0.2066
  918MOL0     C21057   3.552   1.419   1.719  0.0293 -0.5432  0.7088
  918MOL0     C21058   3.437   1.325   1.677  0.0030  0.2581 -0.2198
  918MOL0     C21059   3.470   1.187   1.615 -0.3340  0.3735 -0.5768
  918MOL0     C21060   3.575   1.183   1.501 -0.0141  1.1407  0.4943
  918MOL0     N21061   3.540   1.231   1.369  0.8851 -0.7995 -0.2217
  918MOL0     C21062   3.475   1.161   1.263 -0.2901  1.0754 -0.3467
  918MOL0     C21063   3.448   1.255   1.174  0.0042 -0.4111 -0.0007
  918MOL0     C21064   3.403   1.234   1.030  0.2635 -0.3422 -0.2205
  918MOL0     C21065   3.254   1.197   1.008 -0.5306 -0.0489 -0.4807
  918MOL0     C21066   3.154   1.283   1.082  0.0573 -0.6686 -0.0166
  918MOL0     C21067   3.139   1.417   0.990 -0.1572 -0.0663 -0.2963
  918MOL0     O21068   3.247   1.495   1.037 -0.0525  0.3622  1.0559
  918MOL0     C21069   3.267   1.622   0.982 -0.3771 -0.4472  0.7091
  918MOL0     C21070   3.178   1.691   0.895 -0.1877  0.2680  0.1481
  918MOL0     C21071   3.200   1.825   0.851  1.1203  0.7935  1.5278
  918MOL0     C21072   3.316   1.892   0.893 -0.1144 -0.7047  0.6934
  918MOL0     C21073   3.330   2.041   0.854  0.4482  0.4996 -0.7806
  918MOL0     O21074   3.225   2.122   0.879  0.3058 -0.5739  0.4997
  918MOL0     C21075   3.241   2.258   0.884 -0.0880 -0.0794  0.4551
  918MOL0     C21076   3.350   2.325   0.925  0.2033  0.2577  0.2901
  918MOL0     C21077   3.343   2.461   0.936  0.6790  0.7276 -0.7084
  918MOL0     C21078   3.227   2.540   0.915  0.3816  0.2208  0.3633
  918MOL0     O21079   3.220   2.681   0.924  0.5217  0.5116  0.7560
  918MOL0     C21080   3.296   2.738   1.030 -0.1143  0.2885  0.6928
  918MOL0     C21081   3.261   2.884   1.061  0.6927  0.4797  0.7660
  918MOL0     C21082   3.362   2.949   1.153 -0.2939 -0.1135  0.9715
  918MOL0     C21083   3.506   2.959   1.092 -0.9824 -0.1469 -0.1907
  918MOL0     C21084   3.522   2.972   0.938  0.7069 -0.6408 -0.4563
  918MOL0     C21085   3.664   3.008   0.889  0.1384 -0.3930  0.7906
  918MOL0     C21086   3.670   3.068   0.750  0.6451 -0.2346 -0.2085
  918MOL0     C21087   3.730   3.201   0.741 -0.1531 -1.6330  0.9158
  918MOL0    Cl21088   3.737   3.250   0.571 -0.3161 -0.3568  0.4621
  918MOL0     C21089   3.115   2.472   0.879  0.1965 -0.1247  0.5331
  918MOL0     C21090   3.121   2.333   0.859 -0.9176 -0.3402 -0.6028
  918MOL0     O21091   3.448   2.067   0.823  0.3909 -0.6274 -0.0436
  918MOL0     C21092   3.418   1.819   0.958 -0.3729 -0.2965  0.5496
  918MOL0     C21093   3.391   1.689   0.998  0.4819  0.0514 -0.9900
  918MOL0     N21094   3.494   1.373   1.226  0.4526 -0.5006 -0.3138
  918MOL0     N21095   3.554   1.360   1.341 -1.0911  0.0294  0.2457
  918MOL0     C21096   3.184   1.841   2.145  0.7934 -0.4563  0.1071
  918MOL0     C21097   3.087   1.933   2.186 -0.2231  0.8204 -0.0734
  918MOL0     C21098   2.805   2.216   2.327  0.1857 -0.1501  0.2201
  918MOL0     C21099   2.743   2.167   2.447 -0.2977  0.0193  0.0662
  918MOL0     C21100   2.634   2.234   2.509 -0.3546  0.0466 -0.2994
  918MOL0     C21101   2.581   2.346   2.441 -0.9494 -0.9703 -0.0383
  918MOL0     O21102   2.459   2.406   2.477 -0.1523 -0.6038 -1.0060
  918MOL0     C21103   2.357   2.317   2.530  0.3467  0.6226 -0.6427
  918MOL0     C21104   2.214   2.372   2.486 -0.3931 -0.6405 -0.0609
  918MOL0     C21105   2.092   2.301   2.567  0.1851 -0.0874  0.4062
  918MOL0     C21106   1.956   2.303   2.501  0.5822  0.2433  0.1435
  918MOL0     C21107   1.957   2.200   2.392 -0.7865  0.5829 -0.0531
  918MOL0     C21108   1.969   2.128   2.293 -0.0290  0.0004  0.2482
  918MOL0     C21109   2.648   2.401   2.328  0.9453 -0.6665 -0.2508
  918MOL0     C21110   2.758   2.338   2.268 -0.2866  0.7212  0.2083
  918MOL0     H21111   3.221   2.021   2.489  2.4858 -0.1059 -0.4788
  918MOL0     H21112   3.387   1.873   2.417  1.5638  3.7842 -0.8942
  918MOL0     H21113   3.379   1.710   2.010 -3.0080  4.2810  3.5092
  918MOL0     H21114   3.299   1.576   2.100 -0.7994 -0.0902  0.1744
  918MOL0     H21115   3.520   1.492   2.170 -0.9184  0.0366  0.0135
  918MOL0     H21116   3.609   1.615   2.086  1.3142 -1.9013 -3.1014
  918MOL0     H21117   3.408   1.407   1.974 -1.5089 -0.0431 -2.2081
  918MOL0     H21118   3.596   1.398   1.967  1.4383  0.7106  3.6681
  918MOL0     H21119   3.408   1.569   1.811 -0.3709 -1.0068  0.3427
  918MOL0     H21120   3.577   1.614   1.826 -1.0120  0.4261 -1.6251
  918MOL0     H21121   3.642   1.365   1.749  1.2443  0.5623 -0.7806
  918MOL0     H21122   3.581   1.474   1.629 -0.7263 -0.0890  0.7341
  918MOL0     H21123   3.365   1.378   1.613 -2.4268 -1.5444  0.8805
  918MOL0     H21124   3.374   1.301   1.763 -1.9411  0.1611 -1.6003
  918MOL0     H21125   3.515   1.123   1.692 -0.5980  0.8757  0.0070
  918MOL0     H21126   3.383   1.131   1.580 -1.0896  1.0089  0.2211
  918MOL0     H21127   3.613   1.081   1.485  0.5481  1.7271 -2.3896
  918MOL0     H21128   3.669   1.230   1.531  0.8319  0.2264 -0.6229
  918MOL0     H21129   3.460   1.054   1.253 -0.6699  1.2314 -1.5544
  918MOL0     H21130   3.463   1.152   0.991 -2.0049 -2.1035 -0.2109
  918MOL0     H21131   3.423   1.327   0.977  1.2545 -0.9063 -0.8641
  918MOL0     H21132   3.247   1.090   1.032  1.6034 -0.6282 -2.1150
  918MOL0     H21133   3.235   1.206   0.901 -0.4066 -1.6531 -0.6703
  918MOL0     H21134   3.058   1.231   1.067 -0.5279  1.2116 -4.3387
  918MOL0     H21135   3.181   1.294   1.188  1.4800  0.7820 -0.5043
  918MOL0     H21136   3.046   1.469   1.017 -0.5855 -0.6979 -0.5320
  918MOL0     H21137   3.130   1.395   0.884 -2.0142 -0.1054 -0.1737
  918MOL0     H21138   3.079   1.651   0.876 -0.3702  2.0888 -3.6545
  918MOL0     H21139   3.135   1.880   0.783  0.2687 -1.3384  0.5186
  918MOL0     H21140   3.451   2.287   0.939  1.4772  2.8742 -1.0458
  918MOL0     H21141   3.434   2.515   0.960 -0.4209  1.9624  0.9596
  918MOL0     H21142   3.402   2.724   1.007 -1.0406 -2.4828 -2.6965
  918MOL0     H21143   3.280   2.684   1.124 -4.2760 -1.3769 -0.7194
  918MOL0     H21144   3.161   2.890   1.103 -0.4119  1.7033 -1.8446
  918MOL0     H21145   3.253   2.939   0.967  0.5334  2.2148  1.7707
  918MOL0     H21146   3.371   2.890   1.245 -0.0319 -1.6240  0.0152
  918MOL0     H21147   3.330   3.049   1.184  2.5716  1.0923  0.3442
  918MOL0     H21148   3.551   3.041   1.149 -0.7874 -0.8039  0.6186
  918MOL0     H21149   3.559   2.864   1.100 -0.5278  0.0953 -0.2507
  918MOL0     H21150   3.463   3.063   0.924 -1.2208 -1.8289 -0.3869
  918MOL0     H21151   3.485   2.886   0.882  0.6650  0.4994 -2.2626
  918MOL0     H21152   3.739   2.928   0.897  2.4225  1.6271  0.7193
  918MOL0     H21153   3.699   3.095   0.945 -4.0409  3.5414 -2.0160
  918MOL0     H21154   3.732   3.000   0.690  0.4234  0.8215 -1.7008
  918MOL0     H21155   3.569   3.072   0.708  0.9089  1.1587 -0.7929
  918MOL0     H21156   3.835   3.211   0.770 -0.4777  1.7643  1.2480
  918MOL0     H21157   3.679   3.268   0.810  2.0989  3.3764 -1.7647
  918MOL0     H21158   3.014   2.512   0.867 -0.8359 -2.9762 -1.5731
  918MOL0     H21159   3.033   2.277   0.831 -2.8257  2.3720 -0.4015
  918MOL0     H21160   3.515   1.860   0.985 -1.6131  2.0769  1.6465
  918MOL0     H21161   3.471   1.626   1.037 -0.3884 -0.9081 -0.7142
  918MOL0     H21162   3.171   1.792   2.049  1.2539 -0.7024  0.1677
  918MOL0     H21163   3.000   1.925   2.121 -1.7995 -0.9170  2.0841
  918MOL0     H21164   2.780   2.075   2.490 -0.4314  1.4619  3.5406
  918MOL0     H21165   2.588   2.188   2.596 -0.7339 -0.7188 -0.8933
  918MOL0     H21166   2.364   2.323   2.639  3.4607  3.4018 -0.8298
  918MOL0     H21167   2.359   2.213   2.496  0.9826 -0.1416  1.5141
  918MOL0     H21168   2.197   2.480   2.489  0.3260 -0.3386 -3.1181
  918MOL0     H21169   2.204   2.343   2.381  3.4333 -0.1133 -0.7203
  918MOL0     H21170   2.093   2.342   2.668  2.5815  1.0600 -0.0210
  918MOL0     H21171   2.113   2.196   2.592 -1.9457 -0.1876  2.0769
  918MOL0     H21172   1.879   2.294   2.577 -0.5669  0.8692 -0.9086
  918MOL0     H21173   1.929   2.390   2.440  1.3809 -1.2894 -2.5688
  918MOL0     H21174   1.971   2.066   2.206  0.3923  0.5425 -0.1353
  918MOL0     H21175   2.615   2.496   2.287  1.1479 -1.3193 -2.0102
  918MOL0     H21176   2.784   2.394   2.178 -0.3653  2.2424  1.0972
  919MOL0     O21177   4.030   9.756   3.502 -0.4599  0.2992 -0.4941
  919MOL0     C21178   4.040   9.647   3.561 -0.9286  0.1195  0.4954
  919MOL0     O21179   3.936   9.592   3.625  0.2200  0.4801 -0.4784
  919MOL0     C21180   3.812   9.646   3.634  0.5063  0.4119  0.5483
  919MOL0     C21181   3.763   9.688   3.756 -0.5023 -0.2405  0.3252
  919MOL0     C21182   3.643   9.756   3.751 -0.7663  0.1472  0.0597
  919MOL0     C21183   3.574   9.787   3.632 -0.9709  0.0317 -0.7727
  919MOL0     O21184   3.461   9.866   3.626 -0.3398  0.0359 -0.2896
  919MOL0     C21185   3.354   9.823   3.537  0.2776 -0.5330  0.5261
  919MOL0     C21186   3.305   9.944   3.455  0.7678  1.1132  0.1656
  919MOL0     C21187   3.171  10.008   3.489 -0.0509  1.0984  0.7069
  919MOL0     C21188   3.159  10.071   3.632  0.6718  0.1446  0.7286
  919MOL0     C21189   3.018  10.034   3.696  1.1487 -0.5508 -0.0019
  919MOL0     C21190   3.013  10.103   3.834  0.4131  0.0718 -0.0360
  919MOL0     C21191   3.105  10.045   3.943  0.0601  0.0584  0.3206
  919MOL0     C21192   3.094   9.894   3.964 -0.2716  0.2414 -0.3597
  919MOL0     N21193   3.198   9.845   4.064 -0.2999 -0.2743 -0.4928
  919MOL0     C21194   3.330   9.859   4.039 -0.0229  0.0067 -1.7228
  919MOL0     C21195   3.390   9.826   4.160  0.4950  0.5850  0.2782
  919MOL0     C21196   3.535   9.831   4.204  0.4009  0.2958 -1.0088
  919MOL0     C21197   3.568   9.977   4.219  0.4476  0.2406 -0.9260
  919MOL0     C21198   3.480  10.044   4.324  0.0752 -0.1486 -1.5473
  919MOL0     C21199   3.540  10.168   4.392  1.1191 -0.1627 -0.5114
  919MOL0     O21200   3.645  10.115   4.471  0.3770  0.6128 -0.2605
  919MOL0     C21201   3.637  10.111   4.609 -0.3886  0.8987  0.9837
  919MOL0     C21202   3.514  10.095   4.678  0.8477 -1.2821 -0.0902
  919MOL0     C21203   3.515  10.101   4.815 -1.0083 -0.5806 -0.0189
  919MOL0     C21204   3.633  10.128   4.886  0.3300 -0.3423 -0.1237
  919MOL0     C21205   3.626  10.124   5.040  0.3659  0.5939  0.6600
  919MOL0     O21206   3.505  10.095   5.092  0.6764 -1.0606 -0.3383
  919MOL0     C21207   3.490  10.069   5.230 -0.0453  0.3689  0.4837
  919MOL0     C21208   3.587  10.012   5.307  0.1647  0.0626 -0.0306
  919MOL0     C21209   3.553   9.973   5.439  0.0714 -0.2598  0.6268
  919MOL0     C21210   3.419   9.985   5.488 -0.0895  0.1718 -0.1094
  919MOL0     O21211   3.399   9.930   5.612  0.2234 -0.1474  0.2230
  919MOL0     C21212   3.264   9.914   5.660  0.1867 -0.8253  0.1897
  919MOL0     C21213   3.252   9.894   5.811  0.1546 -0.9263 -0.0859
  919MOL0     C21214   3.110   9.910   5.853 -0.0280  0.0002  0.7870
  919MOL0     C21215   3.010   9.814   5.794  0.4266  0.3442  1.0780
  919MOL0     C21216   2.863   9.852   5.795  0.8582 -0.2763 -0.1740
  919MOL0     C21217   2.795   9.870   5.938 -0.0203 -0.6578 -0.3073
  919MOL0     C21218   2.649   9.894   5.930  0.2324  0.9232  0.8189
  919MOL0     C21219   2.581   9.908   6.062  0.5720  0.0338 -0.5443
  919MOL0    Cl21220   2.421   9.963   6.038 -0.3760 -0.1278  0.1398
  919MOL0     C21221   3.318  10.045   5.405 -0.1874 -0.6887 -0.2460
  919MOL0     C21222   3.359  10.084   5.272 -0.9296  0.8033 -0.2050
  919MOL0     O21223   3.725  10.146   5.107 -0.0435 -0.0370 -0.1482
  919MOL0     C21224   3.758  10.133   4.822 -0.2203 -0.7127 -0.2084
  919MOL0     C21225   3.760  10.122   4.682  1.4382 -0.3760  0.8459
  919MOL0     N21226   3.288   9.788   4.247 -1.5256  0.0858  0.4771
  919MOL0     N21227   3.176   9.812   4.192 -0.0521 -0.0477 -0.0455
  919MOL0     C21228   3.623   9.742   3.514  0.9176 -1.1415  0.2563
  919MOL0     C21229   3.736   9.667   3.514 -0.4223 -0.1542  1.1196
  919MOL0     C21230   4.161   9.561   3.555  0.1624 -1.1187  0.3624
  919MOL0     C21231   4.163   9.443   3.635 -0.2888 -1.0690  0.0199
  919MOL0     C21232   4.271   9.359   3.631 -0.3436  0.3877  0.1076
  919MOL0     C21233   4.389   9.395   3.558 -0.3669 -0.3477  0.0278
  919MOL0     O21234   4.497   9.316   3.574  0.0950  0.1670  0.1581
  919MOL0     C21235   4.506   9.195   3.484 -0.3035  0.0541  0.5083
  919MOL0     C21236   4.630   9.107   3.484 -0.0153  0.6824  1.0440
  919MOL0     C21237   4.632   9.011   3.361 -0.4705 -0.0902  0.1207
  919MOL0     C21238   4.577   8.878   3.401 -0.7981 -0.6904 -0.3166
  919MOL0     C21239   4.621   8.780   3.299  0.8325  0.5620 -0.0677
  919MOL0     C21240   4.672   8.729   3.202 -0.8275  0.9397 -0.7478
  919MOL0     C21241   4.389   9.505   3.477  0.0530  0.5288  1.0338
  919MOL0     C21242   4.282   9.585   3.480  0.1922 -0.6662  0.7391
  919MOL0     H21243   3.824   9.676   3.845  0.1050  1.4519  0.1843
  919MOL0     H21244   3.598   9.800   3.839  0.3985 -0.0045  0.7575
  919MOL0     H21245   3.269   9.794   3.598 -0.5274  3.1747  1.4362
  919MOL0     H21246   3.384   9.748   3.463 -0.0983  0.1136 -0.3084
  919MOL0     H21247   3.293   9.903   3.354  1.8772 -0.8368  0.7735
  919MOL0     H21248   3.387  10.015   3.468  2.3759 -0.3639 -1.3315
  919MOL0     H21249   3.086   9.943   3.467 -0.5498  1.3988  1.6945
  919MOL0     H21250   3.160  10.084   3.410  0.9070 -1.2027 -1.7946
  919MOL0     H21251   3.241  10.050   3.701  0.3746 -1.8096  0.5375
  919MOL0     H21252   3.164  10.180   3.622  2.2881 -0.0237 -0.6187
  919MOL0     H21253   3.008   9.925   3.687  2.4000 -0.5021 -3.3271
  919MOL0     H21254   2.938  10.074   3.633 -1.2883 -4.5734  0.1678
  919MOL0     H21255   2.907  10.096   3.861  1.2010 -0.3353  3.4016
  919MOL0     H21256   3.033  10.210   3.828 -1.4689  0.3989 -2.1875
  919MOL0     H21257   3.206  10.055   3.902 -0.2389 -2.2033 -1.1568
  919MOL0     H21258   3.093  10.101   4.037 -1.7068 -1.1066  0.8446
  919MOL0     H21259   3.100   9.845   3.866 -0.5036  0.9254 -0.7240
  919MOL0     H21260   2.999   9.863   4.010 -0.5318 -0.7143 -1.4773
  919MOL0     H21261   3.366   9.908   3.949 -3.8535  1.4688 -2.7010
  919MOL0     H21262   3.605   9.792   4.129  1.8996 -0.5373  0.7475
  919MOL0     H21263   3.555   9.776   4.296  0.7656  1.5982 -0.2972
  919MOL0     H21264   3.554  10.026   4.122  2.7214  1.2519 -0.7934
  919MOL0     H21265   3.673   9.983   4.246  0.5612 -1.7833 -0.7998
  919MOL0     H21266   3.380  10.066   4.286 -0.5478  0.1851  0.2062
  919MOL0     H21267   3.450   9.967   4.396 -1.3113  0.1636 -1.7641
  919MOL0     H21268   3.465  10.213   4.458 -1.7171 -2.0116 -2.2906
  919MOL0     H21269   3.566  10.240   4.313 -0.3253 -0.4168 -1.2524
  919MOL0     H21270   3.423  10.061   4.630  0.5553  0.4517 -0.8437
  919MOL0     H21271   3.418  10.099   4.865  0.7881 -1.9611  3.7513
  919MOL0     H21272   3.677   9.971   5.264 -0.1818 -0.9375  0.1618
  919MOL0     H21273   3.629   9.917   5.493  2.5396  1.1643 -1.1308
  919MOL0     H21274   3.208   9.835   5.608 -0.0932  1.0009 -2.5299
  919MOL0     H21275   3.219  10.013   5.644  0.1133 -1.1460 -1.9444
  919MOL0     H21276   3.304   9.972   5.869 -0.6715  1.3774 -2.2890
  919MOL0     H21277   3.296   9.797   5.837  1.8421 -0.3156 -0.5443
  919MOL0     H21278   3.061  10.006   5.836 -3.5940 -0.9364  4.1798
  919MOL0     H21279   3.121   9.891   5.960  1.2808 -2.2182  0.3213
  919MOL0     H21280   3.022   9.796   5.687 -0.2946 -1.9448  1.3309
  919MOL0     H21281   3.030   9.719   5.844  1.2128  0.1639  0.4369
  919MOL0     H21282   2.812   9.772   5.742 -0.0380 -1.2931  2.0952
  919MOL0     H21283   2.834   9.937   5.733 -0.2161 -0.4740  0.0436
  919MOL0     H21284   2.835   9.963   5.979  2.8797 -2.1759  0.6348
  919MOL0     H21285   2.825   9.792   6.009 -2.1232 -1.6238 -0.4152
  919MOL0     H21286   2.627   9.986   5.874  1.5728  3.1032  3.5869
  919MOL0     H21287   2.599   9.809   5.884  0.5470 -1.4172  4.3895
  919MOL0     H21288   2.640   9.987   6.108 -0.4420  0.7447 -0.4365
  919MOL0     H21289   2.595   9.824   6.130  1.0900  0.4189 -0.1728
  919MOL0     H21290   3.216  10.062   5.436  0.0130  1.6597 -0.6610
  919MOL0     H21291   3.284  10.133   5.211 -2.8969 -1.8171 -0.0897
  919MOL0     H21292   3.851  10.157   4.873 -0.5460 -0.0287  0.0768
  919MOL0     H21293   3.855  10.113   4.630  0.6271 -1.5616 -0.4582
  919MOL0     H21294   3.567   9.763   3.423  1.7738  0.7942  0.1230
  919MOL0     H21295   3.785   9.637   3.422  0.8104 -1.9761  2.3146
  919MOL0     H21296   4.076   9.407   3.690 -0.9137 -1.3202 -1.1082
  919MOL0     H21297   4.266   9.263   3.681  2.3840 -0.9735 -1.9269
  919MOL0     H21298   4.509   9.240   3.384 -1.7300 -2.8757 -0.9853
  919MOL0     H21299   4.415   9.136   3.495 -0.1150 -0.6934 -1.4963
  919MOL0     H21300   4.722   9.166   3.482 -0.9579  2.2647  1.9447
  919MOL0     H21301   4.634   9.048   3.576 -1.7178 -2.3386 -0.6674
  919MOL0     H21302   4.735   9.002   3.326 -0.9805 -2.5497 -0.9931
  919MOL0     H21303   4.588   9.046   3.267  1.2654  0.3801 -0.5627
  919MOL0     H21304   4.621   8.860   3.499 -1.5594  3.0097  0.8638
  919MOL0     H21305   4.468   8.887   3.408 -0.8689 -1.1598 -0.7287
  919MOL0     H21306   4.713   8.683   3.114  1.7570  1.0103  0.3261
  919MOL0     H21307   4.479   9.532   3.422 -1.8891  0.8463 -2.2805
  919MOL0     H21308   4.291   9.676   3.422  3.2892 -0.8513  0.7268
  920MOL0     O21309  11.147   9.647   9.488  0.5189 -0.2759  0.0656
  920MOL0     C21310  11.032   9.617   9.450 -0.0898  0.0623  0.7550
  920MOL0     O21311  10.939   9.555   9.527 -1.3288  0.4270 -0.9276
  920MOL0     C21312  10.969   9.530   9.664  0.6812 -1.1329  0.5551
  920MOL0     C21313  10.912   9.600   9.766  0.0777  0.1903 -0.6030
  920MOL0     C21314  10.954   9.582   9.902  1.0911 -0.9116 -1.3314
  920MOL0     C21315  11.043   9.482   9.940 -0.6248  0.0752 -0.0891
  920MOL0     O21316  11.075   9.449  10.063  0.5109 -0.7310  0.1687
  920MOL0     C21317  11.064   9.543  10.167 -0.1845 -0.8188 -0.5866
  920MOL0     C21318  11.178   9.644  10.136  0.0714 -0.4289  1.2931
  920MOL0     C21319  11.179   9.757  10.232  0.2818  0.1955 -0.0697
  920MOL0     C21320  11.301   9.843  10.180 -1.1212 -0.1250 -0.2133
  920MOL0     C21321  11.306   9.983  10.241 -0.4223 -0.4019  0.1933
  920MOL0     C21322  11.240  10.091  10.160  0.2874 -0.9139 -0.5478
  920MOL0     C21323  11.321  10.139  10.039 -0.5229 -1.1100  0.6146
  920MOL0     C21324  11.234  10.238   9.961 -0.0505 -0.0029 -1.0806
  920MOL0     N21325  11.293  10.280   9.839 -0.6500  0.3011 -0.5312
  920MOL0     C21326  11.297  10.202   9.726 -0.1195  0.6984  0.9814
  920MOL0     C21327  11.359  10.273   9.632 -0.5888 -1.0233 -0.1980
  920MOL0     C21328  11.360  10.249   9.490 -0.3740 -0.5867  0.4263
  920MOL0     C21329  11.497  10.275   9.428  0.7495 -0.1886 -0.1309
  920MOL0     C21330  11.608  10.184   9.489 -0.8420 -0.7123 -0.1378
  920MOL0     C21331  11.577  10.033   9.501  0.3575 -0.3223  0.2034
  920MOL0     O21332  11.700   9.973   9.535  0.1289  0.8043 -0.0558
  920MOL0     C21333  11.800   9.934   9.439 -0.1537  0.5124 -0.2086
  920MOL0     C21334  11.776   9.934   9.301 -0.2304  0.1869  0.0013
  920MOL0     C21335  11.878   9.893   9.215 -0.3288 -0.3222  0.3997
  920MOL0     C21336  12.010   9.867   9.249 -0.3843 -0.7523 -0.5385
  920MOL0     C21337  12.113   9.848   9.149  0.2752  0.5691 -0.1731
  920MOL0     O21338  12.233   9.801   9.193  0.2341  0.1678 -0.4224
  920MOL0     C21339  12.318   9.759   9.090  0.2506  0.0062 -0.3471
  920MOL0     C21340  12.412   9.848   9.029 -0.1371  0.1337 -0.8735
  920MOL0     C21341  12.488   9.811   8.926 -0.2663  0.4101  0.0950
  920MOL0     C21342  12.476   9.680   8.879 -0.4763 -0.1348  0.0371
  920MOL0     O21343  12.558   9.645   8.770  0.1680  0.4513 -0.1847
  920MOL0     C21344  12.614   9.514   8.776 -0.3680 -0.2645 -0.2989
  920MOL0     C21345  12.712   9.489   8.659  0.0217 -0.0245 -0.2390
  920MOL0     C21346  12.789   9.354   8.682  0.0159 -0.4135  0.1557
  920MOL0     C21347  12.690   9.245   8.647  0.5727  1.6362  0.0411
  920MOL0     C21348  12.761   9.113   8.623 -0.1490 -0.3847  0.6364
  920MOL0     C21349  12.861   9.121   8.498 -0.0196 -0.2265  0.9147
  920MOL0     C21350  12.913   8.984   8.473 -1.6522  0.3635 -0.1398
  920MOL0     C21351  12.810   8.883   8.414 -0.0186  0.1970 -0.4715
  920MOL0    Cl21352  12.798   8.914   8.230 -0.1315  0.4483  0.8313
  920MOL0     C21353  12.386   9.591   8.932 -0.4547  0.1215  0.1383
  920MOL0     C21354  12.316   9.623   9.048  1.3368 -0.3387  0.2564
  920MOL0     O21355  12.073   9.854   9.030 -0.2084 -0.2682 -0.2530
  920MOL0     C21356  12.031   9.862   9.394 -0.6625 -0.1342 -0.4178
  920MOL0     C21357  11.927   9.889   9.490  0.1461  0.4777  0.8154
  920MOL0     N21358  11.417  10.378   9.693  0.0536 -0.6589 -0.3898
  920MOL0     N21359  11.376  10.387   9.817  0.5388  0.2203 -0.3102
  920MOL0     C21360  11.108   9.414   9.836 -1.3969 -0.2822 -0.8010
  920MOL0     C21361  11.074   9.437   9.700  0.4942 -0.2177  0.2712
  920MOL0     C21362  11.003   9.649   9.305  0.0211  0.3938 -0.3812
  920MOL0     C21363  10.869   9.653   9.265  0.0390  0.1483 -0.1634
  920MOL0     C21364  10.824   9.652   9.132 -0.2124 -0.1700  0.2783
  920MOL0     C21365  10.919   9.665   9.032  0.3026 -0.7065 -0.6901
  920MOL0     O21366  10.879   9.674   8.906  0.1407 -0.7056  0.4958
  920MOL0     C21367  10.877   9.554   8.832  0.7170  0.3785 -0.6280
  920MOL0     C21368  10.750   9.533   8.744 -0.8918  0.2569 -0.2304
  920MOL0     C21369  10.776   9.555   8.599 -0.4849 -0.7943  0.4721
  920MOL0     C21370  10.744   9.687   8.538  0.1789 -0.8665  0.3473
  920MOL0     C21371  10.594   9.725   8.548 -0.2652  0.2798  0.3768
  920MOL0     C21372  10.479   9.755   8.567 -1.1721 -0.5255 -0.5511
  920MOL0     C21373  11.051   9.670   9.070 -0.5600 -1.1975  0.2325
  920MOL0     C21374  11.103   9.659   9.206 -0.0329 -0.6813  0.3561
  920MOL0     H21375  10.843   9.681   9.743 -1.4574 -1.8353 -3.9824
  920MOL0     H21376  10.906   9.634   9.984  1.4617 -0.0154 -1.6647
  920MOL0     H21377  11.078   9.498  10.266 -3.6768 -1.8362 -0.4435
  920MOL0     H21378  10.962   9.581  10.173  0.0386 -0.4159  1.7697
  920MOL0     H21379  11.178   9.678  10.032 -1.9408 -1.8314  0.7717
  920MOL0     H21380  11.268   9.583  10.147  1.2485  1.4170  2.2739
  920MOL0     H21381  11.183   9.734  10.339  2.1765  1.1187  0.1009
  920MOL0     H21382  11.089   9.818  10.214 -0.7498 -1.0330  0.7418
  920MOL0     H21383  11.392   9.792  10.212 -0.1113  3.5015  3.5838
  920MOL0     H21384  11.295   9.854  10.072  1.4132  2.6554 -0.1822
  920MOL0     H21385  11.410  10.013  10.261  0.3113 -0.1042 -3.4888
  920MOL0     H21386  11.257   9.978  10.339 -2.5720  0.2414 -0.8005
  920MOL0     H21387  11.215  10.174  10.227  1.6888  1.6231 -2.9770
  920MOL0     H21388  11.142  10.055  10.128  0.6713 -1.9136 -0.6417
  920MOL0     H21389  11.417  10.182  10.069  0.1359 -1.9666 -0.2020
  920MOL0     H21390  11.336  10.053   9.973  0.7112 -1.6411  1.5470
  920MOL0     H21391  11.214  10.326  10.023  2.4371 -0.2315  0.1882
  920MOL0     H21392  11.136  10.199   9.935 -0.3626  0.8005 -1.1372
  920MOL0     H21393  11.255  10.107   9.695  0.1667  0.4391  1.3597
  920MOL0     H21394  11.287  10.314   9.440  1.8293  0.3012 -1.8438
  920MOL0     H21395  11.331  10.148   9.460  2.2812 -0.8020 -1.7965
  920MOL0     H21396  11.514  10.383   9.421  0.8179 -0.0789  1.3483
  920MOL0     H21397  11.486  10.242   9.325 -3.4079 -1.7679  0.6457
  920MOL0     H21398  11.696  10.200   9.426 -2.5839  0.3435 -2.4454
  920MOL0     H21399  11.633  10.214   9.591 -0.3502 -2.2758  0.2349
  920MOL0     H21400  11.534   9.989   9.411 -0.6856  0.7306  0.1766
  920MOL0     H21401  11.515  10.019   9.589  0.1948  0.1033  0.1583
  920MOL0     H21402  11.680   9.964   9.261  0.7174 -1.5925 -4.0647
  920MOL0     H21403  11.863   9.899   9.107  0.3287 -3.2018  0.0833
  920MOL0     H21404  12.437   9.949   9.060  3.1049 -0.7150 -0.3504
  920MOL0     H21405  12.555   9.881   8.877 -0.6344  0.6224 -0.1103
  920MOL0     H21406  12.528   9.446   8.766  0.4606 -1.6690  1.5455
  920MOL0     H21407  12.661   9.498   8.874 -0.4254 -2.7022 -0.6044
  920MOL0     H21408  12.788   9.567   8.646 -0.0380  0.4776  2.0631
  920MOL0     H21409  12.655   9.489   8.566 -0.2940  0.9516 -0.0573
  920MOL0     H21410  12.829   9.337   8.782 -0.8815 -2.3075  0.2405
  920MOL0     H21411  12.876   9.355   8.617 -0.0341  1.8554  0.0528
  920MOL0     H21412  12.615   9.230   8.726 -1.4441 -0.0109 -2.0243
  920MOL0     H21413  12.635   9.265   8.555 -0.5204 -1.9915 -0.2679
  920MOL0     H21414  12.698   9.025   8.612  1.8033 -1.8801  0.9336
  920MOL0     H21415  12.825   9.102   8.712  0.5754  0.2828  0.2071
  920MOL0     H21416  12.955   9.173   8.520 -0.3780  2.0875 -2.3306
  920MOL0     H21417  12.814   9.159   8.407  2.2014  1.3922  0.3605
  920MOL0     H21418  13.002   8.997   8.411  0.8927  1.0363  3.3444
  920MOL0     H21419  12.946   8.938   8.568 -1.6381 -1.2773 -0.8983
  920MOL0     H21420  12.711   8.891   8.460 -0.1852 -0.7091 -0.6575
  920MOL0     H21421  12.852   8.783   8.427  1.5073  0.8754 -0.0156
  920MOL0     H21422  12.377   9.491   8.892 -2.0731  0.1123  0.4362
  920MOL0     H21423  12.244   9.554   9.090  0.9803 -0.9094 -1.2515
  920MOL0     H21424  12.137   9.848   9.415 -0.7790  0.5412  0.7390
  920MOL0     H21425  11.935   9.885   9.598  0.7336  0.3809  0.7708
  920MOL0     H21426  11.179   9.337   9.865 -1.2193  0.7422  1.7145
  920MOL0     H21427  11.128   9.382   9.624  1.2320  2.5004 -1.2969
  920MOL0     H21428  10.796   9.646   9.345 -1.3071  3.7258 -0.8739
  920MOL0     H21429  10.718   9.650   9.110 -0.1124 -0.4928 -0.1816
  920MOL0     H21430  10.870   9.478   8.910  0.6235 -0.2641 -1.2545
  920MOL0     H21431  10.974   9.535   8.785  0.8248  0.3831 -0.4088
  920MOL0     H21432  10.728   9.426   8.749  0.1064 -0.1133 -2.6338
  920MOL0     H21433  10.669   9.598   8.778 -0.0425  1.5736 -0.6801
  920MOL0     H21434  10.726   9.476   8.542 -0.2272 -0.2949 -0.4521
  920MOL0     H21435  10.882   9.533   8.580 -0.4366 -0.6849  0.6114
  920MOL0     H21436  10.812   9.765   8.577 -0.6059  1.2842 -2.3049
  920MOL0     H21437  10.756   9.677   8.430  0.2835  1.2806  0.1136
  920MOL0     H21438  10.377   9.773   8.595 -0.1573 -0.2268  3.5010
  920MOL0     H21439  11.126   9.670   8.992 -0.0024 -1.7458  0.7657
  920MOL0     H21440  11.210   9.653   9.226  0.4892 -1.2494 -2.2044
  921MOL0     O21441   8.089  10.605   8.386 -0.8232  0.3113 -0.5186
  921MOL0     C21442   8.010  10.687   8.349 -0.3469  0.2200 -0.1969
  921MOL0     O21443   8.042  10.800   8.270  0.0542 -0.1292 -0.6672
  921MOL0     C21444   8.164  10.835   8.215  0.7336 -0.3948  0.6877
  921MOL0     C21445   8.200  10.742   8.114  0.0043  0.0738 -0.5524
  921MOL0     C21446   8.332  10.751   8.066  0.7742 -0.1588 -0.7733
  921MOL0     C21447   8.417  10.858   8.114 -0.2707  0.7483  0.4405
  921MOL0     O21448   8.541  10.877   8.049 -0.1167  0.5359  0.4887
  921MOL0     C21449   8.642  10.780   8.088  0.7862  0.0560  0.0964
  921MOL0     C21450   8.780  10.825   8.048  1.5711 -0.5388 -0.4669
  921MOL0     C21451   8.798  10.783   7.900  1.4471 -0.3020 -0.7421
  921MOL0     C21452   8.936  10.821   7.843  0.9033  0.2274 -0.3768
  921MOL0     C21453   8.972  10.739   7.722 -0.6780 -0.0307 -0.3026
  921MOL0     C21454   9.113  10.760   7.670 -1.0954 -1.2373  0.1698
  921MOL0     C21455   9.144  10.667   7.551 -0.2275 -0.6686  0.2180
  921MOL0     C21456   9.268  10.710   7.464  1.0235  0.3649  0.0677
  921MOL0     N21457   9.382  10.767   7.543 -0.2071 -0.0854 -0.8868
  921MOL0     C21458   9.457  10.703   7.635 -0.4736  0.8391  0.0851
  921MOL0     C21459   9.561  10.788   7.662 -0.1954 -1.1219 -0.0729
  921MOL0     C21460   9.678  10.776   7.761 -0.3506 -0.0668  0.0638
  921MOL0     C21461   9.796  10.688   7.706  0.0003  0.2360  0.4913
  921MOL0     C21462   9.909  10.782   7.655  0.0556 -0.4018 -0.1563
  921MOL0     C21463  10.016  10.707   7.586 -0.0384 -0.6981 -0.0443
  921MOL0     O21464  10.088  10.616   7.660  1.3542 -0.6913  0.0598
  921MOL0     C21465  10.093  10.486   7.616  0.6660  0.0945 -0.1365
  921MOL0     C21466  10.217  10.424   7.596  0.0383 -0.1646  0.2022
  921MOL0     C21467  10.230  10.284   7.584  0.0010 -0.2595  0.0887
  921MOL0     C21468  10.119  10.211   7.567 -0.4655  0.3078 -0.4919
  921MOL0     C21469  10.135  10.074   7.511 -0.2671 -0.9233  0.6085
  921MOL0     O21470  10.258  10.039   7.476  0.1619 -0.2105  0.7034
  921MOL0     C21471  10.282   9.919   7.417  0.1579  0.2876 -0.5593
  921MOL0     C21472  10.362   9.932   7.300 -1.0256  0.2764  0.1154
  921MOL0     C21473  10.415   9.821   7.239 -0.3305  0.3328 -0.4342
  921MOL0     C21474  10.365   9.694   7.271  1.3930 -0.5557  0.3779
  921MOL0     O21475  10.411   9.590   7.197 -0.2309  0.5297 -0.0229
  921MOL0     C21476  10.331   9.474   7.174  0.1602  0.8942 -0.4300
  921MOL0     C21477  10.359   9.404   7.044 -0.3684 -0.0646  0.2972
  921MOL0     C21478  10.342   9.489   6.919 -0.1486 -0.1556  0.0494
  921MOL0     C21479  10.384   9.406   6.801  0.0866 -0.3480  0.4075
  921MOL0     C21480  10.373   9.492   6.672  0.5781 -0.3365 -0.4649
  921MOL0     C21481  10.507   9.566   6.652  0.1923 -0.1710  0.2897
  921MOL0     C21482  10.476   9.647   6.529  0.2786  0.6886 -0.1743
  921MOL0     C21483  10.604   9.729   6.509  0.4976 -0.0861 -1.1125
  921MOL0    Cl21484  10.731   9.623   6.455  0.1353 -0.3388  0.2817
  921MOL0     C21485  10.288   9.682   7.389  0.9589  0.0539 -0.4733
  921MOL0     C21486  10.251   9.795   7.456  0.4138 -1.0617 -0.5353
  921MOL0     O21487  10.037  10.006   7.502  0.4637  0.5330  0.1222
  921MOL0     C21488   9.990  10.268   7.574 -0.0931 -0.2860 -0.7465
  921MOL0     C21489   9.979  10.407   7.616  0.2128  0.0394 -0.0812
  921MOL0     N21490   9.524  10.906   7.600 -0.5650  0.1286 -0.3362
  921MOL0     N21491   9.427  10.887   7.524  0.4369 -0.1524  0.2546
  921MOL0     C21492   8.361  10.961   8.199 -0.4588  0.6169 -0.0351
  921MOL0     C21493   8.234  10.951   8.244 -0.6658 -0.4589 -0.3056
  921MOL0     C21494   7.881  10.689   8.427 -0.8082  0.7656  1.0079
  921MOL0     C21495   7.864  10.595   8.520  0.4633  0.6679 -0.4846
  921MOL0     C21496   7.752  10.596   8.597  0.2471 -0.2382 -0.0725
  921MOL0     C21497   7.645  10.695   8.593  0.6225  0.0207  0.6436
  921MOL0     O21498   7.533  10.701   8.679 -0.2418  0.1285  0.6188
  921MOL0     C21499   7.517  10.601   8.781 -0.1556  0.0685 -0.0156
  921MOL0     C21500   7.442  10.478   8.718  0.5532  0.6766 -0.3415
  921MOL0     C21501   7.286  10.504   8.722  0.1516  0.3031 -0.0379
  921MOL0     C21502   7.225  10.594   8.617 -0.5145 -1.2330  0.3091
  921MOL0     C21503   7.079  10.602   8.622  0.2835  0.9203 -0.1267
  921MOL0     C21504   6.962  10.622   8.628 -0.1588 -0.0494  0.3950
  921MOL0     C21505   7.671  10.788   8.491 -1.1131 -0.2825 -0.3584
  921MOL0     C21506   7.790  10.786   8.412  0.4328 -0.5375  0.4601
  921MOL0     H21507   8.133  10.661   8.086 -0.7743 -0.4751  2.5303
  921MOL0     H21508   8.368  10.682   7.991  1.4180  1.1738 -1.7315
  921MOL0     H21509   8.618  10.683   8.043  2.6895 -1.0546  1.3659
  921MOL0     H21510   8.641  10.763   8.196  4.0356 -3.4940 -0.2326
  921MOL0     H21511   8.857  10.797   8.121  0.6099  1.7133  1.5813
  921MOL0     H21512   8.772  10.934   8.049  3.8457 -0.3277 -0.9491
  921MOL0     H21513   8.712  10.818   7.843  0.4619  0.0524  0.8920
  921MOL0     H21514   8.790  10.674   7.895  1.3903 -0.3760  0.5315
  921MOL0     H21515   8.942  10.928   7.820  1.7075  0.1945 -0.3338
  921MOL0     H21516   9.020  10.811   7.913  2.4074  3.4667 -1.4924
  921MOL0     H21517   8.906  10.772   7.642  1.1845  2.7402 -0.8232
  921MOL0     H21518   8.958  10.631   7.728 -0.3311 -0.0050  1.8306
  921MOL0     H21519   9.192  10.730   7.739 -0.1471 -0.3570 -0.4862
  921MOL0     H21520   9.132  10.864   7.638  3.0439 -2.5974 -2.7613
  921MOL0     H21521   9.169  10.572   7.600  1.9364 -0.2927 -0.0468
  921MOL0     H21522   9.055  10.654   7.490  0.9538 -0.8098 -1.5408
  921MOL0     H21523   9.231  10.782   7.390 -0.2392 -2.0250 -1.7739
  921MOL0     H21524   9.301  10.631   7.397  0.4967  2.2088 -2.5427
  921MOL0     H21525   9.454  10.600   7.670 -0.5037  0.3233 -1.3370
  921MOL0     H21526   9.632  10.722   7.844 -0.5452 -1.4192 -0.8896
  921MOL0     H21527   9.712  10.875   7.792 -0.2916  0.1491 -0.6700
  921MOL0     H21528   9.755  10.617   7.633 -2.0849  0.9252  0.9263
  921MOL0     H21529   9.836  10.640   7.795 -2.6485  2.1231  2.8687
  921MOL0     H21530   9.854  10.851   7.589 -2.0926 -0.5549  1.3563
  921MOL0     H21531   9.949  10.847   7.732  1.6268  2.1551 -2.9061
  921MOL0     H21532  10.082  10.787   7.551 -2.2171  0.9011 -0.7671
  921MOL0     H21533   9.965  10.667   7.498 -1.6059  1.1059 -0.0294
  921MOL0     H21534  10.311  10.477   7.596  0.1818 -0.4143  0.3881
  921MOL0     H21535  10.332  10.247   7.578 -0.6093 -2.8218  2.9779
  921MOL0     H21536  10.366  10.027   7.247  0.8813  0.3076  0.2383
  921MOL0     H21537  10.480   9.837   7.154  0.3598 -2.6056 -0.5710
  921MOL0     H21538  10.225   9.500   7.171 -0.1680 -0.4025 -0.7301
  921MOL0     H21539  10.357   9.395   7.245  0.4431  0.6181 -0.8356
  921MOL0     H21540  10.294   9.316   7.040 -0.3735 -0.1830  2.1491
  921MOL0     H21541  10.463   9.371   7.042 -1.2130 -3.1390  1.0969
  921MOL0     H21542  10.397   9.584   6.926  3.3280 -2.0376  0.6231
  921MOL0     H21543  10.236   9.516   6.920 -0.9864 -3.0847  1.9475
  921MOL0     H21544  10.488   9.373   6.811 -0.0681 -2.0859 -2.5648
  921MOL0     H21545  10.324   9.315   6.790 -0.6898 -0.4212  4.0505
  921MOL0     H21546  10.285   9.557   6.682 -0.8342 -2.3732  1.5266
  921MOL0     H21547  10.356   9.435   6.580 -0.8032  2.7454 -2.2561
  921MOL0     H21548  10.587   9.494   6.634  1.3433  1.3324 -1.0224
  921MOL0     H21549  10.524   9.628   6.741  3.4150 -0.4142 -0.0462
  921MOL0     H21550  10.456   9.583   6.443  0.8745 -1.5355  1.2475
  921MOL0     H21551  10.392   9.711   6.558  0.3343  0.7568 -0.1624
  921MOL0     H21552  10.625   9.790   6.598 -2.2688 -0.8966  0.2243
  921MOL0     H21553  10.581   9.799   6.428 -1.2008  0.8970  0.1201
  921MOL0     H21554  10.255   9.590   7.434 -1.2412  0.1149 -1.8235
  921MOL0     H21555  10.179   9.776   7.536  1.8312  1.3112  1.4361
  921MOL0     H21556   9.901  10.221   7.535 -0.0712  0.2369 -1.4662
  921MOL0     H21557   9.884  10.455   7.641 -1.0506 -2.2323 -0.2802
  921MOL0     H21558   8.404  11.058   8.221 -2.8982  1.2444  2.5118
  921MOL0     H21559   8.183  11.033   8.293 -0.5466 -0.5964  0.0527
  921MOL0     H21560   7.933  10.514   8.542 -1.4321 -0.6395  1.0863
  921MOL0     H21561   7.735  10.525   8.677 -0.7999  1.5940  1.4044
  921MOL0     H21562   7.457  10.646   8.860  0.8666 -0.0057  0.8087
  921MOL0     H21563   7.616  10.582   8.823 -0.4862 -1.7005  0.0717
  921MOL0     H21564   7.469  10.497   8.614 -1.8130  4.3831 -0.4444
  921MOL0     H21565   7.466  10.386   8.772 -2.1889 -0.0115 -0.1626
  921MOL0     H21566   7.268  10.545   8.821  1.3535  1.2695 -0.1929
  921MOL0     H21567   7.225  10.413   8.716 -2.1989  1.8645 -1.7914
  921MOL0     H21568   7.276  10.690   8.626  0.3410 -1.7940  1.9989
  921MOL0     H21569   7.252  10.557   8.517  0.8025  0.1566  0.1212
  921MOL0     H21570   6.856  10.628   8.641 -0.6223 -2.4274 -1.5198
  921MOL0     H21571   7.603  10.872   8.496 -0.4156  0.2106  2.4879
  921MOL0     H21572   7.795  10.870   8.343 -2.0923 -1.5904 -1.1863
  922MOL0     O21573  10.644   7.965   4.926  0.4239 -0.4371 -0.2970
  922MOL0     C21574  10.614   8.077   4.965  0.0125 -0.1798 -1.7513
  922MOL0     O21575  10.705   8.164   5.022 -0.2098  0.5273  0.1108
  922MOL0     C21576  10.841   8.139   5.006  1.3061  0.4767  0.4478
  922MOL0     C21577  10.917   8.244   4.957 -0.3753  0.1188 -1.0661
  922MOL0     C21578  11.057   8.229   4.954 -0.9205  0.4921  0.5348
  922MOL0     C21579  11.117   8.119   5.013 -0.0178  0.0161  0.5669
  922MOL0     O21580  11.252   8.103   5.015 -0.8050 -0.3210  0.6081
  922MOL0     C21581  11.316   8.131   4.892  1.1829  0.7667 -0.6982
  922MOL0     C21582  11.443   8.060   4.899  0.1301 -0.4564 -0.6405
  922MOL0     C21583  11.526   8.081   4.769 -0.3744 -0.6946 -0.1813
  922MOL0     C21584  11.676   8.023   4.790  0.2341 -0.0213 -0.6450
  922MOL0     C21585  11.783   8.127   4.743 -0.0109 -0.6003 -1.0880
  922MOL0     C21586  11.872   8.070   4.633 -0.4839  0.4578 -0.5109
  922MOL0     C21587  11.993   8.155   4.618  0.8228 -0.5627  1.0380
  922MOL0     C21588  12.090   8.119   4.494  0.3282 -1.0359 -0.1798
  922MOL0     N21589  12.094   7.982   4.445 -1.0528 -0.6074 -1.0142
  922MOL0     C21590  12.178   7.874   4.485  0.7408 -0.8281 -0.1968
  922MOL0     C21591  12.120   7.767   4.428 -0.3624 -0.4526  0.5916
  922MOL0     C21592  12.162   7.625   4.452 -0.4929 -0.3137  0.0203
  922MOL0     C21593  12.307   7.601   4.403 -0.0645  0.0345 -0.1858
  922MOL0     C21594  12.363   7.465   4.432  0.6772  0.5023 -0.3453
  922MOL0     C21595  12.510   7.471   4.382 -0.1604 -0.5012 -0.5924
  922MOL0     O21596  12.602   7.374   4.450 -0.9474  0.3474  0.3341
  922MOL0     C21597  12.581   7.242   4.419 -0.1941 -0.1917 -0.5570
  922MOL0     C21598  12.673   7.156   4.483 -0.6465  0.8750  0.1407
  922MOL0     C21599  12.658   7.020   4.481  1.1115  0.0321 -0.2793
  922MOL0     C21600  12.543   6.954   4.435 -1.2434  0.3677 -0.1790
  922MOL0     C21601  12.528   6.819   4.463 -0.5347  0.7161 -0.2085
  922MOL0     O21602  12.415   6.767   4.423  0.3796 -0.2426 -0.3504
  922MOL0     C21603  12.357   6.662   4.483  0.5773  0.3410 -0.5667
  922MOL0     C21604  12.325   6.662   4.612 -0.5889  0.3355 -0.2452
  922MOL0     C21605  12.263   6.547   4.676  0.2700 -1.2299  0.3128
  922MOL0     C21606  12.212   6.440   4.603  0.0248  0.1209 -0.1717
  922MOL0     O21607  12.167   6.337   4.677 -0.2888  0.9176  0.4596
  922MOL0     C21608  12.123   6.210   4.618 -1.0405  0.6886 -0.0897
  922MOL0     C21609  12.235   6.123   4.594  0.1124 -0.1752 -0.3050
  922MOL0     C21610  12.311   6.095   4.724 -1.0321  0.6328  0.2054
  922MOL0     C21611  12.425   6.004   4.690 -0.3891 -0.8817  0.4745
  922MOL0     C21612  12.495   5.952   4.816  0.2217  0.3511  0.3265
  922MOL0     C21613  12.563   5.808   4.793 -0.0052  0.4090  0.2770
  922MOL0     C21614  12.671   5.822   4.684 -1.0166  0.0781  0.6777
  922MOL0     C21615  12.646   5.727   4.569  0.6864  0.6939  0.8536
  922MOL0    Cl21616  12.511   5.785   4.464  0.1661 -0.1417  0.6074
  922MOL0     C21617  12.235   6.444   4.465 -0.5780 -0.5271  0.9804
  922MOL0     C21618  12.296   6.563   4.404 -0.1942  0.2755 -0.0851
  922MOL0     O21619  12.606   6.768   4.549  0.2405 -0.6375  0.2155
  922MOL0     C21620  12.454   7.035   4.361 -0.2393 -0.0247  0.4843
  922MOL0     C21621  12.469   7.175   4.351 -0.6243  0.1120 -0.3549
  922MOL0     N21622  12.018   7.819   4.342 -0.6015  0.1266 -0.5087
  922MOL0     N21623  12.007   7.947   4.352 -0.4543  0.0886  0.7402
  922MOL0     C21624  11.042   8.024   5.082  0.1395 -0.4773  0.3981
  922MOL0     C21625  10.908   8.027   5.071  0.1367 -0.0711 -0.6654
  922MOL0     C21626  10.461   8.111   4.973 -0.4353  0.3146 -0.0165
  922MOL0     C21627  10.374   8.024   4.909 -0.0037 -0.8619 -0.5985
  922MOL0     C21628  10.233   8.047   4.907 -0.1606 -0.7085  0.2239
  922MOL0     C21629  10.184   8.155   4.985  0.2051 -0.1543 -0.4564
  922MOL0     O21630  10.062   8.197   5.012  0.0880  0.1593  0.3772
  922MOL0     C21631   9.963   8.092   5.026  0.1002 -0.1239  1.4965
  922MOL0     C21632   9.868   8.085   4.900  0.3371 -0.2862  0.6970
  922MOL0     C21633   9.745   8.169   4.904  0.7819  1.0370  0.2261
  922MOL0     C21634   9.774   8.328   4.892  0.4253  0.0207  0.9667
  922MOL0     C21635   9.796   8.381   4.757  0.1394 -0.7983  0.6581
  922MOL0     C21636   9.808   8.405   4.637  0.2125 -0.3352  0.3726
  922MOL0     C21637  10.276   8.243   5.031 -1.1297 -0.1773  0.0745
  922MOL0     C21638  10.413   8.227   5.027  0.1686  0.9724 -0.3182
  922MOL0     H21639  10.868   8.328   4.908  0.7245  1.5833  0.2631
  922MOL0     H21640  11.111   8.292   4.884 -1.0679 -1.2483 -1.2122
  922MOL0     H21641  11.337   8.238   4.880  1.2203  0.5010 -3.7052
  922MOL0     H21642  11.263   8.085   4.809 -1.3853  0.8836  0.7753
  922MOL0     H21643  11.418   7.954   4.911 -3.5241  0.4019  0.6658
  922MOL0     H21644  11.500   8.078   4.990  3.6039 -0.2288 -2.6682
  922MOL0     H21645  11.524   8.186   4.739 -2.4991 -0.0607  1.9381
  922MOL0     H21646  11.476   8.030   4.685  0.1046 -1.3710 -0.0645
  922MOL0     H21647  11.693   7.988   4.892 -0.8495 -3.2810 -1.4501
  922MOL0     H21648  11.690   7.933   4.728 -4.8853  0.1806 -2.5512
  922MOL0     H21649  11.837   8.150   4.836 -2.4222 -2.2668  0.8666
  922MOL0     H21650  11.738   8.214   4.695 -0.7613  0.7532  1.8085
  922MOL0     H21651  11.812   8.070   4.542  0.0532  0.3427 -0.8641
  922MOL0     H21652  11.908   7.971   4.665 -3.7977 -1.1678 -1.3446
  922MOL0     H21653  11.971   8.262   4.622  2.9110 -0.0217 -0.4417
  922MOL0     H21654  12.058   8.136   4.704  0.8205 -1.0957  0.9262
  922MOL0     H21655  12.190   8.154   4.521  0.7026  0.5137 -3.1409
  922MOL0     H21656  12.065   8.190   4.414 -1.6621  0.0223  1.3022
  922MOL0     H21657  12.262   7.872   4.553 -0.5892 -0.2455  1.5375
  922MOL0     H21658  12.096   7.560   4.394 -1.1508  1.9419 -1.9083
  922MOL0     H21659  12.167   7.599   4.558 -2.2379  0.9443  0.4476
  922MOL0     H21660  12.370   7.676   4.451 -1.8655 -0.0592  2.5811
  922MOL0     H21661  12.300   7.617   4.295  1.9728 -0.9525 -0.4946
  922MOL0     H21662  12.356   7.452   4.541  0.9661  3.9368  0.2013
  922MOL0     H21663  12.303   7.392   4.378  0.8559  1.2828 -1.6390
  922MOL0     H21664  12.541   7.575   4.390 -4.1513  0.8688 -0.9114
  922MOL0     H21665  12.515   7.433   4.279 -0.6843 -2.6342  0.1254
  922MOL0     H21666  12.761   7.203   4.527  0.2827  0.0252 -0.7664
  922MOL0     H21667  12.738   6.960   4.524  1.2642 -0.7257 -1.5755
  922MOL0     H21668  12.366   6.743   4.671  0.0795 -1.0034  1.2168
  922MOL0     H21669  12.254   6.556   4.784 -1.4848 -0.6771  0.1578
  922MOL0     H21670  12.071   6.231   4.524  1.2773 -1.0673 -1.9199
  922MOL0     H21671  12.055   6.160   4.687 -0.6484  1.6841  1.0491
  922MOL0     H21672  12.305   6.170   4.523 -0.1369 -1.0785 -1.1794
  922MOL0     H21673  12.197   6.032   4.546 -2.6548  0.4124  0.6073
  922MOL0     H21674  12.236   6.049   4.788 -1.3214 -0.4490 -0.8808
  922MOL0     H21675  12.345   6.190   4.768  3.1385 -0.7707  0.4641
  922MOL0     H21676  12.386   5.915   4.639  1.1268 -1.5552  0.4027
  922MOL0     H21677  12.497   6.038   4.614  0.6807 -2.9585  0.4731
  922MOL0     H21678  12.431   5.947   4.905 -0.9388 -2.0669 -0.5779
  922MOL0     H21679  12.576   6.021   4.842  2.5564 -1.6027 -1.3518
  922MOL0     H21680  12.489   5.731   4.768 -0.1953  0.8820 -0.6485
  922MOL0     H21681  12.615   5.771   4.882 -0.5232  0.5362  0.6386
  922MOL0     H21682  12.697   5.926   4.662  0.5721 -0.4555 -0.0756
  922MOL0     H21683  12.765   5.796   4.733  2.1645  3.6641 -2.9115
  922MOL0     H21684  12.624   5.628   4.610  0.6862  0.6333  0.7061
  922MOL0     H21685  12.743   5.717   4.521  1.0396 -0.0829  1.6948
  922MOL0     H21686  12.221   6.351   4.411  2.0192 -1.9895  2.5788
  922MOL0     H21687  12.314   6.560   4.297  0.4399  0.5535  0.0063
  922MOL0     H21688  12.362   6.992   4.323 -1.5639  2.8429  0.1685
  922MOL0     H21689  12.404   7.242   4.294  1.8926  1.8920 -1.3097
  922MOL0     H21690  11.079   7.928   5.116 -0.6739 -1.0954 -0.4050
  922MOL0     H21691  10.843   7.949   5.108 -0.4377  0.3001 -0.8709
  922MOL0     H21692  10.402   7.945   4.840  2.8566  0.0741 -0.6178
  922MOL0     H21693  10.174   7.978   4.847  3.1178 -1.9359 -1.8581
  922MOL0     H21694   9.893   8.118   5.105 -2.0312  2.3723 -1.0013
  922MOL0     H21695  10.014   7.995   5.039 -0.7610 -0.7679  0.2749
  922MOL0     H21696   9.915   8.109   4.805 -0.3859 -0.2961  0.3337
  922MOL0     H21697   9.834   7.981   4.889  0.2432  0.0355 -3.6165
  922MOL0     H21698   9.692   8.139   4.995  3.0465 -1.1353  0.9477
  922MOL0     H21699   9.674   8.148   4.824 -1.8244  1.5265  2.2594
  922MOL0     H21700   9.681   8.375   4.927  0.0091 -1.7922  2.4390
  922MOL0     H21701   9.851   8.364   4.961  2.6610 -2.5381 -0.0214
  922MOL0     H21702   9.804   8.410   4.530 -2.8482  0.9835  0.4266
  922MOL0     H21703  10.236   8.339   5.062  0.7916 -0.0008  2.2664
  922MOL0     H21704  10.480   8.293   5.080  0.3165 -0.5581  1.5093
  923MOL0     O21705   6.580   5.407   0.272  0.0275 -0.2351  0.4804
  923MOL0     C21706   6.513   5.342   0.187  0.2205 -0.7988 -0.4977
  923MOL0     O21707   6.468   5.389   0.067 -0.4819  0.3471  0.3956
  923MOL0     C21708   6.445   5.516   0.048  0.5506 -0.5273  0.7757
  923MOL0     C21709   6.545   5.610   0.046  0.8046  0.1385 -0.1975
  923MOL0     C21710   6.519   5.748   0.015  0.2503  0.1876 -0.4228
  923MOL0     C21711   6.386   5.795   0.006  0.3213 -0.0974 -0.3550
  923MOL0     O21712   6.340   5.923  -0.038 -0.1910  0.4363 -0.0526
  923MOL0     C21713   6.429   6.035  -0.026 -0.4202  0.0902  0.1868
  923MOL0     C21714   6.517   6.055  -0.151 -0.2986  0.7386 -0.5459
  923MOL0     C21715   6.601   6.183  -0.125  0.5947  0.2453  0.0354
  923MOL0     C21716   6.524   6.308  -0.102 -0.6678 -0.3578 -0.2652
  923MOL0     C21717   6.589   6.441  -0.144  0.1310 -0.5663  0.0872
  923MOL0     C21718   6.710   6.474  -0.070 -0.2999 -0.3780  0.1639
  923MOL0     C21719   6.758   6.616  -0.104 -0.0297 -0.0417  0.9147
  923MOL0     C21720   6.842   6.618  -0.230 -0.3940  0.1113  0.5200
  923MOL0     N21721   6.810   6.716  -0.340  0.1889 -0.8160 -0.4030
  923MOL0     C21722   6.707   6.697  -0.419  0.2148 -0.5441  0.9434
  923MOL0     C21723   6.707   6.811  -0.490  0.2755  0.4924 -0.0647
  923MOL0     C21724   6.615   6.843  -0.609 -0.2078  0.1011 -0.2706
  923MOL0     C21725   6.650   6.972  -0.676 -1.1889  0.9457 -0.1019
  923MOL0     C21726   6.635   7.100  -0.590 -0.3714 -0.7262  0.4902
  923MOL0     C21727   6.705   7.233  -0.651  0.2415  0.4571 -0.2960
  923MOL0     O21728   6.667   7.333  -0.559  0.1024 -0.0226  0.3727
  923MOL0     C21729   6.762   7.434  -0.542  0.6030 -0.1137  0.3174
  923MOL0     C21730   6.894   7.417  -0.496 -0.4779 -0.2386  0.2621
  923MOL0     C21731   6.973   7.528  -0.477 -0.1984 -0.2443  0.0500
  923MOL0     C21732   6.931   7.658  -0.508  0.4900 -0.4897  0.6111
  923MOL0     C21733   7.009   7.778  -0.482  0.0780 -0.1373  0.6514
  923MOL0     O21734   6.958   7.898  -0.528  0.6741 -0.3363  0.2632
  923MOL0     C21735   7.019   8.012  -0.491 -0.5424 -0.2643 -0.0273
  923MOL0     C21736   7.069   8.048  -0.371  0.4027  0.1541 -0.1867
  923MOL0     C21737   7.127   8.176  -0.347 -0.0255 -0.2688 -0.2926
  923MOL0     C21738   7.139   8.271  -0.448 -0.0160 -0.1729  0.1154
  923MOL0     O21739   7.193   8.391  -0.440 -0.0204 -0.0647 -0.4980
  923MOL0     C21740   7.197   8.463  -0.321 -0.3209 -0.0138 -0.1792
  923MOL0     C21741   7.161   8.618  -0.348  0.4833  0.4533  0.8053
  923MOL0     C21742   7.131   8.688  -0.213  1.1413  0.7723  0.6283
  923MOL0     C21743   7.259   8.700  -0.132 -0.5996  0.7080 -1.0023
  923MOL0     C21744   7.264   8.825  -0.044  1.2685  0.6819 -0.3712
  923MOL0     C21745   7.163   8.828   0.078  0.0069 -0.2644  0.7950
  923MOL0     C21746   7.205   8.908   0.198  0.5367 -0.2647  1.5996
  923MOL0     C21747   7.220   9.054   0.161 -0.7021  0.4755  0.3341
  923MOL0    Cl21748   7.222   9.144   0.315 -0.4442  0.4166 -0.7770
  923MOL0     C21749   7.081   8.232  -0.572 -0.6938  0.1455 -0.6214
  923MOL0     C21750   7.024   8.104  -0.589 -0.5926  0.0478 -1.1002
  923MOL0     O21751   7.116   7.765  -0.426 -0.7345  0.0071  0.3969
  923MOL0     C21752   6.802   7.678  -0.563  0.4052  0.0938  0.0594
  923MOL0     C21753   6.718   7.565  -0.568  0.3639  0.2741  1.1136
  923MOL0     N21754   6.821   6.876  -0.468 -0.0225  0.2227  0.4738
  923MOL0     N21755   6.894   6.822  -0.368  0.2209 -0.2160 -0.1072
  923MOL0     C21756   6.285   5.702   0.026 -0.3423  0.1217  0.4144
  923MOL0     C21757   6.319   5.561   0.035  0.7874  0.9525  0.1413
  923MOL0     C21758   6.491   5.203   0.242  0.5628  1.0598  0.2988
  923MOL0     C21759   6.564   5.147   0.349  0.2868  0.3676  0.1111
  923MOL0     C21760   6.544   5.014   0.400  0.7995 -1.0455 -0.2088
  923MOL0     C21761   6.435   4.943   0.357 -0.6915 -0.0555 -0.5898
  923MOL0     O21762   6.398   4.810   0.388  0.2431  0.7629 -0.1738
  923MOL0     C21763   6.488   4.731   0.460 -0.5737 -0.7980 -0.4258
  923MOL0     C21764   6.417   4.599   0.481 -0.3045  0.7630  0.6418
  923MOL0     C21765   6.494   4.488   0.564  0.0282  0.1301  0.4045
  923MOL0     C21766   6.472   4.349   0.511  0.5113 -0.9689  0.2378
  923MOL0     C21767   6.465   4.251   0.625  0.3330 -1.0334  0.0699
  923MOL0     C21768   6.443   4.176   0.711  0.4443 -0.1186 -1.3534
  923MOL0     C21769   6.352   5.006   0.264 -0.6671  0.3244 -0.0938
  923MOL0     C21770   6.385   5.122   0.207  0.4327 -0.6680  0.0589
  923MOL0     H21771   6.648   5.581   0.062 -0.3191 -4.6528 -0.3010
  923MOL0     H21772   6.596   5.821  -0.007 -0.1246  0.6762 -0.1383
  923MOL0     H21773   6.484   6.026   0.068  0.5820  1.3630 -0.2484
  923MOL0     H21774   6.344   6.104  -0.017  0.8609  1.5916  1.3214
  923MOL0     H21775   6.458   6.063  -0.243  1.0096 -0.5273 -1.5395
  923MOL0     H21776   6.576   5.966  -0.175  1.1402  1.4860  0.1132
  923MOL0     H21777   6.668   6.192  -0.211 -0.3782  1.7077 -0.6345
  923MOL0     H21778   6.660   6.159  -0.036  0.3267 -2.0408 -0.3553
  923MOL0     H21779   6.418   6.293  -0.127 -1.2087 -0.9636  2.0908
  923MOL0     H21780   6.508   6.331   0.004 -3.0414  2.6873 -1.1358
  923MOL0     H21781   6.529   6.530  -0.121 -1.8123 -1.4895 -1.1700
  923MOL0     H21782   6.615   6.448  -0.250  2.5092 -0.8297  0.5845
  923MOL0     H21783   6.790   6.403  -0.093  0.3507  1.2591 -3.2995
  923MOL0     H21784   6.694   6.478   0.038  3.0636  0.6016  0.7519
  923MOL0     H21785   6.672   6.683  -0.097 -0.9154 -1.0118 -0.2187
  923MOL0     H21786   6.827   6.646  -0.025 -2.0812  0.9377  2.4201
  923MOL0     H21787   6.845   6.516  -0.271 -4.6770 -1.2536  2.9953
  923MOL0     H21788   6.941   6.658  -0.206 -0.8148  3.1145 -2.0838
  923MOL0     H21789   6.639   6.613  -0.418 -2.4029  1.4285  0.3948
  923MOL0     H21790   6.511   6.837  -0.577 -0.4914 -1.6724 -1.3821
  923MOL0     H21791   6.625   6.762  -0.683 -0.4667  2.4610 -3.0644
  923MOL0     H21792   6.580   6.979  -0.760 -0.2495 -0.1848 -1.0068
  923MOL0     H21793   6.754   6.965  -0.710 -1.0723  0.6568  0.3125
  923MOL0     H21794   6.527   7.112  -0.593 -0.3297  1.2558  3.1451
  923MOL0     H21795   6.676   7.076  -0.492  1.7823 -1.6709 -0.5633
  923MOL0     H21796   6.664   7.255  -0.750  1.3558  2.8380 -0.2777
  923MOL0     H21797   6.813   7.220  -0.658  0.7368  2.4927  2.1520
  923MOL0     H21798   6.913   7.314  -0.466 -2.6647 -0.9407 -0.5489
  923MOL0     H21799   7.066   7.499  -0.430 -1.8502 -2.8002  1.9607
  923MOL0     H21800   7.054   7.991  -0.280 -2.2424  1.8133  0.5340
  923MOL0     H21801   7.157   8.198  -0.245 -0.6433  4.5028 -0.8923
  923MOL0     H21802   7.299   8.462  -0.280 -0.8998  0.0121  1.3337
  923MOL0     H21803   7.134   8.420  -0.242 -1.0572  3.8902  1.5660
  923MOL0     H21804   7.068   8.616  -0.406  1.3141  1.1332 -0.5985
  923MOL0     H21805   7.238   8.673  -0.402  1.9086 -0.7629  1.5295
  923MOL0     H21806   7.073   8.619  -0.152 -0.8038  2.7160  1.1114
  923MOL0     H21807   7.068   8.775  -0.236 -3.1640 -2.4169 -0.9159
  923MOL0     H21808   7.278   8.612  -0.070 -0.2127  0.9923 -0.7134
  923MOL0     H21809   7.330   8.711  -0.214 -1.7020  3.6113 -1.6970
  923MOL0     H21810   7.251   8.920  -0.098  1.5053  1.7369  1.3647
  923MOL0     H21811   7.364   8.834  -0.002  0.6430  3.3747  0.7364
  923MOL0     H21812   7.155   8.723   0.108  3.5448 -0.9441 -0.1058
  923MOL0     H21813   7.066   8.872   0.056  0.3911  1.1080  1.7442
  923MOL0     H21814   7.137   8.895   0.283 -0.2797  0.0594  1.0092
  923MOL0     H21815   7.303   8.865   0.222  2.0298  2.7715  1.3796
  923MOL0     H21816   7.136   9.079   0.096 -1.6777  0.9939  1.7542
  923MOL0     H21817   7.312   9.074   0.104 -0.0607  0.6140  1.3953
  923MOL0     H21818   7.074   8.306  -0.651  0.0462  0.4635 -0.3979
  923MOL0     H21819   6.975   8.090  -0.685 -0.6139  2.1706 -1.4607
  923MOL0     H21820   6.756   7.768  -0.603 -3.7978 -2.0108 -0.3678
  923MOL0     H21821   6.611   7.564  -0.581  0.0685  0.4205  3.1598
  923MOL0     H21822   6.182   5.736   0.018 -0.4660 -0.5736 -1.7170
  923MOL0     H21823   6.239   5.489   0.038  0.6058  1.0491 -1.2960
  923MOL0     H21824   6.660   5.186   0.382  1.7267 -4.1268  2.0723
  923MOL0     H21825   6.612   4.975   0.476 -1.1410 -2.6879  0.7669
  923MOL0     H21826   6.506   4.780   0.556 -1.7033 -0.7162 -0.2511
  923MOL0     H21827   6.573   4.716   0.392 -2.2027 -0.8193 -2.5641
  923MOL0     H21828   6.315   4.613   0.517 -1.4332 -1.8639 -1.2191
  923MOL0     H21829   6.397   4.544   0.388 -2.5735  0.7740  1.0644
  923MOL0     H21830   6.467   4.498   0.670  0.5983 -3.5377  1.0197
  923MOL0     H21831   6.601   4.512   0.558 -0.4091  1.7888 -2.9573
  923MOL0     H21832   6.379   4.350   0.453 -0.3145 -2.0991  1.4731
  923MOL0     H21833   6.555   4.316   0.447  1.3026 -3.0278  2.1897
  923MOL0     H21834   6.429   4.108   0.793  1.5207 -0.0294 -1.0766
  923MOL0     H21835   6.268   4.944   0.234 -0.1447  0.1703 -1.2731
  923MOL0     H21836   6.316   5.159   0.131  0.6859 -4.0598 -2.0497
  924MOL0     O21837   8.258   4.336   4.367  0.7431 -0.4565 -0.1099
  924MOL0     C21838   8.340   4.293   4.445 -0.7696 -0.3927 -0.0235
  924MOL0     O21839   8.359   4.160   4.474 -1.0608 -0.5095 -0.1919
  924MOL0     C21840   8.250   4.082   4.461 -0.5952  0.0468  0.1654
  924MOL0     C21841   8.225   4.008   4.349  0.7118  0.5813 -0.2518
  924MOL0     C21842   8.112   3.930   4.357  0.1464  0.7528 -0.4111
  924MOL0     C21843   8.031   3.927   4.468  0.8670  0.0736  0.0665
  924MOL0     O21844   7.926   3.842   4.475  0.2248 -0.1150 -0.0448
  924MOL0     C21845   7.825   3.836   4.370 -0.5056 -0.6198 -0.9838
  924MOL0     C21846   7.693   3.796   4.423  0.8073 -0.8708 -0.2157
  924MOL0     C21847   7.637   3.890   4.531  0.1792 -0.0681  0.2619
  924MOL0     C21848   7.682   3.869   4.675 -0.3302 -0.9282  0.5577
  924MOL0     C21849   7.569   3.923   4.759 -0.3109  0.5531 -0.6185
  924MOL0     C21850   7.600   3.934   4.912 -0.0025 -0.2677 -0.0353
  924MOL0     C21851   7.718   4.039   4.942 -0.0293 -0.1605 -0.1994
  924MOL0     C21852   7.788   4.018   5.080  1.8513  0.3233  0.4265
  924MOL0     N21853   7.895   4.115   5.109  0.1344 -0.0692  0.3230
  924MOL0     C21854   7.901   4.193   5.231  0.4557 -0.0799 -0.3047
  924MOL0     C21855   8.019   4.262   5.216 -0.0380 -0.0529  0.0278
  924MOL0     C21856   8.067   4.366   5.298  0.2004  1.0258 -0.1831
  924MOL0     C21857   8.038   4.362   5.453 -0.0544  0.2343 -0.7639
  924MOL0     C21858   7.914   4.434   5.490  0.3576  0.7600  0.1715
  924MOL0     C21859   7.881   4.434   5.640 -0.6729 -0.4589 -0.4844
  924MOL0     O21860   7.745   4.488   5.644 -0.0048 -0.1449  0.1380
  924MOL0     C21861   7.636   4.408   5.684 -0.1745 -0.3652  0.2928
  924MOL0     C21862   7.511   4.461   5.689  0.0347 -0.1370  0.0108
  924MOL0     C21863   7.396   4.405   5.739 -0.4418 -0.0767  0.5910
  924MOL0     C21864   7.400   4.271   5.782 -0.5367 -0.1400  0.2769
  924MOL0     C21865   7.271   4.201   5.817 -0.0461 -0.8780 -0.0987
  924MOL0     O21866   7.275   4.069   5.823  0.7680  0.6054  0.1644
  924MOL0     C21867   7.172   3.984   5.857  0.6885 -0.6531 -0.5337
  924MOL0     C21868   7.133   3.876   5.782 -0.1660  0.1466  0.2960
  924MOL0     C21869   7.028   3.786   5.805  0.2658 -0.7972 -0.7630
  924MOL0     C21870   6.959   3.803   5.928  0.4200 -0.6271 -0.0516
  924MOL0     O21871   6.855   3.725   5.964  0.2614 -0.1904  0.5005
  924MOL0     C21872   6.745   3.704   5.874  0.3487 -0.6431  0.3718
  924MOL0     C21873   6.661   3.585   5.911 -0.7706 -0.2816 -0.4510
  924MOL0     C21874   6.594   3.595   6.052 -0.8830  0.4001 -0.3847
  924MOL0     C21875   6.481   3.699   6.052 -0.1729 -0.3210  0.7062
  924MOL0     C21876   6.395   3.715   6.180 -0.0079  1.3300  0.0609
  924MOL0     C21877   6.259   3.779   6.148  0.1404 -0.5661 -0.5275
  924MOL0     C21878   6.284   3.931   6.110  0.6389  0.0783  0.8412
  924MOL0     C21879   6.364   4.008   6.225 -0.0019  0.1543 -0.0261
  924MOL0    Cl21880   6.342   4.177   6.209 -0.5668 -0.6393 -0.2021
  924MOL0     C21881   6.978   3.925   5.997 -0.4491 -0.4074 -0.1779
  924MOL0     C21882   7.083   4.010   5.968  0.3998 -0.4602  1.2736
  924MOL0     O21883   7.174   4.277   5.836  0.1118  0.7930 -0.8549
  924MOL0     C21884   7.524   4.206   5.778 -0.0384  0.5348  1.1252
  924MOL0     C21885   7.641   4.273   5.727 -0.3148  0.3497 -0.0178
  924MOL0     N21886   8.081   4.211   5.103  0.0853 -0.4465  0.6747
  924MOL0     N21887   8.004   4.140   5.038 -0.3370  0.1189 -0.0857
  924MOL0     C21888   8.054   4.006   4.578  0.5464 -0.2175 -0.6387
  924MOL0     C21889   8.165   4.080   4.575  0.4643 -0.2624  0.7604
  924MOL0     C21890   8.432   4.394   4.506  0.1163  0.4383  1.3706
  924MOL0     C21891   8.453   4.523   4.444 -0.0942  0.9886 -1.0598
  924MOL0     C21892   8.547   4.611   4.504 -0.4087  0.3502  0.1906
  924MOL0     C21893   8.622   4.561   4.612  0.5637  0.2566  0.4399
  924MOL0     O21894   8.712   4.635   4.680 -0.0289 -0.5364  0.4366
  924MOL0     C21895   8.666   4.761   4.736 -1.0173  0.5926 -0.1192
  924MOL0     C21896   8.781   4.831   4.804 -0.5684  0.9066  0.5038
  924MOL0     C21897   8.731   4.951   4.887 -0.3668  0.7117 -0.4049
  924MOL0     C21898   8.657   4.917   5.017 -0.1762  0.1756  0.7016
  924MOL0     C21899   8.757   4.887   5.128  0.0558 -0.6464  0.2596
  924MOL0     C21900   8.852   4.888   5.205  0.5206  0.7032 -0.1041
  924MOL0     C21901   8.596   4.432   4.668 -0.3315 -0.1211 -0.7993
  924MOL0     C21902   8.504   4.350   4.611  0.1587  0.3461 -0.5296
  924MOL0     H21903   8.284   4.007   4.258 -0.7098 -1.9418 -1.2398
  924MOL0     H21904   8.088   3.867   4.272  0.4289  0.0560  0.0164
  924MOL0     H21905   7.856   3.760   4.297  0.1396  0.4115 -1.7992
  924MOL0     H21906   7.821   3.932   4.317 -1.0149  0.9433  1.7343
  924MOL0     H21907   7.682   3.693   4.459 -0.2185 -0.8245 -0.3697
  924MOL0     H21908   7.622   3.791   4.341  3.0126 -3.2734 -2.1423
  924MOL0     H21909   7.529   3.874   4.533  0.1522  0.0524 -0.1325
  924MOL0     H21910   7.660   3.994   4.503 -1.2824  0.6838  1.6725
  924MOL0     H21911   7.690   3.761   4.693 -0.8642 -1.1336 -0.3802
  924MOL0     H21912   7.780   3.912   4.697 -1.3244  2.1022 -0.4924
  924MOL0     H21913   7.498   3.841   4.751 -0.4067  0.6584 -0.8458
  924MOL0     H21914   7.530   4.017   4.719  0.0368  2.2125  2.6056
  924MOL0     H21915   7.628   3.835   4.951  2.9701  0.0684 -1.1156
  924MOL0     H21916   7.511   3.972   4.963 -0.1556 -1.7573  0.8552
  924MOL0     H21917   7.802   4.015   4.876  0.3369 -1.1776  0.6050
  924MOL0     H21918   7.686   4.142   4.926  1.5517  0.1010 -2.1054
  924MOL0     H21919   7.812   3.912   5.090 -2.6109 -0.9359  0.1084
  924MOL0     H21920   7.713   4.028   5.158  1.2483  1.1939 -0.2437
  924MOL0     H21921   7.826   4.206   5.308  2.6138  1.7396  1.6060
  924MOL0     H21922   8.048   4.465   5.256  2.8063  2.5271  1.8060
  924MOL0     H21923   8.174   4.354   5.278 -0.1216 -4.7437 -0.3243
  924MOL0     H21924   8.127   4.397   5.506 -0.2265 -3.0020  1.9938
  924MOL0     H21925   8.033   4.256   5.478 -0.1567  0.4073 -0.0219
  924MOL0     H21926   7.912   4.538   5.457  0.3527  0.9413  0.7303
  924MOL0     H21927   7.834   4.384   5.434  1.6086  1.3343 -2.2368
  924MOL0     H21928   7.951   4.505   5.686 -0.1715 -1.4569  0.3272
  924MOL0     H21929   7.897   4.339   5.692  0.7573 -0.6361 -1.2058
  924MOL0     H21930   7.494   4.562   5.654 -0.8709  0.3427  1.7185
  924MOL0     H21931   7.306   4.465   5.742  0.6290  1.5595  2.2530
  924MOL0     H21932   7.202   3.853   5.701 -0.0994 -1.2638  0.7256
  924MOL0     H21933   7.020   3.709   5.729  2.4764 -0.5739 -1.2622
  924MOL0     H21934   6.774   3.693   5.769  2.0566 -0.2357  0.7670
  924MOL0     H21935   6.682   3.790   5.896  1.6834  0.6253 -0.5206
  924MOL0     H21936   6.726   3.497   5.911 -0.1438  0.1606  0.2104
  924MOL0     H21937   6.575   3.569   5.846 -0.1599 -3.4531 -0.6622
  924MOL0     H21938   6.673   3.627   6.121 -0.7691 -1.3581  0.3353
  924MOL0     H21939   6.563   3.502   6.099 -3.7341  1.2753 -0.3442
  924MOL0     H21940   6.521   3.800   6.040 -1.2044  0.1290  0.9935
  924MOL0     H21941   6.412   3.673   5.971 -0.0703 -0.3376  0.6224
  924MOL0     H21942   6.451   3.778   6.250 -0.2516 -0.9372  2.4849
  924MOL0     H21943   6.375   3.615   6.220 -0.0932  1.1679 -0.3847
  924MOL0     H21944   6.192   3.770   6.234 -0.2419 -3.0311 -0.9964
  924MOL0     H21945   6.211   3.734   6.060 -0.4010 -2.1780  0.5471
  924MOL0     H21946   6.334   3.938   6.013 -2.4175  0.2301 -0.8334
  924MOL0     H21947   6.183   3.972   6.112 -0.2983 -1.9396 -1.3161
  924MOL0     H21948   6.469   3.986   6.244  0.1072 -0.3958 -1.1534
  924MOL0     H21949   6.312   3.982   6.317  0.5263 -2.5860 -0.4038
  924MOL0     H21950   6.912   3.921   6.083 -2.4598 -3.5642 -1.6597
  924MOL0     H21951   7.092   4.097   6.033  1.3292 -2.1999  3.6166
  924MOL0     H21952   7.533   4.108   5.822 -2.9218 -0.5841 -0.4697
  924MOL0     H21953   7.729   4.210   5.733 -1.5865 -1.3928  3.0447
  924MOL0     H21954   7.996   4.003   4.670  2.8201 -0.4310  0.8551
  924MOL0     H21955   8.182   4.146   4.660 -1.3397 -0.7626  1.5469
  924MOL0     H21956   8.389   4.547   4.360  0.3360  3.9129 -0.6456
  924MOL0     H21957   8.571   4.708   4.461 -2.1154  0.8479  0.3125
  924MOL0     H21958   8.589   4.730   4.807 -0.4655  0.7689  0.5729
  924MOL0     H21959   8.628   4.814   4.649  1.1265 -1.9659 -2.8324
  924MOL0     H21960   8.838   4.760   4.864 -1.6710 -2.0720 -1.7267
  924MOL0     H21961   8.842   4.870   4.722 -0.4967 -0.8279 -0.3317
  924MOL0     H21962   8.673   5.025   4.830 -1.2720 -1.4547 -2.4556
  924MOL0     H21963   8.821   5.006   4.917 -0.0390  1.2566 -2.2823
  924MOL0     H21964   8.608   5.009   5.053  1.9521  0.7278  2.4098
  924MOL0     H21965   8.579   4.841   5.004  1.3507 -0.8989 -3.4835
  924MOL0     H21966   8.937   4.896   5.269  1.8016  1.9207 -1.8734
  924MOL0     H21967   8.656   4.400   4.753 -0.7968  0.5400 -0.2068
  924MOL0     H21968   8.487   4.250   4.649  0.4369  0.7995  0.8569
  925MOL0     O21969   5.155   6.632   4.252 -0.2157  0.4918  0.5354
  925MOL0     C21970   5.218   6.526   4.235  0.6231 -0.0269 -0.7854
  925MOL0     O21971   5.231   6.431   4.328 -0.5290  0.1302 -0.5762
  925MOL0     C21972   5.220   6.486   4.457 -0.0686  0.3177  0.4153
  925MOL0     C21973   5.315   6.572   4.501  0.1768  0.3302  0.8307
  925MOL0     C21974   5.322   6.633   4.634 -0.6992  0.3141 -0.0494
  925MOL0     C21975   5.218   6.591   4.725 -0.8182  0.0341 -0.4453
  925MOL0     O21976   5.227   6.624   4.872  0.0058 -0.4134 -0.0194
  925MOL0     C21977   5.346   6.689   4.922  0.5658 -0.0112 -0.0698
  925MOL0     C21978   5.330   6.731   5.058  0.7468  0.3675  0.4171
  925MOL0     C21979   5.215   6.828   5.102  1.5491 -0.1839  0.2248
  925MOL0     C21980   5.248   6.931   5.217 -0.2051  0.0474 -0.5955
  925MOL0     C21981   5.317   6.883   5.350 -0.2091  0.4674 -0.2008
  925MOL0     C21982   5.222   6.798   5.434 -0.5432  0.1572 -1.0388
  925MOL0     C21983   5.285   6.781   5.572  0.3750  0.5410 -1.1881
  925MOL0     C21984   5.178   6.740   5.680  0.8216  0.0557 -0.6660
  925MOL0     N21985   5.236   6.685   5.809 -0.1437 -0.3640  0.9720
  925MOL0     C21986   5.296   6.756   5.912  0.3983 -0.8710 -0.2808
  925MOL0     C21987   5.312   6.665   6.006 -0.3336 -0.3435  0.3027
  925MOL0     C21988   5.378   6.702   6.136  0.1695  0.1772 -0.5832
  925MOL0     C21989   5.529   6.680   6.112  0.2553  0.8376  0.4897
  925MOL0     C21990   5.609   6.757   6.211 -0.4548  0.2769 -0.2388
  925MOL0     C21991   5.643   6.896   6.154  0.2863  0.1466 -0.0220
  925MOL0     O21992   5.727   6.966   6.255  0.3034  1.0982  0.0191
  925MOL0     C21993   5.674   7.043   6.355  0.4637  0.3457 -0.2221
  925MOL0     C21994   5.764   7.098   6.441  0.5598  0.7461  0.1457
  925MOL0     C21995   5.727   7.183   6.540  0.2781 -0.4243 -0.3695
  925MOL0     C21996   5.592   7.216   6.560  0.9037  0.8149 -0.1440
  925MOL0     C21997   5.553   7.313   6.667  0.0020  0.0086  1.0101
  925MOL0     O21998   5.646   7.353   6.752  0.0601  0.2730 -0.5992
  925MOL0     C21999   5.631   7.449   6.857  0.0070 -0.1400 -0.5777
  925MOL0     C22000   5.725   7.455   6.961 -0.1482  0.6039 -0.5316
  925MOL0     C22001   5.719   7.557   7.059  0.1923  0.1531 -0.9016
  925MOL0     C22002   5.629   7.665   7.049 -0.4507  0.0727 -0.3411
  925MOL0     O22003   5.650   7.777   7.123 -0.7149 -0.8780  0.4828
  925MOL0     C22004   5.680   7.757   7.264 -0.7844 -0.2411  0.4930
  925MOL0     C22005   5.631   7.879   7.356  1.2211 -0.2506  0.3772
  925MOL0     C22006   5.574   7.826   7.486 -0.1434 -0.6857  0.1929
  925MOL0     C22007   5.683   7.815   7.601 -0.3862  0.1980  0.6661
  925MOL0     C22008   5.627   7.750   7.735 -0.2223  1.1706  0.5681
  925MOL0     C22009   5.725   7.734   7.845 -0.6575 -0.5295  1.6388
  925MOL0     C22010   5.852   7.666   7.791  0.4266  0.0133 -0.0596
  925MOL0     C22011   5.941   7.611   7.896 -0.1004 -0.0909 -0.8485
  925MOL0    Cl22012   5.869   7.471   7.972  0.2352 -0.4596  0.3109
  925MOL0     C22013   5.548   7.668   6.936 -0.5001  0.9971 -0.1671
  925MOL0     C22014   5.545   7.562   6.840 -0.3589 -0.4436 -0.0684
  925MOL0     O22015   5.437   7.340   6.668  0.3278  0.0391 -0.8282
  925MOL0     C22016   5.500   7.162   6.469  0.1307  0.4718  0.2251
  925MOL0     C22017   5.538   7.074   6.374  0.5624  0.5376  0.5315
  925MOL0     N22018   5.268   6.544   5.950 -0.6883  0.7468 -0.6483
  925MOL0     N22019   5.213   6.561   5.842  0.0725  1.2452  0.0250
  925MOL0     C22020   5.113   6.504   4.677 -0.3274 -0.8824 -0.1114
  925MOL0     C22021   5.114   6.456   4.543  0.3523  0.1789 -0.6782
  925MOL0     C22022   5.274   6.493   4.104  0.7312 -0.1273  0.2472
  925MOL0     C22023   5.211   6.543   3.991  0.0689  0.8066 -0.7893
  925MOL0     C22024   5.258   6.508   3.871  0.0137  0.5022 -0.0588
  925MOL0     C22025   5.381   6.435   3.844 -0.5368  0.1480 -0.3216
  925MOL0     O22026   5.428   6.413   3.718  0.7187 -0.1291 -1.2586
  925MOL0     C22027   5.350   6.449   3.603  0.0838  0.8974 -0.3184
  925MOL0     C22028   5.423   6.389   3.477 -0.0079 -1.1005 -0.5682
  925MOL0     C22029   5.447   6.234   3.479  0.3370  0.2411  0.0843
  925MOL0     C22030   5.582   6.199   3.548 -0.2839  0.2442 -0.0168
  925MOL0     C22031   5.696   6.242   3.465 -0.2437  0.7778  0.4320
  925MOL0     C22032   5.796   6.277   3.398 -0.1691  0.2505  0.5697
  925MOL0     C22033   5.442   6.376   3.956  0.0735  0.4590 -0.5968
  925MOL0     C22034   5.386   6.401   4.086 -0.3939 -1.0182 -0.9297
  925MOL0     H22035   5.394   6.596   4.430  1.5676 -1.9266  1.5102
  925MOL0     H22036   5.398   6.701   4.673 -1.2473  1.1971 -0.4826
  925MOL0     H22037   5.365   6.776   4.858  0.0432  0.9603  1.0602
  925MOL0     H22038   5.425   6.613   4.916 -0.3522 -0.9416 -0.7147
  925MOL0     H22039   5.422   6.783   5.088  0.5503  1.5189 -0.9163
  925MOL0     H22040   5.313   6.638   5.114 -0.0592 -0.8653 -1.7443
  925MOL0     H22041   5.132   6.765   5.134  0.2192  2.3915  2.2064
  925MOL0     H22042   5.179   6.888   5.017 -1.1310 -2.0664 -0.0838
  925MOL0     H22043   5.305   7.004   5.160 -0.5825  0.1923 -0.7863
  925MOL0     H22044   5.158   6.987   5.244  0.4293  0.2269  1.3012
  925MOL0     H22045   5.354   6.966   5.412  0.2419 -0.6323  1.0638
  925MOL0     H22046   5.402   6.822   5.318  0.3214  1.1422 -0.1047
  925MOL0     H22047   5.201   6.695   5.403 -2.1095  0.6126 -1.6102
  925MOL0     H22048   5.124   6.841   5.455 -1.2283 -0.7072 -2.3258
  925MOL0     H22049   5.360   6.702   5.563  0.2929  0.1548  1.0209
  925MOL0     H22050   5.329   6.875   5.609 -3.2242  1.3709  1.5868
  925MOL0     H22051   5.118   6.660   5.634 -0.0703  0.8138 -0.8679
  925MOL0     H22052   5.113   6.827   5.695  2.2230  1.7891 -3.7391
  925MOL0     H22053   5.327   6.859   5.922 -0.9900 -0.0717 -3.0820
  925MOL0     H22054   5.338   6.638   6.216 -2.2169  1.0565 -0.9968
  925MOL0     H22055   5.360   6.805   6.168 -0.3182 -0.4231  1.2330
  925MOL0     H22056   5.559   6.723   6.016  0.8248 -0.5419  0.0281
  925MOL0     H22057   5.559   6.575   6.110 -0.3082  0.6809 -0.9277
  925MOL0     H22058   5.560   6.758   6.309  1.8379  0.4509  0.9878
  925MOL0     H22059   5.702   6.701   6.221  0.1604  1.0446 -1.4756
  925MOL0     H22060   5.552   6.954   6.142 -1.4882 -2.5610 -0.5085
  925MOL0     H22061   5.702   6.896   6.062  0.4064  2.4254  0.0099
  925MOL0     H22062   5.868   7.069   6.431 -0.0691 -1.6067 -0.2642
  925MOL0     H22063   5.800   7.237   6.600  0.3446  2.7157 -3.0411
  925MOL0     H22064   5.795   7.374   6.979 -1.6540 -0.3559  1.3535
  925MOL0     H22065   5.787   7.557   7.144 -1.0636 -0.3291  0.1358
  925MOL0     H22066   5.785   7.740   7.288 -0.7699 -1.2013 -0.1854
  925MOL0     H22067   5.625   7.669   7.299  0.6446  0.0127  3.7803
  925MOL0     H22068   5.559   7.938   7.299  4.0004  2.7542 -0.3586
  925MOL0     H22069   5.719   7.941   7.373  0.0240  1.7538 -0.4079
  925MOL0     H22070   5.527   7.728   7.473  0.3572 -1.5389  3.6490
  925MOL0     H22071   5.496   7.893   7.523 -0.7000 -0.9373 -0.4933
  925MOL0     H22072   5.767   7.759   7.558 -0.4074 -0.4125  1.3945
  925MOL0     H22073   5.729   7.909   7.633  0.6438 -0.1454  0.2345
  925MOL0     H22074   5.598   7.647   7.712  0.7773  1.2678 -1.3067
  925MOL0     H22075   5.549   7.806   7.787 -1.8065  0.5751 -1.0569
  925MOL0     H22076   5.689   7.674   7.929 -3.4857 -2.6935 -0.8480
  925MOL0     H22077   5.764   7.831   7.875  3.6166 -1.3369 -0.5749
  925MOL0     H22078   5.822   7.588   7.721 -1.8210 -0.0255  0.8717
  925MOL0     H22079   5.908   7.742   7.735 -0.6955  2.3271  1.7848
  925MOL0     H22080   5.968   7.680   7.976  0.3260  1.0049 -1.9223
  925MOL0     H22081   6.034   7.581   7.847  0.3168 -0.8959  0.3944
  925MOL0     H22082   5.480   7.751   6.920 -0.7170  0.6084 -1.3139
  925MOL0     H22083   5.476   7.565   6.756 -1.5711  0.6203  0.9378
  925MOL0     H22084   5.403   7.205   6.493 -0.1524  0.4413 -0.8202
  925MOL0     H22085   5.447   7.043   6.325 -0.4307  1.0379  1.9769
  925MOL0     H22086   5.026   6.471   4.733 -1.4339 -0.8529 -1.7493
  925MOL0     H22087   5.031   6.399   4.504  0.0892 -1.5061  2.0412
  925MOL0     H22088   5.116   6.595   4.003 -0.9506 -0.8761 -1.1671
  925MOL0     H22089   5.184   6.541   3.799 -1.0360 -0.9177  0.3454
  925MOL0     H22090   5.342   6.558   3.604 -1.2403  0.8135  0.5310
  925MOL0     H22091   5.251   6.405   3.619  0.8356 -0.9077 -0.4473
  925MOL0     H22092   5.371   6.417   3.385 -0.5461 -0.6277 -0.1276
  925MOL0     H22093   5.519   6.439   3.486  1.4430 -3.9891  2.3340
  925MOL0     H22094   5.430   6.198   3.378  1.6550  1.3891 -0.5855
  925MOL0     H22095   5.367   6.192   3.542  1.7001 -0.3050  1.5419
  925MOL0     H22096   5.594   6.232   3.652 -4.9376  1.5333  0.3426
  925MOL0     H22097   5.575   6.090   3.553 -4.9874  0.3217 -0.2099
  925MOL0     H22098   5.886   6.311   3.349 -2.9632  0.9670 -4.9447
  925MOL0     H22099   5.526   6.313   3.930  0.4291 -1.5399  4.3526
  925MOL0     H22100   5.432   6.354   4.172 -0.0798 -0.1358 -0.6052
  926MOL0     O22101   6.569   0.326   8.708 -0.4167 -0.2360 -0.0123
  926MOL0     C22102   6.595   0.208   8.696  0.3314 -0.3991 -0.4968
  926MOL0     O22103   6.609   0.113   8.795 -0.7602  0.6873 -0.4960
  926MOL0     C22104   6.708   0.144   8.888  0.0537  0.9565  0.3458
  926MOL0     C22105   6.803   0.245   8.888 -0.9741 -0.9089 -0.1733
  926MOL0     C22106   6.899   0.258   8.996  0.1207 -0.9513  0.4346
  926MOL0     C22107   6.906   0.172   9.103  0.4614  0.3770  0.4100
  926MOL0     O22108   6.988   0.186   9.210  0.0974  0.6363  0.1559
  926MOL0     C22109   7.077   0.294   9.227  0.0892 -0.2195  0.0879
  926MOL0     C22110   7.005   0.425   9.265  0.6688 -0.3769 -0.4483
  926MOL0     C22111   6.868   0.405   9.349  0.1816 -0.1590 -0.4339
  926MOL0     C22112   6.830   0.546   9.400  0.5839  0.6676 -0.3449
  926MOL0     C22113   6.717   0.542   9.517  0.4016  0.1635  0.2524
  926MOL0     C22114   6.735   0.449   9.641  0.6502 -0.1696  0.0463
  926MOL0     C22115   6.819   0.509   9.753 -0.0313  0.8756 -0.7200
  926MOL0     C22116   6.752   0.631   9.826 -0.5779  0.2668 -0.3811
  926MOL0     N22117   6.804   0.639   9.962 -0.0427 -0.1080 -0.6968
  926MOL0     C22118   6.786   0.544  10.057 -0.8694  0.3750  0.6381
  926MOL0     C22119   6.870   0.575  10.153 -0.3282 -0.4675  0.0508
  926MOL0     C22120   6.870   0.506  10.278 -0.7522  0.7215 -0.1515
  926MOL0     C22121   6.993   0.505  10.364 -0.1585 -0.4945  0.0316
  926MOL0     C22122   7.022   0.643  10.432  0.2250 -0.0174 -0.0472
  926MOL0     C22123   7.141   0.628  10.534  0.3372  0.6288 -1.2353
  926MOL0     O22124   7.095   0.532  10.633  0.1603  0.3208  0.7965
  926MOL0     C22125   7.168   0.516  10.745  0.2232  0.1325 -0.7926
  926MOL0     C22126   7.112   0.436  10.853  0.2024  0.6962  0.5696
  926MOL0     C22127   7.166   0.428  10.982 -1.3938 -0.5662 -1.0555
  926MOL0     C22128   7.296   0.493  11.011  0.3554  0.3250  0.9489
  926MOL0     C22129   7.367   0.466  11.131  0.0537  0.6239 -0.6122
  926MOL0     O22130   7.308   0.380  11.227  0.2797  0.0984 -0.0711
  926MOL0     C22131   7.392   0.318  11.330 -0.8337 -0.1678  0.0025
  926MOL0     C22132   7.514   0.267  11.292 -0.4400 -0.4443  0.1066
  926MOL0     C22133   7.605   0.222  11.394 -0.6158  0.2755  0.3539
  926MOL0     C22134   7.572   0.231  11.531 -0.1210  1.0676 -0.2072
  926MOL0     O22135   7.654   0.206  11.637 -0.7738  0.4994  0.7506
  926MOL0     C22136   7.724   0.087  11.658 -0.2954  0.4907  0.6512
  926MOL0     C22137   7.660  -0.017  11.751 -0.4238  0.1303 -0.6437
  926MOL0     C22138   7.652   0.040  11.894 -0.0641  0.4720 -0.1819
  926MOL0     C22139   7.616  -0.069  11.995  0.9704  0.1014 -0.8366
  926MOL0     C22140   7.466  -0.103  11.961 -0.2016  0.7662  1.2822
  926MOL0     C22141   7.390  -0.158  12.082  0.8787  0.2034  0.8375
  926MOL0     C22142   7.247  -0.207  12.049 -0.1227  0.5664  0.4818
  926MOL0     C22143   7.191  -0.327  12.130 -0.3996  0.5271 -0.0311
  926MOL0    Cl22144   7.247  -0.339  12.295  0.2335  0.5194 -0.3159
  926MOL0     C22145   7.445   0.278  11.562 -0.4536 -0.3816  0.7953
  926MOL0     C22146   7.353   0.321  11.468  0.2813 -0.3207 -0.2367
  926MOL0     O22147   7.480   0.506  11.136  0.2138  1.0678  0.0937
  926MOL0     C22148   7.353   0.567  10.894 -1.1683  0.3352 -1.3535
  926MOL0     C22149   7.292   0.578  10.771 -0.4993 -1.2210  0.2842
  926MOL0     N22150   6.939   0.694  10.121  0.6156 -0.0310  0.5094
  926MOL0     N22151   6.888   0.737  10.008  0.2132 -0.5492  0.2521
  926MOL0     C22152   6.817   0.064   9.108  0.7617 -0.0982 -0.0328
  926MOL0     C22153   6.723   0.048   9.000  0.4833  0.2490  0.2299
  926MOL0     C22154   6.602   0.160   8.561 -0.3500  0.2535  0.2539
  926MOL0     C22155   6.658   0.035   8.531 -0.5860  0.1968 -0.5442
  926MOL0     C22156   6.685  -0.013   8.406 -0.2188  0.0314  0.7520
  926MOL0     C22157   6.658   0.072   8.304  0.3631 -0.1801 -0.9537
  926MOL0     O22158   6.697   0.039   8.181 -0.2842  0.9002  0.4875
  926MOL0     C22159   6.832   0.090   8.152  0.0533 -0.2657  0.6322
  926MOL0     C22160   6.902  -0.031   8.100 -0.2316  0.8048  0.6841
  926MOL0     C22161   7.018   0.002   8.012  0.6575  0.0291  0.6894
  926MOL0     C22162   7.115  -0.117   7.973  0.0995 -0.9630  0.8492
  926MOL0     C22163   7.048  -0.220   7.892  0.1501 -0.2051 -0.4136
  926MOL0     C22164   7.004  -0.305   7.814  0.1998 -0.8846 -0.4592
  926MOL0     C22165   6.584   0.188   8.318 -0.0071 -0.5194 -0.0529
  926MOL0     C22166   6.552   0.230   8.447 -0.0032  0.7518 -0.3281
  926MOL0     H22167   6.801   0.331   8.821  1.8651  1.7689  2.8443
  926MOL0     H22168   6.958   0.346   8.972 -2.8528  0.0115 -4.7565
  926MOL0     H22169   7.139   0.314   9.140 -0.1164  1.8388  0.3830
  926MOL0     H22170   7.141   0.273   9.314 -2.8529 -3.5934  1.7416
  926MOL0     H22171   6.981   0.480   9.173 -1.1225  2.8945  1.7895
  926MOL0     H22172   7.079   0.489   9.314  1.8300 -1.1818 -1.1046
  926MOL0     H22173   6.894   0.348   9.440  1.8986  0.4622 -0.5011
  926MOL0     H22174   6.789   0.352   9.296  1.1077 -2.2110  0.1053
  926MOL0     H22175   6.919   0.591   9.446 -0.5204  1.2845  1.2870
  926MOL0     H22176   6.788   0.605   9.319 -1.0157  0.1539  0.0670
  926MOL0     H22177   6.623   0.505   9.475  0.4545 -1.3741  1.3972
  926MOL0     H22178   6.699   0.647   9.541 -0.7271  0.2024 -0.6595
  926MOL0     H22179   6.761   0.350   9.602 -1.9792 -0.2475 -1.7564
  926MOL0     H22180   6.635   0.424   9.676  0.8745 -0.6684  0.3326
  926MOL0     H22181   6.846   0.425   9.818  1.4090 -0.4733 -2.9581
  926MOL0     H22182   6.913   0.537   9.706  0.9261 -0.9723  0.0083
  926MOL0     H22183   6.646   0.604   9.829 -0.8795  1.3917 -0.2123
  926MOL0     H22184   6.771   0.718   9.762  1.2399 -1.2922 -2.0621
  926MOL0     H22185   6.713   0.463  10.056 -3.3310  2.4518 -0.7335
  926MOL0     H22186   6.865   0.399  10.256  1.4361  0.4717  0.3432
  926MOL0     H22187   6.790   0.548  10.339  0.3599  0.1496  1.8043
  926MOL0     H22188   7.084   0.478  10.309  0.7345  1.0592  0.6716
  926MOL0     H22189   6.982   0.432  10.444  0.7591 -0.4660  0.1988
  926MOL0     H22190   7.045   0.718  10.355  3.3756 -2.4090 -1.6417
  926MOL0     H22191   6.936   0.675  10.491 -0.0649 -0.5400 -0.1791
  926MOL0     H22192   7.154   0.723  10.588 -1.2840 -0.2892  0.9317
  926MOL0     H22193   7.233   0.596  10.485  1.8572  0.7055  1.3861
  926MOL0     H22194   7.018   0.394  10.820  0.9909 -1.1879  0.6447
  926MOL0     H22195   7.122   0.369  11.062  0.1471  1.1022  1.1469
  926MOL0     H22196   7.557   0.266  11.193 -0.9838 -2.2470 -0.1480
  926MOL0     H22197   7.705   0.190  11.366  0.5369  3.2589  0.7001
  926MOL0     H22198   7.817   0.116  11.707  0.0544  1.1562 -0.3707
  926MOL0     H22199   7.741   0.043  11.559 -1.2903 -0.7363  0.9962
  926MOL0     H22200   7.721  -0.107  11.757  0.1934  0.3919 -2.3036
  926MOL0     H22201   7.562  -0.055  11.721 -0.7653  0.3491  0.1690
  926MOL0     H22202   7.584   0.126  11.897  0.3178  0.7865 -0.4946
  926MOL0     H22203   7.743   0.084  11.934 -0.0893  2.3332 -1.9769
  926MOL0     H22204   7.668  -0.165  11.986 -2.2161 -2.1511  2.1417
  926MOL0     H22205   7.622  -0.030  12.097  1.1473 -0.2853 -0.6955
  926MOL0     H22206   7.472  -0.173  11.877  2.6681  0.0148  2.0222
  926MOL0     H22207   7.412  -0.018  11.917 -0.3741 -1.0311 -2.4228
  926MOL0     H22208   7.371  -0.070  12.144 -3.5590 -0.0926  0.2442
  926MOL0     H22209   7.453  -0.232  12.133 -1.7882 -1.8331  1.4035
  926MOL0     H22210   7.178  -0.127  12.076  0.8323  2.2909 -1.8481
  926MOL0     H22211   7.227  -0.225  11.943 -2.4442  3.5833  0.2734
  926MOL0     H22212   7.225  -0.419  12.081 -1.2590  0.5149 -0.6262
  926MOL0     H22213   7.082  -0.321  12.126 -0.3125  2.2192 -2.2142
  926MOL0     H22214   7.405   0.279  11.663 -3.3649 -0.3660 -0.2467
  926MOL0     H22215   7.251   0.354  11.486  1.2455  1.9167  1.6151
  926MOL0     H22216   7.457   0.593  10.905 -1.3399  0.4847  0.2737
  926MOL0     H22217   7.341   0.635  10.692 -1.6641 -2.2253 -1.2403
  926MOL0     H22218   6.816   0.006   9.200 -3.6038 -0.5376 -0.1633
  926MOL0     H22219   6.647  -0.027   9.019  1.4036 -0.7707 -0.0445
  926MOL0     H22220   6.694  -0.026   8.613 -0.9960 -3.1634 -2.6707
  926MOL0     H22221   6.733  -0.109   8.387 -2.6003 -1.4300  1.5841
  926MOL0     H22222   6.884   0.139   8.235  0.1363 -2.1004  1.6954
  926MOL0     H22223   6.839   0.161   8.068  0.0057 -4.6732 -3.5143
  926MOL0     H22224   6.946  -0.098   8.175 -1.2210 -0.8607 -0.1661
  926MOL0     H22225   6.837  -0.097   8.042  1.4930  2.4143 -3.4272
  926MOL0     H22226   7.080   0.076   8.064  0.3158  1.0518 -0.3537
  926MOL0     H22227   6.967   0.047   7.928 -0.7407 -1.6083  0.6003
  926MOL0     H22228   7.198  -0.085   7.909 -1.1228 -0.1274 -0.3753
  926MOL0     H22229   7.158  -0.152   8.067  0.3658 -0.4659  0.9100
  926MOL0     H22230   6.971  -0.391   7.759  0.9853 -0.6489 -1.3295
  926MOL0     H22231   6.553   0.246   8.232  0.0831 -1.3860 -0.6794
  926MOL0     H22232   6.497   0.323   8.460 -1.1749  0.0444 -0.0541
  927MOL0     O22233   2.946   1.351   9.868  0.0353 -0.1622  0.1870
  927MOL0     C22234   2.926   1.244   9.807 -0.5952 -0.9667  0.1474
  927MOL0     O22235   2.840   1.151   9.844 -0.5740  0.1064 -0.5593
  927MOL0     C22236   2.793   1.146   9.974  0.9529 -0.2340  0.9287
  927MOL0     C22237   2.660   1.111   9.991  0.7940 -0.3917  0.4742
  927MOL0     C22238   2.600   1.091  10.117 -1.0183 -0.7530 -0.5279
  927MOL0     C22239   2.687   1.096  10.225 -0.3182 -1.0311  0.1474
  927MOL0     O22240   2.648   1.057  10.348  0.7569  0.8076  0.8350
  927MOL0     C22241   2.508   1.043  10.380 -0.2815 -0.2159 -0.7002
  927MOL0     C22242   2.506   0.982  10.523 -0.2815 -0.8393  0.7692
  927MOL0     C22243   2.485   1.098  10.625 -0.3425 -0.0694  0.6183
  927MOL0     C22244   2.616   1.161  10.671  0.3557 -0.1845 -0.0548
  927MOL0     C22245   2.607   1.282  10.767 -0.4871 -0.1465  0.6894
  927MOL0     C22246   2.548   1.235  10.900 -0.2622 -0.2712  0.9625
  927MOL0     C22247   2.563   1.345  11.006  0.4162 -0.0013 -0.5735
  927MOL0     C22248   2.552   1.304  11.157  0.3734  0.4730  0.7825
  927MOL0     N22249   2.636   1.182  11.185 -0.2365 -0.9628  0.3342
  927MOL0     C22250   2.581   1.057  11.218 -0.1903 -0.1031  0.8869
  927MOL0     C22251   2.688   0.985  11.259  1.1702  0.7434 -0.1376
  927MOL0     C22252   2.691   0.843  11.313 -0.2965 -0.0999  0.2420
  927MOL0     C22253   2.762   0.819  11.455  0.2866 -0.5989 -0.4170
  927MOL0     C22254   2.685   0.873  11.577  0.4321  0.1723  1.2527
  927MOL0     C22255   2.663   1.023  11.584 -0.1838 -0.2648  0.7677
  927MOL0     O22256   2.528   1.061  11.567  0.1409  0.1747 -0.5939
  927MOL0     C22257   2.505   1.189  11.597  0.2084 -0.9332  0.2723
  927MOL0     C22258   2.376   1.219  11.628  0.0282 -0.7628  0.1984
  927MOL0     C22259   2.339   1.352  11.628 -0.1309  0.2179  0.3269
  927MOL0     C22260   2.431   1.456  11.625 -0.3014 -0.1502  0.1885
  927MOL0     C22261   2.387   1.597  11.637  0.0312 -0.2441  0.3448
  927MOL0     O22262   2.457   1.688  11.711 -0.9000  0.1962 -0.6974
  927MOL0     C22263   2.404   1.813  11.731 -0.2955  0.1756 -0.8437
  927MOL0     C22264   2.397   1.869  11.863  0.2768 -0.4070 -0.5927
  927MOL0     C22265   2.338   1.996  11.877 -0.5896  0.4727 -0.7022
  927MOL0     C22266   2.283   2.066  11.769 -0.1669  0.1399 -0.6422
  927MOL0     O22267   2.236   2.191  11.801  0.3676  0.2755 -0.4960
  927MOL0     C22268   2.134   2.247  11.718  0.4329  0.6282  0.0204
  927MOL0     C22269   2.082   2.380  11.780  0.1556  0.4737  1.1860
  927MOL0     C22270   1.951   2.417  11.708  0.1448  0.5048 -0.3985
  927MOL0     C22271   1.905   2.555  11.752 -0.1845 -0.8653 -0.1351
  927MOL0     C22272   1.825   2.561  11.883  0.3132  0.2993 -0.1307
  927MOL0     C22273   1.766   2.702  11.931 -0.9614  0.7624 -0.3774
  927MOL0     C22274   1.884   2.798  11.970  0.5947 -0.4457 -0.0014
  927MOL0     C22275   1.836   2.931  12.016  0.2652 -0.1451 -0.3671
  927MOL0    Cl22276   1.760   3.011  11.864 -0.3018 -0.4419  0.5508
  927MOL0     C22277   2.294   2.018  11.644 -0.4956  0.4126  0.3782
  927MOL0     C22278   2.353   1.891  11.621  0.1078  0.5461  0.3523
  927MOL0     O22279   2.275   1.625  11.597  0.2379 -0.2053  0.4204
  927MOL0     C22280   2.566   1.429  11.617  0.9793  0.7825  0.0660
  927MOL0     C22281   2.605   1.295  11.596  0.3601 -0.0270  0.1842
  927MOL0     N22282   2.791   1.071  11.265 -0.2287  0.6042  0.8277
  927MOL0     N22283   2.766   1.187  11.219  0.7079 -0.3127 -0.4963
  927MOL0     C22284   2.824   1.129  10.211  0.2102  0.9960  0.0580
  927MOL0     C22285   2.883   1.151  10.082  0.1457 -0.2487 -0.1183
  927MOL0     C22286   2.990   1.230   9.680 -0.7279  0.3075  0.6818
  927MOL0     C22287   2.951   1.151   9.564 -0.1464  1.2056 -0.4126
  927MOL0     C22288   3.027   1.132   9.452 -0.1883  0.2317 -0.2695
  927MOL0     C22289   3.146   1.205   9.436 -0.1783  0.0124 -0.3299
  927MOL0     O22290   3.206   1.198   9.314  0.6125  0.2077  0.1935
  927MOL0     C22291   3.326   1.268   9.277 -0.3498 -0.2434 -0.8462
  927MOL0     C22292   3.437   1.192   9.341 -0.3060 -0.4813 -0.0814
  927MOL0     C22293   3.554   1.259   9.275 -0.6561 -0.6182  1.0202
  927MOL0     C22294   3.696   1.194   9.321  0.1242  0.4696 -0.3225
  927MOL0     C22295   3.677   1.052   9.331  0.0934 -0.0426 -0.8762
  927MOL0     C22296   3.647   0.936   9.357  0.8143 -0.4707  0.8506
  927MOL0     C22297   3.191   1.293   9.546 -0.1571 -0.3485  0.3612
  927MOL0     C22298   3.108   1.307   9.660  0.8219  0.3358 -0.1789
  927MOL0     H22299   2.601   1.094   9.902  0.1219  0.8507  0.6645
  927MOL0     H22300   2.494   1.069  10.116 -1.1838  0.0069 -0.9063
  927MOL0     H22301   2.484   0.967  10.305  1.4468 -2.0419  0.4838
  927MOL0     H22302   2.441   1.129  10.372 -4.2554 -2.7121  1.9541
  927MOL0     H22303   2.594   0.918  10.539  2.2482  1.0631 -3.6645
  927MOL0     H22304   2.415   0.923  10.530 -1.1713  0.4755  0.6101
  927MOL0     H22305   2.449   1.057  10.721  0.2648  0.4310  1.0693
  927MOL0     H22306   2.420   1.172  10.578 -1.5568 -0.7911  1.1228
  927MOL0     H22307   2.684   1.090  10.719 -0.3516 -1.3914 -0.8013
  927MOL0     H22308   2.659   1.192  10.575 -2.2494  0.4241 -1.1050
  927MOL0     H22309   2.550   1.355  10.708  1.8821 -0.3320 -2.0399
  927MOL0     H22310   2.705   1.327  10.782  0.5416 -2.9068  3.0949
  927MOL0     H22311   2.602   1.145  10.932  0.7994 -1.0284 -2.4651
  927MOL0     H22312   2.445   1.204  10.881 -1.1721  3.8468 -2.2271
  927MOL0     H22313   2.664   1.388  10.994  0.0129  1.7027  1.3374
  927MOL0     H22314   2.475   1.408  10.994  0.3918 -0.1332 -1.0834
  927MOL0     H22315   2.451   1.291  11.196  0.6471 -0.6227  1.1479
  927MOL0     H22316   2.601   1.376  11.223  0.6497 -0.2115  1.3415
  927MOL0     H22317   2.476   1.029  11.214 -0.9514  2.5901 -1.0392
  927MOL0     H22318   2.733   0.775  11.238 -1.1903 -0.6636  0.2311
  927MOL0     H22319   2.588   0.804  11.316  0.4188 -2.3490 -1.4443
  927MOL0     H22320   2.866   0.850  11.441  0.2250  0.0832  0.5613
  927MOL0     H22321   2.771   0.712  11.479 -0.6887 -1.2378 -2.5776
  927MOL0     H22322   2.583   0.835  11.572  0.6892 -0.3958 -1.2623
  927MOL0     H22323   2.746   0.847  11.664  0.8171 -0.8053  0.7077
  927MOL0     H22324   2.729   1.064  11.506 -0.4206 -1.3791 -0.0366
  927MOL0     H22325   2.694   1.050  11.686  1.4417 -2.8670  1.0519
  927MOL0     H22326   2.298   1.144  11.634 -2.4023  1.6647  1.4754
  927MOL0     H22327   2.232   1.368  11.622 -0.2482 -0.9454 -1.4245
  927MOL0     H22328   2.420   1.804  11.947 -0.2013 -1.5967 -1.3497
  927MOL0     H22329   2.346   2.039  11.977 -3.2202  0.0232 -0.2194
  927MOL0     H22330   2.054   2.174  11.727  0.1692  1.0247  1.0498
  927MOL0     H22331   2.171   2.277  11.619 -2.1861  0.5183 -1.0510
  927MOL0     H22332   2.161   2.452  11.757  1.0521 -1.2934 -1.8157
  927MOL0     H22333   2.079   2.370  11.889  1.5295 -0.5310  1.1423
  927MOL0     H22334   1.889   2.331  11.734  1.3310 -0.2544  0.0379
  927MOL0     H22335   1.951   2.411  11.599  1.7865 -2.1314 -0.3445
  927MOL0     H22336   1.999   2.610  11.765 -0.2555 -0.8082  0.1523
  927MOL0     H22337   1.852   2.604  11.671  1.2738  1.0993  0.0168
  927MOL0     H22338   1.887   2.515  11.961 -2.8924  0.6230  2.8901
  927MOL0     H22339   1.734   2.501  11.873  0.9491 -0.7200  0.0818
  927MOL0     H22340   1.695   2.688  12.013  0.4212 -0.0886  0.7221
  927MOL0     H22341   1.727   2.730  11.832 -1.4452 -2.2061 -1.1292
  927MOL0     H22342   1.941   2.758  12.054 -1.8032  1.6945  2.8774
  927MOL0     H22343   1.955   2.811  11.888  0.4986  4.8419  0.4338
  927MOL0     H22344   1.928   2.978  12.053 -0.5629  0.5789  0.8177
  927MOL0     H22345   1.761   2.924  12.095 -1.5431 -2.2606 -2.1495
  927MOL0     H22346   2.244   2.077  11.568  0.4579 -0.0773 -0.6753
  927MOL0     H22347   2.366   1.847  11.523  0.9866 -0.8994  1.0752
  927MOL0     H22348   2.636   1.512  11.614  1.2997  0.5147 -2.2844
  927MOL0     H22349   2.712   1.278  11.583  1.3981  0.4767  5.6767
  927MOL0     H22350   2.876   1.150  10.305 -1.2746 -1.2704  1.4770
  927MOL0     H22351   2.991   1.156  10.069  0.0930 -0.5725 -0.7056
  927MOL0     H22352   2.851   1.108   9.573  0.1896  0.8617  3.9746
  927MOL0     H22353   2.983   1.063   9.381 -1.3624  2.8081 -2.2039
  927MOL0     H22354   3.333   1.372   9.311  0.4024 -0.8692  1.0729
  927MOL0     H22355   3.332   1.272   9.168  0.0786 -2.4937 -0.9658
  927MOL0     H22356   3.444   1.203   9.450  0.8338  2.2488 -0.3508
  927MOL0     H22357   3.430   1.086   9.314  0.1688 -0.4330 -0.4045
  927MOL0     H22358   3.558   1.365   9.302 -0.7051 -0.3126 -0.1446
  927MOL0     H22359   3.549   1.260   9.166  2.8586 -0.5025  0.7623
  927MOL0     H22360   3.773   1.203   9.243 -0.5778  0.1873 -1.0550
  927MOL0     H22361   3.740   1.243   9.409  2.1646 -1.6699 -0.0396
  927MOL0     H22362   3.647   0.835   9.394 -3.3661 -0.3244  1.6824
  927MOL0     H22363   3.274   1.361   9.527 -1.6239  2.4724  3.0667
  927MOL0     H22364   3.124   1.384   9.735 -3.5846 -0.0946  1.5477
  928MOL0     O22365   0.660  10.476   5.524  0.5213 -0.2447 -0.1440
  928MOL0     C22366   0.628  10.415   5.627 -1.2309  0.0282  0.0338
  928MOL0     O22367   0.714  10.387   5.733  0.8025  0.6697  0.0811
  928MOL0     C22368   0.842  10.426   5.754  0.2052  0.4080 -0.7514
  928MOL0     C22369   0.891  10.547   5.696 -0.6678 -0.3487 -0.0915
  928MOL0     C22370   1.012  10.597   5.737 -0.4124  0.6348 -0.2361
  928MOL0     C22371   1.102  10.518   5.809 -0.3877 -0.0107 -0.0642
  928MOL0     O22372   1.220  10.579   5.831 -0.0689  0.0015  0.5686
  928MOL0     C22373   1.306  10.517   5.923  0.3516  0.7875 -0.4149
  928MOL0     C22374   1.435  10.587   5.963 -0.1501 -0.7051 -0.0850
  928MOL0     C22375   1.509  10.519   6.084 -0.5730 -0.7726 -0.4526
  928MOL0     C22376   1.661  10.540   6.077 -0.0883 -0.1146  0.4891
  928MOL0     C22377   1.725  10.462   6.194 -0.3680 -0.0465  0.7122
  928MOL0     C22378   1.684  10.527   6.323  0.4288 -0.2834 -0.0979
  928MOL0     C22379   1.805  10.571   6.412  0.5542  0.1080  0.7741
  928MOL0     C22380   1.862  10.460   6.497  0.0198  0.0330 -0.0682
  928MOL0     N22381   1.918  10.351   6.410 -0.0345  1.3391  0.0180
  928MOL0     C22382   2.029  10.369   6.328  0.4669 -0.0732  0.3499
  928MOL0     C22383   2.033  10.259   6.245  0.2079 -0.1640 -0.1214
  928MOL0     C22384   2.138  10.234   6.142 -0.7545  0.2899 -0.3854
  928MOL0     C22385   2.160  10.339   6.032  0.0379  0.8294  0.7395
  928MOL0     C22386   2.263  10.442   6.062 -0.8156  0.3998 -0.4685
  928MOL0     C22387   2.406  10.381   6.067  0.6332 -0.4285 -0.2041
  928MOL0     O22388   2.437  10.287   5.962 -0.3333  0.0528 -0.0412
  928MOL0     C22389   2.568  10.280   5.940  0.3430 -0.2017 -0.6120
  928MOL0     C22390   2.610  10.337   5.818  0.3121 -0.1382  0.2188
  928MOL0     C22391   2.743  10.353   5.792 -1.1789 -0.6861 -0.1468
  928MOL0     C22392   2.844  10.306   5.884 -0.5375 -0.0612  0.1024
  928MOL0     C22393   2.986  10.325   5.860  0.4396 -0.7559  0.0870
  928MOL0     O22394   3.016  10.431   5.789  0.2824  0.8680 -0.1468
  928MOL0     C22395   3.148  10.447   5.754  0.3528  0.2045  0.5929
  928MOL0     C22396   3.196  10.362   5.652 -0.4982  0.4135 -0.1755
  928MOL0     C22397   3.325  10.379   5.602 -0.8004  0.0578  0.3842
  928MOL0     C22398   3.412  10.482   5.653  0.7487  0.3912 -0.8265
  928MOL0     O22399   3.550  10.502   5.633 -0.6244 -0.0063  0.6049
  928MOL0     C22400   3.633  10.416   5.551  0.4201  1.1638 -0.0906
  928MOL0     C22401   3.605  10.454   5.407 -0.7263  0.0254 -0.5659
  928MOL0     C22402   3.665  10.594   5.394 -1.0010 -0.2659 -0.4461
  928MOL0     C22403   3.607  10.664   5.276  0.7241 -0.9208  0.2043
  928MOL0     C22404   3.654  10.811   5.266  0.2579  0.5341 -1.0325
  928MOL0     C22405   3.647  10.887   5.137  0.3756  0.4494 -0.7076
  928MOL0     C22406   3.666  11.036   5.159  0.2607 -0.5074  0.2036
  928MOL0     C22407   3.790  11.081   5.226 -0.3478 -0.4522  1.3236
  928MOL0    Cl22408   3.815  11.259   5.217 -0.0809  0.5420 -0.5624
  928MOL0     C22409   3.363  10.558   5.762 -0.1520  0.7557 -0.3030
  928MOL0     C22410   3.234  10.539   5.809  0.3930 -0.6380 -0.4425
  928MOL0     O22411   3.070  10.255   5.911  0.9740  0.2823  0.0424
  928MOL0     C22412   2.801  10.232   6.004  0.8196  0.2576 -0.7633
  928MOL0     C22413   2.665  10.230   6.032  1.6205  0.3369 -0.2389
  928MOL0     N22414   1.937  10.171   6.294  0.5948  0.7088 -0.1369
  928MOL0     N22415   1.861  10.230   6.385  0.4095 -0.6185 -0.0191
  928MOL0     C22416   1.052  10.393   5.855 -0.4339 -0.6414 -0.5883
  928MOL0     C22417   0.926  10.356   5.843 -0.0941 -0.5281  0.0780
  928MOL0     C22418   0.499  10.367   5.648 -1.1682 -0.7714 -0.3777
  928MOL0     C22419   0.467  10.290   5.763 -0.7164 -0.7800  0.0959
  928MOL0     C22420   0.339  10.263   5.795  0.2725  1.3393 -0.3665
  928MOL0     C22421   0.234  10.296   5.713  0.3950  0.0525  0.6521
  928MOL0     O22422   0.098  10.263   5.731 -0.9899  0.6860 -0.1458
  928MOL0     C22423   0.054  10.217   5.856 -0.0778  0.2686 -0.2897
  928MOL0     C22424   0.041  10.334   5.950  0.1250 -0.0663 -0.5038
  928MOL0     C22425  -0.064  10.441   5.915  0.2624  0.1539  0.6417
  928MOL0     C22426   0.000  10.548   5.836 -0.1235 -0.6702 -0.3695
  928MOL0     C22427  -0.096  10.649   5.780 -0.6722 -0.1886  1.1828
  928MOL0     C22428  -0.171  10.735   5.725 -0.1692 -0.5852 -1.0318
  928MOL0     C22429   0.263  10.377   5.603 -0.8916 -0.1443  0.2959
  928MOL0     C22430   0.392  10.417   5.577 -0.7124  0.8935  0.2932
  928MOL0     H22431   0.830  10.615   5.639  0.4069  0.2603 -0.5379
  928MOL0     H22432   1.028  10.698   5.702 -0.9432  0.7013 -0.2906
  928MOL0     H22433   1.343  10.423   5.880  1.8457  1.0103  0.3157
  928MOL0     H22434   1.250  10.489   6.012  0.3412  2.5095  0.1428
  928MOL0     H22435   1.413  10.691   5.988  1.7788 -0.8644  2.6855
  928MOL0     H22436   1.489  10.590   5.868 -1.9106 -0.0660 -1.1289
  928MOL0     H22437   1.486  10.412   6.076  3.6043 -1.9824  1.2178
  928MOL0     H22438   1.464  10.552   6.178  0.0321  2.3691 -1.1486
  928MOL0     H22439   1.702  10.517   5.978  1.2996  2.6837  0.2875
  928MOL0     H22440   1.693  10.643   6.099  2.2436 -0.8358  0.7127
  928MOL0     H22441   1.833  10.446   6.193  0.3703  2.3497  6.1527
  928MOL0     H22442   1.678  10.363   6.199  2.6853 -1.6469  0.2163
  928MOL0     H22443   1.621  10.458   6.379 -1.3812  0.3705 -1.2506
  928MOL0     H22444   1.627  10.618   6.302 -0.4033 -0.8920 -0.5042
  928MOL0     H22445   1.888  10.622   6.362 -1.0893  1.1846 -1.0004
  928MOL0     H22446   1.786  10.648   6.488  1.8316  0.0149  1.2089
  928MOL0     H22447   1.780  10.431   6.564 -0.2041  2.0835  0.6064
  928MOL0     H22448   1.945  10.504   6.553  1.6968  1.0467 -3.1115
  928MOL0     H22449   2.080  10.463   6.308 -1.7489  1.3759  1.0959
  928MOL0     H22450   2.122  10.136   6.097  0.8281 -0.8212  1.2917
  928MOL0     H22451   2.234  10.212   6.189  0.5110  1.4736 -2.2890
  928MOL0     H22452   2.063  10.383   6.006 -0.6237 -2.0061 -2.1913
  928MOL0     H22453   2.183  10.297   5.934 -1.4351 -0.3397  0.8568
  928MOL0     H22454   2.257  10.531   5.998  0.1326  1.0595  0.3274
  928MOL0     H22455   2.245  10.481   6.163 -0.4911  5.1203 -1.9647
  928MOL0     H22456   2.413  10.325   6.161 -0.4757  0.2304  0.2884
  928MOL0     H22457   2.464  10.473   6.075  1.4563 -0.9438 -0.1000
  928MOL0     H22458   2.544  10.388   5.748 -1.2454 -2.6729 -0.2920
  928MOL0     H22459   2.766  10.413   5.704  0.6234  1.6142  1.7909
  928MOL0     H22460   3.126  10.288   5.614 -0.2346  0.3012 -0.4527
  928MOL0     H22461   3.363  10.308   5.530 -1.0627  2.3189 -2.1473
  928MOL0     H22462   3.592  10.316   5.567 -3.8443  2.4201 -1.5787
  928MOL0     H22463   3.742  10.415   5.558  0.3955 -1.0862  0.6733
  928MOL0     H22464   3.500  10.462   5.377 -0.4877 -2.8410 -2.5737
  928MOL0     H22465   3.663  10.380   5.351 -0.1434 -1.4810  1.8665
  928MOL0     H22466   3.768  10.577   5.363 -1.7619 -3.3666 -1.6736
  928MOL0     H22467   3.665  10.655   5.485 -2.6353 -1.4787  0.4315
  928MOL0     H22468   3.618  10.613   5.180  1.2512 -1.8031  0.7227
  928MOL0     H22469   3.500  10.680   5.289  0.8838 -1.0396  1.9124
  928MOL0     H22470   3.762  10.797   5.277  0.3331 -0.1315 -2.3807
  928MOL0     H22471   3.601  10.861   5.347  0.0566  0.1362 -0.9188
  928MOL0     H22472   3.543  10.872   5.104  1.2986 -0.4331 -3.5295
  928MOL0     H22473   3.717  10.844   5.065  3.1812  2.5212  0.6046
  928MOL0     H22474   3.648  11.075   5.058 -5.0456  0.9032  1.3612
  928MOL0     H22475   3.578  11.069   5.216  0.3260 -0.3476  0.2116
  928MOL0     H22476   3.878  11.031   5.184 -1.0745  0.4213 -1.4511
  928MOL0     H22477   3.797  11.056   5.333  1.3757 -1.7391  0.9519
  928MOL0     H22478   3.433  10.636   5.790 -0.1816  0.5565  0.3360
  928MOL0     H22479   3.204  10.609   5.887  0.7566 -1.2590  0.2682
  928MOL0     H22480   2.874  10.186   6.070 -0.0609 -0.9374 -0.6042
  928MOL0     H22481   2.638  10.193   6.131  0.6963 -0.1899 -0.6746
  928MOL0     H22482   1.117  10.325   5.909 -0.8907 -1.6482 -1.2683
  928MOL0     H22483   0.901  10.271   5.906  0.9530 -0.2752  0.8629
  928MOL0     H22484   0.540  10.260   5.837 -3.1258  1.1131  3.5229
  928MOL0     H22485   0.319  10.190   5.873 -1.6257 -2.5237 -4.0596
  928MOL0     H22486   0.119  10.142   5.901  2.5493  3.3481  1.4862
  928MOL0     H22487  -0.050  10.182   5.855  0.6630 -2.0774 -1.2952
  928MOL0     H22488   0.000  10.291   6.043  0.0275  0.3415 -0.3541
  928MOL0     H22489   0.143  10.373   5.958 -0.0149  0.3781 -0.8518
  928MOL0     H22490  -0.107  10.487   6.005  1.2361 -0.1360  1.2803
  928MOL0     H22491  -0.141  10.389   5.858 -0.4626  0.5831  1.2089
  928MOL0     H22492   0.074  10.603   5.896 -0.8812 -1.8505  1.7696
  928MOL0     H22493   0.051  10.523   5.742 -3.4979 -1.5639 -2.1181
  928MOL0     H22494  -0.225  10.814   5.676 -0.2401  1.2573  1.7952
  928MOL0     H22495   0.183  10.400   5.532 -0.6579  0.5723  0.2593
  928MOL0     H22496   0.420  10.477   5.491 -0.5669  0.6031  0.1367
  929MOL0     O22497   9.768   1.459   0.224 -0.5356 -0.1530  0.2480
  929MOL0     C22498   9.855   1.537   0.240 -0.3327 -0.2721 -0.4202
  929MOL0     O22499   9.931   1.542   0.355 -0.3506 -0.7407 -0.1678
  929MOL0     C22500   9.888   1.473   0.462 -0.4123  0.8536 -0.3072
  929MOL0     C22501   9.762   1.479   0.514 -0.1491 -0.5266  0.1260
  929MOL0     C22502   9.723   1.416   0.628 -0.8106 -0.0525 -0.0728
  929MOL0     C22503   9.818   1.335   0.690 -0.1071 -0.5429 -0.9806
  929MOL0     O22504   9.779   1.265   0.799 -0.5741  0.1689 -0.4637
  929MOL0     C22505   9.780   1.120   0.776 -0.8889  0.1463 -0.5000
  929MOL0     C22506   9.742   1.053   0.898 -0.2437  0.3467  1.0762
  929MOL0     C22507   9.801   0.909   0.897 -0.5027 -1.7630 -0.1995
  929MOL0     C22508   9.708   0.823   0.827 -0.2007 -0.0808 -0.0329
  929MOL0     C22509   9.709   0.675   0.875 -0.2815  0.6788 -0.6759
  929MOL0     C22510   9.847   0.609   0.835  0.1233  0.4972  0.1373
  929MOL0     C22511   9.859   0.468   0.895 -0.4705 -0.1277  0.0642
  929MOL0     C22512   9.756   0.360   0.846 -1.4528  0.0521 -1.1395
  929MOL0     N22513   9.790   0.233   0.912  0.0363  0.3753  0.2403
  929MOL0     C22514   9.886   0.146   0.872 -0.0191 -0.2887 -0.3577
  929MOL0     C22515   9.872   0.033   0.948  0.1778  0.2194  0.0935
  929MOL0     C22516   9.948  -0.105   0.945 -0.1639 -0.7166  0.0753
  929MOL0     C22517   9.934  -0.187   0.815  0.3888  0.6067 -0.9215
  929MOL0     C22518   9.790  -0.222   0.789  0.7559 -0.7047  0.0174
  929MOL0     C22519   9.702  -0.279   0.901  0.5578  0.5549 -0.1836
  929MOL0     O22520   9.766  -0.359   1.001  0.7814 -0.4946 -1.0111
  929MOL0     C22521   9.816  -0.476   0.966 -0.2506  0.7602  1.0267
  929MOL0     C22522   9.833  -0.536   0.842 -0.0989 -0.1902 -1.0584
  929MOL0     C22523   9.888  -0.660   0.826  0.3764 -0.8160  0.3414
  929MOL0     C22524   9.936  -0.727   0.944 -1.8580  0.1598 -1.2279
  929MOL0     C22525  10.005  -0.864   0.932 -0.0964 -0.4313  0.1723
  929MOL0     O22526  10.039  -0.928   1.050  0.6327  0.3408  0.4024
  929MOL0     C22527  10.104  -1.045   1.035 -0.7694  0.4137 -0.3177
  929MOL0     C22528  10.038  -1.157   1.020 -0.0620  0.6946  0.5336
  929MOL0     C22529  10.101  -1.282   1.038  0.9270  0.0004  0.4192
  929MOL0     C22530  10.235  -1.301   1.064  0.5800 -0.1079  0.3505
  929MOL0     O22531  10.295  -1.420   1.079 -1.1532 -0.4730  0.3237
  929MOL0     C22532  10.206  -1.529   1.099 -0.8777 -0.5168 -0.7987
  929MOL0     C22533  10.181  -1.590   0.965 -0.1834 -0.9175 -0.1616
  929MOL0     C22534  10.270  -1.709   0.929 -0.3381  1.4865 -0.6712
  929MOL0     C22535  10.211  -1.830   0.991 -0.3715  0.4580  0.6503
  929MOL0     C22536  10.322  -1.939   0.992 -0.2080  0.2356  0.2376
  929MOL0     C22537  10.354  -1.997   0.847 -1.0784  0.2601 -1.2126
  929MOL0     C22538  10.482  -2.075   0.864  1.1800 -0.1424 -0.5382
  929MOL0     C22539  10.552  -2.144   0.752 -1.1366 -0.3511 -0.3921
  929MOL0    Cl22540  10.457  -2.292   0.701  0.2793 -0.2383  0.1114
  929MOL0     C22541  10.311  -1.184   1.074 -0.1582  0.4337  1.0673
  929MOL0     C22542  10.245  -1.058   1.060 -0.0502 -0.1079 -0.5831
  929MOL0     O22543  10.019  -0.913   0.818 -0.9904 -0.0531 -0.3339
  929MOL0     C22544   9.927  -0.658   1.065 -0.6643  0.1743  0.3541
  929MOL0     C22545   9.858  -0.540   1.079  0.8147  0.0224  0.1913
  929MOL0     N22546   9.758   0.053   1.029  0.1571 -0.4729 -0.6162
  929MOL0     N22547   9.726   0.178   1.016  0.4325  0.3235 -0.1485
  929MOL0     C22548   9.957   1.341   0.654  0.4881 -1.0179  0.0566
  929MOL0     C22549   9.991   1.407   0.538  0.5355 -0.2622  0.4452
  929MOL0     C22550   9.890   1.621   0.123  0.4764 -0.6635 -0.8242
  929MOL0     C22551   9.823   1.625  -0.005 -0.7781 -0.6350 -0.5750
  929MOL0     C22552   9.868   1.705  -0.112  0.0841 -0.1330  0.1348
  929MOL0     C22553   9.988   1.772  -0.099  0.4394  0.1669  0.1394
  929MOL0     O22554  10.041   1.833  -0.200 -0.4103 -0.1513 -0.3892
  929MOL0     C22555   9.976   1.950  -0.245  0.7759  0.8283 -0.7358
  929MOL0     C22556   9.953   1.947  -0.401 -0.2663  0.4643 -0.0354
  929MOL0     C22557   9.911   1.824  -0.478 -0.2022 -0.1013  0.1971
  929MOL0     C22558   9.898   1.848  -0.633  1.1316  1.2137 -0.0162
  929MOL0     C22559  10.018   1.897  -0.697  1.1103 -0.8983  0.4332
  929MOL0     C22560  10.108   1.945  -0.762  0.3272 -0.2281  0.7692
  929MOL0     C22561  10.055   1.772   0.025  0.2427  0.5344 -0.5821
  929MOL0     C22562   9.999   1.709   0.142  0.1270 -0.4220 -0.5801
  929MOL0     H22563   9.687   1.526   0.452  0.5491 -0.3082 -0.5703
  929MOL0     H22564   9.620   1.410   0.660 -0.8263 -1.9696 -0.3490
  929MOL0     H22565   9.877   1.081   0.742 -1.5261 -1.2677 -0.7813
  929MOL0     H22566   9.706   1.093   0.700 -0.3981  0.8520 -1.2450
  929MOL0     H22567   9.635   1.048   0.921 -0.1029 -0.5361  1.5711
  929MOL0     H22568   9.788   1.101   0.985  1.8239  1.9720 -0.7943
  929MOL0     H22569   9.818   0.867   0.997  1.6472 -0.6633 -0.0517
  929MOL0     H22570   9.892   0.909   0.836 -1.0789  3.8656 -1.5251
  929MOL0     H22571   9.603   0.853   0.821 -0.5001 -1.2977 -4.6258
  929MOL0     H22572   9.726   0.812   0.719 -2.5031 -3.6227 -0.2210
  929MOL0     H22573   9.616   0.626   0.844  0.5948 -2.5648  1.3508
  929MOL0     H22574   9.703   0.670   0.984  0.7839 -1.1991 -0.6505
  929MOL0     H22575   9.926   0.673   0.876 -0.9704  1.4586  0.7865
  929MOL0     H22576   9.853   0.605   0.725  0.8806  1.4896  0.1302
  929MOL0     H22577   9.961   0.434   0.877 -0.3760  0.7529 -1.2606
  929MOL0     H22578   9.859   0.483   1.003  1.7508  2.7192 -0.1978
  929MOL0     H22579   9.748   0.345   0.738 -0.3637  0.8674 -1.3563
  929MOL0     H22580   9.660   0.395   0.885 -0.4874  2.2265 -0.5142
  929MOL0     H22581   9.961   0.161   0.795 -0.1013  2.7354  0.0452
  929MOL0     H22582   9.924  -0.170   1.030  1.8482 -0.9897  0.4881
  929MOL0     H22583  10.056  -0.092   0.957 -0.3752  1.4007  0.0217
  929MOL0     H22584   9.988  -0.282   0.819 -3.7106 -1.9439  1.3651
  929MOL0     H22585   9.980  -0.134   0.731  1.7999 -1.0759 -1.2700
  929MOL0     H22586   9.744  -0.130   0.751 -0.4534 -1.4684 -0.4441
  929MOL0     H22587   9.795  -0.280   0.696  1.5366 -2.5939  1.1679
  929MOL0     H22588   9.614  -0.327   0.857 -0.0252  3.5085 -2.5688
  929MOL0     H22589   9.662  -0.190   0.950 -1.1156  1.4601 -3.0041
  929MOL0     H22590   9.798  -0.489   0.750  0.8447  2.3160 -0.2310
  929MOL0     H22591   9.891  -0.707   0.728 -0.0523  1.6165 -0.9402
  929MOL0     H22592   9.930  -1.147   1.010 -0.0291 -0.0050 -0.7526
  929MOL0     H22593  10.032  -1.361   1.013  2.1125 -1.1452  0.6357
  929MOL0     H22594  10.108  -1.499   1.136 -0.4518  1.5250 -1.1950
  929MOL0     H22595  10.242  -1.600   1.173 -0.9996 -0.0899 -0.3206
  929MOL0     H22596  10.183  -1.530   0.873  0.1949 -1.1569 -0.3153
  929MOL0     H22597  10.072  -1.601   0.962 -0.5561  2.0962 -0.2196
  929MOL0     H22598  10.375  -1.687   0.952  0.4538  2.9165 -4.7292
  929MOL0     H22599  10.280  -1.720   0.821 -1.6402 -0.0938 -0.6576
  929MOL0     H22600  10.201  -1.802   1.096  0.8529  3.1713  0.1207
  929MOL0     H22601  10.117  -1.866   0.947 -1.0623  1.3342  1.3833
  929MOL0     H22602  10.290  -2.022   1.055  1.6701  1.1282  2.5179
  929MOL0     H22603  10.413  -1.901   1.039 -0.8750  2.2931 -0.0311
  929MOL0     H22604  10.378  -1.916   0.778  0.7367 -0.2913 -1.2601
  929MOL0     H22605  10.277  -2.069   0.818 -1.5694  0.8644 -1.4412
  929MOL0     H22606  10.546  -1.993   0.900  0.8589  1.0632 -2.5594
  929MOL0     H22607  10.465  -2.150   0.942  1.1996  2.2129  1.8738
  929MOL0     H22608  10.652  -2.172   0.786 -1.6847 -0.1450  1.4887
  929MOL0     H22609  10.555  -2.069   0.672 -0.6740  0.3067  0.2340
  929MOL0     H22610  10.418  -1.194   1.062 -0.2960  0.7234 -0.7239
  929MOL0     H22611  10.301  -0.970   1.089  0.7872 -0.7231 -0.2892
  929MOL0     H22612   9.947  -0.709   1.158 -1.0878 -2.7121 -1.0309
  929MOL0     H22613   9.833  -0.502   1.178  0.3877  1.3258 -0.3901
  929MOL0     H22614  10.031   1.285   0.709  1.7700  1.0003  0.5084
  929MOL0     H22615  10.092   1.413   0.498 -0.1604 -1.5902 -1.6665
  929MOL0     H22616   9.743   1.558  -0.034  0.9417 -1.9666 -2.5025
  929MOL0     H22617   9.808   1.703  -0.202 -0.4754 -3.2798  0.4531
  929MOL0     H22618  10.036   2.037  -0.217 -1.9326  1.9650  2.0804
  929MOL0     H22619   9.880   1.954  -0.193  0.1768 -1.3524 -1.5373
  929MOL0     H22620   9.884   2.029  -0.423 -2.8750 -0.2056  4.4325
  929MOL0     H22621  10.054   1.972  -0.435  0.1423 -0.2195  0.6389
  929MOL0     H22622   9.809   1.804  -0.442 -1.5704 -0.4046 -3.4428
  929MOL0     H22623   9.978   1.741  -0.456  0.1515 -0.0903 -0.7935
  929MOL0     H22624   9.884   1.756  -0.691  1.0197  0.0911  1.7190
  929MOL0     H22625   9.804   1.899  -0.653  0.5316  0.0731 -0.1783
  929MOL0     H22626  10.183   1.983  -0.829 -2.2433  0.2020 -2.0807
  929MOL0     H22627  10.157   1.809   0.033 -0.1300  1.7531 -1.1798
  929MOL0     H22628  10.059   1.707   0.233  1.7956 -1.4402 -1.6354
  930MOL0     O22629   3.314   6.236   7.744  0.0523  0.4113  0.3603
  930MOL0     C22630   3.236   6.151   7.805 -1.4552  0.2685  0.5036
  930MOL0     O22631   3.220   6.141   7.942  0.5641 -0.1349  0.2031
  930MOL0     C22632   3.292   6.241   8.000  0.1439  0.2680 -0.4686
  930MOL0     C22633   3.418   6.206   8.041  0.1622 -0.7658 -0.4281
  930MOL0     C22634   3.498   6.287   8.110  1.0262 -0.1101 -0.5658
  930MOL0     C22635   3.451   6.417   8.148  0.9897  0.0056 -0.9156
  930MOL0     O22636   3.521   6.500   8.247  0.2687  0.5029  0.8912
  930MOL0     C22637   3.616   6.433   8.334  0.6672 -0.6440 -0.1404
  930MOL0     C22638   3.656   6.540   8.431  0.2974 -0.5996 -0.2622
  930MOL0     C22639   3.761   6.500   8.533 -0.8827  0.7768 -0.0263
  930MOL0     C22640   3.907   6.476   8.470 -0.2742 -0.0093  0.6273
  930MOL0     C22641   4.006   6.567   8.541 -0.2436  0.2779 -0.0528
  930MOL0     C22642   4.044   6.532   8.691 -0.0842 -0.0845 -0.0048
  930MOL0     C22643   4.126   6.405   8.703  0.3108  0.4327 -0.6731
  930MOL0     C22644   4.127   6.364   8.855 -0.0389  0.7407 -0.1434
  930MOL0     N22645   4.215   6.246   8.881 -0.7862 -0.3864  0.7479
  930MOL0     C22646   4.172   6.121   8.912  0.2203 -0.1339 -0.4111
  930MOL0     C22647   4.282   6.051   8.934  0.1846  0.0022  0.0951
  930MOL0     C22648   4.290   5.904   8.958 -0.0333 -0.3697  0.2454
  930MOL0     C22649   4.304   5.862   9.106  0.5925  0.5772  1.2259
  930MOL0     C22650   4.385   5.732   9.102 -0.5921 -0.0678 -0.1174
  930MOL0     C22651   4.327   5.628   9.006 -0.4755 -0.0661  0.2476
  930MOL0     O22652   4.203   5.593   9.069  0.2725  0.2831 -0.1040
  930MOL0     C22653   4.113   5.522   9.003 -0.0814  0.6403  0.6758
  930MOL0     C22654   4.119   5.482   8.871 -0.0520 -0.9386 -0.2008
  930MOL0     C22655   4.033   5.396   8.803  1.3824 -1.1471 -0.4428
  930MOL0     C22656   3.919   5.353   8.875 -0.7687  0.2804  0.4166
  930MOL0     C22657   3.818   5.262   8.814 -0.1030  0.4017 -1.2261
  930MOL0     O22658   3.834   5.246   8.679 -0.7698  0.5156  1.2641
  930MOL0     C22659   3.748   5.163   8.617  0.2754  0.3387 -0.6651
  930MOL0     C22660   3.631   5.214   8.558  0.5747 -0.0466  0.3891
  930MOL0     C22661   3.537   5.124   8.492 -0.4775 -0.4661 -1.0361
  930MOL0     C22662   3.570   4.990   8.470 -0.0334  0.1657  0.1963
  930MOL0     O22663   3.498   4.904   8.388 -0.1795  0.3119  0.1317
  930MOL0     C22664   3.389   4.959   8.312  0.3465 -0.1925  0.3042
  930MOL0     C22665   3.359   4.851   8.208  0.5604 -0.1981  1.0443
  930MOL0     C22666   3.231   4.867   8.118 -0.1855 -0.3621 -0.0862
  930MOL0     C22667   3.100   4.817   8.177  0.1051 -0.2450  0.4854
  930MOL0     C22668   3.011   4.916   8.252  1.4513  0.3767 -0.5966
  930MOL0     C22669   3.054   4.930   8.402  0.3560 -0.0861 -0.1370
  930MOL0     C22670   2.934   4.919   8.503  0.3415  0.4602 -0.1476
  930MOL0     C22671   2.982   4.956   8.646 -0.2146 -0.4735  0.8925
  930MOL0    Cl22672   2.857   4.894   8.745  0.0123  0.4743  0.0744
  930MOL0     C22673   3.689   4.949   8.530  0.7682  0.5958  0.3548
  930MOL0     C22674   3.774   5.026   8.607 -0.0243 -0.2729 -0.5431
  930MOL0     O22675   3.717   5.222   8.875  0.5141 -0.4101  0.3074
  930MOL0     C22676   3.909   5.403   9.009  0.1964  0.1375 -0.0055
  930MOL0     C22677   4.006   5.480   9.073 -0.5753 -0.7408 -0.9660
  930MOL0     N22678   4.392   6.122   8.910 -0.2811  0.1469  0.8948
  930MOL0     N22679   4.356   6.236   8.871  0.4797 -0.4683 -0.3720
  930MOL0     C22680   3.327   6.455   8.094 -2.0655  0.6284 -0.0293
  930MOL0     C22681   3.249   6.371   8.021  0.2606  0.5103 -0.5375
  930MOL0     C22682   3.161   6.056   7.722  0.6148 -0.4353  0.6085
  930MOL0     C22683   3.219   5.986   7.613  0.3249 -1.0843 -0.2555
  930MOL0     C22684   3.159   5.873   7.559  0.6222  0.2049  0.6808
  930MOL0     C22685   3.039   5.832   7.610  0.1795 -0.4517 -0.4219
  930MOL0     O22686   2.972   5.729   7.552  0.0319 -0.0633  0.7487
  930MOL0     C22687   3.018   5.650   7.436 -0.5853 -0.1923 -0.9822
  930MOL0     C22688   2.927   5.532   7.413  0.1458 -0.1583 -0.3348
  930MOL0     C22689   2.876   5.455   7.533 -0.1615  0.5367  0.0637
  930MOL0     C22690   2.987   5.371   7.585 -1.2074 -0.7392 -0.3318
  930MOL0     C22691   2.934   5.248   7.658  0.2132 -0.1312 -1.0368
  930MOL0     C22692   2.903   5.143   7.709 -0.8187 -0.2980  0.4926
  930MOL0     C22693   2.985   5.886   7.731 -0.1377 -0.3302 -0.2517
  930MOL0     C22694   3.047   5.998   7.792 -0.2893 -0.8360  0.5778
  930MOL0     H22695   3.448   6.102   8.040  1.3130 -0.4548 -0.2643
  930MOL0     H22696   3.589   6.249   8.157  2.8272  1.4609 -2.5691
  930MOL0     H22697   3.703   6.384   8.288  0.8057 -1.2348  0.7311
  930MOL0     H22698   3.568   6.352   8.390  1.2016 -2.0669 -1.6407
  930MOL0     H22699   3.566   6.569   8.486 -0.8387 -3.5294 -0.3856
  930MOL0     H22700   3.688   6.626   8.372  2.3551 -0.6845  0.6291
  930MOL0     H22701   3.735   6.409   8.587  0.8580 -0.0738 -0.5382
  930MOL0     H22702   3.769   6.580   8.608 -1.8340  0.8810 -0.0225
  930MOL0     H22703   3.920   6.368   8.472  1.3138  0.1560  0.2380
  930MOL0     H22704   3.917   6.500   8.364 -0.6220 -0.6493  0.4404
  930MOL0     H22705   3.975   6.669   8.517  1.6854  0.0750 -4.4295
  930MOL0     H22706   4.100   6.560   8.485 -0.6647 -2.3391 -0.5498
  930MOL0     H22707   3.948   6.510   8.738  0.9630 -2.1809  1.3383
  930MOL0     H22708   4.086   6.622   8.736 -0.8000  1.4990 -2.3548
  930MOL0     H22709   4.084   6.324   8.643 -0.0702 -0.5906  0.9036
  930MOL0     H22710   4.227   6.427   8.668  0.5136  1.9513  0.7150
  930MOL0     H22711   4.027   6.346   8.896 -0.1864  3.7586  1.0850
  930MOL0     H22712   4.163   6.449   8.914  0.2296  0.9757 -0.6434
  930MOL0     H22713   4.069   6.088   8.921 -0.4450  1.7677 -0.4477
  930MOL0     H22714   4.379   5.880   8.900 -1.4865 -0.6119 -2.0217
  930MOL0     H22715   4.207   5.847   8.915  0.1579 -0.1927 -0.3596
  930MOL0     H22716   4.206   5.851   9.153 -1.4978  3.8308 -1.8463
  930MOL0     H22717   4.364   5.929   9.169  1.3379  1.0519  0.0594
  930MOL0     H22718   4.489   5.755   9.076 -0.7422 -0.5567 -1.2205
  930MOL0     H22719   4.384   5.688   9.202  2.7343 -0.7132 -0.2356
  930MOL0     H22720   4.387   5.537   8.999 -1.8941 -0.9641 -0.6896
  930MOL0     H22721   4.324   5.668   8.904  0.6858  0.6508  0.4875
  930MOL0     H22722   4.207   5.502   8.812 -0.6487  1.0514 -0.5177
  930MOL0     H22723   4.063   5.362   8.704  2.2044 -2.2874  0.1832
  930MOL0     H22724   3.604   5.318   8.571 -0.8812 -0.1910 -1.1447
  930MOL0     H22725   3.441   5.167   8.467 -0.3454  1.4307  1.3627
  930MOL0     H22726   3.412   5.055   8.264  1.0044 -0.1946  0.6116
  930MOL0     H22727   3.309   4.963   8.387  1.9362 -1.5070  2.1755
  930MOL0     H22728   3.341   4.760   8.265  0.4732  0.0980  1.4960
  930MOL0     H22729   3.447   4.847   8.144 -0.6808  2.2343 -0.9869
  930MOL0     H22730   3.249   4.798   8.035 -2.0306 -3.2022  1.7012
  930MOL0     H22731   3.213   4.964   8.070 -1.9700 -0.9492 -0.6475
  930MOL0     H22732   3.033   4.793   8.095 -3.1744 -0.8220  3.1214
  930MOL0     H22733   3.120   4.734   8.246 -2.7021 -0.5794  1.0089
  930MOL0     H22734   2.909   4.880   8.238  2.3589 -2.6424 -0.0268
  930MOL0     H22735   3.014   5.016   8.207 -2.8928 -0.0446 -2.3185
  930MOL0     H22736   3.089   5.033   8.412 -0.8611  0.4101 -0.8223
  930MOL0     H22737   3.135   4.864   8.436 -0.8936 -1.2348  0.7142
  930MOL0     H22738   2.861   4.983   8.453 -1.0893 -1.0858 -0.0978
  930MOL0     H22739   2.902   4.815   8.501 -1.2329  0.8830  1.3327
  930MOL0     H22740   3.008   5.063   8.642  1.2780 -0.8483 -1.0726
  930MOL0     H22741   3.075   4.905   8.672 -0.4587 -1.1411  0.4593
  930MOL0     H22742   3.715   4.847   8.506  0.8280  1.3067 -3.1148
  930MOL0     H22743   3.865   4.982   8.647 -2.5798 -4.7920  1.0171
  930MOL0     H22744   3.824   5.368   9.067  0.6078  0.3223  0.7184
  930MOL0     H22745   3.993   5.514   9.175 -2.3825  2.0711 -2.0154
  930MOL0     H22746   3.293   6.555   8.118  0.7676  1.7418 -0.3288
  930MOL0     H22747   3.151   6.396   7.981  1.3647  2.2356 -2.3723
  930MOL0     H22748   3.304   6.030   7.562 -0.8299  2.7517  0.7926
  930MOL0     H22749   3.199   5.827   7.470  0.5078  0.3740  0.5412
  930MOL0     H22750   3.114   5.600   7.452 -0.6995 -0.1148 -0.0169
  930MOL0     H22751   3.022   5.722   7.354 -1.0153  0.7022 -0.2329
  930MOL0     H22752   2.844   5.575   7.355  4.0672  2.4127 -4.7862
  930MOL0     H22753   2.975   5.467   7.339  0.3073 -0.1071 -0.2756
  930MOL0     H22754   2.805   5.381   7.495  1.4082 -0.4463 -1.1046
  930MOL0     H22755   2.824   5.523   7.601 -2.1746 -0.6279 -0.2326
  930MOL0     H22756   3.054   5.338   7.505  0.9413  2.0031  0.1484
  930MOL0     H22757   3.051   5.432   7.650 -0.2506 -1.6303 -0.4126
  930MOL0     H22758   2.866   5.069   7.777 -1.1822 -2.1721 -1.6398
  930MOL0     H22759   2.902   5.826   7.766 -0.9235  1.5112  1.1649
  930MOL0     H22760   3.010   6.048   7.881  2.3618  2.9999 -0.2405
  931MOL0     O22761   2.580  11.361   5.559 -0.0055 -0.2512  0.8421
  931MOL0     C22762   2.494  11.320   5.643 -0.3196 -0.4222  0.4975
  931MOL0     O22763   2.400  11.220   5.616  0.5066 -0.6610  0.3481
  931MOL0     C22764   2.420  11.128   5.523 -0.3268  0.0549  0.7191
  931MOL0     C22765   2.545  11.092   5.471  0.3925  0.4599  0.2905
  931MOL0     C22766   2.559  10.972   5.391  0.1018 -0.5192  0.2560
  931MOL0     C22767   2.450  10.892   5.372 -0.1984 -0.3605 -0.7975
  931MOL0     O22768   2.454  10.768   5.305 -0.4155 -0.7594  0.1052
  931MOL0     C22769   2.568  10.687   5.317  0.1048 -0.5427 -0.0067
  931MOL0     C22770   2.544  10.556   5.239  1.2105  0.9724  0.5717
  931MOL0     C22771   2.428  10.475   5.293  0.6832  0.1114 -0.0177
  931MOL0     C22772   2.442  10.338   5.228  1.4119 -0.0071  0.0710
  931MOL0     C22773   2.353  10.231   5.290 -0.5791  0.8351  0.1162
  931MOL0     C22774   2.366  10.094   5.225 -0.1273  0.4067  0.0141
  931MOL0     C22775   2.252   9.996   5.259 -0.5912 -0.8885  0.6097
  931MOL0     C22776   2.255   9.875   5.159  0.6420 -0.3474 -0.3306
  931MOL0     N22777   2.141   9.789   5.177  0.1163 -0.1194  0.4599
  931MOL0     C22778   2.098   9.748   5.302  0.2426  0.4760  0.0579
  931MOL0     C22779   1.976   9.700   5.271  0.3205  0.8608 -0.1950
  931MOL0     C22780   1.878   9.622   5.363  0.0318 -0.4689  0.0729
  931MOL0     C22781   1.903   9.667   5.513 -0.1314  0.2066 -0.0306
  931MOL0     C22782   1.799   9.624   5.615 -0.4824 -0.2050  0.2956
  931MOL0     C22783   1.672   9.709   5.620 -0.1583  0.0498 -0.3113
  931MOL0     O22784   1.583   9.625   5.700 -0.3758 -0.3795 -0.2471
  931MOL0     C22785   1.451   9.642   5.695  0.5368  0.1494  1.3439
  931MOL0     C22786   1.385   9.735   5.622  0.8924 -0.9027 -0.0010
  931MOL0     C22787   1.242   9.748   5.629 -0.2801 -0.2123  0.4310
  931MOL0     C22788   1.162   9.675   5.726 -0.2870  0.3372  0.1550
  931MOL0     C22789   1.019   9.698   5.741 -0.3463 -0.7151  0.7605
  931MOL0     O22790   0.960   9.618   5.832 -0.3121 -1.2092 -0.0741
  931MOL0     C22791   0.830   9.584   5.821  0.3105  0.1856  0.4597
  931MOL0     C22792   0.768   9.558   5.944 -0.1247  0.1462  0.0236
  931MOL0     C22793   0.634   9.504   5.953 -0.7295 -0.6034 -0.2925
  931MOL0     C22794   0.560   9.476   5.833 -0.1495  0.5131  0.0283
  931MOL0     O22795   0.427   9.425   5.821 -0.6367 -0.1455 -0.5844
  931MOL0     C22796   0.353   9.425   5.940  0.3850 -0.2956 -0.1742
  931MOL0     C22797   0.206   9.396   5.902 -1.0732  0.0116  0.7352
  931MOL0     C22798   0.096   9.419   6.009  0.8640  0.8924 -0.2832
  931MOL0     C22799  -0.044   9.363   5.950  0.1797  0.1780 -0.5049
  931MOL0     C22800  -0.153   9.431   6.041 -0.1364  0.2449  0.1942
  931MOL0     C22801  -0.291   9.385   5.995 -0.8514  0.1207 -0.2598
  931MOL0     C22802  -0.403   9.416   6.079  0.5750  0.0171  0.5629
  931MOL0     C22803  -0.456   9.552   6.043 -0.3691 -0.7487  0.3614
  931MOL0    Cl22804  -0.609   9.579   6.121  0.4097  0.2161  0.2773
  931MOL0     C22805   0.623   9.492   5.709 -0.2252 -0.7027 -0.1438
  931MOL0     C22806   0.749   9.545   5.702  0.7860  0.1586  0.0985
  931MOL0     O22807   0.967   9.798   5.687 -1.0205  0.4699 -0.0678
  931MOL0     C22808   1.233   9.581   5.803 -0.9951 -1.0918  0.3617
  931MOL0     C22809   1.376   9.566   5.788 -1.0370  0.0983 -0.1488
  931MOL0     N22810   1.944   9.722   5.141  0.3317  0.0448  1.0914
  931MOL0     N22811   2.039   9.771   5.080  0.0433 -0.6381  0.2046
  931MOL0     C22812   2.321  10.939   5.409  0.2348  0.4358  0.1699
  931MOL0     C22813   2.315  11.059   5.477  0.3264  0.3690 -0.0941
  931MOL0     C22814   2.475  11.402   5.764  0.8502 -0.6071  0.3439
  931MOL0     C22815   2.546  11.526   5.780  0.2148 -0.2987  0.2397
  931MOL0     C22816   2.530  11.602   5.901  0.2292  0.1500 -0.3302
  931MOL0     C22817   2.448  11.545   6.004  0.3625  0.2892  0.9251
  931MOL0     O22818   2.448  11.605   6.124 -0.5754  0.1763  0.2226
  931MOL0     C22819   2.335  11.567   6.208 -0.4152  0.1547  0.4620
  931MOL0     C22820   2.340  11.657   6.338 -0.1331  0.3586  0.0134
  931MOL0     C22821   2.215  11.622   6.422  0.5634 -0.1811 -0.2557
  931MOL0     C22822   2.158  11.739   6.498  0.0520  0.8104 -0.8911
  931MOL0     C22823   2.073  11.699   6.607 -0.1759 -0.5226 -0.7952
  931MOL0     C22824   2.007  11.674   6.698 -0.5046  0.0617 -0.4543
  931MOL0     C22825   2.372  11.431   5.978  0.2973 -0.5139 -1.0488
  931MOL0     C22826   2.382  11.356   5.856  0.2349 -0.6861 -0.7714
  931MOL0     H22827   2.636  11.146   5.496  1.4489 -0.4074 -1.4436
  931MOL0     H22828   2.657  10.942   5.356  1.5632  3.5520  0.2984
  931MOL0     H22829   2.588  10.656   5.420 -1.6439 -2.4200 -0.1722
  931MOL0     H22830   2.658  10.737   5.280  0.6114 -2.5433 -1.6513
  931MOL0     H22831   2.638  10.500   5.249  2.1878  2.4570  0.0503
  931MOL0     H22832   2.514  10.585   5.138  0.4578  2.0302  1.0783
  931MOL0     H22833   2.334  10.523   5.266  0.5545  0.9503  1.8008
  931MOL0     H22834   2.458  10.465   5.398  1.2446 -2.3698 -0.3462
  931MOL0     H22835   2.411  10.358   5.125 -2.2107  4.6867  1.7091
  931MOL0     H22836   2.547  10.307   5.224  1.5768  0.5659 -0.1520
  931MOL0     H22837   2.246  10.254   5.295 -0.3456  2.1482 -0.3823
  931MOL0     H22838   2.396  10.236   5.390  1.1193  1.2403 -0.6044
  931MOL0     H22839   2.463  10.057   5.259 -0.2286 -3.2432 -3.0257
  931MOL0     H22840   2.368  10.111   5.117  0.3451  0.3029  0.0044
  931MOL0     H22841   2.265   9.966   5.363  0.7199 -4.0289 -0.3292
  931MOL0     H22842   2.160  10.048   5.232  0.8867  0.3190 -2.6727
  931MOL0     H22843   2.343   9.811   5.168  0.4268 -0.6610 -0.4295
  931MOL0     H22844   2.248   9.908   5.055  0.1961 -1.6832 -0.7451
  931MOL0     H22845   2.138   9.764   5.401  2.8614 -0.2583 -0.7952
  931MOL0     H22846   1.913   9.518   5.359  3.6360  0.4604  2.2121
  931MOL0     H22847   1.774   9.629   5.330  0.1447 -0.2643 -0.2471
  931MOL0     H22848   1.910   9.775   5.525 -0.0394  0.1456  0.4851
  931MOL0     H22849   1.987   9.614   5.559 -0.8223  0.4465  1.5945
  931MOL0     H22850   1.801   9.515   5.611  3.6481 -0.3850  1.7073
  931MOL0     H22851   1.838   9.636   5.717 -2.8045 -2.2392  1.5426
  931MOL0     H22852   1.633   9.714   5.518 -0.5334  0.5467 -0.1493
  931MOL0     H22853   1.698   9.810   5.651  0.5703 -0.9462  2.7715
  931MOL0     H22854   1.435   9.807   5.558 -0.8691  1.2459  0.8772
  931MOL0     H22855   1.196   9.812   5.554 -2.1739 -2.0887 -0.0994
  931MOL0     H22856   0.816   9.579   6.040  0.7108  0.7314 -0.5044
  931MOL0     H22857   0.587   9.500   6.050 -1.1384  5.1137  0.0877
  931MOL0     H22858   0.361   9.522   5.989 -0.9134 -0.5988  0.7120
  931MOL0     H22859   0.395   9.349   6.007 -3.4670 -3.1111 -0.5666
  931MOL0     H22860   0.210   9.294   5.863 -3.0115  0.0785  0.2544
  931MOL0     H22861   0.183   9.462   5.817  2.5336  3.1712  1.9373
  931MOL0     H22862   0.094   9.526   6.033 -0.9293 -0.1041  5.5999
  931MOL0     H22863   0.123   9.366   6.100  2.2541  2.5633  0.3102
  931MOL0     H22864  -0.079   9.395   5.852 -1.4085 -0.8384 -0.3072
  931MOL0     H22865  -0.062   9.256   5.957 -2.0863  0.5092 -0.3641
  931MOL0     H22866  -0.146   9.540   6.039  1.7254  0.1408 -0.9514
  931MOL0     H22867  -0.146   9.404   6.147 -1.6998  0.9172  0.5012
  931MOL0     H22868  -0.279   9.277   5.980  1.4957  0.3437 -0.3498
  931MOL0     H22869  -0.305   9.428   5.895 -2.1357  2.8219  0.9721
  931MOL0     H22870  -0.484   9.352   6.042  1.8114 -0.8844 -0.6462
  931MOL0     H22871  -0.388   9.400   6.186  0.6610  0.3159  0.5971
  931MOL0     H22872  -0.469   9.559   5.935  1.1727  2.9047  0.2954
  931MOL0     H22873  -0.379   9.627   6.059  6.5277 -6.7168  0.1559
  931MOL0     H22874   0.569   9.449   5.626  1.8223 -0.1965 -1.8289
  931MOL0     H22875   0.790   9.558   5.603  0.1811  4.2530  0.2052
  931MOL0     H22876   1.183   9.514   5.873  0.9026 -3.4582 -0.3772
  931MOL0     H22877   1.427   9.491   5.848 -0.9547  0.4018  0.1677
  931MOL0     H22878   2.226  10.893   5.387 -1.0902  1.8734  2.3956
  931MOL0     H22879   2.220  11.089   5.520  1.0268 -3.0366  4.5462
  931MOL0     H22880   2.619  11.570   5.713  1.1004  0.4115  1.6119
  931MOL0     H22881   2.584  11.695   5.912  0.0708  0.0221  2.0147
  931MOL0     H22882   2.333  11.461   6.236 -1.1880 -0.8485 -2.9630
  931MOL0     H22883   2.240  11.584   6.157  1.2594  0.3899 -2.8586
  931MOL0     H22884   2.437  11.645   6.387  0.6117  0.4336 -1.3832
  931MOL0     H22885   2.332  11.763   6.313  1.8081  0.1978 -1.4956
  931MOL0     H22886   2.246  11.540   6.488 -0.6096 -3.0333 -2.9539
  931MOL0     H22887   2.146  11.579   6.348  2.9213 -1.8385 -1.6567
  931MOL0     H22888   2.237  11.799   6.544 -0.5798 -0.0485  1.4532
  931MOL0     H22889   2.091  11.795   6.431  1.3651  2.0720 -1.2089
  931MOL0     H22890   1.959  11.674   6.793  0.0329 -1.1202 -0.1665
  931MOL0     H22891   2.307  11.395   6.057  0.1591  2.6253  0.4564
  931MOL0     H22892   2.334  11.258   5.857 -2.6941  0.6064 -1.6175
  932MOL0     O22893   0.428   9.024   2.492 -0.5875  0.0361  0.5052
  932MOL0     C22894   0.507   9.104   2.526 -0.6307 -0.6354 -1.0101
  932MOL0     O22895   0.642   9.111   2.507  0.2365 -0.4189 -0.5128
  932MOL0     C22896   0.703   9.025   2.419 -0.2258  0.2149 -0.5530
  932MOL0     C22897   0.813   9.074   2.354 -0.4192 -0.2835  0.5584
  932MOL0     C22898   0.886   9.000   2.253 -0.7300  0.1981  0.6071
  932MOL0     C22899   0.851   8.864   2.224  0.1597 -1.0994 -0.2692
  932MOL0     O22900   0.921   8.778   2.139 -0.1695 -0.1317 -0.1874
  932MOL0     C22901   1.058   8.789   2.149  0.0802 -0.8442  0.8446
  932MOL0     C22902   1.110   8.860   2.024  0.5909 -0.1460  0.8398
  932MOL0     C22903   1.054   8.805   1.888 -0.0578 -0.3457 -0.0221
  932MOL0     C22904   0.923   8.889   1.844 -0.0786  0.9743 -0.0765
  932MOL0     C22905   0.859   8.842   1.705  0.5283 -0.9322 -0.4304
  932MOL0     C22906   0.762   8.951   1.664  0.5137 -0.5107  0.0621
  932MOL0     C22907   0.649   8.925   1.560 -0.4106 -0.1784 -0.3405
  932MOL0     C22908   0.535   9.023   1.566 -0.0900  1.4818 -0.0763
  932MOL0     N22909   0.579   9.155   1.518 -0.2905 -0.2898 -0.0897
  932MOL0     C22910   0.643   9.251   1.589  0.0341 -0.3076 -0.7209
  932MOL0     C22911   0.671   9.355   1.500 -0.2653  0.2401 -0.0049
  932MOL0     C22912   0.748   9.480   1.553 -0.3171 -0.1054  1.0203
  932MOL0     C22913   0.700   9.549   1.676  0.0574  0.6093 -1.1048
  932MOL0     C22914   0.553   9.597   1.665 -0.2579  0.5914  0.3405
  932MOL0     C22915   0.505   9.648   1.800 -1.0796 -0.1907 -0.6515
  932MOL0     O22916   0.534   9.795   1.808  0.3547 -0.7353  0.6651
  932MOL0     C22917   0.548   9.844   1.937  0.3191 -0.8294 -0.2655
  932MOL0     C22918   0.465   9.948   1.986  0.3726 -0.1946  0.3369
  932MOL0     C22919   0.481  10.004   2.114  0.8179 -0.7563  0.1868
  932MOL0     C22920   0.588   9.957   2.195  0.1484 -0.3970 -0.4978
  932MOL0     C22921   0.590  10.014   2.331  0.0474  0.2663  0.0639
  932MOL0     O22922   0.526  10.126   2.367  0.2154 -0.6838 -0.0624
  932MOL0     C22923   0.495  10.150   2.502  0.2764  0.0989  0.0297
  932MOL0     C22924   0.559  10.260   2.561 -0.2180  0.0090 -0.7004
  932MOL0     C22925   0.538  10.290   2.698 -0.2165 -0.0595  0.3352
  932MOL0     C22926   0.461  10.201   2.770  0.1766  0.1946  0.8961
  932MOL0     O22927   0.426  10.219   2.899 -0.1255 -0.6127 -0.1721
  932MOL0     C22928   0.467  10.336   2.978 -0.4829  1.1094  0.7803
  932MOL0     C22929   0.590  10.297   3.057  0.0412 -0.6776 -0.1930
  932MOL0     C22930   0.588  10.198   3.174  1.1693 -0.0980 -0.2673
  932MOL0     C22931   0.578  10.051   3.141  0.1751 -0.5647 -0.0714
  932MOL0     C22932   0.715   9.985   3.165  0.2673 -0.6501  0.0159
  932MOL0     C22933   0.828  10.029   3.058  0.1833  0.7640 -0.2519
  932MOL0     C22934   0.777   9.976   2.920 -0.1140 -0.1125  0.3412
  932MOL0     C22935   0.866  10.018   2.800  0.3237 -0.6545  0.1246
  932MOL0    Cl22936   1.013   9.921   2.804  0.1459 -0.1026 -0.6462
  932MOL0     C22937   0.414  10.084   2.721  0.5273  0.5859  0.6689
  932MOL0     C22938   0.426  10.056   2.583  0.7955  0.0919  0.6526
  932MOL0     O22939   0.640   9.938   2.415 -0.1209  0.0023  0.7241
  932MOL0     C22940   0.668   9.858   2.151 -0.1720  0.3133 -0.1961
  932MOL0     C22941   0.650   9.802   2.027  0.3766  0.4046  0.4407
  932MOL0     N22942   0.618   9.316   1.378 -0.0822 -0.0384  0.1227
  932MOL0     N22943   0.574   9.194   1.388 -0.2110  0.3940 -0.0525
  932MOL0     C22944   0.746   8.822   2.295  0.6690  0.8671 -0.4864
  932MOL0     C22945   0.661   8.895   2.382 -0.3988 -0.0745 -0.6660
  932MOL0     C22946   0.456   9.216   2.611  0.6224  0.3573  0.1787
  932MOL0     C22947   0.502   9.236   2.742 -0.2823  0.2170  0.7873
  932MOL0     C22948   0.437   9.311   2.834 -1.2398  0.1714 -0.2858
  932MOL0     C22949   0.328   9.388   2.797 -0.6494  0.1237  0.3003
  932MOL0     O22950   0.271   9.470   2.887  0.1264  0.2299 -0.3805
  932MOL0     C22951   0.262   9.605   2.844  0.1725  0.3809 -0.5584
  932MOL0     C22952   0.311   9.710   2.939 -0.6830  0.3285 -0.5752
  932MOL0     C22953   0.206   9.707   3.053  1.0506  1.1742 -0.5290
  932MOL0     C22954   0.255   9.790   3.174 -0.5850  0.4113 -0.1453
  932MOL0     C22955   0.202   9.926   3.169  0.1997 -0.0545  1.2899
  932MOL0     C22956   0.163  10.039   3.141 -0.2904 -0.2083  0.3469
  932MOL0     C22957   0.280   9.383   2.670 -0.0609 -1.0446 -0.3911
  932MOL0     C22958   0.332   9.286   2.581 -0.2733 -0.0752 -0.2970
  932MOL0     H22959   0.847   9.176   2.367  1.3286 -0.7699 -0.0017
  932MOL0     H22960   0.974   9.051   2.215  0.2273 -3.5417 -2.7682
  932MOL0     H22961   1.101   8.689   2.157 -1.1922 -1.3667  1.4822
  932MOL0     H22962   1.087   8.846   2.238  0.6170 -1.3407  0.9885
  932MOL0     H22963   1.219   8.855   2.027  0.7464  1.7182 -0.2816
  932MOL0     H22964   1.094   8.968   2.031  1.4953  0.2988 -2.3120
  932MOL0     H22965   1.029   8.699   1.903 -0.0442 -0.6932 -2.0758
  932MOL0     H22966   1.136   8.814   1.816 -2.1043  1.8746 -2.2827
  932MOL0     H22967   0.846   8.881   1.922  0.5095 -0.9034  0.3594
  932MOL0     H22968   0.943   8.996   1.851 -1.7208  1.2032  3.0626
  932MOL0     H22969   0.810   8.748   1.733  1.0444 -0.4125  2.5112
  932MOL0     H22970   0.934   8.822   1.628  1.1720 -2.0491  0.4652
  932MOL0     H22971   0.814   9.035   1.618 -2.1802  1.1395 -0.1804
  932MOL0     H22972   0.710   8.977   1.756  2.6655  2.1331  0.6536
  932MOL0     H22973   0.699   8.912   1.463 -0.9187  0.6053 -0.7142
  932MOL0     H22974   0.610   8.828   1.592  0.3344 -0.1856  0.5877
  932MOL0     H22975   0.501   9.029   1.670 -0.9769 -2.3595 -0.0232
  932MOL0     H22976   0.447   8.989   1.510 -0.3956 -0.9713  1.7434
  932MOL0     H22977   0.660   9.244   1.695 -3.3953 -1.9958 -0.1220
  932MOL0     H22978   0.732   9.559   1.478 -0.0303 -2.4063 -1.6471
  932MOL0     H22979   0.853   9.448   1.550  0.0370  0.7197 -3.7431
  932MOL0     H22980   0.776   9.623   1.700  0.5835  0.1072 -1.2116
  932MOL0     H22981   0.716   9.480   1.759  0.6309  0.4972 -1.3086
  932MOL0     H22982   0.542   9.671   1.585  3.5479 -0.2142 -1.2006
  932MOL0     H22983   0.499   9.504   1.642  1.1785 -0.0729 -0.5108
  932MOL0     H22984   0.552   9.599   1.886 -2.0504 -1.5720 -0.8720
  932MOL0     H22985   0.397   9.631   1.805 -1.4760  0.3606 -4.5527
  932MOL0     H22986   0.391   9.989   1.918 -1.3371  0.7420  2.6586
  932MOL0     H22987   0.418  10.088   2.139  1.1291 -0.4278 -0.1091
  932MOL0     H22988   0.619  10.330   2.503  2.2587  0.8177  2.5659
  932MOL0     H22989   0.563  10.392   2.724  2.3966 -0.0762 -1.6169
  932MOL0     H22990   0.386  10.361   3.047 -3.0243 -1.9228 -0.8374
  932MOL0     H22991   0.471  10.425   2.914  2.7438 -0.2228 -1.1269
  932MOL0     H22992   0.633  10.393   3.087  0.5326 -0.8824 -0.2424
  932MOL0     H22993   0.660  10.250   2.987  0.8871  1.9411 -1.2134
  932MOL0     H22994   0.502  10.213   3.240  3.1423 -2.6899  3.2411
  932MOL0     H22995   0.676  10.208   3.238  0.6528 -1.2542  0.6613
  932MOL0     H22996   0.506  10.015   3.215  0.4730  0.1097  0.5619
  932MOL0     H22997   0.535  10.030   3.043  0.9764 -0.2810 -0.4874
  932MOL0     H22998   0.693   9.878   3.161 -2.9463 -0.1102  0.8984
  932MOL0     H22999   0.740  10.009   3.268 -3.7948  0.8111  0.8175
  932MOL0     H23000   0.922   9.974   3.071  0.2274 -0.0496 -3.2340
  932MOL0     H23001   0.857  10.135   3.065  5.2003 -0.3661 -0.1751
  932MOL0     H23002   0.769   9.867   2.922  0.4507 -0.1515  1.5258
  932MOL0     H23003   0.672   9.999   2.902 -0.7150 -2.2252  0.8267
  932MOL0     H23004   0.894  10.123   2.811  0.1958 -0.6394  0.3132
  932MOL0     H23005   0.805  10.007   2.710 -1.1206 -0.1279  0.9945
  932MOL0     H23006   0.363  10.005   2.775 -1.2644 -0.5907 -2.4619
  932MOL0     H23007   0.381   9.967   2.540 -0.9802  1.8478 -1.3067
  932MOL0     H23008   0.744   9.802   2.205  1.0908 -0.4926 -2.6548
  932MOL0     H23009   0.702   9.712   1.995  1.4307  1.0400  0.3096
  932MOL0     H23010   0.724   8.718   2.278  0.3271  1.3080 -3.2046
  932MOL0     H23011   0.575   8.855   2.436  1.8876 -1.5890  2.1515
  932MOL0     H23012   0.597   9.189   2.767 -1.0005 -1.2427  0.8755
  932MOL0     H23013   0.472   9.314   2.937  0.9507 -4.0201 -0.7145
  932MOL0     H23014   0.157   9.627   2.821  0.0814  0.4534 -0.0793
  932MOL0     H23015   0.313   9.639   2.753 -0.9871  0.4707 -1.1936
  932MOL0     H23016   0.413   9.697   2.977 -0.7787 -2.7810 -1.1441
  932MOL0     H23017   0.311   9.808   2.891  0.0503 -0.1263 -1.5240
  932MOL0     H23018   0.183   9.605   3.085 -1.7396  1.8374 -0.2201
  932MOL0     H23019   0.110   9.744   3.017 -0.3488 -3.2413 -1.9459
  932MOL0     H23020   0.211   9.743   3.262 -0.6853  0.6011 -0.0938
  932MOL0     H23021   0.364   9.794   3.183 -0.5482 -0.6053  0.0047
  932MOL0     H23022   0.124  10.137   3.122  3.0017  1.2807  0.7104
  932MOL0     H23023   0.192   9.442   2.649 -0.4154 -1.5950 -0.4738
  932MOL0     H23024   0.278   9.278   2.487 -0.2337 -2.3494 -0.1980
  933MOL0     O23025   9.766   1.573   4.693 -0.2893 -0.6770  0.1657
  933MOL0     C23026   9.763   1.692   4.748 -0.1076  0.1703 -0.1746
  933MOL0     O23027   9.871   1.769   4.764 -0.5864  0.9460 -0.9751
  933MOL0     C23028   9.992   1.713   4.727  0.1310 -0.6561  0.6781
  933MOL0     C23029  10.069   1.787   4.641 -0.0782  0.2994 -0.6999
  933MOL0     C23030  10.199   1.749   4.615 -0.0470  0.3168 -0.6890
  933MOL0     C23031  10.261   1.636   4.671  0.0726 -0.2118 -0.4119
  933MOL0     O23032  10.394   1.619   4.647  0.1125  0.3146  0.0773
  933MOL0     C23033  10.437   1.488   4.659 -0.8350 -0.6304  0.0562
  933MOL0     C23034  10.566   1.469   4.569  0.1525 -0.3029 -0.0511
  933MOL0     C23035  10.693   1.547   4.608 -0.1904  0.7752  0.5039
  933MOL0     C23036  10.784   1.570   4.486  0.8828 -0.1878  0.6988
  933MOL0     C23037  10.915   1.635   4.512 -0.3965  0.0851 -0.8566
  933MOL0     C23038  10.891   1.775   4.580  1.0632 -0.5450  0.1620
  933MOL0     C23039  11.010   1.865   4.563 -0.8764  0.2278  0.0640
  933MOL0     C23040  11.142   1.792   4.610 -0.3723 -0.4201  0.0119
  933MOL0     N23041  11.256   1.881   4.629 -0.0051  0.5766 -1.0713
  933MOL0     C23042  11.279   2.002   4.576  0.5182  0.8517  0.3801
  933MOL0     C23043  11.386   2.046   4.644  0.1061 -0.1015 -1.2624
  933MOL0     C23044  11.462   2.179   4.630  0.4077  0.0232 -1.0804
  933MOL0     C23045  11.557   2.157   4.519 -0.2103 -0.2916  1.0709
  933MOL0     C23046  11.696   2.132   4.583  0.5594 -0.5900  0.2215
  933MOL0     C23047  11.795   2.065   4.489 -0.2560 -0.3980  0.5573
  933MOL0     O23048  11.776   1.921   4.477 -0.3381 -0.6607 -0.3990
  933MOL0     C23049  11.676   1.878   4.388 -0.0582 -0.3456  0.0317
  933MOL0     C23050  11.676   1.916   4.252  0.2308  0.3947 -0.5588
  933MOL0     C23051  11.586   1.852   4.170 -0.7250  0.0994 -0.3008
  933MOL0     C23052  11.513   1.738   4.207 -0.7200  0.3750 -0.9421
  933MOL0     C23053  11.417   1.660   4.121  1.0298  0.6291  0.2919
  933MOL0     O23054  11.362   1.542   4.170  0.9523  0.0155  0.5379
  933MOL0     C23055  11.282   1.457   4.093  1.2617 -0.6133  0.6297
  933MOL0     C23056  11.279   1.459   3.953  0.4324 -0.1442 -0.5498
  933MOL0     C23057  11.179   1.391   3.887  0.1377 -0.3616  0.2886
  933MOL0     C23058  11.095   1.297   3.950 -0.1016  1.2255  0.3407
  933MOL0     O23059  11.005   1.226   3.883 -0.0142  0.1756  0.1995
  933MOL0     C23060  10.971   1.260   3.747 -0.1890 -1.2453  0.0804
  933MOL0     C23061  10.832   1.201   3.712 -0.7749  0.2130  0.6398
  933MOL0     C23062  10.844   1.051   3.660 -0.6613 -0.2397 -0.5112
  933MOL0     C23063  10.715   0.996   3.597 -0.9043  0.0343 -0.2583
  933MOL0     C23064  10.630   0.950   3.704  0.6016  1.0353  0.6170
  933MOL0     C23065  10.498   0.883   3.653  0.2273 -0.8441  0.3811
  933MOL0     C23066  10.533   0.736   3.620  0.0153 -0.0908 -0.0677
  933MOL0     C23067  10.403   0.648   3.625  0.5794  0.6523  0.4813
  933MOL0    Cl23068  10.289   0.693   3.485  0.1278  0.3482  1.0094
  933MOL0     C23069  11.098   1.293   4.091  1.3568 -0.5180  0.7840
  933MOL0     C23070  11.186   1.380   4.157 -0.7748 -1.1230  0.4013
  933MOL0     O23071  11.398   1.704   4.013  0.0779  0.1603  0.0243
  933MOL0     C23072  11.517   1.708   4.340 -0.6272  0.6457 -0.4728
  933MOL0     C23073  11.589   1.777   4.429 -0.1625  0.0747  0.3397
  933MOL0     N23074  11.422   1.953   4.736 -0.6280  0.5600 -0.3165
  933MOL0     N23075  11.354   1.858   4.723  0.2356  0.1941  0.6602
  933MOL0     C23076  10.189   1.568   4.766 -0.1905 -0.3658  0.2423
  933MOL0     C23077  10.059   1.605   4.796  0.1276 -0.2330  0.7507
  933MOL0     C23078   9.644   1.742   4.798 -0.2568  0.6891  0.1973
  933MOL0     C23079   9.638   1.859   4.874  0.9237  0.6656  0.1223
  933MOL0     C23080   9.517   1.915   4.912  0.0702  0.6021  0.4637
  933MOL0     C23081   9.395   1.846   4.883  0.0448  0.1266 -0.8170
  933MOL0     O23082   9.277   1.909   4.911 -0.4913  0.0252  0.0518
  933MOL0     C23083   9.157   1.854   4.842 -0.1287  0.2094 -0.8369
  933MOL0     C23084   9.025   1.931   4.865 -1.0145  0.7102 -0.2327
  933MOL0     C23085   9.034   2.076   4.831 -0.1110 -0.2041 -0.7663
  933MOL0     C23086   8.936   2.168   4.917  0.1654 -0.2517  0.2440
  933MOL0     C23087   8.942   2.301   4.875  0.3895 -0.2952  0.3258
  933MOL0     C23088   8.946   2.414   4.834 -0.6409  0.4018  0.0051
  933MOL0     C23089   9.402   1.724   4.809 -0.7537  0.1741 -0.3736
  933MOL0     C23090   9.521   1.677   4.767 -0.8259 -0.0719  0.4893
  933MOL0     H23091  10.036   1.882   4.599 -3.8042  0.1411  1.4404
  933MOL0     H23092  10.245   1.817   4.544 -0.4826  0.0405 -1.2469
  933MOL0     H23093  10.355   1.424   4.625 -1.9449  1.6263 -1.7904
  933MOL0     H23094  10.452   1.475   4.766 -0.8989 -1.1635  0.0052
  933MOL0     H23095  10.539   1.501   4.468  2.7604  3.2948  0.2085
  933MOL0     H23096  10.591   1.363   4.553  1.2666  0.3775 -3.7358
  933MOL0     H23097  10.752   1.497   4.686  0.1804  1.9284  0.9754
  933MOL0     H23098  10.659   1.633   4.665  0.7157 -0.0093  2.3075
  933MOL0     H23099  10.815   1.475   4.441  2.9896  0.2386  1.1096
  933MOL0     H23100  10.735   1.636   4.415  1.5085 -0.7868 -0.3096
  933MOL0     H23101  10.975   1.639   4.421 -0.1709 -0.6426 -0.7482
  933MOL0     H23102  10.962   1.577   4.592 -0.5422 -0.0634 -0.8775
  933MOL0     H23103  10.867   1.768   4.686  0.6229  1.0201  0.1944
  933MOL0     H23104  10.806   1.823   4.531  0.5518 -3.8214 -2.5091
  933MOL0     H23105  11.012   1.905   4.461 -1.4637  1.5609  0.5567
  933MOL0     H23106  10.994   1.948   4.632 -2.1684 -0.5268  0.6978
  933MOL0     H23107  11.171   1.728   4.526  0.1327 -0.5516  0.2881
  933MOL0     H23108  11.121   1.738   4.702 -1.3589  0.2772  0.2157
  933MOL0     H23109  11.223   2.045   4.494  0.3491 -0.7147 -0.3633
  933MOL0     H23110  11.503   2.202   4.728 -0.4612  1.1444 -0.9625
  933MOL0     H23111  11.387   2.257   4.613 -0.7599  0.1642  3.4672
  933MOL0     H23112  11.563   2.252   4.467  1.1049 -1.2094 -0.5347
  933MOL0     H23113  11.517   2.074   4.460 -1.1738  1.7347 -1.2813
  933MOL0     H23114  11.738   2.230   4.610  0.8808 -0.9501  1.0420
  933MOL0     H23115  11.683   2.084   4.680  1.1344 -1.4222 -0.1089
  933MOL0     H23116  11.892   2.079   4.538 -0.1400 -1.3143  0.5938
  933MOL0     H23117  11.793   2.116   4.392  1.3927  0.0141  0.7062
  933MOL0     H23118  11.725   2.002   4.208  1.1134  0.0805 -0.2136
  933MOL0     H23119  11.574   1.896   4.071 -2.4637 -0.9572 -0.6003
  933MOL0     H23120  11.366   1.502   3.905  1.9795 -3.2183 -0.7283
  933MOL0     H23121  11.166   1.414   3.782  0.9292  0.4501  0.3529
  933MOL0     H23122  11.051   1.234   3.677  2.0228  1.8235  1.2128
  933MOL0     H23123  10.958   1.367   3.762  0.7851 -1.3414  1.8775
  933MOL0     H23124  10.790   1.259   3.629 -0.2567  1.0737  0.9631
  933MOL0     H23125  10.755   1.218   3.788 -3.2887  1.3577 -1.9792
  933MOL0     H23126  10.874   0.993   3.748  6.2931 -3.3815 -4.1059
  933MOL0     H23127  10.936   1.034   3.603  0.4483 -0.9229  1.3843
  933MOL0     H23128  10.663   1.069   3.534  1.1236 -0.1226 -2.2494
  933MOL0     H23129  10.735   0.921   3.520 -1.6567  0.6002 -1.0263
  933MOL0     H23130  10.600   1.027   3.776 -1.6483 -2.3742  3.7280
  933MOL0     H23131  10.685   0.881   3.768  0.6038 -0.2773 -0.7576
  933MOL0     H23132  10.454   0.929   3.564 -3.8147 -2.7867  1.1452
  933MOL0     H23133  10.417   0.870   3.725 -0.0114 -2.9557 -0.2030
  933MOL0     H23134  10.581   0.725   3.523  1.6224 -0.2223  0.7153
  933MOL0     H23135  10.621   0.707   3.677 -0.8475  1.7288  2.3645
  933MOL0     H23136  10.358   0.651   3.725 -1.5301 -1.7151 -0.3051
  933MOL0     H23137  10.436   0.545   3.608 -0.0615  0.2853  1.3513
  933MOL0     H23138  11.024   1.233   4.143 -0.9427  1.2270 -0.2691
  933MOL0     H23139  11.188   1.388   4.265 -0.4052 -2.6759  0.5289
  933MOL0     H23140  11.462   1.630   4.391  0.6876  0.2648  0.4038
  933MOL0     H23141  11.595   1.759   4.536 -0.8605  0.2515  0.4159
  933MOL0     H23142  10.234   1.490   4.827  1.4276 -1.8670 -2.6422
  933MOL0     H23143  10.016   1.549   4.878  2.7346 -2.2855  0.8666
  933MOL0     H23144   9.732   1.912   4.890  0.2059  1.4748  1.8415
  933MOL0     H23145   9.522   2.010   4.964 -2.3242  1.6907 -1.1208
  933MOL0     H23146   9.132   1.753   4.877 -0.2057  0.2247 -0.8480
  933MOL0     H23147   9.177   1.857   4.735 -1.1150 -0.2566 -1.0420
  933MOL0     H23148   8.947   1.878   4.810  0.1768 -0.0400 -1.2453
  933MOL0     H23149   8.999   1.919   4.970 -0.4826  0.5465 -0.1153
  933MOL0     H23150   9.007   2.092   4.726  1.0295  1.5707 -0.8435
  933MOL0     H23151   9.135   2.113   4.854  0.4015 -2.8151  1.7746
  933MOL0     H23152   8.835   2.125   4.910  0.3731 -0.6384 -0.4156
  933MOL0     H23153   8.971   2.155   5.020  1.4271 -1.3926 -0.3015
  933MOL0     H23154   8.942   2.510   4.786  0.7337 -1.2804 -3.8692
  933MOL0     H23155   9.311   1.675   4.774  0.5455 -1.6294 -1.4631
  933MOL0     H23156   9.525   1.589   4.703  1.8992  1.5631 -1.8362
  934MOL0     O23157   0.913  10.073   4.549  0.2144 -0.7778 -0.5688
  934MOL0     C23158   0.975  10.179   4.527  0.1599  0.3864 -0.0298
  934MOL0     O23159   1.022  10.266   4.625  0.6054  0.7001  0.4150
  934MOL0     C23160   0.962  10.272   4.752 -0.8722  0.7888 -0.5990
  934MOL0     C23161   0.962  10.164   4.843 -0.5018  0.3691  0.4581
  934MOL0     C23162   0.900  10.180   4.969  0.6043  0.5910 -1.2961
  934MOL0     C23163   0.845  10.302   5.005 -0.3235  0.2764 -0.8290
  934MOL0     O23164   0.770  10.310   5.116 -0.1178  1.0006  0.0762
  934MOL0     C23165   0.820  10.394   5.216 -0.1047 -0.3944  0.5763
  934MOL0     C23166   0.953  10.350   5.278 -0.1197 -0.0788 -0.6626
  934MOL0     C23167   0.956  10.224   5.361  0.4452  0.9062  0.4203
  934MOL0     C23168   1.101  10.186   5.399 -0.2830  0.0501  0.4512
  934MOL0     C23169   1.161  10.284   5.501  1.2517 -0.1586 -0.7272
  934MOL0     C23170   1.295  10.242   5.548  0.5250 -0.2640 -0.7167
  934MOL0     C23171   1.304  10.098   5.599 -0.6083 -1.0955 -0.6178
  934MOL0     C23172   1.424  10.085   5.694  0.3259 -0.4300  0.1492
  934MOL0     N23173   1.557  10.116   5.637  0.2042 -0.0397 -0.2538
  934MOL0     C23174   1.610  10.047   5.524 -1.5498 -0.8647  0.1100
  934MOL0     C23175   1.716  10.121   5.503 -0.2786  0.1911 -0.1909
  934MOL0     C23176   1.817  10.086   5.386 -0.0557 -0.8357 -1.0698
  934MOL0     C23177   1.791  10.209   5.288 -0.1664  0.2530 -0.7592
  934MOL0     C23178   1.909  10.215   5.199 -0.6921  0.2113 -0.9209
  934MOL0     C23179   1.904  10.332   5.104  0.0896 -0.3956  0.6690
  934MOL0     O23180   2.032  10.343   5.040 -0.3274 -0.0693 -0.1077
  934MOL0     C23181   2.071  10.269   4.937 -0.3572 -0.9374  0.0003
  934MOL0     C23182   2.002  10.164   4.882 -0.0994 -0.3579  0.1027
  934MOL0     C23183   2.058  10.108   4.761 -0.0802  0.5059 -0.1992
  934MOL0     C23184   2.156  10.177   4.684  0.6526 -1.1871  0.2302
  934MOL0     C23185   2.200  10.137   4.545  0.2285 -0.1629  0.0011
  934MOL0     O23186   2.132  10.036   4.489 -0.5767 -0.9288 -0.0003
  934MOL0     C23187   2.146   9.985   4.360  0.2295 -0.1087 -0.2184
  934MOL0     C23188   2.059   9.882   4.335 -0.0074  0.2941  0.7096
  934MOL0     C23189   2.079   9.802   4.221 -0.3228  0.3681 -0.5159
  934MOL0     C23190   2.187   9.823   4.137  0.0579 -0.6893 -0.4688
  934MOL0     O23191   2.213   9.741   4.030 -0.2692  0.4417 -0.6065
  934MOL0     C23192   2.352   9.712   3.996 -0.2648  0.5942  0.8666
  934MOL0     C23193   2.369   9.648   3.857 -0.0416 -0.2050 -1.0328
  934MOL0     C23194   2.319   9.724   3.727  0.5480  0.4238 -0.9263
  934MOL0     C23195   2.174   9.773   3.726 -0.0805  0.0181 -1.5753
  934MOL0     C23196   2.133   9.840   3.596 -0.5252  0.8134 -0.2949
  934MOL0     C23197   1.984   9.846   3.567 -0.4092 -1.2370  0.4230
  934MOL0     C23198   1.963   9.938   3.446 -0.6176  0.5172  1.0849
  934MOL0     C23199   1.827   9.913   3.394  0.1200 -0.3943 -0.3678
  934MOL0    Cl23200   1.796  10.046   3.281  0.6504 -0.4295  0.0017
  934MOL0     C23201   2.271   9.938   4.158 -0.0897  0.0791 -0.2871
  934MOL0     C23202   2.245  10.020   4.272 -0.1121  0.2779 -0.4333
  934MOL0     O23203   2.294  10.203   4.498 -0.2135  0.3094  0.2018
  934MOL0     C23204   2.223  10.272   4.753  0.1636 -0.2426  0.1557
  934MOL0     C23205   2.185  10.320   4.876 -0.9969 -0.3495 -0.9692
  934MOL0     N23206   1.740  10.217   5.598  0.2315 -0.9042  0.2694
  934MOL0     N23207   1.645  10.212   5.682  0.2167 -0.2104 -0.4569
  934MOL0     C23208   0.857  10.411   4.925  0.3182  0.8206 -0.2842
  934MOL0     C23209   0.910  10.396   4.801  0.7302  0.3300 -0.7968
  934MOL0     C23210   1.026  10.193   4.388  0.6947 -0.3552 -0.7244
  934MOL0     C23211   1.001  10.091   4.297 -0.1119 -0.0633 -0.0462
  934MOL0     C23212   1.037  10.110   4.165  0.8412  0.3397  0.5402
  934MOL0     C23213   1.109  10.224   4.124  1.1046 -0.2114  0.1876
  934MOL0     O23214   1.113  10.259   3.994  0.3891 -0.0164 -0.6898
  934MOL0     C23215   1.235  10.207   3.939 -0.4606 -0.7151  0.1219
  934MOL0     C23216   1.207  10.101   3.837 -0.3459 -0.7991  0.8842
  934MOL0     C23217   1.143  10.146   3.705 -0.9228  0.2283  0.2620
  934MOL0     C23218   1.109  10.032   3.607 -0.7141  1.2702  1.2301
  934MOL0     C23219   1.081  10.072   3.473 -0.5644 -0.2080  0.2787
  934MOL0     C23220   1.057  10.106   3.355  0.3054 -0.2746 -0.6511
  934MOL0     C23221   1.164  10.309   4.221  0.2326 -0.9874 -0.6109
  934MOL0     C23222   1.116  10.300   4.349  0.0659 -0.6819 -0.0857
  934MOL0     H23223   1.005  10.067   4.820 -5.0610 -1.6821 -0.5546
  934MOL0     H23224   0.897  10.094   5.036 -1.8722  2.0464  0.6358
  934MOL0     H23225   0.745  10.407   5.294  0.4076  0.6046  0.9216
  934MOL0     H23226   0.825  10.492   5.169 -3.6771  0.8957  2.5338
  934MOL0     H23227   0.997  10.438   5.325 -2.7875 -0.5682  3.2318
  934MOL0     H23228   1.015  10.326   5.191 -2.7131 -1.8266 -2.1892
  934MOL0     H23229   0.917  10.152   5.289  0.7991  3.8820 -3.0250
  934MOL0     H23230   0.889  10.232   5.447 -3.5881  1.8435 -2.5110
  934MOL0     H23231   1.100  10.083   5.435  1.8557 -0.5860 -1.0757
  934MOL0     H23232   1.160  10.180   5.307 -0.6017 -1.9033  0.3262
  934MOL0     H23233   1.097  10.285   5.590  0.9698  1.1274 -0.9301
  934MOL0     H23234   1.158  10.389   5.469 -0.9934  0.2006  0.4266
  934MOL0     H23235   1.321  10.316   5.624 -2.1238 -0.0130  0.0500
  934MOL0     H23236   1.361  10.247   5.462 -0.6770  0.1102 -1.6454
  934MOL0     H23237   1.208  10.074   5.647 -1.0467  0.2894 -0.7734
  934MOL0     H23238   1.305  10.025   5.518  0.6070  1.7028 -3.3052
  934MOL0     H23239   1.424   9.981   5.730  0.7119 -1.5231 -2.6905
  934MOL0     H23240   1.409  10.161   5.771 -0.7725  2.9222 -3.0983
  934MOL0     H23241   1.573   9.968   5.459 -1.9050 -0.3808 -0.2878
  934MOL0     H23242   1.797   9.987   5.343  3.0697 -0.9999 -2.4405
  934MOL0     H23243   1.921  10.084   5.418  0.5952 -0.2685 -2.9603
  934MOL0     H23244   1.768  10.298   5.348 -1.9679 -1.2064  0.8665
  934MOL0     H23245   1.704  10.179   5.228  0.2403  1.6641 -2.0915
  934MOL0     H23246   2.001  10.221   5.258 -1.0413  2.0477 -0.5007
  934MOL0     H23247   1.905  10.120   5.144 -2.4088 -1.4901  1.8463
  934MOL0     H23248   1.876  10.419   5.164  0.6547 -1.1539  2.0798
  934MOL0     H23249   1.826  10.327   5.028  0.8016  1.7870 -0.2899
  934MOL0     H23250   1.923  10.114   4.938  0.7374 -0.8239  0.9061
  934MOL0     H23251   2.010  10.011   4.747 -1.7051  0.8167  2.5162
  934MOL0     H23252   1.973   9.865   4.399  0.7382 -3.2230  0.9621
  934MOL0     H23253   2.009   9.723   4.197 -0.5640  0.7295 -1.0357
  934MOL0     H23254   2.401   9.652   4.074  1.1820  0.7021  0.0650
  934MOL0     H23255   2.409   9.805   3.989  1.5431 -0.5722 -0.9675
  934MOL0     H23256   2.306   9.559   3.846  1.1175 -1.1154 -0.5232
  934MOL0     H23257   2.471   9.612   3.839 -0.6011 -1.5016 -1.7864
  934MOL0     H23258   2.347   9.667   3.637  4.1302  2.0692 -1.0175
  934MOL0     H23259   2.388   9.808   3.717 -0.5261  1.2128 -1.9230
  934MOL0     H23260   2.107   9.687   3.741 -1.8046  1.5182 -0.2035
  934MOL0     H23261   2.155   9.847   3.804  0.5758 -2.3587  1.0046
  934MOL0     H23262   2.177   9.779   3.515 -0.1696 -0.6334  0.9378
  934MOL0     H23263   2.183   9.937   3.605 -0.3962  0.5450  3.7967
  934MOL0     H23264   1.935   9.876   3.660  1.2194 -1.4664  1.3946
  934MOL0     H23265   1.950   9.745   3.541  1.2279 -1.2359 -1.9836
  934MOL0     H23266   1.975  10.045   3.465  0.8218  0.4212  0.8725
  934MOL0     H23267   2.030   9.911   3.363 -2.7688 -3.3291  0.3507
  934MOL0     H23268   1.759   9.946   3.473  1.5511 -0.0268  0.7508
  934MOL0     H23269   1.789   9.822   3.347 -4.3018  1.7978 -1.6286
  934MOL0     H23270   2.349   9.965   4.088  1.3116 -1.1588  0.7168
  934MOL0     H23271   2.310  10.100   4.306  1.4571 -1.0208 -0.2556
  934MOL0     H23272   2.309  10.317   4.705  0.9194  0.9289  2.4754
  934MOL0     H23273   2.258  10.385   4.924  0.1336 -1.4447 -1.1486
  934MOL0     H23274   0.792  10.494   4.949 -0.8736  1.2220 -4.1746
  934MOL0     H23275   0.901  10.477   4.730 -0.6404  1.4838  0.6170
  934MOL0     H23276   0.943  10.008   4.335 -0.6667  0.9520  1.4293
  934MOL0     H23277   1.001  10.037   4.093 -0.6019  2.5794 -1.1353
  934MOL0     H23278   1.304  10.174   4.017  0.7935  1.6279  0.0891
  934MOL0     H23279   1.285  10.292   3.891  0.5737  0.0532  2.3929
  934MOL0     H23280   1.300  10.050   3.810 -1.7358 -2.6460 -0.6996
  934MOL0     H23281   1.139  10.029   3.882  0.7798 -1.7043  1.1998
  934MOL0     H23282   1.224  10.204   3.660 -0.1000 -1.7500 -0.9568
  934MOL0     H23283   1.054  10.206   3.722  0.1641  1.0566  4.1127
  934MOL0     H23284   1.192   9.961   3.609 -1.2143  0.6528  4.0747
  934MOL0     H23285   1.028   9.967   3.642 -0.4643  0.0031 -0.4440
  934MOL0     H23286   1.018  10.130   3.259  0.7501  1.4825 -0.4301
  934MOL0     H23287   1.244  10.373   4.185 -1.5944  0.1610 -2.9597
  934MOL0     H23288   1.157  10.367   4.425  1.5048 -3.9112  2.2398
  935MOL0     O23289   9.315   6.552   1.968  0.4858  0.3904  0.1140
  935MOL0     C23290   9.201   6.549   1.998  0.0813  0.4139 -1.3187
  935MOL0     O23291   9.148   6.494   2.111  0.0253  0.0681  0.4876
  935MOL0     C23292   9.222   6.417   2.201  0.4165  0.6705  0.1536
  935MOL0     C23293   9.155   6.307   2.260 -0.0529  0.7143  0.0042
  935MOL0     C23294   9.224   6.220   2.345  0.4055 -0.2364  0.3424
  935MOL0     C23295   9.362   6.242   2.374 -1.1762  0.4287 -0.6218
  935MOL0     O23296   9.437   6.150   2.456  0.0484  0.2380 -0.3159
  935MOL0     C23297   9.380   6.110   2.585 -1.2126 -0.0221  0.8031
  935MOL0     C23298   9.478   6.013   2.656 -0.2732  0.6578  0.5772
  935MOL0     C23299   9.444   5.986   2.804  1.1072 -0.0817 -0.0967
  935MOL0     C23300   9.524   5.887   2.886 -0.6628  0.4043  0.1446
  935MOL0     C23301   9.676   5.907   2.913  0.4838 -0.3497 -0.1345
  935MOL0     C23302   9.692   6.040   2.983 -0.1055 -0.6107 -0.1074
  935MOL0     C23303   9.773   6.154   2.903  0.3847  0.0853  0.4650
  935MOL0     C23304   9.782   6.277   2.997  0.6152  0.2547  0.5337
  935MOL0     N23305   9.886   6.269   3.100  0.3739  0.4832 -0.5129
  935MOL0     C23306  10.020   6.228   3.069  0.2591 -0.6379  0.3351
  935MOL0     C23307  10.069   6.184   3.192 -0.0024 -0.9263 -0.5941
  935MOL0     C23308  10.204   6.112   3.203  0.7864 -0.3593 -0.4773
  935MOL0     C23309  10.228   6.018   3.087  0.4220 -0.1426 -0.3382
  935MOL0     C23310  10.149   5.894   3.116 -0.5857  0.3088  0.3337
  935MOL0     C23311  10.173   5.796   3.002 -0.5169  0.9606  0.5994
  935MOL0     O23312  10.088   5.684   3.005  0.1482  0.4252 -0.1513
  935MOL0     C23313  10.103   5.596   3.105 -0.5954  0.6715  0.8531
  935MOL0     C23314  10.223   5.567   3.170  1.0738  0.2231 -0.4607
  935MOL0     C23315  10.226   5.462   3.265  0.2121 -0.3749  0.5330
  935MOL0     C23316  10.123   5.367   3.281  0.3679 -1.0475  0.2690
  935MOL0     C23317  10.123   5.254   3.380 -0.3877 -0.5042 -0.9521
  935MOL0     O23318  10.014   5.182   3.410  0.1028 -0.4869 -0.4973
  935MOL0     C23319  10.025   5.098   3.517  0.8218 -0.0984 -0.0627
  935MOL0     C23320  10.057   5.140   3.652 -0.1269 -0.0468  0.1886
  935MOL0     C23321  10.075   5.053   3.759  0.0790 -0.1918  0.1585
  935MOL0     C23322  10.067   4.917   3.728  0.1189  0.0906  0.0818
  935MOL0     O23323  10.087   4.834   3.837  0.1891 -0.7226 -0.7637
  935MOL0     C23324  10.165   4.724   3.834 -0.1393  0.0760  0.1145
  935MOL0     C23325  10.168   4.656   3.960 -0.8650  0.4563  0.6533
  935MOL0     C23326  10.276   4.552   3.946  0.0209 -0.8809  0.1673
  935MOL0     C23327  10.233   4.443   4.050  0.3882  0.4632  0.1332
  935MOL0     C23328  10.355   4.371   4.107  0.7320 -0.3670  0.3664
  935MOL0     C23329  10.302   4.285   4.223  0.5568  0.5040 -0.4878
  935MOL0     C23330  10.425   4.245   4.312  0.0390  0.5019  0.5864
  935MOL0     C23331  10.371   4.135   4.410 -0.8098  0.5598 -0.4096
  935MOL0    Cl23332  10.239   4.217   4.515  0.1288 -0.1320 -0.0405
  935MOL0     C23333  10.040   4.872   3.592  0.3860 -0.2539  0.9915
  935MOL0     C23334  10.010   4.965   3.488  0.7487 -0.0081 -0.2401
  935MOL0     O23335  10.231   5.248   3.438  0.5969  0.5938 -0.1230
  935MOL0     C23336   9.991   5.401   3.222 -0.4207 -0.6313 -0.2207
  935MOL0     C23337   9.995   5.501   3.135 -0.4911  0.0780 -0.5541
  935MOL0     N23338   9.972   6.197   3.285  0.3392  0.3572 -0.5618
  935MOL0     N23339   9.869   6.254   3.237 -0.5397  0.4120  0.0102
  935MOL0     C23340   9.426   6.343   2.301 -0.2076  0.0441  0.5129
  935MOL0     C23341   9.362   6.432   2.216  0.5388  0.0439 -0.5690
  935MOL0     C23342   9.108   6.627   1.914 -0.9475 -0.1877  0.7867
  935MOL0     C23343   8.971   6.640   1.940  0.3431 -0.2359 -0.0330
  935MOL0     C23344   8.888   6.708   1.852  0.5347  0.5199 -0.3366
  935MOL0     C23345   8.937   6.765   1.736  0.3338 -0.1462 -1.2310
  935MOL0     O23346   8.839   6.837   1.675  0.2119 -0.5273 -0.1329
  935MOL0     C23347   8.865   6.886   1.548  0.0680 -0.2657 -0.1408
  935MOL0     C23348   8.828   6.788   1.440 -0.7634 -0.0393  1.2061
  935MOL0     C23349   8.678   6.753   1.453  0.6743  0.1610  0.0136
  935MOL0     C23350   8.641   6.644   1.347 -0.7476  0.3025  0.3455
  935MOL0     C23351   8.517   6.573   1.373 -2.0430 -0.0967  0.5363
  935MOL0     C23352   8.419   6.511   1.404 -0.2301 -0.6877 -0.1998
  935MOL0     C23353   9.076   6.769   1.706 -0.2158  0.0625  0.8877
  935MOL0     C23354   9.156   6.686   1.790  0.8651 -0.5201  0.5808
  935MOL0     H23355   9.053   6.290   2.227  0.3257  1.2473 -1.5037
  935MOL0     H23356   9.177   6.127   2.374  2.2265 -1.5763 -0.8211
  935MOL0     H23357   9.284   6.059   2.570 -2.1765  2.0424 -0.5236
  935MOL0     H23358   9.355   6.197   2.646 -1.5205 -2.3372  4.2721
  935MOL0     H23359   9.580   6.051   2.670  0.6187 -2.4071  3.5170
  935MOL0     H23360   9.482   5.926   2.591 -1.7278  0.5798  0.5620
  935MOL0     H23361   9.342   5.948   2.797  1.1210 -0.1363 -0.0017
  935MOL0     H23362   9.432   6.079   2.860 -1.8163  0.1504 -0.9544
  935MOL0     H23363   9.483   5.887   2.987  2.1630  2.1229  1.4219
  935MOL0     H23364   9.510   5.792   2.834  0.8543  0.1795  0.1104
  935MOL0     H23365   9.738   5.901   2.823  4.2531 -0.6553  2.2538
  935MOL0     H23366   9.721   5.836   2.984 -0.8817  2.2706  3.6860
  935MOL0     H23367   9.753   6.038   3.074 -0.8422  1.9866  0.5293
  935MOL0     H23368   9.597   6.085   3.011 -0.0457 -0.9909  0.7596
  935MOL0     H23369   9.876   6.125   2.881  0.0504 -2.5538  1.8726
  935MOL0     H23370   9.724   6.178   2.808  0.1402  0.1276  0.6007
  935MOL0     H23371   9.683   6.294   3.041 -0.5521 -3.5175 -0.2816
  935MOL0     H23372   9.811   6.359   2.931  0.8391 -1.3519 -1.4741
  935MOL0     H23373  10.070   6.225   2.972  0.5217 -2.1446  0.4932
  935MOL0     H23374  10.206   6.068   3.303  3.3442  1.4822  0.4080
  935MOL0     H23375  10.286   6.184   3.200  0.8274  0.2294  5.1302
  935MOL0     H23376  10.332   5.989   3.100  1.4709  2.4272 -2.2045
  935MOL0     H23377  10.226   6.067   2.989  0.6469  0.3250 -0.1141
  935MOL0     H23378  10.178   5.862   3.216 -1.4372  0.0642  0.5039
  935MOL0     H23379  10.047   5.934   3.117  0.3284  2.9823 -1.3087
  935MOL0     H23380  10.278   5.765   3.006 -0.4216  1.3937  2.0171
  935MOL0     H23381  10.164   5.852   2.909 -1.3263  1.6715  1.0796
  935MOL0     H23382  10.314   5.621   3.144  1.5292  2.1379  4.1289
  935MOL0     H23383  10.327   5.436   3.294  0.3724  0.3535  0.6463
  935MOL0     H23384  10.042   5.246   3.671 -0.7548 -0.0662 -0.1796
  935MOL0     H23385  10.075   5.086   3.862  0.2580  0.1578  0.0467
  935MOL0     H23386  10.268   4.757   3.818 -0.5268  1.1919 -0.1498
  935MOL0     H23387  10.131   4.646   3.765  1.3392 -1.2445  0.8061
  935MOL0     H23388  10.068   4.614   3.978 -0.7843 -0.3899 -0.7355
  935MOL0     H23389  10.184   4.716   4.050 -1.9316  0.8400  0.5985
  935MOL0     H23390  10.371   4.590   3.985 -0.9277  0.0048  1.7414
  935MOL0     H23391  10.273   4.513   3.844  0.8817  0.5842 -0.4549
  935MOL0     H23392  10.189   4.487   4.140  1.2526 -2.1348  1.9096
  935MOL0     H23393  10.158   4.376   4.007  0.4446  1.2248 -1.2050
  935MOL0     H23394  10.426   4.448   4.141  0.9090 -0.4245  0.1251
  935MOL0     H23395  10.405   4.307   4.034  5.1766  1.6072  1.2893
  935MOL0     H23396  10.265   4.191   4.181  1.4074 -0.2144  0.3337
  935MOL0     H23397  10.216   4.333   4.272  1.3964  0.2240  1.3608
  935MOL0     H23398  10.495   4.194   4.245 -0.3622  0.2843  0.3284
  935MOL0     H23399  10.481   4.326   4.360  1.0422  1.1933 -1.6154
  935MOL0     H23400  10.451   4.095   4.472 -3.2315 -1.8500  1.3587
  935MOL0     H23401  10.326   4.051   4.356  0.2888  0.6417 -1.4853
  935MOL0     H23402  10.037   4.764   3.581 -0.6203 -0.1448 -0.0434
  935MOL0     H23403   9.990   4.915   3.393  1.0893  0.0137 -0.3248
  935MOL0     H23404   9.911   5.332   3.245  1.9137 -2.6350  2.7515
  935MOL0     H23405   9.903   5.530   3.086  0.5059 -0.6405 -2.9655
  935MOL0     H23406   9.534   6.348   2.306 -0.0930 -2.3626  3.6323
  935MOL0     H23407   9.418   6.516   2.176  2.0600 -0.0173  1.2393
  935MOL0     H23408   8.940   6.599   2.036  3.4347  0.0378  1.2096
  935MOL0     H23409   8.780   6.700   1.857  0.5541 -0.3213 -0.9570
  935MOL0     H23410   8.965   6.932   1.544  0.2615 -0.7741 -1.4572
  935MOL0     H23411   8.803   6.976   1.540  0.5475  0.8076  4.9399
  935MOL0     H23412   8.849   6.843   1.348  0.9843 -1.3164  0.7807
  935MOL0     H23413   8.899   6.705   1.439 -0.0268  0.3326 -3.6603
  935MOL0     H23414   8.609   6.837   1.446 -1.1831 -0.9825  2.9306
  935MOL0     H23415   8.651   6.714   1.551  1.9810 -2.9294 -0.7160
  935MOL0     H23416   8.614   6.686   1.250 -2.5293 -0.5015  0.4629
  935MOL0     H23417   8.729   6.579   1.338 -0.1232  1.3790 -1.8430
  935MOL0     H23418   8.332   6.452   1.425  0.3537 -0.9819  1.5638
  935MOL0     H23419   9.118   6.820   1.619 -0.5706 -0.4645  0.3982
  935MOL0     H23420   9.260   6.679   1.760  1.7811 -0.4588  3.4169
  936MOL0     O23421   6.421   0.299   0.611  0.5798 -0.6938 -0.5085
  936MOL0     C23422   6.468   0.311   0.722  0.0559  0.1390  0.9949
  936MOL0     O23423   6.481   0.211   0.816 -0.3552 -0.2817  0.2306
  936MOL0     C23424   6.422   0.086   0.796 -0.8558  0.5118 -0.4232
  936MOL0     C23425   6.292   0.075   0.753  0.3567 -0.3438  0.6331
  936MOL0     C23426   6.225  -0.051   0.744 -1.2177 -0.3408  0.2786
  936MOL0     C23427   6.295  -0.168   0.775 -0.1052 -1.1029 -0.3149
  936MOL0     O23428   6.234  -0.290   0.759 -0.1494  0.2593 -0.0658
  936MOL0     C23429   6.314  -0.408   0.785  0.2541 -1.1933  0.0074
  936MOL0     C23430   6.234  -0.532   0.730  1.3460  0.3400 -0.0369
  936MOL0     C23431   6.115  -0.572   0.815 -0.4319 -0.1406  0.1900
  936MOL0     C23432   6.093  -0.719   0.793  0.9460  0.6494  0.0178
  936MOL0     C23433   5.968  -0.773   0.855 -0.1610 -0.7595  0.1356
  936MOL0     C23434   5.961  -0.753   1.007 -0.3384  0.3638 -0.3529
  936MOL0     C23435   5.838  -0.842   1.049 -0.7959 -0.0727 -0.6044
  936MOL0     C23436   5.825  -0.864   1.206  0.3055 -0.0803  0.3445
  936MOL0     N23437   5.948  -0.925   1.258 -0.2221 -0.0601 -0.2337
  936MOL0     C23438   5.980  -1.062   1.249 -0.0778 -1.1941 -0.9285
  936MOL0     C23439   6.101  -1.070   1.297 -1.0455  0.0234 -0.6023
  936MOL0     C23440   6.190  -1.193   1.332 -0.2124 -0.3767  0.1054
  936MOL0     C23441   6.127  -1.272   1.446  0.6873  1.0194  0.1376
  936MOL0     C23442   6.183  -1.418   1.469  0.3877  0.1614  0.0244
  936MOL0     C23443   6.146  -1.474   1.605 -0.7554  1.0706 -0.7179
  936MOL0     O23444   6.016  -1.515   1.607  0.3960  0.2310 -0.0778
  936MOL0     C23445   5.973  -1.592   1.719 -0.0562 -0.5885 -0.5118
  936MOL0     C23446   6.057  -1.624   1.825  0.2405 -0.1128  0.4149
  936MOL0     C23447   6.001  -1.709   1.917  0.5589 -0.1906 -0.0069
  936MOL0     C23448   5.868  -1.759   1.920 -0.1986  0.7137  0.1543
  936MOL0     C23449   5.837  -1.863   2.015  0.4236 -0.4902  0.2729
  936MOL0     O23450   5.939  -1.912   2.088  0.0346  0.3973  0.6289
  936MOL0     C23451   5.913  -2.006   2.187 -0.5249 -0.4346  0.8312
  936MOL0     C23452   5.979  -2.007   2.315  0.3802  0.5313  0.1169
  936MOL0     C23453   5.947  -2.097   2.413  0.5598  0.3821 -0.0502
  936MOL0     C23454   5.854  -2.195   2.383  1.1213 -0.9148 -0.3713
  936MOL0     O23455   5.816  -2.290   2.478 -0.8856 -0.2097 -0.5139
  936MOL0     C23456   5.692  -2.290   2.545 -0.1809  0.6351  0.1342
  936MOL0     C23457   5.681  -2.371   2.678 -0.2056  0.2735 -0.9742
  936MOL0     C23458   5.719  -2.284   2.800 -0.0319 -0.0601  0.2372
  936MOL0     C23459   5.731  -2.373   2.925 -0.6217  0.1447 -0.1438
  936MOL0     C23460   5.751  -2.283   3.050 -0.2676 -0.0323 -0.9768
  936MOL0     C23461   5.749  -2.366   3.171 -0.4376  0.0548 -0.4150
  936MOL0     C23462   5.823  -2.298   3.291 -0.9138 -0.0033  0.6249
  936MOL0     C23463   5.728  -2.194   3.364 -1.6930 -0.5491 -0.0135
  936MOL0    Cl23464   5.615  -2.298   3.456  0.0184  0.5261  0.1448
  936MOL0     C23465   5.800  -2.209   2.250  0.2828  0.2491  0.5207
  936MOL0     C23466   5.825  -2.111   2.156 -0.9406  0.6591  0.9195
  936MOL0     O23467   5.713  -1.870   2.037 -0.0119  0.5057  0.1596
  936MOL0     C23468   5.788  -1.717   1.818 -0.0400 -0.7510 -0.1077
  936MOL0     C23469   5.842  -1.639   1.714 -0.3809  0.0340 -0.2654
  936MOL0     N23470   6.132  -0.942   1.348  0.0486  0.5132 -1.1484
  936MOL0     N23471   6.041  -0.856   1.329 -0.5132 -0.3106 -0.1332
  936MOL0     C23472   6.429  -0.156   0.815  0.2331  0.2460  0.5189
  936MOL0     C23473   6.488  -0.033   0.821 -0.2415 -0.4503 -0.7953
  936MOL0     C23474   6.521   0.447   0.754 -0.2072  0.1649  0.2388
  936MOL0     C23475   6.537   0.540   0.650  0.6430 -0.2650  0.3910
  936MOL0     C23476   6.552   0.676   0.680  0.0886 -0.6051  0.5585
  936MOL0     C23477   6.570   0.711   0.815  0.2712 -0.8435  0.1224
  936MOL0     O23478   6.580   0.838   0.868  0.2649 -0.8156  0.3914
  936MOL0     C23479   6.592   0.941   0.761  0.0464 -0.2721  0.2704
  936MOL0     C23480   6.621   1.079   0.818  0.1810  0.6352 -0.2677
  936MOL0     C23481   6.516   1.128   0.921 -1.1365 -0.9567 -0.3493
  936MOL0     C23482   6.375   1.100   0.877 -0.0320  0.3972  0.2043
  936MOL0     C23483   6.285   1.183   0.965 -0.0154 -0.2954  0.4994
  936MOL0     C23484   6.227   1.246   1.049 -0.2618  0.2939 -0.2211
  936MOL0     C23485   6.567   0.613   0.915 -0.5760 -0.4039 -0.3194
  936MOL0     C23486   6.546   0.482   0.884  0.7348  0.3616  0.4425
  936MOL0     H23487   6.245   0.170   0.730  4.0902  1.2922 -1.0692
  936MOL0     H23488   6.122  -0.072   0.716 -1.4641  0.1027  0.8493
  936MOL0     H23489   6.337  -0.427   0.890  5.1411 -3.2575 -1.1737
  936MOL0     H23490   6.411  -0.412   0.735 -0.5502 -0.2513 -1.6996
  936MOL0     H23491   6.294  -0.622   0.715 -2.5507 -2.0403 -3.7493
  936MOL0     H23492   6.189  -0.506   0.633 -1.6027  0.5302  1.2580
  936MOL0     H23493   6.026  -0.517   0.782 -0.6146  0.3614  1.4718
  936MOL0     H23494   6.145  -0.544   0.916  1.6541  1.0352 -0.6871
  936MOL0     H23495   6.104  -0.762   0.693  0.0662  2.1265 -0.7515
  936MOL0     H23496   6.175  -0.773   0.841 -1.8432 -2.2225  1.9438
  936MOL0     H23497   5.957  -0.876   0.822  0.0830 -0.4826 -0.8367
  936MOL0     H23498   5.885  -0.706   0.831 -1.4076 -2.6368 -1.0405
  936MOL0     H23499   5.944  -0.648   1.034 -4.0760 -0.7422  2.4278
  936MOL0     H23500   6.054  -0.793   1.049 -0.7270  0.7587  0.9302
  936MOL0     H23501   5.751  -0.787   1.011  0.7854  3.3026  0.3355
  936MOL0     H23502   5.855  -0.945   1.015  2.4526  0.0713  0.2405
  936MOL0     H23503   5.743  -0.936   1.216 -0.1838  0.3376 -0.5228
  936MOL0     H23504   5.799  -0.767   1.249  0.0555  0.5018 -1.0713
  936MOL0     H23505   5.921  -1.144   1.209  2.0070 -3.8141  1.0596
  936MOL0     H23506   6.294  -1.179   1.363 -0.1162 -2.9539  1.1915
  936MOL0     H23507   6.181  -1.263   1.249  1.4003 -2.5696  1.6574
  936MOL0     H23508   6.022  -1.291   1.420  1.6539 -3.5591 -1.3357
  936MOL0     H23509   6.122  -1.215   1.539 -3.2457 -0.2406  0.8905
  936MOL0     H23510   6.156  -1.491   1.392 -3.1831 -0.2679  1.4776
  936MOL0     H23511   6.292  -1.408   1.470  0.6528 -2.1611  0.4300
  936MOL0     H23512   6.174  -1.404   1.684  1.5707 -0.8322  0.2801
  936MOL0     H23513   6.215  -1.555   1.628  0.9835  2.4809 -0.7826
  936MOL0     H23514   6.157  -1.585   1.842  1.5893 -1.0581 -3.9754
  936MOL0     H23515   6.057  -1.749   2.000 -1.9907  0.6636  2.2897
  936MOL0     H23516   6.048  -1.928   2.345  1.7114 -0.4545 -0.2679
  936MOL0     H23517   5.983  -2.095   2.516 -2.1361 -2.8888  1.1734
  936MOL0     H23518   5.617  -2.335   2.479  0.9618  2.3149 -2.4702
  936MOL0     H23519   5.669  -2.188   2.577  0.4585  0.5822  0.7748
  936MOL0     H23520   5.750  -2.456   2.678 -1.4577 -0.7699 -0.8727
  936MOL0     H23521   5.578  -2.405   2.693 -1.0766  3.2362  0.5092
  936MOL0     H23522   5.651  -2.200   2.815 -1.4586 -0.5448 -2.8387
  936MOL0     H23523   5.818  -2.240   2.788  1.0609  0.0602  6.4606
  936MOL0     H23524   5.642  -2.435   2.945 -0.1194  0.0434  2.0732
  936MOL0     H23525   5.823  -2.432   2.921 -1.4775 -1.2686  0.2386
  936MOL0     H23526   5.686  -2.195   3.058  0.7580  0.6772 -0.1904
  936MOL0     H23527   5.846  -2.229   3.053  1.3940 -2.7209  3.2304
  936MOL0     H23528   5.799  -2.459   3.143  0.0289  0.2253 -0.1544
  936MOL0     H23529   5.646  -2.393   3.198  0.1205  1.2849  3.5946
  936MOL0     H23530   5.851  -2.373   3.365 -0.2314 -1.0055 -0.5920
  936MOL0     H23531   5.913  -2.238   3.270 -0.1966 -1.5207 -0.8969
  936MOL0     H23532   5.682  -2.124   3.294 -3.5980 -0.0130  1.6890
  936MOL0     H23533   5.781  -2.132   3.438 -1.8481 -0.4507  0.0150
  936MOL0     H23534   5.750  -2.303   2.227  0.8694  0.9106 -4.6213
  936MOL0     H23535   5.791  -2.117   2.054 -0.3048 -3.1259  0.7934
  936MOL0     H23536   5.682  -1.741   1.807 -0.3125 -0.1339  1.0872
  936MOL0     H23537   5.792  -1.611   1.622  1.5385 -1.2798 -1.7841
  936MOL0     H23538   6.484  -0.244   0.843 -0.1763  0.6537  2.8557
  936MOL0     H23539   6.585  -0.045   0.867 -1.5245 -4.7788  1.3686
  936MOL0     H23540   6.515   0.519   0.545 -0.1698  5.6024 -1.0118
  936MOL0     H23541   6.548   0.749   0.600 -1.3796 -3.2110 -1.9118
  936MOL0     H23542   6.495   0.950   0.713  0.2630 -0.9077 -0.2968
  936MOL0     H23543   6.669   0.920   0.686  0.2915  0.3377  0.3416
  936MOL0     H23544   6.716   1.072   0.872  1.0632 -0.7547 -1.9202
  936MOL0     H23545   6.629   1.139   0.727  2.0744 -1.0194 -1.2589
  936MOL0     H23546   6.537   1.234   0.931  0.7965 -1.0551 -2.5418
  936MOL0     H23547   6.530   1.082   1.019 -1.1181 -0.3306 -0.0602
  936MOL0     H23548   6.358   1.122   0.771  2.2238 -1.1750 -0.5681
  936MOL0     H23549   6.357   0.992   0.888  1.8703 -0.0870 -0.9825
  936MOL0     H23550   6.176   1.302   1.124  3.6420  0.2849  2.7757
  936MOL0     H23551   6.583   0.647   1.016 -0.1994  2.7773 -1.3274
  936MOL0     H23552   6.536   0.411   0.965  0.0044  3.2597  3.0646
  937MOL0     O23553  11.095   3.062   0.421 -0.0759  0.7143  0.2261
  937MOL0     C23554  11.021   3.104   0.506 -0.7811  0.5901 -0.2508
  937MOL0     O23555  10.942   3.215   0.492  1.2838 -0.6024  0.1866
  937MOL0     C23556  10.946   3.289   0.382 -0.9835  0.1777  0.5183
  937MOL0     C23557  10.833   3.351   0.346  0.8541  0.3656  0.4863
  937MOL0     C23558  10.824   3.442   0.239  0.4853  0.1144 -0.4251
  937MOL0     C23559  10.938   3.470   0.170  0.1211 -1.2497 -0.7890
  937MOL0     O23560  10.946   3.551   0.056  0.3157  0.1981  0.4647
  937MOL0     C23561  10.832   3.609  -0.006 -0.0998  1.2436  0.1192
  937MOL0     C23562  10.871   3.710  -0.114  0.2254 -0.6593  0.1505
  937MOL0     C23563  10.951   3.838  -0.068  1.9375  0.7388  0.9173
  937MOL0     C23564  10.879   3.905   0.050  0.4204  0.1423  0.3080
  937MOL0     C23565  10.951   4.014   0.125 -0.5914 -0.2705 -0.5639
  937MOL0     C23566  11.019   4.115   0.031  0.1288 -0.1926 -0.0999
  937MOL0     C23567  11.028   4.262   0.085 -0.3806  0.0767  0.1970
  937MOL0     C23568  11.073   4.355  -0.038 -0.3876 -0.4699 -1.1098
  937MOL0     N23569  11.214   4.316  -0.065 -0.0313 -0.3572  0.3489
  937MOL0     C23570  11.330   4.389  -0.046  1.2263 -0.2180  0.6127
  937MOL0     C23571  11.425   4.332  -0.124 -0.1626  1.1777  0.3979
  937MOL0     C23572  11.566   4.381  -0.163 -0.2792 -0.2386 -0.3722
  937MOL0     C23573  11.677   4.297  -0.099 -0.6781  0.4332  1.3398
  937MOL0     C23574  11.812   4.358  -0.133 -0.1896 -0.8920 -1.0468
  937MOL0     C23575  11.849   4.342  -0.284  0.4184  0.3768 -0.5625
  937MOL0     O23576  11.969   4.266  -0.274  0.3049 -0.1184  0.3634
  937MOL0     C23577  12.092   4.324  -0.255 -0.4139  0.3449  0.6346
  937MOL0     C23578  12.199   4.230  -0.255  0.4186  0.1074 -0.2235
  937MOL0     C23579  12.332   4.274  -0.247  0.3914 -0.6989 -0.0586
  937MOL0     C23580  12.359   4.413  -0.243 -0.9870  0.3982  0.3341
  937MOL0     C23581  12.496   4.461  -0.238  0.2522  0.7688 -0.4387
  937MOL0     O23582  12.521   4.572  -0.312 -0.1689 -1.4573  0.0652
  937MOL0     C23583  12.647   4.590  -0.367  0.3013 -1.0644  0.0411
  937MOL0     C23584  12.682   4.719  -0.396  0.3346 -0.3677 -0.8631
  937MOL0     C23585  12.804   4.758  -0.449  0.3435  0.2912  0.2926
  937MOL0     C23586  12.900   4.656  -0.468 -0.2340 -0.4194  0.5686
  937MOL0     O23587  13.027   4.681  -0.495 -1.0607  0.4079 -0.9199
  937MOL0     C23588  13.097   4.760  -0.396 -0.2102  0.0763 -0.2988
  937MOL0     C23589  13.236   4.724  -0.355 -0.6050 -0.5030  0.6628
  937MOL0     C23590  13.333   4.732  -0.471  0.1014 -0.7936 -0.3983
  937MOL0     C23591  13.463   4.682  -0.416  0.6967 -0.4053 -0.2873
  937MOL0     C23592  13.581   4.695  -0.516 -0.1282 -0.6362 -0.2871
  937MOL0     C23593  13.620   4.839  -0.558 -0.5956 -1.0619 -0.2780
  937MOL0     C23594  13.736   4.830  -0.659 -0.2586 -0.4810 -0.4863
  937MOL0     C23595  13.707   4.901  -0.789  0.2994  0.5371  0.4923
  937MOL0    Cl23596  13.576   4.846  -0.895 -0.2278  0.5286 -0.1858
  937MOL0     C23597  12.877   4.526  -0.436 -0.0669 -0.9587  0.5372
  937MOL0     C23598  12.747   4.494  -0.389 -1.0596 -0.2254 -0.4311
  937MOL0     O23599  12.579   4.409  -0.161 -0.7538  0.7607  0.2337
  937MOL0     C23600  12.253   4.506  -0.244 -0.0463  0.1137 -0.7108
  937MOL0     C23601  12.116   4.462  -0.245  0.2126 -0.2394 -0.0027
  937MOL0     N23602  11.368   4.232  -0.203 -0.2003  0.2469  0.7669
  937MOL0     N23603  11.243   4.226  -0.161 -0.2333 -0.3023 -0.7327
  937MOL0     C23604  11.055   3.400   0.198 -0.4475 -0.1944 -0.7774
  937MOL0     C23605  11.061   3.315   0.310 -0.3870 -0.1340 -0.1313
  937MOL0     C23606  11.007   3.029   0.628  1.0981  0.3461 -0.2191
  937MOL0     C23607  11.065   2.903   0.645  0.8571  0.4934  0.3063
  937MOL0     C23608  11.065   2.819   0.769 -0.0521 -0.4827 -0.0136
  937MOL0     C23609  10.981   2.869   0.867  0.6539 -1.3315  0.8052
  937MOL0     O23610  10.962   2.805   0.984  0.4352 -0.0210  0.4492
  937MOL0     C23611  10.872   2.692   0.984  0.4090  0.1605 -0.1454
  937MOL0     C23612  10.878   2.608   1.111  1.3553  0.3278 -0.1423
  937MOL0     C23613  11.020   2.550   1.114  0.2890 -0.4360 -0.4624
  937MOL0     C23614  11.029   2.402   1.165 -0.7055 -0.3035  0.7400
  937MOL0     C23615  10.952   2.376   1.289  0.2899 -0.7434 -1.4393
  937MOL0     C23616  10.907   2.351   1.401  0.7320 -0.5194  0.1883
  937MOL0     C23617  10.911   2.988   0.845  0.2039  0.6112 -0.2161
  937MOL0     C23618  10.915   3.062   0.726  0.4200 -1.2681  0.5372
  937MOL0     H23619  10.743   3.336   0.404  0.8183 -1.5723  0.0021
  937MOL0     H23620  10.726   3.485   0.222  0.5481  0.5504  0.2489
  937MOL0     H23621  10.774   3.656   0.074 -2.2181  4.1669 -2.8636
  937MOL0     H23622  10.767   3.533  -0.050 -0.5259  0.0677  2.6257
  937MOL0     H23623  10.784   3.763  -0.154  1.5686  0.5367 -1.3229
  937MOL0     H23624  10.929   3.676  -0.201  1.2174 -1.7101  1.1920
  937MOL0     H23625  10.964   3.907  -0.152 -1.0247 -0.8477 -0.9786
  937MOL0     H23626  11.052   3.829  -0.026  2.5600 -0.3269 -0.7410
  937MOL0     H23627  10.787   3.953   0.014 -1.9486 -2.9111  1.8281
  937MOL0     H23628  10.844   3.833   0.124  0.8201 -0.8412 -0.4487
  937MOL0     H23629  11.027   3.973   0.193 -1.6194  2.4408  2.5093
  937MOL0     H23630  10.886   4.066   0.196 -0.1756 -2.6006  1.7064
  937MOL0     H23631  10.950   4.131  -0.052 -1.1308  1.9487  1.2649
  937MOL0     H23632  11.115   4.068   0.007  0.3001 -0.5886  1.2988
  937MOL0     H23633  10.931   4.294   0.125 -0.7222  3.8077 -2.9977
  937MOL0     H23634  11.099   4.264   0.168  1.8137  0.4234 -1.5939
  937MOL0     H23635  11.069   4.463  -0.018  3.6878  0.0391 -2.0772
  937MOL0     H23636  11.012   4.330  -0.125 -0.7251  0.7721 -1.2471
  937MOL0     H23637  11.339   4.482   0.008 -0.7905 -0.9113  2.3128
  937MOL0     H23638  11.573   4.487  -0.140 -1.1255 -0.2565  0.0292
  937MOL0     H23639  11.575   4.367  -0.271 -0.2223  0.8900 -0.5197
  937MOL0     H23640  11.687   4.197  -0.140  1.0270  0.4049  1.7721
  937MOL0     H23641  11.648   4.303   0.006  1.2338  2.0087  1.8516
  937MOL0     H23642  11.819   4.462  -0.100 -1.4737 -1.1976  0.2948
  937MOL0     H23643  11.873   4.294  -0.068 -1.1544 -2.2059 -1.3869
  937MOL0     H23644  11.858   4.437  -0.337  0.4315  0.2549 -0.7820
  937MOL0     H23645  11.783   4.274  -0.339 -1.0941 -0.9717  2.6108
  937MOL0     H23646  12.180   4.123  -0.255  0.6349  0.0347  1.6312
  937MOL0     H23647  12.410   4.198  -0.250  2.2348  1.0972 -0.5477
  937MOL0     H23648  12.611   4.793  -0.361  1.3417  1.5559 -2.6254
  937MOL0     H23649  12.821   4.860  -0.484  0.9317 -0.3505 -1.3871
  937MOL0     H23650  13.032   4.747  -0.309  0.2870 -1.9785 -0.1743
  937MOL0     H23651  13.102   4.864  -0.429 -2.5478 -0.2792 -1.9450
  937MOL0     H23652  13.230   4.621  -0.321  1.6788 -0.3860  1.6118
  937MOL0     H23653  13.263   4.795  -0.276 -2.4080  0.1980  0.6946
  937MOL0     H23654  13.351   4.838  -0.490  1.1022 -0.1202  3.5190
  937MOL0     H23655  13.300   4.665  -0.552 -3.7706 -0.1485  0.4728
  937MOL0     H23656  13.492   4.736  -0.326 -0.6853 -0.8315  0.4362
  937MOL0     H23657  13.450   4.578  -0.384  0.8588 -0.9797 -1.9865
  937MOL0     H23658  13.545   4.647  -0.607  0.5577 -0.4267 -0.6794
  937MOL0     H23659  13.668   4.640  -0.476 -0.2124 -2.9143 -2.9634
  937MOL0     H23660  13.675   4.897  -0.483  2.3064  0.8355 -3.5741
  937MOL0     H23661  13.536   4.899  -0.596 -0.3829  1.5469  2.9255
  937MOL0     H23662  13.822   4.869  -0.604  0.4700 -3.7582  0.9388
  937MOL0     H23663  13.765   4.725  -0.670  0.6954 -0.2775 -0.0384
  937MOL0     H23664  13.796   4.899  -0.852  0.0369  1.1146  0.0961
  937MOL0     H23665  13.694   5.006  -0.762  1.2821  2.1663 -4.4304
  937MOL0     H23666  12.961   4.459  -0.446  0.3355 -0.2246 -1.5134
  937MOL0     H23667  12.731   4.391  -0.361 -0.5880 -0.5148 -1.1987
  937MOL0     H23668  12.274   4.613  -0.249 -1.6823  0.5797  1.1261
  937MOL0     H23669  12.045   4.544  -0.251  2.3279  1.6204 -1.3361
  937MOL0     H23670  11.142   3.415   0.135 -0.1317 -1.2443 -0.6104
  937MOL0     H23671  11.157   3.267   0.322 -0.6703 -1.4175 -2.4792
  937MOL0     H23672  11.132   2.881   0.562 -2.6496 -0.2622 -2.6352
  937MOL0     H23673  11.118   2.725   0.775  0.6106 -0.6600 -4.9213
  937MOL0     H23674  10.884   2.622   0.901 -0.7390 -0.5134  0.2215
  937MOL0     H23675  10.772   2.725   0.954 -0.4209 -3.3107 -1.7368
  937MOL0     H23676  10.861   2.654   1.209 -0.3501 -1.2376  0.3495
  937MOL0     H23677  10.795   2.537   1.111  1.5295  0.0860  1.6330
  937MOL0     H23678  11.077   2.626   1.169 -0.6988  0.5745 -0.7976
  937MOL0     H23679  11.070   2.555   1.017  0.5115 -0.0901 -0.3330
  937MOL0     H23680  10.997   2.330   1.090  5.6539 -2.3448 -0.6168
  937MOL0     H23681  11.135   2.384   1.188 -0.4249  0.3788  0.0148
  937MOL0     H23682  10.886   2.327   1.503  0.4376  4.4812  1.5766
  937MOL0     H23683  10.856   3.022   0.932  0.5208 -1.9027  1.0716
  937MOL0     H23684  10.878   3.164   0.716  1.7730 -0.7346  0.7640
  938MOL0     O23685  11.202   9.789   7.797 -1.1449 -0.3329  0.3590
  938MOL0     C23686  11.143   9.695   7.849  0.6799  0.0104  0.4908
  938MOL0     O23687  11.165   9.561   7.837 -0.1234 -0.1244 -0.9362
  938MOL0     C23688  11.263   9.528   7.753 -0.5902 -0.1106  0.5322
  938MOL0     C23689  11.224   9.459   7.632  0.1140 -0.3907 -0.7931
  938MOL0     C23690  11.327   9.428   7.541  0.4170 -0.8933 -0.5651
  938MOL0     C23691  11.456   9.470   7.553 -0.5116 -0.0999 -0.0023
  938MOL0     O23692  11.560   9.447   7.463  0.7285  0.0425 -0.0363
  938MOL0     C23693  11.531   9.431   7.325 -0.3109  0.7220 -1.0463
  938MOL0     C23694  11.646   9.360   7.242  0.3309  0.1587 -0.1830
  938MOL0     C23695  11.643   9.212   7.252  0.1633 -0.4035  0.5460
  938MOL0     C23696  11.709   9.156   7.380 -0.1101  0.5503 -0.0308
  938MOL0     C23697  11.727   9.002   7.373 -0.2543  0.3996  0.3809
  938MOL0     C23698  11.815   8.957   7.479  0.1032  0.1691 -0.3351
  938MOL0     C23699  11.798   8.806   7.509 -1.8478 -0.6347 -0.0098
  938MOL0     C23700  11.840   8.728   7.382  0.6655  0.1464  0.2659
  938MOL0     N23701  11.841   8.588   7.417  1.0618  0.5064  0.9870
  938MOL0     C23702  11.940   8.506   7.438 -0.4765  0.5053  0.5282
  938MOL0     C23703  11.878   8.380   7.458  0.7902 -0.4724 -0.2364
  938MOL0     C23704  11.951   8.247   7.469 -0.4007  0.0482  0.5740
  938MOL0     C23705  11.917   8.167   7.591 -0.0900 -0.3593 -0.0571
  938MOL0     C23706  11.963   8.019   7.573  0.5313 -0.4708 -0.0880
  938MOL0     C23707  11.871   7.921   7.502  0.4832  0.0024  0.1737
  938MOL0     O23708  11.897   7.786   7.544 -0.2428  0.0097  0.8545
  938MOL0     C23709  11.795   7.696   7.530  0.7838  0.3697 -1.2486
  938MOL0     C23710  11.781   7.601   7.638  0.0023 -0.3264  0.1746
  938MOL0     C23711  11.675   7.505   7.624  0.6385  0.4657  0.6647
  938MOL0     C23712  11.590   7.500   7.511 -0.8489  0.1102  0.0270
  938MOL0     C23713  11.483   7.398   7.502 -0.3715 -1.0857 -0.1555
  938MOL0     O23714  11.412   7.396   7.382  0.4827 -0.1851 -0.1175
  938MOL0     C23715  11.315   7.300   7.363 -0.4047 -0.9782 -0.2438
  938MOL0     C23716  11.315   7.243   7.233  0.3517 -0.2041  0.4578
  938MOL0     C23717  11.218   7.145   7.204  0.5437 -1.5287  0.5608
  938MOL0     C23718  11.111   7.126   7.283 -0.1303 -0.8493  0.1483
  938MOL0     O23719  11.015   7.040   7.247  0.1257  0.6599  0.8492
  938MOL0     C23720  10.884   7.092   7.203 -0.7577  0.6925 -1.0132
  938MOL0     C23721  10.762   7.015   7.260 -0.0326 -0.5108  0.9122
  938MOL0     C23722  10.627   7.069   7.203 -0.2290 -0.0982 -0.2932
  938MOL0     C23723  10.614   7.094   7.046  0.2618  0.8282 -0.4467
  938MOL0     C23724  10.473   7.151   7.023  0.4917  0.1816 -0.3863
  938MOL0     C23725  10.428   7.188   6.876  0.7089 -0.5846  0.9677
  938MOL0     C23726  10.453   7.080   6.766  0.3335  0.4160 -0.6560
  938MOL0     C23727  10.385   7.121   6.634  0.3596 -0.6338 -0.7603
  938MOL0    Cl23728  10.456   7.029   6.488 -0.2158 -0.1987 -0.5306
  938MOL0     C23729  11.108   7.185   7.409  0.6361 -0.3974  0.2130
  938MOL0     C23730  11.207   7.271   7.441 -0.6014 -0.9192 -0.6301
  938MOL0     O23731  11.476   7.315   7.594 -0.5866 -0.2576  0.3718
  938MOL0     C23732  11.612   7.604   7.406 -0.3571  0.2240  0.3468
  938MOL0     C23733  11.716   7.697   7.409  0.0560 -0.6049  0.3426
  938MOL0     N23734  11.744   8.405   7.475 -1.1911  0.8100 -0.2810
  938MOL0     N23735  11.727   8.523   7.439  1.0084 -0.0111  1.1094
  938MOL0     C23736  11.495   9.531   7.674  0.0508 -0.2799 -0.2148
  938MOL0     C23737  11.403   9.566   7.773 -0.4099 -0.0866  0.0939
  938MOL0     C23738  11.037   9.721   7.946  0.3254  0.3067  0.1921
  938MOL0     C23739  11.001   9.629   8.055 -0.5274  0.0320  0.3833
  938MOL0     C23740  10.903   9.679   8.149 -0.1405  0.3594  1.0963
  938MOL0     C23741  10.829   9.794   8.129  0.5342  0.0714 -0.2165
  938MOL0     O23742  10.731   9.818   8.220  0.4625 -0.0819  0.2902
  938MOL0     C23743  10.604   9.760   8.183 -1.0461  0.4028 -0.0184
  938MOL0     C23744  10.494   9.849   8.232  0.0041 -0.0296  0.7713
  938MOL0     C23745  10.359   9.786   8.232  0.1266 -0.5959  0.5215
  938MOL0     C23746  10.254   9.878   8.293 -0.1937 -0.2726 -0.4998
  938MOL0     C23747  10.130   9.798   8.296 -0.0122  0.5854 -0.3963
  938MOL0     C23748  10.028   9.723   8.287 -0.1011 -0.0945  0.0042
  938MOL0     C23749  10.847   9.868   8.022 -0.5742  0.3440  0.2185
  938MOL0     C23750  10.957   9.845   7.929  1.1815 -0.1545 -0.3382
  938MOL0     H23751  11.122   9.431   7.607 -0.7902  1.4375  0.5597
  938MOL0     H23752  11.289   9.365   7.461  1.7559 -4.8470  1.6476
  938MOL0     H23753  11.528   9.538   7.301 -0.2019  1.4310  1.7380
  938MOL0     H23754  11.434   9.383   7.311 -0.2809 -0.1563  1.2853
  938MOL0     H23755  11.746   9.398   7.267 -0.7402  3.7886 -0.7833
  938MOL0     H23756  11.638   9.397   7.139 -2.6932  3.2660  0.9816
  938MOL0     H23757  11.697   9.172   7.166  0.0329 -0.0519  0.2984
  938MOL0     H23758  11.542   9.170   7.248  0.8185 -1.9454 -1.1829
  938MOL0     H23759  11.811   9.195   7.389 -0.5627  1.8974 -0.5029
  938MOL0     H23760  11.660   9.190   7.471  0.3016  0.9908  0.0285
  938MOL0     H23761  11.771   8.961   7.282 -0.8649 -0.4505  0.4535
  938MOL0     H23762  11.630   8.953   7.380  0.9308 -1.9813  0.8510
  938MOL0     H23763  11.785   9.016   7.567  0.4531  1.3026 -0.9495
  938MOL0     H23764  11.917   8.973   7.443 -0.0790  0.4860 -0.7149
  938MOL0     H23765  11.862   8.775   7.592  0.0689  0.7481 -0.8836
  938MOL0     H23766  11.701   8.769   7.542 -2.3063  0.9321  0.4878
  938MOL0     H23767  11.941   8.754   7.350 -0.2212  0.4795 -2.4415
  938MOL0     H23768  11.768   8.755   7.304  0.5205  2.0030  0.9969
  938MOL0     H23769  12.047   8.520   7.433 -0.2112 -1.3570  0.1365
  938MOL0     H23770  12.057   8.271   7.475 -0.7321  1.2669  3.1114
  938MOL0     H23771  11.941   8.193   7.375 -1.2620  0.9767  0.1040
  938MOL0     H23772  11.810   8.159   7.614  0.2205  1.9344  2.6680
  938MOL0     H23773  11.962   8.222   7.674 -1.7671  2.2611 -0.7903
  938MOL0     H23774  12.058   8.008   7.520  0.6408 -0.9996  0.2144
  938MOL0     H23775  11.967   7.974   7.673 -1.0267  0.2137  0.3135
  938MOL0     H23776  11.876   7.922   7.393 -0.3651 -0.5300  0.1181
  938MOL0     H23777  11.769   7.949   7.529  0.8480  2.5701 -0.8417
  938MOL0     H23778  11.851   7.601   7.720 -0.1850 -3.6889  0.4739
  938MOL0     H23779  11.674   7.430   7.703 -0.1463  0.8488  1.0292
  938MOL0     H23780  11.400   7.263   7.170 -1.5905  2.0858 -1.6319
  938MOL0     H23781  11.226   7.094   7.109  0.4206  0.4689 -0.5694
  938MOL0     H23782  10.879   7.070   7.096 -1.0247 -4.6957 -0.1684
  938MOL0     H23783  10.874   7.197   7.233 -2.8004  0.1790  0.3524
  938MOL0     H23784  10.756   7.019   7.369 -2.3225  0.8428  0.8061
  938MOL0     H23785  10.774   6.913   7.221  0.7835  0.3850 -1.3619
  938MOL0     H23786  10.609   7.166   7.250  3.2309  0.8363 -0.6119
  938MOL0     H23787  10.547   7.002   7.236  0.8839 -0.8215  1.0695
  938MOL0     H23788  10.686   7.168   7.010  0.3930  0.9612  0.0767
  938MOL0     H23789  10.626   6.995   7.000 -1.5246  0.4920 -0.2683
  938MOL0     H23790  10.475   7.245   7.079  1.3454  1.4678 -2.4384
  938MOL0     H23791  10.401   7.087   7.074  0.8297  1.0439  1.2234
  938MOL0     H23792  10.476   7.284   6.854  0.9496 -0.9732 -0.3433
  938MOL0     H23793  10.323   7.214   6.894  1.5123  1.2774  3.5516
  938MOL0     H23794  10.561   7.077   6.744  0.0958 -2.8017 -1.9169
  938MOL0     H23795  10.427   6.981   6.803  4.4704 -1.3360 -1.8221
  938MOL0     H23796  10.414   7.225   6.616  1.1702 -0.7065  0.0799
  938MOL0     H23797  10.275   7.119   6.631  0.3002  1.2643 -1.5812
  938MOL0     H23798  11.014   7.162   7.459 -0.0656 -6.5040 -2.9741
  938MOL0     H23799  11.196   7.320   7.538 -2.1312  0.9526 -1.6718
  938MOL0     H23800  11.555   7.593   7.314  0.4155 -3.1586  0.1101
  938MOL0     H23801  11.750   7.753   7.323 -0.3690 -0.1918  0.4392
  938MOL0     H23802  11.600   9.558   7.686 -0.6450  1.7095  2.2798
  938MOL0     H23803  11.443   9.596   7.870  1.3884 -2.8871  0.3072
  938MOL0     H23804  11.039   9.528   8.061 -0.6040 -0.0752 -0.6945
  938MOL0     H23805  10.875   9.607   8.225 -0.1098 -1.9302 -0.9340
  938MOL0     H23806  10.595   9.663   8.232 -0.1818 -0.5957 -1.7301
  938MOL0     H23807  10.598   9.751   8.074  0.8120  0.7315 -0.1807
  938MOL0     H23808  10.522   9.886   8.331  2.3597  1.7565 -0.4731
  938MOL0     H23809  10.485   9.928   8.157 -0.2760 -0.7255  0.0541
  938MOL0     H23810  10.367   9.692   8.286  2.1602 -1.2934 -0.8645
  938MOL0     H23811  10.340   9.765   8.127 -1.8662 -0.1467  0.7553
  938MOL0     H23812  10.285   9.907   8.394  0.4415 -0.4348 -0.6484
  938MOL0     H23813  10.231   9.963   8.228 -3.6894  0.6351  1.6092
  938MOL0     H23814   9.946   9.658   8.267 -0.3867  0.9180 -2.4109
  938MOL0     H23815  10.779   9.951   8.010 -0.0637  0.9656  1.4380
  938MOL0     H23816  10.977   9.915   7.848 -2.1872 -0.0915 -1.2679
  939MOL0     O23817   4.202  10.386   0.389  0.1067  0.3821 -0.0151
  939MOL0     C23818   4.233  10.457   0.484  0.0512 -0.9545  0.9789
  939MOL0     O23819   4.355  10.517   0.509  0.4996 -1.0038  0.5896
  939MOL0     C23820   4.449  10.499   0.411 -0.1183  0.1139 -0.3278
  939MOL0     C23821   4.478  10.369   0.357 -0.0608 -0.9240 -0.3940
  939MOL0     C23822   4.581  10.341   0.262  1.2898 -0.7202  2.4238
  939MOL0     C23823   4.657  10.460   0.211 -0.1974  0.3592  0.5749
  939MOL0     O23824   4.742  10.468   0.108 -1.4198 -0.3148 -0.3629
  939MOL0     C23825   4.794  10.350   0.047 -0.3208  0.0137  0.3217
  939MOL0     C23826   4.941  10.381   0.006  0.4661 -0.4058  0.5857
  939MOL0     C23827   4.956  10.501  -0.094  0.5058  0.1186  0.3670
  939MOL0     C23828   5.080  10.580  -0.102  0.5574 -0.2022 -0.4144
  939MOL0     C23829   5.086  10.699  -0.206 -0.5116  1.2345 -0.3038
  939MOL0     C23830   5.208  10.786  -0.183 -0.5041  0.1803 -1.0280
  939MOL0     C23831   5.207  10.908  -0.267 -0.4906 -0.5286  0.2368
  939MOL0     C23832   5.102  11.014  -0.249  0.2939 -0.7185 -2.3775
  939MOL0     N23833   5.105  11.072  -0.110 -0.5525  0.2154 -0.2150
  939MOL0     C23834   5.016  11.052  -0.013  0.2216  0.9350  0.0628
  939MOL0     C23835   5.062  11.116   0.095 -0.6541 -0.7282  0.3182
  939MOL0     C23836   5.024  11.108   0.244 -0.3867  1.1540 -0.2232
  939MOL0     C23837   4.876  11.122   0.258 -0.2174  0.6795  0.4573
  939MOL0     C23838   4.825  11.268   0.243 -0.0983  1.3618  0.1391
  939MOL0     C23839   4.852  11.362   0.356  0.1338 -0.5231 -0.9530
  939MOL0     O23840   4.732  11.446   0.369  0.1234 -0.1678  0.9732
  939MOL0     C23841   4.641  11.409   0.470  0.1583  0.2681 -0.4229
  939MOL0     C23842   4.671  11.409   0.608  0.1253  0.6937  1.0553
  939MOL0     C23843   4.583  11.364   0.709 -0.5233  0.4590  0.5631
  939MOL0     C23844   4.457  11.323   0.666 -1.3013  0.7753 -0.5844
  939MOL0     C23845   4.358  11.275   0.759  1.0415 -0.8205  0.3559
  939MOL0     O23846   4.390  11.247   0.878  0.2543 -0.5194 -0.2413
  939MOL0     C23847   4.297  11.199   0.964  0.8604  0.0196 -1.1746
  939MOL0     C23848   4.305  11.062   1.002  0.1519  0.3915  0.4070
  939MOL0     C23849   4.217  11.014   1.098  1.0714 -0.1242  0.8617
  939MOL0     C23850   4.123  11.104   1.158 -0.0214 -0.6820 -0.1105
  939MOL0     O23851   4.056  11.067   1.261 -0.7701  0.8517  0.0048
  939MOL0     C23852   3.980  10.946   1.267 -0.2156 -0.3547  0.6789
  939MOL0     C23853   3.839  10.959   1.195 -0.3620 -0.0399 -0.4777
  939MOL0     C23854   3.745  10.871   1.281  0.1312 -0.0145  0.1391
  939MOL0     C23855   3.603  10.863   1.208  0.2120  0.0675 -0.1362
  939MOL0     C23856   3.516  10.992   1.212 -0.3083  0.7738  0.7116
  939MOL0     C23857   3.486  11.035   1.357  0.1927  0.5892  0.5434
  939MOL0     C23858   3.403  11.166   1.354  0.5910  0.2999 -0.4619
  939MOL0     C23859   3.282  11.155   1.452 -0.2229 -0.4732  0.2766
  939MOL0    Cl23860   3.138  11.067   1.392 -0.1887  0.0166  0.0721
  939MOL0     C23861   4.129  11.239   1.122  0.6734  0.4422  0.1173
  939MOL0     C23862   4.213  11.286   1.028 -0.9127 -0.3276  0.3093
  939MOL0     O23863   4.244  11.261   0.702  0.0870  0.1445 -1.3207
  939MOL0     C23864   4.420  11.347   0.534  0.0181 -0.4095  0.2982
  939MOL0     C23865   4.510  11.391   0.436 -0.1717  0.9615  0.3317
  939MOL0     N23866   5.185  11.172   0.064  0.2261  0.4472  0.5024
  939MOL0     N23867   5.215  11.139  -0.058  0.6989 -0.1341 -0.3136
  939MOL0     C23868   4.626  10.580   0.269 -0.1669 -0.7502  0.2889
  939MOL0     C23869   4.533  10.595   0.374 -0.1332  0.1924  0.6570
  939MOL0     C23870   4.117  10.473   0.578  0.3086 -0.3358 -0.1074
  939MOL0     C23871   4.139  10.537   0.697  0.5915 -0.2658 -0.0500
  939MOL0     C23872   4.042  10.542   0.797 -1.1064 -0.0217  0.6776
  939MOL0     C23873   3.909  10.496   0.775  0.8249 -0.5892  0.2547
  939MOL0     O23874   3.812  10.486   0.869  0.6091 -0.6094 -0.1975
  939MOL0     C23875   3.847  10.480   1.008 -0.7299 -0.7343  0.5022
  939MOL0     C23876   3.739  10.415   1.097  0.0664  0.2463  0.3887
  939MOL0     C23877   3.749  10.256   1.089  0.3900 -0.1486 -0.2212
  939MOL0     C23878   3.605  10.197   1.128 -0.3599 -0.6314 -0.2350
  939MOL0     C23879   3.583  10.156   1.269 -1.3692  0.5778  0.2837
  939MOL0     C23880   3.561  10.122   1.385  0.7296 -0.4367 -0.1057
  939MOL0     C23881   3.886  10.452   0.648 -0.0490 -0.3118  0.6312
  939MOL0     C23882   3.987  10.425   0.555  1.2666 -0.9911  0.7736
  939MOL0     H23883   4.425  10.281   0.391  1.3769 -1.9597 -0.7236
  939MOL0     H23884   4.568  10.244   0.216 -0.1793  0.2587  0.6175
  939MOL0     H23885   4.738  10.320  -0.042  0.7456 -4.0155  0.8146
  939MOL0     H23886   4.800  10.260   0.109  0.8386 -0.8077 -0.9165
  939MOL0     H23887   4.992  10.300  -0.047  0.5340  0.8646 -1.4133
  939MOL0     H23888   4.992  10.394   0.102 -1.2439 -0.8893  1.5946
  939MOL0     H23889   4.887  10.584  -0.079  2.1205  1.7635 -0.8391
  939MOL0     H23890   4.941  10.462  -0.195  0.7346  2.3792 -0.6126
  939MOL0     H23891   5.090  10.617   0.001  0.8118  0.8432 -0.8016
  939MOL0     H23892   5.174  10.525  -0.112  1.0448 -0.3422  3.3523
  939MOL0     H23893   4.994  10.757  -0.198 -1.9753 -1.0984  0.7319
  939MOL0     H23894   5.100  10.656  -0.305  0.4147 -0.4341  0.4927
  939MOL0     H23895   5.305  10.735  -0.189 -0.0533  0.5457  1.6210
  939MOL0     H23896   5.188  10.804  -0.077 -2.1069 -1.8694 -0.9165
  939MOL0     H23897   5.303  10.960  -0.253 -1.6846  1.9315 -0.2038
  939MOL0     H23898   5.211  10.899  -0.376 -2.7452  3.2271 -0.3309
  939MOL0     H23899   5.004  10.974  -0.274 -1.1606  1.8857 -1.2689
  939MOL0     H23900   5.100  11.098  -0.319 -2.5284  4.5087  3.0943
  939MOL0     H23901   4.930  10.988  -0.029  2.0723 -1.0223 -2.9831
  939MOL0     H23902   5.065  11.196   0.294 -0.0918  0.5450  0.6149
  939MOL0     H23903   5.058  11.013   0.286 -0.9028  0.3574 -1.5364
  939MOL0     H23904   4.839  11.094   0.357 -0.5141  0.9219  0.4147
  939MOL0     H23905   4.826  11.056   0.187  0.3400 -2.3701  2.6936
  939MOL0     H23906   4.872  11.308   0.153  0.9223  0.6118  0.3189
  939MOL0     H23907   4.717  11.273   0.223  0.3222  0.8878 -2.6475
  939MOL0     H23908   4.944  11.417   0.335  0.1950  0.0805  0.7714
  939MOL0     H23909   4.887  11.307   0.444  0.2719  0.3893 -0.4317
  939MOL0     H23910   4.770  11.415   0.650  0.5338 -1.4144  0.5401
  939MOL0     H23911   4.617  11.362   0.812 -0.6643 -2.3709  0.6358
  939MOL0     H23912   4.375  10.995   0.952  0.1788  0.9986 -0.3766
  939MOL0     H23913   4.213  10.908   1.122  2.6529  0.3098  3.3690
  939MOL0     H23914   3.967  10.920   1.373 -1.7415  2.5360  1.2956
  939MOL0     H23915   4.041  10.861   1.234 -1.0073 -0.9362  0.6756
  939MOL0     H23916   3.866  10.933   1.092  2.5677  0.7417  0.0105
  939MOL0     H23917   3.795  11.059   1.188 -0.3854 -0.0339 -0.2411
  939MOL0     H23918   3.734  10.903   1.385 -1.0211  0.7433 -0.1922
  939MOL0     H23919   3.777  10.767   1.289 -0.5701 -0.2141  0.4339
  939MOL0     H23920   3.613  10.837   1.102 -0.2829  0.8590 -0.3862
  939MOL0     H23921   3.547  10.776   1.245 -0.6557  0.7498  0.1984
  939MOL0     H23922   3.427  10.964   1.156 -0.3642 -6.1129  3.2781
  939MOL0     H23923   3.565  11.072   1.157  1.4636 -0.1958  0.7864
  939MOL0     H23924   3.579  11.059   1.408 -1.4044  3.3314  2.4568
  939MOL0     H23925   3.452  10.943   1.404  0.4149  0.2711  0.0917
  939MOL0     H23926   3.471  11.244   1.389 -0.3548 -0.5151  3.6954
  939MOL0     H23927   3.383  11.192   1.249  0.7440  4.0666  0.3099
  939MOL0     H23928   3.256  11.260   1.473 -0.7222  0.3331 -3.6866
  939MOL0     H23929   3.317  11.120   1.550 -0.1782  1.3861  0.9780
  939MOL0     H23930   4.065  11.313   1.169  0.1126 -0.2131  0.3987
  939MOL0     H23931   4.219  11.393   1.011  0.0157 -0.4499 -0.2083
  939MOL0     H23932   4.317  11.340   0.502 -0.1242 -2.1501  1.0283
  939MOL0     H23933   4.472  11.418   0.338  1.7966 -1.1707 -1.1083
  939MOL0     H23934   4.677  10.672   0.244  0.9327 -1.8631 -1.9180
  939MOL0     H23935   4.529  10.697   0.413 -3.4041 -0.2791  1.8593
  939MOL0     H23936   4.231  10.592   0.712 -1.3436  3.2449  0.0057
  939MOL0     H23937   4.061  10.591   0.892 -0.9215 -2.0378  1.7401
  939MOL0     H23938   3.866  10.582   1.043  1.2574 -1.3036  1.2542
  939MOL0     H23939   3.940  10.422   1.010 -1.4954 -2.0904 -0.9113
  939MOL0     H23940   3.755  10.446   1.200 -2.4935  0.1203  0.8856
  939MOL0     H23941   3.638  10.439   1.065  0.2463  1.7267  0.8423
  939MOL0     H23942   3.824  10.221   1.161  0.0665  1.5356  1.0152
  939MOL0     H23943   3.764  10.233   0.984  0.7836  0.4034 -0.2869
  939MOL0     H23944   3.524  10.262   1.095  1.4123  1.4799 -0.7128
  939MOL0     H23945   3.594  10.108   1.065  2.6850 -1.0011 -0.3860
  939MOL0     H23946   3.543  10.108   1.490  0.3098  1.8250  0.1870
  939MOL0     H23947   3.785  10.421   0.625 -0.8478  2.1380  0.5737
  939MOL0     H23948   3.974  10.377   0.458  5.7280  0.5840 -0.8677
  940MOL0     O23949  10.017   3.112   1.399 -1.2365  0.0221  1.0409
  940MOL0     C23950   9.911   3.049   1.385  0.3473  0.1780 -0.5421
  940MOL0     O23951   9.798   3.074   1.454  1.1880 -1.3614  0.7073
  940MOL0     C23952   9.795   3.173   1.547 -0.6991  0.3299 -0.0041
  940MOL0     C23953   9.716   3.148   1.657  0.6843  0.9547  0.0490
  940MOL0     C23954   9.714   3.227   1.772  0.1641 -1.0554  0.4548
  940MOL0     C23955   9.765   3.366   1.762  0.1554  0.5443  0.5372
  940MOL0     O23956   9.751   3.448   1.864  0.6146 -0.4081 -0.0034
  940MOL0     C23957   9.832   3.561   1.885 -0.6131 -0.1527  0.8127
  940MOL0     C23958   9.797   3.637   2.012 -0.3913  0.1659  0.0523
  940MOL0     C23959   9.894   3.753   2.015 -0.3456  0.5631  1.2813
  940MOL0     C23960   9.869   3.848   2.133 -0.2274  0.5863 -0.7811
  940MOL0     C23961   9.966   3.949   2.183  0.5349  0.3269 -0.2408
  940MOL0     C23962   9.918   4.035   2.301  0.0708 -0.2925 -0.1745
  940MOL0     C23963   9.874   3.957   2.421 -0.1954  1.2480 -0.1322
  940MOL0     C23964   9.962   3.835   2.459  0.6946 -0.1115  0.5695
  940MOL0     N23965   9.896   3.769   2.580 -0.3701  0.5952  0.7253
  940MOL0     C23966   9.859   3.831   2.692  0.3437 -0.3376 -0.7518
  940MOL0     C23967   9.815   3.725   2.773 -0.2455  0.2375 -0.2037
  940MOL0     C23968   9.768   3.723   2.922 -0.0224  0.9464  0.3587
  940MOL0     C23969   9.884   3.718   3.016  0.3268  0.8213  0.5323
  940MOL0     C23970   9.981   3.592   3.002 -0.1295 -0.2037 -0.9771
  940MOL0     C23971   9.942   3.461   3.048  0.4046 -0.3664  0.5085
  940MOL0     O23972   9.883   3.473   3.178 -0.5698  0.4447 -0.1780
  940MOL0     C23973   9.807   3.356   3.195 -0.0716 -0.5242 -0.1196
  940MOL0     C23974   9.858   3.225   3.219  0.0156  0.1526  0.2764
  940MOL0     C23975   9.773   3.115   3.231 -0.0414 -1.1223  0.5068
  940MOL0     C23976   9.631   3.138   3.217 -0.7503 -0.2408  0.0394
  940MOL0     C23977   9.528   3.032   3.241 -0.4305 -0.4060 -1.0033
  940MOL0     O23978   9.398   3.064   3.267  0.1410  0.3945  1.0030
  940MOL0     C23979   9.296   2.973   3.306  0.2148 -0.1249  0.7411
  940MOL0     C23980   9.278   2.844   3.247  0.4549 -1.1631  0.1357
  940MOL0     C23981   9.166   2.766   3.283 -0.0993 -0.3355 -0.4741
  940MOL0     C23982   9.085   2.809   3.397 -0.3260 -0.5527  0.8659
  940MOL0     O23983   8.991   2.728   3.442  0.7047  0.3570 -0.6866
  940MOL0     C23984   9.032   2.590   3.473  0.6649 -0.3538  0.1365
  940MOL0     C23985   9.119   2.588   3.597  0.8923 -0.4842 -0.4079
  940MOL0     C23986   9.041   2.664   3.718  1.0167 -0.5969  0.9288
  940MOL0     C23987   9.123   2.630   3.849 -0.3111 -0.8248  0.2575
  940MOL0     C23988   9.138   2.482   3.883 -0.6208 -0.8328  0.1663
  940MOL0     C23989   9.002   2.399   3.878 -0.5026 -0.1438 -0.1292
  940MOL0     C23990   9.023   2.287   3.991  0.0178 -0.3668  0.6185
  940MOL0     C23991   8.907   2.196   3.992 -1.2341 -0.6014 -1.1972
  940MOL0    Cl23992   8.943   2.095   4.136 -0.1530  0.1213 -0.0107
  940MOL0     C23993   9.114   2.934   3.461  0.6606 -0.0871  0.6301
  940MOL0     C23994   9.223   3.001   3.419 -0.4832 -0.8302 -0.2712
  940MOL0     O23995   9.562   2.917   3.239 -0.3782  0.0466 -0.5664
  940MOL0     C23996   9.584   3.272   3.199 -1.6195  0.7930 -0.7326
  940MOL0     C23997   9.673   3.383   3.193  0.3890  0.1163  0.7151
  940MOL0     N23998   9.834   3.607   2.708 -0.2407 -0.3271  0.7487
  940MOL0     N23999   9.878   3.635   2.592  0.9878  0.6584  0.6268
  940MOL0     C24000   9.836   3.397   1.645 -0.3263 -0.4822  1.0756
  940MOL0     C24001   9.858   3.299   1.544  0.4660 -0.2850 -1.1673
  940MOL0     C24002   9.916   2.945   1.283  0.5436  1.1943 -0.0892
  940MOL0     C24003  10.031   2.863   1.261  0.7667  0.0971 -0.3172
  940MOL0     C24004  10.026   2.750   1.179 -1.0245  0.6809  0.5850
  940MOL0     C24005   9.899   2.708   1.135 -1.0908  0.0223  0.4264
  940MOL0     O24006   9.873   2.594   1.064 -1.0549  1.1013  0.3956
  940MOL0     C24007   9.979   2.500   1.022  0.3298 -1.5202 -0.6342
  940MOL0     C24008   9.937   2.385   0.942  0.1095  0.1473  0.1772
  940MOL0     C24009   9.857   2.277   1.017  0.0482  0.2244 -0.6705
  940MOL0     C24010   9.822   2.150   0.931 -0.9155  0.3945  0.1614
  940MOL0     C24011   9.938   2.072   0.886 -0.3748 -0.8112 -0.5487
  940MOL0     C24012  10.036   2.026   0.839 -0.9415  0.8245  0.2213
  940MOL0     C24013   9.789   2.787   1.162  0.4525  0.9276  0.1066
  940MOL0     C24014   9.799   2.911   1.224  0.0876 -0.0598  0.1502
  940MOL0     H24015   9.669   3.050   1.655  4.9838 -1.3366  0.2327
  940MOL0     H24016   9.661   3.202   1.863 -1.5523 -0.4599 -0.3370
  940MOL0     H24017   9.812   3.620   1.795 -1.3292 -3.4373 -1.3595
  940MOL0     H24018   9.938   3.533   1.890  0.5981  3.7063  0.2132
  940MOL0     H24019   9.820   3.582   2.104  2.4559  1.3884  0.1825
  940MOL0     H24020   9.693   3.671   2.000 -1.5603 -2.9278  0.5502
  940MOL0     H24021   9.884   3.810   1.922  4.6668  1.0140  0.7211
  940MOL0     H24022  10.000   3.724   2.019 -1.2304 -2.9982  1.9819
  940MOL0     H24023   9.776   3.901   2.111 -1.8111 -2.4056 -1.8923
  940MOL0     H24024   9.835   3.786   2.217  0.6265  0.4432 -0.5317
  940MOL0     H24025  10.005   4.012   2.103  0.7942 -1.5455 -1.6436
  940MOL0     H24026  10.053   3.891   2.216  0.0277 -0.0213  0.5316
  940MOL0     H24027   9.836   4.096   2.262  0.6290  2.1257  2.1815
  940MOL0     H24028  10.003   4.094   2.337 -2.5301  1.9765  2.7701
  940MOL0     H24029   9.872   4.030   2.502 -1.6230 -0.5887  1.5826
  940MOL0     H24030   9.771   3.929   2.398  0.6936 -1.7924 -0.8136
  940MOL0     H24031  10.063   3.870   2.479  1.3306 -1.0357 -0.8664
  940MOL0     H24032   9.956   3.757   2.383 -0.7741 -0.6535  1.1945
  940MOL0     H24033   9.872   3.936   2.712 -1.3332 -0.8569  4.8233
  940MOL0     H24034   9.700   3.640   2.944  3.6475 -2.1158  1.0439
  940MOL0     H24035   9.717   3.818   2.942 -3.5741 -0.7381  0.0074
  940MOL0     H24036   9.845   3.734   3.117  0.4984 -1.7625  1.0902
  940MOL0     H24037   9.954   3.802   3.007  0.1115  0.7642 -3.3709
  940MOL0     H24038  10.026   3.590   2.902  1.7925  3.0247 -0.3307
  940MOL0     H24039  10.065   3.627   3.062  1.6600 -0.6958 -3.0381
  940MOL0     H24040  10.029   3.396   3.054 -0.2583 -1.1316  2.7754
  940MOL0     H24041   9.873   3.418   2.974 -1.4237 -1.5975  2.7943
  940MOL0     H24042   9.964   3.206   3.233 -0.3918 -2.7692  0.0477
  940MOL0     H24043   9.800   3.015   3.261 -2.7457 -2.2999 -0.6220
  940MOL0     H24044   9.338   2.825   3.159  3.1258 -0.0030  1.5942
  940MOL0     H24045   9.134   2.686   3.218 -1.7715 -1.8734  2.0573
  940MOL0     H24046   9.087   2.541   3.393  1.5250  0.8023 -0.0030
  940MOL0     H24047   8.938   2.538   3.495  1.3455 -1.6688 -0.0210
  940MOL0     H24048   9.220   2.626   3.579  0.9970 -0.8486 -0.6040
  940MOL0     H24049   9.130   2.483   3.625  1.1371  0.3713  3.0781
  940MOL0     H24050   8.944   2.615   3.729  0.1562  0.8986  0.1677
  940MOL0     H24051   9.019   2.769   3.699  0.4136 -1.1922 -2.0196
  940MOL0     H24052   9.223   2.675   3.847  1.4901 -4.3591  1.4499
  940MOL0     H24053   9.071   2.686   3.928  0.7206  0.2035  0.2458
  940MOL0     H24054   9.176   2.484   3.986 -0.4797 -1.0086  0.1185
  940MOL0     H24055   9.215   2.436   3.820 -0.3385 -0.3370  0.1383
  940MOL0     H24056   8.987   2.372   3.773  0.0210  3.4885 -1.2620
  940MOL0     H24057   8.914   2.462   3.895 -0.6103 -0.0335 -1.0526
  940MOL0     H24058   9.109   2.221   3.975 -0.7201 -1.3936  0.8073
  940MOL0     H24059   9.036   2.344   4.083  1.0670 -0.7809  0.7475
  940MOL0     H24060   8.894   2.127   3.907  1.6891 -0.7673 -1.6003
  940MOL0     H24061   8.813   2.250   4.011 -1.9054 -1.6119 -1.5637
  940MOL0     H24062   9.057   2.978   3.542  1.0274  1.1185  0.2620
  940MOL0     H24063   9.231   3.097   3.469  1.6117 -0.0658 -1.9292
  940MOL0     H24064   9.476   3.278   3.194 -1.8814 -1.4883  0.6445
  940MOL0     H24065   9.646   3.487   3.178 -2.0964 -0.7222 -1.2903
  940MOL0     H24066   9.869   3.499   1.632  1.8671 -1.3272 -0.5319
  940MOL0     H24067   9.920   3.330   1.460  0.4573  1.2811 -0.6290
  940MOL0     H24068  10.128   2.904   1.283  0.9493  0.0298 -0.9605
  940MOL0     H24069  10.117   2.695   1.159 -0.9509  1.1457 -0.3734
  940MOL0     H24070  10.045   2.458   1.098  3.2550 -0.0143 -2.1372
  940MOL0     H24071  10.038   2.557   0.949 -1.0819 -0.9692 -1.3771
  940MOL0     H24072   9.871   2.420   0.862  1.6842 -0.3177 -1.3809
  940MOL0     H24073  10.022   2.331   0.901 -0.8121 -1.6911  0.5666
  940MOL0     H24074   9.770   2.313   1.072 -1.3233 -2.0585 -1.2175
  940MOL0     H24075   9.918   2.248   1.104 -4.8305  0.4930  3.2877
  940MOL0     H24076   9.756   2.083   0.987  0.2189 -2.4609 -1.7178
  940MOL0     H24077   9.765   2.182   0.843 -3.8282 -3.4271  0.3966
  940MOL0     H24078  10.128   1.986   0.803 -0.9659  0.1906  0.8524
  940MOL0     H24079   9.695   2.763   1.115  1.3429 -0.9570 -0.8457
  940MOL0     H24080   9.707   2.968   1.237  0.6192  0.7600  0.4003
  941MOL0     O24081   1.522   6.031   0.394  0.6438  0.3287  0.0767
  941MOL0     C24082   1.439   5.939   0.421  0.0888  0.4266  0.8935
  941MOL0     O24083   1.417   5.878   0.538 -0.3878  0.1020  0.2302
  941MOL0     C24084   1.446   5.933   0.657 -0.3370  0.6981  0.1649
  941MOL0     C24085   1.566   5.995   0.693 -0.3883 -0.2178 -1.8263
  941MOL0     C24086   1.587   6.045   0.821  0.5047  0.6321 -1.4616
  941MOL0     C24087   1.491   6.018   0.930 -1.5552 -0.5099 -0.6448
  941MOL0     O24088   1.529   6.070   1.055 -0.0429  0.1942 -0.0631
  941MOL0     C24089   1.443   6.035   1.162 -0.8235  0.8121 -0.2681
  941MOL0     C24090   1.487   6.099   1.294 -0.3225  0.1219  0.7484
  941MOL0     C24091   1.400   6.056   1.411  0.0346 -0.5749  0.0630
  941MOL0     C24092   1.399   6.169   1.520 -0.0834  0.1545 -0.7913
  941MOL0     C24093   1.306   6.142   1.634  0.3270 -0.1972 -0.5034
  941MOL0     C24094   1.306   6.257   1.731  0.5895 -0.3295 -0.5119
  941MOL0     C24095   1.239   6.220   1.862 -0.0893  0.3087  0.2607
  941MOL0     C24096   1.092   6.203   1.840  0.0571 -0.2945 -0.3427
  941MOL0     N24097   1.033   6.147   1.962  0.1551  0.0583  0.5852
  941MOL0     C24098   1.010   6.225   2.067  0.6724  0.6322 -1.0253
  941MOL0     C24099   0.941   6.144   2.155 -0.7626  0.2923  0.6500
  941MOL0     C24100   0.894   6.197   2.287 -0.0220  0.1355  1.1841
  941MOL0     C24101   0.956   6.117   2.411 -0.1068 -0.5392 -0.1738
  941MOL0     C24102   0.885   6.158   2.549 -0.2895  0.5262  0.2773
  941MOL0     C24103   0.959   6.285   2.608  0.3318  0.1436 -0.6725
  941MOL0     O24104   1.104   6.263   2.630 -0.3655  0.3989 -0.1182
  941MOL0     C24105   1.184   6.322   2.720 -1.0958  0.5115 -0.6662
  941MOL0     C24106   1.128   6.400   2.823  0.6378 -0.5752 -0.2601
  941MOL0     C24107   1.220   6.463   2.916  0.3051 -0.2350 -0.0618
  941MOL0     C24108   1.364   6.448   2.898  0.7392  0.2559 -1.0224
  941MOL0     C24109   1.463   6.533   2.987 -0.7322  0.3024 -0.1840
  941MOL0     O24110   1.397   6.606   3.094 -0.5735  0.5413  0.4073
  941MOL0     C24111   1.468   6.680   3.178  0.4013 -0.0934  0.2393
  941MOL0     C24112   1.544   6.790   3.139  0.3963  0.3840 -0.7839
  941MOL0     C24113   1.605   6.872   3.229 -0.7812  0.1917  0.4011
  941MOL0     C24114   1.610   6.843   3.369  0.0336 -0.4490  0.0842
  941MOL0     O24115   1.675   6.910   3.475  0.6668 -0.2081  0.4866
  941MOL0     C24116   1.683   7.051   3.465  0.6103 -0.0575  0.1594
  941MOL0     C24117   1.626   7.101   3.603  0.5969  0.2351 -0.5033
  941MOL0     C24118   1.475   7.073   3.643 -0.4872 -0.1527 -0.1862
  941MOL0     C24119   1.397   7.127   3.522 -0.1083  0.9553 -0.5081
  941MOL0     C24120   1.249   7.150   3.571  0.4986 -0.5267 -0.0200
  941MOL0     C24121   1.178   7.019   3.602  0.0383 -0.9543 -0.0519
  941MOL0     C24122   1.043   7.048   3.667 -0.0970  0.3755 -0.6308
  941MOL0     C24123   0.990   6.917   3.730  0.5848 -0.5471  0.2640
  941MOL0    Cl24124   0.809   6.944   3.773 -0.0628 -0.1454 -0.2143
  941MOL0     C24125   1.540   6.726   3.415 -0.9184  0.1117 -0.7342
  941MOL0     C24126   1.473   6.647   3.317 -0.4492  0.6737 -0.5775
  941MOL0     O24127   1.586   6.532   2.963  0.0935 -0.6226  0.1594
  941MOL0     C24128   1.410   6.376   2.794 -0.1958  0.2355 -0.3349
  941MOL0     C24129   1.325   6.307   2.709 -0.2955 -0.0888  0.7054
  941MOL0     N24130   0.917   6.024   2.098 -0.6563  0.0789 -0.2183
  941MOL0     N24131   0.982   6.025   1.976 -0.2524  0.1240 -0.3749
  941MOL0     C24132   1.368   5.962   0.894 -0.2641  0.5866 -0.6199
  941MOL0     C24133   1.353   5.914   0.762  0.2565  0.2286  0.1135
  941MOL0     C24134   1.339   5.904   0.323 -0.4419 -0.3623  0.5383
  941MOL0     C24135   1.285   5.777   0.321  0.4464 -0.7648  0.5813
  941MOL0     C24136   1.200   5.746   0.212  1.0739  0.2307 -0.5430
  941MOL0     C24137   1.168   5.834   0.112 -0.4392  0.4686 -0.7316
  941MOL0     O24138   1.086   5.799   0.007  0.2634 -0.3576  0.7387
  941MOL0     C24139   1.058   5.664  -0.020 -0.0963  0.5238 -0.8306
  941MOL0     C24140   0.977   5.632  -0.141  0.1364 -0.4135  0.4675
  941MOL0     C24141   0.893   5.759  -0.190 -0.6751  0.2838  0.4061
  941MOL0     C24142   0.763   5.788  -0.119 -0.0080  0.0985 -0.4604
  941MOL0     C24143   0.711   5.902  -0.200  0.1620  0.6732  0.4457
  941MOL0     C24144   0.666   5.999  -0.262 -0.0094  0.1350  0.1187
  941MOL0     C24145   1.219   5.961   0.117 -1.0522 -1.1579 -0.3383
  941MOL0     C24146   1.310   5.994   0.212 -0.2373  1.2176 -0.6840
  941MOL0     H24147   1.647   6.010   0.623  2.0031 -2.3647  0.2849
  941MOL0     H24148   1.682   6.096   0.830  0.2387  0.7913  0.9418
  941MOL0     H24149   1.436   5.926   1.167  0.0094  0.7670  0.0480
  941MOL0     H24150   1.343   6.079   1.151 -0.5841  1.3422 -0.3609
  941MOL0     H24151   1.462   6.205   1.279 -3.7134 -0.8434 -1.5117
  941MOL0     H24152   1.595   6.089   1.312 -0.0095  1.2074 -0.3308
  941MOL0     H24153   1.445   5.965   1.452 -2.1011 -0.4295  3.0536
  941MOL0     H24154   1.300   6.031   1.376 -0.1803 -1.2608  1.1165
  941MOL0     H24155   1.502   6.188   1.552 -0.0106 -0.0318 -0.9118
  941MOL0     H24156   1.373   6.259   1.465  0.9066  0.4549 -0.7857
  941MOL0     H24157   1.327   6.042   1.674  1.6199 -1.3742 -3.7178
  941MOL0     H24158   1.208   6.125   1.586 -0.5721 -2.8409  1.9623
  941MOL0     H24159   1.250   6.340   1.687 -0.4191 -1.9377 -2.4706
  941MOL0     H24160   1.405   6.298   1.755 -0.0421  1.1501 -0.3129
  941MOL0     H24161   1.263   6.120   1.900 -0.3075  0.3317  0.4631
  941MOL0     H24162   1.258   6.301   1.933  1.7644  1.5747 -1.5685
  941MOL0     H24163   1.085   6.125   1.763  1.2484 -0.3237 -0.4309
  941MOL0     H24164   1.043   6.297   1.814 -0.2500 -0.4683 -0.3967
  941MOL0     H24165   1.027   6.332   2.074  0.5950  0.5530  1.7591
  941MOL0     H24166   0.785   6.196   2.276  0.1377  0.2772 -0.8753
  941MOL0     H24167   0.923   6.303   2.282 -0.2501  0.2390 -4.1967
  941MOL0     H24168   1.065   6.111   2.418 -0.1737 -3.4435 -0.2540
  941MOL0     H24169   0.926   6.014   2.389  0.3295 -0.8089  0.4732
  941MOL0     H24170   0.777   6.176   2.546 -0.3474  0.2642  0.7893
  941MOL0     H24171   0.900   6.069   2.610  0.5778  0.9540  0.7146
  941MOL0     H24172   0.916   6.289   2.708  0.5316 -0.3970 -0.5594
  941MOL0     H24173   0.948   6.378   2.552 -0.1339  1.4493  1.4750
  941MOL0     H24174   1.023   6.415   2.847  1.1337 -0.7151  2.2539
  941MOL0     H24175   1.171   6.522   2.993  2.6186  1.7522  0.0150
  941MOL0     H24176   1.532   6.825   3.037  0.3327  0.3095 -0.8024
  941MOL0     H24177   1.656   6.962   3.196  0.6312 -0.7145  0.0312
  941MOL0     H24178   1.624   7.099   3.387  3.4519 -0.9878 -2.8042
  941MOL0     H24179   1.788   7.078   3.450  2.1243 -4.9562  0.1054
  941MOL0     H24180   1.659   7.205   3.608  1.2076  0.0863 -1.2475
  941MOL0     H24181   1.687   7.057   3.683 -0.1544  0.4325  0.1854
  941MOL0     H24182   1.436   7.135   3.724  0.3971  0.5861 -0.3137
  941MOL0     H24183   1.450   6.969   3.663  0.8702 -0.7489 -1.4294
  941MOL0     H24184   1.426   7.229   3.495 -1.6240  2.0162  1.6112
  941MOL0     H24185   1.411   7.053   3.442  0.3525  1.2065 -0.6615
  941MOL0     H24186   1.184   7.211   3.507 -1.4331  0.1550  2.4133
  941MOL0     H24187   1.259   7.218   3.656 -0.6199 -2.0443  1.4020
  941MOL0     H24188   1.232   6.966   3.681 -0.8328 -1.8786 -0.0480
  941MOL0     H24189   1.162   6.954   3.515  2.0921 -0.5258 -0.7906
  941MOL0     H24190   1.055   7.123   3.745  2.4182 -1.6864  1.1574
  941MOL0     H24191   0.972   7.083   3.591  0.0243 -0.4552 -1.1416
  941MOL0     H24192   1.040   6.882   3.821 -1.1761 -1.9901  0.7611
  941MOL0     H24193   1.004   6.835   3.659 -0.2443  0.7300 -1.4487
  941MOL0     H24194   1.558   6.713   3.521  0.5971  0.8547 -0.8654
  941MOL0     H24195   1.420   6.559   3.352  1.3808  0.7818  2.9393
  941MOL0     H24196   1.515   6.351   2.780 -1.2400 -5.0174 -1.1876
  941MOL0     H24197   1.379   6.258   2.629  4.4935 -1.5457  4.3185
  941MOL0     H24198   1.296   5.944   0.972  0.4773  0.5896  0.0746
  941MOL0     H24199   1.258   5.864   0.745 -1.1843  1.5487  3.4611
  941MOL0     H24200   1.306   5.703   0.398 -1.9433 -1.9873  0.1819
  941MOL0     H24201   1.177   5.642   0.190 -0.0476  1.2151 -5.1740
  941MOL0     H24202   0.999   5.638   0.069 -0.3218 -0.7220 -1.3190
  941MOL0     H24203   1.156   5.617  -0.028 -0.9909 -1.5150 -0.4900
  941MOL0     H24204   1.044   5.592  -0.218 -1.9551 -1.5733 -0.8517
  941MOL0     H24205   0.906   5.551  -0.121 -1.1101  0.4308 -0.3487
  941MOL0     H24206   0.864   5.728  -0.291 -0.7942 -1.4727  0.9417
  941MOL0     H24207   0.964   5.842  -0.195 -0.0303 -0.2637  0.2094
  941MOL0     H24208   0.680   5.717  -0.112 -1.8241  2.2889  3.5911
  941MOL0     H24209   0.775   5.824  -0.017  0.1550  3.3061 -1.5042
  941MOL0     H24210   0.632   6.090  -0.306  1.2127  0.6665  0.2329
  941MOL0     H24211   1.194   6.046   0.056  0.3230  0.1065  0.7883
  941MOL0     H24212   1.366   6.086   0.200  5.2750 -1.4807  1.0951
  942MOL0     O24213   4.573   7.338   1.053  0.8008  0.6227 -0.0913
  942MOL0     C24214   4.496   7.240   1.021  0.0673  0.3802 -0.6765
  942MOL0     O24215   4.361   7.246   1.017 -0.1132 -0.0327  0.1432
  942MOL0     C24216   4.288   7.345   1.077 -0.3707  0.4384 -0.1465
  942MOL0     C24217   4.335   7.414   1.188 -1.3678  0.1777  0.2604
  942MOL0     C24218   4.262   7.516   1.254  1.4308  0.4532  0.3376
  942MOL0     C24219   4.122   7.531   1.207 -0.0809 -0.8000  0.6155
  942MOL0     O24220   4.032   7.615   1.262  0.0725  0.0332  0.3507
  942MOL0     C24221   4.077   7.759   1.283  0.4313  0.1273  0.3110
  942MOL0     C24222   3.970   7.844   1.359  0.4242 -0.0947 -0.1158
  942MOL0     C24223   3.829   7.834   1.288 -1.2166  0.1919 -1.1909
  942MOL0     C24224   3.841   7.905   1.159 -1.1254  0.1005  0.2887
  942MOL0     C24225   3.715   7.973   1.104 -0.6763  0.2461  0.0976
  942MOL0     C24226   3.583   7.897   1.110  0.0988 -0.4813  0.5720
  942MOL0     C24227   3.566   7.805   0.982 -0.1009 -0.2481  0.5530
  942MOL0     C24228   3.502   7.892   0.863 -0.0189  0.7651  0.3156
  942MOL0     N24229   3.352   7.892   0.859 -0.7971 -0.0763  0.8356
  942MOL0     C24230   3.266   7.915   0.963  0.9018 -0.8408 -0.3114
  942MOL0     C24231   3.149   7.858   0.930 -0.1586  0.0761 -0.3635
  942MOL0     C24232   3.033   7.828   1.026  0.6689  0.1909  0.2921
  942MOL0     C24233   2.919   7.942   1.045 -0.5452 -0.2247  0.3982
  942MOL0     C24234   2.849   7.929   1.183 -0.6011 -0.9950  0.0789
  942MOL0     C24235   2.944   7.975   1.296 -0.9309 -0.2116 -0.6276
  942MOL0     O24236   3.031   8.083   1.260 -0.1222 -0.0711  0.6307
  942MOL0     C24237   3.114   8.125   1.358 -0.4150  0.7706  0.4468
  942MOL0     C24238   3.078   8.165   1.479 -0.3701  0.1986 -0.9578
  942MOL0     C24239   3.175   8.230   1.569 -0.2527 -0.2789 -0.9359
  942MOL0     C24240   3.307   8.245   1.527 -0.4703 -0.1237 -0.2497
  942MOL0     C24241   3.410   8.298   1.623 -0.0762  1.2450  1.4433
  942MOL0     O24242   3.530   8.327   1.559 -0.3996  0.7555 -0.2408
  942MOL0     C24243   3.637   8.350   1.640  0.9520 -0.2665 -1.4066
  942MOL0     C24244   3.760   8.283   1.624 -0.8574 -0.7117  0.3559
  942MOL0     C24245   3.872   8.305   1.706 -1.5951  0.1349 -0.6014
  942MOL0     C24246   3.855   8.389   1.816 -0.0969 -0.0802 -0.9005
  942MOL0     O24247   3.958   8.415   1.906  0.5348 -1.0636 -1.0795
  942MOL0     C24248   4.062   8.321   1.932 -0.0771  0.3369 -0.6619
  942MOL0     C24249   4.185   8.340   1.849  0.5590 -0.0931  0.6885
  942MOL0     C24250   4.286   8.219   1.865  0.2492 -0.1372 -0.3652
  942MOL0     C24251   4.293   8.177   2.014 -0.2642  0.0101  0.3764
  942MOL0     C24252   4.415   8.086   2.044 -0.6159  0.0371  0.1034
  942MOL0     C24253   4.486   8.105   2.177  0.5203 -0.8426 -0.7413
  942MOL0     C24254   4.607   8.017   2.191  0.0491  0.1988  0.1039
  942MOL0     C24255   4.733   8.098   2.139  0.0316  0.7838 -0.8136
  942MOL0    Cl24256   4.873   7.974   2.108  0.2461  0.2392 -0.4442
  942MOL0     C24257   3.748   8.470   1.820 -1.5117  0.3609  0.7725
  942MOL0     C24258   3.636   8.452   1.735  0.7208  0.6246  0.0586
  942MOL0     O24259   3.379   8.315   1.739  0.2255  0.0364  0.0900
  942MOL0     C24260   3.341   8.191   1.402 -0.3024 -0.1963 -0.1552
  942MOL0     C24261   3.251   8.136   1.316  0.9272 -0.7219  0.0603
  942MOL0     N24262   3.159   7.806   0.805 -1.1586 -0.6244  0.5805
  942MOL0     N24263   3.278   7.843   0.761 -0.0651 -0.1944  0.2197
  942MOL0     C24264   4.083   7.460   1.096  0.1030 -0.6807  0.2990
  942MOL0     C24265   4.164   7.369   1.025  0.3624 -0.4308 -0.3580
  942MOL0     C24266   4.549   7.103   1.022 -0.3890  0.4770  0.0028
  942MOL0     C24267   4.680   7.072   1.057  0.0371 -0.5692 -1.2499
  942MOL0     C24268   4.730   6.939   1.064 -0.1510  0.5227  0.0233
  942MOL0     C24269   4.656   6.835   1.016 -1.0756  0.2909  0.7498
  942MOL0     O24270   4.729   6.714   1.016  0.7297  0.4006  0.0867
  942MOL0     C24271   4.713   6.617   0.917  0.5436 -0.1807  0.5717
  942MOL0     C24272   4.781   6.641   0.771  0.7037  1.1653  0.7560
  942MOL0     C24273   4.937   6.615   0.781  0.7256  0.4522 -0.0718
  942MOL0     C24274   5.016   6.530   0.674 -1.1407  0.4872  0.0618
  942MOL0     C24275   4.964   6.404   0.645  0.0967 -0.5260 -0.2655
  942MOL0     C24276   4.889   6.311   0.627  0.4474  1.0102 -0.4645
  942MOL0     C24277   4.528   6.851   0.969  0.0570 -0.3599 -0.1593
  942MOL0     C24278   4.480   6.990   0.978  1.5667 -0.4352  0.2033
  942MOL0     H24279   4.434   7.387   1.226 -1.8817 -2.0153  0.1871
  942MOL0     H24280   4.288   7.588   1.331 -0.2205  2.0780 -0.5535
  942MOL0     H24281   4.089   7.809   1.186  3.6665 -4.5065 -2.0858
  942MOL0     H24282   4.166   7.774   1.344 -1.1197 -2.0335  3.3276
  942MOL0     H24283   4.006   7.947   1.364 -2.1810  1.1063 -2.6555
  942MOL0     H24284   3.968   7.808   1.462 -0.9945  1.3823  0.4276
  942MOL0     H24285   3.757   7.891   1.349 -0.7994  0.2264 -0.7236
  942MOL0     H24286   3.791   7.732   1.275 -1.5470 -0.2550  2.3080
  942MOL0     H24287   3.917   7.983   1.165 -1.4698  0.3516  1.9274
  942MOL0     H24288   3.882   7.834   1.087 -1.8981 -0.3784  0.3042
  942MOL0     H24289   3.742   8.002   1.002 -1.2370 -0.7798 -0.3534
  942MOL0     H24290   3.706   8.057   1.173 -0.9615 -1.1916  1.8848
  942MOL0     H24291   3.510   7.978   1.121 -0.4186 -1.1152  2.1363
  942MOL0     H24292   3.575   7.836   1.201 -1.2278  1.3693  1.7790
  942MOL0     H24293   3.654   7.751   0.949 -1.2542 -0.2776 -2.8615
  942MOL0     H24294   3.482   7.738   1.002 -2.3082  2.4398  1.0214
  942MOL0     H24295   3.540   7.853   0.769  2.4608 -0.0006  1.5491
  942MOL0     H24296   3.528   7.997   0.879 -0.6325  0.9468  0.1357
  942MOL0     H24297   3.290   7.956   1.061 -1.6867  0.1956 -0.0548
  942MOL0     H24298   3.063   7.782   1.120 -1.4057  4.6832  3.4863
  942MOL0     H24299   2.973   7.746   0.985 -1.1580  2.2019 -1.3119
  942MOL0     H24300   2.842   7.934   0.968 -0.5311 -3.6889  0.5812
  942MOL0     H24301   2.967   8.039   1.029  3.4074 -1.6315  2.3789
  942MOL0     H24302   2.760   7.990   1.171 -0.6344 -1.1613 -0.5613
  942MOL0     H24303   2.811   7.827   1.194  0.0138 -1.4506 -1.6746
  942MOL0     H24304   3.021   7.899   1.316  1.1990  1.3715 -2.3305
  942MOL0     H24305   2.894   7.993   1.392  1.2939  1.7218  0.2628
  942MOL0     H24306   2.974   8.167   1.509 -0.1637  2.6276 -0.1505
  942MOL0     H24307   3.147   8.266   1.667  0.0392 -1.1493 -0.5184
  942MOL0     H24308   3.775   8.209   1.546 -1.8812  0.1029 -0.6319
  942MOL0     H24309   3.966   8.255   1.683 -0.5222  2.2274 -1.0535
  942MOL0     H24310   4.020   8.221   1.918 -3.4811  1.3160  1.3708
  942MOL0     H24311   4.087   8.332   2.038 -2.7098  0.7689 -0.0233
  942MOL0     H24312   4.243   8.429   1.876  2.3773 -0.7127 -0.9647
  942MOL0     H24313   4.163   8.359   1.744  3.7259  0.4635  0.0143
  942MOL0     H24314   4.379   8.244   1.813  0.3618 -2.8992 -1.6925
  942MOL0     H24315   4.266   8.133   1.800  1.5284  0.0371 -1.0175
  942MOL0     H24316   4.306   8.258   2.086  1.9453 -0.3455  0.4438
  942MOL0     H24317   4.198   8.125   2.033  0.6118 -2.0202 -0.4668
  942MOL0     H24318   4.495   8.089   1.970  0.0279  2.2782  0.7976
  942MOL0     H24319   4.377   7.984   2.043 -0.9110  0.1144  1.3392
  942MOL0     H24320   4.411   8.084   2.253 -1.0269  2.2016 -1.2552
  942MOL0     H24321   4.507   8.212   2.187  1.2884 -1.2167  3.4048
  942MOL0     H24322   4.622   7.989   2.296 -0.4763 -1.5031 -0.2498
  942MOL0     H24323   4.600   7.922   2.136  0.2470  0.8628 -1.1008
  942MOL0     H24324   4.767   8.188   2.191  1.1167 -0.8269  1.4257
  942MOL0     H24325   4.706   8.124   2.036  1.3635 -0.2519 -1.4629
  942MOL0     H24326   3.745   8.550   1.894 -2.2480  0.5429  0.5525
  942MOL0     H24327   3.558   8.527   1.724 -0.7076 -0.6601  1.0556
  942MOL0     H24328   3.444   8.198   1.368 -0.1012  1.7637  0.7301
  942MOL0     H24329   3.289   8.107   1.219  1.7698 -0.2461  0.2389
  942MOL0     H24330   3.977   7.461   1.074 -0.2234 -2.7132  1.4644
  942MOL0     H24331   4.114   7.302   0.955 -0.8660  0.8405 -0.7464
  942MOL0     H24332   4.746   7.155   1.081 -2.6329  1.8944 -1.8636
  942MOL0     H24333   4.832   6.933   1.102 -0.0403  3.4112  0.4154
  942MOL0     H24334   4.609   6.616   0.884  0.4860  2.4785  0.4358
  942MOL0     H24335   4.747   6.521   0.957  2.3087 -0.1462 -0.7066
  942MOL0     H24336   4.736   6.585   0.689  2.6336 -0.2404  0.5988
  942MOL0     H24337   4.776   6.747   0.742  0.6235  0.2305 -3.2514
  942MOL0     H24338   4.943   6.563   0.877  0.8122  0.0493 -0.2913
  942MOL0     H24339   4.975   6.714   0.807 -2.0493  1.0333  2.2312
  942MOL0     H24340   5.024   6.581   0.577  1.9418 -1.8699 -1.0817
  942MOL0     H24341   5.115   6.504   0.712 -0.4837 -2.0051 -3.0173
  942MOL0     H24342   4.832   6.229   0.588 -2.4868  2.1880  1.0302
  942MOL0     H24343   4.470   6.767   0.933 -2.0755  0.7471  0.5037
  942MOL0     H24344   4.384   6.998   0.929  1.8381 -0.2127 -0.2994
  943MOL0     O24345   4.134   6.725   6.990 -0.0586 -0.6530 -0.2480
  943MOL0     C24346   4.257   6.685   6.983  1.2107  0.1807 -0.2217
  943MOL0     O24347   4.348   6.725   6.887 -0.4351 -0.3995  0.3389
  943MOL0     C24348   4.319   6.831   6.805 -0.3872 -0.4205  0.0677
  943MOL0     C24349   4.291   6.959   6.851  0.0470  0.4349 -1.0934
  943MOL0     C24350   4.243   7.059   6.762  0.7531 -0.2724  1.1938
  943MOL0     C24351   4.244   7.043   6.631  0.8287 -0.1903 -0.0104
  943MOL0     O24352   4.200   7.144   6.551 -0.3431  0.1939  0.7556
  943MOL0     C24353   4.231   7.144   6.404 -0.2236  0.2738 -0.8132
  943MOL0     C24354   4.129   7.240   6.339 -0.3849  0.0174 -0.5243
  943MOL0     C24355   4.154   7.243   6.186 -0.0095 -0.3317  0.2564
  943MOL0     C24356   4.036   7.289   6.103 -0.5077 -0.1088  0.2078
  943MOL0     C24357   4.053   7.314   5.956  0.0816  0.6838  0.7951
  943MOL0     C24358   3.932   7.391   5.901 -1.3462  0.4084  0.1101
  943MOL0     C24359   3.932   7.533   5.955  0.2866  0.2425  0.2857
  943MOL0     C24360   4.054   7.616   5.912 -0.3648  0.0643  0.0540
  943MOL0     N24361   4.031   7.758   5.902 -0.3388 -0.4432  0.0631
  943MOL0     C24362   4.064   7.846   6.014 -0.3924  0.0041  0.5853
  943MOL0     C24363   4.070   7.966   5.962  0.4105 -0.1577  1.3967
  943MOL0     C24364   4.081   8.090   6.045 -0.1024  0.3377 -0.0474
  943MOL0     C24365   4.186   8.183   5.992 -1.3093 -0.4122  0.0613
  943MOL0     C24366   4.209   8.301   6.088  0.2017 -0.2148  0.3286
  943MOL0     C24367   4.329   8.383   6.038  0.6172 -0.0593 -0.3613
  943MOL0     O24368   4.368   8.378   5.899  0.2723 -0.6041  0.4179
  943MOL0     C24369   4.500   8.408   5.865  0.1511 -1.0534 -0.1433
  943MOL0     C24370   4.591   8.486   5.951  0.4324  0.2028  0.3674
  943MOL0     C24371   4.716   8.530   5.891 -0.3537  0.7306 -0.6990
  943MOL0     C24372   4.760   8.491   5.761  0.4186  0.1101 -0.8906
  943MOL0     C24373   4.894   8.526   5.715 -1.0625  0.1726 -0.3121
  943MOL0     O24374   4.974   8.610   5.794 -0.1692 -0.8168 -1.1386
  943MOL0     C24375   5.062   8.692   5.719  0.3148 -0.2312 -0.2060
  943MOL0     C24376   5.004   8.785   5.624 -0.0718  1.3716  0.8073
  943MOL0     C24377   5.084   8.861   5.539  0.4024 -0.2503  0.3737
  943MOL0     C24378   5.221   8.836   5.531 -0.2546 -0.8249 -0.3234
  943MOL0     O24379   5.310   8.907   5.457  0.1605 -0.0529 -0.2048
  943MOL0     C24380   5.282   9.041   5.421 -0.6334 -0.6974  0.8749
  943MOL0     C24381   5.245   9.131   5.539 -0.1143  0.2807 -0.1196
  943MOL0     C24382   5.261   9.276   5.512 -0.5111 -0.5874 -0.3760
  943MOL0     C24383   5.147   9.341   5.433 -0.2836 -0.2590 -0.6780
  943MOL0     C24384   5.159   9.495   5.423 -0.5662 -0.7690  0.0531
  943MOL0     C24385   5.084   9.587   5.512  0.4788 -0.6667 -0.8332
  943MOL0     C24386   5.157   9.642   5.633  0.7876  0.2457 -0.0647
  943MOL0     C24387   5.060   9.712   5.733 -0.6657  0.4877  0.6181
  943MOL0    Cl24388   5.128   9.733   5.893  0.2770 -0.6447  0.1162
  943MOL0     C24389   5.286   8.752   5.620 -0.0001  0.2697  0.0201
  943MOL0     C24390   5.204   8.692   5.722 -0.1287  0.7231 -0.0475
  943MOL0     O24391   4.937   8.469   5.615 -0.2667 -0.2270  0.0193
  943MOL0     C24392   4.670   8.413   5.685 -0.0988  0.0895 -0.4358
  943MOL0     C24393   4.541   8.386   5.737 -1.4381  1.4268 -0.1200
  943MOL0     N24394   4.031   7.961   5.825 -0.7650 -0.4473 -0.6221
  943MOL0     N24395   4.010   7.831   5.789  0.4900 -0.6603 -0.1510
  943MOL0     C24396   4.286   6.925   6.585 -0.0725  0.2488  0.1040
  943MOL0     C24397   4.317   6.818   6.666  0.3010 -0.1951  0.0885
  943MOL0     C24398   4.289   6.584   7.083 -0.2593 -1.2566 -0.3230
  943MOL0     C24399   4.200   6.514   7.169 -0.2910  0.5589 -0.1251
  943MOL0     C24400   4.253   6.390   7.224 -0.1156 -0.8037 -0.3820
  943MOL0     C24401   4.391   6.363   7.225 -0.6886  0.1611  0.0026
  943MOL0     O24402   4.438   6.250   7.283  0.4632  0.4541  0.2698
  943MOL0     C24403   4.375   6.198   7.399  0.4772 -0.0356  0.6405
  943MOL0     C24404   4.476   6.093   7.457  0.8589  0.3295 -0.0551
  943MOL0     C24405   4.491   5.973   7.357 -0.5684 -0.4656 -0.4100
  943MOL0     C24406   4.369   5.884   7.342 -0.6820 -0.8866 -0.2286
  943MOL0     C24407   4.382   5.799   7.223 -0.1783 -0.3490  0.0327
  943MOL0     C24408   4.414   5.727   7.126  0.1326 -0.1356 -0.6190
  943MOL0     C24409   4.473   6.429   7.133  0.2729  0.3623 -0.4360
  943MOL0     C24410   4.416   6.537   7.071 -0.0588 -0.0689  0.2098
  943MOL0     H24411   4.283   6.979   6.957  2.0764  1.9253 -1.1826
  943MOL0     H24412   4.208   7.157   6.794  2.3438 -0.3104  3.2576
  943MOL0     H24413   4.221   7.046   6.356  0.4342  1.7535 -4.2211
  943MOL0     H24414   4.333   7.174   6.379  0.7021 -2.5998 -0.8435
  943MOL0     H24415   4.133   7.335   6.393  0.2684 -0.0929 -0.3623
  943MOL0     H24416   4.028   7.202   6.358 -1.4409  0.4662 -4.4217
  943MOL0     H24417   4.179   7.142   6.152 -1.1772 -0.1445 -1.2701
  943MOL0     H24418   4.244   7.302   6.165 -1.3322  1.4797 -0.6100
  943MOL0     H24419   3.956   7.215   6.112 -1.0813  0.2637 -1.4276
  943MOL0     H24420   4.008   7.380   6.156  4.4402  1.9918 -0.2071
  943MOL0     H24421   4.037   7.220   5.904 -0.7857  1.7438 -0.9224
  943MOL0     H24422   4.149   7.365   5.940 -0.7738  1.5904 -2.0229
  943MOL0     H24423   3.840   7.340   5.932  0.4474 -2.4538  1.1582
  943MOL0     H24424   3.926   7.405   5.793 -0.7280  1.0956  0.1582
  943MOL0     H24425   3.850   7.584   5.903  0.8408 -0.7324 -1.6368
  943MOL0     H24426   3.920   7.544   6.063 -0.8560  0.9404  0.1092
  943MOL0     H24427   4.085   7.587   5.811 -0.2078  1.7525 -0.4206
  943MOL0     H24428   4.138   7.602   5.981 -1.5089  2.5878  2.1475
  943MOL0     H24429   4.069   7.815   6.118 -0.9931 -1.1097  0.2955
  943MOL0     H24430   4.102   8.058   6.147  1.1842 -2.2416 -1.0585
  943MOL0     H24431   3.986   8.144   6.037  0.0520  0.4962 -0.8824
  943MOL0     H24432   4.145   8.213   5.896 -0.9824 -0.3652 -0.0648
  943MOL0     H24433   4.276   8.126   5.967 -2.5659 -2.4585  0.0131
  943MOL0     H24434   4.119   8.363   6.081  0.1895 -0.3840 -1.4498
  943MOL0     H24435   4.218   8.266   6.192 -2.9616  1.5866  1.3591
  943MOL0     H24436   4.411   8.344   6.098  0.3290 -1.5169 -0.8707
  943MOL0     H24437   4.315   8.488   6.066  0.2688 -0.1572 -0.1671
  943MOL0     H24438   4.573   8.502   6.057  1.5963  1.0513  0.4536
  943MOL0     H24439   4.787   8.592   5.945  1.8702 -2.6271  0.5403
  943MOL0     H24440   4.895   8.789   5.621 -0.3672 -1.8308 -3.8546
  943MOL0     H24441   5.026   8.925   5.474 -0.5042 -0.0866  1.3118
  943MOL0     H24442   5.213   9.050   5.337  3.4445  3.9768 -2.5799
  943MOL0     H24443   5.368   9.069   5.359 -2.4383 -1.9532 -2.4609
  943MOL0     H24444   5.315   9.114   5.621  1.2293  0.9874 -1.0947
  943MOL0     H24445   5.148   9.109   5.585  0.3887  2.3820  2.1976
  943MOL0     H24446   5.359   9.308   5.476 -1.1341  0.1093 -1.4949
  943MOL0     H24447   5.269   9.327   5.609 -1.3731  2.4290 -1.7955
  943MOL0     H24448   5.167   9.317   5.328 -1.6455 -2.5302 -0.4969
  943MOL0     H24449   5.049   9.304   5.465 -0.8009 -0.9499 -2.8573
  943MOL0     H24450   5.118   9.508   5.323 -1.5071 -2.6158  0.1451
  943MOL0     H24451   5.262   9.531   5.422 -0.4091 -1.2113 -0.0972
  943MOL0     H24452   4.985   9.545   5.534  0.4343 -1.2436 -2.0475
  943MOL0     H24453   5.050   9.673   5.453 -0.0449  0.2239  0.6939
  943MOL0     H24454   5.196   9.554   5.685  1.0330 -0.9351 -2.1514
  943MOL0     H24455   5.241   9.710   5.618  0.8356  0.2013 -0.0020
  943MOL0     H24456   4.967   9.656   5.748 -1.0770  0.9926  0.0125
  943MOL0     H24457   5.029   9.812   5.699 -2.0964 -1.0927 -3.2751
  943MOL0     H24458   5.395   8.754   5.624 -0.0212  2.8039  1.2522
  943MOL0     H24459   5.260   8.630   5.791 -1.8138 -0.1829  0.5629
  943MOL0     H24460   4.689   8.378   5.584 -1.5691 -1.7611 -0.1329
  943MOL0     H24461   4.472   8.330   5.675  1.8040 -1.1963 -1.6770
  943MOL0     H24462   4.267   6.896   6.483 -1.9135 -3.9069  1.4076
  943MOL0     H24463   4.347   6.730   6.610 -2.8332  0.0667 -2.2632
  943MOL0     H24464   4.095   6.540   7.171 -0.5315 -0.4237  1.1352
  943MOL0     H24465   4.183   6.335   7.286  3.3669 -2.6121  2.3338
  943MOL0     H24466   4.273   6.160   7.391 -1.2041  3.7769  2.1178
  943MOL0     H24467   4.372   6.282   7.468 -1.0846  2.7176 -2.4907
  943MOL0     H24468   4.571   6.138   7.485 -0.3870  0.8445  3.9119
  943MOL0     H24469   4.445   6.062   7.557 -0.3140  1.7775  0.0734
  943MOL0     H24470   4.575   5.915   7.397 -0.8790 -1.8691 -1.7008
  943MOL0     H24471   4.509   6.010   7.255  0.5608  3.2532  0.9825
  943MOL0     H24472   4.342   5.822   7.427  0.3974 -0.1336  0.6840
  943MOL0     H24473   4.281   5.946   7.321 -0.4067  0.0341  1.2752
  943MOL0     H24474   4.436   5.669   7.038 -0.5549 -1.6450  0.1644
  943MOL0     H24475   4.575   6.392   7.132 -0.4017 -1.6417  0.0101
  943MOL0     H24476   4.482   6.589   7.003 -0.7357 -0.6588 -0.9283
  944MOL0     O24477   0.962  10.669   7.699  0.4906 -0.8856  0.2027
  944MOL0     C24478   0.936  10.631   7.816 -0.1732  0.2317  0.5607
  944MOL0     O24479   0.841  10.690   7.897  1.1445  0.2859  0.0425
  944MOL0     C24480   0.782  10.805   7.851 -0.0147 -1.6221 -0.2230
  944MOL0     C24481   0.648  10.818   7.822  0.5094 -0.3406  0.0515
  944MOL0     C24482   0.596  10.934   7.774  1.2263  0.9992 -0.8815
  944MOL0     C24483   0.672  11.051   7.763 -0.4541  0.5243  0.7903
  944MOL0     O24484   0.624  11.175   7.740  0.6728 -0.2569 -0.3291
  944MOL0     C24485   0.512  11.191   7.656 -0.1416 -0.3020  0.0586
  944MOL0     C24486   0.559  11.261   7.522  0.3445 -0.2188 -0.0140
  944MOL0     C24487   0.448  11.276   7.417  0.1135  0.7205  1.1167
  944MOL0     C24488   0.499  11.325   7.278 -0.2758  0.7461  0.1780
  944MOL0     C24489   0.391  11.384   7.192  0.0511  0.2929  0.8936
  944MOL0     C24490   0.438  11.362   7.042  0.5263 -0.1592 -0.6310
  944MOL0     C24491   0.358  11.437   6.934  0.0872  0.8633  0.4053
  944MOL0     C24492   0.216  11.387   6.921  0.8920  0.8300 -0.6412
  944MOL0     N24493   0.120  11.453   7.010  0.1428 -0.0200 -0.5708
  944MOL0     C24494   0.111  11.595   7.024  0.2612 -0.3433 -0.6363
  944MOL0     C24495   0.025  11.602   7.133  0.5400 -0.2161 -0.2228
  944MOL0     C24496   0.007  11.719   7.218  0.1924  0.3146 -0.3310
  944MOL0     C24497   0.106  11.712   7.335  0.2967  0.2589 -1.3322
  944MOL0     C24498   0.068  11.809   7.452  0.2687  0.2111  0.2940
  944MOL0     C24499  -0.026  11.727   7.555  0.3675 -0.5949  0.4110
  944MOL0     O24500  -0.076  11.801   7.666  0.5895  0.6435 -1.0299
  944MOL0     C24501  -0.167  11.903   7.655  0.6202  0.1855  0.8152
  944MOL0     C24502  -0.197  11.987   7.769 -0.3064  0.6297  0.5978
  944MOL0     C24503  -0.286  12.095   7.755  0.2379  0.1189  0.2359
  944MOL0     C24504  -0.345  12.120   7.628 -0.3844 -0.5660  0.8507
  944MOL0     C24505  -0.420  12.243   7.601 -0.5805 -0.0181 -0.0982
  944MOL0     O24506  -0.448  12.313   7.712 -0.4426  0.3462 -0.8651
  944MOL0     C24507  -0.516  12.430   7.726 -0.7873 -0.2671  0.5025
  944MOL0     C24508  -0.564  12.449   7.854  0.1216 -0.5101 -0.1263
  944MOL0     C24509  -0.652  12.553   7.884  0.2054  0.0014  0.3756
  944MOL0     C24510  -0.674  12.652   7.787  0.0157 -0.1508 -0.9490
  944MOL0     O24511  -0.744  12.764   7.829 -0.4278  0.4162  0.0033
  944MOL0     C24512  -0.690  12.890   7.774  0.3211  0.5134  0.5223
  944MOL0     C24513  -0.718  13.019   7.853  0.6556  0.2068  0.2649
  944MOL0     C24514  -0.866  13.032   7.860  0.8542 -0.6293 -0.4111
  944MOL0     C24515  -0.920  13.170   7.907  0.0501 -0.0962  0.2849
  944MOL0     C24516  -1.068  13.183   7.953 -0.1370  0.4547  0.6325
  944MOL0     C24517  -1.095  13.150   8.102 -0.9921 -0.7988 -0.2566
  944MOL0     C24518  -1.029  13.252   8.188  0.7040  0.0907  0.3230
  944MOL0     C24519  -1.089  13.284   8.319  0.1877 -0.4442 -0.4827
  944MOL0    Cl24520  -1.098  13.128   8.409  0.2376 -0.2683 -0.0499
  944MOL0     C24521  -0.615  12.637   7.659  0.4099  0.4603  0.3489
  944MOL0     C24522  -0.544  12.525   7.632 -1.2970  0.2753 -1.0481
  944MOL0     O24523  -0.459  12.273   7.492 -0.0507  0.1187 -0.3060
  944MOL0     C24524  -0.317  12.036   7.521 -1.1756 -0.8353  0.0586
  944MOL0     C24525  -0.233  11.931   7.533  0.3804  0.6728 -0.7388
  944MOL0     N24526   0.003  11.476   7.186  0.5424 -0.3754 -0.2002
  944MOL0     N24527   0.046  11.392   7.106 -0.0705 -0.5964  0.6300
  944MOL0     C24528   0.803  11.047   7.797 -0.4747 -0.2871 -1.0175
  944MOL0     C24529   0.866  10.921   7.842  1.2342 -0.3304 -0.0508
  944MOL0     C24530   1.007  10.507   7.869  0.4195 -1.0018  0.7316
  944MOL0     C24531   0.969  10.459   7.997 -0.4113 -0.4592 -0.1202
  944MOL0     C24532   1.010  10.327   8.029 -0.4354  0.5188 -0.5279
  944MOL0     C24533   1.082  10.250   7.944 -0.8430 -0.4869 -0.8420
  944MOL0     O24534   1.101  10.127   7.992  0.8318 -0.5465  0.6247
  944MOL0     C24535   1.235  10.066   7.992  0.4917  0.2422 -0.7536
  944MOL0     C24536   1.229   9.938   8.059 -1.0967  0.5113  0.3484
  944MOL0     C24537   1.147   9.843   7.980  0.2814  0.2110  0.0788
  944MOL0     C24538   1.171   9.703   8.032 -0.1837  1.3560 -1.0330
  944MOL0     C24539   1.307   9.664   8.000  0.3324  0.8113 -0.7120
  944MOL0     C24540   1.420   9.617   7.994  0.7465  0.7451  0.2107
  944MOL0     C24541   1.129  10.299   7.826  1.1264 -0.8684 -0.1386
  944MOL0     C24542   1.087  10.427   7.785  0.4421 -0.3817 -0.5072
  944MOL0     H24543   0.577  10.739   7.845 -2.7525  2.6461  1.0622
  944MOL0     H24544   0.488  10.940   7.767  1.0424  1.0377  1.4175
  944MOL0     H24545   0.446  11.252   7.718 -0.7234 -2.3270  1.4972
  944MOL0     H24546   0.464  11.102   7.616 -1.1542  1.3293 -2.6700
  944MOL0     H24547   0.648  11.217   7.477 -0.9131  0.1014 -3.0686
  944MOL0     H24548   0.581  11.365   7.550 -4.2172  0.4722  1.9584
  944MOL0     H24549   0.380  11.355   7.450 -0.2579  0.3391  1.2756
  944MOL0     H24550   0.395  11.181   7.408 -0.1530  0.9637  0.0824
  944MOL0     H24551   0.581  11.394   7.299  1.4691 -0.9718 -0.6136
  944MOL0     H24552   0.546  11.239   7.228  0.9289  1.2558  0.3790
  944MOL0     H24553   0.382  11.491   7.217 -0.9424  0.4762 -0.1859
  944MOL0     H24554   0.294  11.338   7.212 -0.3180 -0.7071 -2.6273
  944MOL0     H24555   0.421  11.256   7.019 -1.4493  0.1200 -0.7031
  944MOL0     H24556   0.543  11.388   7.031  0.7238 -0.2317  0.9041
  944MOL0     H24557   0.355  11.545   6.954  0.3691  0.5007  2.7743
  944MOL0     H24558   0.394  11.420   6.833 -1.5276 -1.2983  0.1272
  944MOL0     H24559   0.215  11.279   6.940 -3.3151  0.6894 -0.7116
  944MOL0     H24560   0.173  11.397   6.821 -1.4692 -2.1235 -0.0769
  944MOL0     H24561   0.158  11.678   6.973  0.4073 -0.9431 -1.4967
  944MOL0     H24562  -0.094  11.718   7.259  0.8539  3.0970  1.6977
  944MOL0     H24563   0.024  11.814   7.166 -2.5576  0.7430 -0.5924
  944MOL0     H24564   0.200  11.748   7.294  2.5151 -4.0675 -0.6722
  944MOL0     H24565   0.122  11.610   7.371  0.6909 -0.6147 -3.8342
  944MOL0     H24566   0.155  11.845   7.508 -0.2818  1.0093  0.6495
  944MOL0     H24567   0.021  11.900   7.415 -0.0152  0.1160  0.4228
  944MOL0     H24568   0.004  11.626   7.581  1.6278 -0.3887 -0.1668
  944MOL0     H24569  -0.115  11.708   7.494 -0.6596  1.5963  1.1249
  944MOL0     H24570  -0.130  11.974   7.854 -0.4934 -0.7851  0.5670
  944MOL0     H24571  -0.307  12.165   7.835 -3.3472  0.8977 -1.1974
  944MOL0     H24572  -0.530  12.378   7.929 -3.0048  0.3071  2.2853
  944MOL0     H24573  -0.689  12.569   7.985  0.8377  0.7260  0.5044
  944MOL0     H24574  -0.726  12.898   7.671 -0.3714 -0.4419  0.6714
  944MOL0     H24575  -0.582  12.880   7.763  0.1329  0.3555 -1.5957
  944MOL0     H24576  -0.684  13.114   7.811 -1.8635  0.3682 -1.6606
  944MOL0     H24577  -0.675  13.012   7.953 -0.1206 -2.3361  0.4992
  944MOL0     H24578  -0.903  12.959   7.933  1.5020 -1.3723 -0.8048
  944MOL0     H24579  -0.909  13.012   7.761  1.6143 -0.0913 -0.8646
  944MOL0     H24580  -0.854  13.189   7.992 -0.6293 -1.2878  1.1197
  944MOL0     H24581  -0.887  13.251   7.842  3.4811  1.1447  3.2332
  944MOL0     H24582  -1.121  13.115   7.885  0.3849 -0.8464  1.4803
  944MOL0     H24583  -1.107  13.283   7.935 -1.6432 -0.1465  0.4398
  944MOL0     H24584  -1.051  13.052   8.122 -0.7417 -0.5217  0.6064
  944MOL0     H24585  -1.203  13.139   8.116 -0.6991 -4.1597  0.1589
  944MOL0     H24586  -0.927  13.225   8.214  1.3800  2.3763  0.2997
  944MOL0     H24587  -1.023  13.343   8.127 -0.2808 -1.2045 -1.8208
  944MOL0     H24588  -1.191  13.323   8.316 -0.6372 -2.3133  1.0862
  944MOL0     H24589  -1.023  13.349   8.377 -1.2987 -0.0258  0.8233
  944MOL0     H24590  -0.650  12.702   7.579  0.3049  0.4665  0.4005
  944MOL0     H24591  -0.508  12.513   7.530  3.0454  0.8275  0.2003
  944MOL0     H24592  -0.358  12.056   7.423 -0.6409 -2.6106 -0.5603
  944MOL0     H24593  -0.234  11.868   7.444 -2.0732  0.2741 -0.5134
  944MOL0     H24594   0.855  11.142   7.797 -1.6887  0.3954 -0.7761
  944MOL0     H24595   0.973  10.911   7.858  1.0569 -3.6486 -0.2535
  944MOL0     H24596   0.926  10.516   8.079  0.2650 -0.7094  0.4202
  944MOL0     H24597   0.987  10.287   8.127  1.3650 -1.0482 -0.6968
  944MOL0     H24598   1.301  10.136   8.045 -1.7510  2.6526 -0.9011
  944MOL0     H24599   1.259  10.065   7.885 -1.7786  2.4941 -1.3984
  944MOL0     H24600   1.331   9.902   8.069 -2.0105 -2.1353  0.9100
  944MOL0     H24601   1.184   9.952   8.158  2.4517  1.7900  1.9634
  944MOL0     H24602   1.165   9.836   7.872 -0.2969 -0.0577 -0.0058
  944MOL0     H24603   1.041   9.868   7.997 -0.1912 -1.5718 -0.0127
  944MOL0     H24604   1.154   9.700   8.140 -1.6012 -0.2611 -1.2632
  944MOL0     H24605   1.088   9.638   8.003  0.9854 -1.4757  1.5036
  944MOL0     H24606   1.521   9.587   7.974  0.5824 -0.8023  1.4829
  944MOL0     H24607   1.215  10.254   7.776  3.3823  0.5847  2.2031
  944MOL0     H24608   1.122  10.470   7.692 -0.0876  0.5981 -0.2687
  945MOL0     O24609   9.626  10.615   8.984 -0.0071 -0.2683 -0.1259
  945MOL0     C24610   9.628  10.690   9.081 -0.4616  0.0579 -0.4221
  945MOL0     O24611   9.605  10.655   9.209  0.4317 -0.9157 -0.4975
  945MOL0     C24612   9.566  10.521   9.241  0.3213 -0.7768  0.2739
  945MOL0     C24613   9.457  10.456   9.177  0.1639 -0.8565  0.5855
  945MOL0     C24614   9.424  10.323   9.195 -0.2107 -0.0047  0.1123
  945MOL0     C24615   9.504  10.254   9.279 -0.1610  0.6349 -0.2741
  945MOL0     O24616   9.475  10.116   9.276 -0.0582  0.4690  0.2115
  945MOL0     C24617   9.542  10.028   9.370  1.1142  0.2986 -0.1617
  945MOL0     C24618   9.470   9.892   9.361  0.2112 -0.8740  0.1010
  945MOL0     C24619   9.510   9.793   9.467 -0.4926  0.0200 -0.3352
  945MOL0     C24620   9.414   9.670   9.475  0.0337  0.8880  0.3722
  945MOL0     C24621   9.439   9.594   9.600  0.2504  0.0182 -0.7589
  945MOL0     C24622   9.338   9.476   9.635  0.6757  0.2199  0.1064
  945MOL0     C24623   9.338   9.356   9.539 -0.0228  0.1963  0.3661
  945MOL0     C24624   9.476   9.320   9.475 -0.0033 -0.0200 -0.6225
  945MOL0     N24625   9.569   9.263   9.573 -0.9662  0.5439  0.0877
  945MOL0     C24626   9.614   9.128   9.576  0.0202  0.1133  0.6068
  945MOL0     C24627   9.725   9.121   9.642 -0.3886 -0.3905 -0.4935
  945MOL0     C24628   9.817   9.009   9.665 -1.2656  0.1746 -0.4751
  945MOL0     C24629   9.817   8.960   9.812 -0.9786  0.2163 -1.0878
  945MOL0     C24630   9.941   8.876   9.864  0.2580  0.2169  0.3507
  945MOL0     C24631   9.974   8.765   9.758 -0.6725  0.7369 -0.0042
  945MOL0     O24632  10.082   8.694   9.825  0.2358 -0.5736  0.8257
  945MOL0     C24633  10.168   8.601   9.755 -1.3490 -0.5725 -0.0931
  945MOL0     C24634  10.136   8.544   9.632 -0.7261  0.9349 -1.4417
  945MOL0     C24635  10.226   8.445   9.588  0.1374  0.1549 -0.0874
  945MOL0     C24636  10.346   8.414   9.667  0.5200  0.4108  0.5916
  945MOL0     C24637  10.451   8.319   9.622  0.4529  0.0444  0.5416
  945MOL0     O24638  10.449   8.285   9.482  0.1938  0.4633  0.8650
  945MOL0     C24639  10.563   8.214   9.440 -0.6400  1.1266  0.4534
  945MOL0     C24640  10.680   8.284   9.409  0.4205 -0.2554  0.3118
  945MOL0     C24641  10.791   8.229   9.342  0.2117  0.6870  0.4488
  945MOL0     C24642  10.787   8.092   9.305 -0.3348  0.0553 -0.2763
  945MOL0     O24643  10.887   8.018   9.250 -0.1465 -0.3324 -0.8134
  945MOL0     C24644  11.014   8.052   9.308  0.1397  0.3888  0.7159
  945MOL0     C24645  11.109   7.932   9.309 -0.0892  0.1761 -0.2402
  945MOL0     C24646  11.162   7.910   9.167  0.8323  0.9232  0.1585
  945MOL0     C24647  11.235   7.770   9.164  0.0936 -0.0192 -0.1848
  945MOL0     C24648  11.312   7.758   9.028 -0.3630  0.2136 -0.3743
  945MOL0     C24649  11.386   7.620   9.024 -0.4683  0.3349 -0.3921
  945MOL0     C24650  11.293   7.506   9.044 -0.5184 -1.1194  0.2668
  945MOL0     C24651  11.369   7.384   9.018  0.3365  0.5575  0.7943
  945MOL0    Cl24652  11.256   7.244   9.009 -0.0046  0.3903 -0.0572
  945MOL0     C24653  10.668   8.018   9.340  0.9787 -0.4375  0.3021
  945MOL0     C24654  10.559   8.079   9.410 -1.0454  0.1565 -0.7058
  945MOL0     O24655  10.525   8.277   9.711 -0.3186  0.3859  0.1461
  945MOL0     C24656  10.364   8.479   9.791  0.4569  0.2472 -0.2382
  945MOL0     C24657  10.280   8.580   9.835 -0.0648 -0.5901  0.5332
  945MOL0     N24658   9.750   9.249   9.693 -0.1520 -0.2683  0.8135
  945MOL0     N24659   9.658   9.332   9.647  0.3977 -0.0547  0.1348
  945MOL0     C24660   9.619  10.313   9.353  1.1449  0.2393  0.4574
  945MOL0     C24661   9.634  10.450   9.332 -0.6025 -0.4435 -0.4208
  945MOL0     C24662   9.674  10.831   9.068 -0.2664 -0.1579  1.0451
  945MOL0     C24663   9.707  10.909   9.180 -0.9238  0.1979 -0.2985
  945MOL0     C24664   9.754  11.041   9.160  0.6460 -0.1534 -0.0765
  945MOL0     C24665   9.750  11.097   9.033 -0.9830 -0.4151  0.7794
  945MOL0     O24666   9.789  11.229   9.022  0.1814  1.1682 -0.9347
  945MOL0     C24667   9.755  11.312   8.912 -0.9671  0.7276  0.1733
  945MOL0     C24668   9.750  11.457   8.954  0.0111  0.3630  0.5241
  945MOL0     C24669   9.691  11.541   8.831 -1.0310 -0.4170 -0.0663
  945MOL0     C24670   9.657  11.694   8.870 -0.5201  0.4823  0.5231
  945MOL0     C24671   9.565  11.712   8.980 -0.3578 -1.0468 -0.6702
  945MOL0     C24672   9.468  11.723   9.049 -0.5105 -0.1009 -0.4564
  945MOL0     C24673   9.723  11.019   8.919 -0.6547 -0.6352  0.1217
  945MOL0     C24674   9.689  10.885   8.937 -0.1478 -0.3436  0.1923
  945MOL0     H24675   9.397  10.519   9.112  0.3783 -0.9566  0.2896
  945MOL0     H24676   9.337  10.274   9.152 -1.5691 -1.3116  3.9644
  945MOL0     H24677   9.523  10.066   9.471 -1.6778 -1.1596 -0.0529
  945MOL0     H24678   9.651  10.021   9.359  1.2149  1.9894 -0.4800
  945MOL0     H24679   9.491   9.858   9.259 -1.4451 -0.2051 -0.4887
  945MOL0     H24680   9.363   9.905   9.377  0.4254  0.6384  0.4573
  945MOL0     H24681   9.529   9.836   9.566  2.0554  0.0299 -0.7394
  945MOL0     H24682   9.611   9.755   9.448  0.1065 -0.9919  3.9064
  945MOL0     H24683   9.316   9.717   9.488 -1.2449 -1.5697  0.1040
  945MOL0     H24684   9.420   9.603   9.389 -0.3849 -0.3647  1.2937
  945MOL0     H24685   9.431   9.671   9.677  2.1072 -0.0920 -0.4126
  945MOL0     H24686   9.541   9.557   9.602  1.4607  3.1281  0.0257
  945MOL0     H24687   9.240   9.523   9.650  0.9698  0.6185  0.7716
  945MOL0     H24688   9.371   9.427   9.727  0.8482 -0.5085 -0.3330
  945MOL0     H24689   9.295   9.268   9.588 -2.8738 -0.1429 -2.3846
  945MOL0     H24690   9.263   9.377   9.462  0.9369 -1.5148 -1.0943
  945MOL0     H24691   9.516   9.416   9.441 -0.6176  0.4998  0.0884
  945MOL0     H24692   9.463   9.259   9.385  4.2743  1.3328 -2.4303
  945MOL0     H24693   9.575   9.048   9.514 -2.4832  1.0248  0.8989
  945MOL0     H24694   9.921   9.041   9.656 -0.7228  0.7297  4.7336
  945MOL0     H24695   9.793   8.923   9.602 -0.1698 -0.0217 -0.6523
  945MOL0     H24696   9.735   8.888   9.819  0.4173 -1.3070  4.4798
  945MOL0     H24697   9.806   9.038   9.888  0.8805 -1.6192  1.2340
  945MOL0     H24698  10.029   8.942   9.862  1.7844 -1.5502 -3.8580
  945MOL0     H24699   9.927   8.829   9.961  1.0997  0.0135  0.3845
  945MOL0     H24700  10.025   8.807   9.671 -0.9350  0.1324 -0.4541
  945MOL0     H24701   9.890   8.698   9.736  1.3200 -1.7612 -0.4445
  945MOL0     H24702  10.049   8.572   9.573 -0.9123  1.1221 -1.0847
  945MOL0     H24703  10.224   8.379   9.503  3.1650  1.0446 -0.9659
  945MOL0     H24704  10.675   8.390   9.429 -0.2506 -0.6208  2.3850
  945MOL0     H24705  10.865   8.293   9.296 -0.2407 -0.1536 -1.5630
  945MOL0     H24706  11.013   8.095   9.409 -1.5991 -0.7356  1.2175
  945MOL0     H24707  11.059   8.134   9.250 -0.9669 -1.0115 -2.3416
  945MOL0     H24708  11.043   7.853   9.346  1.6177 -0.2673  2.1071
  945MOL0     H24709  11.198   7.940   9.373 -0.0931 -1.3420 -0.0191
  945MOL0     H24710  11.245   7.981   9.156  0.5922  1.2789  0.5902
  945MOL0     H24711  11.079   7.921   9.098  1.1614 -1.0376 -0.5970
  945MOL0     H24712  11.309   7.749   9.242  0.8558 -2.1172 -1.3971
  945MOL0     H24713  11.148   7.705   9.176 -1.3774  1.7300 -0.8515
  945MOL0     H24714  11.379   7.843   9.010  2.3270 -2.1335 -2.5107
  945MOL0     H24715  11.238   7.761   8.948 -0.8374  1.7247  0.1003
  945MOL0     H24716  11.467   7.646   9.093 -2.1645  1.9661  1.0921
  945MOL0     H24717  11.415   7.607   8.919  1.8959 -2.3575  0.4665
  945MOL0     H24718  11.252   7.499   9.145 -0.9915  0.1142  0.1757
  945MOL0     H24719  11.214   7.514   8.969  1.8791 -1.6952 -2.5101
  945MOL0     H24720  11.452   7.375   9.089  0.7076  2.4674  0.6559
  945MOL0     H24721  11.423   7.398   8.924  1.9902  1.5010  1.8345
  945MOL0     H24722  10.668   7.913   9.310  0.4552 -0.4443  0.3213
  945MOL0     H24723  10.466   8.032   9.440 -1.1017 -1.0102 -2.5589
  945MOL0     H24724  10.463   8.465   9.833  0.7737 -2.2747 -1.6213
  945MOL0     H24725  10.277   8.621   9.935  0.1635 -0.8864  0.6639
  945MOL0     H24726   9.681  10.249   9.415 -0.3205 -0.4767  1.2408
  945MOL0     H24727   9.711  10.508   9.382  0.1723 -0.1204 -1.9287
  945MOL0     H24728   9.704  10.867   9.280  0.3730 -1.4067 -0.8865
  945MOL0     H24729   9.787  11.100   9.245  0.2632  0.3726 -0.2831
  945MOL0     H24730   9.661  11.266   8.883 -1.4218 -0.5235  3.2065
  945MOL0     H24731   9.825  11.297   8.830 -1.5735 -2.5440  0.1421
  945MOL0     H24732   9.693  11.460   9.047 -0.5876 -1.5434  0.2486
  945MOL0     H24733   9.853  11.490   8.971  0.1820 -0.5212  1.2440
  945MOL0     H24734   9.598  11.487   8.807 -0.8111 -0.6879 -0.3221
  945MOL0     H24735   9.762  11.534   8.748 -1.3334  0.3845 -0.3987
  945MOL0     H24736   9.754  11.743   8.884  0.2314 -0.4030 -1.1720
  945MOL0     H24737   9.621  11.745   8.780  5.3382 -2.4502 -4.2697
  945MOL0     H24738   9.389  11.746   9.118 -2.0161 -0.7941 -1.8803
  945MOL0     H24739   9.750  11.056   8.821 -0.3181 -3.4380 -0.9380
  945MOL0     H24740   9.666  10.829   8.847 -0.2869  0.0669 -0.0270
  946MOL0     O24741   1.119   6.090   6.131 -0.2575 -0.8227  0.3618
  946MOL0     C24742   1.180   6.096   6.235 -0.0308  0.0602  0.0117
  946MOL0     O24743   1.258   5.989   6.282  0.2220  0.6432 -0.6169
  946MOL0     C24744   1.277   5.890   6.191  0.5221  0.7478  0.2922
  946MOL0     C24745   1.167   5.807   6.160 -0.2305 -0.1119  0.0823
  946MOL0     C24746   1.184   5.697   6.076  1.0255  0.1112 -0.6014
  946MOL0     C24747   1.310   5.672   6.014  0.8569 -0.1442 -0.1009
  946MOL0     O24748   1.311   5.562   5.925 -0.0607  0.9506  0.1112
  946MOL0     C24749   1.434   5.510   5.879  0.2976  0.2321 -0.2281
  946MOL0     C24750   1.423   5.468   5.733 -0.5712 -0.0501  0.2360
  946MOL0     C24751   1.447   5.596   5.651  0.0646 -0.3593 -1.2128
  946MOL0     C24752   1.442   5.559   5.500  0.2719  0.1548 -0.1808
  946MOL0     C24753   1.531   5.646   5.403  1.0203  1.6817 -1.7991
  946MOL0     C24754   1.683   5.646   5.444  0.8657  0.0448  0.1167
  946MOL0     C24755   1.731   5.790   5.412 -0.1531  1.1441  0.3083
  946MOL0     C24756   1.879   5.799   5.419  0.3035  0.7628  0.5717
  946MOL0     N24757   1.943   5.749   5.289 -0.1911  0.0045 -0.0151
  946MOL0     C24758   2.034   5.643   5.282 -0.0063  0.2504 -0.6273
  946MOL0     C24759   2.069   5.626   5.153  0.7234 -0.6966 -0.3008
  946MOL0     C24760   2.176   5.525   5.097  0.4501 -0.4779  0.2345
  946MOL0     C24761   2.199   5.538   4.946  0.2307 -0.4195 -0.3387
  946MOL0     C24762   2.248   5.404   4.891  0.4929  0.1163 -0.6391
  946MOL0     C24763   2.288   5.413   4.741  0.4099 -0.0940 -0.1644
  946MOL0     O24764   2.171   5.435   4.658 -0.1078 -0.7294  0.4111
  946MOL0     C24765   2.130   5.319   4.602 -0.1628 -0.3441  0.6816
  946MOL0     C24766   2.215   5.243   4.510 -0.0556  0.5497 -0.0566
  946MOL0     C24767   2.173   5.126   4.449 -1.2825  0.1119  0.5258
  946MOL0     C24768   2.044   5.082   4.472 -0.2948 -0.2174 -0.4248
  946MOL0     C24769   2.008   4.962   4.403  0.6385 -0.7099  0.3192
  946MOL0     O24770   2.114   4.883   4.363 -0.0005  0.7285  0.2799
  946MOL0     C24771   2.074   4.777   4.286 -0.3953  0.3298  0.1234
  946MOL0     C24772   2.028   4.795   4.151  0.5724 -0.1461 -0.6407
  946MOL0     C24773   1.983   4.684   4.077 -0.7249 -0.6123 -0.4763
  946MOL0     C24774   1.999   4.552   4.129 -0.4961 -0.4779 -0.5033
  946MOL0     O24775   1.957   4.444   4.053 -0.4989 -0.2247 -0.1261
  946MOL0     C24776   1.878   4.342   4.111  1.1020 -0.3817  0.2272
  946MOL0     C24777   1.905   4.205   4.054 -0.0646  0.1317 -0.3890
  946MOL0     C24778   2.051   4.165   4.095  1.5338 -1.0544  0.9736
  946MOL0     C24779   2.111   4.049   4.026 -0.1181  0.6243 -0.7175
  946MOL0     C24780   2.261   4.039   4.069  0.1112 -0.3300  0.0397
  946MOL0     C24781   2.337   3.935   3.982 -0.6981  0.4201  0.2343
  946MOL0     C24782   2.364   3.975   3.838 -0.3444  0.4323 -0.4480
  946MOL0     C24783   2.403   3.860   3.745  0.3960  0.1599 -0.0762
  946MOL0    Cl24784   2.550   3.798   3.802 -0.4954  0.0779 -0.1157
  946MOL0     C24785   2.046   4.534   4.271 -0.6895 -0.8210 -0.7369
  946MOL0     C24786   2.093   4.649   4.335  0.2593 -0.8294  0.2579
  946MOL0     O24787   1.889   4.941   4.386 -0.7004  0.1045  0.1381
  946MOL0     C24788   1.951   5.162   4.559 -0.2599  0.8367  1.0798
  946MOL0     C24789   1.994   5.287   4.619 -0.1019  0.5924  0.7336
  946MOL0     N24790   2.009   5.735   5.087  0.2506 -0.4210  0.6551
  946MOL0     N24791   1.929   5.807   5.161  0.2186  0.0638 -0.0757
  946MOL0     C24792   1.420   5.763   6.040  0.5438 -0.1734  0.6116
  946MOL0     C24793   1.398   5.870   6.128  0.1465  0.4909 -0.4346
  946MOL0     C24794   1.152   6.215   6.317 -0.7043  0.2046 -0.2457
  946MOL0     C24795   1.151   6.203   6.460 -0.9858 -1.2939  0.4221
  946MOL0     C24796   1.126   6.320   6.532  0.2573 -0.5873  0.3372
  946MOL0     C24797   1.106   6.445   6.469 -0.2636 -1.0534 -0.3603
  946MOL0     O24798   1.103   6.562   6.549 -0.4385 -0.3901  0.7673
  946MOL0     C24799   1.113   6.684   6.471 -0.6237  0.0971 -0.2362
  946MOL0     C24800   1.090   6.805   6.562  0.7930 -0.3146  0.2844
  946MOL0     C24801   1.102   6.940   6.488  0.6591  0.0918  0.2000
  946MOL0     C24802   1.077   7.059   6.578  0.1728  0.4801  0.1581
  946MOL0     C24803   0.934   7.063   6.617  0.8787 -0.2120  0.7289
  946MOL0     C24804   0.817   7.054   6.657 -0.1704  0.2298 -0.4164
  946MOL0     C24805   1.106   6.447   6.324 -0.4144  0.6598 -0.6312
  946MOL0     C24806   1.120   6.341   6.250  0.3275  0.4824 -0.7729
  946MOL0     H24807   1.068   5.831   6.196  0.4349  0.8303  1.3767
  946MOL0     H24808   1.095   5.651   6.034 -0.0187  1.2512  0.2761
  946MOL0     H24809   1.451   5.420   5.939  0.8031  0.7294  0.3873
  946MOL0     H24810   1.517   5.577   5.900 -1.2413  2.1301  0.0756
  946MOL0     H24811   1.318   5.439   5.717 -1.8404  2.7087  2.7522
  946MOL0     H24812   1.497   5.390   5.713 -1.9874 -0.9492 -1.8677
  946MOL0     H24813   1.546   5.634   5.677 -0.6426  0.2829  0.6885
  946MOL0     H24814   1.367   5.662   5.685 -1.2359 -3.1623  1.7671
  946MOL0     H24815   1.462   5.452   5.493  5.9607  0.8499  0.3844
  946MOL0     H24816   1.340   5.577   5.467 -0.2157 -0.2731  1.0519
  946MOL0     H24817   1.491   5.747   5.415  2.0311  1.8742  0.4765
  946MOL0     H24818   1.517   5.601   5.304 -2.6475  1.7165 -1.4301
  946MOL0     H24819   1.729   5.570   5.381  0.6530 -0.1529  0.1955
  946MOL0     H24820   1.705   5.626   5.549 -0.2572  0.7175  0.4982
  946MOL0     H24821   1.714   5.817   5.308  1.4403  1.8989  0.2091
  946MOL0     H24822   1.669   5.856   5.473 -1.2074 -0.6403  1.2697
  946MOL0     H24823   1.900   5.743   5.510 -2.6326  1.3186  1.7078
  946MOL0     H24824   1.916   5.901   5.432 -1.2390  1.3591  0.5185
  946MOL0     H24825   2.067   5.588   5.369  1.7647  1.7221 -0.3062
  946MOL0     H24826   2.146   5.426   5.131 -2.0247  0.7581  1.9126
  946MOL0     H24827   2.270   5.557   5.144 -0.7864  1.7682  1.3516
  946MOL0     H24828   2.270   5.618   4.923  1.7369 -1.9447 -1.2332
  946MOL0     H24829   2.101   5.561   4.902 -1.0878  1.8142  3.2887
  946MOL0     H24830   2.335   5.381   4.954  0.3592 -2.6051 -1.3112
  946MOL0     H24831   2.175   5.325   4.909 -2.3411  2.1451 -2.4426
  946MOL0     H24832   2.349   5.326   4.715  0.3549 -0.3866  0.6776
  946MOL0     H24833   2.356   5.498   4.735 -0.0187  0.1932 -1.4213
  946MOL0     H24834   2.314   5.285   4.494 -0.7051  1.9918 -0.5224
  946MOL0     H24835   2.239   5.070   4.384 -2.8006 -1.8035  0.5384
  946MOL0     H24836   2.019   4.896   4.113  0.1758  0.3691  0.7662
  946MOL0     H24837   1.967   4.718   3.976  0.7552  1.0753 -0.1862
  946MOL0     H24838   1.774   4.371   4.092  1.7331 -0.3133 -4.0599
  946MOL0     H24839   1.883   4.343   4.220 -3.7907  1.8305  0.6983
  946MOL0     H24840   1.888   4.215   3.947  0.7073 -0.7656 -0.6089
  946MOL0     H24841   1.826   4.139   4.092 -1.6953  0.0358 -3.6231
  946MOL0     H24842   2.066   4.163   4.204  2.2899  1.1284  0.9593
  946MOL0     H24843   2.115   4.249   4.064 -0.3804 -0.2962 -1.1743
  946MOL0     H24844   2.067   3.955   4.061  3.3804 -1.4807 -1.4109
  946MOL0     H24845   2.097   4.045   3.917  1.5893 -1.2092 -0.9503
  946MOL0     H24846   2.255   4.013   4.175 -2.8389 -1.5922 -0.3342
  946MOL0     H24847   2.314   4.134   4.067 -0.7765  0.2415  1.6592
  946MOL0     H24848   2.285   3.839   3.984 -0.7510  0.3644 -1.6340
  946MOL0     H24849   2.436   3.914   4.022 -0.6906  0.2512  0.1280
  946MOL0     H24850   2.279   4.034   3.802 -1.6711  0.2603  2.1666
  946MOL0     H24851   2.436   4.058   3.835 -0.8191  0.8723 -3.5577
  946MOL0     H24852   2.412   3.903   3.645  4.8113  1.2324  0.6031
  946MOL0     H24853   2.328   3.780   3.757  0.9878 -0.8698 -2.6643
  946MOL0     H24854   2.038   4.439   4.322  1.7309 -1.2595 -1.0546
  946MOL0     H24855   2.141   4.632   4.431  1.2645  1.7863  0.2741
  946MOL0     H24856   1.850   5.133   4.585  0.7217 -1.9789  2.1607
  946MOL0     H24857   1.941   5.352   4.687 -2.2547 -1.7226  1.4282
  946MOL0     H24858   1.516   5.750   5.991  0.4990  0.2718  0.4013
  946MOL0     H24859   1.480   5.933   6.163 -0.4287  1.3403 -0.5932
  946MOL0     H24860   1.160   6.105   6.506 -4.5561 -2.3446 -0.7647
  946MOL0     H24861   1.125   6.323   6.640 -1.4892 -0.7260  0.3628
  946MOL0     H24862   1.027   6.699   6.406 -1.8154 -0.0241  1.2522
  946MOL0     H24863   1.210   6.687   6.420  0.4691  1.8510  1.7898
  946MOL0     H24864   0.990   6.791   6.604  0.2924  2.2935  0.1279
  946MOL0     H24865   1.157   6.815   6.648  0.2005 -0.3556  0.7538
  946MOL0     H24866   1.030   6.935   6.405  0.8568 -3.1753  0.0976
  946MOL0     H24867   1.202   6.945   6.444  0.9750 -2.3023  0.5263
  946MOL0     H24868   1.133   7.046   6.671  0.6258 -2.6508 -0.4489
  946MOL0     H24869   1.107   7.151   6.526  1.3277  1.2319  2.0116
  946MOL0     H24870   0.715   7.049   6.691 -0.3803  0.8237 -0.9447
  946MOL0     H24871   1.097   6.540   6.270  2.6023  1.7279  0.5420
  946MOL0     H24872   1.104   6.350   6.143 -0.3094  0.0327 -0.7230
  947MOL0     O24873   1.071   9.184   5.051  0.3753 -0.0143 -0.0433
  947MOL0     C24874   1.088   9.062   5.056 -0.3669 -0.3954  0.4058
  947MOL0     O24875   1.201   8.996   5.011 -0.4830 -0.3463  0.3802
  947MOL0     C24876   1.298   9.053   4.925  0.0815  0.2171  0.1904
  947MOL0     C24877   1.430   9.016   4.954 -0.4468  0.1594  0.6257
  947MOL0     C24878   1.537   9.076   4.876 -0.1113 -0.5586 -1.1282
  947MOL0     C24879   1.505   9.159   4.768  0.7881 -0.4993  0.5149
  947MOL0     O24880   1.585   9.216   4.679 -0.5772 -0.1584  0.9235
  947MOL0     C24881   1.720   9.246   4.728 -0.2463 -0.5277  1.0052
  947MOL0     C24882   1.797   9.339   4.630  0.8332  0.4079 -0.1532
  947MOL0     C24883   1.946   9.356   4.655  0.1091  0.1024 -0.0090
  947MOL0     C24884   2.007   9.459   4.564 -0.3231  0.2984 -0.5952
  947MOL0     C24885   2.153   9.482   4.614 -0.8161 -0.1503  0.2136
  947MOL0     C24886   2.199   9.625   4.576 -0.6332 -0.1080 -0.2443
  947MOL0     C24887   2.324   9.678   4.652 -0.1827  0.3082 -0.2433
  947MOL0     C24888   2.307   9.820   4.714 -0.4601  0.4981 -0.5179
  947MOL0     N24889   2.424   9.873   4.788 -0.1633  0.8750 -0.2726
  947MOL0     C24890   2.508   9.982   4.764  0.1415  0.0317  0.7585
  947MOL0     C24891   2.576   9.996   4.874 -0.4929 -0.1610 -0.0025
  947MOL0     C24892   2.703  10.083   4.873  0.5776  1.0211  0.7773
  947MOL0     C24893   2.713  10.155   5.001  0.2566 -1.2957  0.9845
  947MOL0     C24894   2.853  10.230   5.013 -0.4879  0.1415 -1.0694
  947MOL0     C24895   2.971  10.136   5.064  0.3240 -0.2717  0.1945
  947MOL0     O24896   3.002  10.164   5.206  0.7390 -1.0919  0.0061
  947MOL0     C24897   2.894  10.126   5.281 -0.1482 -0.0291  0.1322
  947MOL0     C24898   2.872   9.988   5.300 -0.2401 -0.0209  0.1452
  947MOL0     C24899   2.766   9.930   5.381  0.8589  0.0663 -0.3024
  947MOL0     C24900   2.678  10.022   5.446 -1.2121  0.2557 -0.3977
  947MOL0     C24901   2.556   9.974   5.513  0.2285 -0.3739 -0.5174
  947MOL0     O24902   2.542   9.836   5.493 -0.2061 -0.4522  0.1357
  947MOL0     C24903   2.449   9.779   5.559  0.9644 -0.2058  0.6184
  947MOL0     C24904   2.408   9.801   5.691 -0.2204 -1.2860  0.6118
  947MOL0     C24905   2.305   9.739   5.754 -0.2250  0.1461  0.5411
  947MOL0     C24906   2.230   9.643   5.694  0.1977 -1.2045 -0.5786
  947MOL0     O24907   2.118   9.572   5.739 -0.2980  0.1823 -1.1233
  947MOL0     C24908   2.111   9.556   5.878  0.1027  0.0924 -0.3209
  947MOL0     C24909   2.001   9.465   5.925 -0.3823 -0.1249 -0.4602
  947MOL0     C24910   1.966   9.484   6.077 -0.4356  0.2820 -0.5609
  947MOL0     C24911   2.075   9.423   6.165  1.2848 -0.1326 -0.2794
  947MOL0     C24912   2.082   9.480   6.307 -0.3010 -0.0772  0.2905
  947MOL0     C24913   2.102   9.630   6.308  0.4570 -0.4862  0.9198
  947MOL0     C24914   2.156   9.675   6.442 -0.4981 -0.0964  0.3696
  947MOL0     C24915   2.210   9.825   6.442  0.6169 -0.0859 -0.7500
  947MOL0    Cl24916   2.337   9.843   6.320 -0.3674 -0.4567 -0.0070
  947MOL0     C24917   2.278   9.619   5.560  0.2071 -0.2178  0.2392
  947MOL0     C24918   2.381   9.679   5.493  0.3750 -0.3287 -0.5067
  947MOL0     O24919   2.495  10.048   5.590 -0.0175  0.8562  0.1706
  947MOL0     C24920   2.706  10.162   5.434  0.1859  0.3246  0.0040
  947MOL0     C24921   2.809  10.216   5.348 -0.1384  0.7137  0.6406
  947MOL0     N24922   2.559   9.890   4.957 -0.1798 -0.5185 -0.8134
  947MOL0     N24923   2.460   9.820   4.910 -0.6371 -0.3206 -0.6834
  947MOL0     C24924   1.362   9.169   4.733 -0.0667  0.2180 -0.1041
  947MOL0     C24925   1.267   9.129   4.811  1.2728  0.2009 -0.3879
  947MOL0     C24926   0.992   8.985   5.134  0.4321 -0.7443  0.6047
  947MOL0     C24927   1.040   8.886   5.215 -0.4841  0.5343  0.7812
  947MOL0     C24928   0.950   8.815   5.300  0.3188 -0.7676  0.4797
  947MOL0     C24929   0.815   8.848   5.310  1.0455 -0.0796 -0.0850
  947MOL0     O24930   0.743   8.806   5.413  0.0158 -0.3992 -0.2220
  947MOL0     C24931   0.609   8.771   5.384  0.3943 -0.2152  0.4674
  947MOL0     C24932   0.525   8.801   5.509  0.1049  0.0570 -0.5442
  947MOL0     C24933   0.508   8.945   5.545 -0.5247 -0.2483 -0.2004
  947MOL0     C24934   0.372   8.969   5.618  0.5185  0.6509  0.3268
  947MOL0     C24935   0.321   9.110   5.616 -0.2150  0.8932 -0.0292
  947MOL0     C24936   0.278   9.222   5.599  0.3471 -0.1028  0.2551
  947MOL0     C24937   0.766   8.958   5.225  0.4333  0.5189  0.1789
  947MOL0     C24938   0.851   9.012   5.134 -0.7762 -0.5647 -0.0685
  947MOL0     H24939   1.439   8.950   5.039 -0.9700 -1.3320 -0.4362
  947MOL0     H24940   1.640   9.058   4.904 -0.6589 -2.4182 -0.1421
  947MOL0     H24941   1.770   9.151   4.748  0.1240 -0.6751 -0.4984
  947MOL0     H24942   1.711   9.305   4.819 -2.8474  1.2407 -0.2848
  947MOL0     H24943   1.731   9.426   4.627 -0.3028 -0.4444 -0.5854
  947MOL0     H24944   1.783   9.300   4.529  0.4541  0.0122  0.0472
  947MOL0     H24945   2.000   9.263   4.633 -2.2818 -1.1497 -1.0090
  947MOL0     H24946   1.956   9.376   4.762 -1.5123  2.5046 -0.2451
  947MOL0     H24947   2.006   9.419   4.462 -0.9601 -2.2732  0.3302
  947MOL0     H24948   1.954   9.553   4.581  1.6085  1.0411  2.1275
  947MOL0     H24949   2.220   9.408   4.572  0.4119 -0.3787  2.4338
  947MOL0     H24950   2.172   9.464   4.720 -0.4505  0.5111  0.2650
  947MOL0     H24951   2.120   9.700   4.588  0.6765  1.4823 -1.1335
  947MOL0     H24952   2.219   9.625   4.468  0.0761  3.3121 -0.2366
  947MOL0     H24953   2.349   9.598   4.723  4.0186  0.5289 -1.2393
  947MOL0     H24954   2.405   9.697   4.582  0.6603  0.7757  0.8342
  947MOL0     H24955   2.218   9.827   4.776 -0.8422 -0.9431 -0.8619
  947MOL0     H24956   2.295   9.888   4.629  0.3253  0.8342 -0.3711
  947MOL0     H24957   2.505  10.046   4.676  0.2038  1.9733  2.0981
  947MOL0     H24958   2.718  10.163   4.800  1.4566  0.8288  0.7318
  947MOL0     H24959   2.792  10.020   4.865  0.5396  0.9611  0.8307
  947MOL0     H24960   2.691  10.089   5.086  1.2454  0.7765  2.9768
  947MOL0     H24961   2.641  10.236   4.994  1.9306  0.1496 -0.5217
  947MOL0     H24962   2.886  10.284   4.923 -1.6642  3.8150  0.4896
  947MOL0     H24963   2.833  10.303   5.092 -0.3577 -2.7833  1.8698
  947MOL0     H24964   3.056  10.147   4.995 -0.4605 -0.1108 -0.7759
  947MOL0     H24965   2.950  10.030   5.054 -0.7071 -0.5307  3.7439
  947MOL0     H24966   2.934   9.910   5.257 -2.4405 -2.6577  1.4123
  947MOL0     H24967   2.759   9.821   5.378  0.9274  0.0796 -2.8511
  947MOL0     H24968   2.441   9.883   5.753  1.3114 -1.0932 -0.3943
  947MOL0     H24969   2.278   9.792   5.846 -1.3476  1.0162 -0.2603
  947MOL0     H24970   2.095   9.655   5.922 -1.4705 -0.2476 -0.0479
  947MOL0     H24971   2.209   9.517   5.905 -0.0544  0.8390  1.5092
  947MOL0     H24972   2.022   9.358   5.915  1.2246  0.0924  0.1989
  947MOL0     H24973   1.914   9.504   5.873  0.5422  4.8134  1.1551
  947MOL0     H24974   1.866   9.441   6.089  0.2402 -2.3700 -3.3418
  947MOL0     H24975   1.960   9.591   6.098  0.9095  0.4875 -1.1112
  947MOL0     H24976   2.062   9.317   6.188 -0.5720  0.2326  0.5120
  947MOL0     H24977   2.175   9.444   6.125  0.3913 -0.2906 -2.7402
  947MOL0     H24978   2.167   9.432   6.356 -0.1486 -1.3431 -1.1408
  947MOL0     H24979   1.998   9.435   6.361 -0.0611 -4.6169 -2.6732
  947MOL0     H24980   2.006   9.679   6.289  0.6791 -1.2899 -2.9117
  947MOL0     H24981   2.174   9.653   6.229 -1.6239  0.8775 -0.6802
  947MOL0     H24982   2.074   9.665   6.513 -1.5918  0.0816 -0.8273
  947MOL0     H24983   2.243   9.619   6.477  0.4159  0.2229 -1.2675
  947MOL0     H24984   2.255   9.839   6.540 -2.4241  0.6842  0.6462
  947MOL0     H24985   2.142   9.905   6.413 -2.0607 -1.7640  0.4892
  947MOL0     H24986   2.232   9.543   5.498  0.0909 -1.1112  1.3810
  947MOL0     H24987   2.408   9.645   5.393 -1.2991 -0.2674 -1.0011
  947MOL0     H24988   2.644  10.226   5.496 -2.1446 -1.6436 -0.1905
  947MOL0     H24989   2.824  10.323   5.344  1.2602  0.4859 -1.4568
  947MOL0     H24990   1.339   9.228   4.646  0.6600  0.4202 -0.1687
  947MOL0     H24991   1.164   9.153   4.789  1.5708  0.1877 -1.9024
  947MOL0     H24992   1.141   8.848   5.229 -0.6155  0.0866  0.5290
  947MOL0     H24993   0.977   8.751   5.383 -0.1981 -0.0630  1.2072
  947MOL0     H24994   0.604   8.662   5.377  0.3360 -0.1152 -1.6701
  947MOL0     H24995   0.567   8.813   5.293 -0.7462 -2.4676 -0.1114
  947MOL0     H24996   0.438   8.735   5.507  0.0272  0.0586  1.0515
  947MOL0     H24997   0.579   8.769   5.599 -1.4138 -0.5346  0.2019
  947MOL0     H24998   0.500   9.006   5.454  3.8565 -0.8833 -1.2399
  947MOL0     H24999   0.588   8.991   5.603  0.4660 -1.0591 -0.8999
  947MOL0     H25000   0.286   8.921   5.570  0.1280 -0.4114  1.9987
  947MOL0     H25001   0.371   8.929   5.720 -1.1237  0.6512  0.3398
  947MOL0     H25002   0.258   9.325   5.580  3.9091  0.5345 -0.7507
  947MOL0     H25003   0.661   8.986   5.235  0.8238  1.7255  1.1908
  947MOL0     H25004   0.813   9.093   5.073 -2.6888 -0.6783  0.8773
  948MOL0     O25005   8.906   0.195   8.726 -0.1390 -0.3485 -0.2612
  948MOL0     C25006   8.812   0.122   8.678 -0.8665 -0.3206  0.8598
  948MOL0     O25007   8.700   0.177   8.627 -0.5291  0.5314 -0.0531
  948MOL0     C25008   8.668   0.314   8.630 -0.9622  1.0368 -1.1366
  948MOL0     C25009   8.754   0.415   8.597 -0.0558 -0.0771 -0.4313
  948MOL0     C25010   8.732   0.554   8.621  1.1376 -0.5560  0.0026
  948MOL0     C25011   8.611   0.581   8.690  0.2124  0.4446 -0.1749
  948MOL0     O25012   8.560   0.705   8.724  0.5167  0.7808  0.1907
  948MOL0     C25013   8.603   0.828   8.670 -0.1915 -0.0765  0.6548
  948MOL0     C25014   8.745   0.867   8.725  0.2491  0.8331 -0.3632
  948MOL0     C25015   8.767   1.013   8.688  0.0489  0.4469 -0.2165
  948MOL0     C25016   8.915   1.050   8.726  0.9177 -0.1167 -0.4767
  948MOL0     C25017   8.940   1.200   8.748 -0.0136 -0.4847 -0.7655
  948MOL0     C25018   9.087   1.232   8.774  0.4146 -0.4691 -0.2011
  948MOL0     C25019   9.081   1.384   8.800 -0.2751 -0.0501  0.2197
  948MOL0     C25020   9.223   1.435   8.852 -0.7971 -0.3712  0.6921
  948MOL0     N25021   9.254   1.377   8.979 -0.7477 -0.0934  0.4283
  948MOL0     C25022   9.330   1.265   8.992  0.2874  0.3598  0.4150
  948MOL0     C25023   9.375   1.255   9.114  0.3018  0.6144  0.5485
  948MOL0     C25024   9.468   1.145   9.155  0.2504  0.1555  0.1759
  948MOL0     C25025   9.407   1.062   9.272  0.5292  0.3465 -0.2541
  948MOL0     C25026   9.285   0.983   9.237  0.5952 -0.1783 -0.9991
  948MOL0     C25027   9.301   0.875   9.130 -0.7752 -0.5995 -0.6491
  948MOL0     O25028   9.274   0.910   8.999  0.0117  1.2440  0.5568
  948MOL0     C25029   9.264   0.810   8.909  0.1336  0.4615 -0.8515
  948MOL0     C25030   9.333   0.681   8.930  1.0991  0.0718  0.3836
  948MOL0     C25031   9.312   0.582   8.827  0.7504 -0.1366  0.0818
  948MOL0     C25032   9.246   0.608   8.706  0.0305  0.1743  0.2692
  948MOL0     C25033   9.227   0.509   8.606  0.6956 -0.3913  0.6172
  948MOL0     O25034   9.213   0.563   8.478 -0.6463  0.3538 -0.0213
  948MOL0     C25035   9.227   0.473   8.373 -0.8328  0.2722 -0.6861
  948MOL0     C25036   9.297   0.518   8.265  0.0907  0.0717  0.6687
  948MOL0     C25037   9.298   0.445   8.147 -1.4557  0.2706  0.0176
  948MOL0     C25038   9.244   0.317   8.138  0.1081  0.8407  0.8233
  948MOL0     O25039   9.264   0.246   8.020  0.3898 -0.3726  0.2283
  948MOL0     C25040   9.174   0.293   7.915  0.4146 -0.2371 -0.3724
  948MOL0     C25041   9.157   0.194   7.802 -0.3249 -0.9429  0.0317
  948MOL0     C25042   9.064   0.072   7.835 -0.3562 -0.4565 -0.2818
  948MOL0     C25043   9.134  -0.028   7.924 -0.7204  0.1558 -0.5309
  948MOL0     C25044   9.048  -0.155   7.948  0.7895 -0.0122  0.1210
  948MOL0     C25045   9.127  -0.235   8.054 -0.9997  0.8710 -0.4379
  948MOL0     C25046   9.045  -0.355   8.093 -0.3295 -0.1764  0.2569
  948MOL0     C25047   9.073  -0.415   8.234  0.7329 -0.0938  0.3531
  948MOL0    Cl25048   9.220  -0.504   8.246 -0.1354 -0.1274 -0.0695
  948MOL0     C25049   9.178   0.263   8.252  1.7449  0.0982 -1.0399
  948MOL0     C25050   9.177   0.340   8.369 -1.1288  0.3809  0.2327
  948MOL0     O25051   9.251   0.394   8.629 -0.4279 -0.2735 -0.0587
  948MOL0     C25052   9.170   0.728   8.689 -0.0061  0.7471 -0.2720
  948MOL0     C25053   9.184   0.830   8.788  0.3446 -0.3347 -0.6709
  948MOL0     N25054   9.328   1.361   9.184 -0.0737  0.5652 -0.1800
  948MOL0     N25055   9.251   1.441   9.106  0.2028  0.3230 -0.4657
  948MOL0     C25056   8.526   0.477   8.727  0.2451 -0.8365 -0.3424
  948MOL0     C25057   8.551   0.345   8.698  0.0055 -0.7394 -0.2564
  948MOL0     C25058   8.852  -0.017   8.652 -0.5052 -0.5997  0.0151
  948MOL0     C25059   8.802  -0.091   8.544  0.2669  0.0380 -0.3175
  948MOL0     C25060   8.841  -0.227   8.520 -0.0851  0.2334  0.0870
  948MOL0     C25061   8.934  -0.291   8.598  0.4177 -0.2748  0.0989
  948MOL0     O25062   8.986  -0.406   8.563 -0.3194  0.2340 -0.1390
  948MOL0     C25063   9.105  -0.464   8.612 -0.3760 -0.1586 -0.0128
  948MOL0     C25064   9.078  -0.535   8.748  0.2684  0.1834 -0.8161
  948MOL0     C25065   9.206  -0.524   8.838  0.3032 -0.0686  0.2839
  948MOL0     C25066   9.194  -0.617   8.959  1.4649 -0.0760  0.1095
  948MOL0     C25067   9.298  -0.584   9.065  0.5229 -0.0291 -0.5302
  948MOL0     C25068   9.362  -0.570   9.173  0.1613 -0.1272  0.1563
  948MOL0     C25069   8.972  -0.218   8.713 -0.3006 -0.7340 -0.1795
  948MOL0     C25070   8.945  -0.082   8.734  1.2572  0.0561 -0.3901
  948MOL0     H25071   8.845   0.391   8.542  0.0280 -2.2587  0.5734
  948MOL0     H25072   8.807   0.626   8.588  3.8310 -3.2927 -0.3095
  948MOL0     H25073   8.535   0.913   8.677  0.3220  0.2407  2.2214
  948MOL0     H25074   8.604   0.812   8.561 -1.5750  3.2228  0.0451
  948MOL0     H25075   8.825   0.815   8.673 -0.2537  3.0112 -3.5970
  948MOL0     H25076   8.751   0.855   8.834  2.7144  1.1849 -0.3987
  948MOL0     H25077   8.695   1.077   8.741  2.1139  2.6055  0.1480
  948MOL0     H25078   8.750   1.028   8.581  3.9036 -2.6153 -1.4546
  948MOL0     H25079   8.933   0.993   8.818 -2.1163 -0.5839 -0.0619
  948MOL0     H25080   8.974   1.017   8.640 -2.5044  0.6415 -3.3824
  948MOL0     H25081   8.875   1.231   8.831  0.4640  1.7404 -1.1578
  948MOL0     H25082   8.913   1.257   8.659 -1.9905 -1.9243 -1.1548
  948MOL0     H25083   9.152   1.208   8.690  0.6630 -0.6127  0.0290
  948MOL0     H25084   9.116   1.172   8.861  0.8334  1.6812  1.2336
  948MOL0     H25085   9.056   1.439   8.709  3.2165  3.2019  1.0015
  948MOL0     H25086   9.001   1.408   8.871 -4.6688 -3.8287 -2.8090
  948MOL0     H25087   9.227   1.544   8.859 -3.0807  0.0081 -2.1634
  948MOL0     H25088   9.308   1.398   8.794  0.2254  0.6069  1.5138
  948MOL0     H25089   9.352   1.193   8.914 -2.3000  0.2065 -0.2732
  948MOL0     H25090   9.564   1.189   9.182  1.5123 -3.1298  1.4050
  948MOL0     H25091   9.488   1.086   9.065  0.6512  0.3931  0.1079
  948MOL0     H25092   9.383   1.129   9.355  3.8223  1.6646 -0.2026
  948MOL0     H25093   9.484   0.993   9.307  1.9567  1.9050 -0.2262
  948MOL0     H25094   9.249   0.940   9.331  3.5736 -1.3083 -0.2314
  948MOL0     H25095   9.204   1.047   9.202 -0.1239  0.0710  1.0103
  948MOL0     H25096   9.240   0.792   9.168 -3.3988  2.6553  3.1808
  948MOL0     H25097   9.403   0.837   9.128 -0.2474  0.8025 -1.4208
  948MOL0     H25098   9.394   0.654   9.015  4.8038  1.9132 -1.4336
  948MOL0     H25099   9.373   0.493   8.837  4.7270  2.0321 -2.1560
  948MOL0     H25100   9.312   0.625   8.255  0.9255 -0.1218 -0.2726
  948MOL0     H25101   9.337   0.478   8.052 -0.9320 -1.4521 -0.4055
  948MOL0     H25102   9.216   0.379   7.863 -0.5931 -0.2710 -1.2889
  948MOL0     H25103   9.073   0.320   7.947  0.4215  1.2701 -1.5091
  948MOL0     H25104   9.257   0.169   7.765  0.8260  0.6011  1.8934
  948MOL0     H25105   9.123   0.252   7.716  0.2071 -1.4915 -0.5597
  948MOL0     H25106   9.046   0.024   7.739  0.9759  1.2170 -1.4496
  948MOL0     H25107   8.965   0.095   7.874  1.2064  2.1118  2.6956
  948MOL0     H25108   9.233  -0.053   7.886 -0.2186  1.8437 -0.4400
  948MOL0     H25109   9.150   0.011   8.025 -1.9716 -0.6599  0.0019
  948MOL0     H25110   9.048  -0.212   7.855  0.5834  0.0120  0.1059
  948MOL0     H25111   8.948  -0.122   7.978  1.5611  1.1753  1.5298
  948MOL0     H25112   9.153  -0.173   8.141  1.3170  0.0258 -0.4486
  948MOL0     H25113   9.221  -0.274   8.013  1.1505  0.7180  4.0521
  948MOL0     H25114   8.941  -0.322   8.098  0.1569  1.2160  2.6719
  948MOL0     H25115   9.065  -0.431   8.016  1.3281 -0.3703  0.8326
  948MOL0     H25116   8.986  -0.479   8.252  1.6081 -1.6879 -0.8162
  948MOL0     H25117   9.083  -0.333   8.305  0.9372 -1.9198  2.5569
  948MOL0     H25118   9.158   0.157   8.249 -0.7978  0.5370 -1.5538
  948MOL0     H25119   9.131   0.301   8.459  4.4468 -2.0383  2.5137
  948MOL0     H25120   9.097   0.749   8.612  1.0791  3.1022 -0.7437
  948MOL0     H25121   9.135   0.927   8.785  1.9657  0.4838 -1.3720
  948MOL0     H25122   8.439   0.510   8.784 -0.3657  0.7113 -2.0735
  948MOL0     H25123   8.490   0.266   8.740  0.3087 -1.4588 -1.1154
  948MOL0     H25124   8.721  -0.051   8.483 -0.5855 -0.9477  0.1358
  948MOL0     H25125   8.820  -0.269   8.422  2.2862 -1.3992  0.1849
  948MOL0     H25126   9.187  -0.393   8.627 -1.8620  1.0684  3.4703
  948MOL0     H25127   9.130  -0.539   8.536  2.1590 -0.2062  0.7771
  948MOL0     H25128   8.994  -0.493   8.803  0.8561 -1.1444  1.2003
  948MOL0     H25129   9.056  -0.639   8.724  0.7762  0.4829 -2.7642
  948MOL0     H25130   9.216  -0.419   8.867 -0.3082  0.3187 -0.8415
  948MOL0     H25131   9.295  -0.552   8.780 -1.0384 -3.5528 -0.3377
  948MOL0     H25132   9.092  -0.594   8.994  0.9842  1.2531 -1.9717
  948MOL0     H25133   9.196  -0.724   8.937  1.7227  0.4167 -2.4839
  948MOL0     H25134   9.408  -0.557   9.268  0.1243 -1.8932  0.4487
  948MOL0     H25135   9.048  -0.262   8.776 -0.6070 -0.5005  0.3519
  948MOL0     H25136   8.993  -0.034   8.818 -2.0385  0.4958  1.4321
  949MOL0     O25137   2.552   8.280   6.260  0.4355  1.4684 -1.0184
  949MOL0     C25138   2.628   8.187   6.301 -0.8116  0.5828 -0.0656
  949MOL0     O25139   2.590   8.085   6.386 -0.5346 -0.7172 -0.5983
  949MOL0     C25140   2.460   8.104   6.437  0.5300  0.1495 -0.7368
  949MOL0     C25141   2.369   7.998   6.414 -0.2723 -0.8049 -0.5492
  949MOL0     C25142   2.244   8.003   6.480  0.5526 -0.4707  0.2062
  949MOL0     C25143   2.200   8.099   6.558 -0.8962  0.1630 -0.2882
  949MOL0     O25144   2.069   8.086   6.608  0.5927 -0.5525 -0.1421
  949MOL0     C25145   1.984   8.198   6.603 -0.0977  0.0877  0.9275
  949MOL0     C25146   1.847   8.147   6.625  0.3454  1.1812 -0.2859
  949MOL0     C25147   1.775   8.107   6.496 -0.1962  0.1186  1.2381
  949MOL0     C25148   1.836   7.985   6.412  0.5065  0.1750  0.5294
  949MOL0     C25149   1.746   7.924   6.300  0.1626 -0.0627 -0.6112
  949MOL0     C25150   1.767   7.779   6.264  0.4820  0.2746 -0.7995
  949MOL0     C25151   1.880   7.749   6.167  0.1727 -0.0956  0.0021
  949MOL0     C25152   1.865   7.621   6.077  0.2923  0.1380 -0.7255
  949MOL0     N25153   1.746   7.639   5.980  0.6428 -1.1735 -0.4324
  949MOL0     C25154   1.749   7.725   5.870 -0.4381  0.4708 -0.4479
  949MOL0     C25155   1.630   7.717   5.805  0.7373  0.3978  0.6287
  949MOL0     C25156   1.570   7.770   5.676 -0.6832 -0.4798  0.2192
  949MOL0     C25157   1.627   7.705   5.545  0.0339  0.8850  0.5308
  949MOL0     C25158   1.577   7.555   5.536  0.0011 -0.1028 -0.7263
  949MOL0     C25159   1.655   7.456   5.439 -0.2027 -0.5825 -0.0757
  949MOL0     O25160   1.634   7.499   5.299 -0.9585  1.2307 -0.6867
  949MOL0     C25161   1.706   7.599   5.251  0.1220 -0.2426 -0.2883
  949MOL0     C25162   1.653   7.667   5.144  0.2544 -0.0951  0.6042
  949MOL0     C25163   1.724   7.778   5.094 -0.7334 -0.6856 -0.4088
  949MOL0     C25164   1.849   7.818   5.149  0.4301 -0.3509  0.3759
  949MOL0     C25165   1.924   7.931   5.085  0.3958  1.1449 -0.6468
  949MOL0     O25166   2.038   7.974   5.138 -0.4983 -1.0337  0.5296
  949MOL0     C25167   2.111   8.081   5.078  0.8335  0.3885 -0.5137
  949MOL0     C25168   2.123   8.122   4.946  0.5953 -0.5725 -0.4831
  949MOL0     C25169   2.195   8.244   4.927  0.3186 -0.4254  0.1528
  949MOL0     C25170   2.272   8.310   5.022  0.0473  0.0618 -0.4940
  949MOL0     O25171   2.330   8.425   4.978  0.1098  0.3885 -0.3517
  949MOL0     C25172   2.423   8.485   5.062  0.7787 -1.5530  0.4133
  949MOL0     C25173   2.477   8.611   5.008  0.4436  0.2123 -0.6668
  949MOL0     C25174   2.384   8.730   5.035 -0.4392 -0.0425 -0.2437
  949MOL0     C25175   2.418   8.840   4.923  0.6486  0.1472 -0.1343
  949MOL0     C25176   2.295   8.884   4.840  0.2051 -0.6083 -0.4312
  949MOL0     C25177   2.317   8.957   4.711  0.3621  0.2757  0.4972
  949MOL0     C25178   2.195   8.987   4.608 -0.4730 -0.7855 -0.0427
  949MOL0     C25179   2.251   9.034   4.470  0.1791  0.4315 -0.5542
  949MOL0    Cl25180   2.352   9.179   4.498 -0.0390 -0.3068 -0.1004
  949MOL0     C25181   2.268   8.258   5.153 -1.1951  0.4428  0.0431
  949MOL0     C25182   2.186   8.147   5.175 -0.2191  0.4525  0.1847
  949MOL0     O25183   1.880   7.972   4.980  0.1252 -0.2816 -0.4772
  949MOL0     C25184   1.906   7.747   5.253 -0.6848  0.3311  0.3731
  949MOL0     C25185   1.835   7.635   5.297 -0.5341 -1.1498  0.3849
  949MOL0     N25186   1.556   7.631   5.882  0.0972  0.1312  0.4819
  949MOL0     N25187   1.621   7.605   5.991  0.3487  0.2243 -1.0947
  949MOL0     C25188   2.287   8.204   6.592  0.3050  0.5982 -0.1381
  949MOL0     C25189   2.421   8.195   6.534  1.3421 -1.3026 -1.4112
  949MOL0     C25190   2.768   8.166   6.236 -0.2607 -0.8426 -0.9691
  949MOL0     C25191   2.782   8.170   6.098  0.3230 -1.0300  0.1593
  949MOL0     C25192   2.900   8.152   6.042 -0.2622  0.3762  0.7679
  949MOL0     C25193   3.017   8.136   6.122  0.2535  0.4322  0.1319
  949MOL0     O25194   3.135   8.119   6.071  0.2774  0.2997  0.4002
  949MOL0     C25195   3.167   7.984   6.048 -0.3491 -1.3207  0.2076
  949MOL0     C25196   3.305   7.976   5.994 -0.6170 -0.1168  1.0621
  949MOL0     C25197   3.393   7.870   6.054  0.6386  0.7721 -0.6619
  949MOL0     C25198   3.342   7.728   6.020  0.2188 -0.0772 -0.0140
  949MOL0     C25199   3.436   7.627   6.060 -1.2226  0.2054  0.0975
  949MOL0     C25200   3.527   7.545   6.078 -0.3890 -0.5310 -0.7015
  949MOL0     C25201   3.004   8.119   6.258  0.2491  0.5124 -0.8024
  949MOL0     C25202   2.875   8.133   6.317 -0.7709 -0.6150  0.6623
  949MOL0     H25203   2.391   7.914   6.348 -0.7277 -1.4593  0.1124
  949MOL0     H25204   2.179   7.916   6.468  1.0067 -1.1744  2.4916
  949MOL0     H25205   2.016   8.258   6.518  0.7746 -2.4490 -0.6574
  949MOL0     H25206   2.010   8.252   6.695 -0.6089  0.3543  0.9198
  949MOL0     H25207   1.783   8.226   6.668 -1.2668 -1.2697  2.2026
  949MOL0     H25208   1.846   8.062   6.694 -2.2902  1.5297  0.2189
  949MOL0     H25209   1.781   8.194   6.431  1.3111 -0.6009  0.3480
  949MOL0     H25210   1.667   8.091   6.504 -0.0965 -2.4666 -0.8537
  949MOL0     H25211   1.926   8.017   6.360 -0.7319  2.1393 -0.5223
  949MOL0     H25212   1.873   7.904   6.475  1.5751 -1.2474 -1.8164
  949MOL0     H25213   1.736   7.986   6.210 -0.2997  0.7923  0.0174
  949MOL0     H25214   1.655   7.913   6.359  1.0343 -0.8187  0.6164
  949MOL0     H25215   1.677   7.735   6.220  2.7801 -5.8447 -0.2427
  949MOL0     H25216   1.794   7.723   6.354 -0.0552  1.6551  0.2492
  949MOL0     H25217   1.886   7.827   6.090 -5.5166 -0.8665 -1.7168
  949MOL0     H25218   1.969   7.763   6.229  0.5066 -0.3442 -0.4123
  949MOL0     H25219   1.855   7.528   6.135 -1.7891 -0.6723 -2.2701
  949MOL0     H25220   1.952   7.601   6.015 -0.2873 -0.4092 -1.3779
  949MOL0     H25221   1.834   7.775   5.823 -1.5597  1.5928 -1.3312
  949MOL0     H25222   1.595   7.876   5.670 -1.3213 -0.3192  0.3105
  949MOL0     H25223   1.462   7.754   5.686 -0.3377 -1.4816  3.7609
  949MOL0     H25224   1.735   7.714   5.537  0.1549 -0.5919  0.2836
  949MOL0     H25225   1.576   7.745   5.457 -1.3581 -1.5075  0.1421
  949MOL0     H25226   1.589   7.517   5.638  3.4031  2.9832  0.2142
  949MOL0     H25227   1.471   7.555   5.507  0.3838 -0.7249 -2.2144
  949MOL0     H25228   1.628   7.351   5.451 -2.1531 -0.0551  0.3412
  949MOL0     H25229   1.762   7.461   5.464 -0.5156 -1.5590  1.6043
  949MOL0     H25230   1.558   7.633   5.103 -0.8542 -0.6233  3.4055
  949MOL0     H25231   1.687   7.820   5.001 -1.8420  0.0829  0.3458
  949MOL0     H25232   2.068   8.082   4.861 -0.3814  0.8692 -0.5682
  949MOL0     H25233   2.192   8.282   4.825 -1.4231  2.0123  1.0296
  949MOL0     H25234   2.511   8.423   5.076  2.4349  0.1780 -1.6985
  949MOL0     H25235   2.381   8.511   5.159  0.5545 -1.5276  0.3114
  949MOL0     H25236   2.494   8.599   4.901 -0.1814 -2.0616 -0.5726
  949MOL0     H25237   2.571   8.627   5.062 -0.7156  1.2881  1.1466
  949MOL0     H25238   2.402   8.765   5.137  2.8525  0.2634 -0.8168
  949MOL0     H25239   2.280   8.696   5.031 -0.4628  0.0407 -0.3508
  949MOL0     H25240   2.452   8.932   4.972 -0.6409  1.6798 -1.9509
  949MOL0     H25241   2.500   8.811   4.857 -0.6272  0.4611 -1.9490
  949MOL0     H25242   2.242   8.962   4.897  0.6353 -1.9100  1.8698
  949MOL0     H25243   2.236   8.798   4.808 -0.0661  0.1611 -2.1101
  949MOL0     H25244   2.392   8.896   4.661 -0.8954 -0.2309 -0.8298
  949MOL0     H25245   2.371   9.042   4.755  1.0876 -0.2628  0.6687
  949MOL0     H25246   2.132   8.899   4.595  2.1544 -2.7689 -0.0593
  949MOL0     H25247   2.137   9.076   4.638  2.3919  1.7420 -1.4896
  949MOL0     H25248   2.176   9.069   4.399  0.4072 -1.0630 -1.5806
  949MOL0     H25249   2.302   8.943   4.437 -3.9100 -1.9956 -0.7700
  949MOL0     H25250   2.336   8.305   5.224 -0.6362  4.0556 -2.6210
  949MOL0     H25251   2.186   8.104   5.274 -2.5518  2.2530  1.0326
  949MOL0     H25252   2.009   7.747   5.289 -0.4418 -1.0728 -0.2387
  949MOL0     H25253   1.886   7.575   5.372  2.3758  3.4130  2.5131
  949MOL0     H25254   2.259   8.287   6.656 -1.7518  0.5704 -0.9282
  949MOL0     H25255   2.482   8.281   6.559  1.0987 -2.4190  4.4517
  949MOL0     H25256   2.690   8.193   6.046  0.9730 -0.0827 -0.5865
  949MOL0     H25257   2.907   8.147   5.933  0.7800 -1.9754  0.8815
  949MOL0     H25258   3.103   7.941   5.970  2.5671 -1.8198 -2.1027
  949MOL0     H25259   3.149   7.924   6.138  0.4127 -0.9398  0.6223
  949MOL0     H25260   3.285   7.954   5.888 -0.6232 -0.3393  1.1082
  949MOL0     H25261   3.354   8.073   5.999 -2.2228  0.7130  1.3279
  949MOL0     H25262   3.384   7.889   6.162 -2.0868  2.0613 -1.0197
  949MOL0     H25263   3.495   7.873   6.016  1.9061  0.3431  2.4258
  949MOL0     H25264   3.245   7.699   6.060  1.2168 -4.6996 -0.3373
  949MOL0     H25265   3.339   7.731   5.911 -2.9787 -0.1839 -0.0095
  949MOL0     H25266   3.609   7.478   6.093 -1.5587 -1.9077 -0.2407
  949MOL0     H25267   3.097   8.100   6.312  0.1549 -0.0319 -0.8291
  949MOL0     H25268   2.856   8.119   6.423  0.9958 -1.1591  0.9324
  950MOL0     O25269   7.335   4.884   5.618  0.5530  0.5091  0.2408
  950MOL0     C25270   7.428   4.966   5.605 -0.2942  0.7246  0.0862
  950MOL0     O25271   7.553   4.935   5.550 -0.1510 -0.0785  0.6648
  950MOL0     C25272   7.572   4.842   5.446  0.2162  0.4028 -0.5718
  950MOL0     C25273   7.479   4.764   5.379  0.1745  0.3920 -0.3983
  950MOL0     C25274   7.524   4.672   5.278  1.1077  0.0505  0.3862
  950MOL0     C25275   7.651   4.666   5.246  0.3298  0.3236 -0.9486
  950MOL0     O25276   7.695   4.571   5.159  0.3776  0.0421 -0.0194
  950MOL0     C25277   7.748   4.620   5.035 -0.1328 -0.3097 -0.9181
  950MOL0     C25278   7.796   4.496   4.967 -0.9959  0.3668  0.4258
  950MOL0     C25279   7.848   4.522   4.829  0.4015  0.3535 -0.2010
  950MOL0     C25280   7.877   4.392   4.753  0.3629  0.2845 -0.6668
  950MOL0     C25281   7.945   4.408   4.618 -0.4425 -0.6118 -1.1193
  950MOL0     C25282   7.834   4.444   4.515  0.2067  0.0539  0.3530
  950MOL0     C25283   7.795   4.325   4.421  0.8367 -0.1948  0.1251
  950MOL0     C25284   7.902   4.262   4.333 -0.0188  0.6338 -1.0219
  950MOL0     N25285   7.863   4.212   4.195  0.5616  1.1774 -0.1703
  950MOL0     C25286   7.951   4.157   4.106 -0.4690 -0.8269 -0.6950
  950MOL0     C25287   7.881   4.121   3.998 -0.7308 -0.2395 -0.0830
  950MOL0     C25288   7.947   4.035   3.891  0.1510  0.2393 -0.5079
  950MOL0     C25289   7.963   3.884   3.939  0.9020  0.5157 -0.7918
  950MOL0     C25290   7.962   3.780   3.825 -0.0416 -0.5000 -0.6843
  950MOL0     C25291   8.072   3.812   3.725 -0.9525  0.1149  0.4142
  950MOL0     O25292   8.058   3.705   3.626 -0.1307 -0.2161  0.1332
  950MOL0     C25293   7.962   3.730   3.525  1.1311  1.7966  0.1836
  950MOL0     C25294   7.877   3.851   3.511  0.0904 -0.2066  0.3332
  950MOL0     C25295   7.790   3.859   3.397 -0.0992  0.0919 -0.0692
  950MOL0     C25296   7.774   3.757   3.304  0.9253 -1.1015 -0.4094
  950MOL0     C25297   7.684   3.767   3.190  0.3229 -0.3768 -0.8927
  950MOL0     O25298   7.573   3.843   3.216 -0.4394  0.1174 -0.6143
  950MOL0     C25299   7.457   3.855   3.144 -0.7264 -0.9273  0.0188
  950MOL0     C25300   7.387   3.973   3.169  0.3618 -0.2331  0.6785
  950MOL0     C25301   7.265   3.990   3.109  0.7467 -0.9275  0.3663
  950MOL0     C25302   7.199   3.891   3.037  0.7379  0.0058 -0.0775
  950MOL0     O25303   7.076   3.935   2.994  0.6256  0.2954 -0.0623
  950MOL0     C25304   7.002   3.833   2.915 -0.2597  0.7867  0.1644
  950MOL0     C25305   6.855   3.878   2.918  0.0308 -0.7719  0.4700
  950MOL0     C25306   6.829   4.010   2.857 -0.7009 -1.3338 -0.3020
  950MOL0     C25307   6.686   4.056   2.846 -0.5971  0.3974 -0.3288
  950MOL0     C25308   6.650   4.175   2.758  1.5226  0.5520  0.2950
  950MOL0     C25309   6.705   4.301   2.819 -0.9091 -0.3309 -0.4567
  950MOL0     C25310   6.673   4.430   2.747 -0.2475  0.3579 -0.9269
  950MOL0     C25311   6.521   4.460   2.742 -0.0495 -0.4549 -0.2353
  950MOL0    Cl25312   6.477   4.614   2.655  0.4516  0.1571 -0.2372
  950MOL0     C25313   7.264   3.766   3.026  0.5613  0.6584 -0.9002
  950MOL0     C25314   7.396   3.750   3.068  0.5714 -0.3872  0.8264
  950MOL0     O25315   7.721   3.727   3.082 -0.1553  0.2666 -0.0964
  950MOL0     C25316   7.851   3.638   3.321 -1.0460  0.8003 -0.0785
  950MOL0     C25317   7.937   3.627   3.431 -0.5451  0.7459  0.0495
  950MOL0     N25318   7.749   4.143   4.026 -0.4260 -0.0602  0.1754
  950MOL0     N25319   7.735   4.205   4.135 -0.3874  0.8068  0.8403
  950MOL0     C25320   7.749   4.745   5.311 -0.2534  0.1328 -0.2044
  950MOL0     C25321   7.707   4.830   5.408 -0.6061  0.6492 -0.4019
  950MOL0     C25322   7.423   5.097   5.671  0.2929 -1.0442 -0.7785
  950MOL0     C25323   7.305   5.144   5.735  0.4165 -0.0078  0.1968
  950MOL0     C25324   7.300   5.276   5.793 -0.2177 -0.2612  0.4528
  950MOL0     C25325   7.413   5.359   5.778  0.6581 -0.0817  0.1200
  950MOL0     O25326   7.410   5.487   5.830  0.1227 -0.7586 -1.1372
  950MOL0     C25327   7.286   5.548   5.845  0.6057  0.1781 -0.3748
  950MOL0     C25328   7.240   5.550   5.993 -0.6280  0.0064  0.9428
  950MOL0     C25329   7.099   5.615   6.012 -0.1677 -0.4750  0.0676
  950MOL0     C25330   7.110   5.762   6.062  0.5761 -0.0477 -1.3584
  950MOL0     C25331   7.170   5.774   6.198 -0.6858 -0.9853  0.0314
  950MOL0     C25332   7.214   5.777   6.301 -1.2958 -0.0494  0.3968
  950MOL0     C25333   7.532   5.310   5.717 -0.5970 -0.8527  0.4005
  950MOL0     C25334   7.536   5.181   5.665  1.3077 -0.2787  1.1745
  950MOL0     H25335   7.371   4.771   5.392  0.0238 -0.3922 -1.1179
  950MOL0     H25336   7.451   4.606   5.231  1.9215 -0.6408  0.0579
  950MOL0     H25337   7.838   4.681   5.051 -0.2809 -0.0290 -1.1541
  950MOL0     H25338   7.668   4.678   4.989 -1.7433  0.4009  2.4807
  950MOL0     H25339   7.711   4.428   4.970  0.0359 -0.9263  1.9013
  950MOL0     H25340   7.886   4.451   5.010 -0.2720  1.0347 -0.3460
  950MOL0     H25341   7.934   4.587   4.838  0.2950  0.2121  3.5553
  950MOL0     H25342   7.764   4.574   4.781  0.1399  1.2380  1.1710
  950MOL0     H25343   7.946   4.333   4.814 -0.2279 -1.9227 -2.0442
  950MOL0     H25344   7.786   4.333   4.737  0.6677 -0.2327 -0.4941
  950MOL0     H25345   7.993   4.314   4.587 -0.6468 -0.5398 -1.6679
  950MOL0     H25346   8.020   4.486   4.633 -2.6230  1.3480  0.2518
  950MOL0     H25347   7.866   4.529   4.456 -1.3863 -0.5632 -1.5141
  950MOL0     H25348   7.740   4.469   4.566 -0.4123  0.1374 -0.7882
  950MOL0     H25349   7.745   4.244   4.475 -1.4682  0.5685 -0.7515
  950MOL0     H25350   7.721   4.369   4.354  0.8772  3.5507  2.2959
  950MOL0     H25351   7.944   4.179   4.391 -2.0470 -0.8572 -1.5804
  950MOL0     H25352   7.983   4.332   4.310 -0.1784 -0.0647 -4.3271
  950MOL0     H25353   8.058   4.138   4.113 -0.5998 -1.3946 -0.1610
  950MOL0     H25354   8.049   4.067   3.866  0.9568 -1.8589 -0.0563
  950MOL0     H25355   7.892   4.060   3.800  0.6651  4.3199  0.0916
  950MOL0     H25356   7.891   3.845   4.012  2.2757 -0.3915  0.1065
  950MOL0     H25357   8.052   3.889   4.002 -1.5049  1.5304  2.8466
  950MOL0     H25358   8.000   3.687   3.869  2.4271  1.0862  0.8529
  950MOL0     H25359   7.868   3.765   3.772  0.1821 -0.3922 -1.1217
  950MOL0     H25360   8.176   3.803   3.758 -0.7964  0.5229  0.0456
  950MOL0     H25361   8.064   3.911   3.679  0.3195 -0.8295 -2.0750
  950MOL0     H25362   7.890   3.935   3.578  2.0907 -0.9387  0.9183
  950MOL0     H25363   7.716   3.938   3.393 -0.0301  0.2020  0.6266
  950MOL0     H25364   7.422   4.060   3.225  0.7593  1.4379 -1.9821
  950MOL0     H25365   7.214   4.085   3.122 -2.2219 -2.2403 -0.6529
  950MOL0     H25366   7.007   3.732   2.956 -2.6870 -0.0068 -1.3390
  950MOL0     H25367   7.055   3.827   2.819  1.1636  0.8364  0.9143
  950MOL0     H25368   6.827   3.890   3.023 -1.0071 -1.0569  0.2350
  950MOL0     H25369   6.793   3.804   2.867 -2.5206  2.3382 -1.3749
  950MOL0     H25370   6.879   4.023   2.760 -1.7435 -1.4345 -0.8654
  950MOL0     H25371   6.870   4.079   2.932 -3.0565 -0.4537  0.2658
  950MOL0     H25372   6.625   3.971   2.815  1.0820 -1.8040  2.0052
  950MOL0     H25373   6.664   4.073   2.952  3.7596 -0.0471  0.8505
  950MOL0     H25374   6.543   4.188   2.739  1.6928  1.3127 -0.1869
  950MOL0     H25375   6.695   4.165   2.659  1.6092 -0.6767  0.4496
  950MOL0     H25376   6.813   4.280   2.817 -0.8275 -0.0382  0.3879
  950MOL0     H25377   6.664   4.327   2.917 -0.8062  3.7211 -1.3042
  950MOL0     H25378   6.720   4.511   2.804 -2.7249  0.5588  1.0251
  950MOL0     H25379   6.714   4.409   2.647 -2.4109 -3.6149 -1.1885
  950MOL0     H25380   6.494   4.470   2.848  2.0703 -3.8768  0.7969
  950MOL0     H25381   6.463   4.377   2.702  0.6053 -1.0931  0.1199
  950MOL0     H25382   7.221   3.671   2.997  1.3521 -0.6943  1.9979
  950MOL0     H25383   7.450   3.657   3.051  1.9067  0.8569 -2.3170
  950MOL0     H25384   7.854   3.555   3.251 -0.4482  1.4038 -0.7844
  950MOL0     H25385   7.999   3.539   3.447 -1.2625  0.6259  2.5025
  950MOL0     H25386   7.855   4.740   5.288  0.0856 -1.0116  1.4124
  950MOL0     H25387   7.775   4.888   5.470  1.2949 -0.0897 -1.6825
  950MOL0     H25388   7.217   5.080   5.729 -0.4006  1.2018 -1.2443
  950MOL0     H25389   7.210   5.308   5.843 -0.6389  2.3351 -1.6969
  950MOL0     H25390   7.217   5.500   5.776 -0.1906  2.5767 -1.3687
  950MOL0     H25391   7.292   5.655   5.821 -1.0054  1.0808  2.7601
  950MOL0     H25392   7.224   5.454   6.043 -3.1871  1.2444  2.6786
  950MOL0     H25393   7.319   5.609   6.040  1.5815  0.8785 -3.2899
  950MOL0     H25394   7.040   5.567   6.090 -0.5397 -0.1593 -0.0193
  950MOL0     H25395   7.052   5.613   5.914 -1.2871  3.6823  0.3119
  950MOL0     H25396   7.173   5.826   6.000  2.3691 -1.8529 -1.5539
  950MOL0     H25397   7.009   5.802   6.058 -0.0808 -1.1398  1.4988
  950MOL0     H25398   7.260   5.772   6.397  0.1111  1.2441 -0.1670
  950MOL0     H25399   7.621   5.371   5.703 -0.9397 -0.9898 -3.6709
  950MOL0     H25400   7.635   5.151   5.631  2.1420  1.6031  1.8296
  951MOL0     O25401   4.464   3.627   0.907  1.1152 -0.0403  0.4242
  951MOL0     C25402   4.497   3.562   0.809 -1.0402  0.1340 -0.4800
  951MOL0     O25403   4.595   3.594   0.716 -0.3003  0.4032  0.7508
  951MOL0     C25404   4.650   3.722   0.730  0.2698  0.6348  0.9097
  951MOL0     C25405   4.635   3.811   0.620  0.2013  0.3557 -0.3086
  951MOL0     C25406   4.690   3.939   0.622 -0.3405  0.0817 -0.3881
  951MOL0     C25407   4.764   3.985   0.737  0.5452 -0.0005  0.4192
  951MOL0     O25408   4.796   4.117   0.738  0.5955 -0.4014 -0.8254
  951MOL0     C25409   4.802   4.182   0.866 -0.1386  0.3625  0.0845
  951MOL0     C25410   4.826   4.338   0.865 -0.3631  0.5369  0.1129
  951MOL0     C25411   4.746   4.400   0.975 -0.6101  0.4380 -0.5857
  951MOL0     C25412   4.794   4.366   1.120  0.7369 -0.4578  0.1617
  951MOL0     C25413   4.724   4.458   1.219 -0.0118  0.3275 -0.0795
  951MOL0     C25414   4.780   4.443   1.363 -0.0021  0.5236  0.6854
  951MOL0     C25415   4.715   4.536   1.465 -0.9197  0.1790 -0.5784
  951MOL0     C25416   4.779   4.675   1.468  0.3841 -0.3744  0.9965
  951MOL0     N25417   4.672   4.774   1.493  0.3574  0.4262  0.8041
  951MOL0     C25418   4.542   4.765   1.447  1.0517 -0.7933 -0.6401
  951MOL0     C25419   4.470   4.866   1.506  1.1654 -0.6195  0.7796
  951MOL0     C25420   4.330   4.901   1.477 -0.8305 -0.5380 -0.0997
  951MOL0     C25421   4.267   4.855   1.341  0.8728 -0.9012  0.3441
  951MOL0     C25422   4.130   4.917   1.330 -0.2801  0.9074  0.5533
  951MOL0     C25423   4.068   4.913   1.196  0.5926  0.9494  0.1446
  951MOL0     O25424   4.155   4.978   1.102  0.5233 -0.7297  0.3202
  951MOL0     C25425   4.109   4.982   0.969  0.7608  0.7000  0.5271
  951MOL0     C25426   4.039   4.876   0.898 -0.1160  0.1611  0.6322
  951MOL0     C25427   3.982   4.907   0.770 -0.5138 -0.2047 -0.1679
  951MOL0     C25428   4.009   5.025   0.696 -1.1690 -0.1084 -0.3045
  951MOL0     C25429   3.938   5.057   0.572  0.1102 -1.8637  1.3143
  951MOL0     O25430   3.843   4.980   0.536  0.2422 -0.3619  0.2823
  951MOL0     C25431   3.740   5.031   0.451  0.1264 -0.0591 -1.0322
  951MOL0     C25432   3.732   4.964   0.329 -0.0931  0.1632  0.3796
  951MOL0     C25433   3.616   5.000   0.248 -1.0716  0.8845 -0.7652
  951MOL0     C25434   3.511   5.085   0.279  0.0834  0.1515  0.2660
  951MOL0     O25435   3.391   5.108   0.205 -0.3122  0.3261  0.3085
  951MOL0     C25436   3.284   5.198   0.244 -0.1593  0.0580 -0.8107
  951MOL0     C25437   3.188   5.214   0.125  0.0167 -0.1422  1.9786
  951MOL0     C25438   3.116   5.089   0.102  0.8625  0.5403 -1.1127
  951MOL0     C25439   3.037   5.113  -0.022 -0.2266  1.0028  0.6925
  951MOL0     C25440   2.963   4.986  -0.060  0.9524  0.5912  1.2525
  951MOL0     C25441   2.849   5.017  -0.165 -0.7000  0.8570 -0.1293
  951MOL0     C25442   2.785   4.883  -0.214  0.7588 -0.0498  0.6385
  951MOL0     C25443   2.647   4.912  -0.264  0.2347 -0.6175 -0.7569
  951MOL0    Cl25444   2.574   4.760  -0.303  0.0344 -0.1764  0.8568
  951MOL0     C25445   3.528   5.142   0.413 -0.3381  0.3652 -0.2646
  951MOL0     C25446   3.642   5.118   0.496 -0.2210 -0.0133 -0.1880
  951MOL0     O25447   3.957   5.171   0.528  0.3830 -0.8373 -0.3173
  951MOL0     C25448   4.090   5.116   0.767  0.1743  0.3805  1.3205
  951MOL0     C25449   4.135   5.095   0.900  0.4584  0.3645  0.4862
  951MOL0     N25450   4.538   4.916   1.607  0.3246 -0.0528 -0.3884
  951MOL0     N25451   4.662   4.861   1.600  0.1234  0.0491  0.4581
  951MOL0     C25452   4.776   3.890   0.844 -0.3293  0.9749  0.3192
  951MOL0     C25453   4.735   3.755   0.837  0.0656  0.1868 -0.0045
  951MOL0     C25454   4.439   3.431   0.775 -0.3065 -0.0397  1.4250
  951MOL0     C25455   4.377   3.350   0.867 -0.7972  1.0722  0.3051
  951MOL0     C25456   4.330   3.215   0.838 -0.6116  0.1153  0.0520
  951MOL0     C25457   4.332   3.172   0.707 -0.3504  0.9830  0.5061
  951MOL0     O25458   4.271   3.050   0.690 -0.0183 -0.4432 -0.1141
  951MOL0     C25459   4.275   3.000   0.558  0.3930 -0.9249  1.0131
  951MOL0     C25460   4.152   3.042   0.476 -0.3450 -0.8833  0.0979
  951MOL0     C25461   4.143   2.976   0.335  0.7936  0.3266  0.2510
  951MOL0     C25462   4.072   3.069   0.223  0.8954 -0.0274  0.2378
  951MOL0     C25463   4.156   3.183   0.205 -1.2856  0.1013 -0.5972
  951MOL0     C25464   4.235   3.275   0.188  0.1818  0.2886 -1.0698
  951MOL0     C25465   4.392   3.256   0.607 -0.7288  0.1931  0.2391
  951MOL0     C25466   4.438   3.385   0.637  0.0403  1.0584 -0.3709
  951MOL0     H25467   4.588   3.767   0.533 -0.2381 -0.0724  0.1391
  951MOL0     H25468   4.684   4.015   0.545 -1.4743  0.2285 -0.1676
  951MOL0     H25469   4.879   4.142   0.933 -0.5180  1.3812  1.1693
  951MOL0     H25470   4.708   4.161   0.917 -0.0462 -0.2794 -0.0097
  951MOL0     H25471   4.789   4.381   0.772 -1.3468 -1.9695 -0.7239
  951MOL0     H25472   4.932   4.357   0.883 -0.4268  1.6773 -0.6561
  951MOL0     H25473   4.642   4.368   0.968 -1.6696  3.2033  0.9612
  951MOL0     H25474   4.733   4.509   0.967 -1.4438  0.5154  1.3904
  951MOL0     H25475   4.757   4.265   1.139 -3.8447  1.2557  2.0542
  951MOL0     H25476   4.902   4.374   1.131  0.4764  1.5855  2.0607
  951MOL0     H25477   4.617   4.437   1.221  0.6497 -4.5121 -1.5269
  951MOL0     H25478   4.733   4.559   1.178  2.4584  0.5790  0.8610
  951MOL0     H25479   4.887   4.461   1.357 -0.2099  1.8384 -5.2886
  951MOL0     H25480   4.758   4.337   1.381 -2.6476  0.8748 -0.0587
  951MOL0     H25481   4.606   4.528   1.468 -1.0576  0.8404 -2.3873
  951MOL0     H25482   4.754   4.500   1.560 -2.3345  2.3427  0.9055
  951MOL0     H25483   4.847   4.693   1.384  1.3779 -2.5374  1.2847
  951MOL0     H25484   4.837   4.677   1.561  0.2559 -2.5443  1.1776
  951MOL0     H25485   4.499   4.689   1.382 -0.4635  1.1728 -2.0483
  951MOL0     H25486   4.306   5.008   1.481 -3.0754 -0.9527 -0.8676
  951MOL0     H25487   4.271   4.865   1.562  1.1245 -1.1647  1.0590
  951MOL0     H25488   4.264   4.747   1.361  0.6545 -0.5140  2.7378
  951MOL0     H25489   4.334   4.869   1.256 -1.2480 -1.4985 -1.5089
  951MOL0     H25490   4.056   4.863   1.391 -2.0560 -0.1155 -2.3140
  951MOL0     H25491   4.131   5.024   1.352  0.0308  0.8747  0.7070
  951MOL0     H25492   3.966   4.953   1.192  0.9935  1.9008 -1.0974
  951MOL0     H25493   4.058   4.807   1.170 -0.6883  0.5695  2.0074
  951MOL0     H25494   4.011   4.784   0.949 -2.8078  1.2421  1.2548
  951MOL0     H25495   3.920   4.835   0.719 -1.3239 -0.0808  0.6180
  951MOL0     H25496   3.814   4.898   0.302  2.8636  3.8459 -0.3394
  951MOL0     H25497   3.603   4.956   0.149  1.9328  0.0380 -0.8837
  951MOL0     H25498   3.328   5.297   0.258  0.8873 -0.5561  0.4920
  951MOL0     H25499   3.232   5.183   0.339 -1.4598  2.1818 -1.1241
  951MOL0     H25500   3.259   5.239   0.046  2.3507  1.5121  4.4134
  951MOL0     H25501   3.114   5.291   0.149 -1.5589 -0.3858 -1.5347
  951MOL0     H25502   3.048   5.059   0.182  2.1624 -0.2448 -0.2559
  951MOL0     H25503   3.179   5.000   0.093  0.0410 -0.4172  1.5959
  951MOL0     H25504   2.963   5.193  -0.014  0.3098  1.4571  1.1806
  951MOL0     H25505   3.112   5.136  -0.098  1.7929 -0.0676  2.2636
  951MOL0     H25506   2.921   4.947   0.033  1.3557  2.4792  2.2843
  951MOL0     H25507   3.034   4.914  -0.103  1.8662  1.1742  1.7481
  951MOL0     H25508   2.894   5.081  -0.241  2.9522 -0.7039  0.4860
  951MOL0     H25509   2.776   5.071  -0.105 -0.8041  2.1849 -1.4102
  951MOL0     H25510   2.844   4.839  -0.296  2.1123  0.5111  1.2860
  951MOL0     H25511   2.779   4.802  -0.141  3.7661 -2.0917 -1.1663
  951MOL0     H25512   2.662   4.965  -0.358 -1.2748 -0.4484 -0.9255
  951MOL0     H25513   2.590   4.969  -0.190  0.2580 -2.4739  0.7531
  951MOL0     H25514   3.457   5.212   0.455  2.2061  1.6693  2.2400
  951MOL0     H25515   3.646   5.152   0.599 -3.9152 -0.6983  0.3343
  951MOL0     H25516   4.105   5.207   0.710 -2.5075 -0.4300 -0.9013
  951MOL0     H25517   4.196   5.169   0.952 -0.2897  1.0152  0.4683
  951MOL0     H25518   4.824   3.913   0.939 -1.8364 -0.4909  1.5083
  951MOL0     H25519   4.751   3.689   0.922  0.0602  3.0061  2.3366
  951MOL0     H25520   4.381   3.369   0.974  1.1840 -2.5681  1.0425
  951MOL0     H25521   4.295   3.140   0.907 -3.1006  1.3839  0.2470
  951MOL0     H25522   4.266   2.892   0.572 -3.7927 -0.9035 -0.1695
  951MOL0     H25523   4.366   3.013   0.498 -1.4679 -1.7364 -2.2590
  951MOL0     H25524   4.067   3.007   0.534  1.5845 -2.5261  2.1158
  951MOL0     H25525   4.151   3.151   0.472  0.0295 -0.9110 -2.7472
  951MOL0     H25526   4.078   2.891   0.353 -0.0831  0.8348 -0.4343
  951MOL0     H25527   4.236   2.937   0.292  2.2248  0.6612  2.8591
  951MOL0     H25528   4.043   3.016   0.132  0.3174 -1.9605  1.4885
  951MOL0     H25529   3.981   3.105   0.270  1.6331  1.2005  0.7741
  951MOL0     H25530   4.312   3.342   0.153  1.8659 -1.2256 -0.4102
  951MOL0     H25531   4.392   3.234   0.500  0.7442  0.3516  0.1898
  951MOL0     H25532   4.467   3.436   0.546 -3.0992  1.1288 -1.4724
  952MOL0     O25533   7.332   2.335  10.455  0.3932  0.1793 -1.3280
  952MOL0     C25534   7.277   2.228  10.447  0.4842 -0.4471  0.3444
  952MOL0     O25535   7.143   2.218  10.442 -0.7134 -0.1574 -0.1678
  952MOL0     C25536   7.053   2.318  10.417  0.0284  0.7697  0.0854
  952MOL0     C25537   6.927   2.321  10.475  0.4749 -0.1449 -0.5032
  952MOL0     C25538   6.837   2.421  10.445 -0.2475 -0.1869 -0.1482
  952MOL0     C25539   6.871   2.529  10.366 -0.9294 -0.2573 -0.3912
  952MOL0     O25540   6.796   2.644  10.353  0.4946 -0.6372  0.0999
  952MOL0     C25541   6.661   2.624  10.310 -0.2697  0.6887 -1.3443
  952MOL0     C25542   6.598   2.752  10.354 -0.0479 -0.5791  0.3539
  952MOL0     C25543   6.452   2.773  10.336 -0.4882  0.3250  0.0225
  952MOL0     C25544   6.416   2.792  10.186 -0.6453  0.3420  0.8327
  952MOL0     C25545   6.273   2.749  10.147 -0.5671 -0.5526  0.0768
  952MOL0     C25546   6.234   2.603  10.186  0.4284 -0.3742  0.4934
  952MOL0     C25547   6.122   2.549  10.090 -0.3254 -0.5049  0.1117
  952MOL0     C25548   6.048   2.423  10.129  1.5762 -0.2221  0.7020
  952MOL0     N25549   5.916   2.413  10.044  0.3920 -0.1407 -0.0142
  952MOL0     C25550   5.892   2.465   9.917 -0.1145  0.5128  0.8955
  952MOL0     C25551   5.770   2.415   9.871 -0.3353  0.0600 -0.1233
  952MOL0     C25552   5.721   2.444   9.732  0.8210  0.0302 -0.2119
  952MOL0     C25553   5.680   2.595   9.714  0.4831  1.0542 -0.0716
  952MOL0     C25554   5.548   2.598   9.797  0.8084 -0.1479  0.3149
  952MOL0     C25555   5.468   2.738   9.781  0.4548 -0.7485 -0.4683
  952MOL0     O25556   5.544   2.842   9.850  0.7957 -0.6177  0.0093
  952MOL0     C25557   5.505   2.979   9.844  0.2836  0.8987  0.6706
  952MOL0     C25558   5.602   3.082   9.843  0.0693  0.3950 -0.8050
  952MOL0     C25559   5.575   3.214   9.818  0.3478 -0.1303 -0.7967
  952MOL0     C25560   5.446   3.246   9.776  0.5472 -0.8287  0.8981
  952MOL0     C25561   5.418   3.381   9.723  1.2008 -0.4642  0.5635
  952MOL0     O25562   5.282   3.429   9.722 -0.4925 -0.2266  0.1945
  952MOL0     C25563   5.266   3.558   9.690 -0.2621  0.3270 -0.7294
  952MOL0     C25564   5.292   3.609   9.570 -0.3982  0.6271  0.0119
  952MOL0     C25565   5.283   3.749   9.539  0.2210  0.3250  0.4550
  952MOL0     C25566   5.227   3.823   9.644 -0.2792  0.0630  0.5827
  952MOL0     O25567   5.192   3.953   9.620  0.0838  0.3875 -0.1880
  952MOL0     C25568   5.296   4.046   9.583  0.0719  0.1743 -0.2349
  952MOL0     C25569   5.258   4.078   9.437  0.0564 -0.1461  0.5727
  952MOL0     C25570   5.344   4.205   9.407 -0.1258  0.1622  0.4049
  952MOL0     C25571   5.312   4.279   9.268  0.2324  0.2838 -0.9469
  952MOL0     C25572   5.390   4.404   9.251 -0.0190  1.1403 -0.7772
  952MOL0     C25573   5.340   4.519   9.348  0.5264 -0.1215  0.2252
  952MOL0     C25574   5.412   4.653   9.313  0.4114 -0.1255 -0.0245
  952MOL0     C25575   5.404   4.718   9.178 -0.8419 -0.5543  0.6964
  952MOL0    Cl25576   5.532   4.841   9.168  0.3068  0.3580 -0.4070
  952MOL0     C25577   5.200   3.772   9.768 -0.1964 -1.5936 -0.1829
  952MOL0     C25578   5.221   3.639   9.792 -0.0750  0.8035 -0.5193
  952MOL0     O25579   5.517   3.456   9.695 -0.9541  0.5602 -0.0322
  952MOL0     C25580   5.346   3.147   9.762  0.7123 -0.3077 -0.3005
  952MOL0     C25581   5.375   3.020   9.812  0.0500 -0.2831  0.2306
  952MOL0     N25582   5.716   2.349   9.979 -0.2058  0.4925  0.2050
  952MOL0     N25583   5.801   2.345  10.078 -0.1921  0.8283  0.4645
  952MOL0     C25584   7.000   2.531  10.308 -0.7127  0.7811  0.0015
  952MOL0     C25585   7.091   2.426  10.329  0.5650 -0.2726  0.4154
  952MOL0     C25586   7.357   2.105  10.484 -1.4733  0.7683  0.1563
  952MOL0     C25587   7.499   2.120  10.516  0.3708 -0.1176 -0.4309
  952MOL0     C25588   7.578   2.008  10.537 -0.0912  0.0463  1.1702
  952MOL0     C25589   7.526   1.879  10.517  0.2813 -0.0781 -0.0552
  952MOL0     O25590   7.614   1.781  10.551 -0.5183  0.8506 -0.2041
  952MOL0     C25591   7.580   1.648  10.527  0.6725 -0.6046  0.1885
  952MOL0     C25592   7.487   1.586  10.639 -0.5852  0.5669 -0.5945
  952MOL0     C25593   7.509   1.435  10.652 -0.0745 -0.5051  0.5402
  952MOL0     C25594   7.451   1.356  10.534 -1.0096  0.6937  0.4344
  952MOL0     C25595   7.310   1.325  10.546 -0.1952  0.9178 -0.3685
  952MOL0     C25596   7.194   1.298  10.570  0.4989 -0.3348  0.2272
  952MOL0     C25597   7.395   1.870  10.482  0.3954  0.4634 -0.6761
  952MOL0     C25598   7.308   1.981  10.460  0.2275 -0.6755 -0.9526
  952MOL0     H25599   6.889   2.251  10.548 -1.3654 -0.2704 -1.5169
  952MOL0     H25600   6.740   2.404  10.491 -0.4127 -2.7241 -1.2710
  952MOL0     H25601   6.612   2.552  10.375 -1.8305  1.1783 -1.9299
  952MOL0     H25602   6.658   2.602  10.203  2.0133  1.7057 -1.6839
  952MOL0     H25603   6.648   2.842  10.315  0.2808 -0.6331  0.6386
  952MOL0     H25604   6.614   2.761  10.462 -2.4151 -1.6612  0.8581
  952MOL0     H25605   6.418   2.865  10.386 -1.8124 -1.3207  2.3243
  952MOL0     H25606   6.388   2.693  10.374  0.9212 -0.3169  1.1669
  952MOL0     H25607   6.436   2.895  10.155  0.1970  0.2933  1.1888
  952MOL0     H25608   6.492   2.744  10.124 -1.7155  1.5188 -1.5353
  952MOL0     H25609   6.267   2.777  10.042  2.9660  2.9433  0.5566
  952MOL0     H25610   6.193   2.810  10.191  0.9179  2.8216 -1.5467
  952MOL0     H25611   6.194   2.601  10.288 -1.4434  0.0508 -0.1759
  952MOL0     H25612   6.321   2.539  10.173  0.3938 -0.5393  1.0258
  952MOL0     H25613   6.053   2.634  10.086 -1.4299 -1.2708  1.7832
  952MOL0     H25614   6.160   2.531   9.989 -3.3680  2.3753 -1.7209
  952MOL0     H25615   6.015   2.420  10.234  2.3875 -1.3714  0.9492
  952MOL0     H25616   6.105   2.330  10.125 -0.7351 -1.8401  2.2398
  952MOL0     H25617   5.965   2.513   9.853  0.4389 -0.1232  1.0405
  952MOL0     H25618   5.637   2.380   9.704 -0.8048  1.6577  0.6888
  952MOL0     H25619   5.801   2.410   9.666  1.9446 -1.5984  1.8686
  952MOL0     H25620   5.668   2.615   9.607 -0.3598 -1.8190 -0.5922
  952MOL0     H25621   5.751   2.663   9.762  2.3234 -0.0252 -1.1774
  952MOL0     H25622   5.476   2.519   9.774 -2.7275  2.2147  2.2825
  952MOL0     H25623   5.584   2.602   9.900  3.0456  2.9837 -0.4229
  952MOL0     H25624   5.366   2.737   9.820 -0.2923  1.0382 -2.1686
  952MOL0     H25625   5.469   2.745   9.672  0.8022  2.5206 -0.3699
  952MOL0     H25626   5.706   3.060   9.868 -0.6488 -1.3569  0.9515
  952MOL0     H25627   5.656   3.286   9.807  0.0222 -0.0321 -3.0367
  952MOL0     H25628   5.333   3.537   9.500 -0.5468 -0.2986  0.8590
  952MOL0     H25629   5.308   3.794   9.443  3.3369 -5.2823 -1.8121
  952MOL0     H25630   5.398   4.005   9.584  0.1205  0.2985  0.3036
  952MOL0     H25631   5.293   4.138   9.643  0.4842  0.9906 -1.4131
  952MOL0     H25632   5.153   4.103   9.420  0.7250  3.5082  0.8593
  952MOL0     H25633   5.282   3.999   9.365 -1.8663  0.1060 -0.4029
  952MOL0     H25634   5.447   4.172   9.415  0.3271  1.1882 -0.8216
  952MOL0     H25635   5.316   4.264   9.495  1.6607 -3.1171  3.4486
  952MOL0     H25636   5.326   4.204   9.189  2.8395 -0.7068  0.3289
  952MOL0     H25637   5.207   4.303   9.282  0.4619  1.2673 -0.8704
  952MOL0     H25638   5.374   4.442   9.150  0.9940  0.7534 -1.0938
  952MOL0     H25639   5.496   4.382   9.267 -0.6922 -1.6543  0.5645
  952MOL0     H25640   5.358   4.492   9.452 -0.2349  2.3715  1.0914
  952MOL0     H25641   5.233   4.523   9.327  0.8059 -0.9725 -1.5548
  952MOL0     H25642   5.384   4.728   9.388  1.1222  0.5516 -0.4186
  952MOL0     H25643   5.514   4.633   9.347  0.4708  0.1079 -0.0624
  952MOL0     H25644   5.304   4.761   9.164 -0.2615  0.8075  0.6259
  952MOL0     H25645   5.419   4.643   9.099  4.2277  1.5258 -0.7337
  952MOL0     H25646   5.165   3.848   9.837  0.8876  0.7010 -1.9973
  952MOL0     H25647   5.198   3.591   9.887 -2.6347 -0.4399 -1.6593
  952MOL0     H25648   5.251   3.179   9.722  0.6703 -0.8724 -0.6594
  952MOL0     H25649   5.300   2.946   9.786  2.0712 -1.5334 -2.5935
  952MOL0     H25650   7.017   2.612  10.237 -3.7397  1.6812  0.1566
  952MOL0     H25651   7.190   2.421  10.284  1.7626 -1.4507  2.9349
  952MOL0     H25652   7.548   2.217  10.526 -1.4491  0.5799  2.8627
  952MOL0     H25653   7.682   2.033  10.553  0.5561  0.6142 -2.9620
  952MOL0     H25654   7.668   1.589  10.501 -0.5287 -1.4511 -2.3429
  952MOL0     H25655   7.530   1.640  10.430  0.2110 -0.6028  0.4180
  952MOL0     H25656   7.523   1.635  10.730 -0.3484 -0.6174 -0.0338
  952MOL0     H25657   7.381   1.604  10.620 -0.8843  0.1207  0.5422
  952MOL0     H25658   7.444   1.399  10.733  0.8910 -1.8101  0.7724
  952MOL0     H25659   7.615   1.415  10.671  0.2501  0.9139  0.2985
  952MOL0     H25660   7.469   1.406  10.439 -2.0965  1.7606  0.7658
  952MOL0     H25661   7.500   1.257  10.537  0.7506  1.5357  2.2015
  952MOL0     H25662   7.089   1.279  10.581  0.6688 -2.4855 -1.1590
  952MOL0     H25663   7.352   1.771  10.470 -2.1273  1.4342 -0.3441
  952MOL0     H25664   7.208   1.972  10.419  0.1529  0.7058 -1.1276
  953MOL0     O25665   3.296  11.054   4.114 -0.1310  0.5111 -0.4866
  953MOL0     C25666   3.406  11.090   4.161 -1.1379  0.7618  0.1470
  953MOL0     O25667   3.477  11.031   4.260  0.5337  0.0385 -0.1978
  953MOL0     C25668   3.443  10.919   4.326  0.5404 -0.4415 -0.2025
  953MOL0     C25669   3.319  10.898   4.390 -0.4416  0.5856 -1.0392
  953MOL0     C25670   3.292  10.782   4.471  0.8790 -0.4007 -0.4297
  953MOL0     C25671   3.389  10.679   4.476  0.2604 -0.6014 -0.1637
  953MOL0     O25672   3.363  10.563   4.552 -0.4071 -0.2048 -0.7498
  953MOL0     C25673   3.467  10.474   4.593 -0.5910  0.3185 -0.0811
  953MOL0     C25674   3.561  10.530   4.697 -0.5451  1.0849  1.1185
  953MOL0     C25675   3.495  10.588   4.825  0.5557 -0.0003  1.0504
  953MOL0     C25676   3.424  10.479   4.911 -0.4611 -0.1342  0.1762
  953MOL0     C25677   3.371  10.537   5.050 -0.4653  0.5526 -0.1241
  953MOL0     C25678   3.247  10.457   5.101 -0.8635 -0.5909 -0.4953
  953MOL0     C25679   3.212  10.498   5.245 -0.4121 -1.3277  0.1475
  953MOL0     C25680   3.155  10.646   5.248 -0.8703 -0.1609 -0.0872
  953MOL0     N25681   3.054  10.651   5.355  0.0600  0.4913  0.4462
  953MOL0     C25682   3.074  10.668   5.494  0.0779  0.4268 -0.0500
  953MOL0     C25683   2.952  10.680   5.555 -0.2213 -0.0934  0.5740
  953MOL0     C25684   2.914  10.704   5.695 -0.4331  0.3795 -0.4879
  953MOL0     C25685   2.858  10.842   5.726 -0.4645  0.2023  0.3852
  953MOL0     C25686   2.949  10.968   5.717 -0.4354  0.8191  0.7629
  953MOL0     C25687   2.861  11.088   5.717  0.2725  0.0362  0.1899
  953MOL0     O25688   2.944  11.206   5.732  1.0521  0.2742  0.2897
  953MOL0     C25689   2.945  11.274   5.849 -0.0192 -1.1361 -0.8694
  953MOL0     C25690   2.844  11.371   5.863 -0.0815  0.5379 -0.9990
  953MOL0     C25691   2.857  11.454   5.984 -0.0922 -0.0009  0.9993
  953MOL0     C25692   2.973  11.450   6.061  0.1127  0.2796  0.7455
  953MOL0     C25693   2.997  11.549   6.162  0.0936  0.6353 -0.7576
  953MOL0     O25694   2.883  11.604   6.221 -0.0424 -0.6053  0.3075
  953MOL0     C25695   2.895  11.714   6.301  0.3525  0.6528 -0.0848
  953MOL0     C25696   2.810  11.706   6.409  0.4615 -0.6913  0.6450
  953MOL0     C25697   2.806  11.818   6.492  0.2069 -0.3987  0.4012
  953MOL0     C25698   2.885  11.929   6.470 -0.0918 -0.0191 -0.2512
  953MOL0     O25699   2.862  12.032   6.556 -0.2221 -0.4899  0.2640
  953MOL0     C25700   2.872  12.164   6.504  0.0035 -0.0821 -0.1943
  953MOL0     C25701   2.748  12.192   6.417 -0.4120  0.1497  0.1014
  953MOL0     C25702   2.637  12.221   6.503  0.0852 -0.0440  0.2936
  953MOL0     C25703   2.505  12.252   6.422 -0.4674  0.0757  0.8650
  953MOL0     C25704   2.368  12.267   6.487 -1.1380 -0.6339  0.1136
  953MOL0     C25705   2.344  12.159   6.599 -0.2360 -0.4794 -1.4888
  953MOL0     C25706   2.203  12.181   6.665 -0.1507 -0.5101 -0.2811
  953MOL0     C25707   2.170  12.060   6.744 -0.9956 -0.0973 -1.2215
  953MOL0    Cl25708   2.280  12.043   6.894 -0.1985 -0.3297  0.1449
  953MOL0     C25709   2.976  11.934   6.370  0.2618  0.0863 -0.1041
  953MOL0     C25710   2.978  11.825   6.280 -1.1649 -0.3145  0.4578
  953MOL0     O25711   3.114  11.579   6.185 -0.0130  0.4161  0.2082
  953MOL0     C25712   3.061  11.346   6.045  1.3869  0.3361 -0.5202
  953MOL0     C25713   3.048  11.254   5.941  0.5129 -0.5974 -0.5702
  953MOL0     N25714   2.858  10.672   5.450 -0.2726  0.5694  0.0296
  953MOL0     N25715   2.916  10.647   5.333  0.6875 -0.7837  0.2008
  953MOL0     C25716   3.521  10.713   4.431 -0.2524  0.6452 -0.3588
  953MOL0     C25717   3.546  10.822   4.347  0.5819  0.2073  0.2764
  953MOL0     C25718   3.473  11.210   4.095 -0.0993 -0.1461  0.2211
  953MOL0     C25719   3.567  11.286   4.167  0.3766 -0.0138  0.7153
  953MOL0     C25720   3.626  11.405   4.112 -0.6421 -0.2677  0.2883
  953MOL0     C25721   3.587  11.446   3.989 -0.4864 -0.2229 -0.2823
  953MOL0     O25722   3.639  11.562   3.929 -0.1692 -0.2634 -0.4732
  953MOL0     C25723   3.595  11.679   3.994  0.0128 -0.5846  0.1717
  953MOL0     C25724   3.592  11.807   3.904 -0.0562  0.3754  0.4446
  953MOL0     C25725   3.736  11.859   3.881  0.7918 -0.9063 -0.4875
  953MOL0     C25726   3.808  11.912   4.009 -0.1187  0.4477 -1.2655
  953MOL0     C25727   3.744  12.033   4.071 -0.1576  0.8468 -0.1938
  953MOL0     C25728   3.687  12.138   4.108 -0.8922 -0.2721  0.5992
  953MOL0     C25729   3.499  11.365   3.915  0.5017  0.5789  0.0379
  953MOL0     C25730   3.425  11.257   3.967  0.5082 -1.1380 -0.5948
  953MOL0     H25731   3.250  10.983   4.391  0.7616  1.6942  2.6007
  953MOL0     H25732   3.195  10.777   4.520  1.6858 -0.9615  1.1813
  953MOL0     H25733   3.531  10.439   4.511  1.0325 -3.1405  2.4330
  953MOL0     H25734   3.415  10.387   4.632 -3.7582  1.5550 -1.2082
  953MOL0     H25735   3.627  10.609   4.659 -1.6073  1.3919 -0.1769
  953MOL0     H25736   3.613  10.438   4.724 -2.1398 -0.7800 -1.6018
  953MOL0     H25737   3.427  10.668   4.794 -0.3572 -0.8352  0.8390
  953MOL0     H25738   3.577  10.634   4.880  1.0184 -1.9874  2.1330
  953MOL0     H25739   3.342  10.438   4.851  1.0984  2.4781 -4.3265
  953MOL0     H25740   3.494  10.398   4.932 -1.0011 -0.0473  2.6204
  953MOL0     H25741   3.354  10.645   5.053  1.9169  0.9817  0.4535
  953MOL0     H25742   3.457  10.512   5.113 -1.2424 -1.6218  0.1368
  953MOL0     H25743   3.273  10.350   5.104  3.2967  0.2596  0.6977
  953MOL0     H25744   3.161  10.467   5.034 -1.2621 -2.4606 -0.3277
  953MOL0     H25745   3.149  10.422   5.292  0.0611 -1.4610  0.5819
  953MOL0     H25746   3.308  10.498   5.298 -0.2671  0.5850 -0.0409
  953MOL0     H25747   3.104  10.645   5.151 -1.5949 -0.0971  0.2883
  953MOL0     H25748   3.234  10.720   5.262  1.1635 -2.4338  1.2179
  953MOL0     H25749   3.173  10.651   5.536 -1.1754 -0.9791  2.6603
  953MOL0     H25750   2.994  10.681   5.766  0.0430  1.5736 -0.6174
  953MOL0     H25751   2.838  10.628   5.710  0.2866 -0.4561 -0.9530
  953MOL0     H25752   2.838  10.836   5.834  0.9445 -0.3852  0.6292
  953MOL0     H25753   2.773  10.862   5.660  0.4682  2.7672 -0.1534
  953MOL0     H25754   3.021  10.970   5.799  0.5181  4.4220  0.0512
  953MOL0     H25755   3.001  10.968   5.620 -1.1362 -0.6702  0.3650
  953MOL0     H25756   2.781  11.100   5.791 -1.9018 -0.3318 -1.9609
  953MOL0     H25757   2.806  11.094   5.622 -0.4240  0.1551  0.5970
  953MOL0     H25758   2.756  11.375   5.799 -1.2162 -0.9770  0.3853
  953MOL0     H25759   2.776  11.524   6.002 -1.5294 -0.8665 -1.4647
  953MOL0     H25760   2.741  11.622   6.403 -1.7309  1.1286 -2.7931
  953MOL0     H25761   2.727  11.831   6.565  1.4259  0.2007  1.6758
  953MOL0     H25762   2.965  12.185   6.452  1.2788  0.3861  2.1303
  953MOL0     H25763   2.872  12.232   6.590 -0.4678  1.1559 -1.1327
  953MOL0     H25764   2.731  12.106   6.351 -0.2852  0.6143 -0.5475
  953MOL0     H25765   2.778  12.283   6.364 -0.4272 -0.0456 -0.2506
  953MOL0     H25766   2.665  12.302   6.571  3.6588  1.7830 -3.0176
  953MOL0     H25767   2.615  12.123   6.546  0.5180  0.4036  1.5774
  953MOL0     H25768   2.516  12.337   6.354 -0.2417  0.4533  1.3643
  953MOL0     H25769   2.494  12.168   6.352  2.2467 -2.4825  3.1850
  953MOL0     H25770   2.288  12.257   6.412 -1.0960  0.9605 -0.1735
  953MOL0     H25771   2.367  12.370   6.523 -0.8706 -0.6552  0.1815
  953MOL0     H25772   2.415  12.170   6.681 -3.8396  0.0567  1.9087
  953MOL0     H25773   2.351  12.057   6.561 -0.5989  0.3027 -3.8422
  953MOL0     H25774   2.198  12.275   6.720 -3.2672 -1.7104  1.7608
  953MOL0     H25775   2.123  12.193   6.592 -1.6196 -1.8784  1.0364
  953MOL0     H25776   2.169  11.962   6.695  0.6194 -0.1218 -1.2639
  953MOL0     H25777   2.070  12.082   6.782  0.6324  2.2832  2.2398
  953MOL0     H25778   3.043  12.017   6.352  0.2420 -0.0868 -1.0388
  953MOL0     H25779   3.023  11.835   6.182 -2.3133  1.6007  0.0673
  953MOL0     H25780   3.151  11.337   6.106  2.4495 -0.2136 -2.0962
  953MOL0     H25781   3.122  11.177   5.925 -1.1066 -2.4216  0.3498
  953MOL0     H25782   3.599  10.638   4.441 -2.8353 -2.0598  0.9585
  953MOL0     H25783   3.642  10.832   4.298  0.3650  1.4400  0.0766
  953MOL0     H25784   3.600  11.257   4.266  2.5527  5.1118  1.8127
  953MOL0     H25785   3.697  11.470   4.161  1.3111 -1.5813 -0.6521
  953MOL0     H25786   3.660  11.685   4.081 -0.4455  0.0524  0.4724
  953MOL0     H25787   3.491  11.679   4.027 -0.3871 -1.0018 -1.0228
  953MOL0     H25788   3.540  11.786   3.809  1.5194  2.4847 -0.9770
  953MOL0     H25789   3.536  11.888   3.951 -2.6785 -0.1266 -1.5509
  953MOL0     H25790   3.716  11.939   3.809  0.6735  0.7211  1.2682
  953MOL0     H25791   3.797  11.784   3.830  0.3340 -1.1661 -0.6579
  953MOL0     H25792   3.819  11.829   4.079 -0.2384 -0.6727 -2.5178
  953MOL0     H25793   3.906  11.934   3.966  0.5520 -3.5341 -2.2557
  953MOL0     H25794   3.655  12.235   4.139  1.3027 -0.5644  4.4932
  953MOL0     H25795   3.469  11.404   3.819  2.3357  0.6380 -0.5468
  953MOL0     H25796   3.348  11.223   3.898 -0.1355  1.0251 -1.0320
  954MOL0     O25797   6.951   6.668   6.347  0.6267 -0.3906  0.0126
  954MOL0     C25798   7.056   6.610   6.326 -0.7149 -0.0069 -0.4480
  954MOL0     O25799   7.136   6.552   6.411  0.3420 -0.2951  0.1830
  954MOL0     C25800   7.089   6.549   6.546 -0.1391  0.1274  0.3609
  954MOL0     C25801   7.093   6.432   6.620 -0.2639 -0.0690 -0.7851
  954MOL0     C25802   7.093   6.425   6.756 -0.3105 -0.0020 -0.3804
  954MOL0     C25803   7.070   6.543   6.831 -0.3442  0.3623  0.5613
  954MOL0     O25804   7.071   6.552   6.968  0.1681 -0.0071  0.3478
  954MOL0     C25805   7.151   6.448   7.036  0.1592  0.7619  0.9314
  954MOL0     C25806   7.198   6.520   7.161 -0.2356 -0.9607 -0.9211
  954MOL0     C25807   7.088   6.600   7.240  1.0665  0.7200  0.0723
  954MOL0     C25808   7.150   6.652   7.373  1.0416  0.3643 -0.2620
  954MOL0     C25809   7.069   6.773   7.433 -0.6405 -0.4690 -0.1040
  954MOL0     C25810   7.124   6.809   7.571  0.2807 -0.0283 -0.4928
  954MOL0     C25811   7.111   6.961   7.597  0.4254 -0.3400  1.3417
  954MOL0     C25812   6.965   7.003   7.629  0.3792  0.3916  0.3560
  954MOL0     N25813   6.956   7.136   7.683 -0.9645 -0.1802 -0.4601
  954MOL0     C25814   6.951   7.261   7.617  0.9452  0.2796  0.4602
  954MOL0     C25815   6.976   7.356   7.713  0.4335  1.1679  0.4572
  954MOL0     C25816   6.991   7.501   7.693 -0.0700 -1.1512  0.2202
  954MOL0     C25817   6.862   7.588   7.673  0.0817  0.4689  0.3828
  954MOL0     C25818   6.914   7.720   7.603 -0.5888  0.0915  0.2984
  954MOL0     C25819   6.806   7.823   7.571  0.3631  0.2579 -0.8170
  954MOL0     O25820   6.764   7.884   7.694 -0.1147 -0.2351 -0.5192
  954MOL0     C25821   6.837   7.983   7.745 -0.2443 -0.4055 -0.2659
  954MOL0     C25822   6.870   8.112   7.691 -0.5222  0.1054  0.1922
  954MOL0     C25823   6.960   8.194   7.766  0.3668  0.8564 -0.3230
  954MOL0     C25824   7.003   8.165   7.897  0.2269 -0.5667  0.0774
  954MOL0     C25825   7.101   8.261   7.967  0.3502  0.2309 -0.2025
  954MOL0     O25826   7.138   8.226   8.088  0.1324  1.2252  0.2390
  954MOL0     C25827   7.221   8.307   8.154  0.1203  0.8801 -0.3773
  954MOL0     C25828   7.362   8.292   8.147  0.6913 -1.3792  0.3481
  954MOL0     C25829   7.437   8.393   8.223 -0.8622 -0.4257 -0.4336
  954MOL0     C25830   7.383   8.489   8.299 -0.1267 -0.0125  0.7445
  954MOL0     O25831   7.472   8.568   8.367 -0.0669  0.4975 -0.2055
  954MOL0     C25832   7.420   8.671   8.451  0.4419 -0.1133  0.2595
  954MOL0     C25833   7.532   8.737   8.526  0.1240 -0.6382 -0.1567
  954MOL0     C25834   7.498   8.875   8.586  0.1282  0.1084 -0.4274
  954MOL0     C25835   7.609   8.952   8.666  0.1798  0.1379 -0.6511
  954MOL0     C25836   7.539   9.065   8.740 -0.4507 -1.3636 -0.2033
  954MOL0     C25837   7.649   9.147   8.827  0.0491 -0.1015  0.8024
  954MOL0     C25838   7.596   9.267   8.899 -0.2502 -0.6631 -0.1411
  954MOL0     C25839   7.711   9.344   8.978  0.2416 -0.2443 -0.1463
  954MOL0    Cl25840   7.612   9.491   9.045  0.1675 -0.3383 -0.1750
  954MOL0     C25841   7.234   8.496   8.307 -0.5694 -0.8136  0.6301
  954MOL0     C25842   7.161   8.407   8.225  0.6667 -0.5374 -0.1416
  954MOL0     O25843   7.140   8.360   7.911  0.2175  0.6221  0.1473
  954MOL0     C25844   6.947   8.053   7.952 -0.1596  0.5743 -0.2975
  954MOL0     C25845   6.876   7.958   7.875 -0.5896  0.6025 -0.5953
  954MOL0     N25846   7.001   7.291   7.828  0.0208 -0.0588  0.2586
  954MOL0     N25847   6.997   7.165   7.809  0.3310  0.7422 -0.3759
  954MOL0     C25848   7.053   6.660   6.766 -0.3762 -0.7199 -0.0967
  954MOL0     C25849   7.079   6.669   6.624 -0.0149 -0.1279 -0.0667
  954MOL0     C25850   7.111   6.603   6.187 -1.0124 -0.7247 -0.7612
  954MOL0     C25851   7.042   6.664   6.089  0.5047 -0.2687  0.4282
  954MOL0     C25852   7.083   6.658   5.953  0.2780 -0.0515 -0.6076
  954MOL0     C25853   7.214   6.610   5.918 -0.8561 -0.4583  0.0870
  954MOL0     O25854   7.272   6.626   5.789 -0.2904  0.2288 -0.4645
  954MOL0     C25855   7.187   6.678   5.687  0.7264 -0.1424 -0.0532
  954MOL0     C25856   7.271   6.703   5.570 -1.3452 -0.3245  1.1303
  954MOL0     C25857   7.185   6.742   5.450  0.6427  0.3690  1.1907
  954MOL0     C25858   7.085   6.861   5.478  0.1114 -0.4324 -0.0864
  954MOL0     C25859   7.028   6.911   5.344  0.9311 -0.1160 -0.8719
  954MOL0     C25860   6.971   6.927   5.235  0.4793  0.4872  0.4729
  954MOL0     C25861   7.281   6.539   6.023 -0.1631 -0.0476  0.2170
  954MOL0     C25862   7.220   6.527   6.149  0.1217 -0.5374  0.1786
  954MOL0     H25863   7.103   6.342   6.561 -2.0892  1.5982 -3.9375
  954MOL0     H25864   7.111   6.326   6.797 -0.7587  0.2810  0.5368
  954MOL0     H25865   7.233   6.410   6.975 -2.8783 -2.4534 -1.5339
  954MOL0     H25866   7.102   6.356   7.069  1.8251 -1.3024 -1.9327
  954MOL0     H25867   7.274   6.590   7.125  0.8701 -1.6309  0.0421
  954MOL0     H25868   7.255   6.450   7.222  0.8072  0.9446  0.4167
  954MOL0     H25869   7.012   6.523   7.255  3.4762 -2.6994 -3.3051
  954MOL0     H25870   7.052   6.680   7.174  2.5537  1.3360 -0.0274
  954MOL0     H25871   7.146   6.572   7.447  0.9570 -0.5105 -1.1784
  954MOL0     H25872   7.258   6.669   7.364  0.8465  2.4300  0.7192
  954MOL0     H25873   6.961   6.752   7.441 -0.9291  0.7590 -0.5673
  954MOL0     H25874   7.084   6.854   7.362 -0.4193 -1.3522 -1.0835
  954MOL0     H25875   7.231   6.785   7.568  0.1445 -0.9429  0.8792
  954MOL0     H25876   7.080   6.757   7.657  1.1647  1.2346  0.7711
  954MOL0     H25877   7.171   6.980   7.686  1.3885 -0.6679  0.7728
  954MOL0     H25878   7.159   7.009   7.511  2.7906 -2.5502  1.2849
  954MOL0     H25879   6.929   6.941   7.713 -0.9457 -4.5725 -3.3542
  954MOL0     H25880   6.896   6.987   7.546  0.8063 -0.5830  0.1763
  954MOL0     H25881   6.941   7.279   7.510 -0.9659 -3.6071 -0.1618
  954MOL0     H25882   7.063   7.500   7.610  1.1894 -2.9292  1.2675
  954MOL0     H25883   7.059   7.541   7.768  1.4233 -1.3516 -0.9672
  954MOL0     H25884   6.828   7.602   7.775 -4.6265  0.4247 -0.9651
  954MOL0     H25885   6.788   7.530   7.617  0.0676  0.5462  0.3190
  954MOL0     H25886   6.995   7.765   7.661 -0.2575 -0.9361  0.6616
  954MOL0     H25887   6.955   7.698   7.504  2.0191 -1.5108  1.6138
  954MOL0     H25888   6.717   7.778   7.525  0.2362 -1.1630  0.7045
  954MOL0     H25889   6.860   7.896   7.510  1.3412  0.0751 -0.1964
  954MOL0     H25890   6.834   8.132   7.591  1.1495  0.7938 -0.3008
  954MOL0     H25891   6.989   8.280   7.707  1.8023  0.3789 -0.3481
  954MOL0     H25892   7.422   8.221   8.091  1.5217 -0.0552 -0.5092
  954MOL0     H25893   7.545   8.382   8.216 -0.6613  0.0578  1.3619
  954MOL0     H25894   7.359   8.633   8.533  2.9642  0.8148  2.7162
  954MOL0     H25895   7.365   8.745   8.392  1.3296  1.7363  1.6581
  954MOL0     H25896   7.613   8.740   8.452  0.7972  2.9124  0.5550
  954MOL0     H25897   7.566   8.666   8.601  0.2517 -1.0842 -0.6270
  954MOL0     H25898   7.407   8.856   8.645 -1.2708 -1.0644 -2.8156
  954MOL0     H25899   7.465   8.938   8.503 -1.0899 -0.7037 -0.5970
  954MOL0     H25900   7.654   8.891   8.745 -3.1241 -1.8489 -0.0987
  954MOL0     H25901   7.683   8.986   8.593  1.3813  1.4925  1.1342
  954MOL0     H25902   7.461   9.031   8.810 -1.3437  0.4679 -0.2354
  954MOL0     H25903   7.483   9.130   8.673  1.2262  0.2393 -0.1199
  954MOL0     H25904   7.716   9.195   8.756 -1.4421  3.4777  1.5864
  954MOL0     H25905   7.712   9.081   8.887 -1.3601 -2.2019  0.1051
  954MOL0     H25906   7.565   9.342   8.825 -1.3681  0.9233  1.8222
  954MOL0     H25907   7.509   9.248   8.963 -0.7199  1.8359  0.0668
  954MOL0     H25908   7.797   9.374   8.918  0.8898 -2.3495 -0.3380
  954MOL0     H25909   7.755   9.278   9.053  2.2548  2.3048  1.1164
  954MOL0     H25910   7.182   8.570   8.368 -1.9186 -1.0848 -0.1799
  954MOL0     H25911   7.053   8.406   8.236  0.2431 -0.7292 -3.3987
  954MOL0     H25912   6.969   8.034   8.056 -3.1023  1.1903  0.5244
  954MOL0     H25913   6.858   7.863   7.925  1.4942  1.8041  2.8296
  954MOL0     H25914   7.032   6.744   6.831  0.8741 -0.9109  0.5816
  954MOL0     H25915   7.078   6.766   6.574  0.3313  1.2840  2.4886
  954MOL0     H25916   6.952   6.718   6.116 -0.2497  0.4045 -2.9672
  954MOL0     H25917   7.016   6.710   5.886 -0.3115  0.6314  0.4695
  954MOL0     H25918   7.142   6.772   5.720 -2.6311 -1.9988  1.1477
  954MOL0     H25919   7.109   6.603   5.669  0.0761  0.5856 -0.2713
  954MOL0     H25920   7.339   6.782   5.604  1.5399 -2.2253  0.1110
  954MOL0     H25921   7.332   6.618   5.541 -0.6623  0.3385  0.6004
  954MOL0     H25922   7.132   6.656   5.408  2.2462  0.4073 -1.1092
  954MOL0     H25923   7.251   6.770   5.368  0.4683 -0.6784  0.6768
  954MOL0     H25924   7.000   6.837   5.543 -0.5227 -0.2813 -0.8467
  954MOL0     H25925   7.126   6.941   5.541 -0.8240 -0.4268  0.5328
  954MOL0     H25926   6.915   6.937   5.144 -2.7447 -0.3506  2.2312
  954MOL0     H25927   7.377   6.499   5.993 -0.9151  0.7904 -4.0399
  954MOL0     H25928   7.274   6.473   6.226 -0.0177  0.8539  1.2996
  955MOL0     O25929   4.845   4.106   9.368 -0.6983  0.2719 -0.1627
  955MOL0     C25930   4.876   4.044   9.467 -0.3934 -1.3560  0.3840
  955MOL0     O25931   4.926   4.105   9.580  0.0367 -0.7541  0.1065
  955MOL0     C25932   4.924   4.244   9.612 -0.4797 -0.1444  1.0795
  955MOL0     C25933   4.825   4.335   9.566 -0.4288  0.0274 -0.3873
  955MOL0     C25934   4.843   4.473   9.577  0.0106  0.4472  0.2205
  955MOL0     C25935   4.950   4.531   9.641 -1.3413  0.1484 -0.0711
  955MOL0     O25936   4.979   4.667   9.649 -0.6237 -0.5300  0.0636
  955MOL0     C25937   4.878   4.756   9.593  0.6933 -0.2852  0.0839
  955MOL0     C25938   4.739   4.777   9.669 -1.0910  0.4288 -0.0365
  955MOL0     C25939   4.636   4.833   9.572 -0.4394  0.3015 -0.2601
  955MOL0     C25940   4.499   4.826   9.629 -0.0832  1.1559  0.3308
  955MOL0     C25941   4.479   4.895   9.756 -0.4314 -0.5620  0.0410
  955MOL0     C25942   4.345   4.853   9.828 -0.0435 -0.5111 -0.4744
  955MOL0     C25943   4.318   4.906   9.972 -0.1036  0.4856 -0.1498
  955MOL0     C25944   4.393   5.040  10.012 -0.0873  0.3696 -0.2794
  955MOL0     N25945   4.367   5.059  10.156 -0.6463 -0.4806  0.2756
  955MOL0     C25946   4.378   5.177  10.228  0.3458  0.3021  0.2728
  955MOL0     C25947   4.335   5.137  10.353 -0.1152  0.2004 -0.4415
  955MOL0     C25948   4.321   5.235  10.465  0.4516 -0.1987 -0.5987
  955MOL0     C25949   4.437   5.219  10.563 -0.4995  0.0094 -0.1998
  955MOL0     C25950   4.437   5.296  10.691  0.4752  0.3262 -0.5188
  955MOL0     C25951   4.565   5.289  10.778 -0.3725 -0.0537 -1.0184
  955MOL0     O25952   4.554   5.381  10.884  0.7620  0.5666  0.6417
  955MOL0     C25953   4.605   5.505  10.861 -0.4610  0.4288 -0.1087
  955MOL0     C25954   4.635   5.561  10.736  0.4797  0.3374 -0.8985
  955MOL0     C25955   4.715   5.678  10.731  0.0090  0.7213 -0.6721
  955MOL0     C25956   4.752   5.745  10.848  0.0010  0.5122  0.6063
  955MOL0     C25957   4.813   5.879  10.834  0.0538 -0.3457  0.5408
  955MOL0     O25958   4.838   5.940  10.955  0.8397  0.4250 -0.1886
  955MOL0     C25959   4.873   6.073  10.959  0.7040  0.5458 -0.3058
  955MOL0     C25960   5.006   6.102  10.985 -0.3083  0.1102  0.5531
  955MOL0     C25961   5.044   6.239  11.005 -0.2080  0.3544  0.9550
  955MOL0     C25962   4.949   6.343  11.023  0.7500  0.2934  0.7988
  955MOL0     O25963   4.999   6.468  11.053 -0.3646 -0.3789 -0.3834
  955MOL0     C25964   4.963   6.528  11.174 -0.1954 -0.0848  0.2626
  955MOL0     C25965   5.026   6.666  11.192 -0.6926 -0.3388 -0.6363
  955MOL0     C25966   4.991   6.724  11.328 -0.4369 -0.6014 -0.6548
  955MOL0     C25967   5.103   6.682  11.431  0.2983  0.2006  0.1917
  955MOL0     C25968   5.203   6.790  11.460  0.2637  0.1097  0.2544
  955MOL0     C25969   5.334   6.737  11.524 -0.1919 -0.1191  0.2527
  955MOL0     C25970   5.413   6.640  11.425  0.4617  0.2155 -0.9293
  955MOL0     C25971   5.440   6.699  11.281 -0.3280 -0.0005 -1.1510
  955MOL0    Cl25972   5.539   6.858  11.308  0.4688 -0.1097 -0.0826
  955MOL0     C25973   4.813   6.314  10.999  0.0057 -0.5797  0.0362
  955MOL0     C25974   4.777   6.179  10.967 -0.2072  0.0898  0.0386
  955MOL0     O25975   4.853   5.928  10.726  0.2477 -0.2422  0.3898
  955MOL0     C25976   4.704   5.696  10.969  0.8485 -0.5302 -0.1008
  955MOL0     C25977   4.641   5.575  10.976 -0.5159  0.7695  0.1348
  955MOL0     N25978   4.310   5.005  10.356  1.4358 -0.4946  0.0246
  955MOL0     N25979   4.328   4.957  10.242  0.6118 -0.9356  0.3508
  955MOL0     C25980   5.040   4.440   9.701 -0.0939  0.3405  0.3106
  955MOL0     C25981   5.029   4.302   9.685  0.6409 -0.2134  0.9189
  955MOL0     C25982   4.888   3.901   9.453  0.4788 -0.1499 -0.2738
  955MOL0     C25983   4.911   3.824   9.569 -0.3088  0.3675  0.7873
  955MOL0     C25984   4.949   3.685   9.554  0.5374 -0.7615 -0.3923
  955MOL0     C25985   4.955   3.632   9.428 -0.4843  0.2290  0.5738
  955MOL0     O25986   4.963   3.492   9.411 -0.0514 -1.0088 -0.1610
  955MOL0     C25987   4.838   3.438   9.400  1.1451 -0.1665 -0.9349
  955MOL0     C25988   4.836   3.283   9.421  0.1290  1.1922 -0.1145
  955MOL0     C25989   4.948   3.205   9.347  0.2860 -0.1934 -0.6709
  955MOL0     C25990   4.926   3.055   9.350  0.8750  0.4785 -0.3585
  955MOL0     C25991   4.916   2.995   9.481 -1.1117  0.0102  0.1684
  955MOL0     C25992   4.897   2.938   9.587 -0.0801  1.1237 -0.1579
  955MOL0     C25993   4.937   3.707   9.314  0.1964 -0.5196  1.5252
  955MOL0     C25994   4.900   3.844   9.323 -0.9925  0.5049 -0.9907
  955MOL0     H25995   4.727   4.307   9.529 -1.2489  0.0800  1.6271
  955MOL0     H25996   4.761   4.534   9.541  0.3918  0.5385 -0.5069
  955MOL0     H25997   4.870   4.733   9.486  3.2237  1.8734 -0.6920
  955MOL0     H25998   4.921   4.855   9.578  0.9793 -0.5439 -0.8415
  955MOL0     H25999   4.758   4.848   9.750 -0.3881  0.1072  0.0869
  955MOL0     H26000   4.719   4.682   9.718  2.4007  0.4572  1.7508
  955MOL0     H26001   4.644   4.772   9.482 -1.3981  0.4345 -0.4400
  955MOL0     H26002   4.667   4.935   9.548  3.2157 -0.6343 -0.1336
  955MOL0     H26003   4.437   4.861   9.546  1.0956 -1.6493 -1.8997
  955MOL0     H26004   4.471   4.721   9.646 -0.0782  1.2594  0.9909
  955MOL0     H26005   4.473   5.004   9.743  0.2735 -0.5685 -0.3904
  955MOL0     H26006   4.550   4.865   9.833 -3.1801 -0.8382  2.6576
  955MOL0     H26007   4.350   4.744   9.822 -0.5613 -0.5586 -0.1281
  955MOL0     H26008   4.267   4.892   9.761 -0.5665 -1.8495 -0.6894
  955MOL0     H26009   4.211   4.905   9.992  0.3124  1.6874  2.5868
  955MOL0     H26010   4.363   4.822  10.026  0.4556 -0.5076 -2.0484
  955MOL0     H26011   4.358   5.124   9.953  1.1114  0.3891 -0.9839
  955MOL0     H26012   4.499   5.027   9.988  0.3481  2.0882  0.5699
  955MOL0     H26013   4.399   5.282  10.209  2.2922  0.2204  1.6981
  955MOL0     H26014   4.225   5.219  10.516  0.2984 -2.6708 -1.5286
  955MOL0     H26015   4.327   5.336  10.423  1.4754  0.5067  1.1601
  955MOL0     H26016   4.527   5.249  10.507 -1.1809  1.3975 -0.5985
  955MOL0     H26017   4.448   5.112  10.584 -0.8349 -0.0823 -0.4838
  955MOL0     H26018   4.416   5.402  10.673  0.0482  0.1213 -1.2808
  955MOL0     H26019   4.357   5.259  10.755  0.1181  3.7346  1.2376
  955MOL0     H26020   4.649   5.305  10.709 -0.5266 -2.2104 -1.7807
  955MOL0     H26021   4.583   5.188  10.816 -0.3049 -0.1813 -1.3828
  955MOL0     H26022   4.609   5.518  10.640  1.0707  4.8737 -3.3824
  955MOL0     H26023   4.749   5.721  10.637  0.8864  0.7180 -0.3650
  955MOL0     H26024   5.087   6.029  10.983  1.1775  1.3811  4.4254
  955MOL0     H26025   5.149   6.259  10.988 -0.8199  2.8193 -0.4507
  955MOL0     H26026   4.985   6.459  11.256 -0.5439 -1.2075 -0.5583
  955MOL0     H26027   4.854   6.527  11.184 -0.1960 -3.9456  2.0104
  955MOL0     H26028   4.999   6.743  11.119 -0.0237  0.2434 -0.2838
  955MOL0     H26029   5.135   6.658  11.187 -0.7811 -2.5788  0.0057
  955MOL0     H26030   4.884   6.703  11.340 -0.4863  0.5586  1.2156
  955MOL0     H26031   4.998   6.833  11.320 -2.4754 -0.0771  2.6859
  955MOL0     H26032   5.043   6.687  11.523  1.0669  1.6052  0.6519
  955MOL0     H26033   5.148   6.585  11.408  0.4401  0.5920 -1.2892
  955MOL0     H26034   5.161   6.858  11.535  2.7306  0.7982  1.1228
  955MOL0     H26035   5.235   6.847  11.373 -1.6786  3.7673  1.7386
  955MOL0     H26036   5.317   6.684  11.618  2.2085 -1.6333 -0.0919
  955MOL0     H26037   5.395   6.825  11.546  1.7313 -0.8686 -1.6921
  955MOL0     H26038   5.507   6.613  11.474 -0.3364 -0.9245  0.0635
  955MOL0     H26039   5.359   6.545  11.416  0.4631  0.4047 -3.6799
  955MOL0     H26040   5.342   6.711  11.235 -1.4921 -2.0953  0.5653
  955MOL0     H26041   5.509   6.630  11.232 -0.5457 -0.0321 -1.4126
  955MOL0     H26042   4.742   6.397  11.001 -0.2094 -0.6326 -2.4626
  955MOL0     H26043   4.677   6.142  10.950  0.4446 -1.6562 -0.2996
  955MOL0     H26044   4.699   5.749  11.064 -2.5345  0.4471 -0.6815
  955MOL0     H26045   4.598   5.537  11.068  3.0810  0.3101  1.8019
  955MOL0     H26046   5.120   4.477   9.765 -0.0069 -1.1192  1.0752
  955MOL0     H26047   5.103   4.248   9.743 -0.7845 -0.2004  2.8525
  955MOL0     H26048   4.922   3.875   9.664  2.1444 -0.3951  0.9850
  955MOL0     H26049   4.984   3.627   9.639  2.5214 -0.5078 -0.9730
  955MOL0     H26050   4.808   3.453   9.296 -0.2147 -0.6732 -0.6340
  955MOL0     H26051   4.757   3.462   9.470 -0.2390 -1.4539 -2.0111
  955MOL0     H26052   4.833   3.258   9.527 -0.6173 -2.1502 -0.8114
  955MOL0     H26053   4.740   3.246   9.384  1.7820 -2.7962 -0.8696
  955MOL0     H26054   5.039   3.238   9.398 -0.8161  3.3840 -0.7410
  955MOL0     H26055   4.968   3.231   9.243  0.5186  0.1842 -0.5340
  955MOL0     H26056   4.845   3.025   9.284  1.4945 -3.4660  0.4416
  955MOL0     H26057   5.016   3.025   9.296  2.5176  1.2110  1.7794
  955MOL0     H26058   4.877   2.900   9.685 -1.5658 -0.1577 -0.9192
  955MOL0     H26059   4.957   3.655   9.221  1.5239  0.7054  1.0902
  955MOL0     H26060   4.896   3.905   9.233  3.2525  0.1250 -1.6457
  956MOL0     O26061   4.227   0.627   4.690  0.5110  0.2660  0.5246
  956MOL0     C26062   4.248   0.715   4.781  0.6258  0.3144  0.6801
  956MOL0     O26063   4.368   0.712   4.856  1.0689 -0.4203  0.0789
  956MOL0     C26064   4.459   0.613   4.837  0.9056  0.8058 -0.2531
  956MOL0     C26065   4.449   0.484   4.892  0.3279  0.2273 -0.4429
  956MOL0     C26066   4.552   0.394   4.881  0.3329  0.3413 -0.1902
  956MOL0     C26067   4.671   0.409   4.812  0.2009 -0.1883  0.6653
  956MOL0     O26068   4.785   0.334   4.815  0.8560 -0.1056 -0.3369
  956MOL0     C26069   4.846   0.308   4.689 -0.4484 -0.3690  0.0490
  956MOL0     C26070   4.954   0.202   4.695 -0.0710 -0.2316 -0.2096
  956MOL0     C26071   5.071   0.260   4.779  0.1256 -0.3037  0.4562
  956MOL0     C26072   5.152   0.141   4.819  2.0742 -0.0016 -0.2476
  956MOL0     C26073   5.289   0.183   4.866 -0.7116 -0.3361  0.0173
  956MOL0     C26074   5.345   0.083   4.968 -0.7374  0.5298 -1.0305
  956MOL0     C26075   5.497   0.113   5.007  0.3180  0.3493  0.1906
  956MOL0     C26076   5.531   0.235   5.083  0.6501  0.5805 -0.4055
  956MOL0     N26077   5.666   0.250   5.128 -0.2561  0.5474  0.6010
  956MOL0     C26078   5.747   0.166   5.198  0.1643  0.2395  0.4348
  956MOL0     C26079   5.865   0.237   5.191 -0.3135  0.0757 -0.1865
  956MOL0     C26080   5.991   0.210   5.265 -0.5048  0.8381 -0.2569
  956MOL0     C26081   5.960   0.199   5.406 -0.4073  0.6311 -0.5910
  956MOL0     C26082   5.961   0.346   5.484 -0.0654  0.7645  0.2405
  956MOL0     C26083   6.009   0.317   5.634 -0.2289  0.2963  0.1243
  956MOL0     O26084   5.975   0.427   5.724 -0.6557 -0.1885  0.0849
  956MOL0     C26085   6.052   0.543   5.729  0.5240 -0.2682  0.3819
  956MOL0     C26086   5.985   0.666   5.713  1.0124 -0.1912 -0.2215
  956MOL0     C26087   6.051   0.789   5.727 -0.0892  0.0731  0.2580
  956MOL0     C26088   6.187   0.791   5.756 -0.3300 -0.6740  0.4274
  956MOL0     C26089   6.251   0.920   5.796  1.0894  0.0891  0.6596
  956MOL0     O26090   6.179   1.028   5.757  0.2729 -0.0590 -0.1181
  956MOL0     C26091   6.230   1.160   5.757 -0.3571 -0.0007  0.8553
  956MOL0     C26092   6.144   1.265   5.764  0.5898 -0.1596  0.0320
  956MOL0     C26093   6.184   1.403   5.752  0.1224  0.3680 -0.0285
  956MOL0     C26094   6.319   1.428   5.740 -0.2021 -0.1814  0.6415
  956MOL0     O26095   6.349   1.555   5.749  0.1521 -0.1428 -0.4916
  956MOL0     C26096   6.414   1.615   5.637  0.5042  0.0706  0.2425
  956MOL0     C26097   6.499   1.729   5.689  0.6061  0.6325 -1.3731
  956MOL0     C26098   6.582   1.800   5.580 -0.5958 -0.0884  0.0055
  956MOL0     C26099   6.631   1.942   5.620  0.3655 -1.1223 -0.3959
  956MOL0     C26100   6.693   2.021   5.511  0.1511  0.5682  0.5567
  956MOL0     C26101   6.612   2.132   5.444  0.0659  0.6702 -0.0330
  956MOL0     C26102   6.691   2.185   5.321  0.6458  1.2944  0.0805
  956MOL0     C26103   6.623   2.307   5.261 -0.5102 -0.3481  0.3870
  956MOL0    Cl26104   6.464   2.283   5.185 -0.5647 -0.1834 -0.4891
  956MOL0     C26105   6.417   1.326   5.713  0.2399 -1.2593  0.3500
  956MOL0     C26106   6.375   1.195   5.728  0.3934 -0.2218  0.1257
  956MOL0     O26107   6.365   0.918   5.836  0.0504  0.7388 -0.2520
  956MOL0     C26108   6.255   0.668   5.750  0.2171 -0.0536  0.3008
  956MOL0     C26109   6.189   0.546   5.745  0.3125  0.4479  0.0073
  956MOL0     N26110   5.855   0.356   5.120 -0.1909  0.3837  0.0797
  956MOL0     N26111   5.737   0.356   5.082 -0.5391 -0.7851 -0.0307
  956MOL0     C26112   4.685   0.538   4.764  0.2470 -0.1358  0.2975
  956MOL0     C26113   4.581   0.635   4.776 -0.5532 -0.1837  0.7442
  956MOL0     C26114   4.163   0.842   4.787  0.0962  0.8136  0.2107
  956MOL0     C26115   4.078   0.876   4.683  0.6813 -0.1632 -0.0259
  956MOL0     C26116   4.010   1.006   4.674  0.7191  0.6911 -1.0896
  956MOL0     C26117   4.023   1.096   4.794 -0.5269  0.0651  0.8530
  956MOL0     O26118   3.952   1.211   4.794 -0.2404  0.2953  0.8266
  956MOL0     C26119   3.966   1.314   4.897  0.0985  0.8776 -0.0075
  956MOL0     C26120   3.871   1.436   4.856  0.1026 -0.3319  0.4791
  956MOL0     C26121   3.922   1.533   4.747  0.1599  0.1916 -0.0141
  956MOL0     C26122   3.824   1.649   4.720  0.6325  0.1474  0.3124
  956MOL0     C26123   3.900   1.755   4.651  0.7207 -0.4294  0.7036
  956MOL0     C26124   3.969   1.832   4.587 -0.3351 -0.1876  0.2400
  956MOL0     C26125   4.113   1.053   4.898 -0.2525 -1.0431 -0.0932
  956MOL0     C26126   4.184   0.928   4.901 -0.0703  0.3667  0.3244
  956MOL0     H26127   4.359   0.454   4.944  0.3662 -0.6724 -0.8835
  956MOL0     H26128   4.525   0.305   4.936 -0.7050  0.5079 -0.4092
  956MOL0     H26129   4.891   0.403   4.657  1.0590 -0.4988  1.6067
  956MOL0     H26130   4.775   0.278   4.612  0.1768 -1.5714 -0.0702
  956MOL0     H26131   4.969   0.167   4.593  1.2577  2.9355 -1.2283
  956MOL0     H26132   4.911   0.120   4.754  2.1514 -1.8920 -0.7653
  956MOL0     H26133   5.041   0.317   4.867  0.6595  0.5055  0.1208
  956MOL0     H26134   5.139   0.320   4.718 -0.1971 -0.5028 -0.1059
  956MOL0     H26135   5.089   0.082   4.886 -1.4064  1.3071 -2.0816
  956MOL0     H26136   5.164   0.079   4.730 -3.9099  2.7742 -3.6638
  956MOL0     H26137   5.289   0.279   4.919 -0.7628 -0.4331  0.1932
  956MOL0     H26138   5.354   0.195   4.779  0.2842 -0.3699  0.7419
  956MOL0     H26139   5.341  -0.018   4.927 -1.2081  0.6061 -1.1836
  956MOL0     H26140   5.294   0.082   5.065  1.3631  1.2201  0.1390
  956MOL0     H26141   5.526   0.026   5.065  1.5024 -1.3639 -2.7595
  956MOL0     H26142   5.568   0.109   4.923  0.5454 -1.1618  0.4272
  956MOL0     H26143   5.455   0.246   5.161 -1.4135 -0.0038 -2.2329
  956MOL0     H26144   5.507   0.328   5.030  0.5848  1.1643  0.6004
  956MOL0     H26145   5.720   0.069   5.240  0.8109 -0.0748  0.1329
  956MOL0     H26146   6.065   0.285   5.237  2.7536 -1.7110  0.8398
  956MOL0     H26147   6.042   0.123   5.221 -0.4968  0.7408 -0.0567
  956MOL0     H26148   6.026   0.136   5.466  0.4586  2.4205  0.4418
  956MOL0     H26149   5.862   0.152   5.411 -0.2741  0.4720  0.8311
  956MOL0     H26150   6.025   0.422   5.439  3.2348 -2.1148 -0.3774
  956MOL0     H26151   5.860   0.387   5.476 -1.1944 -1.9879 -1.1336
  956MOL0     H26152   6.117   0.302   5.636  0.2992  3.0259  4.0705
  956MOL0     H26153   5.951   0.238   5.682  0.1209  0.4564  0.8187
  956MOL0     H26154   5.877   0.677   5.707  0.8289 -0.9814  1.2012
  956MOL0     H26155   5.987   0.876   5.737 -0.7844 -0.4794  0.7050
  956MOL0     H26156   6.042   1.231   5.779  0.4694  0.6048  1.0071
  956MOL0     H26157   6.101   1.473   5.756 -1.7149 -1.6899  0.4016
  956MOL0     H26158   6.350   1.653   5.556  0.6902  1.4151  0.7113
  956MOL0     H26159   6.480   1.547   5.581 -2.1110  0.0249 -3.1506
  956MOL0     H26160   6.563   1.702   5.773  0.5269 -3.7533 -2.5063
  956MOL0     H26161   6.440   1.809   5.737  0.5479 -0.2458  0.0688
  956MOL0     H26162   6.514   1.819   5.497  1.7857  1.4148 -1.7184
  956MOL0     H26163   6.656   1.728   5.544 -2.3777 -0.7384 -2.6111
  956MOL0     H26164   6.546   2.004   5.650  0.5584 -0.6929 -0.7197
  956MOL0     H26165   6.703   1.931   5.702 -0.1472  4.4508  1.1849
  956MOL0     H26166   6.725   1.951   5.433 -0.7871  1.5270 -0.7515
  956MOL0     H26167   6.772   2.083   5.554  0.7025  0.5971 -0.4742
  956MOL0     H26168   6.587   2.210   5.516 -0.8001  0.9603 -0.6245
  956MOL0     H26169   6.516   2.096   5.405 -0.2211  1.8791 -0.4895
  956MOL0     H26170   6.792   2.214   5.351  1.7246 -2.2205  0.1849
  956MOL0     H26171   6.679   2.112   5.241 -2.3199  1.8925 -0.1586
  956MOL0     H26172   6.691   2.358   5.191 -1.9669  0.5394 -0.4391
  956MOL0     H26173   6.609   2.376   5.345 -0.2379  3.5933 -2.4796
  956MOL0     H26174   6.523   1.349   5.707  0.9227 -4.0030  0.6860
  956MOL0     H26175   6.454   1.122   5.719  3.0086  2.4466  0.0461
  956MOL0     H26176   6.360   0.671   5.777 -0.1691 -1.9116  2.3048
  956MOL0     H26177   6.252   0.458   5.744 -1.5258 -1.0259  2.2944
  956MOL0     H26178   4.773   0.567   4.709  1.3392  1.8071  2.8867
  956MOL0     H26179   4.604   0.735   4.741 -1.2741  0.4894  2.0765
  956MOL0     H26180   4.064   0.810   4.597  0.9866 -0.1718 -0.0697
  956MOL0     H26181   3.935   1.030   4.598 -0.2712  1.2887  0.0421
  956MOL0     H26182   4.067   1.349   4.917  1.2372 -1.8844 -0.5141
  956MOL0     H26183   3.932   1.282   4.996  0.0778  1.6359  0.2428
  956MOL0     H26184   3.781   1.386   4.819 -1.1626  0.4512  2.3534
  956MOL0     H26185   3.832   1.492   4.942 -1.8475 -2.5250  1.1324
  956MOL0     H26186   3.947   1.489   4.650 -1.0237 -1.4309  0.3533
  956MOL0     H26187   4.015   1.577   4.784 -0.2253 -0.7079  2.1879
  956MOL0     H26188   3.742   1.615   4.657 -3.8759  3.0784  3.9434
  956MOL0     H26189   3.775   1.683   4.812  0.8269 -2.6206  1.5581
  956MOL0     H26190   4.025   1.892   4.518 -2.4915  1.0017 -0.5469
  956MOL0     H26191   4.117   1.119   4.984 -2.7486 -2.1516  0.9753
  956MOL0     H26192   4.249   0.889   4.980  1.4713  1.0354 -0.5620
  957MOL0     O26193   2.228   6.773   0.133 -0.0181  0.6550  0.5987
  957MOL0     C26194   2.338   6.788   0.070  1.0642  0.6216  0.0769
  957MOL0     O26195   2.428   6.887   0.100 -0.0144 -0.0607  0.4918
  957MOL0     C26196   2.415   6.945   0.223  0.1489  0.0296 -0.5309
  957MOL0     C26197   2.298   7.014   0.270 -0.0798 -0.1734  0.4495
  957MOL0     C26198   2.295   7.067   0.402  0.2573  0.3257 -0.0602
  957MOL0     C26199   2.407   7.071   0.484  0.5650  0.3511 -0.5749
  957MOL0     O26200   2.392   7.104   0.612 -0.8149 -0.3175 -0.6761
  957MOL0     C26201   2.322   7.015   0.699 -0.3457 -0.0612  0.2192
  957MOL0     C26202   2.363   7.024   0.839 -0.6388 -0.0729  0.0630
  957MOL0     C26203   2.290   6.938   0.948  0.1520  0.4230  0.0173
  957MOL0     C26204   2.135   6.915   0.938  0.0408  0.1429 -0.4816
  957MOL0     C26205   2.050   7.036   0.913  0.3643 -0.1750 -0.2424
  957MOL0     C26206   1.904   6.993   0.923 -0.1020 -0.4751  0.1032
  957MOL0     C26207   1.818   7.097   0.863 -0.3080 -0.3769 -0.4809
  957MOL0     C26208   1.810   7.217   0.963  0.6989 -0.6012  0.3046
  957MOL0     N26209   1.700   7.310   0.937 -0.5533 -0.4762  0.0252
  957MOL0     C26210   1.644   7.382   1.028  0.1195 -0.4789 -0.2813
  957MOL0     C26211   1.582   7.476   0.963 -0.6578  0.1398  0.0013
  957MOL0     C26212   1.502   7.580   1.021 -0.6620 -0.1522  0.3936
  957MOL0     C26213   1.585   7.704   1.056  0.2403 -1.6693 -0.0516
  957MOL0     C26214   1.493   7.829   1.097 -0.0144  0.2559  0.2202
  957MOL0     C26215   1.569   7.970   1.101  0.4525  0.7871  0.3516
  957MOL0     O26216   1.705   7.965   1.137  0.0969 -0.4403  0.1162
  957MOL0     C26217   1.747   7.970   1.269  0.7521  0.2099 -0.5590
  957MOL0     C26218   1.879   7.927   1.282 -0.8375 -0.5158 -0.5165
  957MOL0     C26219   1.951   7.939   1.406  0.1182 -0.4327 -0.1335
  957MOL0     C26220   1.879   7.991   1.510  0.2363  0.2679 -0.1824
  957MOL0     C26221   1.951   8.004   1.639  0.9284  0.5281 -0.5061
  957MOL0     O26222   2.086   8.002   1.639  0.4167 -0.2172 -0.3262
  957MOL0     C26223   2.146   8.033   1.753  0.3673 -0.9203  0.2580
  957MOL0     C26224   2.225   8.142   1.764 -0.6146 -0.1685 -0.1557
  957MOL0     C26225   2.284   8.179   1.885  0.9729 -0.5682  0.4085
  957MOL0     C26226   2.286   8.093   1.991  0.8049 -0.9661 -1.9423
  957MOL0     O26227   2.353   8.133   2.104 -0.9667  0.2037 -0.5401
  957MOL0     C26228   2.451   8.038   2.157  0.1980 -0.6678 -0.9580
  957MOL0     C26229   2.576   8.122   2.183 -0.4321  0.2681 -0.1356
  957MOL0     C26230   2.563   8.196   2.316 -0.6589  0.1714  0.3839
  957MOL0     C26231   2.679   8.293   2.336 -0.2535  0.4267  0.1626
  957MOL0     C26232   2.698   8.403   2.231  0.0773 -0.0567 -0.2974
  957MOL0     C26233   2.606   8.527   2.250 -0.7889  0.4791 -0.0091
  957MOL0     C26234   2.656   8.606   2.371  0.1264 -0.2144  0.0333
  957MOL0     C26235   2.774   8.698   2.333  0.4281 -0.1995  0.6823
  957MOL0    Cl26236   2.819   8.775   2.489 -0.1402 -0.7033  0.8950
  957MOL0     C26237   2.210   7.976   1.986 -0.2305 -0.1485  0.8734
  957MOL0     C26238   2.141   7.950   1.871 -0.8603  0.1018  0.0260
  957MOL0     O26239   1.882   8.032   1.740  0.9857 -0.4249  0.9435
  957MOL0     C26240   1.744   8.032   1.502  0.1612 -0.2348  0.0275
  957MOL0     C26241   1.675   8.027   1.379 -0.9533  0.3591  0.0426
  957MOL0     N26242   1.586   7.461   0.830 -0.3072  0.5081  0.1971
  957MOL0     N26243   1.666   7.358   0.806 -0.0575 -0.1158 -0.1700
  957MOL0     C26244   2.523   7.011   0.437 -1.0092 -0.3224  0.5930
  957MOL0     C26245   2.522   6.953   0.309  1.3201 -0.5930 -0.4434
  957MOL0     C26246   2.374   6.686  -0.034  0.5514 -0.2381 -0.1120
  957MOL0     C26247   2.284   6.587  -0.072  0.4160 -0.0319 -0.2695
  957MOL0     C26248   2.309   6.484  -0.162 -1.0602  0.0133  0.2208
  957MOL0     C26249   2.431   6.485  -0.217 -0.2925  1.1794 -0.3313
  957MOL0     O26250   2.460   6.388  -0.303 -0.6192  0.7261 -0.4154
  957MOL0     C26251   2.477   6.420  -0.440 -0.0917  0.2257 -0.4462
  957MOL0     C26252   2.337   6.454  -0.504 -0.8455 -0.1662 -0.4045
  957MOL0     C26253   2.246   6.326  -0.515 -0.7420  0.2425  0.1619
  957MOL0     C26254   2.312   6.201  -0.558 -0.1858  1.2251 -0.1599
  957MOL0     C26255   2.371   6.212  -0.691  0.0695 -0.0144  0.2476
  957MOL0     C26256   2.408   6.243  -0.801  0.2732 -0.0387 -0.8342
  957MOL0     C26257   2.530   6.577  -0.180 -0.3570 -0.8901  0.1917
  957MOL0     C26258   2.496   6.696  -0.101 -0.3247  0.4078  1.0057
  957MOL0     H26259   2.204   7.014   0.217  0.0236 -7.4586 -0.7739
  957MOL0     H26260   2.204   7.118   0.432 -1.0414 -1.1739 -1.2473
  957MOL0     H26261   2.348   6.915   0.664  1.4857  0.4572  0.0002
  957MOL0     H26262   2.215   7.032   0.681 -0.7904 -2.6669 -0.0645
  957MOL0     H26263   2.356   7.130   0.865  1.4911 -0.5347  2.8897
  957MOL0     H26264   2.469   6.996   0.839  0.4759  3.5904  0.0703
  957MOL0     H26265   2.307   6.980   1.048 -1.0048  2.2600 -0.5167
  957MOL0     H26266   2.333   6.837   0.951 -1.7251 -0.5211 -2.0588
  957MOL0     H26267   2.110   6.857   0.848  0.6442  0.3068 -0.7613
  957MOL0     H26268   2.100   6.864   1.028 -4.7091  2.2791 -0.8470
  957MOL0     H26269   2.067   7.085   0.817 -0.2362  1.2489  0.3359
  957MOL0     H26270   2.068   7.120   0.982  0.2450  1.6720 -2.3401
  957MOL0     H26271   1.858   6.967   1.018 -1.7617  2.1710  0.1170
  957MOL0     H26272   1.887   6.902   0.865  0.2444 -2.3091  2.7098
  957MOL0     H26273   1.845   7.118   0.759  0.5278  0.5831 -0.0816
  957MOL0     H26274   1.719   7.049   0.858  0.2876 -1.5345 -1.9364
  957MOL0     H26275   1.903   7.272   0.984 -0.6194  1.7229  0.3925
  957MOL0     H26276   1.776   7.171   1.056  1.4985  0.0689  0.9471
  957MOL0     H26277   1.646   7.371   1.136 -2.5927  1.0302  0.0343
  957MOL0     H26278   1.451   7.542   1.110  0.0045 -0.1139  0.8033
  957MOL0     H26279   1.424   7.612   0.952  3.0104  1.9343 -3.1916
  957MOL0     H26280   1.643   7.727   0.967 -0.9106  3.0016  0.1369
  957MOL0     H26281   1.650   7.681   1.141 -2.7771 -2.0227  2.3567
  957MOL0     H26282   1.418   7.828   1.018 -0.6038  0.8899  0.7656
  957MOL0     H26283   1.458   7.801   1.197 -1.5110  1.5205  0.0759
  957MOL0     H26284   1.518   8.049   1.157  2.9613  1.9545  1.1341
  957MOL0     H26285   1.557   7.994   0.995  0.7164 -0.6504 -0.0288
  957MOL0     H26286   1.928   7.877   1.200  0.8851 -1.9454  1.3005
  957MOL0     H26287   2.056   7.920   1.418  1.0126  1.7514 -3.0242
  957MOL0     H26288   2.252   8.191   1.671 -1.8299  3.1893  1.1096
  957MOL0     H26289   2.348   8.267   1.881 -0.2373  0.4327  1.9687
  957MOL0     H26290   2.474   7.959   2.084  0.0849 -2.2656  0.6510
  957MOL0     H26291   2.413   7.995   2.250  0.6576  3.5714  1.4328
  957MOL0     H26292   2.578   8.190   2.098 -1.6049  3.2606  2.0905
  957MOL0     H26293   2.672   8.070   2.191  0.1546  1.3005 -0.3183
  957MOL0     H26294   2.565   8.125   2.398  2.5440  1.1325  1.2736
  957MOL0     H26295   2.479   8.264   2.299  2.7375  4.4698 -1.1482
  957MOL0     H26296   2.668   8.351   2.428 -0.1415  2.1123 -0.8288
  957MOL0     H26297   2.771   8.234   2.338 -0.4226  0.0067 -2.0113
  957MOL0     H26298   2.696   8.360   2.131  1.7504  0.4386 -0.5689
  957MOL0     H26299   2.803   8.434   2.234  0.6318 -1.0747 -3.8936
  957MOL0     H26300   2.500   8.500   2.252 -0.2898 -1.5674  1.2888
  957MOL0     H26301   2.623   8.592   2.164 -1.4459 -1.6729 -1.8571
  957MOL0     H26302   2.574   8.657   2.421  1.5562  0.4829  1.7600
  957MOL0     H26303   2.700   8.539   2.446  0.5675 -0.3701 -0.3578
  957MOL0     H26304   2.735   8.762   2.253  2.2685 -2.3000 -2.0554
  957MOL0     H26305   2.859   8.638   2.300 -1.5287 -1.2640 -2.9561
  957MOL0     H26306   2.230   7.907   2.067  0.5567 -0.1800  0.6579
  957MOL0     H26307   2.099   7.852   1.847  2.0680 -0.8754 -1.5959
  957MOL0     H26308   1.688   8.075   1.584 -0.0914  4.7693 -2.3665
  957MOL0     H26309   1.575   8.061   1.354 -0.5398 -0.6862 -3.7251
  957MOL0     H26310   2.620   6.989   0.481  0.3241 -0.7528 -2.3032
  957MOL0     H26311   2.610   6.903   0.269 -0.2068 -1.5343 -2.8512
  957MOL0     H26312   2.191   6.574  -0.018 -0.4309 -0.4120 -1.7528
  957MOL0     H26313   2.240   6.403  -0.182  1.9721 -3.0276  1.0694
  957MOL0     H26314   2.527   6.337  -0.491 -1.9545 -0.0855 -1.8736
  957MOL0     H26315   2.544   6.506  -0.447  0.8054 -0.2081  1.8807
  957MOL0     H26316   2.279   6.528  -0.448  0.0721  0.4159 -0.2031
  957MOL0     H26317   2.349   6.487  -0.608 -1.2904 -1.2834 -0.8277
  957MOL0     H26318   2.171   6.348  -0.592 -0.2047 -0.0427 -0.4535
  957MOL0     H26319   2.189   6.297  -0.426 -4.1323 -0.1596 -1.9611
  957MOL0     H26320   2.395   6.182  -0.489  1.0693  1.6242 -1.5074
  957MOL0     H26321   2.241   6.118  -0.559  2.2230 -0.9662  0.2244
  957MOL0     H26322   2.445   6.269  -0.898  4.0737 -1.1658  0.1281
  957MOL0     H26323   2.631   6.555  -0.213 -0.5692  2.8250 -3.9797
  957MOL0     H26324   2.576   6.770  -0.097  2.9154 -2.2973 -3.6997
  958MOL0     O26325   8.935   5.340   8.157 -0.4671 -0.1033 -0.8069
  958MOL0     C26326   9.043   5.308   8.098 -0.2906 -0.1352  0.5588
  958MOL0     O26327   9.056   5.255   7.975  0.3767  0.1774 -0.6819
  958MOL0     C26328   8.941   5.216   7.912  0.0271 -0.2496 -0.7835
  958MOL0     C26329   8.869   5.306   7.833 -0.4640 -0.1819  0.1572
  958MOL0     C26330   8.760   5.263   7.762  1.1418  0.2207  0.3848
  958MOL0     C26331   8.720   5.126   7.763 -0.5515  0.1969 -0.8788
  958MOL0     O26332   8.612   5.076   7.692 -0.0017 -0.1110  0.1641
  958MOL0     C26333   8.550   5.152   7.589  0.8702  0.0006  1.2756
  958MOL0     C26334   8.429   5.071   7.529 -0.7940 -0.5826  0.8130
  958MOL0     C26335   8.470   4.943   7.455  0.5943  0.7328 -0.6026
  958MOL0     C26336   8.345   4.856   7.424 -0.4854 -0.4438 -0.1577
  958MOL0     C26337   8.368   4.716   7.369 -0.2538 -0.8270 -0.2274
  958MOL0     C26338   8.266   4.697   7.268 -0.1944 -0.7223  0.5855
  958MOL0     C26339   8.252   4.552   7.217  0.8830  0.8164  0.3188
  958MOL0     C26340   8.176   4.469   7.314 -0.0688  0.2200 -0.7610
  958MOL0     N26341   8.089   4.362   7.254  0.0001  0.3638 -0.2829
  958MOL0     C26342   8.132   4.245   7.195 -0.4169  0.2315 -0.4542
  958MOL0     C26343   8.020   4.181   7.156 -0.1242 -0.3687 -0.7504
  958MOL0     C26344   8.013   4.054   7.086  0.2520  0.0544 -0.1944
  958MOL0     C26345   8.082   4.086   6.953 -0.6717  0.9031  0.1185
  958MOL0     C26346   8.083   3.959   6.864 -0.3860 -0.5453 -0.8373
  958MOL0     C26347   8.129   4.010   6.716  0.5347  0.9962 -0.5598
  958MOL0     O26348   8.276   4.036   6.708  0.0373  0.3074 -0.2104
  958MOL0     C26349   8.309   4.102   6.590  1.1639 -0.2694 -0.5480
  958MOL0     C26350   8.292   4.050   6.459 -0.6203  0.7277 -0.0819
  958MOL0     C26351   8.350   4.131   6.351 -0.0160 -0.3550  0.1343
  958MOL0     C26352   8.430   4.248   6.384  0.3690 -0.0217 -0.3178
  958MOL0     C26353   8.519   4.311   6.297  0.2469 -1.2475 -0.1592
  958MOL0     O26354   8.619   4.383   6.352 -0.6527  0.1324  0.2011
  958MOL0     C26355   8.710   4.451   6.268 -0.0581  0.8077 -0.2773
  958MOL0     C26356   8.810   4.385   6.190  0.3874 -0.4579 -0.8664
  958MOL0     C26357   8.900   4.456   6.110 -0.3282  0.8029  0.4168
  958MOL0     C26358   8.892   4.594   6.093  0.2069 -0.6331  0.0198
  958MOL0     O26359   8.983   4.650   6.008 -0.5016 -0.2726  0.2866
  958MOL0     C26360   9.122   4.651   6.047  0.6436  0.8242  0.1507
  958MOL0     C26361   9.160   4.769   6.135 -0.1103  0.3055  1.1438
  958MOL0     C26362   9.312   4.786   6.151  0.1566 -0.3016 -0.1251
  958MOL0     C26363   9.396   4.794   6.025 -0.0096  0.0279  0.9000
  958MOL0     C26364   9.536   4.849   6.047  0.3198 -0.1403 -0.3738
  958MOL0     C26365   9.626   4.844   5.925  0.1294  0.7507  0.5784
  958MOL0     C26366   9.684   4.701   5.917 -1.2386 -0.4075 -1.0021
  958MOL0     C26367   9.762   4.676   5.786  0.1465 -0.5460 -0.5167
  958MOL0    Cl26368   9.824   4.514   5.801 -0.4723 -0.1488  0.3701
  958MOL0     C26369   8.789   4.659   6.164 -0.2167 -0.5225 -0.9329
  958MOL0     C26370   8.708   4.590   6.245 -0.6446 -0.1711  1.0478
  958MOL0     O26371   8.492   4.299   6.181  0.2284 -0.6979 -0.2446
  958MOL0     C26372   8.439   4.282   6.517 -0.1768  1.3579  0.8403
  958MOL0     C26373   8.368   4.229   6.615  0.5081  0.0140  0.0488
  958MOL0     N26374   7.919   4.265   7.190  0.2509 -0.0354 -0.3832
  958MOL0     N26375   7.954   4.357   7.266 -0.7227 -0.8419  0.5929
  958MOL0     C26376   8.793   5.034   7.835 -0.6151 -0.7474 -0.6434
  958MOL0     C26377   8.898   5.078   7.916 -0.0805 -0.0954 -0.5749
  958MOL0     C26378   9.170   5.319   8.179  0.0615  0.0513  0.5635
  958MOL0     C26379   9.155   5.379   8.303  0.5941  0.2038  0.3576
  958MOL0     C26380   9.257   5.375   8.392  0.4817  0.4770  0.5467
  958MOL0     C26381   9.379   5.314   8.365 -0.4966  0.4198  0.3091
  958MOL0     O26382   9.482   5.310   8.461 -0.4020  0.0230  0.2204
  958MOL0     C26383   9.439   5.300   8.595  0.4046 -0.4719 -0.8564
  958MOL0     C26384   9.558   5.290   8.695  0.2915 -0.0908  0.8778
  958MOL0     C26385   9.526   5.265   8.846  0.4176  0.5985  0.2379
  958MOL0     C26386   9.476   5.400   8.908  1.0236  0.4948 -0.2529
  958MOL0     C26387   9.484   5.379   9.052  0.3156 -0.1721  0.2251
  958MOL0     C26388   9.479   5.365   9.174  0.7255  0.8424  0.1636
  958MOL0     C26389   9.394   5.242   8.247  1.3196  0.1650  0.3530
  958MOL0     C26390   9.293   5.252   8.144  0.4417  0.0625 -0.5891
  958MOL0     H26391   8.908   5.406   7.820 -0.7908  0.4655  3.3673
  958MOL0     H26392   8.713   5.336   7.696  1.7503  0.3909  0.1388
  958MOL0     H26393   8.635   5.166   7.521 -0.3955 -3.2530 -1.2715
  958MOL0     H26394   8.512   5.244   7.633 -1.2455 -0.2873  0.1940
  958MOL0     H26395   8.374   5.139   7.463  1.4694  1.1681  0.6097
  958MOL0     H26396   8.368   5.045   7.616 -2.0112  1.2165  0.5631
  958MOL0     H26397   8.551   4.895   7.511  0.5668  0.3761 -0.8628
  958MOL0     H26398   8.513   4.977   7.360  0.1490 -0.4442 -1.2426
  958MOL0     H26399   8.266   4.849   7.499 -1.2365  1.9048 -0.6499
  958MOL0     H26400   8.307   4.919   7.344  0.2244 -0.9258 -0.9028
  958MOL0     H26401   8.374   4.650   7.456  2.4445  1.6311  1.6722
  958MOL0     H26402   8.463   4.705   7.316 -0.1666  1.4212 -0.6359
  958MOL0     H26403   8.297   4.767   7.190  0.1405  3.7709  4.2855
  958MOL0     H26404   8.167   4.740   7.284  0.5784  1.7366 -0.6541
  958MOL0     H26405   8.188   4.562   7.129 -0.8549 -2.7286  0.9937
  958MOL0     H26406   8.351   4.511   7.198  0.0562 -2.4706  2.2834
  958MOL0     H26407   8.112   4.527   7.381 -1.6925 -1.6480 -0.6082
  958MOL0     H26408   8.253   4.431   7.381  1.7956  4.4012 -0.1902
  958MOL0     H26409   8.235   4.213   7.179 -0.6597  0.4045 -2.6705
  958MOL0     H26410   7.908   4.033   7.061  0.5738  0.2879 -1.8262
  958MOL0     H26411   8.050   3.964   7.136 -0.3141  0.7561  1.5975
  958MOL0     H26412   8.186   4.120   6.960 -0.4212  0.1371  0.1809
  958MOL0     H26413   8.026   4.170   6.910 -3.1473  0.0797  1.5384
  958MOL0     H26414   8.144   3.873   6.894 -1.9544 -1.0028  1.3015
  958MOL0     H26415   7.991   3.901   6.865  1.3910 -3.6642 -1.9115
  958MOL0     H26416   8.077   4.099   6.677  3.5139  2.4715 -1.4729
  958MOL0     H26417   8.093   3.935   6.644  0.6878 -1.2741  1.6047
  958MOL0     H26418   8.243   3.961   6.421 -1.8149  1.1317  0.4558
  958MOL0     H26419   8.340   4.098   6.249  3.4100  4.3545 -2.1101
  958MOL0     H26420   8.824   4.280   6.215 -1.0560 -0.3008  0.8046
  958MOL0     H26421   8.975   4.395   6.061 -1.9923 -0.1693 -1.0386
  958MOL0     H26422   9.175   4.643   5.952 -3.8403 -3.1080 -2.4912
  958MOL0     H26423   9.145   4.558   6.099  0.0695  0.8350  0.4295
  958MOL0     H26424   9.101   4.759   6.227  0.4023 -0.3939  1.3999
  958MOL0     H26425   9.137   4.865   6.086  2.6635  0.9721  1.0066
  958MOL0     H26426   9.355   4.704   6.209  1.7577 -1.3864 -2.7310
  958MOL0     H26427   9.317   4.879   6.209 -2.3035 -0.8780  1.1921
  958MOL0     H26428   9.398   4.691   5.990  1.5686 -0.0221  1.0456
  958MOL0     H26429   9.347   4.851   5.945 -0.7646 -0.9586  0.6464
  958MOL0     H26430   9.557   4.782   6.131 -2.8070  0.0199  0.6876
  958MOL0     H26431   9.516   4.948   6.087 -3.8143  0.0971 -2.4739
  958MOL0     H26432   9.706   4.917   5.914 -1.0302  1.7160 -3.3798
  958MOL0     H26433   9.552   4.864   5.847  0.7524 -2.2009 -0.9183
  958MOL0     H26434   9.741   4.671   6.006 -0.2137  0.4976 -1.3305
  958MOL0     H26435   9.600   4.631   5.904 -0.3905 -1.5792 -0.3242
  958MOL0     H26436   9.836   4.753   5.763  0.7583 -0.9311  0.1345
  958MOL0     H26437   9.691   4.680   5.703  0.5453  2.2674 -0.8053
  958MOL0     H26438   8.766   4.765   6.158 -1.2592 -0.8197 -3.2930
  958MOL0     H26439   8.641   4.654   6.302  1.3604  2.6096  0.4591
  958MOL0     H26440   8.496   4.366   6.553 -1.3359  2.0782  1.0599
  958MOL0     H26441   8.371   4.276   6.713 -5.3834  2.3898 -0.5378
  958MOL0     H26442   8.762   4.930   7.845  1.6616 -1.7520 -2.8740
  958MOL0     H26443   8.929   5.007   7.992 -0.4591  2.5661  2.2617
  958MOL0     H26444   9.064   5.433   8.329 -0.8517 -2.1052  0.3890
  958MOL0     H26445   9.237   5.422   8.487  1.6104  3.7115 -0.6727
  958MOL0     H26446   9.384   5.206   8.601 -0.4506  0.0496  3.9347
  958MOL0     H26447   9.372   5.380   8.630  0.4535 -1.2441  1.1039
  958MOL0     H26448   9.620   5.208   8.659 -1.0912 -1.3717  1.3347
  958MOL0     H26449   9.627   5.374   8.680 -2.0698  1.7460 -0.4793
  958MOL0     H26450   9.625   5.246   8.889  0.8609  1.5869 -0.2924
  958MOL0     H26451   9.456   5.182   8.858  0.8784 -0.2447 -2.2681
  958MOL0     H26452   9.524   5.491   8.873 -0.3334  0.9839 -0.8990
  958MOL0     H26453   9.371   5.407   8.878  1.8635 -1.1434 -4.1186
  958MOL0     H26454   9.470   5.335   9.276  0.9725 -1.0774 -0.3272
  958MOL0     H26455   9.491   5.194   8.245  0.4693 -1.8589  2.8034
  958MOL0     H26456   9.298   5.182   8.062 -3.4998  0.1277 -1.0930
  959MOL0     O26457   8.959   3.441   1.133 -0.3175 -0.7196 -0.8660
  959MOL0     C26458   9.011   3.401   1.035 -0.0541  0.4009 -0.1778
  959MOL0     O26459   9.087   3.473   0.943  0.3777 -0.0018 -0.0092
  959MOL0     C26460   9.146   3.585   0.997 -0.8249  0.3466 -0.2404
  959MOL0     C26461   9.228   3.575   1.118  0.1750  0.7907 -1.0301
  959MOL0     C26462   9.278   3.697   1.161  0.3879  0.0662 -0.6165
  959MOL0     C26463   9.253   3.817   1.097  0.8882 -0.6241 -0.1506
  959MOL0     O26464   9.318   3.935   1.117 -0.5315 -0.6021 -0.7521
  959MOL0     C26465   9.292   3.980   1.250 -0.1019  0.3126 -0.6626
  959MOL0     C26466   9.328   4.120   1.270 -0.2225  0.3847  0.3869
  959MOL0     C26467   9.295   4.155   1.422 -0.6549 -0.2668 -0.0802
  959MOL0     C26468   9.331   4.298   1.475 -0.3603 -0.0412  0.9036
  959MOL0     C26469   9.235   4.404   1.420  1.3808  0.1020 -0.1278
  959MOL0     C26470   9.088   4.391   1.482  0.0585  0.8034  0.3606
  959MOL0     C26471   9.012   4.526   1.486  0.3993  1.1299 -0.2428
  959MOL0     C26472   8.909   4.539   1.378  0.3457  0.0225  0.0237
  959MOL0     N26473   8.826   4.655   1.395 -1.2069 -0.1810  0.3087
  959MOL0     C26474   8.863   4.792   1.369  0.7870  1.2323  0.1411
  959MOL0     C26475   8.776   4.865   1.449  0.0687  0.1532  0.1328
  959MOL0     C26476   8.789   5.009   1.469  0.4706  0.0154  0.0476
  959MOL0     C26477   8.724   5.095   1.357 -0.6657  0.3133 -0.4713
  959MOL0     C26478   8.567   5.090   1.363  0.3404 -0.5008  0.7703
  959MOL0     C26479   8.514   5.203   1.262 -0.6343 -0.8877 -0.9322
  959MOL0     O26480   8.579   5.192   1.128 -0.8486  0.3883 -0.6667
  959MOL0     C26481   8.537   5.286   1.027 -0.5552  0.3448  0.1408
  959MOL0     C26482   8.433   5.380   1.038  0.0893 -0.1881 -0.0914
  959MOL0     C26483   8.387   5.453   0.927 -0.4729  1.1634 -0.9618
  959MOL0     C26484   8.440   5.443   0.797  0.6908 -0.2236 -0.2930
  959MOL0     C26485   8.374   5.518   0.691 -0.4516  0.6747  0.1357
  959MOL0     O26486   8.280   5.614   0.719  0.2895 -0.4791  0.2038
  959MOL0     C26487   8.205   5.693   0.626 -0.1952  0.3542  0.5566
  959MOL0     C26488   8.148   5.636   0.505  0.0616  1.1364 -0.6435
  959MOL0     C26489   8.069   5.723   0.431 -1.4267  0.0641 -0.1128
  959MOL0     C26490   8.046   5.855   0.467 -0.7800 -0.0832  0.5195
  959MOL0     O26491   7.986   5.953   0.389  0.4168  0.7761 -0.0690
  959MOL0     C26492   8.017   5.944   0.248 -0.0097 -0.5093  0.1582
  959MOL0     C26493   7.999   6.082   0.183 -0.0909 -1.1629 -0.4617
  959MOL0     C26494   7.854   6.104   0.145 -0.1448 -0.1760 -0.1412
  959MOL0     C26495   7.810   6.247   0.117  0.0238  0.8014  0.3775
  959MOL0     C26496   7.885   6.307  -0.002 -0.6543 -0.0024 -0.6990
  959MOL0     C26497   7.850   6.456  -0.040  0.0449 -0.5040 -0.2680
  959MOL0     C26498   7.923   6.505  -0.159 -0.3465  0.3206  0.8000
  959MOL0     C26499   7.905   6.409  -0.287 -0.1140  0.7724 -0.5218
  959MOL0    Cl26500   8.038   6.452  -0.401 -0.3671 -0.4188  0.0699
  959MOL0     C26501   8.084   5.892   0.594 -0.9415  0.1559  0.1962
  959MOL0     C26502   8.166   5.817   0.680  0.0760  0.5733  0.4547
  959MOL0     O26503   8.413   5.481   0.577 -0.2197 -0.0334  0.1521
  959MOL0     C26504   8.536   5.337   0.781  0.3529 -0.6256 -0.1269
  959MOL0     C26505   8.592   5.270   0.896  0.0753 -0.1175 -0.5188
  959MOL0     N26506   8.680   4.776   1.505  0.1554  0.6647 -0.5503
  959MOL0     N26507   8.703   4.652   1.459 -0.2270  0.2159 -0.4242
  959MOL0     C26508   9.179   3.822   0.985  0.2489  0.5060  0.4665
  959MOL0     C26509   9.117   3.714   0.934  0.2684  0.7270 -0.0346
  959MOL0     C26510   8.956   3.277   0.983 -0.5307  0.3352  0.8384
  959MOL0     C26511   9.012   3.222   0.865  0.2251 -0.0011  0.0018
  959MOL0     C26512   8.973   3.100   0.816  0.1536  0.4886  0.0229
  959MOL0     C26513   8.879   3.020   0.890  0.0925 -0.0512 -0.1187
  959MOL0     O26514   8.844   2.899   0.843  0.6928  0.7231 -0.4758
  959MOL0     C26515   8.890   2.792   0.922  0.5336  0.1421  0.5863
  959MOL0     C26516   8.790   2.679   0.896 -0.1045  0.5173 -0.3173
  959MOL0     C26517   8.804   2.611   0.759  0.8567  0.3338 -0.0792
  959MOL0     C26518   8.713   2.496   0.726 -0.3938 -1.0317 -0.3186
  959MOL0     C26519   8.570   2.523   0.715 -0.2084  0.3681 -0.6247
  959MOL0     C26520   8.448   2.523   0.719 -0.6703 -0.2614  0.1492
  959MOL0     C26521   8.832   3.073   1.008 -0.5018  0.4222 -0.3097
  959MOL0     C26522   8.874   3.193   1.060 -0.7791  0.5146 -0.5065
  959MOL0     H26523   9.225   3.485   1.179 -2.8287  1.9878  0.7853
  959MOL0     H26524   9.328   3.714   1.256 -3.4267 -0.8498  1.7669
  959MOL0     H26525   9.352   3.921   1.320 -0.6389  1.2568  0.6156
  959MOL0     H26526   9.190   3.961   1.282 -0.0791  0.5161 -0.4670
  959MOL0     H26527   9.259   4.180   1.209  1.1915 -0.3837 -2.1003
  959MOL0     H26528   9.430   4.139   1.235 -0.4459 -1.2902 -1.2730
  959MOL0     H26529   9.353   4.086   1.484  0.1467 -0.3496 -0.8912
  959MOL0     H26530   9.189   4.131   1.433 -1.4943  1.5316 -3.0916
  959MOL0     H26531   9.327   4.304   1.584 -1.9499  3.1588  0.7807
  959MOL0     H26532   9.428   4.339   1.443 -1.0247 -2.0531 -4.8191
  959MOL0     H26533   9.231   4.406   1.311  0.2741 -0.3977 -0.1096
  959MOL0     H26534   9.274   4.500   1.456  4.3876 -1.4611  1.1450
  959MOL0     H26535   9.103   4.358   1.585 -2.1648 -1.3112  0.0962
  959MOL0     H26536   9.031   4.316   1.425 -0.5211  0.8420  0.8858
  959MOL0     H26537   8.947   4.530   1.574 -1.4038 -1.8103 -1.3056
  959MOL0     H26538   9.088   4.605   1.492  0.9308  0.5143  1.8600
  959MOL0     H26539   8.838   4.456   1.367  1.2852 -0.6437 -1.3865
  959MOL0     H26540   8.944   4.542   1.275  0.0928  2.6741 -0.0690
  959MOL0     H26541   8.948   4.818   1.308  1.2211  1.8522  0.9979
  959MOL0     H26542   8.896   5.030   1.468  0.7606 -1.3673 -0.4912
  959MOL0     H26543   8.744   5.047   1.561  0.2629 -1.2923  0.5060
  959MOL0     H26544   8.759   5.069   1.257  0.7446 -2.4937  0.6278
  959MOL0     H26545   8.745   5.201   1.373 -3.9747  1.2206 -1.3918
  959MOL0     H26546   8.528   4.995   1.328  0.0373 -0.5764  1.2904
  959MOL0     H26547   8.530   5.107   1.465  0.5627  0.2734  0.7298
  959MOL0     H26548   8.537   5.299   1.309  2.0468 -1.1326 -1.5674
  959MOL0     H26549   8.404   5.206   1.258 -0.7322 -2.3440 -0.1427
  959MOL0     H26550   8.388   5.393   1.136  1.5046  0.5405  0.4947
  959MOL0     H26551   8.300   5.514   0.948 -0.9302  0.5352 -0.9817
  959MOL0     H26552   8.172   5.534   0.475  0.0420  1.4960 -1.9299
  959MOL0     H26553   8.048   5.694   0.328 -0.2667  1.5793 -0.8245
  959MOL0     H26554   7.952   5.868   0.204 -0.1786  0.8530 -2.1200
  959MOL0     H26555   8.124   5.921   0.238  0.2517  0.4534  0.6051
  959MOL0     H26556   8.060   6.084   0.093 -1.0286  2.1208 -1.1740
  959MOL0     H26557   8.049   6.157   0.246 -0.3706  0.1833 -1.7951
  959MOL0     H26558   7.802   6.081   0.238 -0.7695 -3.7160 -1.2207
  959MOL0     H26559   7.820   6.023   0.080  2.8862 -1.1245 -0.6777
  959MOL0     H26560   7.702   6.240   0.099  0.2368  0.1641 -0.7130
  959MOL0     H26561   7.823   6.307   0.207 -1.6045 -0.9824  1.8946
  959MOL0     H26562   7.872   6.229  -0.078 -0.2897  0.2219 -0.9984
  959MOL0     H26563   7.992   6.314   0.019 -1.0144  1.7961  0.7353
  959MOL0     H26564   7.862   6.514   0.052 -1.6124 -3.8158  2.2481
  959MOL0     H26565   7.744   6.466  -0.063  0.7276  0.9237 -3.2917
  959MOL0     H26566   7.901   6.609  -0.187  4.8781  1.6368  0.5621
  959MOL0     H26567   8.029   6.512  -0.134  0.5956  2.1280 -2.9419
  959MOL0     H26568   7.807   6.428  -0.331 -1.5355 -3.1834  0.4696
  959MOL0     H26569   7.912   6.303  -0.261 -1.4789  0.6276 -0.6836
  959MOL0     H26570   8.058   5.993   0.624  2.9680  1.6094 -0.7964
  959MOL0     H26571   8.215   5.849   0.771  0.1666 -1.7157  1.2654
  959MOL0     H26572   8.563   5.309   0.680  0.9537  0.2546 -0.2177
  959MOL0     H26573   8.675   5.202   0.881  0.4568  0.2431 -0.0776
  959MOL0     H26574   9.165   3.924   0.951  2.1881  1.5805  2.5946
  959MOL0     H26575   9.053   3.727   0.847  0.7690  0.2819 -0.4788
  959MOL0     H26576   9.079   3.278   0.801 -1.6302 -1.1282 -3.1428
  959MOL0     H26577   9.013   3.060   0.723 -3.0693 -1.9489 -0.4702
  959MOL0     H26578   8.901   2.819   1.028 -0.1975  1.2006  0.4044
  959MOL0     H26579   8.983   2.746   0.886  0.4698  2.4186 -2.9897
  959MOL0     H26580   8.801   2.602   0.973  0.9706  1.7069  0.7806
  959MOL0     H26581   8.688   2.720   0.901 -1.9108 -3.4939 -0.5044
  959MOL0     H26582   8.910   2.584   0.763  0.6721 -0.3194  0.6871
  959MOL0     H26583   8.788   2.687   0.682  1.2578 -1.4067 -1.9634
  959MOL0     H26584   8.746   2.450   0.632  0.2341 -0.8477 -0.1953
  959MOL0     H26585   8.733   2.428   0.809  1.0892 -0.4531 -0.1615
  959MOL0     H26586   8.343   2.513   0.701 -0.2690 -1.6760 -1.7443
  959MOL0     H26587   8.781   3.009   1.080 -0.5780 -0.4499 -1.1169
  959MOL0     H26588   8.849   3.211   1.164  1.8548 -3.4001  1.0213
  960MOL0     O26589   6.991   1.187   4.919  0.8384 -0.5996  0.0636
  960MOL0     C26590   6.876   1.224   4.926  0.0488 -0.4899  0.5773
  960MOL0     O26591   6.777   1.175   5.003  0.4944  0.4298 -0.1874
  960MOL0     C26592   6.806   1.052   5.048  0.4060  0.6119  0.7143
  960MOL0     C26593   6.851   1.023   5.176  0.1525  0.1020 -1.1791
  960MOL0     C26594   6.876   0.901   5.222  0.5092 -0.4176 -0.8095
  960MOL0     C26595   6.844   0.787   5.144  0.6373  0.0625 -0.0841
  960MOL0     O26596   6.850   0.655   5.183  0.6376 -0.3806 -0.3435
  960MOL0     C26597   6.900   0.636   5.320  0.2194  0.2934 -0.7781
  960MOL0     C26598   6.894   0.488   5.351  0.1138  0.0561  0.4007
  960MOL0     C26599   6.981   0.481   5.487 -0.2973 -0.9783  0.5550
  960MOL0     C26600   6.997   0.344   5.547  0.1301  0.7240 -0.1308
  960MOL0     C26601   6.862   0.268   5.582 -1.1803 -1.0046  0.4232
  960MOL0     C26602   6.870   0.181   5.707  0.1954 -0.3995 -0.2651
  960MOL0     C26603   6.735   0.121   5.747  0.1235 -0.6244 -0.5117
  960MOL0     C26604   6.730   0.052   5.888 -0.4769 -1.0029  0.6356
  960MOL0     N26605   6.602  -0.016   5.902  0.2681  0.4115  0.5664
  960MOL0     C26606   6.472   0.034   5.885  0.1568 -0.3149 -0.2952
  960MOL0     C26607   6.401  -0.083   5.901  0.6026 -0.8897 -0.6681
  960MOL0     C26608   6.260  -0.079   5.858 -0.2545  0.3158  0.2960
  960MOL0     C26609   6.170  -0.058   5.973 -0.5793 -0.9563 -1.2526
  960MOL0     C26610   6.166  -0.185   6.065  0.6004 -0.1901  0.3928
  960MOL0     C26611   6.119  -0.311   5.982  0.5587 -0.0254 -0.0199
  960MOL0     O26612   6.110  -0.425   6.063  0.3535  0.5793  1.1297
  960MOL0     C26613   6.214  -0.493   6.109 -0.8768  0.1174  0.8418
  960MOL0     C26614   6.351  -0.462   6.091  0.1403  0.3769  0.9895
  960MOL0     C26615   6.448  -0.524   6.165 -0.0842  0.2085  0.1459
  960MOL0     C26616   6.417  -0.646   6.235  0.4393 -0.1644 -0.0072
  960MOL0     C26617   6.525  -0.735   6.288 -0.0778 -0.5262  0.2022
  960MOL0     O26618   6.472  -0.846   6.334  0.3723 -0.2172  1.0043
  960MOL0     C26619   6.541  -0.944   6.409 -0.6042  0.3999  1.0459
  960MOL0     C26620   6.489  -1.080   6.423  0.2190 -0.3197  0.2345
  960MOL0     C26621   6.530  -1.171   6.512 -0.4907  1.4126  0.2548
  960MOL0     C26622   6.640  -1.140   6.597  0.4025 -0.5893  0.5994
  960MOL0     O26623   6.696  -1.241   6.669  0.8397  0.1525 -0.0706
  960MOL0     C26624   6.836  -1.239   6.697  1.1790 -0.1056 -0.1148
  960MOL0     C26625   6.873  -1.389   6.699 -0.4361  0.1960 -0.3487
  960MOL0     C26626   7.020  -1.406   6.763  0.3466  0.5797  0.3043
  960MOL0     C26627   7.139  -1.350   6.677  0.0655  0.2855 -0.2634
  960MOL0     C26628   7.270  -1.326   6.750 -1.3078  0.6290  0.2202
  960MOL0     C26629   7.267  -1.253   6.886  2.4111  0.6957  0.3847
  960MOL0     C26630   7.395  -1.191   6.928  0.6221  0.2382  0.5921
  960MOL0     C26631   7.507  -1.283   6.959 -0.8937 -0.0867 -0.8236
  960MOL0    Cl26632   7.484  -1.376   7.116 -0.2607 -0.2430  0.3767
  960MOL0     C26633   6.701  -1.011   6.590 -0.1333 -0.8047  0.1631
  960MOL0     C26634   6.657  -0.921   6.494  0.2273 -0.5504 -1.1540
  960MOL0     O26635   6.637  -0.696   6.303 -0.3648  0.4950  0.3944
  960MOL0     C26636   6.289  -0.674   6.256 -0.6179 -0.5475 -0.2012
  960MOL0     C26637   6.190  -0.597   6.198 -0.0652 -0.4537  0.3691
  960MOL0     N26638   6.486  -0.186   5.936  0.8137  0.0360 -0.1993
  960MOL0     N26639   6.602  -0.150   5.923 -0.2087  0.9911  0.0617
  960MOL0     C26640   6.801   0.806   5.008 -0.4148  0.0280 -0.4924
  960MOL0     C26641   6.778   0.939   4.961  1.3949 -0.5128  0.8546
  960MOL0     C26642   6.823   1.348   4.845 -0.1691  0.4455  0.1515
  960MOL0     C26643   6.678   1.382   4.840  0.5944 -0.3403 -0.1062
  960MOL0     C26644   6.634   1.465   4.739  0.2923  0.0053  0.3942
  960MOL0     C26645   6.729   1.540   4.659  0.6273 -0.3138 -0.5303
  960MOL0     O26646   6.681   1.628   4.573 -0.5549 -1.0701  0.0004
  960MOL0     C26647   6.752   1.678   4.456 -0.3530 -0.0492 -1.0715
  960MOL0     C26648   6.659   1.713   4.342  0.7740 -0.0827  0.1802
  960MOL0     C26649   6.523   1.767   4.387  0.1485 -0.3255  0.2947
  960MOL0     C26650   6.440   1.813   4.266  0.4028  0.5524  0.0569
  960MOL0     C26651   6.390   1.707   4.176 -1.0053 -0.3457  0.1735
  960MOL0     C26652   6.335   1.614   4.118 -0.8969 -0.0003  0.8292
  960MOL0     C26653   6.867   1.512   4.674 -0.4235  0.2510 -0.0962
  960MOL0     C26654   6.912   1.400   4.758  0.0855 -1.0348  0.4583
  960MOL0     H26655   6.887   1.098   5.245 -0.0499  1.3787 -2.4099
  960MOL0     H26656   6.913   0.877   5.321 -0.5493 -2.3508 -0.8439
  960MOL0     H26657   6.841   0.692   5.393  1.5906 -0.3784  0.9200
  960MOL0     H26658   7.003   0.674   5.321 -0.1321  1.5208 -3.1421
  960MOL0     H26659   6.942   0.426   5.275  1.2626  2.0544 -0.5964
  960MOL0     H26660   6.789   0.458   5.361  0.2130 -0.9533 -1.2319
  960MOL0     H26661   6.939   0.549   5.562 -1.9672  0.3790 -1.4759
  960MOL0     H26662   7.083   0.508   5.458  0.0561 -1.8632  0.9145
  960MOL0     H26663   7.054   0.285   5.475  0.4125  2.6919 -1.6097
  960MOL0     H26664   7.051   0.352   5.642 -0.0594 -0.6666  0.1086
  960MOL0     H26665   6.821   0.223   5.491 -3.9718 -0.1497  1.1493
  960MOL0     H26666   6.792   0.353   5.588  0.1108  0.4400 -2.7097
  960MOL0     H26667   6.906   0.249   5.784 -0.6949  0.5772 -0.6873
  960MOL0     H26668   6.943   0.099   5.707  2.5584  1.4484  3.1186
  960MOL0     H26669   6.664   0.204   5.751  1.0804  0.1611  0.8513
  960MOL0     H26670   6.706   0.046   5.672  0.1953 -0.0490 -1.1266
  960MOL0     H26671   6.731   0.131   5.965  2.0984  0.4199 -0.7307
  960MOL0     H26672   6.821  -0.008   5.897  0.9083  1.2953  4.5448
  960MOL0     H26673   6.429   0.132   5.867 -0.1614  0.0475  2.1868
  960MOL0     H26674   6.233  -0.173   5.808  4.4499 -0.0938 -2.1139
  960MOL0     H26675   6.255   0.001   5.783 -0.4170 -1.4092 -1.6297
  960MOL0     H26676   6.070  -0.017   5.957 -0.4808  0.1987  0.7420
  960MOL0     H26677   6.214   0.021   6.035  1.5864 -3.2025  0.2840
  960MOL0     H26678   6.257  -0.188   6.126 -1.8670  0.6184  4.4443
  960MOL0     H26679   6.085  -0.147   6.127  0.9723  2.2982 -0.4847
  960MOL0     H26680   6.182  -0.338   5.897  0.6303 -2.1591  0.6464
  960MOL0     H26681   6.018  -0.299   5.942  0.0336 -1.4536  0.8220
  960MOL0     H26682   6.381  -0.386   6.020  0.1722 -0.1182  0.4657
  960MOL0     H26683   6.551  -0.494   6.151 -0.3552  0.8858 -0.4329
  960MOL0     H26684   6.409  -1.110   6.355 -0.1615 -0.7163  0.8493
  960MOL0     H26685   6.473  -1.263   6.519 -1.8244  2.2956  1.8982
  960MOL0     H26686   6.859  -1.201   6.797  1.5368  0.3276 -0.3566
  960MOL0     H26687   6.893  -1.187   6.619  3.1899  0.4089  1.5921
  960MOL0     H26688   6.878  -1.431   6.598  1.8669 -1.4361  0.3599
  960MOL0     H26689   6.794  -1.439   6.757 -0.4986 -1.1470 -1.5417
  960MOL0     H26690   7.035  -1.514   6.773 -4.4987 -1.1937 -5.6806
  960MOL0     H26691   7.006  -1.357   6.860 -1.4924  0.5037  0.1107
  960MOL0     H26692   7.146  -1.411   6.586 -1.7523  0.0100 -0.2566
  960MOL0     H26693   7.108  -1.250   6.646  0.3172  0.8086  1.1205
  960MOL0     H26694   7.346  -1.288   6.681  0.1379  0.4408  1.6546
  960MOL0     H26695   7.304  -1.427   6.776  0.5571  1.2245  0.2881
  960MOL0     H26696   7.240  -1.336   6.953 -0.0627 -0.4071 -1.8187
  960MOL0     H26697   7.182  -1.184   6.886  2.1953  0.4447  0.9564
  960MOL0     H26698   7.429  -1.136   6.840  1.5971  0.0969  0.8726
  960MOL0     H26699   7.389  -1.122   7.013  2.1911  0.6377  0.3967
  960MOL0     H26700   7.597  -1.221   6.967 -0.3629 -0.9004 -0.3678
  960MOL0     H26701   7.518  -1.348   6.871 -0.9332 -2.7673  1.0291
  960MOL0     H26702   6.785  -0.988   6.655  1.6366  1.9743 -2.8027
  960MOL0     H26703   6.705  -0.824   6.487 -0.4039  0.0852  1.9540
  960MOL0     H26704   6.253  -0.763   6.307 -2.1778 -0.2944 -0.8076
  960MOL0     H26705   6.087  -0.627   6.215 -0.8069  2.7248  2.5082
  960MOL0     H26706   6.787   0.714   4.952 -1.6340 -0.9025  1.2606
  960MOL0     H26707   6.739   0.958   4.861 -0.1452  0.7130  1.6508
  960MOL0     H26708   6.612   1.337   4.913  0.2742  0.1196 -0.1075
  960MOL0     H26709   6.531   1.497   4.733  0.2996 -0.0644 -0.0914
  960MOL0     H26710   6.824   1.599   4.429  3.2365  2.0452  1.4899
  960MOL0     H26711   6.811   1.764   4.488  0.1255 -0.3891 -1.0173
  960MOL0     H26712   6.707   1.795   4.288 -2.0674  1.8354  0.3376
  960MOL0     H26713   6.642   1.626   4.277 -1.4113  0.0627  0.4663
  960MOL0     H26714   6.551   1.845   4.458 -1.1663 -1.7140  2.4426
  960MOL0     H26715   6.460   1.702   4.447  0.0536  0.5493  1.1732
  960MOL0     H26716   6.344   1.860   4.292 -0.2003  1.3642 -3.2238
  960MOL0     H26717   6.493   1.891   4.211  2.5472  0.3919  1.7644
  960MOL0     H26718   6.284   1.526   4.083 -1.3946  1.1730 -1.6192
  960MOL0     H26719   6.938   1.562   4.610  0.0066 -0.5314 -0.2517
  960MOL0     H26720   7.017   1.375   4.762 -0.7059 -4.7584  3.2949
  961MOL0     O26721  11.029   7.691   1.778 -0.2301  0.2708  0.3442
  961MOL0     C26722  11.081   7.803   1.809  0.0760  0.8702  0.3412
  961MOL0     O26723  11.209   7.836   1.791  0.1089  0.8568 -1.2436
  961MOL0     C26724  11.290   7.734   1.743 -0.9482 -0.2201 -0.1697
  961MOL0     C26725  11.353   7.654   1.836 -0.5826 -0.4915 -0.4957
  961MOL0     C26726  11.455   7.566   1.795  0.0827 -0.2870  0.2891
  961MOL0     C26727  11.495   7.556   1.661  0.0889 -0.3493 -0.3636
  961MOL0     O26728  11.589   7.466   1.621 -0.3678 -0.7159  0.7275
  961MOL0     C26729  11.663   7.494   1.494 -0.1103  0.3618  0.1571
  961MOL0     C26730  11.797   7.427   1.510 -1.1739  0.1598 -0.2844
  961MOL0     C26731  11.859   7.473   1.638  0.2630 -0.8252 -1.0597
  961MOL0     C26732  11.874   7.630   1.653 -0.1217 -0.0328  0.4161
  961MOL0     C26733  11.975   7.665   1.758 -0.0994  0.0487  0.4303
  961MOL0     C26734  12.111   7.593   1.739  0.1785  0.3265 -0.1556
  961MOL0     C26735  12.167   7.622   1.592 -0.2628 -0.7336 -0.7082
  961MOL0     C26736  12.205   7.767   1.573  0.3692 -0.7831  1.2790
  961MOL0     N26737  12.317   7.811   1.651  0.6258 -0.7778 -0.8358
  961MOL0     C26738  12.329   7.902   1.760  0.0151  0.2460  0.3582
  961MOL0     C26739  12.456   7.896   1.797  0.3013 -0.6676  0.5940
  961MOL0     C26740  12.507   7.964   1.917  0.2248  0.3592 -0.2895
  961MOL0     C26741  12.593   8.084   1.884  0.9738 -0.3514  0.5717
  961MOL0     C26742  12.722   8.042   1.814 -0.4167 -0.6539  0.3101
  961MOL0     C26743  12.793   7.923   1.882 -0.1136 -0.4036  0.8062
  961MOL0     O26744  12.824   7.940   2.020  0.2779  0.3970 -0.5231
  961MOL0     C26745  12.940   8.006   2.068 -0.0691  0.0451  0.1839
  961MOL0     C26746  13.052   8.039   1.987  0.4939  0.4761  0.4428
  961MOL0     C26747  13.171   8.082   2.052  1.0295  0.5288  0.2297
  961MOL0     C26748  13.166   8.114   2.191  0.0085 -0.2679 -0.6047
  961MOL0     C26749  13.293   8.151   2.268  0.5688 -0.6160  0.1139
  961MOL0     O26750  13.318   8.098   2.386 -0.5044 -0.1610  0.4361
  961MOL0     C26751  13.416   8.163   2.458  0.1535  0.2524 -0.0800
  961MOL0     C26752  13.384   8.204   2.587  0.1770  1.3830 -0.7644
  961MOL0     C26753  13.485   8.266   2.665 -0.5928  0.4216  0.5390
  961MOL0     C26754  13.612   8.301   2.627 -0.2207 -0.1800 -0.4106
  961MOL0     O26755  13.698   8.364   2.715 -0.4826  0.8474 -0.2312
  961MOL0     C26756  13.840   8.345   2.690  0.1523  0.2778 -0.7530
  961MOL0     C26757  13.896   8.412   2.816 -0.4617  0.4402  0.6027
  961MOL0     C26758  14.036   8.379   2.837 -0.2503  0.6326 -0.1449
  961MOL0     C26759  14.109   8.467   2.739 -1.3912  0.6940 -0.5748
  961MOL0     C26760  14.260   8.445   2.773  1.1760  0.3438 -0.1530
  961MOL0     C26761  14.309   8.535   2.884  0.5137 -0.7710 -0.1437
  961MOL0     C26762  14.462   8.518   2.931  0.5685  0.5701 -0.9441
  961MOL0     C26763  14.492   8.596   3.062  0.9094  0.7116 -0.4274
  961MOL0    Cl26764  14.405   8.519   3.204  0.2282 -0.5656  0.3419
  961MOL0     C26765  13.644   8.257   2.497  0.0697  0.3805  0.5001
  961MOL0     C26766  13.548   8.183   2.412  0.3987  0.1151 -0.2394
  961MOL0     O26767  13.348   8.240   2.210 -0.2148  0.2138  0.8945
  961MOL0     C26768  13.058   8.082   2.265 -0.0699 -0.2049  0.8454
  961MOL0     C26769  12.948   8.016   2.208 -0.0483 -0.7005 -0.3175
  961MOL0     N26770  12.527   7.806   1.718  0.9058  0.0991  0.2941
  961MOL0     N26771  12.441   7.754   1.637  0.1865 -1.3433  0.9362
  961MOL0     C26772  11.436   7.652   1.575  0.7036  0.0069 -0.3723
  961MOL0     C26773  11.332   7.739   1.610 -0.0262 -0.1163  0.0046
  961MOL0     C26774  10.996   7.904   1.870  0.3468  0.0742 -0.2699
  961MOL0     C26775  11.039   8.039   1.891  0.6349 -0.1121 -0.1195
  961MOL0     C26776  10.957   8.128   1.964  0.2620  0.4540 -0.0084
  961MOL0     C26777  10.835   8.080   2.017 -0.2453  0.0635 -0.3215
  961MOL0     O26778  10.751   8.168   2.087  0.8738  0.2141 -0.3171
  961MOL0     C26779  10.755   8.309   2.054 -0.3169 -0.7755 -0.1491
  961MOL0     C26780  10.613   8.363   2.054  0.4338  0.2962  0.9783
  961MOL0     C26781  10.574   8.444   2.181  0.3612  0.1899  0.3828
  961MOL0     C26782  10.613   8.384   2.314 -1.0124 -0.8891 -0.5936
  961MOL0     C26783  10.627   8.482   2.425  0.5970  1.3361  0.0867
  961MOL0     C26784  10.672   8.562   2.505  0.5322 -0.7927 -0.0111
  961MOL0     C26785  10.797   7.953   1.989 -0.1610  0.9445  0.1117
  961MOL0     C26786  10.866   7.862   1.909 -0.0509  0.3553  0.1333
  961MOL0     H26787  11.317   7.669   1.937  3.7456  0.7054  1.1043
  961MOL0     H26788  11.487   7.508   1.880  1.5596  0.7341  0.4757
  961MOL0     H26789  11.687   7.599   1.478  1.0881 -0.2269 -2.3458
  961MOL0     H26790  11.607   7.463   1.405 -2.2948 -0.8913  1.8549
  961MOL0     H26791  11.857   7.462   1.426  0.3173  1.4859  1.2826
  961MOL0     H26792  11.782   7.319   1.502 -2.0238  0.1190  1.4571
  961MOL0     H26793  11.959   7.429   1.638  0.5586 -0.1978 -2.3544
  961MOL0     H26794  11.823   7.430   1.732  1.1831  1.6968  0.5396
  961MOL0     H26795  11.897   7.678   1.557 -2.3700  0.4136  0.0408
  961MOL0     H26796  11.776   7.670   1.680 -0.1387  0.6886 -0.6659
  961MOL0     H26797  11.948   7.633   1.860  4.4427 -2.8132  1.0453
  961MOL0     H26798  11.984   7.773   1.752  1.0150 -0.1022 -4.5639
  961MOL0     H26799  12.104   7.487   1.763  0.7200  0.3834  0.2678
  961MOL0     H26800  12.181   7.644   1.805 -1.1459  1.7900  0.1793
  961MOL0     H26801  12.261   7.568   1.578  0.5177 -0.4831  2.6318
  961MOL0     H26802  12.103   7.583   1.512 -2.3745  2.0039 -0.4690
  961MOL0     H26803  12.113   7.827   1.572  1.2858  0.7417 -1.2229
  961MOL0     H26804  12.239   7.778   1.469  4.0727 -1.3501  2.2853
  961MOL0     H26805  12.249   7.961   1.803 -0.0162 -1.0977  2.2532
  961MOL0     H26806  12.553   7.894   1.987  0.3069  0.4111 -0.2907
  961MOL0     H26807  12.416   7.990   1.971 -1.2019  0.0003 -2.3946
  961MOL0     H26808  12.609   8.133   1.980  0.0584  0.2543  0.4260
  961MOL0     H26809  12.530   8.144   1.817  2.1846 -0.4001 -0.6428
  961MOL0     H26810  12.707   8.033   1.706 -4.4149  1.2395  0.5364
  961MOL0     H26811  12.785   8.131   1.825 -0.6240  0.5251 -5.1622
  961MOL0     H26812  12.890   7.907   1.834 -0.7283 -1.9631  0.0064
  961MOL0     H26813  12.734   7.832   1.873 -1.2383  0.2924  0.9740
  961MOL0     H26814  13.066   8.005   1.885  1.7987 -2.2747  1.4315
  961MOL0     H26815  13.269   8.112   2.017  0.3899  4.2648  1.2523
  961MOL0     H26816  13.286   8.187   2.630  0.2516 -0.5153 -1.2177
  961MOL0     H26817  13.463   8.298   2.767 -1.3012  0.2990  0.4326
  961MOL0     H26818  13.865   8.405   2.602  0.4938  1.9943  0.4614
  961MOL0     H26819  13.862   8.238   2.680 -1.3690 -0.0537 -0.8612
  961MOL0     H26820  13.854   8.379   2.911 -3.0172  1.8016  0.0156
  961MOL0     H26821  13.866   8.517   2.812  1.5744  1.0787  0.5245
  961MOL0     H26822  14.062   8.272   2.832 -1.6314  0.2734 -0.0110
  961MOL0     H26823  14.057   8.420   2.936 -1.0160 -0.1694  0.3737
  961MOL0     H26824  14.103   8.443   2.632 -0.8382 -0.4944 -0.3586
  961MOL0     H26825  14.078   8.572   2.742 -1.8967  0.5270  1.8619
  961MOL0     H26826  14.326   8.471   2.690 -0.1193 -0.7086 -1.5743
  961MOL0     H26827  14.285   8.340   2.788  1.3592  0.7531  3.1503
  961MOL0     H26828  14.251   8.525   2.976  0.6520 -1.2054 -0.1027
  961MOL0     H26829  14.299   8.640   2.856 -1.9140 -0.5001  1.3983
  961MOL0     H26830  14.470   8.411   2.952  2.6113  0.8341 -0.2244
  961MOL0     H26831  14.528   8.536   2.846  1.5616  0.7954 -0.1367
  961MOL0     H26832  14.446   8.692   3.038 -0.9095 -0.1243 -0.4956
  961MOL0     H26833  14.598   8.596   3.088  0.9020 -0.1053 -0.3606
  961MOL0     H26834  13.744   8.273   2.459 -0.2369 -0.2793 -0.6596
  961MOL0     H26835  13.572   8.127   2.322 -2.6610 -1.5440 -0.1622
  961MOL0     H26836  13.054   8.100   2.372 -6.0979 -0.7347  1.0196
  961MOL0     H26837  12.864   7.969   2.259 -1.8909  2.0386 -0.6519
  961MOL0     H26838  11.459   7.647   1.469 -0.6562  4.9026 -1.1174
  961MOL0     H26839  11.301   7.807   1.531  0.8288  0.3763  0.0727
  961MOL0     H26840  11.140   8.060   1.857  0.5764 -1.2373 -1.0687
  961MOL0     H26841  11.007   8.219   1.996  1.1747 -0.6747  2.0003
  961MOL0     H26842  10.802   8.331   1.957  0.1879  3.0164  0.7882
  961MOL0     H26843  10.815   8.368   2.124 -2.5453  0.6542  0.6619
  961MOL0     H26844  10.579   8.429   1.974 -1.3893  2.7659  3.5832
  961MOL0     H26845  10.545   8.278   2.047  2.5184 -1.2966 -1.8069
  961MOL0     H26846  10.469   8.476   2.184  1.1866  3.2276  1.2442
  961MOL0     H26847  10.627   8.539   2.173  1.1192 -0.3893 -2.8047
  961MOL0     H26848  10.554   8.295   2.336  0.8523 -2.3547 -1.2468
  961MOL0     H26849  10.715   8.344   2.312 -1.6126 -2.7059  1.5071
  961MOL0     H26850  10.697   8.639   2.576 -0.1384 -0.3195 -0.2734
  961MOL0     H26851  10.711   7.910   2.038 -0.2499 -1.1319 -1.6920
  961MOL0     H26852  10.837   7.759   1.892 -0.9802  0.3074  1.8477
  962MOL0     O26853  10.802   7.083   0.676  0.0370  0.1649  0.1100
  962MOL0     C26854  10.892   7.038   0.740 -0.1627 -0.2741  0.0208
  962MOL0     O26855  10.980   7.118   0.811  0.3536 -0.9218  0.4548
  962MOL0     C26856  10.974   7.256   0.783  0.2031 -0.5980 -0.8171
  962MOL0     C26857  11.054   7.316   0.690 -0.1914 -0.1905 -0.9087
  962MOL0     C26858  11.039   7.459   0.678  0.5502  0.3648  0.8256
  962MOL0     C26859  10.959   7.536   0.756 -0.1479 -0.4154  0.0489
  962MOL0     O26860  10.954   7.670   0.720  0.5762  0.9653  0.2508
  962MOL0     C26861  10.895   7.747   0.822  0.0699 -0.2981 -0.6594
  962MOL0     C26862  10.896   7.895   0.772 -0.3703  0.3360 -0.6404
  962MOL0     C26863  11.028   7.928   0.710 -0.6377  0.0969 -0.2066
  962MOL0     C26864  11.035   8.078   0.672 -0.3694 -0.3391  0.5768
  962MOL0     C26865  11.157   8.114   0.596  0.2669 -0.0269  0.3682
  962MOL0     C26866  11.292   8.117   0.676 -0.6254  0.4363 -1.3188
  962MOL0     C26867  11.284   8.206   0.809  0.0156  0.8432  0.1387
  962MOL0     C26868  11.434   8.253   0.833 -0.8726  0.3908 -0.0444
  962MOL0     N26869  11.441   8.289   0.978  0.0090 -0.0932 -0.4316
  962MOL0     C26870  11.410   8.414   1.025  0.0132 -0.5872  0.2421
  962MOL0     C26871  11.458   8.421   1.155 -0.3140  1.2554 -0.4687
  962MOL0     C26872  11.453   8.551   1.236  0.3269 -0.1663 -0.4114
  962MOL0     C26873  11.311   8.606   1.271 -0.1350  0.0415  0.4696
  962MOL0     C26874  11.337   8.729   1.355 -0.3363  1.2399 -1.0203
  962MOL0     C26875  11.307   8.715   1.505  0.1451  0.0925  0.3159
  962MOL0     O26876  11.161   8.715   1.516 -0.4191 -0.6300  0.5948
  962MOL0     C26877  11.107   8.826   1.594 -0.9419  1.3128 -0.3857
  962MOL0     C26878  11.104   8.819   1.731 -1.1666  0.4766 -0.3069
  962MOL0     C26879  11.033   8.910   1.802 -0.0207 -0.1676 -0.3627
  962MOL0     C26880  10.970   9.015   1.736  0.1531 -0.2512  0.4687
  962MOL0     C26881  10.881   9.117   1.803  0.3707 -0.0091 -0.6921
  962MOL0     O26882  10.865   9.231   1.726 -0.0335  0.5492  0.3716
  962MOL0     C26883  10.798   9.325   1.791  0.9831  0.1800 -0.8047
  962MOL0     C26884  10.659   9.320   1.799 -0.2852 -0.1002 -0.3067
  962MOL0     C26885  10.601   9.423   1.868  0.6299 -0.0468 -1.0534
  962MOL0     C26886  10.672   9.537   1.920 -0.0102 -0.7539 -0.0690
  962MOL0     O26887  10.600   9.638   1.976  0.7374 -0.4268  0.6131
  962MOL0     C26888  10.660   9.753   2.019 -0.5319  0.4716 -0.7055
  962MOL0     C26889  10.560   9.847   2.103  0.0641  0.3774  0.6378
  962MOL0     C26890  10.522   9.774   2.231 -0.4647 -0.3809 -0.5446
  962MOL0     C26891  10.428   9.849   2.322 -0.8741  0.3020  0.2953
  962MOL0     C26892  10.281   9.831   2.282 -1.1689 -0.0588 -0.2432
  962MOL0     C26893  10.177   9.881   2.383 -0.1926  0.2361 -0.3252
  962MOL0     C26894  10.031   9.853   2.330  0.2277 -0.0059  0.0503
  962MOL0     C26895   9.943   9.985   2.332 -0.5273  0.2499 -0.8959
  962MOL0    Cl26896   9.894  10.016   2.497  0.4395  0.2760 -0.1349
  962MOL0     C26897  10.808   9.537   1.910  0.3304 -0.1285  0.5349
  962MOL0     C26898  10.869   9.426   1.848 -0.3715 -0.2018  0.9007
  962MOL0     O26899  10.863   9.109   1.930 -0.4890  0.2467 -0.2951
  962MOL0     C26900  10.968   9.019   1.599 -0.0287  0.7622  0.1378
  962MOL0     C26901  11.046   8.923   1.527 -0.5497  0.3272  1.1113
  962MOL0     N26902  11.511   8.292   1.176  0.3159  0.8782  0.6733
  962MOL0     N26903  11.498   8.214   1.070 -0.1945  0.1982 -0.7520
  962MOL0     C26904  10.881   7.469   0.853  0.3603  0.7561 -1.1185
  962MOL0     C26905  10.887   7.333   0.864 -0.0175  0.7133  0.0718
  962MOL0     C26906  10.907   6.887   0.755 -1.2131  0.1157 -0.2381
  962MOL0     C26907  10.823   6.794   0.689  0.3260  0.6542  0.0080
  962MOL0     C26908  10.844   6.657   0.687 -0.1163 -0.1352 -0.3968
  962MOL0     C26909  10.959   6.604   0.749  0.0838 -0.3323 -0.1618
  962MOL0     O26910  10.990   6.474   0.761  0.9369  0.3265  0.1844
  962MOL0     C26911  10.930   6.372   0.681  0.5953 -0.6609 -0.1590
  962MOL0     C26912  11.015   6.244   0.701 -0.0160  0.7857  0.0156
  962MOL0     C26913  10.982   6.169   0.582  0.4224  0.2968  1.2664
  962MOL0     C26914  11.068   6.040   0.558  0.1674 -0.4423 -0.3318
  962MOL0     C26915  11.035   5.963   0.679 -0.5404 -0.4988 -0.4368
  962MOL0     C26916  10.979   5.909   0.775  0.1596 -0.3112 -0.5296
  962MOL0     C26917  11.039   6.695   0.825 -0.8797  1.2643 -0.8674
  962MOL0     C26918  11.017   6.836   0.819  0.4993  0.6088  0.3652
  962MOL0     H26919  11.128   7.254   0.641 -0.8876 -1.7258 -0.0999
  962MOL0     H26920  11.100   7.503   0.599  0.7879 -0.0184  0.7941
  962MOL0     H26921  10.955   7.738   0.913  0.5666  1.7547 -0.7429
  962MOL0     H26922  10.792   7.714   0.838  1.2158 -3.4545  1.1271
  962MOL0     H26923  10.871   7.969   0.848  0.9733  0.3682 -0.2108
  962MOL0     H26924  10.809   7.908   0.707 -0.5983 -1.7810 -0.8328
  962MOL0     H26925  11.036   7.873   0.615  0.5232  0.7211 -0.4907
  962MOL0     H26926  11.108   7.897   0.778 -0.9847 -2.0528 -0.7128
  962MOL0     H26927  10.956   8.091   0.597 -2.1187 -0.7994  2.2689
  962MOL0     H26928  11.031   8.141   0.761 -1.8390 -0.0144  0.3098
  962MOL0     H26929  11.143   8.213   0.551 -2.3404  0.3828  1.8320
  962MOL0     H26930  11.154   8.041   0.514  0.3247 -2.7070  2.5986
  962MOL0     H26931  11.369   8.160   0.611 -2.8850  2.1759 -3.0132
  962MOL0     H26932  11.319   8.019   0.714 -2.4763  0.7633  1.1409
  962MOL0     H26933  11.205   8.281   0.795 -1.7700 -0.9098  0.3813
  962MOL0     H26934  11.253   8.139   0.890  0.1244  2.0311  1.1937
  962MOL0     H26935  11.471   8.334   0.770 -0.4589  1.8035  1.9005
  962MOL0     H26936  11.496   8.164   0.821  0.8789  1.4725  0.4771
  962MOL0     H26937  11.340   8.484   0.981  1.0807  1.0039  1.0057
  962MOL0     H26938  11.509   8.628   1.183  1.1534 -0.6220 -0.2287
  962MOL0     H26939  11.502   8.529   1.331  2.1071 -0.1419 -1.2893
  962MOL0     H26940  11.246   8.533   1.318 -0.1705  1.5112  2.8844
  962MOL0     H26941  11.264   8.638   1.178 -0.1144  2.8371  1.3265
  962MOL0     H26942  11.443   8.755   1.345  0.6821 -1.7155  0.9060
  962MOL0     H26943  11.275   8.807   1.310 -1.3267 -0.0728 -2.0141
  962MOL0     H26944  11.366   8.779   1.572  1.3831 -2.1855  1.5337
  962MOL0     H26945  11.344   8.619   1.543  0.5249 -0.5750 -1.6419
  962MOL0     H26946  11.149   8.744   1.795 -0.5177  1.0572 -0.0737
  962MOL0     H26947  11.016   8.893   1.907 -1.9340  1.2124 -0.4042
  962MOL0     H26948  10.603   9.241   1.749 -0.7262 -1.5092  2.2460
  962MOL0     H26949  10.493   9.425   1.878  0.4285  3.9347 -2.2881
  962MOL0     H26950  10.683   9.813   1.931  0.0472  1.4994  0.1267
  962MOL0     H26951  10.750   9.732   2.078 -2.0720 -2.9448  0.6698
  962MOL0     H26952  10.470   9.853   2.042  0.8586  1.1413 -0.5166
  962MOL0     H26953  10.603   9.946   2.122 -1.1518  0.8721  0.9217
  962MOL0     H26954  10.608   9.765   2.298 -3.4471  1.9219  4.1017
  962MOL0     H26955  10.485   9.675   2.205  2.8979 -1.3286 -2.3528
  962MOL0     H26956  10.437   9.821   2.428  0.6356 -0.6901 -0.0667
  962MOL0     H26957  10.456   9.953   2.310  0.1360  0.0103  0.0393
  962MOL0     H26958  10.249   9.728   2.265  0.3824 -1.0905  2.5295
  962MOL0     H26959  10.260   9.881   2.187  1.0973 -1.2799 -1.4570
  962MOL0     H26960  10.187   9.986   2.413 -0.7891  0.1371  0.2558
  962MOL0     H26961  10.202   9.818   2.469  3.4077  1.3994 -0.3596
  962MOL0     H26962  10.042   9.838   2.222 -0.6782  4.8554 -0.9410
  962MOL0     H26963   9.984   9.766   2.377 -0.8838  2.1704  3.3145
  962MOL0     H26964   9.862   9.977   2.258  1.7990  0.3633 -3.6174
  962MOL0     H26965  10.015  10.061   2.301  3.0713 -0.8027  3.7221
  962MOL0     H26966  10.868   9.620   1.946 -1.6631  1.1318  1.1181
  962MOL0     H26967  10.976   9.423   1.834 -0.0430  3.4691  1.6524
  962MOL0     H26968  10.915   9.099   1.548 -0.7030  0.3908  0.2409
  962MOL0     H26969  11.049   8.922   1.418  0.2262 -1.9232  1.1053
  962MOL0     H26970  10.809   7.517   0.918 -0.3346  1.3464 -2.2928
  962MOL0     H26971  10.839   7.265   0.933  2.4824 -3.2462 -1.6958
  962MOL0     H26972  10.736   6.842   0.645  0.8730  0.9146 -0.8247
  962MOL0     H26973  10.770   6.592   0.641 -2.1698  2.5921 -1.2438
  962MOL0     H26974  10.920   6.402   0.576 -1.7295  2.5400  0.8059
  962MOL0     H26975  10.829   6.359   0.720  0.0379  2.2079 -0.4116
  962MOL0     H26976  11.123   6.261   0.707 -0.4824  4.2565  0.5499
  962MOL0     H26977  10.987   6.188   0.790  1.4425 -2.0718 -1.1818
  962MOL0     H26978  10.983   6.221   0.486 -2.3468 -1.3150  0.2151
  962MOL0     H26979  10.878   6.136   0.595  0.2604  0.3462  0.1991
  962MOL0     H26980  11.035   5.995   0.464  1.5320 -0.1206 -0.9900
  962MOL0     H26981  11.175   6.065   0.558  0.2522 -0.6654  1.5452
  962MOL0     H26982  10.935   5.871   0.865  2.0418  2.0821  1.5524
  962MOL0     H26983  11.120   6.662   0.889 -1.1495  0.7880 -0.7720
  962MOL0     H26984  11.093   6.886   0.879 -1.7867  0.8367  3.3246
  963MOL0     O26985   4.061   9.767   2.489 -0.2593  0.4032 -0.7777
  963MOL0     C26986   4.016   9.776   2.376  0.9332 -0.3600  0.0156
  963MOL0     O26987   4.089   9.820   2.265  0.3531  0.0446 -0.3689
  963MOL0     C26988   4.225   9.815   2.264 -0.4238  0.7390  0.7322
  963MOL0     C26989   4.311   9.848   2.367  0.4134 -0.5156 -0.5280
  963MOL0     C26990   4.451   9.845   2.334 -0.4386  0.1698  0.4736
  963MOL0     C26991   4.505   9.801   2.212  0.3853 -0.2761 -0.2038
  963MOL0     O26992   4.642   9.766   2.188 -0.1348 -0.6788  0.4036
  963MOL0     C26993   4.748   9.855   2.230  0.8111  0.3346 -0.9310
  963MOL0     C26994   4.868   9.810   2.149 -0.6276  0.5256  0.2285
  963MOL0     C26995   4.877   9.859   1.993  0.7993  0.2353 -0.5144
  963MOL0     C26996   5.014   9.811   1.937 -0.5154  0.5551  0.1132
  963MOL0     C26997   5.039   9.835   1.789 -0.2086 -0.2989  0.4363
  963MOL0     C26998   5.183   9.828   1.748 -0.2341 -0.0178  0.0806
  963MOL0     C26999   5.247   9.691   1.746  0.3489 -0.7366  0.3066
  963MOL0     C27000   5.398   9.685   1.794 -0.0582 -0.5957  0.3004
  963MOL0     N27001   5.408   9.758   1.918 -0.7263 -0.4528 -0.3118
  963MOL0     C27002   5.400   9.696   2.041  1.4780 -0.3895  0.1654
  963MOL0     C27003   5.425   9.793   2.136 -0.3111 -0.6968  0.7021
  963MOL0     C27004   5.426   9.761   2.282  0.1733  0.4041  0.6301
  963MOL0     C27005   5.383   9.876   2.370  0.2517  0.5981 -0.0995
  963MOL0     C27006   5.377   9.840   2.519 -0.9181  0.2245  0.4144
  963MOL0     C27007   5.272   9.911   2.608 -0.5804 -0.8448  0.1044
  963MOL0     O27008   5.150   9.843   2.588 -0.3183 -0.0930 -0.5365
  963MOL0     C27009   5.036   9.892   2.632 -0.3981  1.1293 -0.0906
  963MOL0     C27010   5.008   9.977   2.742  0.1486 -0.0079 -0.3611
  963MOL0     C27011   4.879  10.016   2.779  0.2806 -0.1392 -0.2923
  963MOL0     C27012   4.769   9.964   2.702  0.7217 -0.9517  1.3701
  963MOL0     C27013   4.633  10.006   2.736  0.4069  0.1913  0.3516
  963MOL0     O27014   4.611  10.063   2.861  0.0570  0.2154 -0.0366
  963MOL0     C27015   4.513  10.147   2.894 -0.1123  0.6881  0.5864
  963MOL0     C27016   4.441  10.217   2.795  0.1400 -0.4692  0.0696
  963MOL0     C27017   4.335  10.302   2.829 -0.8355  0.1359 -0.4230
  963MOL0     C27018   4.286  10.314   2.958 -0.6316 -0.1950 -0.9089
  963MOL0     O27019   4.173  10.387   2.975 -0.4000 -0.0821  0.5451
  963MOL0     C27020   4.100  10.366   3.096 -0.3069  0.4945 -0.3000
  963MOL0     C27021   3.954  10.413   3.088  0.0085 -0.6838  0.0868
  963MOL0     C27022   3.927  10.530   2.984  0.4291 -1.0290  0.3988
  963MOL0     C27023   3.782  10.582   2.992  0.1678 -0.0388  0.6231
  963MOL0     C27024   3.786  10.733   2.949 -0.1390  0.2122  0.2938
  963MOL0     C27025   3.790  10.733   2.795  0.8371 -0.4579 -0.3815
  963MOL0     C27026   3.699  10.850   2.746 -0.1232  1.0130  0.3862
  963MOL0     C27027   3.716  10.874   2.593  0.6699 -0.1264 -0.1889
  963MOL0    Cl27028   3.563  10.937   2.532 -0.9013 -0.3640  0.3437
  963MOL0     C27029   4.368  10.255   3.060  0.3250 -0.1228 -0.2404
  963MOL0     C27030   4.477  10.175   3.022  0.2537  0.8830 -0.8970
  963MOL0     O27031   4.544   9.983   2.655  0.8036  0.5220 -0.0778
  963MOL0     C27032   4.794   9.870   2.599  0.0728 -0.0318  0.3067
  963MOL0     C27033   4.925   9.845   2.562  0.4613  0.0649 -1.1806
  963MOL0     N27034   5.463   9.910   2.067  0.3443  0.2124 -0.3094
  963MOL0     N27035   5.454   9.884   1.939 -0.4257  0.0837  0.1621
  963MOL0     C27036   4.411   9.778   2.110 -0.0097 -0.2741 -0.4104
  963MOL0     C27037   4.273   9.775   2.133  0.3473  0.2999 -1.2846
  963MOL0     C27038   3.875   9.725   2.360  0.0090  0.7365  0.9370
  963MOL0     C27039   3.776   9.710   2.460  0.0219  0.8216  0.3514
  963MOL0     C27040   3.658   9.642   2.423  0.4562  0.0518  0.2092
  963MOL0     C27041   3.635   9.588   2.294  0.6749 -0.2815 -0.5860
  963MOL0     O27042   3.515   9.536   2.259  0.1369  0.2393 -0.3354
  963MOL0     C27043   3.401   9.533   2.338  0.1434 -0.0523  0.0532
  963MOL0     C27044   3.292   9.502   2.240 -0.6453  0.5963 -1.3712
  963MOL0     C27045   3.243   9.616   2.153 -0.6171 -0.3041  0.3223
  963MOL0     C27046   3.104   9.614   2.092 -0.0072 -0.6041  1.1262
  963MOL0     C27047   3.100   9.627   1.947 -0.0953  0.4090 -0.1162
  963MOL0     C27048   3.089   9.624   1.828 -0.1905 -0.4729 -0.2923
  963MOL0     C27049   3.727   9.612   2.196 -0.1451 -0.3158 -1.2968
  963MOL0     C27050   3.837   9.685   2.226 -0.7980  0.7124 -0.3145
  963MOL0     H27051   4.271   9.884   2.462 -0.3098  2.4735 -1.8564
  963MOL0     H27052   4.516   9.867   2.418  0.2872 -0.5233  0.1102
  963MOL0     H27053   4.757   9.835   2.337  0.2817  0.2269 -0.9077
  963MOL0     H27054   4.733   9.962   2.212  0.7540  0.3236 -0.9506
  963MOL0     H27055   4.853   9.705   2.120 -2.4146  0.8646 -0.1641
  963MOL0     H27056   4.960   9.838   2.200 -1.2951  0.1495  1.6830
  963MOL0     H27057   4.863   9.967   1.986 -0.8743  0.0339 -0.6496
  963MOL0     H27058   4.791   9.815   1.942  1.2069 -0.7298 -0.3986
  963MOL0     H27059   5.091   9.870   1.987  0.0061 -1.1882  1.4584
  963MOL0     H27060   5.039   9.708   1.963 -0.4540  0.6942  0.6360
  963MOL0     H27061   5.006   9.938   1.774 -1.3025 -0.8930 -1.5498
  963MOL0     H27062   4.971   9.766   1.740  1.7408 -1.4462 -0.7884
  963MOL0     H27063   5.235   9.890   1.821  4.2563 -1.8598 -1.2455
  963MOL0     H27064   5.202   9.884   1.656 -0.0774 -0.2418 -0.0240
  963MOL0     H27065   5.184   9.634   1.815 -1.8518 -0.5805 -1.4532
  963MOL0     H27066   5.238   9.646   1.646 -3.0425  2.8826 -1.2887
  963MOL0     H27067   5.463   9.744   1.728 -3.2092  3.8669  0.6953
  963MOL0     H27068   5.443   9.586   1.794  1.6026  0.0349  3.2858
  963MOL0     H27069   5.365   9.596   2.065 -1.2885  0.6115  0.6432
  963MOL0     H27070   5.525   9.728   2.315 -0.3400  0.6482  2.5274
  963MOL0     H27071   5.357   9.679   2.302 -1.4533  1.3838 -0.6720
  963MOL0     H27072   5.280   9.904   2.343  0.3334  0.2931 -0.7278
  963MOL0     H27073   5.427   9.974   2.352  0.3463  0.1230 -2.8063
  963MOL0     H27074   5.378   9.730   2.525  0.4864  0.1664 -0.4780
  963MOL0     H27075   5.473   9.871   2.562 -0.5594  0.3211 -0.4288
  963MOL0     H27076   5.270  10.017   2.584  0.8628 -0.6491  0.7598
  963MOL0     H27077   5.297   9.907   2.715  1.4401 -2.8706 -0.3494
  963MOL0     H27078   5.090  10.007   2.807  1.3285 -1.4911 -1.0866
  963MOL0     H27079   4.861  10.077   2.867 -0.8527  2.2140 -2.0406
  963MOL0     H27080   4.453  10.221   2.688  0.9183  0.1360  0.1752
  963MOL0     H27081   4.313  10.373   2.750 -0.1114  2.3518  1.2587
  963MOL0     H27082   4.142  10.431   3.173 -0.8341  0.5369 -0.0425
  963MOL0     H27083   4.109  10.261   3.125  1.4051  0.3478 -1.2186
  963MOL0     H27084   3.922  10.440   3.189 -0.1221  2.2956 -0.6620
  963MOL0     H27085   3.895  10.330   3.047 -2.5944  0.5558  1.1501
  963MOL0     H27086   3.931  10.492   2.881 -5.9337  1.6300 -1.3497
  963MOL0     H27087   3.999  10.612   2.992 -0.1765 -0.3776 -0.5166
  963MOL0     H27088   3.704  10.527   2.938 -2.3747  1.0218  2.9606
  963MOL0     H27089   3.735  10.572   3.090 -2.0255 -0.4957 -0.4217
  963MOL0     H27090   3.872  10.793   2.981 -0.4663  0.3286  0.9600
  963MOL0     H27091   3.689  10.779   2.971 -0.6174 -1.2231  1.2759
  963MOL0     H27092   3.752  10.640   2.752 -2.2919  0.0007  1.1495
  963MOL0     H27093   3.893  10.745   2.759 -0.6969 -0.3635 -5.5996
  963MOL0     H27094   3.596  10.820   2.767  0.7297 -1.1850  1.7961
  963MOL0     H27095   3.735  10.940   2.797  2.2742 -0.1674  0.9159
  963MOL0     H27096   3.738  10.780   2.542  1.8734 -0.1119  0.2559
  963MOL0     H27097   3.778  10.956   2.556  0.6042 -0.2131 -0.4927
  963MOL0     H27098   4.333  10.259   3.163 -1.7201  1.3773 -0.9313
  963MOL0     H27099   4.550  10.150   3.098  1.0564  1.6628 -1.3915
  963MOL0     H27100   4.712   9.833   2.539  1.1099 -0.4389 -0.9020
  963MOL0     H27101   4.947   9.779   2.479  3.7492  0.9755 -1.1566
  963MOL0     H27102   4.454   9.753   2.014  2.4959  3.5053 -0.4673
  963MOL0     H27103   4.205   9.735   2.059 -0.8924 -2.5702  1.2016
  963MOL0     H27104   3.791   9.756   2.557 -2.2358  2.8039 -0.1499
  963MOL0     H27105   3.581   9.620   2.496 -0.7102 -1.3805 -1.3448
  963MOL0     H27106   3.373   9.620   2.398 -1.2759  0.0716 -0.7283
  963MOL0     H27107   3.413   9.442   2.398 -0.1116 -1.8141 -2.3908
  963MOL0     H27108   3.310   9.426   2.164 -1.9828 -1.8166  0.5738
  963MOL0     H27109   3.206   9.468   2.299 -2.2658  2.5773 -2.4579
  963MOL0     H27110   3.317   9.646   2.078 -0.1210  1.5306  1.4758
  963MOL0     H27111   3.255   9.712   2.205 -0.7154  0.5406 -1.1456
  963MOL0     H27112   3.048   9.523   2.119  1.7915 -2.2285 -0.3346
  963MOL0     H27113   3.047   9.696   2.137 -0.6709 -1.1537  1.3061
  963MOL0     H27114   3.073   9.634   1.723 -0.9989 -0.4458 -0.1711
  963MOL0     H27115   3.707   9.592   2.092 -1.8641 -2.3620 -0.6483
  963MOL0     H27116   3.912   9.705   2.150  0.4371  0.9005  0.9261
  964MOL0     O27117   9.997   5.175   6.206  0.2795 -0.5303 -0.2624
  964MOL0     C27118  10.067   5.226   6.295  0.3374 -0.6682  0.1035
  964MOL0     O27119  10.152   5.150   6.375  0.4292  0.4777  0.3659
  964MOL0     C27120  10.134   5.011   6.377  1.3080 -0.6636  0.2401
  964MOL0     C27121  10.042   4.957   6.470  0.1520 -0.3056 -0.0339
  964MOL0     C27122  10.010   4.823   6.466 -0.2095  0.7214 -0.2483
  964MOL0     C27123  10.090   4.727   6.396  0.1563 -0.4509 -0.7705
  964MOL0     O27124  10.071   4.596   6.392 -0.6716 -0.2711 -0.1519
  964MOL0     C27125   9.944   4.537   6.404  0.0340 -0.0531  0.0842
  964MOL0     C27126   9.865   4.538   6.269  0.3401 -0.4232 -0.0248
  964MOL0     C27127   9.958   4.485   6.157  0.0280  0.2481  0.1146
  964MOL0     C27128   9.988   4.333   6.171 -0.5029  0.0695  0.7264
  964MOL0     C27129  10.079   4.290   6.069 -0.3623  0.1018 -0.0372
  964MOL0     C27130  10.221   4.346   6.084  0.1862  0.3759 -0.9336
  964MOL0     C27131  10.314   4.291   5.981 -0.4031 -0.1331  0.2751
  964MOL0     C27132  10.454   4.348   5.983  0.6243 -0.4331 -0.3161
  964MOL0     N27133  10.539   4.307   5.869 -0.4970 -0.4035 -0.0568
  964MOL0     C27134  10.506   4.316   5.730  0.0790 -0.1954  1.1750
  964MOL0     C27135  10.619   4.271   5.670 -0.4182 -1.3433  0.1197
  964MOL0     C27136  10.635   4.270   5.522  0.2152  0.2288  0.3465
  964MOL0     C27137  10.606   4.409   5.451  0.3510 -0.1024 -0.0697
  964MOL0     C27138  10.713   4.509   5.493 -0.9849  0.1568  0.3777
  964MOL0     C27139  10.697   4.641   5.419 -0.7385 -0.1957  0.3416
  964MOL0     O27140  10.565   4.694   5.414  0.4522 -0.2391  0.4175
  964MOL0     C27141  10.554   4.819   5.363  0.0733  0.0565 -0.6822
  964MOL0     C27142  10.542   4.927   5.438 -0.4471 -0.2114  1.2720
  964MOL0     C27143  10.530   5.056   5.389  0.6578  0.3802  0.3155
  964MOL0     C27144  10.548   5.089   5.254 -0.2238  0.3051 -0.1383
  964MOL0     C27145  10.544   5.224   5.199  0.8881 -0.2755 -0.0043
  964MOL0     O27146  10.521   5.318   5.299  0.2568 -0.2941  0.4209
  964MOL0     C27147  10.539   5.449   5.266 -0.9477  0.2955 -0.9748
  964MOL0     C27148  10.624   5.524   5.355  0.4004  0.6169  0.3655
  964MOL0     C27149  10.624   5.663   5.352 -0.9913  0.0817 -0.5125
  964MOL0     C27150  10.550   5.732   5.262 -0.3714  0.1015 -0.0109
  964MOL0     O27151  10.558   5.868   5.270 -0.7367 -0.1577  0.4529
  964MOL0     C27152  10.440   5.937   5.249 -0.1858 -0.2929 -0.6748
  964MOL0     C27153  10.442   5.982   5.099 -0.1743 -0.8890  0.5547
  964MOL0     C27154  10.297   6.031   5.055 -1.1655  0.1309 -0.8861
  964MOL0     C27155  10.298   6.180   5.029 -0.8431 -1.2080 -0.7406
  964MOL0     C27156  10.163   6.253   5.021  0.4613 -0.8174 -0.3416
  964MOL0     C27157  10.038   6.164   5.002  0.0105  0.2751  0.1101
  964MOL0     C27158   9.915   6.253   4.982 -0.2113 -0.0171  0.3895
  964MOL0     C27159   9.794   6.159   4.960 -0.4921  0.1678 -0.1967
  964MOL0    Cl27160   9.772   6.074   5.114  0.0975 -0.6520 -0.1147
  964MOL0     C27161  10.467   5.658   5.169  0.0194 -0.0453  0.3461
  964MOL0     C27162  10.466   5.517   5.171  0.8204 -0.0889 -0.2887
  964MOL0     O27163  10.565   5.250   5.084 -0.5511  0.7413  0.4344
  964MOL0     C27164  10.576   4.971   5.172  0.0569  0.6486 -0.5562
  964MOL0     C27165  10.571   4.838   5.229 -0.2391 -0.3811 -0.2684
  964MOL0     N27166  10.715   4.234   5.765 -0.4296  0.0513 -0.4285
  964MOL0     N27167  10.671   4.279   5.884 -0.7590  0.6736  0.7662
  964MOL0     C27168  10.194   4.791   6.324 -0.2146  0.1115 -0.2972
  964MOL0     C27169  10.219   4.925   6.308  0.9049 -0.7593 -0.9640
  964MOL0     C27170  10.045   5.376   6.322  1.0228  0.3315 -0.5335
  964MOL0     C27171   9.948   5.463   6.265  0.3009 -0.8453 -0.6412
  964MOL0     C27172   9.941   5.597   6.294  0.9242 -0.9679 -0.8781
  964MOL0     C27173  10.040   5.651   6.379 -1.4770 -0.6120 -0.1252
  964MOL0     O27174  10.058   5.791   6.386  0.4625 -0.3162  0.5457
  964MOL0     C27175   9.946   5.875   6.365  0.3791 -1.1935 -0.0405
  964MOL0     C27176  10.000   6.026   6.377  0.7887 -0.0083 -0.0338
  964MOL0     C27177   9.927   6.123   6.284 -0.1300  0.6349 -0.3081
  964MOL0     C27178   9.788   6.167   6.328 -1.0693  0.6003  0.6215
  964MOL0     C27179   9.689   6.051   6.327 -0.5348 -0.5092  0.1977
  964MOL0     C27180   9.623   5.955   6.321 -0.8996  0.5956  1.0078
  964MOL0     C27181  10.134   5.568   6.434  0.2780 -0.8745  0.6929
  964MOL0     C27182  10.141   5.427   6.414 -0.3671 -0.3256  0.6577
  964MOL0     H27183   9.980   5.020   6.533 -0.2967  0.1498 -0.9135
  964MOL0     H27184   9.932   4.781   6.528  1.4471  0.0650  1.5089
  964MOL0     H27185   9.885   4.592   6.479  0.0372  0.1473 -0.0590
  964MOL0     H27186   9.944   4.434   6.440 -2.8510 -1.5381 -3.5264
  964MOL0     H27187   9.839   4.641   6.243 -0.7815 -0.7374 -0.1746
  964MOL0     H27188   9.772   4.483   6.283  0.5066 -0.3377  1.5871
  964MOL0     H27189  10.053   4.537   6.165  0.5988 -0.5018 -1.3985
  964MOL0     H27190   9.901   4.496   6.064 -2.1654 -3.3983  0.8054
  964MOL0     H27191  10.027   4.305   6.269 -1.7065  1.6467  1.7139
  964MOL0     H27192   9.893   4.286   6.147  0.0255 -0.0095 -1.4451
  964MOL0     H27193  10.044   4.317   5.969  0.6699  1.5663 -0.0340
  964MOL0     H27194  10.085   4.181   6.084  3.0688  0.2619  0.6715
  964MOL0     H27195  10.262   4.328   6.184  0.6482  2.2951 -0.7515
  964MOL0     H27196  10.216   4.453   6.065 -0.1563  1.1421  2.6972
  964MOL0     H27197  10.311   4.183   5.999  1.8093 -0.5173 -1.2566
  964MOL0     H27198  10.265   4.303   5.884 -0.9342 -1.7835  0.3219
  964MOL0     H27199  10.488   4.306   6.078 -1.3717 -1.2270  0.1000
  964MOL0     H27200  10.450   4.457   5.985 -1.9282 -0.4721 -0.3235
  964MOL0     H27201  10.417   4.348   5.677  0.5498 -0.3911  0.2343
  964MOL0     H27202  10.575   4.189   5.480  2.1557 -0.8102 -0.5560
  964MOL0     H27203  10.738   4.241   5.496 -0.2261 -1.8793  0.7690
  964MOL0     H27204  10.506   4.445   5.479  1.0307  1.3867  0.5495
  964MOL0     H27205  10.607   4.383   5.345 -4.2519  0.5389 -0.4929
  964MOL0     H27206  10.714   4.536   5.600  1.2599 -0.4507  0.5661
  964MOL0     H27207  10.815   4.474   5.472 -0.6982  2.2879 -2.3421
  964MOL0     H27208  10.720   4.629   5.313 -0.0691  1.1741  0.3133
  964MOL0     H27209  10.771   4.706   5.467  1.7974 -2.5986 -0.0715
  964MOL0     H27210  10.508   4.925   5.541 -1.0021  0.8583  1.1289
  964MOL0     H27211  10.492   5.141   5.444  0.1692 -0.2454  0.9672
  964MOL0     H27212  10.704   5.480   5.414 -0.1618 -0.5598  0.2781
  964MOL0     H27213  10.675   5.727   5.423 -1.7925 -0.3291  0.4566
  964MOL0     H27214  10.428   6.022   5.317  0.8220  0.8100 -1.8124
  964MOL0     H27215  10.355   5.869   5.257 -1.0580  0.9121  1.1138
  964MOL0     H27216  10.459   5.897   5.032 -1.0399 -1.6188  1.2386
  964MOL0     H27217  10.526   6.050   5.083  0.8511 -2.6836 -2.3535
  964MOL0     H27218  10.217   6.010   5.127 -0.9260  5.2580  1.3141
  964MOL0     H27219  10.280   5.978   4.961  3.9243 -2.0964 -0.8711
  964MOL0     H27220  10.353   6.221   5.114 -1.2065 -0.5694 -0.8100
  964MOL0     H27221  10.348   6.210   4.936 -1.3134  1.1480 -0.2914
  964MOL0     H27222  10.164   6.314   4.930  2.7567 -0.7469 -0.3262
  964MOL0     H27223  10.141   6.326   5.099  1.7401  0.7665 -1.3960
  964MOL0     H27224  10.021   6.112   5.096  0.2651 -3.4668 -1.7234
  964MOL0     H27225  10.060   6.093   4.921  2.0821  1.2005 -0.2206
  964MOL0     H27226   9.892   6.317   5.067 -1.8693 -1.6936  1.2760
  964MOL0     H27227   9.921   6.316   4.892 -0.5163  0.7238  0.8824
  964MOL0     H27228   9.803   6.104   4.866 -0.4937 -4.0348  2.0584
  964MOL0     H27229   9.702   6.218   4.954 -1.7931 -1.5892  1.3609
  964MOL0     H27230  10.412   5.712   5.093  1.7364 -0.3065 -1.1611
  964MOL0     H27231  10.401   5.474   5.095 -0.0323  2.0417 -0.8530
  964MOL0     H27232  10.573   4.986   5.065 -1.1330 -0.2287 -0.6678
  964MOL0     H27233  10.555   4.764   5.151  0.2787  0.7704 -1.5082
  964MOL0     H27234  10.263   4.721   6.279  0.6543 -0.8485  2.3258
  964MOL0     H27235  10.305   4.957   6.248 -0.3374 -0.0205 -2.4163
  964MOL0     H27236   9.868   5.429   6.200 -1.3400 -0.0678  0.8710
  964MOL0     H27237   9.857   5.643   6.244  0.0659 -1.7674 -0.2158
  964MOL0     H27238   9.871   5.870   6.445  0.2956 -5.0232 -0.1840
  964MOL0     H27239   9.900   5.860   6.267 -1.3635  3.2403 -0.1707
  964MOL0     H27240   9.981   6.059   6.479 -2.1978  0.0532 -0.5086
  964MOL0     H27241  10.109   6.029   6.368  0.6853  1.6496 -1.2754
  964MOL0     H27242   9.930   6.088   6.181  0.6814 -0.1795 -0.0292
  964MOL0     H27243   9.987   6.215   6.283  0.1769  0.4515  0.3640
  964MOL0     H27244   9.794   6.212   6.427 -0.3308 -1.9467  1.8333
  964MOL0     H27245   9.749   6.254   6.274  0.4066  0.2637 -1.0950
  964MOL0     H27246   9.552   5.876   6.333  0.5798 -0.8045  0.8544
  964MOL0     H27247  10.210   5.615   6.495 -1.6747  1.0996  1.7684
  964MOL0     H27248  10.204   5.349   6.455 -0.2913 -0.7608 -0.2626
  965MOL0     O27249   8.803   7.427   1.751 -0.2813  0.2893 -0.0531
  965MOL0     C27250   8.741   7.533   1.745  0.6782  0.5856  1.0784
  965MOL0     O27251   8.729   7.617   1.634 -0.2007  0.0931 -0.1632
  965MOL0     C27252   8.792   7.584   1.520 -0.3602 -0.3548 -0.7093
  965MOL0     C27253   8.728   7.539   1.405 -0.4108  0.0336 -0.7786
  965MOL0     C27254   8.808   7.511   1.288  0.2652  0.3408 -0.6212
  965MOL0     C27255   8.947   7.546   1.282  0.4990 -1.0708  0.6596
  965MOL0     O27256   9.008   7.527   1.157  0.7342  0.6049  0.4844
  965MOL0     C27257   9.138   7.487   1.167 -0.5267  0.0616  0.4542
  965MOL0     C27258   9.254   7.589   1.167 -0.6136  0.4241 -0.2893
  965MOL0     C27259   9.229   7.725   1.092 -0.7597  0.2263 -0.4037
  965MOL0     C27260   9.180   7.708   0.950 -0.7105  0.7632 -0.1993
  965MOL0     C27261   9.160   7.849   0.872 -0.2000  0.0839  0.0940
  965MOL0     C27262   9.280   7.908   0.828 -0.0593  0.2397 -0.7960
  965MOL0     C27263   9.397   7.826   0.765  0.5195  1.3278 -0.2565
  965MOL0     C27264   9.514   7.917   0.729  0.1864  0.5305 -0.3177
  965MOL0     N27265   9.625   7.837   0.679 -0.4730  0.3133  0.8317
  965MOL0     C27266   9.710   7.772   0.768  0.5924  0.2380  0.5852
  965MOL0     C27267   9.796   7.706   0.686 -0.8291 -1.1612  0.7882
  965MOL0     C27268   9.916   7.624   0.721 -0.2899  1.2466  0.1189
  965MOL0     C27269   9.882   7.469   0.716  0.3278  0.1091 -0.6825
  965MOL0     C27270   9.967   7.407   0.603 -0.2673 -0.2305 -0.0952
  965MOL0     C27271   9.940   7.254   0.585 -0.2898 -0.8410 -0.9013
  965MOL0     O27272   9.799   7.235   0.576  0.4558  0.5197  0.2356
  965MOL0     C27273   9.754   7.110   0.540  0.1864 -0.4332  0.2139
  965MOL0     C27274   9.629   7.113   0.481 -0.8853  0.6667  0.8127
  965MOL0     C27275   9.572   6.988   0.444 -0.3026  0.4503 -0.6172
  965MOL0     C27276   9.641   6.866   0.463 -0.0706  0.7855  0.1595
  965MOL0     C27277   9.592   6.740   0.402 -0.1447 -0.3385  0.0601
  965MOL0     O27278   9.655   6.627   0.434 -0.5902 -0.2680  0.6227
  965MOL0     C27279   9.654   6.511   0.368  0.1301  1.0850  0.1012
  965MOL0     C27280   9.572   6.464   0.255 -0.3400 -0.5557  0.3503
  965MOL0     C27281   9.563   6.334   0.219 -0.1033 -0.1285 -0.0476
  965MOL0     C27282   9.645   6.242   0.293 -0.5715 -0.6708  1.0192
  965MOL0     O27283   9.643   6.111   0.251  0.3793 -0.0969  0.3144
  965MOL0     C27284   9.697   6.007   0.329 -0.0074  0.7740  0.1942
  965MOL0     C27285   9.722   5.883   0.238  0.4541  0.5279 -0.4010
  965MOL0     C27286   9.786   5.768   0.325 -0.2424  0.1372  0.8323
  965MOL0     C27287   9.817   5.643   0.234  0.6934 -0.9571  0.3412
  965MOL0     C27288   9.903   5.534   0.301  0.9444 -0.1713  0.6000
  965MOL0     C27289   9.919   5.400   0.216 -0.2111 -0.6584  0.7238
  965MOL0     C27290  10.006   5.295   0.286 -0.4767  0.1652 -0.0188
  965MOL0     C27291  10.100   5.218   0.192  0.7266 -0.6433  0.0363
  965MOL0    Cl27292  10.233   5.129   0.266  0.4134 -0.5634  0.2243
  965MOL0     C27293   9.725   6.285   0.394 -0.6762 -0.1658 -0.0748
  965MOL0     C27294   9.731   6.421   0.437 -0.0241 -0.1435 -0.2627
  965MOL0     O27295   9.504   6.753   0.318 -0.0514  0.1779 -0.4218
  965MOL0     C27296   9.759   6.864   0.546  0.3675  0.1123  0.7128
  965MOL0     C27297   9.815   6.988   0.575 -0.3820  0.3202  0.7298
  965MOL0     N27298   9.778   7.747   0.554  0.2378 -0.5362 -0.5886
  965MOL0     N27299   9.674   7.833   0.547 -0.2907  0.4811  0.7703
  965MOL0     C27300   9.003   7.602   1.397  0.6645  0.5849 -0.4112
  965MOL0     C27301   8.931   7.617   1.513 -0.1543 -0.1253 -0.0930
  965MOL0     C27302   8.681   7.578   1.866 -0.9756 -0.2078 -0.3107
  965MOL0     C27303   8.674   7.487   1.973  1.2029  0.7136 -0.1573
  965MOL0     C27304   8.623   7.535   2.100  0.6392  0.8226  0.7472
  965MOL0     C27305   8.583   7.664   2.126 -0.5390 -0.3167  0.2954
  965MOL0     O27306   8.541   7.694   2.264  0.1334  0.2774  0.8001
  965MOL0     C27307   8.450   7.801   2.266  0.1018 -1.0782 -0.0634
  965MOL0     C27308   8.380   7.796   2.406  0.4146  0.3605 -0.2898
  965MOL0     C27309   8.468   7.834   2.528  0.4229  0.4242  0.4251
  965MOL0     C27310   8.405   7.852   2.659 -0.2467 -0.8963  0.1987
  965MOL0     C27311   8.303   7.960   2.657 -0.8049 -0.7061  0.0842
  965MOL0     C27312   8.224   8.045   2.684 -0.4501  0.1890  0.0436
  965MOL0     C27313   8.594   7.755   2.015  0.3385  0.1019 -0.4556
  965MOL0     C27314   8.648   7.719   1.890  0.4381  0.9605 -0.9929
  965MOL0     H27315   8.623   7.520   1.423 -0.7482 -0.2184 -2.7291
  965MOL0     H27316   8.749   7.461   1.212 -3.2911  3.5360 -0.2365
  965MOL0     H27317   9.141   7.421   1.079 -1.1682 -2.3659  2.1541
  965MOL0     H27318   9.156   7.421   1.252 -0.4960  0.2577  0.6008
  965MOL0     H27319   9.338   7.539   1.118 -2.7618 -1.8412 -1.9280
  965MOL0     H27320   9.297   7.613   1.265  0.6791 -2.2236 -0.1058
  965MOL0     H27321   9.322   7.783   1.098 -0.1879 -0.5494 -1.3753
  965MOL0     H27322   9.151   7.777   1.149  0.6020  3.7606 -1.4694
  965MOL0     H27323   9.239   7.635   0.895 -3.0246 -0.8419 -0.7042
  965MOL0     H27324   9.079   7.665   0.955 -0.0536 -0.7210  0.7888
  965MOL0     H27325   9.109   7.924   0.932  0.3506 -0.7175  1.6215
  965MOL0     H27326   9.108   7.828   0.778  0.8754  3.5801 -1.4512
  965MOL0     H27327   9.330   7.960   0.911  1.3270  2.8242 -3.0852
  965MOL0     H27328   9.246   7.979   0.752 -0.1349 -0.0720 -1.0508
  965MOL0     H27329   9.416   7.740   0.831 -2.4259 -1.1810 -2.3345
  965MOL0     H27330   9.348   7.790   0.674  0.5382  0.5349  0.0319
  965MOL0     H27331   9.549   7.976   0.814  1.4498  2.2143 -1.9061
  965MOL0     H27332   9.479   7.997   0.663  0.3516 -0.6737 -1.9366
  965MOL0     H27333   9.721   7.760   0.875  3.3216 -3.0615  0.1456
  965MOL0     H27334   9.957   7.654   0.818 -0.2456 -0.3575  0.6209
  965MOL0     H27335   9.988   7.650   0.642 -0.0912  0.8575  0.1682
  965MOL0     H27336   9.775   7.452   0.698  0.5034  0.2408 -1.9272
  965MOL0     H27337   9.910   7.420   0.810  0.0997  0.3309 -0.4954
  965MOL0     H27338   9.940   7.460   0.511 -2.0870 -2.0825 -0.7181
  965MOL0     H27339  10.074   7.411   0.623  0.7370  0.6928 -4.5453
  965MOL0     H27340   9.967   7.204   0.679 -0.9110  0.7035  0.1477
  965MOL0     H27341   9.995   7.212   0.500  2.0553 -3.5986  1.7241
  965MOL0     H27342   9.571   7.204   0.479  0.3036  1.4397  0.7117
  965MOL0     H27343   9.471   6.995   0.407 -0.5764  0.2468  0.0794
  965MOL0     H27344   9.510   6.535   0.202 -0.8810 -1.4361 -0.2263
  965MOL0     H27345   9.501   6.293   0.140  0.5678 -1.1709 -0.0618
  965MOL0     H27346   9.617   5.971   0.395  0.9325 -0.0561  0.9168
  965MOL0     H27347   9.794   6.027   0.376  0.4483  0.1246 -0.4490
  965MOL0     H27348   9.791   5.921   0.163  2.6429 -0.2637  1.0967
  965MOL0     H27349   9.634   5.855   0.179  0.1231  0.4322  0.1270
  965MOL0     H27350   9.708   5.738   0.395 -0.0260  0.2676  1.1272
  965MOL0     H27351   9.879   5.787   0.378  0.5413  0.8217 -0.7101
  965MOL0     H27352   9.719   5.618   0.192  1.0726 -0.2027 -1.0596
  965MOL0     H27353   9.869   5.682   0.146 -1.5303 -2.1720 -1.6477
  965MOL0     H27354   9.852   5.512   0.396  0.3789  0.5985  0.4865
  965MOL0     H27355  10.001   5.581   0.313  1.1641  0.1865 -1.9905
  965MOL0     H27356   9.962   5.432   0.121 -2.1645  0.3976  0.1425
  965MOL0     H27357   9.819   5.360   0.195 -1.9917  0.4149  5.6667
  965MOL0     H27358  10.072   5.351   0.353  1.1521 -0.9612 -0.6234
  965MOL0     H27359   9.954   5.215   0.340 -0.3523  0.4051  0.4668
  965MOL0     H27360  10.132   5.287   0.113 -3.9692  3.3017  1.0978
  965MOL0     H27361  10.035   5.146   0.142  2.3027 -2.9880  1.2156
  965MOL0     H27362   9.784   6.218   0.456  1.7361  2.6891  0.9892
  965MOL0     H27363   9.800   6.464   0.510 -0.2288  3.5971 -2.0574
  965MOL0     H27364   9.797   6.768   0.579 -0.2489 -1.1622 -1.9677
  965MOL0     H27365   9.898   6.980   0.645 -1.0178 -2.2164  1.3156
  965MOL0     H27366   9.108   7.629   1.409  0.7904  0.2761 -0.8061
  965MOL0     H27367   8.973   7.671   1.597  0.6559 -1.2593  0.2609
  965MOL0     H27368   8.719   7.389   1.960  2.2670  1.3741 -1.8401
  965MOL0     H27369   8.611   7.457   2.174  1.8485 -4.2292 -3.7634
  965MOL0     H27370   8.370   7.803   2.190  0.1195  0.8995 -0.0795
  965MOL0     H27371   8.507   7.894   2.256  2.7056 -2.2111  2.9220
  965MOL0     H27372   8.297   7.867   2.399 -1.6979 -1.9845 -0.4749
  965MOL0     H27373   8.339   7.695   2.403  0.1913  0.4740 -1.8160
  965MOL0     H27374   8.499   7.938   2.511  0.4814  0.2748 -0.4721
  965MOL0     H27375   8.553   7.766   2.531 -1.0767 -1.5182  0.5202
  965MOL0     H27376   8.356   7.768   2.711 -1.8758  0.3623  0.7884
  965MOL0     H27377   8.491   7.888   2.716 -1.0319  2.3512 -0.4872
  965MOL0     H27378   8.151   8.116   2.716  1.1961  2.2144 -0.4875
  965MOL0     H27379   8.566   7.857   2.041 -1.8408 -0.3405 -0.8150
  965MOL0     H27380   8.654   7.798   1.816 -0.3537  2.3334  0.3461
  966MOL0     O27381   3.971   9.094   5.037 -0.0049 -0.1132  0.0485
  966MOL0     C27382   3.902   8.993   5.022 -0.3791 -0.0112 -0.3890
  966MOL0     O27383   3.768   8.974   5.056  0.0281 -0.3995 -0.7245
  966MOL0     C27384   3.700   9.086   5.104  0.1173  0.2030 -0.0031
  966MOL0     C27385   3.676   9.083   5.243 -0.5964 -1.0246 -0.5716
  966MOL0     C27386   3.613   9.188   5.313 -0.1990  0.5699  0.5929
  966MOL0     C27387   3.575   9.298   5.236 -0.1697 -0.6557 -0.4161
  966MOL0     O27388   3.526   9.413   5.294 -0.6488  0.7461 -0.6658
  966MOL0     C27389   3.392   9.429   5.265  0.1603 -0.5009 -0.6742
  966MOL0     C27390   3.360   9.570   5.305 -0.0066 -0.2774 -0.3616
  966MOL0     C27391   3.244   9.622   5.225  0.4528  0.3748 -0.4189
  966MOL0     C27392   3.099   9.579   5.274  0.8714 -0.2018 -0.5723
  966MOL0     C27393   3.058   9.460   5.196  0.7619 -0.5868 -0.4029
  966MOL0     C27394   2.911   9.417   5.216  0.9909  0.9663 -1.1569
  966MOL0     C27395   2.871   9.320   5.115 -0.1505  0.2744 -0.5586
  966MOL0     C27396   2.750   9.241   5.158 -0.2792  0.3813 -0.0176
  966MOL0     N27397   2.621   9.308   5.175  0.1171 -0.0469 -0.6824
  966MOL0     C27398   2.524   9.320   5.082 -0.6552  0.2380 -0.8878
  966MOL0     C27399   2.429   9.389   5.142 -0.4183 -0.4295 -0.0709
  966MOL0     C27400   2.297   9.433   5.085 -1.0203 -0.6778 -0.3310
  966MOL0     C27401   2.182   9.339   5.138 -0.1022  0.2794 -0.3850
  966MOL0     C27402   2.059   9.360   5.051 -0.9233  1.4559  0.3102
  966MOL0     C27403   1.935   9.305   5.119  0.6013 -0.8374  0.4252
  966MOL0     O27404   1.954   9.159   5.132  0.1970 -0.5749 -0.8009
  966MOL0     C27405   1.851   9.090   5.197 -0.6371 -0.0420 -0.2767
  966MOL0     C27406   1.722   9.144   5.218 -0.3054  0.8139  0.5257
  966MOL0     C27407   1.617   9.065   5.265  0.7125  1.0304  0.0448
  966MOL0     C27408   1.643   8.934   5.314  0.1934 -0.2754  0.5146
  966MOL0     C27409   1.518   8.871   5.370 -0.8318  0.0661  0.9259
  966MOL0     O27410   1.544   8.770   5.447 -0.4039  0.3172 -0.8592
  966MOL0     C27411   1.457   8.736   5.554 -0.6129 -0.5402  0.6084
  966MOL0     C27412   1.471   8.795   5.673 -1.1486 -0.2924 -0.7681
  966MOL0     C27413   1.377   8.766   5.776  0.2153 -0.4049  0.0792
  966MOL0     C27414   1.274   8.679   5.754  0.6978  0.4021 -0.2342
  966MOL0     O27415   1.189   8.622   5.856  0.2503  0.2131 -0.2555
  966MOL0     C27416   1.201   8.667   5.996 -0.5011  0.4968  0.2728
  966MOL0     C27417   1.341   8.620   6.047  0.9258  0.3157  0.1723
  966MOL0     C27418   1.341   8.467   6.044 -0.2855 -0.5414  0.8753
  966MOL0     C27419   1.447   8.428   6.153 -0.5782  0.0758  0.1982
  966MOL0     C27420   1.461   8.275   6.189  0.3014 -0.3763  0.0950
  966MOL0     C27421   1.333   8.214   6.232  0.7301 -0.2342 -0.1952
  966MOL0     C27422   1.342   8.065   6.268  0.8129  0.7238 -0.7301
  966MOL0     C27423   1.328   7.973   6.162 -0.4661 -0.0812 -0.3331
  966MOL0    Cl27424   1.469   7.972   6.053  0.0564  0.0130 -0.3854
  966MOL0     C27425   1.260   8.605   5.634 -0.3425  0.0675 -0.6474
  966MOL0     C27426   1.353   8.646   5.531 -0.1356  0.4240 -0.0595
  966MOL0     O27427   1.409   8.899   5.328  0.4172 -0.5176  0.4600
  966MOL0     C27428   1.777   8.876   5.314  0.8157 -0.2079  0.8586
  966MOL0     C27429   1.877   8.957   5.248 -0.7188  0.4907 -0.6436
  966MOL0     N27430   2.474   9.422   5.269 -0.8768  0.0273  0.5534
  966MOL0     N27431   2.581   9.365   5.296 -0.5025  0.0572 -0.4008
  966MOL0     C27432   3.605   9.301   5.099  0.1010 -0.0587 -0.1877
  966MOL0     C27433   3.662   9.195   5.031  0.5206  0.3875  0.5866
  966MOL0     C27434   3.952   8.886   4.934 -1.0296  1.3068 -0.2999
  966MOL0     C27435   3.861   8.780   4.890 -0.0423  0.4135 -0.3987
  966MOL0     C27436   3.912   8.665   4.835  0.6024  0.2750  1.0968
  966MOL0     C27437   4.050   8.657   4.815 -0.0705 -0.1848 -0.1377
  966MOL0     O27438   4.092   8.544   4.750  0.3943 -0.4020 -0.4149
  966MOL0     C27439   4.221   8.508   4.767  0.4685 -0.0417 -0.1214
  966MOL0     C27440   4.217   8.363   4.723  0.2604 -0.0042 -0.3012
  966MOL0     C27441   4.354   8.300   4.697 -0.3332  0.1009  0.2757
  966MOL0     C27442   4.342   8.152   4.660  1.2291 -0.1593  0.2103
  966MOL0     C27443   4.296   8.079   4.778  0.0222 -0.1324 -0.2346
  966MOL0     C27444   4.261   8.025   4.881 -0.6721  0.0196 -0.1550
  966MOL0     C27445   4.130   8.762   4.846 -0.5506  0.4978 -0.5064
  966MOL0     C27446   4.090   8.875   4.918 -0.5376 -0.5315 -0.0688
  966MOL0     H27447   3.717   9.008   5.309  2.5854  2.0316  1.2792
  966MOL0     H27448   3.593   9.188   5.420 -0.2315  3.3026  0.6620
  966MOL0     H27449   3.328   9.360   5.321  1.4366 -3.0307 -2.1552
  966MOL0     H27450   3.380   9.426   5.157  0.8461  0.1211 -0.7758
  966MOL0     H27451   3.444   9.634   5.275 -1.7138  2.0868 -0.3395
  966MOL0     H27452   3.351   9.593   5.412 -4.6398  2.8564 -1.1505
  966MOL0     H27453   3.256   9.608   5.117 -1.7954 -0.5023 -0.6069
  966MOL0     H27454   3.247   9.729   5.246  1.8670 -0.1245  2.4386
  966MOL0     H27455   3.084   9.574   5.382  1.0976  1.2050 -0.4628
  966MOL0     H27456   3.030   9.660   5.246 -2.7535 -1.8478  2.5853
  966MOL0     H27457   3.128   9.378   5.213  0.5850 -0.9041 -1.1419
  966MOL0     H27458   3.065   9.485   5.090 -0.5682  1.1844 -0.1219
  966MOL0     H27459   2.843   9.500   5.232  2.6728  2.0977  0.6559
  966MOL0     H27460   2.900   9.368   5.314 -0.4546  0.6020 -1.4770
  966MOL0     H27461   2.847   9.360   5.016  2.2113 -1.9331 -2.1329
  966MOL0     H27462   2.956   9.253   5.113  0.5089  0.9972  1.1068
  966MOL0     H27463   2.775   9.197   5.255  1.4192  0.0409 -0.5716
  966MOL0     H27464   2.743   9.154   5.092  1.9372  0.7810 -0.8408
  966MOL0     H27465   2.520   9.281   4.980  0.2546 -3.7220  0.3885
  966MOL0     H27466   2.303   9.420   4.977 -0.7608 -0.0742 -0.3987
  966MOL0     H27467   2.276   9.539   5.104  1.3000 -0.0086 -1.1584
  966MOL0     H27468   2.156   9.347   5.244 -0.4290  1.6848 -0.5506
  966MOL0     H27469   2.222   9.240   5.118 -0.8251 -0.1572  0.2365
  966MOL0     H27470   2.047   9.469   5.043 -0.4245  1.5010  0.1271
  966MOL0     H27471   2.061   9.316   4.951 -3.6201  0.3654  0.6314
  966MOL0     H27472   1.847   9.322   5.055  2.5487  1.1443 -1.9404
  966MOL0     H27473   1.926   9.353   5.217 -1.6008 -2.2355  0.9873
  966MOL0     H27474   1.689   9.243   5.189  0.5237  0.8921 -0.2035
  966MOL0     H27475   1.524   9.118   5.280  0.3925 -0.1338  2.8404
  966MOL0     H27476   1.554   8.863   5.690 -1.6342  0.1909 -0.2793
  966MOL0     H27477   1.393   8.804   5.876  1.7588 -0.2577 -0.1959
  966MOL0     H27478   1.128   8.627   6.067 -0.1417  0.9101  0.8898
  966MOL0     H27479   1.195   8.776   5.997  0.5646  0.5734  2.0820
  966MOL0     H27480   1.358   8.664   6.146 -0.7273 -0.9322  1.0531
  966MOL0     H27481   1.428   8.660   5.994  0.2135  0.9006 -0.5741
  966MOL0     H27482   1.380   8.438   5.946  1.3025 -0.9743  1.6048
  966MOL0     H27483   1.241   8.424   6.043 -1.0998  1.2003 -1.3204
  966MOL0     H27484   1.544   8.469   6.127 -0.3656 -1.2761 -1.2815
  966MOL0     H27485   1.409   8.477   6.243 -0.1061  0.9873 -0.0846
  966MOL0     H27486   1.536   8.254   6.265 -0.6771 -0.8159  0.9622
  966MOL0     H27487   1.489   8.227   6.094 -1.6976  0.0839 -0.7843
  966MOL0     H27488   1.260   8.213   6.151  4.6306 -0.9099 -4.0127
  966MOL0     H27489   1.300   8.266   6.323 -0.9590  1.5547 -1.7598
  966MOL0     H27490   1.441   8.051   6.312  0.3140 -1.8095 -0.3215
  966MOL0     H27491   1.263   8.055   6.343  1.8787  2.3454  0.6746
  966MOL0     H27492   1.247   7.992   6.090 -0.1385 -1.7372 -1.1949
  966MOL0     H27493   1.306   7.873   6.202 -0.5015 -0.6196 -1.6410
  966MOL0     H27494   1.194   8.519   5.625  0.9660 -0.9334 -1.0520
  966MOL0     H27495   1.339   8.589   5.440 -1.9457  2.0050 -0.8605
  966MOL0     H27496   1.797   8.780   5.358 -2.8501 -0.9022  1.3294
  966MOL0     H27497   1.982   8.932   5.236 -1.1919 -1.7015 -0.7369
  966MOL0     H27498   3.572   9.389   5.047 -2.5055 -0.8703 -0.0325
  966MOL0     H27499   3.676   9.196   4.923 -2.1352 -2.8744  0.0349
  966MOL0     H27500   3.753   8.788   4.904  0.0027 -2.0635  2.2910
  966MOL0     H27501   3.843   8.594   4.791 -0.2607  2.8222 -2.0025
  966MOL0     H27502   4.271   8.523   4.862  0.3779  0.1587 -0.1049
  966MOL0     H27503   4.279   8.569   4.696 -0.3984  2.5772  1.2971
  966MOL0     H27504   4.175   8.308   4.808 -0.2358 -1.4096 -1.4351
  966MOL0     H27505   4.154   8.353   4.635  1.1843 -3.7788 -0.6919
  966MOL0     H27506   4.411   8.310   4.789 -1.8541  2.4728  1.0521
  966MOL0     H27507   4.395   8.361   4.617 -0.2641 -0.1941  0.0844
  966MOL0     H27508   4.264   8.143   4.585 -3.1052  1.2868  4.0621
  966MOL0     H27509   4.434   8.107   4.620  0.2457 -2.0641 -0.0309
  966MOL0     H27510   4.231   7.990   4.977 -3.3162  2.5563  0.0804
  966MOL0     H27511   4.235   8.753   4.819 -1.0460 -1.2502 -2.0435
  966MOL0     H27512   4.148   8.958   4.958 -2.2648  1.4651 -1.4390
  967MOL0     O27513   3.267   3.998   3.165  0.2740 -0.5928  0.3746
  967MOL0     C27514   3.261   4.117   3.200  0.6045  0.4048 -0.3824
  967MOL0     O27515   3.147   4.193   3.218 -1.1946 -0.8788 -0.5008
  967MOL0     C27516   3.021   4.151   3.170 -0.0837 -0.5667  0.7646
  967MOL0     C27517   2.928   4.249   3.124 -0.2010 -0.1041 -0.2231
  967MOL0     C27518   2.808   4.211   3.059 -0.8593 -1.1393 -0.0716
  967MOL0     C27519   2.768   4.083   3.062 -0.2576  0.7513  0.9678
  967MOL0     O27520   2.649   4.039   3.015 -0.1935 -0.7981  0.1166
  967MOL0     C27521   2.577   4.134   2.941 -0.0969 -1.3757  0.5064
  967MOL0     C27522   2.448   4.065   2.890  0.0732 -0.2725  0.4466
  967MOL0     C27523   2.356   4.170   2.815 -0.7145  0.4790 -1.0677
  967MOL0     C27524   2.261   4.248   2.908 -0.8574 -0.7376  0.1257
  967MOL0     C27525   2.201   4.380   2.853 -0.2541 -1.2344 -0.3571
  967MOL0     C27526   2.298   4.499   2.851  0.7153 -0.1519  1.5096
  967MOL0     C27527   2.233   4.630   2.832  0.5303  0.4622 -0.2607
  967MOL0     C27528   2.170   4.681   2.957 -0.4132  0.8826  0.3135
  967MOL0     N27529   2.056   4.772   2.932  0.1025  0.4524 -0.4685
  967MOL0     C27530   1.924   4.741   2.944  1.2792 -0.2196 -0.3926
  967MOL0     C27531   1.867   4.868   2.917 -0.3431  1.1491 -0.0719
  967MOL0     C27532   1.718   4.894   2.927  0.1944  0.1091 -0.0111
  967MOL0     C27533   1.671   4.993   2.813  0.2449 -1.7147  0.3223
  967MOL0     C27534   1.671   4.929   2.672 -0.6446  1.0095  0.6204
  967MOL0     C27535   1.679   5.034   2.556 -0.5976 -0.4733  0.6818
  967MOL0     O27536   1.576   5.132   2.556 -0.5946  0.0366 -0.0288
  967MOL0     C27537   1.492   5.135   2.442  1.3440 -0.4885  0.0503
  967MOL0     C27538   1.455   5.255   2.380 -0.2250  0.1784 -0.2088
  967MOL0     C27539   1.367   5.251   2.267 -0.8518 -0.5572 -0.0680
  967MOL0     C27540   1.306   5.133   2.225  0.8018  0.4341  0.1257
  967MOL0     C27541   1.209   5.123   2.116 -0.4555 -0.6123  0.2871
  967MOL0     O27542   1.207   5.233   2.029 -0.8110  0.6838 -0.3238
  967MOL0     C27543   1.110   5.253   1.939 -0.4754  0.2482 -0.6824
  967MOL0     C27544   1.074   5.150   1.842 -0.1519 -0.5888  0.5296
  967MOL0     C27545   0.975   5.176   1.746 -0.2531 -0.0127 -0.2442
  967MOL0     C27546   0.921   5.313   1.746  0.3480  0.5106  0.6379
  967MOL0     O27547   0.838   5.341   1.634 -1.0163 -0.2949  0.1369
  967MOL0     C27548   0.788   5.474   1.616 -0.1527 -0.5802 -0.6782
  967MOL0     C27549   0.672   5.529   1.715  0.3607  0.1938 -0.5684
  967MOL0     C27550   0.596   5.654   1.665 -0.2128  0.2410 -0.8423
  967MOL0     C27551   0.686   5.755   1.595  0.9887  0.1049 -0.6089
  967MOL0     C27552   0.596   5.854   1.521  0.6650 -0.6141  0.5582
  967MOL0     C27553   0.679   5.969   1.477 -0.3625  0.6426 -1.0524
  967MOL0     C27554   0.593   6.073   1.414 -0.0695  0.0457 -0.2422
  967MOL0     C27555   0.651   6.128   1.288 -1.0255 -0.4305  0.6365
  967MOL0    Cl27556   0.793   6.214   1.334  0.2160  0.2638  0.0908
  967MOL0     C27557   0.957   5.404   1.840  0.4634  0.0991  0.0504
  967MOL0     C27558   1.053   5.378   1.941  0.5641  0.2505 -0.7400
  967MOL0     O27559   1.121   5.035   2.115  0.1480 -0.3813  0.6880
  967MOL0     C27560   1.340   5.015   2.297 -0.4319  0.2192 -0.2555
  967MOL0     C27561   1.437   5.010   2.392  0.1415  0.5916 -0.0900
  967MOL0     N27562   1.968   4.952   2.874  0.3823 -0.2753 -1.0844
  967MOL0     N27563   2.081   4.894   2.880  0.1334 -0.7402 -0.5396
  967MOL0     C27564   2.846   3.984   3.121 -0.1800  0.4245  0.0321
  967MOL0     C27565   2.975   4.022   3.177  0.4443  0.6824  0.2413
  967MOL0     C27566   3.388   4.184   3.217 -0.0703  0.3133  0.5508
  967MOL0     C27567   3.516   4.132   3.183 -0.5897  1.3212 -1.1550
  967MOL0     C27568   3.630   4.212   3.191 -0.4151 -0.4555  0.0330
  967MOL0     C27569   3.626   4.347   3.220  0.3904  0.2071  0.5443
  967MOL0     O27570   3.749   4.420   3.230  0.3002  0.0187  0.0318
  967MOL0     C27571   3.756   4.550   3.287  0.1927 -0.4315 -0.0729
  967MOL0     C27572   3.752   4.548   3.446 -1.0286 -0.3667  0.5469
  967MOL0     C27573   3.887   4.491   3.507 -0.1935  0.3043 -0.2285
  967MOL0     C27574   4.018   4.569   3.475  0.5460 -0.2299  0.0058
  967MOL0     C27575   4.129   4.467   3.483  0.0655 -0.5676 -0.6344
  967MOL0     C27576   4.212   4.383   3.491 -0.0867 -0.5937 -1.3110
  967MOL0     C27577   3.499   4.398   3.258  0.0227  0.5021  1.1944
  967MOL0     C27578   3.388   4.319   3.258 -0.8104  0.9605  1.0572
  967MOL0     H27579   2.938   4.354   3.152 -1.1720 -0.2439  0.7285
  967MOL0     H27580   2.741   4.292   3.032 -3.0939 -1.1577  4.3411
  967MOL0     H27581   2.634   4.182   2.861 -3.3580  0.7148 -0.7602
  967MOL0     H27582   2.544   4.218   3.002  3.2384 -1.3700  2.5169
  967MOL0     H27583   2.393   4.011   2.968 -1.1324  0.5091  0.1651
  967MOL0     H27584   2.491   4.001   2.812  0.1588  2.8594 -2.3170
  967MOL0     H27585   2.301   4.128   2.730 -0.7841  2.2047 -1.9059
  967MOL0     H27586   2.423   4.243   2.769 -1.1525 -0.0658 -2.6539
  967MOL0     H27587   2.172   4.186   2.922 -1.0352 -1.8641 -4.4478
  967MOL0     H27588   2.309   4.282   3.000 -0.8634  0.6588 -0.3683
  967MOL0     H27589   2.107   4.395   2.909  1.1819 -3.0390  2.8394
  967MOL0     H27590   2.167   4.360   2.751  1.8604 -3.0436 -0.7953
  967MOL0     H27591   2.363   4.478   2.766 -0.6088  1.5042 -0.0138
  967MOL0     H27592   2.364   4.499   2.938  3.6203 -1.7562 -0.5322
  967MOL0     H27593   2.313   4.698   2.802  0.4098  0.5537 -0.3748
  967MOL0     H27594   2.163   4.622   2.748 -1.0573 -1.1231  1.1269
  967MOL0     H27595   2.237   4.754   3.001  1.0250  0.3477 -0.9200
  967MOL0     H27596   2.134   4.599   3.021 -0.6356 -0.2867 -1.2444
  967MOL0     H27597   1.890   4.644   2.981  1.2520  0.1476  0.5859
  967MOL0     H27598   1.690   4.926   3.028  3.9844  2.1840  0.5525
  967MOL0     H27599   1.668   4.797   2.919 -1.2466  0.9164 -1.4126
  967MOL0     H27600   1.734   5.082   2.804  0.0114 -1.7358 -2.0334
  967MOL0     H27601   1.578   5.047   2.836  0.2165 -1.4466 -0.3909
  967MOL0     H27602   1.741   4.845   2.663 -2.4518 -0.3973 -1.3074
  967MOL0     H27603   1.571   4.888   2.657  0.2535 -1.4834  0.8968
  967MOL0     H27604   1.682   4.990   2.456  1.0785  0.9960  0.0370
  967MOL0     H27605   1.777   5.079   2.570 -1.6220  1.4683  2.0785
  967MOL0     H27606   1.507   5.344   2.413 -0.4205  0.9328 -1.8447
  967MOL0     H27607   1.354   5.344   2.213 -0.1065 -1.3263 -1.6405
  967MOL0     H27608   1.122   5.052   1.836 -0.1584 -0.4932 -2.3727
  967MOL0     H27609   0.943   5.100   1.676 -0.2397 -0.1022 -0.1522
  967MOL0     H27610   0.744   5.488   1.517 -0.9468  1.4482 -0.0906
  967MOL0     H27611   0.867   5.549   1.623 -1.8925  1.2565  0.8719
  967MOL0     H27612   0.713   5.560   1.812  0.3718 -0.4406 -0.3600
  967MOL0     H27613   0.602   5.449   1.742 -0.1032  0.6916 -0.2583
  967MOL0     H27614   0.549   5.708   1.748 -0.0590  2.4137 -2.0931
  967MOL0     H27615   0.505   5.642   1.605 -0.6174 -3.3277  0.2236
  967MOL0     H27616   0.740   5.818   1.667  0.8168 -0.7384  0.2764
  967MOL0     H27617   0.754   5.700   1.528  0.8912 -3.1229  1.7209
  967MOL0     H27618   0.507   5.879   1.580 -0.6087 -1.0709 -1.1050
  967MOL0     H27619   0.560   5.813   1.427  1.6211  1.6379 -0.8818
  967MOL0     H27620   0.757   5.946   1.404 -0.7866 -2.3500 -0.6909
  967MOL0     H27621   0.719   6.016   1.568 -1.4094  1.3555 -0.9347
  967MOL0     H27622   0.494   6.029   1.398  0.1359 -0.5938  0.2066
  967MOL0     H27623   0.580   6.155   1.485  1.2869  0.1896 -0.1340
  967MOL0     H27624   0.576   6.191   1.240 -1.7251 -4.6915 -4.8519
  967MOL0     H27625   0.661   6.043   1.220 -0.7590 -0.1732  0.3575
  967MOL0     H27626   0.916   5.504   1.838 -1.9753 -0.8360 -0.8475
  967MOL0     H27627   1.068   5.446   2.024  3.2065 -0.7279 -0.3303
  967MOL0     H27628   1.287   4.923   2.273 -0.7513 -0.0152  1.2700
  967MOL0     H27629   1.476   4.915   2.426 -0.9939  1.3113  3.6636
  967MOL0     H27630   2.827   3.877   3.115  2.2825 -0.2791  2.7923
  967MOL0     H27631   3.032   3.941   3.222 -1.4168  0.5470  2.5219
  967MOL0     H27632   3.536   4.033   3.144 -0.3756  0.9359 -0.1143
  967MOL0     H27633   3.730   4.174   3.173 -1.3174 -2.9038 -0.2323
  967MOL0     H27634   3.681   4.615   3.240 -0.8192 -1.1518  0.5030
  967MOL0     H27635   3.849   4.602   3.261  0.1365  0.5424  1.5595
  967MOL0     H27636   3.728   4.651   3.475 -2.0041 -0.5333  0.3533
  967MOL0     H27637   3.663   4.500   3.488 -2.7765  0.1617 -2.3104
  967MOL0     H27638   3.900   4.395   3.456 -2.1203  0.4217 -1.0317
  967MOL0     H27639   3.875   4.473   3.614 -2.0469  0.1134 -0.4307
  967MOL0     H27640   4.011   4.610   3.374 -0.1115  2.9597  1.2469
  967MOL0     H27641   4.033   4.648   3.549 -1.5180 -1.9867  2.5161
  967MOL0     H27642   4.293   4.315   3.509 -1.4676 -1.5190  2.1707
  967MOL0     H27643   3.483   4.504   3.272 -0.5336  0.4053  1.3362
  967MOL0     H27644   3.293   4.371   3.272 -1.8237 -0.2483 -0.9108
  968MOL0     O27645   8.198  11.003   2.218  0.0080 -0.3289 -0.7594
  968MOL0     C27646   8.079  10.969   2.185 -0.2986  1.5842  0.3711
  968MOL0     O27647   8.018  10.993   2.068 -0.0410 -0.0884  0.1726
  968MOL0     C27648   8.076  11.051   1.953  0.0558 -0.9851  0.5188
  968MOL0     C27649   8.214  11.087   1.942  0.2224  0.5812  0.1887
  968MOL0     C27650   8.255  11.145   1.821  0.0327 -0.3456 -0.1370
  968MOL0     C27651   8.172  11.167   1.715 -0.6298 -0.7812 -0.9513
  968MOL0     O27652   8.206  11.230   1.588 -0.2872  0.7761  0.1066
  968MOL0     C27653   8.324  11.313   1.576 -0.5843 -0.6662 -0.0792
  968MOL0     C27654   8.334  11.398   1.449 -0.2095  0.6387  0.5616
  968MOL0     C27655   8.459  11.484   1.461  0.5034  0.4189 -0.7715
  968MOL0     C27656   8.593  11.406   1.451  0.0995 -0.0273 -0.5935
  968MOL0     C27657   8.721  11.478   1.423 -0.0998 -0.6080 -0.4129
  968MOL0     C27658   8.843  11.389   1.442  0.2386 -0.4994  0.2902
  968MOL0     C27659   8.953  11.421   1.341 -1.2514  0.1938 -0.0054
  968MOL0     C27660   9.091  11.352   1.387  0.1264 -0.1354  0.7240
  968MOL0     N27661   9.182  11.320   1.277  0.0036  0.3542  0.1380
  968MOL0     C27662   9.234  11.421   1.204 -0.2191  0.3733 -0.3027
  968MOL0     C27663   9.307  11.340   1.115  0.5417 -0.0707  0.5172
  968MOL0     C27664   9.405  11.381   1.012 -0.1732  0.8760 -0.9145
  968MOL0     C27665   9.371  11.510   0.932 -0.3777  0.8774 -1.1449
  968MOL0     C27666   9.396  11.521   0.775  0.0258 -0.2647  0.1771
  968MOL0     C27667   9.393  11.675   0.736 -0.1982 -0.3839  0.0794
  968MOL0     O27668   9.414  11.686   0.602  0.7761 -1.3324  0.2707
  968MOL0     C27669   9.489  11.799   0.566 -0.0183 -0.4129 -0.2068
  968MOL0     C27670   9.496  11.930   0.627 -0.4260  0.8568 -0.0836
  968MOL0     C27671   9.574  12.028   0.570  0.0175  0.7835  0.3411
  968MOL0     C27672   9.645  12.006   0.448  0.2501  1.6349  0.1799
  968MOL0     C27673   9.741  12.103   0.390  0.0835 -0.2213  0.1128
  968MOL0     O27674   9.742  12.226   0.459  0.2251  0.2988 -0.5248
  968MOL0     C27675   9.813  12.332   0.401  0.2267  0.0609 -0.4297
  968MOL0     C27676   9.761  12.391   0.283  0.9485 -0.2416 -0.4200
  968MOL0     C27677   9.839  12.479   0.211  0.3805  0.0729  0.6647
  968MOL0     C27678   9.969  12.513   0.251  0.0085  0.1963 -0.6398
  968MOL0     O27679  10.060  12.595   0.178 -0.0117 -0.0453 -0.2678
  968MOL0     C27680  10.002  12.692   0.084  0.9948 -0.1158  0.1431
  968MOL0     C27681  10.027  12.650  -0.048 -0.9912 -0.1720 -0.1577
  968MOL0     C27682   9.974  12.745  -0.161 -0.7085 -0.2784  0.3964
  968MOL0     C27683   9.982  12.692  -0.310 -0.3138  0.4523 -0.2712
  968MOL0     C27684   9.908  12.801  -0.407  0.3430  0.3693  0.2855
  968MOL0     C27685   9.873  12.757  -0.543 -0.0806 -0.4658 -0.5443
  968MOL0     C27686   9.819  12.879  -0.624 -0.1077 -0.7249  0.0881
  968MOL0     C27687   9.808  12.834  -0.772  0.2535  0.4717  0.5455
  968MOL0    Cl27688   9.698  12.690  -0.777  0.3316 -0.1412 -0.2901
  968MOL0     C27689  10.014  12.460   0.375 -0.8059 -0.1219 -0.0947
  968MOL0     C27690   9.935  12.379   0.456  0.4604  0.8740  0.0488
  968MOL0     O27691   9.801  12.079   0.287 -0.6323  0.7459 -0.4374
  968MOL0     C27692   9.630  11.880   0.387  0.2375  0.9729 -0.9043
  968MOL0     C27693   9.553  11.784   0.446 -0.0763 -0.8988  1.0265
  968MOL0     N27694   9.285  11.204   1.138  0.2151 -0.4075  0.4000
  968MOL0     N27695   9.213  11.189   1.240 -0.3160 -0.2580 -0.3938
  968MOL0     C27696   8.036  11.132   1.732  0.3456 -1.5346 -0.2696
  968MOL0     C27697   7.984  11.063   1.842  0.9290 -0.1222 -0.3369
  968MOL0     C27698   8.006  10.892   2.290 -0.3074 -0.6129  0.0592
  968MOL0     C27699   8.081  10.801   2.380  0.9358  0.6515 -0.1027
  968MOL0     C27700   7.999  10.736   2.470  0.1640 -0.0476  0.8810
  968MOL0     C27701   7.868  10.756   2.492  0.7026 -0.0487 -0.0137
  968MOL0     O27702   7.800  10.662   2.559 -0.0214 -0.3192 -0.0894
  968MOL0     C27703   7.680  10.710   2.627 -1.0948  0.3503 -0.4738
  968MOL0     C27704   7.664  10.663   2.775  0.2935  0.7006  0.0172
  968MOL0     C27705   7.525  10.699   2.837 -0.2260 -0.1445  0.0306
  968MOL0     C27706   7.465  10.827   2.787 -0.2332  0.8333 -0.7659
  968MOL0     C27707   7.350  10.871   2.862  0.8789  0.1570  0.5491
  968MOL0     C27708   7.261  10.897   2.938 -0.6111  0.5924 -0.0725
  968MOL0     C27709   7.804  10.853   2.419  0.3058  0.6538  0.2937
  968MOL0     C27710   7.868  10.909   2.314  0.8483 -0.0998 -0.7263
  968MOL0     H27711   8.289  11.056   2.015 -1.0341  0.2396  1.3868
  968MOL0     H27712   8.354  11.189   1.810 -0.4124  1.3199  1.8599
  968MOL0     H27713   8.409  11.245   1.588  2.5630  2.5925 -2.1259
  968MOL0     H27714   8.328  11.389   1.654  1.8574  1.3737 -2.0146
  968MOL0     H27715   8.249  11.467   1.448  0.3141  1.3089  1.3866
  968MOL0     H27716   8.340  11.338   1.358 -1.0940  0.2114  0.7699
  968MOL0     H27717   8.443  11.535   1.557 -2.1236  0.6965 -1.2819
  968MOL0     H27718   8.451  11.558   1.382  3.7368  1.6657 -0.0893
  968MOL0     H27719   8.613  11.343   1.538  2.2934 -1.7388 -2.2079
  968MOL0     H27720   8.575  11.341   1.365  0.6765  0.5555 -1.1631
  968MOL0     H27721   8.732  11.573   1.477  0.2875 -0.9651  0.1318
  968MOL0     H27722   8.714  11.503   1.317 -0.4645 -0.3714 -0.3371
  968MOL0     H27723   8.809  11.287   1.423  0.0643 -0.0656 -2.0615
  968MOL0     H27724   8.865  11.387   1.549  0.0257 -0.7485  0.3290
  968MOL0     H27725   8.919  11.395   1.240 -2.0835  0.5432  0.1835
  968MOL0     H27726   8.970  11.529   1.335  2.2092 -0.2628 -0.3708
  968MOL0     H27727   9.063  11.256   1.431 -1.6906 -0.3254 -0.7303
  968MOL0     H27728   9.139  11.411   1.465 -2.4338  0.2769  2.0992
  968MOL0     H27729   9.240  11.529   1.215  0.6283  0.4350 -1.1616
  968MOL0     H27730   9.419  11.289   0.954 -0.2471 -1.2877  2.2637
  968MOL0     H27731   9.503  11.397   1.057 -2.4084  1.1676  4.5863
  968MOL0     H27732   9.441  11.580   0.980  0.8777 -2.7956  3.0073
  968MOL0     H27733   9.272  11.549   0.954 -0.0020  1.4503 -0.4289
  968MOL0     H27734   9.493  11.475   0.754 -0.7172 -2.1585  0.6517
  968MOL0     H27735   9.325  11.451   0.729  0.8496 -0.8250 -0.2717
  968MOL0     H27736   9.465  11.734   0.794 -0.4637 -1.5521  1.6602
  968MOL0     H27737   9.299  11.715   0.773 -1.6298 -2.7158 -0.8208
  968MOL0     H27738   9.450  11.956   0.722 -1.7636 -2.6387  0.3947
  968MOL0     H27739   9.567  12.129   0.610 -0.6433  1.0282 -0.3699
  968MOL0     H27740   9.660  12.356   0.262  0.6838  0.3951 -0.2287
  968MOL0     H27741   9.802  12.524   0.119  0.8479 -0.9107 -0.0231
  968MOL0     H27742  10.051  12.790   0.095 -1.1931  1.1094 -0.3579
  968MOL0     H27743   9.894  12.702   0.100  0.9151  1.7095 -1.1777
  968MOL0     H27744   9.985  12.549  -0.056 -0.7167 -0.7483  3.6129
  968MOL0     H27745  10.135  12.631  -0.058 -0.8940 -0.1892  0.8039
  968MOL0     H27746  10.047  12.826  -0.145 -3.0182  1.6972  1.5237
  968MOL0     H27747   9.872  12.778  -0.142  0.3427  3.7140  0.0425
  968MOL0     H27748  10.086  12.681  -0.341  0.0704  0.2167  1.0470
  968MOL0     H27749   9.922  12.600  -0.314 -1.6508  1.1357  2.0420
  968MOL0     H27750   9.973  12.889  -0.410  0.6681  0.2565  2.5745
  968MOL0     H27751   9.811  12.822  -0.363  0.0506 -0.1383 -0.1052
  968MOL0     H27752   9.794  12.682  -0.536 -1.3809  0.9411  0.4987
  968MOL0     H27753   9.959  12.705  -0.586  0.6475 -0.9191  1.3504
  968MOL0     H27754   9.724  12.901  -0.575  0.4764 -0.8409  1.3222
  968MOL0     H27755   9.895  12.957  -0.617 -0.4697 -0.2413 -1.1108
  968MOL0     H27756   9.903  12.793  -0.807  0.2488 -2.0976  3.2005
  968MOL0     H27757   9.778  12.918  -0.836  1.8548  0.0126 -0.8968
  968MOL0     H27758  10.113  12.476   0.418 -1.5220 -2.2684  2.6126
  968MOL0     H27759   9.964  12.348   0.556 -1.0690 -2.7895 -0.4789
  968MOL0     H27760   9.671  11.859   0.289 -0.3931  1.9182 -1.3868
  968MOL0     H27761   9.523  11.692   0.396 -1.6084 -0.3671  0.9208
  968MOL0     H27762   7.969  11.144   1.648  0.4941 -1.4222 -0.3718
  968MOL0     H27763   7.886  11.017   1.840 -1.6506  4.4642 -4.8815
  968MOL0     H27764   8.187  10.775   2.377  0.6492 -0.7617  1.1553
  968MOL0     H27765   8.043  10.666   2.541  0.2159  1.9307  2.9255
  968MOL0     H27766   7.593  10.681   2.567 -0.5282 -1.0560 -0.6495
  968MOL0     H27767   7.681  10.820   2.635  1.7962  0.2652  2.0917
  968MOL0     H27768   7.678  10.555   2.791 -0.6462  0.8002  1.8265
  968MOL0     H27769   7.751  10.711   2.820  0.1656 -1.4541  2.8506
  968MOL0     H27770   7.544  10.715   2.943 -2.1538  3.9826 -0.0666
  968MOL0     H27771   7.453  10.616   2.831 -3.0255  1.9167  2.4287
  968MOL0     H27772   7.536  10.910   2.799  0.1610  0.2476  1.3501
  968MOL0     H27773   7.436  10.830   2.681  1.4199  1.3540 -1.2495
  968MOL0     H27774   7.183  10.917   3.010 -0.3127  0.6070  0.2484
  968MOL0     H27775   7.697  10.869   2.431  0.2035  1.3493 -1.3003
  968MOL0     H27776   7.812  10.969   2.242 -2.4812 -2.6225 -0.4480
  969MOL0     O27777   9.994  10.137   5.231 -0.0765  0.2207  0.2406
  969MOL0     C27778   9.876  10.125   5.250 -0.1403 -0.4578  0.6047
  969MOL0     O27779   9.783  10.232   5.255  0.3408  0.4598 -0.0035
  969MOL0     C27780   9.821  10.357   5.235 -1.1168  0.1753  0.4974
  969MOL0     C27781   9.820  10.453   5.343 -0.8969  0.2029  0.3448
  969MOL0     C27782   9.854  10.590   5.321 -0.5935  0.2202  0.3388
  969MOL0     C27783   9.895  10.621   5.193  0.1257 -0.2994 -0.3818
  969MOL0     O27784   9.934  10.744   5.159 -0.0014  0.3851  0.5258
  969MOL0     C27785   9.842  10.849   5.187  0.7637 -0.7770  0.0299
  969MOL0     C27786   9.899  10.986   5.142 -0.0623  0.3850  0.1464
  969MOL0     C27787   9.801  11.104   5.154 -0.2205 -0.9630  0.7055
  969MOL0     C27788   9.735  11.123   5.291  0.0589 -0.8508  0.6085
  969MOL0     C27789   9.828  11.154   5.398 -0.4939 -0.4871  1.0162
  969MOL0     C27790   9.770  11.225   5.513  0.3296  0.0849 -0.6227
  969MOL0     C27791   9.647  11.166   5.584 -0.2053  0.3361 -0.6351
  969MOL0     C27792   9.560  11.272   5.662  0.0668 -0.1327 -0.1540
  969MOL0     N27793   9.594  11.282   5.804 -0.0741 -0.2275 -0.3323
  969MOL0     C27794   9.512  11.256   5.907  1.4218  0.2871 -0.5969
  969MOL0     C27795   9.565  11.317   6.015  0.0955  0.2642 -0.5425
  969MOL0     C27796   9.497  11.312   6.154  0.1509 -0.5685 -1.0549
  969MOL0     C27797   9.421  11.443   6.179 -0.4129 -0.7277 -0.2970
  969MOL0     C27798   9.331  11.443   6.312 -0.1017 -0.6280  1.1448
  969MOL0     C27799   9.422  11.448   6.428  0.0216 -0.2441 -0.8385
  969MOL0     O27800   9.451  11.307   6.467  0.1389 -0.0016 -0.4905
  969MOL0     C27801   9.564  11.283   6.547 -0.6715  0.0338 -0.6855
  969MOL0     C27802   9.633  11.161   6.530 -0.3793  0.8943  0.8801
  969MOL0     C27803   9.757  11.131   6.589 -0.0300 -1.3157  0.1288
  969MOL0     C27804   9.827  11.236   6.658  0.3533  0.0828  0.3996
  969MOL0     C27805   9.962  11.206   6.706 -0.5013 -0.0016  0.0423
  969MOL0     O27806  10.014  11.082   6.688 -0.4330  0.2517  0.7092
  969MOL0     C27807  10.124  11.028   6.750 -0.2092 -0.7890  0.0273
  969MOL0     C27808  10.130  10.889   6.752  0.3014 -0.3261  0.3230
  969MOL0     C27809  10.227  10.818   6.832  0.5999 -0.8132  0.4326
  969MOL0     C27810  10.330  10.897   6.893  0.0732  0.0321 -0.4762
  969MOL0     O27811  10.432  10.841   6.969  0.4616  0.3610  0.4875
  969MOL0     C27812  10.410  10.711   7.021 -0.5718  1.3022 -0.0364
  969MOL0     C27813  10.457  10.600   6.921  0.3385  0.0907  0.1896
  969MOL0     C27814  10.443  10.461   6.964 -0.2147  0.0186  0.7661
  969MOL0     C27815  10.304  10.420   6.983  0.8842  0.1854  0.1888
  969MOL0     C27816  10.269  10.320   7.101 -0.0852 -1.1270 -0.3925
  969MOL0     C27817  10.125  10.265   7.073 -0.2682  0.1212 -0.3819
  969MOL0     C27818  10.082  10.193   7.195 -0.4866  0.2001 -1.5632
  969MOL0     C27819   9.946  10.112   7.173 -0.7932 -0.6149 -0.4915
  969MOL0    Cl27820   9.822  10.230   7.114  0.1965  0.3843 -0.2454
  969MOL0     C27821  10.335  11.036   6.872  0.1624  0.6378 -0.8852
  969MOL0     C27822  10.240  11.093   6.787 -0.1882 -0.1269  0.0560
  969MOL0     O27823  10.001  11.287   6.799  0.6559 -0.1617  0.3472
  969MOL0     C27824   9.765  11.360   6.671 -0.4138 -0.6920  0.2023
  969MOL0     C27825   9.634  11.383   6.625  0.1854  0.4146 -0.2086
  969MOL0     N27826   9.683  11.387   5.983 -0.1896 -0.9747 -0.0365
  969MOL0     N27827   9.699  11.360   5.855 -0.7402 -0.2809  0.4295
  969MOL0     C27828   9.905  10.523   5.091  0.0557  0.2038  0.6938
  969MOL0     C27829   9.865  10.386   5.108 -0.8770 -0.2480  0.2183
  969MOL0     C27830   9.815   9.990   5.274 -0.4375 -0.3514 -0.0245
  969MOL0     C27831   9.890   9.873   5.266  0.0988  0.5151  0.2772
  969MOL0     C27832   9.830   9.748   5.295  0.2106  0.0132  0.3586
  969MOL0     C27833   9.694   9.731   5.311 -0.7239  0.8073 -0.5712
  969MOL0     O27834   9.641   9.614   5.362 -0.1898  0.1447 -0.3184
  969MOL0     C27835   9.714   9.480   5.349 -0.6483 -0.8660  0.6511
  969MOL0     C27836   9.637   9.373   5.422 -0.1503 -0.6062 -0.3194
  969MOL0     C27837   9.483   9.382   5.394 -0.1477 -0.0305  0.2311
  969MOL0     C27838   9.413   9.266   5.451  0.3237  0.0673  0.3026
  969MOL0     C27839   9.413   9.159   5.357  0.4288  0.6532 -0.0113
  969MOL0     C27840   9.408   9.057   5.279  0.1869 -0.3122 -0.5276
  969MOL0     C27841   9.622   9.853   5.309  1.0533  0.1039 -0.2285
  969MOL0     C27842   9.672   9.978   5.291 -0.1144 -0.3891  0.2105
  969MOL0     H27843   9.795  10.420   5.443  0.6687 -2.0497  0.0788
  969MOL0     H27844   9.854  10.661   5.403  0.2683 -1.6612  2.0710
  969MOL0     H27845   9.824  10.862   5.294 -2.3988 -0.5911 -0.4354
  969MOL0     H27846   9.749  10.823   5.136  0.9401  2.2397 -2.0868
  969MOL0     H27847   9.941  10.979   5.041 -2.4321  0.8989 -0.9386
  969MOL0     H27848   9.993  11.002   5.197  2.0676  2.6834 -3.7421
  969MOL0     H27849   9.721  11.077   5.084  0.5799  2.1799 -1.6229
  969MOL0     H27850   9.832  11.197   5.107  0.8518 -0.3403  2.5417
  969MOL0     H27851   9.662  11.201   5.272  2.3204  1.2013 -0.2022
  969MOL0     H27852   9.686  11.030   5.321 -0.0066 -1.1110 -0.2643
  969MOL0     H27853   9.912  11.211   5.359 -0.7607 -1.3878 -1.0015
  969MOL0     H27854   9.848  11.056   5.444 -2.9973 -1.9755 -0.8000
  969MOL0     H27855   9.734  11.324   5.483 -1.9559 -0.4468  0.1458
  969MOL0     H27856   9.848  11.247   5.587  0.3942  0.2760 -0.7448
  969MOL0     H27857   9.582  11.139   5.499  0.0264 -2.2615 -0.0802
  969MOL0     H27858   9.672  11.078   5.643 -2.3000 -1.4730 -2.2465
  969MOL0     H27859   9.452  11.256   5.654 -0.7071  3.6254  0.9921
  969MOL0     H27860   9.571  11.374   5.623 -0.4618  0.1873  0.5245
  969MOL0     H27861   9.417  11.203   5.908  0.6818  1.5690 -0.7405
  969MOL0     H27862   9.561  11.293   6.241 -2.0127  2.0486  1.3401
  969MOL0     H27863   9.429  11.227   6.164  0.1214 -0.2877  4.2163
  969MOL0     H27864   9.361  11.451   6.088  0.5270 -3.0931 -1.2128
  969MOL0     H27865   9.474  11.538   6.179  0.5046 -1.1998  1.7357
  969MOL0     H27866   9.269  11.533   6.310 -0.9768 -1.2024 -1.6110
  969MOL0     H27867   9.250  11.370   6.320 -1.4543  0.7114  0.2559
  969MOL0     H27868   9.374  11.494   6.515  0.7965 -0.0709 -0.4963
  969MOL0     H27869   9.519  11.496   6.415  1.0357 -2.0230 -0.2140
  969MOL0     H27870   9.581  11.091   6.465  0.0330 -1.1900  2.6928
  969MOL0     H27871   9.792  11.030   6.574  0.2446 -0.8164 -3.5007
  969MOL0     H27872  10.040  10.846   6.708 -0.4122  1.6940 -0.3529
  969MOL0     H27873  10.224  10.710   6.836  1.8678 -0.8673  0.4474
  969MOL0     H27874  10.303  10.699   7.040 -0.9504 -1.7355 -3.0960
  969MOL0     H27875  10.452  10.686   7.118  2.1159 -0.4145 -1.5136
  969MOL0     H27876  10.563  10.616   6.899 -0.0636  1.2772 -0.9402
  969MOL0     H27877  10.405  10.609   6.826  1.4196  2.7095 -0.2248
  969MOL0     H27878  10.493  10.454   7.061  1.6678 -1.1968 -0.2330
  969MOL0     H27879  10.494  10.389   6.899 -2.7528 -1.4849  0.3163
  969MOL0     H27880  10.241  10.508   6.998 -1.6755 -1.1821 -1.7240
  969MOL0     H27881  10.267  10.388   6.885 -0.0765 -0.3983  0.7255
  969MOL0     H27882  10.276  10.358   7.203  2.1077  0.5275 -1.0608
  969MOL0     H27883  10.334  10.233   7.091 -0.9597 -1.6373 -2.0859
  969MOL0     H27884  10.130  10.203   6.983 -2.3103 -2.1131  0.9007
  969MOL0     H27885  10.058  10.350   7.057 -0.4602  0.3472  1.3851
  969MOL0     H27886  10.170  10.137   7.228  1.6190  3.8301 -0.4062
  969MOL0     H27887  10.058  10.268   7.271 -2.1474 -0.8442 -1.0026
  969MOL0     H27888   9.924  10.054   7.263  0.9550  1.2683  1.2351
  969MOL0     H27889   9.965  10.030   7.102 -1.1927 -0.7260 -0.4740
  969MOL0     H27890  10.410  11.079   6.937 -1.2465  0.7002  0.7590
  969MOL0     H27891  10.247  11.201   6.778 -0.1554 -0.0836  0.6130
  969MOL0     H27892   9.815  11.440   6.724 -2.2334 -0.2273  1.3188
  969MOL0     H27893   9.595  11.482   6.646  1.7865  1.3614 -1.4899
  969MOL0     H27894   9.934  10.564   4.995  0.9126  0.7583  1.1691
  969MOL0     H27895   9.855  10.315   5.027  2.2265  0.4129 -0.8576
  969MOL0     H27896   9.995   9.873   5.240 -0.0467 -2.8059 -0.8527
  969MOL0     H27897   9.890   9.658   5.285 -2.9565 -2.2696  0.2273
  969MOL0     H27898   9.809   9.489   5.403 -1.7285 -0.0993  2.5080
  969MOL0     H27899   9.732   9.436   5.250  1.5071 -2.0182  1.4796
  969MOL0     H27900   9.687   9.279   5.396  2.3888  0.3170  0.8751
  969MOL0     H27901   9.645   9.377   5.531 -0.2180  0.7838 -0.3556
  969MOL0     H27902   9.456   9.390   5.288  0.2104 -0.9191  0.0706
  969MOL0     H27903   9.453   9.467   5.456 -0.7442  0.5648 -0.8271
  969MOL0     H27904   9.449   9.241   5.552 -0.4781  0.1205  0.6116
  969MOL0     H27905   9.311   9.302   5.468  0.8122  0.8715  1.7347
  969MOL0     H27906   9.392   8.968   5.221 -0.9556  1.5868 -3.3743
  969MOL0     H27907   9.515   9.854   5.328  0.9248 -2.7574 -0.3396
  969MOL0     H27908   9.597  10.056   5.296  0.5045  0.1560  2.6880
  970MOL0     O27909  10.624   5.085   6.168 -0.2048 -0.7638  0.0843
  970MOL0     C27910  10.534   5.172   6.187 -0.2083 -0.4318 -0.7832
  970MOL0     O27911  10.482   5.211   6.313 -0.0516 -0.2477  0.6714
  970MOL0     C27912  10.544   5.179   6.433 -0.0658  0.1338  0.1602
  970MOL0     C27913  10.449   5.191   6.537 -0.3302  0.3095 -0.7388
  970MOL0     C27914  10.487   5.158   6.669 -0.4408  0.5564  0.9291
  970MOL0     C27915  10.615   5.137   6.700  0.6469 -0.1892 -0.0381
  970MOL0     O27916  10.641   5.119   6.834 -0.0083  0.8728  0.0605
  970MOL0     C27917  10.784   5.103   6.879  0.1502 -0.2039 -0.1845
  970MOL0     C27918  10.808   5.082   7.022  0.5081  0.0572 -0.0246
  970MOL0     C27919  10.746   5.206   7.105 -0.6094  0.3778  0.0241
  970MOL0     C27920  10.793   5.192   7.254  0.6831  0.2617  0.1439
  970MOL0     C27921  10.799   5.325   7.326 -0.7487 -0.1435  0.0342
  970MOL0     C27922  10.819   5.288   7.474 -0.2296  0.5484 -1.1673
  970MOL0     C27923  10.776   5.393   7.579 -0.7866 -0.0834 -0.1864
  970MOL0     C27924  10.799   5.529   7.538  0.1783  0.1304  0.1498
  970MOL0     N27925  10.792   5.616   7.655  0.8049  0.7891 -0.5113
  970MOL0     C27926  10.896   5.661   7.732  0.2531  1.1012  0.6880
  970MOL0     C27927  10.833   5.722   7.841 -0.3774  0.6472 -0.1318
  970MOL0     C27928  10.920   5.793   7.941  0.4048 -0.4194 -0.1270
  970MOL0     C27929  10.974   5.690   8.048  0.3297 -0.2419  0.2432
  970MOL0     C27930  11.056   5.774   8.150 -0.9029 -1.0520  0.6857
  970MOL0     C27931  10.962   5.857   8.224  0.6938  0.1882 -0.1573
  970MOL0     O27932  11.024   5.889   8.354 -0.4128 -0.1266  0.1742
  970MOL0     C27933  11.017   5.806   8.462  0.1761 -0.3961  0.0835
  970MOL0     C27934  10.972   5.669   8.455 -0.7595 -0.3535 -0.1845
  970MOL0     C27935  10.968   5.592   8.568 -0.0610 -0.0933 -0.8364
  970MOL0     C27936  11.031   5.643   8.690 -0.1864  0.1668 -0.0322
  970MOL0     C27937  11.026   5.560   8.812 -0.0689 -0.2055  0.1817
  970MOL0     O27938  10.951   5.452   8.821 -0.6296 -0.3352 -0.1777
  970MOL0     C27939  10.970   5.367   8.930  0.9172 -1.6259 -0.4990
  970MOL0     C27940  11.086   5.306   8.961 -0.8003 -0.2523  0.2976
  970MOL0     C27941  11.091   5.232   9.087  0.5842 -0.2913 -0.3105
  970MOL0     C27942  10.976   5.217   9.166 -0.6968  0.5708 -0.0178
  970MOL0     O27943  10.985   5.137   9.283  0.8586 -0.0377 -0.6273
  970MOL0     C27944  10.867   5.076   9.340  0.1061 -0.5690  0.2677
  970MOL0     C27945  10.892   5.008   9.477  0.6760  0.3752  0.1106
  970MOL0     C27946  11.000   4.892   9.481  0.3149 -0.5529 -1.1005
  970MOL0     C27947  10.981   4.782   9.378  0.8388 -0.0280 -0.4201
  970MOL0     C27948  11.091   4.679   9.384  0.4687  0.5429 -0.7294
  970MOL0     C27949  11.060   4.548   9.302 -1.0073 -0.5933  0.4213
  970MOL0     C27950  10.966   4.458   9.372  0.3110  0.3120  0.7304
  970MOL0     C27951  10.960   4.323   9.299 -0.7300  0.2539 -0.4394
  970MOL0    Cl27952  11.108   4.225   9.345  0.3614  0.0475  0.1581
  970MOL0     C27953  10.852   5.279   9.120 -0.3715  0.9176  0.1329
  970MOL0     C27954  10.855   5.340   8.995  1.4054  0.9736  0.4255
  970MOL0     O27955  11.081   5.611   8.912 -0.9448  0.8985  0.7785
  970MOL0     C27956  11.088   5.769   8.691 -0.0927  0.6703  0.1044
  970MOL0     C27957  11.066   5.855   8.582 -0.2438  0.7275  1.4299
  970MOL0     N27958  10.696   5.708   7.833  0.2882  0.1453  0.2996
  970MOL0     N27959  10.676   5.648   7.721  0.6390 -0.6332  0.2080
  970MOL0     C27960  10.712   5.132   6.598 -0.0625 -0.2974  0.1086
  970MOL0     C27961  10.679   5.135   6.462 -0.1434 -0.2548 -0.2460
  970MOL0     C27962  10.472   5.224   6.070  0.6320 -0.2574  1.2122
  970MOL0     C27963  10.349   5.290   6.085  1.0791  0.5673 -0.4597
  970MOL0     C27964  10.278   5.341   5.979 -0.0064  0.2042  0.2928
  970MOL0     C27965  10.318   5.329   5.848 -1.0649 -1.6077 -0.9923
  970MOL0     O27966  10.242   5.377   5.741  1.1264  0.1643 -0.5693
  970MOL0     C27967  10.301   5.361   5.614 -0.3718  0.1747  1.6073
  970MOL0     C27968  10.224   5.454   5.524  0.1793 -0.7116 -0.6663
  970MOL0     C27969  10.068   5.430   5.510  0.0626  0.2791  0.0155
  970MOL0     C27970  10.034   5.337   5.394  1.0022  0.7104  0.6003
  970MOL0     C27971   9.885   5.336   5.374  1.0545  0.3221 -0.8983
  970MOL0     C27972   9.763   5.339   5.346 -0.6357 -0.1987  0.2189
  970MOL0     C27973  10.437   5.258   5.828  0.3151  0.3917 -0.5366
  970MOL0     C27974  10.511   5.206   5.932  0.3247 -1.1789 -0.4223
  970MOL0     H27975  10.354   5.240   6.517 -0.0813  0.7518 -0.8475
  970MOL0     H27976  10.417   5.161   6.752  0.0066 -1.1312  1.4175
  970MOL0     H27977  10.838   5.195   6.852 -2.6083  1.7975  0.6657
  970MOL0     H27978  10.837   5.022   6.829 -1.9022 -0.5222 -1.9991
  970MOL0     H27979  10.910   5.050   7.047 -0.9205 -3.6480  1.8060
  970MOL0     H27980  10.756   4.989   7.045  1.5165  0.0421  2.5338
  970MOL0     H27981  10.638   5.195   7.093 -0.4670 -2.0993  0.4956
  970MOL0     H27982  10.786   5.304   7.076  2.8617 -0.4253  1.4669
  970MOL0     H27983  10.730   5.111   7.293  1.9762 -0.6920  0.3145
  970MOL0     H27984  10.893   5.147   7.261  0.1782 -0.6057  2.7261
  970MOL0     H27985  10.710   5.387   7.307 -1.0721 -0.7580 -0.5020
  970MOL0     H27986  10.889   5.381   7.302 -1.8268  1.9361  0.5251
  970MOL0     H27987  10.926   5.269   7.491 -0.3332  1.5779  0.8496
  970MOL0     H27988  10.761   5.201   7.508  5.1369 -2.1820  2.5908
  970MOL0     H27989  10.672   5.380   7.608 -0.4979  0.2342  1.0126
  970MOL0     H27990  10.837   5.384   7.669 -1.2255 -0.4167  0.0764
  970MOL0     H27991  10.726   5.559   7.462  0.8462  2.0762  0.2062
  970MOL0     H27992  10.899   5.533   7.495  0.2166  0.5313  0.2661
  970MOL0     H27993  11.002   5.650   7.714 -0.2772 -0.3478 -2.3125
  970MOL0     H27994  10.864   5.882   7.970  2.3860  1.7580 -2.5922
  970MOL0     H27995  11.012   5.823   7.892  0.4814 -3.0095 -1.7490
  970MOL0     H27996  11.041   5.617   8.002 -3.1489 -2.2346 -2.1340
  970MOL0     H27997  10.889   5.635   8.090 -0.4999  0.5961 -0.2908
  970MOL0     H27998  11.107   5.704   8.217 -2.0057 -1.4892  1.0852
  970MOL0     H27999  11.127   5.836   8.095 -1.7411  2.3501  3.1660
  970MOL0     H28000  10.868   5.803   8.240  2.2211 -2.4686  0.3763
  970MOL0     H28001  10.935   5.943   8.162  0.0187 -0.9661 -1.5098
  970MOL0     H28002  10.951   5.615   8.363 -2.5249 -2.0751  1.1448
  970MOL0     H28003  10.941   5.486   8.566 -0.2553 -0.0901  0.5516
  970MOL0     H28004  11.173   5.316   8.898  0.5716 -0.5332  2.0619
  970MOL0     H28005  11.183   5.185   9.120  0.1360  0.0929  1.6106
  970MOL0     H28006  10.828   4.996   9.277 -0.1545 -2.1157  2.2986
  970MOL0     H28007  10.786   5.149   9.351  1.9708  1.7516 -0.6263
  970MOL0     H28008  10.795   4.970   9.510  1.1506 -0.1002  1.0215
  970MOL0     H28009  10.928   5.084   9.548 -1.3706  0.1721  1.4444
  970MOL0     H28010  10.999   4.846   9.581  0.9539  4.8416  1.7501
  970MOL0     H28011  11.098   4.938   9.469 -0.0644  0.5865 -0.0266
  970MOL0     H28012  10.891   4.721   9.389  1.1853 -0.0255  4.5101
  970MOL0     H28013  10.975   4.821   9.276 -0.0664  0.4382 -0.1989
  970MOL0     H28014  11.109   4.650   9.488 -1.4081 -0.0640 -0.5485
  970MOL0     H28015  11.185   4.725   9.350  0.1905 -0.0560 -2.4057
  970MOL0     H28016  11.158   4.501   9.286  0.9431  2.8658  1.1074
  970MOL0     H28017  11.014   4.582   9.209 -1.8972 -2.7640  0.0232
  970MOL0     H28018  10.994   4.423   9.472 -1.2330 -0.1854  1.0124
  970MOL0     H28019  10.869   4.509   9.371  0.1214  0.0981  2.7128
  970MOL0     H28020  10.965   4.335   9.190  1.9857 -0.3282 -0.4392
  970MOL0     H28021  10.869   4.269   9.325 -0.9298  1.0756  0.6642
  970MOL0     H28022  10.762   5.269   9.179 -1.4006 -1.7514 -1.6614
  970MOL0     H28023  10.764   5.381   8.953  0.2429 -3.0608 -1.4110
  970MOL0     H28024  11.136   5.803   8.783 -3.6905  3.7739  1.0839
  970MOL0     H28025  11.109   5.955   8.579  2.4113 -0.3078 -2.0605
  970MOL0     H28026  10.820   5.125   6.609 -0.2338 -0.2756  2.4220
  970MOL0     H28027  10.756   5.107   6.391  3.6518  0.6169  3.1564
  970MOL0     H28028  10.281   5.285   6.170 -2.3589 -2.5002 -3.0451
  970MOL0     H28029  10.177   5.378   5.994  0.6342  1.4047  2.0740
  970MOL0     H28030  10.277   5.260   5.580 -0.3980  0.9024 -0.7311
  970MOL0     H28031  10.404   5.396   5.608 -0.0942 -0.7419  0.9407
  970MOL0     H28032  10.238   5.556   5.560 -0.4867 -0.0723 -2.1567
  970MOL0     H28033  10.268   5.448   5.424  0.1608 -2.9888 -0.5988
  970MOL0     H28034  10.017   5.525   5.494  0.5589  0.3680 -1.1259
  970MOL0     H28035  10.029   5.398   5.607 -0.7014  1.1166 -0.0086
  970MOL0     H28036  10.077   5.363   5.297  2.4391 -0.8994  0.7431
  970MOL0     H28037  10.048   5.231   5.417 -2.9184  0.3124  1.7886
  970MOL0     H28038   9.661   5.346   5.314 -0.9818 -0.2951  1.2768
  970MOL0     H28039  10.465   5.228   5.727 -2.0384  0.9261 -1.4173
  970MOL0     H28040  10.599   5.147   5.907  1.7373  0.3691  0.7284
  971MOL0     O28041   4.138   9.709  10.461  0.4430 -0.2470 -0.0585
  971MOL0     C28042   4.096   9.815  10.418  0.3460  0.1885  0.0358
  971MOL0     O28043   3.979   9.870  10.441 -0.3029 -0.1567 -1.1448
  971MOL0     C28044   3.897   9.805  10.532  0.3154  1.6678  0.4698
  971MOL0     C28045   3.824   9.860  10.634  0.8739 -1.3116  0.4977
  971MOL0     C28046   3.753   9.807  10.734 -0.1794  0.0164 -0.4907
  971MOL0     C28047   3.743   9.666  10.742  0.6835 -0.6953  0.8311
  971MOL0     O28048   3.691   9.597  10.846  0.5664 -0.7235 -0.1679
  971MOL0     C28049   3.575   9.522  10.816 -1.0994  0.3281  1.1954
  971MOL0     C28050   3.577   9.415  10.925 -0.9337 -0.7939  0.2173
  971MOL0     C28051   3.574   9.463  11.072  0.7692  0.1727  0.5456
  971MOL0     C28052   3.463   9.563  11.108 -0.3501  0.6920  0.0730
  971MOL0     C28053   3.327   9.501  11.132  0.0027 -0.2117  0.1209
  971MOL0     C28054   3.294   9.443  11.279  0.0238 -0.0258  0.3007
  971MOL0     C28055   3.381   9.324  11.321  0.8138 -0.4795  0.3255
  971MOL0     C28056   3.349   9.304  11.471 -0.0459  0.1819  0.9029
  971MOL0     N28057   3.384   9.167  11.519 -0.1279 -0.2205  0.0252
  971MOL0     C28058   3.292   9.066  11.529 -0.8235 -1.0970  0.2639
  971MOL0     C28059   3.358   8.958  11.558  0.1943 -0.3859  0.0457
  971MOL0     C28060   3.306   8.824  11.588 -0.1627  0.9040  0.3723
  971MOL0     C28061   3.185   8.784  11.494 -0.0628  0.8396  1.1210
  971MOL0     C28062   3.218   8.766  11.351 -0.1677  0.5138 -0.4745
  971MOL0     C28063   3.092   8.721  11.276 -0.1954  0.7631  0.7425
  971MOL0     O28064   3.014   8.841  11.234  0.6127  0.7802  0.7080
  971MOL0     C28065   3.053   8.916  11.125 -0.3718 -0.1484 -0.3168
  971MOL0     C28066   3.005   8.874  10.997 -0.3472  0.6510 -0.7341
  971MOL0     C28067   3.047   8.942  10.891  0.1388  0.0941  0.1298
  971MOL0     C28068   3.122   9.063  10.896  0.2622 -0.4389  0.4884
  971MOL0     C28069   3.162   9.128  10.773  0.1396  0.2470  0.1346
  971MOL0     O28070   3.242   9.236  10.790  1.1234  0.3157  0.0520
  971MOL0     C28071   3.240   9.340  10.689 -0.2119  1.1358  0.6678
  971MOL0     C28072   3.160   9.457  10.699 -0.4062 -0.0318 -0.0600
  971MOL0     C28073   3.186   9.568  10.624  0.7940  0.4705  0.1723
  971MOL0     C28074   3.291   9.567  10.523 -0.6890 -0.7176 -1.5099
  971MOL0     O28075   3.312   9.673  10.440  0.7204  0.3205 -0.7984
  971MOL0     C28076   3.356   9.795  10.493  1.0633 -1.0617 -0.2206
  971MOL0     C28077   3.508   9.821  10.443  0.4336  0.5209 -0.2768
  971MOL0     C28078   3.519   9.817  10.283 -0.5782 -0.8180  0.2677
  971MOL0     C28079   3.626   9.912  10.226 -0.0360  0.2217  0.5247
  971MOL0     C28080   3.641   9.901  10.071 -0.0998  0.4053  1.4181
  971MOL0     C28081   3.511   9.912   9.985  0.0754 -0.9285 -0.7331
  971MOL0     C28082   3.527   9.886   9.834 -0.9624  0.0851  0.4344
  971MOL0     C28083   3.453   9.775   9.784  0.3179 -0.3000  0.7444
  971MOL0    Cl28084   3.279   9.792   9.813  0.4166 -0.1311  0.0830
  971MOL0     C28085   3.379   9.457  10.512 -0.0636  1.0290 -0.6509
  971MOL0     C28086   3.350   9.345  10.593 -0.2896 -0.2987  0.2691
  971MOL0     O28087   3.115   9.093  10.661  0.1235 -0.0912 -0.8498
  971MOL0     C28088   3.180   9.102  11.018  0.2398  1.3601  0.0317
  971MOL0     C28089   3.141   9.023  11.136 -1.1492 -0.2779 -0.3217
  971MOL0     N28090   3.492   8.993  11.568  0.1905  0.1280 -0.3277
  971MOL0     N28091   3.505   9.125  11.551 -0.5920  0.4671  0.9692
  971MOL0     C28092   3.803   9.599  10.631  0.9716  0.2126 -0.3159
  971MOL0     C28093   3.880   9.660  10.535  0.4497  0.2358  0.1262
  971MOL0     C28094   4.197   9.894  10.347 -0.0793  0.4000  0.0542
  971MOL0     C28095   4.331   9.869  10.348 -0.1856 -0.1541  0.5993
  971MOL0     C28096   4.416   9.941  10.263 -0.6445  0.2666 -1.1707
  971MOL0     C28097   4.372  10.058  10.189 -0.0648  0.6254 -0.7903
  971MOL0     O28098   4.444  10.124  10.101  0.0209 -0.3338  0.6431
  971MOL0     C28099   4.573  10.070  10.056 -0.2849  0.0072  0.1656
  971MOL0     C28100   4.560   9.939   9.977  1.0345  0.3900  0.2182
  971MOL0     C28101   4.686   9.847   9.981 -0.1836 -0.6728  0.6416
  971MOL0     C28102   4.656   9.717   9.920  0.1374  0.0414 -0.0149
  971MOL0     C28103   4.662   9.720   9.767  0.1313 -0.9217  0.6403
  971MOL0     C28104   4.656   9.700   9.647 -0.4138 -0.0381 -0.1528
  971MOL0     C28105   4.243  10.092  10.206 -0.5310  0.2637  0.0110
  971MOL0     C28106   4.154  10.015  10.281  0.2945 -0.2968 -0.0450
  971MOL0     H28107   3.835   9.968  10.635  0.7846 -1.2895  2.1080
  971MOL0     H28108   3.700   9.871  10.804 -3.0461  1.8116 -3.9408
  971MOL0     H28109   3.587   9.468  10.722 -1.5965 -1.2684  2.0137
  971MOL0     H28110   3.492   9.593  10.812 -1.5425 -0.1688  1.4300
  971MOL0     H28111   3.671   9.361  10.908 -0.3977 -0.0583  0.7828
  971MOL0     H28112   3.490   9.351  10.909 -0.4335 -1.3164 -0.4864
  971MOL0     H28113   3.661   9.526  11.090  0.7589  0.1628  0.6329
  971MOL0     H28114   3.576   9.371  11.132 -0.4909 -1.4242 -1.6792
  971MOL0     H28115   3.491   9.601  11.206 -1.0879  0.5901  0.3306
  971MOL0     H28116   3.464   9.641  11.031  2.6159  0.5084 -0.1712
  971MOL0     H28117   3.312   9.423  11.057 -2.2301  0.8754 -0.6469
  971MOL0     H28118   3.260   9.586  11.122 -3.6168 -2.7879  0.6665
  971MOL0     H28119   3.188   9.418  11.285  0.3317 -1.8001 -0.8966
  971MOL0     H28120   3.321   9.530  11.340  2.0961  0.9919 -1.8866
  971MOL0     H28121   3.341   9.243  11.259 -2.9004  1.4383 -0.1022
  971MOL0     H28122   3.488   9.337  11.303  0.3364  3.1828 -0.6808
  971MOL0     H28123   3.243   9.326  11.482 -0.2198  0.0595 -0.4386
  971MOL0     H28124   3.408   9.375  11.529  0.0309  0.6308  0.2743
  971MOL0     H28125   3.187   9.091  11.526 -0.7735 -0.8173  0.7373
  971MOL0     H28126   3.257   8.811  11.685 -4.6954 -1.4165 -1.8961
  971MOL0     H28127   3.384   8.746  11.586 -0.0100  1.0664 -1.5615
  971MOL0     H28128   3.101   8.852  11.507 -3.6304 -2.4505 -2.1004
  971MOL0     H28129   3.142   8.689  11.528 -2.0154  1.9634  1.9813
  971MOL0     H28130   3.264   8.858  11.313  2.3546  0.8791  2.9530
  971MOL0     H28131   3.293   8.688  11.339  2.3879  2.9262 -1.2821
  971MOL0     H28132   3.032   8.652  11.335 -1.9909  1.1975 -0.4908
  971MOL0     H28133   3.115   8.664  11.185 -4.5356 -0.5017  0.2431
  971MOL0     H28134   2.928   8.797  10.993 -0.7708  1.1130 -2.4086
  971MOL0     H28135   3.005   8.915  10.794  0.1860 -2.7316  0.7900
  971MOL0     H28136   3.087   9.454  10.780 -1.6025 -0.5014 -1.1170
  971MOL0     H28137   3.126   9.658  10.632 -0.8554 -0.7305  2.2600
  971MOL0     H28138   3.349   9.798  10.602 -1.4355  2.2855 -0.3276
  971MOL0     H28139   3.286   9.874  10.464  2.8387 -0.5602 -3.6869
  971MOL0     H28140   3.579   9.747  10.481 -0.5330 -1.2574 -1.8205
  971MOL0     H28141   3.529   9.919  10.489 -3.8033 -0.0768  3.5700
  971MOL0     H28142   3.418   9.837  10.247 -1.1106 -2.8855  0.4906
  971MOL0     H28143   3.544   9.714  10.258 -0.2882 -0.5176 -0.7382
  971MOL0     H28144   3.594  10.016  10.240  0.6977  0.4700  0.3938
  971MOL0     H28145   3.723   9.911  10.276  0.9922  0.9360 -1.3455
  971MOL0     H28146   3.696   9.810  10.043 -0.5015 -0.0340  2.0215
  971MOL0     H28147   3.711   9.977  10.038 -0.1299 -1.0598 -2.6994
  971MOL0     H28148   3.478  10.014  10.003 -1.9623 -1.8633  1.3419
  971MOL0     H28149   3.439   9.847  10.036 -0.5208  0.7277  0.6013
  971MOL0     H28150   3.494   9.976   9.781  0.2121 -1.0799 -2.4894
  971MOL0     H28151   3.632   9.866   9.809 -0.6968  0.2070  1.4110
  971MOL0     H28152   3.483   9.681   9.833  0.2669 -0.0513  1.2612
  971MOL0     H28153   3.462   9.764   9.676 -0.1154  0.5617  0.6147
  971MOL0     H28154   3.455   9.456  10.435  1.9660 -2.0969  1.1469
  971MOL0     H28155   3.422   9.264  10.591  0.4784  0.3560  0.7978
  971MOL0     H28156   3.256   9.179  11.021  1.3977  0.2781 -0.4936
  971MOL0     H28157   3.207   9.046  11.219 -2.0969  3.7623 -0.5075
  971MOL0     H28158   3.807   9.491  10.630  3.1578  0.2300  0.5363
  971MOL0     H28159   3.923   9.599  10.457  0.2041  0.9163 -0.5503
  971MOL0     H28160   4.389   9.802  10.411  4.4559  3.0576  0.2346
  971MOL0     H28161   4.519   9.908  10.257  0.1173  2.5495 -1.5938
  971MOL0     H28162   4.651  10.056  10.131  1.9158 -2.6231 -2.3662
  971MOL0     H28163   4.610  10.137   9.977  3.9761  1.8463  3.3289
  971MOL0     H28164   4.477   9.882  10.018 -0.0966  0.8247 -1.3529
  971MOL0     H28165   4.540   9.958   9.871  3.3235 -0.7209 -0.4757
  971MOL0     H28166   4.716   9.829  10.084  3.6287 -2.3342 -0.5534
  971MOL0     H28167   4.770   9.893   9.927  0.4305 -2.1074  0.3289
  971MOL0     H28168   4.721   9.643   9.969 -1.0708 -0.7964  0.3629
  971MOL0     H28169   4.554   9.690   9.950 -0.3837  0.8827 -0.9812
  971MOL0     H28170   4.644   9.688   9.541 -1.5228 -0.3701  0.0010
  971MOL0     H28171   4.199  10.168  10.143  1.1118 -0.4570 -2.1023
  971MOL0     H28172   4.052  10.051  10.293  0.8776  1.8835 -1.1517
  972MOL0     O28173   0.969   6.820  11.392 -0.2967  0.1173  0.7737
  972MOL0     C28174   0.998   6.842  11.505 -0.0487  0.1918  0.2406
  972MOL0     O28175   1.087   6.769  11.571 -0.4162 -0.4711 -0.5726
  972MOL0     C28176   1.154   6.658  11.516 -0.5262  0.3838 -0.1607
  972MOL0     C28177   1.273   6.634  11.591 -0.3732 -0.9028  0.5004
  972MOL0     C28178   1.356   6.528  11.553  0.7090  0.4680  0.2731
  972MOL0     C28179   1.319   6.438  11.454  0.6489 -0.4194  0.3663
  972MOL0     O28180   1.375   6.318  11.418 -0.4992 -0.8958 -0.7542
  972MOL0     C28181   1.519   6.324  11.416  0.4220 -0.2316  1.0856
  972MOL0     C28182   1.569   6.243  11.533  0.2562  0.0249 -0.2580
  972MOL0     C28183   1.708   6.273  11.563 -0.1404  1.0165 -0.1570
  972MOL0     C28184   1.759   6.185  11.682 -0.3949  0.0222  0.3856
  972MOL0     C28185   1.910   6.184  11.714  0.5839 -0.6507  0.3592
  972MOL0     C28186   2.002   6.229  11.592 -0.6943  0.0608  0.3709
  972MOL0     C28187   2.145   6.239  11.637 -0.4063  0.1207 -0.6997
  972MOL0     C28188   2.165   6.364  11.721  0.0451 -0.9440 -0.5511
  972MOL0     N28189   2.311   6.407  11.753  0.7914 -0.3342  0.0446
  972MOL0     C28190   2.351   6.532  11.776  1.2763 -0.4477  0.7008
  972MOL0     C28191   2.456   6.519  11.854 -0.8120  0.9070 -0.3721
  972MOL0     C28192   2.546   6.626  11.907 -0.0251 -0.1613 -0.3733
  972MOL0     C28193   2.547   6.632  12.064  0.6025 -0.6739  0.9221
  972MOL0     C28194   2.669   6.714  12.115  0.5325  0.2837  0.4176
  972MOL0     C28195   2.666   6.742  12.265  0.4427  0.4224 -0.2434
  972MOL0     O28196   2.789   6.804  12.294 -0.0289  0.7129 -0.4732
  972MOL0     C28197   2.778   6.908  12.386  0.3157  0.2040 -0.2105
  972MOL0     C28198   2.714   6.892  12.510  0.0678  0.7636 -0.4305
  972MOL0     C28199   2.704   6.997  12.606  0.3318 -0.0062  0.6451
  972MOL0     C28200   2.765   7.119  12.580 -0.6373 -0.6913  0.3422
  972MOL0     C28201   2.763   7.227  12.677 -0.1181 -0.7138 -0.3650
  972MOL0     O28202   2.867   7.320  12.679  0.7538 -1.5449  0.7113
  972MOL0     C28203   2.884   7.390  12.796  0.0822  0.1084  0.7704
  972MOL0     C28204   2.967   7.328  12.889  0.2034  0.4494 -0.5827
  972MOL0     C28205   3.002   7.404  12.999 -0.4896 -0.3989  0.3284
  972MOL0     C28206   2.949   7.532  13.022 -0.0575  0.8659  1.0364
  972MOL0     O28207   2.965   7.602  13.136 -0.8092  0.1205  0.5695
  972MOL0     C28208   3.095   7.663  13.143 -0.2583 -0.3547  0.5223
  972MOL0     C28209   3.127   7.705  13.287  1.1475 -0.4194  0.5720
  972MOL0     C28210   3.150   7.590  13.384  0.3371  0.2684 -0.1599
  972MOL0     C28211   3.278   7.508  13.343 -0.3891 -0.4526 -0.0300
  972MOL0     C28212   3.397   7.580  13.423  0.1291  0.4761  0.5554
  972MOL0     C28213   3.533   7.547  13.355 -0.1018 -0.2200  0.7528
  972MOL0     C28214   3.639   7.637  13.416 -0.4089 -0.2011  0.9194
  972MOL0     C28215   3.687   7.584  13.549  0.6656  0.4776 -0.1877
  972MOL0    Cl28216   3.802   7.701  13.614  0.1981  0.5184 -0.0073
  972MOL0     C28217   2.857   7.584  12.929 -0.2852 -0.2127 -0.6517
  972MOL0     C28218   2.829   7.513  12.809  0.6324 -0.5720 -1.0239
  972MOL0     O28219   2.673   7.226  12.755  0.1227 -0.3301  0.5775
  972MOL0     C28220   2.847   7.135  12.475  0.2402  0.3517 -0.1436
  972MOL0     C28221   2.844   7.031  12.375 -0.6521 -1.0896  1.0730
  972MOL0     N28222   2.485   6.386  11.871 -0.4834 -0.2243  0.6405
  972MOL0     N28223   2.394   6.313  11.810 -0.1551  1.3530  0.1884
  972MOL0     C28224   1.196   6.466  11.380 -1.2493  0.3416  0.2882
  972MOL0     C28225   1.122   6.573  11.410 -0.1025 -0.3690 -0.1214
  972MOL0     C28226   0.942   6.957  11.584  0.1954  0.6462  1.0786
  972MOL0     C28227   0.965   6.976  11.716 -0.5804 -1.0859 -1.0177
  972MOL0     C28228   0.899   7.091  11.774  0.9483 -0.3774 -0.2752
  972MOL0     C28229   0.833   7.193  11.702 -0.3905 -0.6270 -0.1661
  972MOL0     O28230   0.773   7.305  11.761  0.4927  0.4395  0.0449
  972MOL0     C28231   0.752   7.309  11.905  0.4620 -0.7616 -0.3594
  972MOL0     C28232   0.672   7.440  11.937  0.6600  0.4051 -0.1123
  972MOL0     C28233   0.758   7.564  11.940  0.2622 -0.5298  0.5967
  972MOL0     C28234   0.673   7.689  11.942 -1.2665  0.8490 -0.0814
  972MOL0     C28235   0.753   7.810  11.973 -0.3297 -0.1633 -0.4755
  972MOL0     C28236   0.840   7.890  12.004  0.8237 -0.3941  0.8557
  972MOL0     C28237   0.813   7.172  11.565 -0.1489 -0.0150 -0.0425
  972MOL0     C28238   0.869   7.050  11.511 -1.1138  1.3252  1.1204
  972MOL0     H28239   1.299   6.691  11.679  1.9444  0.8813 -1.1954
  972MOL0     H28240   1.450   6.515  11.605  1.5674 -1.6245 -1.6752
  972MOL0     H28241   1.561   6.425  11.425  2.4985 -0.9867  0.4990
  972MOL0     H28242   1.558   6.290  11.320  2.1593  2.5762  0.6574
  972MOL0     H28243   1.555   6.139  11.501  0.7410  0.2118 -1.1007
  972MOL0     H28244   1.506   6.262  11.620 -0.0497 -0.2112 -0.4242
  972MOL0     H28245   1.727   6.375  11.595 -1.1290  1.1949 -0.1370
  972MOL0     H28246   1.768   6.250  11.474  0.7438  1.8401  0.2119
  972MOL0     H28247   1.712   6.212  11.777 -0.0977 -0.6446  0.7302
  972MOL0     H28248   1.733   6.080  11.666  0.5737  0.0393 -1.5515
  972MOL0     H28249   1.942   6.088  11.757  1.3831 -1.2223 -1.4082
  972MOL0     H28250   1.931   6.252  11.797  0.0578 -0.6000  0.4594
  972MOL0     H28251   1.966   6.327  11.559 -0.1108  1.2830  3.0498
  972MOL0     H28252   2.002   6.163  11.505  0.0392 -1.9886  1.8682
  972MOL0     H28253   2.198   6.152  11.677 -0.0045 -0.5565 -2.6068
  972MOL0     H28254   2.204   6.261  11.548  1.9758  1.4615  1.1228
  972MOL0     H28255   2.120   6.359  11.820  4.2931  2.5127  1.9302
  972MOL0     H28256   2.114   6.447  11.671 -2.3336 -2.6031 -1.0239
  972MOL0     H28257   2.296   6.619  11.742 -0.6410 -2.1527 -0.8486
  972MOL0     H28258   2.534   6.728  11.870 -1.8792  0.5178  1.8554
  972MOL0     H28259   2.639   6.590  11.862  0.3341  1.8777 -1.3801
  972MOL0     H28260   2.561   6.530  12.103  1.2435 -0.0492  2.3878
  972MOL0     H28261   2.453   6.673  12.101  1.0508  1.6917 -0.3566
  972MOL0     H28262   2.755   6.653  12.086  0.0095  0.5037 -1.7739
  972MOL0     H28263   2.684   6.808  12.062 -2.5459  1.2510  1.0704
  972MOL0     H28264   2.667   6.651  12.326  0.3023  0.8460  0.4014
  972MOL0     H28265   2.578   6.802  12.288  1.6229  1.8731  0.7481
  972MOL0     H28266   2.658   6.801  12.528 -0.5975  1.6766  2.7527
  972MOL0     H28267   2.654   6.979  12.701  0.9338  0.9773  1.1558
  972MOL0     H28268   3.015   7.232  12.877 -0.5715  0.0620 -0.6353
  972MOL0     H28269   3.071   7.368  13.075 -0.6100 -1.5751 -0.1000
  972MOL0     H28270   3.099   7.753  13.081 -0.3109  1.9004  3.5631
  972MOL0     H28271   3.170   7.594  13.104 -3.4676 -2.8237 -1.8113
  972MOL0     H28272   3.048   7.778  13.308  1.6901 -0.0183  1.2214
  972MOL0     H28273   3.216   7.768  13.287 -1.5641  3.7919 -0.1171
  972MOL0     H28274   3.065   7.521  13.393 -0.8820  1.8708  1.4510
  972MOL0     H28275   3.154   7.626  13.487 -1.8980  0.9699 -0.2518
  972MOL0     H28276   3.272   7.405  13.377  4.4668 -2.0480 -2.9639
  972MOL0     H28277   3.292   7.495  13.235 -1.5048 -3.9241  0.1277
  972MOL0     H28278   3.388   7.555  13.529 -1.8987  1.7826  0.7466
  972MOL0     H28279   3.377   7.684  13.398  0.2984  0.2915 -0.4212
  972MOL0     H28280   3.517   7.565  13.249 -2.1058 -6.6110 -0.4479
  972MOL0     H28281   3.557   7.441  13.355  1.8933  0.1817  1.2468
  972MOL0     H28282   3.719   7.632  13.342  1.5753 -0.3021  2.9515
  972MOL0     H28283   3.606   7.740  13.430 -1.4847 -0.3382 -0.5163
  972MOL0     H28284   3.737   7.488  13.538 -1.4956 -1.1881  2.9882
  972MOL0     H28285   3.603   7.570  13.617 -1.2741 -0.9722 -2.7122
  972MOL0     H28286   2.824   7.686  12.949 -0.1506  0.0900 -1.8690
  972MOL0     H28287   2.771   7.560  12.730 -3.3346 -3.2853 -0.0390
  972MOL0     H28288   2.899   7.228  12.455 -0.4211  0.6487 -0.5185
  972MOL0     H28289   2.898   7.052  12.284 -1.7818  5.3307  1.3977
  972MOL0     H28290   1.163   6.414  11.290 -3.0092  1.7134  0.0989
  972MOL0     H28291   1.033   6.583  11.349 -1.0057 -2.6275  0.7284
  972MOL0     H28292   1.024   6.905  11.773  1.6850  0.9459 -0.6986
  972MOL0     H28293   0.886   7.094  11.881 -5.5310  0.3887 -0.6971
  972MOL0     H28294   0.843   7.306  11.965 -1.4997  1.4898  3.0671
  972MOL0     H28295   0.691   7.223  11.933  1.6932 -1.6277 -0.2705
  972MOL0     H28296   0.599   7.459  11.858  0.1562  2.4892  0.7655
  972MOL0     H28297   0.631   7.440  12.038 -0.1709  3.0196 -0.3742
  972MOL0     H28298   0.816   7.565  11.847 -0.0910 -0.1520  0.3751
  972MOL0     H28299   0.831   7.563  12.021  2.5509  0.0319 -1.3538
  972MOL0     H28300   0.617   7.692  11.848  0.8967  1.2188 -1.4395
  972MOL0     H28301   0.599   7.666  12.019 -1.9748  4.6576  0.5927
  972MOL0     H28302   0.913   7.953  12.051 -0.6403  0.7821  1.6365
  972MOL0     H28303   0.769   7.253  11.508  2.1042  0.3875 -1.3098
  972MOL0     H28304   0.859   7.038  11.404  0.4014 -0.4793  1.1298
  973MOL0     O28305   1.661   1.005   4.371 -0.5634 -0.3709 -0.3484
  973MOL0     C28306   1.770   0.999   4.426  0.8649  0.2110 -0.6518
  973MOL0     O28307   1.807   0.901   4.517  0.6489  0.2536 -0.0407
  973MOL0     C28308   1.703   0.832   4.569  0.6479  0.0520  0.9249
  973MOL0     C28309   1.670   0.698   4.543 -0.7129  0.1649 -0.0822
  973MOL0     C28310   1.550   0.634   4.585  0.3121  0.3966  0.0819
  973MOL0     C28311   1.475   0.709   4.675  0.2290  0.8886  0.8662
  973MOL0     O28312   1.362   0.646   4.725 -0.0656  0.1223  0.0335
  973MOL0     C28313   1.236   0.687   4.666 -0.0979 -1.2742  0.2775
  973MOL0     C28314   1.115   0.649   4.745  0.2794 -0.1893 -0.1747
  973MOL0     C28315   1.079   0.748   4.861  0.2675 -0.4422 -0.1038
  973MOL0     C28316   0.942   0.709   4.911  0.0941  0.2142  0.3970
  973MOL0     C28317   0.890   0.802   5.021 -0.3527 -0.5159  0.0696
  973MOL0     C28318   0.898   0.750   5.166 -0.4741 -1.4001  0.0316
  973MOL0     C28319   1.039   0.764   5.219  0.5054 -0.8301 -0.1824
  973MOL0     C28320   1.054   0.729   5.365 -0.3913  0.2114  0.1220
  973MOL0     N28321   1.185   0.738   5.423 -0.3996 -0.1502  0.4012
  973MOL0     C28322   1.254   0.857   5.442  0.1557 -0.0343  0.3893
  973MOL0     C28323   1.387   0.820   5.447 -0.4901  0.0223 -0.6187
  973MOL0     C28324   1.500   0.911   5.446  0.1332  0.3783  0.6931
  973MOL0     C28325   1.613   0.889   5.337  0.8750 -0.2985  0.2612
  973MOL0     C28326   1.554   0.904   5.190 -0.3995 -0.6322  0.5663
  973MOL0     C28327   1.658   0.877   5.084  0.1390 -0.5517 -0.1757
  973MOL0     O28328   1.717   0.749   5.105 -0.1312  0.6734  0.1446
  973MOL0     C28329   1.773   0.697   4.986 -0.1749  1.3882  0.2163
  973MOL0     C28330   1.715   0.580   4.924 -0.1956 -0.2338  0.3500
  973MOL0     C28331   1.768   0.529   4.812  0.4597 -0.6054  0.2047
  973MOL0     C28332   1.877   0.580   4.751 -0.1571  0.1320  0.1037
  973MOL0     C28333   1.925   0.522   4.617 -0.7364  0.2744 -0.7597
  973MOL0     O28334   2.007   0.606   4.549  0.6828 -0.6688  0.2176
  973MOL0     C28335   2.045   0.595   4.423  0.5341  1.0722  0.0895
  973MOL0     C28336   1.990   0.682   4.324 -0.8754 -0.0460 -0.0806
  973MOL0     C28337   2.046   0.682   4.192  0.2404  0.0514  0.2933
  973MOL0     C28338   2.145   0.589   4.163 -0.1251 -0.2007 -0.2356
  973MOL0     O28339   2.201   0.587   4.038 -0.1410  0.3156 -0.1189
  973MOL0     C28340   2.221   0.456   3.986  0.0035  0.0919  0.1526
  973MOL0     C28341   2.138   0.451   3.851 -0.2807 -0.0949  0.0660
  973MOL0     C28342   2.200   0.342   3.759 -0.0597 -1.2295 -0.2320
  973MOL0     C28343   2.206   0.204   3.819  1.2990 -0.4568  0.5818
  973MOL0     C28344   2.214   0.101   3.701 -0.2606  0.7010 -0.6338
  973MOL0     C28345   2.217  -0.043   3.766  0.1353  0.3082  0.8407
  973MOL0     C28346   2.252  -0.146   3.663  0.2662  0.2603 -0.7270
  973MOL0     C28347   2.134  -0.194   3.572 -0.6688 -0.8736 -0.6762
  973MOL0    Cl28348   2.059  -0.333   3.655 -0.0889 -0.1842 -1.0211
  973MOL0     C28349   2.202   0.505   4.262 -0.4003 -0.1470  0.2750
  973MOL0     C28350   2.152   0.506   4.393  0.8913  0.8384  1.0464
  973MOL0     O28351   1.895   0.413   4.578  0.0717  0.0070  0.2280
  973MOL0     C28352   1.935   0.695   4.822  0.1199  0.4150  0.2744
  973MOL0     C28353   1.883   0.751   4.934 -0.5566  0.0242  0.0705
  973MOL0     N28354   1.392   0.684   5.443  0.2189  1.0199 -0.3650
  973MOL0     N28355   1.273   0.631   5.432  0.0222 -0.0333 -0.2993
  973MOL0     C28356   1.496   0.843   4.692  0.0965 -0.4762 -0.6440
  973MOL0     C28357   1.612   0.906   4.644  0.3569  0.5603 -0.4473
  973MOL0     C28358   1.880   1.084   4.398  0.1141 -0.5273  0.0259
  973MOL0     C28359   2.012   1.044   4.424 -0.9519  0.4613  0.3134
  973MOL0     C28360   2.109   1.139   4.395 -0.7828 -0.7545  0.4462
  973MOL0     C28361   2.082   1.278   4.345  0.5228  0.6789  0.7327
  973MOL0     O28362   2.195   1.359   4.323 -0.3094  0.2137 -0.1095
  973MOL0     C28363   2.216   1.453   4.426 -0.3251 -0.2858 -0.1879
  973MOL0     C28364   2.289   1.579   4.374  0.9779  0.4959 -0.1945
  973MOL0     C28365   2.194   1.683   4.295 -0.0582 -1.1352 -0.9400
  973MOL0     C28366   2.258   1.824   4.285 -0.5981 -0.5429 -0.6699
  973MOL0     C28367   2.155   1.907   4.215  0.8720 -0.6613 -0.4293
  973MOL0     C28368   2.080   1.970   4.144  0.0425  0.2304 -1.3288
  973MOL0     C28369   1.953   1.314   4.337 -0.3343 -0.3921 -0.0034
  973MOL0     C28370   1.845   1.218   4.360 -0.4272 -0.0411 -0.6429
  973MOL0     H28371   1.738   0.649   4.474 -0.9685 -1.6877  0.9192
  973MOL0     H28372   1.526   0.531   4.563  1.6722  0.1386 -0.2675
  973MOL0     H28373   1.228   0.638   4.568 -0.8279 -2.3506  0.8507
  973MOL0     H28374   1.233   0.796   4.656 -1.0504 -1.3285 -0.1637
  973MOL0     H28375   1.123   0.543   4.771 -2.7885 -0.9763 -1.9626
  973MOL0     H28376   1.036   0.646   4.670  1.8512  0.2069 -1.9270
  973MOL0     H28377   1.076   0.851   4.824  4.8174 -0.1083 -0.0183
  973MOL0     H28378   1.158   0.748   4.936  1.7232  0.3864 -1.5884
  973MOL0     H28379   0.870   0.711   4.828 -0.0302 -0.2659  0.4892
  973MOL0     H28380   0.932   0.603   4.938 -3.1085 -0.3173 -2.1973
  973MOL0     H28381   0.786   0.830   5.002  0.1941  1.6891  0.0489
  973MOL0     H28382   0.947   0.895   5.016  0.6355 -1.1771 -1.9266
  973MOL0     H28383   0.876   0.643   5.170  1.6501 -1.9113 -0.9552
  973MOL0     H28384   0.831   0.801   5.237  0.1454 -1.1351  0.4294
  973MOL0     H28385   1.093   0.685   5.164 -2.0264 -3.1628  0.4540
  973MOL0     H28386   1.071   0.865   5.194 -3.2206  0.3271 -0.7997
  973MOL0     H28387   1.028   0.623   5.378  0.1472 -0.0362 -0.7110
  973MOL0     H28388   0.981   0.784   5.425 -0.3209 -0.4583  0.8315
  973MOL0     H28389   1.196   0.949   5.451 -2.3107 -1.7248  3.4507
  973MOL0     H28390   1.546   0.905   5.545 -2.3542  0.9493  1.9717
  973MOL0     H28391   1.459   1.012   5.445  0.1882  0.4340 -1.6775
  973MOL0     H28392   1.654   0.789   5.356 -0.3569 -1.1609 -1.3317
  973MOL0     H28393   1.691   0.965   5.334  1.5536 -0.9532 -3.4987
  973MOL0     H28394   1.470   0.836   5.168 -0.6550 -0.9710  2.3659
  973MOL0     H28395   1.505   1.001   5.186 -2.5354 -1.6726 -0.6042
  973MOL0     H28396   1.727   0.961   5.096 -0.6318 -0.0097  0.5838
  973MOL0     H28397   1.620   0.887   4.982  0.6198  1.5451 -0.1965
  973MOL0     H28398   1.628   0.541   4.975  0.3890 -1.4781  0.4193
  973MOL0     H28399   1.716   0.444   4.768  1.9577 -1.3587 -0.1667
  973MOL0     H28400   1.901   0.740   4.347 -0.7264  0.3029 -0.3780
  973MOL0     H28401   2.012   0.754   4.118  1.3922  0.8759  0.5483
  973MOL0     H28402   2.181   0.372   4.044  0.3235 -0.0821  0.1235
  973MOL0     H28403   2.325   0.433   3.962  0.3455  0.3106  1.3962
  973MOL0     H28404   2.162   0.543   3.797 -2.0833 -1.3342 -3.1335
  973MOL0     H28405   2.031   0.451   3.875 -0.1549  1.5853  0.8093
  973MOL0     H28406   2.301   0.374   3.731  0.1434 -1.5320  0.1504
  973MOL0     H28407   2.135   0.328   3.672 -0.8862  4.1248 -0.8574
  973MOL0     H28408   2.298   0.207   3.878  0.2498  0.2482  2.2904
  973MOL0     H28409   2.122   0.176   3.884  0.8119 -2.0968 -0.6947
  973MOL0     H28410   2.300   0.115   3.636  0.6070  1.2477  0.5964
  973MOL0     H28411   2.125   0.099   3.637  0.7498 -0.7271 -2.0668
  973MOL0     H28412   2.114  -0.053   3.802 -0.2184  1.7160  0.3042
  973MOL0     H28413   2.270  -0.051   3.862 -1.6790 -3.7918  1.7318
  973MOL0     H28414   2.342  -0.123   3.605  2.0182 -2.3138  0.7435
  973MOL0     H28415   2.284  -0.236   3.716 -0.4825 -0.7635 -1.9808
  973MOL0     H28416   2.174  -0.225   3.475  1.4876  0.7191 -0.3682
  973MOL0     H28417   2.067  -0.108   3.573 -0.1533 -0.4692  0.3641
  973MOL0     H28418   2.286   0.442   4.236 -0.7958 -0.7318  0.3948
  973MOL0     H28419   2.205   0.454   4.472 -0.8012 -0.7093  1.2456
  973MOL0     H28420   2.027   0.736   4.783  0.4578 -0.4814  0.1194
  973MOL0     H28421   1.924   0.835   4.990 -1.1233  1.2204 -1.2583
  973MOL0     H28422   1.420   0.891   4.752 -2.5162 -1.0489 -3.2853
  973MOL0     H28423   1.628   1.013   4.653 -0.5964  0.5803  1.7154
  973MOL0     H28424   2.053   0.951   4.461  1.0383  2.2801  3.0594
  973MOL0     H28425   2.208   1.102   4.420  0.0665 -0.6007 -2.3461
  973MOL0     H28426   2.272   1.403   4.506 -4.9085 -0.7291  3.1847
  973MOL0     H28427   2.119   1.474   4.472  0.0122 -0.3072  0.5480
  973MOL0     H28428   2.329   1.633   4.460 -1.1933 -0.0620  1.2488
  973MOL0     H28429   2.372   1.548   4.310  2.8866 -0.5850  2.6317
  973MOL0     H28430   2.103   1.700   4.353  1.6137 -1.9681  2.1685
  973MOL0     H28431   2.176   1.637   4.198  2.5421 -0.2537 -1.9343
  973MOL0     H28432   2.280   1.867   4.383 -1.0236  1.4016 -1.3825
  973MOL0     H28433   2.352   1.817   4.229  0.2752  0.7812  0.5626
  973MOL0     H28434   2.026   2.042   4.086 -0.3318 -0.6438 -2.0779
  973MOL0     H28435   1.924   1.414   4.305 -1.5762 -0.3503  1.1978
  973MOL0     H28436   1.741   1.243   4.344 -0.4529 -1.1453 -2.4327
  974MOL0     O28437  11.097   4.621   7.041 -0.5304 -0.3621  0.5706
  974MOL0     C28438  10.992   4.675   7.087  0.3224  1.6312  0.4946
  974MOL0     O28439  10.979   4.753   7.200  0.1937  0.1898  0.4626
  974MOL0     C28440  11.097   4.784   7.265  0.2481  0.7982 -0.2354
  974MOL0     C28441  11.158   4.696   7.351 -1.1855  0.5435  0.3489
  974MOL0     C28442  11.281   4.728   7.416 -1.5261 -0.0960 -0.5610
  974MOL0     C28443  11.340   4.851   7.381 -0.4924 -0.8183  0.3423
  974MOL0     O28444  11.466   4.901   7.423 -0.3182  0.0961 -0.8794
  974MOL0     C28445  11.553   4.824   7.517 -0.4760  0.0055 -0.8121
  974MOL0     C28446  11.515   4.852   7.664  0.9386  0.5356  0.5227
  974MOL0     C28447  11.566   4.986   7.730  0.4604  0.3537 -0.3119
  974MOL0     C28448  11.709   4.957   7.788 -0.5641 -0.5209  0.2288
  974MOL0     C28449  11.798   5.084   7.782 -0.0509 -0.8438  0.5829
  974MOL0     C28450  11.843   5.126   7.637 -0.5070 -0.4702  0.6775
  974MOL0     C28451  11.951   5.242   7.617  0.5834 -0.0930 -0.1895
  974MOL0     C28452  12.090   5.200   7.667  0.0293  0.6509  0.5934
  974MOL0     N28453  12.169   5.325   7.645 -0.0159  0.8165  0.1976
  974MOL0     C28454  12.235   5.359   7.517  1.1295 -0.4004 -0.5946
  974MOL0     C28455  12.287   5.483   7.540 -0.1903  1.7384  0.5675
  974MOL0     C28456  12.355   5.559   7.431 -0.6330 -0.2347 -0.2789
  974MOL0     C28457  12.262   5.636   7.345  0.8995 -0.2613  0.5755
  974MOL0     C28458  12.176   5.542   7.259  0.1747 -0.0197 -0.6277
  974MOL0     C28459  12.116   5.615   7.137 -0.6030  0.1923  0.4063
  974MOL0     O28460  12.105   5.506   7.041 -0.1287  0.0509 -0.9442
  974MOL0     C28461  11.971   5.472   7.025 -0.8159  0.0021 -0.6865
  974MOL0     C28462  11.878   5.472   7.129 -0.2132 -0.1799 -1.2400
  974MOL0     C28463  11.744   5.449   7.116  0.3133 -0.1516  0.3503
  974MOL0     C28464  11.701   5.398   6.993 -0.4139 -0.6964 -0.1062
  974MOL0     C28465  11.567   5.350   6.977  0.1009  0.3467  0.2556
  974MOL0     O28466  11.534   5.292   6.856 -0.1065  0.1116 -0.1201
  974MOL0     C28467  11.413   5.246   6.825  0.6562 -0.2785  1.0358
  974MOL0     C28468  11.360   5.280   6.699 -0.3101  0.0241  0.3695
  974MOL0     C28469  11.246   5.217   6.654  0.8670 -0.0014  0.0470
  974MOL0     C28470  11.176   5.120   6.720  0.0961 -0.7076 -1.4258
  974MOL0     O28471  11.052   5.069   6.676  0.2440 -0.3457 -0.4068
  974MOL0     C28472  11.047   4.925   6.650  0.2116 -0.1759  0.1197
  974MOL0     C28473  10.974   4.892   6.520  0.3972 -0.4146  0.3165
  974MOL0     C28474  11.053   4.934   6.383  0.1822 -0.2047  0.0416
  974MOL0     C28475  10.973   4.887   6.273  0.7097  0.6561 -0.0939
  974MOL0     C28476  11.050   4.892   6.138  0.0922  0.6016  0.1003
  974MOL0     C28477  10.991   4.809   6.024  0.1009  0.7422  0.6860
  974MOL0     C28478  10.881   4.863   5.947 -0.9825 -0.5029 -0.6852
  974MOL0     C28479  10.842   4.756   5.844 -0.7361 -0.3906 -0.5736
  974MOL0    Cl28480  10.720   4.821   5.729 -0.2973 -0.1513  0.2067
  974MOL0     C28481  11.219   5.097   6.852  0.0281  1.5505 -0.9610
  974MOL0     C28482  11.341   5.149   6.897  0.3021 -0.6736  0.9912
  974MOL0     O28483  11.481   5.379   7.060 -0.2225  0.1125  0.1078
  974MOL0     C28484  11.789   5.402   6.877  1.1918  0.2556  0.1585
  974MOL0     C28485  11.924   5.439   6.898 -0.6119 -0.3035  0.6107
  974MOL0     N28486  12.253   5.522   7.666 -0.7865 -0.1380 -0.2041
  974MOL0     N28487  12.189   5.434   7.727  0.5672 -0.0774  0.2113
  974MOL0     C28488  11.277   4.942   7.291  0.3252  0.0002  0.2887
  974MOL0     C28489  11.153   4.911   7.243 -0.1142  0.1220 -0.1182
  974MOL0     C28490  10.871   4.669   7.003  0.9764 -0.7051  0.1759
  974MOL0     C28491  10.745   4.704   7.061 -0.8642  0.9342 -0.4153
  974MOL0     C28492  10.636   4.708   6.976  1.2935 -0.1559 -0.2110
  974MOL0     C28493  10.634   4.681   6.835 -0.5280 -0.1086 -0.2202
  974MOL0     O28494  10.536   4.700   6.755 -0.3700  0.1607 -0.2729
  974MOL0     C28495  10.558   4.825   6.676 -0.8559 -0.0377 -0.6641
  974MOL0     C28496  10.523   4.806   6.527  0.4925 -0.5998 -0.2511
  974MOL0     C28497  10.610   4.708   6.469 -0.0952 -0.2918  0.4375
  974MOL0     C28498  10.591   4.701   6.316  0.5679  0.3512  0.6393
  974MOL0     C28499  10.691   4.611   6.262  0.2330 -0.1331 -0.5709
  974MOL0     C28500  10.783   4.540   6.214  0.7253 -0.4236  0.1612
  974MOL0     C28501  10.757   4.648   6.786 -0.6390 -0.7527  0.4655
  974MOL0     C28502  10.864   4.633   6.867 -0.0160 -0.5842  0.0639
  974MOL0     H28503  11.123   4.595   7.368  1.8564 -0.5751  0.5910
  974MOL0     H28504  11.340   4.676   7.490 -1.7070  0.5801  0.0717
  974MOL0     H28505  11.651   4.869   7.497 -0.9479  2.4328  1.6917
  974MOL0     H28506  11.570   4.723   7.479  2.8356  0.3859 -0.6331
  974MOL0     H28507  11.537   4.770   7.733 -1.0837  1.8402  2.8938
  974MOL0     H28508  11.406   4.850   7.668  0.9833  0.3920  2.0195
  974MOL0     H28509  11.497   5.022   7.807 -0.2116  0.9632 -1.1956
  974MOL0     H28510  11.582   5.067   7.659  1.1435  1.6386  1.2301
  974MOL0     H28511  11.689   4.942   7.894 -4.7881  3.0227  0.1978
  974MOL0     H28512  11.764   4.875   7.740 -1.2783  0.3747 -2.3073
  974MOL0     H28513  11.893   5.074   7.836 -0.1288 -1.5679  0.5968
  974MOL0     H28514  11.738   5.160   7.833  0.4923 -0.3186  0.4517
  974MOL0     H28515  11.754   5.178   7.601 -1.0476  0.4475  3.1499
  974MOL0     H28516  11.860   5.036   7.577  1.8407  0.1920  0.2235
  974MOL0     H28517  11.964   5.283   7.517  1.8149 -1.3415 -0.5638
  974MOL0     H28518  11.924   5.330   7.677  3.3248 -0.2018  1.3594
  974MOL0     H28519  12.140   5.117   7.617 -2.3694  0.3216 -1.4439
  974MOL0     H28520  12.085   5.173   7.773  0.6364  1.0908  0.7470
  974MOL0     H28521  12.233   5.302   7.425  1.1088 -1.5415  0.0991
  974MOL0     H28522  12.420   5.483   7.386  1.3854  1.0273  0.3774
  974MOL0     H28523  12.423   5.628   7.481  0.9030 -2.9922  1.7480
  974MOL0     H28524  12.319   5.709   7.287  1.3044 -0.0763  1.1949
  974MOL0     H28525  12.193   5.692   7.409  1.3835  1.3503 -0.2437
  974MOL0     H28526  12.231   5.453   7.228 -0.6777 -0.5217 -0.7262
  974MOL0     H28527  12.091   5.504   7.317 -2.1441  3.1733 -1.6190
  974MOL0     H28528  12.183   5.697   7.108 -4.4595  3.6922  0.4381
  974MOL0     H28529  12.021   5.669   7.147 -0.0295  1.8986 -2.2974
  974MOL0     H28530  11.901   5.479   7.235 -0.6103 -0.1052 -1.1549
  974MOL0     H28531  11.677   5.448   7.202 -0.4442  0.2819 -0.2235
  974MOL0     H28532  11.418   5.344   6.634  1.1054 -1.2866  0.2735
  974MOL0     H28533  11.223   5.238   6.550 -0.6351  1.3014  0.6010
  974MOL0     H28534  11.002   4.885   6.741  0.4518  1.3569  0.9325
  974MOL0     H28535  11.151   4.888   6.646 -0.8619 -3.4519 -2.2373
  974MOL0     H28536  10.876   4.939   6.528  0.6053 -0.1098  1.2121
  974MOL0     H28537  10.965   4.784   6.512  1.6401 -0.4561 -0.9323
  974MOL0     H28538  11.152   4.888   6.373 -0.3083 -1.4802  0.7415
  974MOL0     H28539  11.068   5.041   6.375  3.8934 -0.7320 -5.3499
  974MOL0     H28540  10.946   4.782   6.287  1.7134  0.2585 -0.9873
  974MOL0     H28541  10.875   4.936   6.275 -1.7283 -3.6558 -0.1561
  974MOL0     H28542  11.148   4.847   6.152 -0.2230  0.6011  2.7173
  974MOL0     H28543  11.062   4.998   6.112 -0.6960  1.4264  2.7673
  974MOL0     H28544  10.957   4.718   6.074  2.6305  0.2247  1.6160
  974MOL0     H28545  11.081   4.800   5.962 -0.8540  0.6741 -0.7393
  974MOL0     H28546  10.801   4.905   6.008 -0.2568 -0.2197  0.0892
  974MOL0     H28547  10.924   4.950   5.897 -0.4198 -0.6454 -0.4630
  974MOL0     H28548  10.795   4.673   5.898 -0.5004  1.2714  2.4444
  974MOL0     H28549  10.916   4.710   5.778 -1.9474 -1.2698 -1.3566
  974MOL0     H28550  11.168   5.030   6.920  0.3342  1.0167 -1.2534
  974MOL0     H28551  11.376   5.116   6.995  0.6957  0.4712  1.2481
  974MOL0     H28552  11.755   5.362   6.782  3.5660  0.2719 -0.7643
  974MOL0     H28553  11.986   5.435   6.809 -0.5687  2.8960  0.4122
  974MOL0     H28554  11.332   5.031   7.260  0.6950 -0.6886 -1.0684
  974MOL0     H28555  11.111   4.990   7.180  0.4024 -1.9183 -3.2617
  974MOL0     H28556  10.742   4.749   7.160  0.5743  0.5371 -0.1700
  974MOL0     H28557  10.542   4.741   7.020  0.1758 -0.0244 -2.5374
  974MOL0     H28558  10.660   4.861   6.692 -0.9255 -0.1793  0.1769
  974MOL0     H28559  10.486   4.898   6.715  0.7056  1.1416  0.1342
  974MOL0     H28560  10.420   4.768   6.520  1.0424 -2.2763  0.3804
  974MOL0     H28561  10.518   4.905   6.480  0.4956 -0.3899  0.1803
  974MOL0     H28562  10.580   4.611   6.509 -3.8945  0.4679 -0.2207
  974MOL0     H28563  10.717   4.731   6.469  0.5101 -2.3943 -3.0260
  974MOL0     H28564  10.491   4.660   6.304  0.5073  0.0431  2.0046
  974MOL0     H28565  10.597   4.799   6.268  0.0967 -0.6183 -1.5255
  974MOL0     H28566  10.851   4.468   6.173  0.2506  0.2306 -1.8581
  974MOL0     H28567  10.779   4.627   6.682 -4.5544  1.1007 -0.9243
  974MOL0     H28568  10.961   4.600   6.833  0.4042  0.6934 -0.0259
  975MOL0     O28569   1.351   6.303   5.770 -0.0166 -0.4968  0.1029
  975MOL0     C28570   1.336   6.354   5.883 -0.3982 -0.5003  0.4634
  975MOL0     O28571   1.220   6.413   5.925  0.1951  0.5311 -0.3985
  975MOL0     C28572   1.123   6.467   5.844  1.2417 -0.0373 -0.0808
  975MOL0     C28573   1.053   6.582   5.888 -0.3412 -0.0245 -0.1201
  975MOL0     C28574   0.943   6.634   5.816  0.0056 -0.1902 -0.3677
  975MOL0     C28575   0.898   6.578   5.697 -0.2718 -0.4622 -1.0594
  975MOL0     O28576   0.776   6.618   5.638  0.0628  0.0784  0.5032
  975MOL0     C28577   0.746   6.762   5.632 -0.1454  0.3307  0.1459
  975MOL0     C28578   0.687   6.796   5.496  0.7826  0.1051 -0.0892
  975MOL0     C28579   0.733   6.931   5.448  0.2079 -0.1752  0.1138
  975MOL0     C28580   0.671   6.958   5.311  1.1874 -0.5243  0.4897
  975MOL0     C28581   0.686   7.100   5.247 -0.3463  0.7851  0.7455
  975MOL0     C28582   0.617   7.210   5.323  0.5057  0.7470 -0.5100
  975MOL0     C28583   0.671   7.344   5.273  0.2989  0.1284 -0.2718
  975MOL0     C28584   0.809   7.379   5.324  0.1871  0.0743 -0.5806
  975MOL0     N28585   0.809   7.386   5.469 -0.3713 -0.5653  0.5601
  975MOL0     C28586   0.782   7.504   5.534  0.5074  0.1821 -1.4637
  975MOL0     C28587   0.802   7.470   5.666  0.4871 -0.5893 -1.2238
  975MOL0     C28588   0.795   7.564   5.795  0.6998  0.1079 -0.1212
  975MOL0     C28589   0.674   7.567   5.868  0.3780  0.1192 -0.6890
  975MOL0     C28590   0.669   7.675   5.972  0.2142 -0.0907  0.3568
  975MOL0     C28591   0.609   7.810   5.920  0.0290 -0.1956 -0.7290
  975MOL0     O28592   0.622   7.921   6.005  0.0444 -1.0371  0.1984
  975MOL0     C28593   0.576   8.047   5.957 -0.8536 -0.1482 -0.2064
  975MOL0     C28594   0.653   8.105   5.859 -0.1223  0.0308 -0.6274
  975MOL0     C28595   0.612   8.232   5.803 -0.5675  0.6289 -0.1663
  975MOL0     C28596   0.482   8.277   5.842 -0.6364  1.1094 -0.2741
  975MOL0     C28597   0.413   8.386   5.768  0.5655  0.2006 -0.8819
  975MOL0     O28598   0.282   8.387   5.781 -0.1710 -0.8885  1.0020
  975MOL0     C28599   0.196   8.491   5.743  0.3384  0.5719 -0.6909
  975MOL0     C28600   0.226   8.627   5.735 -0.6232 -0.9049  0.5265
  975MOL0     C28601   0.123   8.719   5.709  0.6325  0.2547 -0.4012
  975MOL0     C28602  -0.015   8.679   5.692  0.2510 -0.2909  0.7916
  975MOL0     O28603  -0.125   8.764   5.678 -0.0047  0.0016  0.6751
  975MOL0     C28604  -0.113   8.904   5.720  0.5638 -0.5810 -0.3733
  975MOL0     C28605  -0.086   8.991   5.605  0.7706 -0.0177  0.2776
  975MOL0     C28606  -0.162   9.131   5.615 -0.2099  0.1594  0.2318
  975MOL0     C28607  -0.139   9.238   5.500 -0.4068 -0.9491  0.0058
  975MOL0     C28608  -0.233   9.357   5.533 -0.7180  0.7903 -0.7707
  975MOL0     C28609  -0.383   9.315   5.512  0.1452  0.5063  0.0903
  975MOL0     C28610  -0.467   9.444   5.503  1.4497  0.6137 -0.5847
  975MOL0     C28611  -0.607   9.428   5.575 -0.4773 -0.3756 -0.5918
  975MOL0    Cl28612  -0.592   9.403   5.756 -0.0649  0.0161  0.1605
  975MOL0     C28613  -0.031   8.539   5.675 -0.3706  0.0507 -0.2917
  975MOL0     C28614   0.076   8.444   5.704  1.2607  0.9471  0.9751
  975MOL0     O28615   0.474   8.467   5.711  0.1789  0.7309  0.2845
  975MOL0     C28616   0.408   8.212   5.941  0.0362  1.4220 -0.3712
  975MOL0     C28617   0.447   8.094   6.001  0.4306 -1.1577  0.3436
  975MOL0     N28618   0.843   7.343   5.672  0.1082 -0.4791 -0.2542
  975MOL0     N28619   0.852   7.293   5.556  0.5381  0.7743  0.6517
  975MOL0     C28620   0.959   6.459   5.657  0.1252 -0.6613  0.4557
  975MOL0     C28621   1.067   6.403   5.730  0.4937 -0.0923 -0.7260
  975MOL0     C28622   1.450   6.313   5.983  0.2551  0.5405  0.9957
  975MOL0     C28623   1.555   6.236   5.939  0.3740 -0.1601  0.1695
  975MOL0     C28624   1.645   6.177   6.019 -0.5121  1.2822 -0.1144
  975MOL0     C28625   1.641   6.203   6.159  0.0784 -0.7509  0.3391
  975MOL0     O28626   1.723   6.141   6.256 -0.0739 -0.5321 -0.1880
  975MOL0     C28627   1.843   6.064   6.224 -0.1252 -0.1103 -0.9449
  975MOL0     C28628   1.886   5.995   6.354  0.3528  1.0945 -0.0295
  975MOL0     C28629   2.018   5.928   6.349 -0.0544 -0.6309 -0.2777
  975MOL0     C28630   2.102   5.927   6.490 -0.7447  0.4099 -0.6211
  975MOL0     C28631   2.235   5.858   6.459 -0.4248 -0.5470  0.1127
  975MOL0     C28632   2.350   5.819   6.442  0.1988 -0.9910  0.5182
  975MOL0     C28633   1.531   6.279   6.204 -0.4036 -0.1884 -0.0228
  975MOL0     C28634   1.437   6.329   6.117  0.8037 -1.2494  0.4747
  975MOL0     H28635   1.067   6.626   5.986 -0.7315  1.1588 -0.5781
  975MOL0     H28636   0.887   6.714   5.863 -1.3554 -0.5488 -1.2950
  975MOL0     H28637   0.837   6.819   5.652 -1.0306  1.4926  1.0238
  975MOL0     H28638   0.670   6.802   5.700  0.3200  3.3288 -0.9502
  975MOL0     H28639   0.578   6.786   5.500  0.6779  1.4786  1.7094
  975MOL0     H28640   0.729   6.715   5.435 -0.9731 -2.7470  2.2145
  975MOL0     H28641   0.842   6.933   5.441  0.3801 -3.7490 -0.3564
  975MOL0     H28642   0.695   6.997   5.526  2.2934  1.2809 -0.0157
  975MOL0     H28643   0.716   6.884   5.244  0.0572 -1.2806  0.5322
  975MOL0     H28644   0.563   6.938   5.318  0.2817  3.7255  1.8066
  975MOL0     H28645   0.654   7.110   5.143  2.5935  0.0987 -0.3347
  975MOL0     H28646   0.795   7.100   5.258 -0.2751 -2.3913  0.9357
  975MOL0     H28647   0.631   7.209   5.432 -0.1466  1.6415 -0.4076
  975MOL0     H28648   0.510   7.190   5.313  0.1662  1.4257  1.2853
  975MOL0     H28649   0.673   7.336   5.163  0.6192  1.7604 -0.4032
  975MOL0     H28650   0.612   7.430   5.304  2.5361  1.6015  0.1832
  975MOL0     H28651   0.845   7.476   5.288 -2.0506  0.5615 -1.6610
  975MOL0     H28652   0.878   7.306   5.280  1.3311 -1.3640  3.1780
  975MOL0     H28653   0.750   7.600   5.494  0.3472 -0.2917 -2.5004
  975MOL0     H28654   0.821   7.666   5.768 -0.0863 -0.1081 -1.7946
  975MOL0     H28655   0.879   7.519   5.849  0.9779  1.7799  0.8923
  975MOL0     H28656   0.656   7.466   5.907 -0.4190  0.4912 -0.0532
  975MOL0     H28657   0.588   7.584   5.804 -0.4905 -1.7312 -0.1028
  975MOL0     H28658   0.611   7.627   6.051 -0.8858 -2.4163 -1.7342
  975MOL0     H28659   0.765   7.700   6.017  1.1190 -0.5386 -1.2382
  975MOL0     H28660   0.501   7.796   5.904 -0.2376  1.6448 -0.7772
  975MOL0     H28661   0.645   7.835   5.819 -0.4420 -2.0058 -1.3826
  975MOL0     H28662   0.748   8.070   5.820 -0.0177 -1.2276  0.6400
  975MOL0     H28663   0.672   8.293   5.737  0.1781  1.2502  1.0564
  975MOL0     H28664   0.313   8.665   5.787 -0.1277 -2.1883  0.6622
  975MOL0     H28665   0.149   8.824   5.717  2.1371 -0.2679  2.9811
  975MOL0     H28666  -0.041   8.926   5.800 -0.2149  2.8977 -0.4715
  975MOL0     H28667  -0.212   8.927   5.761  0.3114 -1.6964 -0.3054
  975MOL0     H28668  -0.132   8.951   5.514 -1.3920  1.9827  0.3914
  975MOL0     H28669   0.022   9.003   5.588  0.7533  0.0360  0.2028
  975MOL0     H28670  -0.135   9.154   5.719  0.2737 -5.1764  1.5854
  975MOL0     H28671  -0.267   9.099   5.610 -0.1391  0.1057 -2.1666
  975MOL0     H28672  -0.033   9.268   5.499 -0.2775 -1.4037 -1.4852
  975MOL0     H28673  -0.162   9.182   5.410  2.3208 -0.0867 -1.3324
  975MOL0     H28674  -0.205   9.428   5.455  0.1051 -0.4680 -1.6678
  975MOL0     H28675  -0.213   9.406   5.629  0.2610  0.5119 -0.8274
  975MOL0     H28676  -0.418   9.244   5.588 -0.9711  0.3530 -0.5379
  975MOL0     H28677  -0.395   9.257   5.420 -2.2155 -0.7417  1.0805
  975MOL0     H28678  -0.414   9.521   5.560  0.3954  2.0249 -1.4354
  975MOL0     H28679  -0.485   9.460   5.396 -1.5369 -1.5506 -0.5354
  975MOL0     H28680  -0.661   9.342   5.535 -1.4186 -1.0921  2.0671
  975MOL0     H28681  -0.665   9.516   5.544 -0.5447 -0.1114  0.2552
  975MOL0     H28682  -0.131   8.506   5.649 -1.5047  3.2183 -0.4362
  975MOL0     H28683   0.051   8.339   5.703 -0.5383  1.3281 -0.6715
  975MOL0     H28684   0.321   8.258   5.986  1.3188  1.7060  1.9540
  975MOL0     H28685   0.382   8.047   6.074 -0.2324 -0.3946  0.2626
  975MOL0     H28686   0.925   6.409   5.567  0.0803  1.8059 -0.9971
  975MOL0     H28687   1.100   6.307   5.692  2.2212  0.3305 -0.3640
  975MOL0     H28688   1.567   6.215   5.833  1.8192 -1.1906  0.5074
  975MOL0     H28689   1.726   6.126   5.967  0.6449  2.3961  0.5128
  975MOL0     H28690   1.917   6.139   6.194 -1.5538  0.3878 -3.5247
  975MOL0     H28691   1.816   5.993   6.145 -0.7412 -1.2025  0.2020
  975MOL0     H28692   1.886   6.074   6.430 -2.3613 -0.2924  1.5481
  975MOL0     H28693   1.805   5.925   6.379  1.4531 -0.2638 -0.1205
  975MOL0     H28694   2.079   5.964   6.265  0.3941  0.2277  0.4005
  975MOL0     H28695   1.993   5.823   6.332  1.7606 -1.0823 -0.3525
  975MOL0     H28696   2.127   6.022   6.537  0.1289 -0.4135  0.6470
  975MOL0     H28697   2.041   5.875   6.565  1.6736  0.2037  1.3092
  975MOL0     H28698   2.450   5.788   6.417  0.5613  1.7101 -1.9652
  975MOL0     H28699   1.523   6.290   6.312 -2.0365 -3.6764  0.3583
  975MOL0     H28700   1.348   6.384   6.147  0.7850 -1.0806  0.1084
  976MOL0     O28701   0.015   3.560   6.923  0.3181 -0.2123 -0.1877
  976MOL0     C28702  -0.075   3.559   7.008 -0.0683  0.0823 -0.2035
  976MOL0     O28703  -0.079   3.650   7.122  0.2302  0.2479 -0.7027
  976MOL0     C28704   0.025   3.740   7.142  0.2026  0.1829 -0.4385
  976MOL0     C28705   0.004   3.871   7.120  0.0141  0.7085  0.4678
  976MOL0     C28706   0.099   3.961   7.140 -0.3520 -0.1336  1.0494
  976MOL0     C28707   0.222   3.929   7.182  0.0328 -0.3579  0.5869
  976MOL0     O28708   0.341   4.014   7.184  0.3615  0.4471  0.4926
  976MOL0     C28709   0.319   4.147   7.231  1.3820 -0.8571  0.5803
  976MOL0     C28710   0.450   4.218   7.271 -0.7394  0.0413 -0.0002
  976MOL0     C28711   0.522   4.123   7.365  0.6680 -0.8950 -0.3466
  976MOL0     C28712   0.654   4.174   7.440  0.3411  0.2931 -1.0401
  976MOL0     C28713   0.735   4.270   7.356 -0.0508 -0.0700  0.6465
  976MOL0     C28714   0.871   4.303   7.404  0.1338 -0.3622  0.2090
  976MOL0     C28715   0.936   4.399   7.296 -0.0039 -0.9840 -0.8217
  976MOL0     C28716   1.088   4.403   7.310  0.6384 -0.6977 -0.0609
  976MOL0     N28717   1.161   4.321   7.205  0.8485  0.1902 -0.8768
  976MOL0     C28718   1.118   4.198   7.143 -0.3375 -0.1684 -0.0572
  976MOL0     C28719   1.215   4.174   7.044 -0.3414  0.0809 -0.1972
  976MOL0     C28720   1.228   4.047   6.959 -0.1133 -0.0868 -0.4131
  976MOL0     C28721   1.243   3.924   7.057  1.2135  0.6118 -0.5312
  976MOL0     C28722   1.268   3.800   6.971 -0.6516 -0.0755  0.1846
  976MOL0     C28723   1.161   3.689   7.003  0.7648  0.6716  0.4264
  976MOL0     O28724   1.154   3.659   7.143  0.6155  0.3436  0.1395
  976MOL0     C28725   1.076   3.555   7.187  0.4024 -0.2177  0.1539
  976MOL0     C28726   1.016   3.463   7.111  0.3412  0.5553 -0.8130
  976MOL0     C28727   0.924   3.369   7.171  0.0974  0.4220 -0.5252
  976MOL0     C28728   0.912   3.363   7.307  0.1589 -0.0421 -0.6660
  976MOL0     C28729   0.815   3.279   7.383  0.1995  0.5302 -0.3277
  976MOL0     O28730   0.739   3.194   7.307 -0.1634 -0.5187 -0.2599
  976MOL0     C28731   0.644   3.115   7.359  0.7015 -0.1938  0.4291
  976MOL0     C28732   0.653   2.977   7.350 -0.2455 -0.2445 -0.8202
  976MOL0     C28733   0.549   2.902   7.413  0.3771  0.4928 -0.3476
  976MOL0     C28734   0.433   2.956   7.467  0.6002  0.7021  0.6736
  976MOL0     O28735   0.326   2.892   7.532  0.1561  0.2176 -0.5641
  976MOL0     C28736   0.317   2.750   7.531  0.0334 -0.1402 -0.4588
  976MOL0     C28737   0.235   2.718   7.665 -0.1931  0.0830 -0.7403
  976MOL0     C28738   0.099   2.787   7.655  0.1490 -0.3106  0.3038
  976MOL0     C28739   0.001   2.767   7.775  1.1430 -0.7635 -1.0242
  976MOL0     C28740  -0.147   2.779   7.735 -0.1696 -0.3217  0.1163
  976MOL0     C28741  -0.242   2.826   7.842 -0.2972 -1.0172 -0.1041
  976MOL0     C28742  -0.233   2.741   7.967  0.0379 -0.2414 -0.3577
  976MOL0     C28743  -0.290   2.597   7.951  2.0574  0.5645  0.9268
  976MOL0    Cl28744  -0.327   2.509   8.115  0.4272 -0.2493  0.1448
  976MOL0     C28745   0.430   3.094   7.470 -0.8627  0.3979  0.1660
  976MOL0     C28746   0.537   3.169   7.432 -0.2557 -1.2054  0.9076
  976MOL0     O28747   0.832   3.278   7.500  0.0201  0.5612  0.1179
  976MOL0     C28748   0.990   3.455   7.389  0.7280 -0.6643 -0.3725
  976MOL0     C28749   1.069   3.551   7.327 -0.4582 -0.0929  0.3360
  976MOL0     N28750   1.309   4.274   7.058 -0.5650  0.5522 -0.2417
  976MOL0     N28751   1.282   4.352   7.153 -0.0154 -0.4214  0.5787
  976MOL0     C28752   0.245   3.798   7.224  0.1484 -0.4958  0.7740
  976MOL0     C28753   0.151   3.699   7.193  0.2082 -0.3489 -0.9332
  976MOL0     C28754  -0.187   3.458   6.988 -0.2258  0.5058 -0.1211
  976MOL0     C28755  -0.206   3.361   6.885 -0.4914 -0.3006 -0.0180
  976MOL0     C28756  -0.321   3.291   6.870  0.6805  1.0154 -0.9947
  976MOL0     C28757  -0.428   3.299   6.965  0.1476 -0.8553 -0.1375
  976MOL0     O28758  -0.550   3.243   6.954  0.3202  0.5007  0.4575
  976MOL0     C28759  -0.558   3.133   6.864 -0.0476  1.2276 -0.0697
  976MOL0     C28760  -0.701   3.078   6.865  0.0817 -0.4330  0.0729
  976MOL0     C28761  -0.743   3.011   6.998  0.0759  0.0721  0.4367
  976MOL0     C28762  -0.881   2.946   6.987 -0.3395 -0.8348 -0.4632
  976MOL0     C28763  -0.985   3.052   6.984  0.5404 -0.2265 -0.6788
  976MOL0     C28764  -1.085   3.126   6.979 -0.1953 -0.2531 -0.3411
  976MOL0     C28765  -0.407   3.392   7.078  0.7351 -0.0344 -0.1685
  976MOL0     C28766  -0.296   3.467   7.091 -0.4870 -0.7950 -0.1735
  976MOL0     H28767  -0.092   3.917   7.098  0.6666  3.3406  2.5755
  976MOL0     H28768   0.063   4.063   7.134  0.7059  0.1776 -3.4479
  976MOL0     H28769   0.260   4.136   7.322  0.8325 -1.6373  0.1345
  976MOL0     H28770   0.273   4.204   7.150  0.3822  1.0947  2.4179
  976MOL0     H28771   0.441   4.316   7.320  1.2154  0.3000 -0.0696
  976MOL0     H28772   0.512   4.236   7.182  0.0834  2.7712  1.0224
  976MOL0     H28773   0.554   4.045   7.295  2.1955  0.6419 -1.4437
  976MOL0     H28774   0.450   4.084   7.437 -0.3689 -1.1863 -1.4897
  976MOL0     H28775   0.637   4.214   7.540  0.5695  0.4504 -1.0638
  976MOL0     H28776   0.711   4.081   7.433 -2.0775 -1.2500 -1.2822
  976MOL0     H28777   0.683   4.366   7.353 -3.9014 -1.9667 -2.0428
  976MOL0     H28778   0.758   4.241   7.253  0.5052  5.4146 -1.0849
  976MOL0     H28779   0.939   4.218   7.411  1.9709  1.1754  3.2728
  976MOL0     H28780   0.879   4.353   7.501  1.2616 -0.9864  0.4595
  976MOL0     H28781   0.919   4.355   7.198 -1.6549 -1.3085 -0.4283
  976MOL0     H28782   0.887   4.497   7.297  2.8146  0.5164  0.3769
  976MOL0     H28783   1.130   4.386   7.410  0.1772 -1.3319  0.0339
  976MOL0     H28784   1.111   4.507   7.286 -0.9399 -0.5551 -1.1303
  976MOL0     H28785   1.025   4.146   7.166 -0.0619  0.4427  2.7578
  976MOL0     H28786   1.324   4.049   6.907  0.8568  0.0955  1.3243
  976MOL0     H28787   1.135   4.033   6.901  0.2680 -0.6471 -0.9020
  976MOL0     H28788   1.145   3.908   7.104  2.1663 -0.4506  1.2285
  976MOL0     H28789   1.326   3.936   7.127 -1.0877  0.1600  2.5476
  976MOL0     H28790   1.270   3.833   6.867  1.3841 -0.3247  0.1038
  976MOL0     H28791   1.363   3.746   6.983  0.4661  1.5419 -0.9234
  976MOL0     H28792   1.188   3.597   6.949 -0.4140  0.6500 -0.1500
  976MOL0     H28793   1.062   3.710   6.962 -1.0852 -2.1565  2.9796
  976MOL0     H28794   1.021   3.458   7.002 -2.3491 -0.9399 -0.9497
  976MOL0     H28795   0.885   3.295   7.102  1.8390 -0.1753 -0.9294
  976MOL0     H28796   0.738   2.923   7.310  0.8275 -0.8803  2.1210
  976MOL0     H28797   0.564   2.794   7.407  1.5948  0.6895 -1.2219
  976MOL0     H28798   0.413   2.700   7.519 -0.9234 -2.1598 -0.1489
  976MOL0     H28799   0.263   2.722   7.441  0.5500 -2.9150  0.0183
  976MOL0     H28800   0.285   2.751   7.756 -0.4527  0.8120 -0.8514
  976MOL0     H28801   0.219   2.611   7.683  2.1598  0.2547  3.7724
  976MOL0     H28802   0.047   2.755   7.564  1.3174  2.0207 -1.3034
  976MOL0     H28803   0.100   2.895   7.638 -0.3082 -0.2948  0.3714
  976MOL0     H28804   0.012   2.674   7.832 -3.3853  0.3663  2.3081
  976MOL0     H28805   0.037   2.846   7.842  2.0177  0.1764 -2.5594
  976MOL0     H28806  -0.177   2.686   7.685  3.0039 -1.5222  0.1972
  976MOL0     H28807  -0.157   2.848   7.651 -1.4377  0.6397  1.0279
  976MOL0     H28808  -0.342   2.834   7.799 -0.9441  0.2712  1.5508
  976MOL0     H28809  -0.204   2.927   7.859  0.6857 -1.1369 -1.4373
  976MOL0     H28810  -0.131   2.733   8.005 -0.5835 -1.6550  1.1252
  976MOL0     H28811  -0.283   2.799   8.045 -1.6318 -0.7613 -0.9966
  976MOL0     H28812  -0.237   2.532   7.881  0.0880  3.6673 -3.9727
  976MOL0     H28813  -0.382   2.614   7.894  2.1234 -3.2570 -0.6101
  976MOL0     H28814   0.341   3.141   7.510 -0.8637  0.9429 -0.4683
  976MOL0     H28815   0.520   3.275   7.442 -5.2802 -1.5092 -1.3543
  976MOL0     H28816   0.993   3.454   7.498  1.7202 -0.8417 -0.3928
  976MOL0     H28817   1.123   3.627   7.383 -1.2466 -0.7698  2.0830
  976MOL0     H28818   0.338   3.771   7.272  1.7056  0.6916 -1.4103
  976MOL0     H28819   0.175   3.593   7.199  2.1693  0.1175  0.8649
  976MOL0     H28820  -0.128   3.334   6.814 -3.1415 -1.8705 -2.5520
  976MOL0     H28821  -0.317   3.214   6.794 -1.3995  0.7839 -0.9398
  976MOL0     H28822  -0.486   3.053   6.884  0.0357  1.0683 -0.9950
  976MOL0     H28823  -0.531   3.162   6.762  0.5925 -1.3347 -0.7026
  976MOL0     H28824  -0.773   3.151   6.825  0.5108 -0.4114 -0.6753
  976MOL0     H28825  -0.701   2.996   6.793  3.0988 -0.7539  0.3335
  976MOL0     H28826  -0.725   3.087   7.075  2.6131 -2.4556  2.5471
  976MOL0     H28827  -0.677   2.929   7.027 -0.9980 -1.1977 -0.5705
  976MOL0     H28828  -0.884   2.874   6.905  2.0103  0.6107 -1.9245
  976MOL0     H28829  -0.889   2.889   7.080 -1.8728  0.5982  0.3566
  976MOL0     H28830  -1.177   3.180   6.971 -1.7449 -2.7237 -0.2183
  976MOL0     H28831  -0.474   3.385   7.163 -0.0249  1.1160 -0.6537
  976MOL0     H28832  -0.289   3.538   7.173 -1.6730  1.1228 -1.6541
  977MOL0     O28833   8.755   6.943   9.875  0.5928 -1.0517  0.1607
  977MOL0     C28834   8.793   7.057   9.906 -0.0134 -0.1743  0.3887
  977MOL0     O28835   8.799   7.167   9.822 -0.6257 -0.0503  0.5086
  977MOL0     C28836   8.718   7.153   9.710  0.8344 -0.3644  0.0189
  977MOL0     C28837   8.749   7.071   9.598 -0.2083  0.0186 -0.3462
  977MOL0     C28838   8.657   7.045   9.503  0.3130  0.9333  0.0576
  977MOL0     C28839   8.528   7.102   9.515 -0.0527 -0.1290  0.4959
  977MOL0     O28840   8.428   7.092   9.425  0.1103  0.2943 -0.2243
  977MOL0     C28841   8.456   6.985   9.330  0.9400 -0.3396 -0.6717
  977MOL0     C28842   8.316   6.979   9.255 -0.9574 -0.1338 -0.1257
  977MOL0     C28843   8.322   6.889   9.130 -0.7934  0.0063  0.1177
  977MOL0     C28844   8.358   6.736   9.153  0.1920 -0.2705  0.2402
  977MOL0     C28845   8.222   6.666   9.201  0.0262 -0.1977  0.3931
  977MOL0     C28846   8.249   6.535   9.271 -0.4174 -1.3499  0.6301
  977MOL0     C28847   8.307   6.557   9.407 -0.6801 -1.1446  0.9328
  977MOL0     C28848   8.227   6.485   9.516 -0.4677  0.5208 -0.6824
  977MOL0     N28849   8.309   6.485   9.642 -0.0025  0.9048 -0.7103
  977MOL0     C28850   8.332   6.584   9.736 -0.6651  0.3085  0.0592
  977MOL0     C28851   8.418   6.528   9.822 -0.2388  0.1916  0.0330
  977MOL0     C28852   8.482   6.571   9.946 -0.1588 -0.0040 -0.0799
  977MOL0     C28853   8.370   6.587  10.054  1.1261 -0.6703  0.4693
  977MOL0     C28854   8.297   6.452  10.082  0.0014 -0.9648 -0.2379
  977MOL0     C28855   8.212   6.474  10.214 -0.2246  0.0657 -1.0813
  977MOL0     O28856   8.152   6.601  10.233 -0.2174 -0.8542 -0.7061
  977MOL0     C28857   8.042   6.641  10.154 -0.3626  0.4097 -0.7511
  977MOL0     C28858   7.968   6.563  10.065 -0.1177 -0.4054  0.0486
  977MOL0     C28859   7.846   6.612  10.003  0.0543  0.2757  0.4714
  977MOL0     C28860   7.810   6.745  10.017  0.8028  0.3245  0.2775
  977MOL0     C28861   7.683   6.789   9.944 -0.3427 -0.6135  0.3851
  977MOL0     O28862   7.584   6.697   9.915  0.6744  0.0816 -0.3256
  977MOL0     C28863   7.491   6.733   9.819 -0.3031  0.3800  0.0941
  977MOL0     C28864   7.382   6.797   9.860  0.3434 -0.7367 -0.8324
  977MOL0     C28865   7.290   6.846   9.764  0.3369  0.7960  0.1933
  977MOL0     C28866   7.298   6.817   9.628  0.1866  0.0553  0.1333
  977MOL0     O28867   7.217   6.855   9.526  0.3595  0.4254  0.2117
  977MOL0     C28868   7.092   6.785   9.520 -0.5005  0.2004 -0.5331
  977MOL0     C28869   6.980   6.869   9.577 -0.5692 -0.4097  0.3392
  977MOL0     C28870   6.958   6.998   9.501 -0.3464  0.4234 -0.3517
  977MOL0     C28871   6.864   7.103   9.562 -0.3778  0.2794 -0.7460
  977MOL0     C28872   6.829   7.203   9.450  1.0038  0.0256 -0.3990
  977MOL0     C28873   6.760   7.318   9.509 -0.0687  0.5187 -0.5029
  977MOL0     C28874   6.708   7.421   9.405  0.5071  0.2018  0.0258
  977MOL0     C28875   6.678   7.560   9.466 -0.1699 -0.1583 -0.1788
  977MOL0    Cl28876   6.555   7.645   9.365 -0.1010 -0.2159  0.3394
  977MOL0     C28877   7.409   6.743   9.583  0.5915  0.3785 -0.0660
  977MOL0     C28878   7.505   6.704   9.682  0.0759 -0.1523 -0.4703
  977MOL0     O28879   7.681   6.906   9.906  0.3332 -0.0026  0.6088
  977MOL0     C28880   7.894   6.821  10.099  0.7533  0.0360  0.5445
  977MOL0     C28881   8.006   6.777  10.175  0.4098 -0.0355 -0.1553
  977MOL0     N28882   8.445   6.400   9.773 -0.2384 -0.9262 -0.0971
  977MOL0     N28883   8.387   6.385   9.667 -0.1786  0.2528  0.2624
  977MOL0     C28884   8.498   7.181   9.629 -0.0671 -0.0310  0.2641
  977MOL0     C28885   8.592   7.208   9.728  0.0424  0.0694 -0.3644
  977MOL0     C28886   8.833   7.090  10.046 -0.1527  0.1584 -0.0294
  977MOL0     C28887   8.825   6.991  10.143 -0.5915  0.2933  0.0565
  977MOL0     C28888   8.869   7.007  10.276  0.1872 -0.4583  0.5927
  977MOL0     C28889   8.918   7.131  10.312 -0.7715 -0.6675 -0.4853
  977MOL0     O28890   8.946   7.147  10.448  0.4177  0.4840  0.4379
  977MOL0     C28891   9.001   7.264  10.500 -0.1677 -0.2743 -1.1852
  977MOL0     C28892   9.144   7.281  10.436 -0.3155 -0.9116  0.4914
  977MOL0     C28893   9.211   7.413  10.469 -1.4370  0.1675  0.3959
  977MOL0     C28894   9.340   7.430  10.386  0.1434  0.3305 -0.4423
  977MOL0     C28895   9.462   7.376  10.451 -0.2154  0.3266 -0.5115
  977MOL0     C28896   9.559   7.341  10.505  0.0407  1.0069 -0.3124
  977MOL0     C28897   8.911   7.239  10.217 -0.1017 -0.4566  0.2719
  977MOL0     C28898   8.870   7.219  10.085  0.0247  0.3590 -0.6267
  977MOL0     H28899   8.843   7.017   9.599 -1.1332 -1.8472  3.3326
  977MOL0     H28900   8.684   6.979   9.421  0.1303  1.9558 -0.8607
  977MOL0     H28901   8.482   6.892   9.380 -0.2417 -1.0177 -1.2823
  977MOL0     H28902   8.537   7.013   9.262  0.3410 -2.5676 -2.4033
  977MOL0     H28903   8.290   7.079   9.218 -0.3130 -2.2031 -7.9792
  977MOL0     H28904   8.234   6.939   9.314 -0.8794  1.1666  0.8921
  977MOL0     H28905   8.405   6.921   9.067 -0.4881 -1.2480 -0.1481
  977MOL0     H28906   8.236   6.902   9.064 -0.5840 -1.2822 -0.4348
  977MOL0     H28907   8.408   6.698   9.063  2.9836  4.8289 -0.7431
  977MOL0     H28908   8.431   6.727   9.234 -1.0718  2.9537  1.8726
  977MOL0     H28909   8.167   6.641   9.110  1.3772 -0.5394 -0.3473
  977MOL0     H28910   8.164   6.729   9.270 -3.6968 -1.6642 -1.0879
  977MOL0     H28911   8.318   6.473   9.213  1.4031  1.5268 -0.4791
  977MOL0     H28912   8.155   6.480   9.264  0.8626 -3.7604  1.0844
  977MOL0     H28913   8.412   6.526   9.400  0.3878  2.3721 -1.6869
  977MOL0     H28914   8.312   6.664   9.431  0.4113 -0.6385 -1.2633
  977MOL0     H28915   8.202   6.384   9.483 -1.2468  0.0725  1.1572
  977MOL0     H28916   8.126   6.525   9.525 -0.4064  0.2371  2.2253
  977MOL0     H28917   8.283   6.681   9.734  1.6404  1.7434  3.4180
  977MOL0     H28918   8.526   6.668   9.923 -0.8387  0.1746 -0.6897
  977MOL0     H28919   8.553   6.496   9.980 -0.9696 -1.3841 -1.3397
  977MOL0     H28920   8.316   6.677  10.025  0.0921 -1.9932 -2.1076
  977MOL0     H28921   8.423   6.612  10.146 -1.2428  2.3542  1.1435
  977MOL0     H28922   8.222   6.441  10.003 -2.0452  2.1667  1.0598
  977MOL0     H28923   8.376   6.377  10.089  1.2868  0.4334  1.3463
  977MOL0     H28924   8.274   6.454  10.302 -0.9987 -2.1107 -0.9753
  977MOL0     H28925   8.137   6.395  10.216  1.4972 -1.6549 -0.1845
  977MOL0     H28926   8.000   6.461  10.051  0.8613 -0.3623  1.6700
  977MOL0     H28927   7.787   6.544   9.942 -0.3615 -0.6778  1.8791
  977MOL0     H28928   7.376   6.832   9.962  0.0537  2.7263 -1.9013
  977MOL0     H28929   7.213   6.916   9.795  0.9427  2.6236 -2.1521
  977MOL0     H28930   7.098   6.686   9.566  0.6047 -1.2718 -3.4976
  977MOL0     H28931   7.066   6.762   9.416  2.6964  0.2910 -1.4606
  977MOL0     H28932   6.994   6.889   9.683  2.7560  1.1200 -0.2561
  977MOL0     H28933   6.892   6.805   9.562 -1.1804  0.4263  0.2312
  977MOL0     H28934   6.908   6.976   9.407 -3.4355  0.9409  1.0480
  977MOL0     H28935   7.055   7.038   9.469  0.5669  0.7499  2.4924
  977MOL0     H28936   6.781   7.050   9.610  0.4523 -1.5701 -1.2743
  977MOL0     H28937   6.925   7.157   9.636  1.6260 -1.0147 -1.3598
  977MOL0     H28938   6.769   7.155   9.372 -1.0784  1.5710  0.1706
  977MOL0     H28939   6.927   7.228   9.408  1.2077 -0.1257 -0.0224
  977MOL0     H28940   6.832   7.362   9.579  0.4303 -0.9830 -0.0276
  977MOL0     H28941   6.675   7.275   9.562 -0.6892  0.5068 -1.4918
  977MOL0     H28942   6.784   7.434   9.328 -1.3805  1.9509 -1.6461
  977MOL0     H28943   6.623   7.384   9.347 -0.5144 -0.2081  1.7125
  977MOL0     H28944   6.770   7.613   9.493  0.8235 -2.5860  1.5630
  977MOL0     H28945   6.632   7.542   9.564  2.6977 -0.7448  1.1677
  977MOL0     H28946   7.428   6.723   9.478  0.7452  0.7119 -0.1037
  977MOL0     H28947   7.600   6.665   9.645 -0.4244  1.5111 -3.9415
  977MOL0     H28948   7.879   6.929  10.107 -2.2864 -0.3896  1.9008
  977MOL0     H28949   8.055   6.844  10.244 -3.0122  1.0906  1.4212
  977MOL0     H28950   8.403   7.232   9.631  0.5219  1.2770 -1.9974
  977MOL0     H28951   8.548   7.259   9.813 -2.8471 -4.7368  1.4434
  977MOL0     H28952   8.785   6.892  10.125 -0.4479 -0.2207  2.3254
  977MOL0     H28953   8.880   6.929  10.351 -0.3370  0.3249  1.4936
  977MOL0     H28954   8.999   7.270  10.609  0.1732 -1.3297 -1.1096
  977MOL0     H28955   8.928   7.341  10.474 -1.2266 -1.7767 -2.9298
  977MOL0     H28956   9.208   7.210  10.489 -0.3968 -2.1868 -1.0112
  977MOL0     H28957   9.142   7.242  10.333 -1.2980 -0.3179  0.2680
  977MOL0     H28958   9.219   7.430  10.577  0.1628 -1.3535  0.5677
  977MOL0     H28959   9.150   7.496  10.433 -1.6692 -0.8615 -1.7398
  977MOL0     H28960   9.330   7.365  10.298  0.1021 -3.3105  2.0412
  977MOL0     H28961   9.356   7.534  10.356  1.7723  0.6717  1.3929
  977MOL0     H28962   9.649   7.312  10.555 -0.9343 -0.7850  0.5096
  977MOL0     H28963   8.922   7.338  10.260  0.4360  0.0937 -1.1076
  977MOL0     H28964   8.862   7.295  10.007 -1.9065  0.5487 -0.2939
  978MOL0     O28965   7.690   0.796  10.063  1.2857  1.2015  1.1175
  978MOL0     C28966   7.728   0.690  10.118  0.7930 -0.3975 -0.1533
  978MOL0     O28967   7.855   0.645  10.117 -0.0084  0.4194  0.3434
  978MOL0     C28968   7.964   0.712  10.056  0.4433  0.0463 -0.7051
  978MOL0     C28969   8.081   0.648  10.091 -0.9934  0.5610  0.1496
  978MOL0     C28970   8.203   0.707  10.052  0.7052  0.2902  0.2345
  978MOL0     C28971   8.221   0.833   9.997 -0.5117  0.3906  0.0365
  978MOL0     O28972   8.332   0.908   9.964  0.3347  0.4465 -0.4399
  978MOL0     C28973   8.447   0.831   9.945 -0.4502 -0.0988  0.2434
  978MOL0     C28974   8.561   0.908   9.875  1.1745 -0.2238 -0.3150
  978MOL0     C28975   8.665   0.971   9.971 -0.3714  0.1853 -0.4350
  978MOL0     C28976   8.755   1.064   9.881 -0.0332  0.2653 -0.6781
  978MOL0     C28977   8.818   1.170   9.976 -0.0952  0.1712 -0.8686
  978MOL0     C28978   8.944   1.109  10.044 -0.1662 -0.6303  0.2022
  978MOL0     C28979   9.007   1.222  10.134 -0.5682  0.4941 -0.2506
  978MOL0     C28980   9.068   1.147  10.254  0.4934  0.4214  0.4151
  978MOL0     N28981   9.111   1.234  10.361 -0.2316 -0.3503 -0.0125
  978MOL0     C28982   9.223   1.222  10.436 -0.2855  0.5006  0.3075
  978MOL0     C28983   9.226   1.323  10.527 -0.6147 -0.8579  0.0112
  978MOL0     C28984   9.318   1.349  10.644  0.1526  0.3069  1.0227
  978MOL0     C28985   9.414   1.465  10.631  0.6504 -0.0366  0.7415
  978MOL0     C28986   9.346   1.603  10.589 -0.2661  1.2164  0.0641
  978MOL0     C28987   9.453   1.708  10.573  0.1459 -0.6140  0.2563
  978MOL0     O28988   9.435   1.827  10.666  1.3827 -0.0047 -0.4746
  978MOL0     C28989   9.517   1.939  10.672  0.4513 -1.0080  0.8316
  978MOL0     C28990   9.615   1.966  10.576  0.0204  1.6855 -0.8684
  978MOL0     C28991   9.688   2.085  10.575 -0.4497  0.5322  0.7655
  978MOL0     C28992   9.662   2.190  10.667 -0.6291 -0.7907 -0.4804
  978MOL0     C28993   9.748   2.313  10.672  0.5518  0.0249 -0.2767
  978MOL0     O28994   9.699   2.425  10.733 -0.4279 -0.6005 -0.2859
  978MOL0     C28995   9.787   2.526  10.776  0.0284  0.5260 -0.1552
  978MOL0     C28996   9.732   2.619  10.870 -0.7062  0.3811 -0.0905
  978MOL0     C28997   9.801   2.719  10.938 -0.1398  0.8399 -0.3256
  978MOL0     C28998   9.933   2.746  10.898 -0.5259 -0.2996 -0.9337
  978MOL0     O28999   9.993   2.853  10.946  0.3334 -0.2386 -0.7996
  978MOL0     C29000   9.912   2.963  10.968 -0.0157 -0.4874  0.4646
  978MOL0     C29001  10.007   3.081  11.020  0.4229  0.2368 -0.5952
  978MOL0     C29002  10.081   3.056  11.160  0.3935 -0.3038  0.0799
  978MOL0     C29003  10.147   3.192  11.205 -0.2724 -0.5358 -0.2806
  978MOL0     C29004  10.039   3.297  11.241 -0.4216 -0.2997  0.1831
  978MOL0     C29005  10.105   3.395  11.333  0.5220 -0.1637  0.3719
  978MOL0     C29006   9.997   3.500  11.364  0.2091  0.6838  0.1399
  978MOL0     C29007  10.057   3.626  11.413 -0.3707 -0.6525  0.1325
  978MOL0    Cl29008  10.100   3.606  11.584  0.0014 -0.3990 -0.0374
  978MOL0     C29009   9.979   2.673  10.785  0.5010 -0.5779  0.2280
  978MOL0     C29010   9.915   2.556  10.736 -0.9359 -0.0179  0.1450
  978MOL0     O29011   9.860   2.304  10.613  0.5311 -0.1869  0.4531
  978MOL0     C29012   9.553   2.159  10.767 -0.3181 -0.1729 -0.3307
  978MOL0     C29013   9.477   2.035  10.761 -0.0837  0.7067  0.1073
  978MOL0     N29014   9.117   1.399  10.501 -0.3658  0.2129  0.3257
  978MOL0     N29015   9.060   1.355  10.395  0.4013 -0.1305 -0.1658
  978MOL0     C29016   8.102   0.903   9.975  0.6045 -0.5334 -0.2807
  978MOL0     C29017   7.976   0.845  10.006 -0.1241  0.6114  0.3707
  978MOL0     C29018   7.625   0.604  10.174 -0.0323  1.4633 -0.8095
  978MOL0     C29019   7.666   0.483  10.242 -0.3782  0.4866 -0.1992
  978MOL0     C29020   7.567   0.395  10.287 -0.9626  0.9459 -0.3842
  978MOL0     C29021   7.432   0.420  10.270  0.1578 -0.6925 -0.7186
  978MOL0     O29022   7.335   0.344  10.332 -0.2778  0.1167  0.0104
  978MOL0     C29023   7.367   0.283  10.455 -0.7019  0.3027  0.3552
  978MOL0     C29024   7.244   0.236  10.524 -0.0928  0.1358  0.0431
  978MOL0     C29025   7.202   0.093  10.494 -0.6323  0.9945 -0.3758
  978MOL0     C29026   7.059   0.058  10.534  0.3107 -0.8818  0.5258
  978MOL0     C29027   7.028   0.088  10.673  0.0549 -0.0049 -0.4020
  978MOL0     C29028   7.007   0.128  10.785  0.4640 -1.0966 -0.5779
  978MOL0     C29029   7.390   0.537  10.211 -0.2355 -0.1759  0.7606
  978MOL0     C29030   7.484   0.634  10.162  0.8570  0.4815  0.4771
  978MOL0     H29031   8.068   0.551  10.138  0.0752  0.9619  1.3292
  978MOL0     H29032   8.299   0.659  10.063  0.6676  0.0422 -0.4310
  978MOL0     H29033   8.415   0.751   9.879  0.7775  0.6992 -1.3677
  978MOL0     H29034   8.490   0.784  10.034 -1.4520 -4.4077 -1.3122
  978MOL0     H29035   8.519   0.980   9.804  0.0211 -2.3522 -1.9317
  978MOL0     H29036   8.624   0.840   9.817  1.8064  0.5520 -0.5634
  978MOL0     H29037   8.725   0.903  10.032  0.2691  1.8276  0.8443
  978MOL0     H29038   8.613   1.031  10.047  3.2650  2.1634  0.7705
  978MOL0     H29039   8.836   1.004   9.838 -2.4602 -1.9846 -2.4482
  978MOL0     H29040   8.700   1.118   9.804  0.8352 -0.0033 -1.5092
  978MOL0     H29041   8.743   1.207  10.046 -0.0384 -2.1408  0.5145
  978MOL0     H29042   8.872   1.242   9.914  1.2566 -1.8277 -2.1490
  978MOL0     H29043   9.023   1.075   9.977  0.4802  1.6250 -0.2649
  978MOL0     H29044   8.913   1.022  10.102  3.4485 -0.7826  2.1651
  978MOL0     H29045   9.075   1.284  10.075 -1.8140 -0.2382 -2.5464
  978MOL0     H29046   8.926   1.285  10.171 -0.3843  1.2770 -1.1616
  978MOL0     H29047   9.152   1.091  10.212 -2.4111 -1.3750 -3.6205
  978MOL0     H29048   8.992   1.080  10.295 -2.8126  3.8858  0.4012
  978MOL0     H29049   9.287   1.135  10.429 -1.6505 -0.4704 -0.4701
  978MOL0     H29050   9.375   1.257  10.662 -0.2143  0.2525  1.9571
  978MOL0     H29051   9.257   1.352  10.734  0.8910 -1.4126  1.6300
  978MOL0     H29052   9.487   1.435  10.554  1.5781 -1.7199  2.1950
  978MOL0     H29053   9.473   1.478  10.722  0.5772 -0.2180  0.8152
  978MOL0     H29054   9.307   1.592  10.487 -1.2148  0.7359  0.4696
  978MOL0     H29055   9.268   1.629  10.661  2.0416 -0.4714  3.4540
  978MOL0     H29056   9.464   1.736  10.468  0.2456 -0.8187  0.2100
  978MOL0     H29057   9.552   1.664  10.592 -0.6830 -1.3756  3.3856
  978MOL0     H29058   9.636   1.891  10.501 -0.1692  0.5659  0.1702
  978MOL0     H29059   9.775   2.082  10.510 -0.9496  3.5930 -0.2199
  978MOL0     H29060   9.630   2.604  10.902  0.2667 -1.6016  2.4074
  978MOL0     H29061   9.751   2.756  11.028  0.6841 -0.4559  0.7026
  978MOL0     H29062   9.836   2.944  11.045  0.3687  2.4076  1.6887
  978MOL0     H29063   9.865   2.999  10.876 -0.4477 -1.6256  0.2240
  978MOL0     H29064   9.954   3.177  11.019 -0.9516 -0.0678  5.0525
  978MOL0     H29065  10.077   3.096  10.938  1.5154 -0.1415  0.2375
  978MOL0     H29066  10.152   2.972  11.155 -0.0661 -0.6256 -2.7097
  978MOL0     H29067  10.006   3.035  11.236 -0.8889 -2.1718 -1.5940
  978MOL0     H29068  10.217   3.178  11.287  2.1758  2.2549 -1.6706
  978MOL0     H29069  10.206   3.234  11.123  0.5860 -1.6078 -0.2313
  978MOL0     H29070   9.956   3.239  11.281 -0.9040  0.0160 -0.3541
  978MOL0     H29071  10.006   3.347  11.150  3.6755  1.6253 -0.4588
  978MOL0     H29072  10.187   3.436  11.273  1.7517 -3.3490 -0.3265
  978MOL0     H29073  10.148   3.347  11.421 -2.3073 -2.0818  0.8312
  978MOL0     H29074   9.938   3.520  11.274 -3.4863 -3.1190  1.3956
  978MOL0     H29075   9.924   3.463  11.436  0.1118 -0.7861 -0.6650
  978MOL0     H29076   9.992   3.712  11.397  1.3256  0.6652  0.0030
  978MOL0     H29077  10.153   3.647  11.364  0.2519  1.0350  1.9495
  978MOL0     H29078  10.075   2.697  10.741  0.8239  0.3811  1.4141
  978MOL0     H29079   9.965   2.493  10.662 -0.7669  1.2718 -0.8685
  978MOL0     H29080   9.538   2.234  10.844 -0.3897  0.0964 -0.6028
  978MOL0     H29081   9.395   2.011  10.829  0.7781 -0.7074  0.7094
  978MOL0     H29082   8.102   1.005   9.938 -0.3552 -0.3553  0.1714
  978MOL0     H29083   7.895   0.907   9.971  1.3668  2.0967 -0.6249
  978MOL0     H29084   7.773   0.464  10.251 -0.1740  2.1114  1.6153
  978MOL0     H29085   7.596   0.300  10.331 -0.2960 -0.0647 -2.8552
  978MOL0     H29086   7.407   0.367  10.512 -0.0349 -0.5563  1.1754
  978MOL0     H29087   7.445   0.207  10.442  0.1192  1.5500 -3.2573
  978MOL0     H29088   7.263   0.245  10.631 -3.9047  2.1509  0.7408
  978MOL0     H29089   7.168   0.311  10.500  0.2890  0.8913  1.1410
  978MOL0     H29090   7.263   0.047  10.572 -2.3744  3.5199  2.7179
  978MOL0     H29091   7.218   0.045  10.397  1.7173 -0.5769  0.7132
  978MOL0     H29092   7.005   0.124  10.466  2.0246 -1.4429 -1.4881
  978MOL0     H29093   7.039  -0.048  10.512  2.0387 -0.5013 -4.0899
  978MOL0     H29094   6.974   0.147  10.886 -0.1801  0.3179 -1.0226
  978MOL0     H29095   7.286   0.560  10.191 -0.1208  0.1706  0.5484
  978MOL0     H29096   7.442   0.729  10.129 -2.8758  0.1383  3.5448
  979MOL0     O29097   8.562   9.890   3.824  0.0924  1.4964  0.0646
  979MOL0     C29098   8.625   9.856   3.724  0.1509 -0.4795 -0.2357
  979MOL0     O29099   8.578   9.873   3.593  0.1066  0.0688  0.0789
  979MOL0     C29100   8.450   9.924   3.572 -0.6074  0.4980  1.0434
  979MOL0     C29101   8.362   9.862   3.483 -0.5847 -0.0777 -1.1137
  979MOL0     C29102   8.233   9.911   3.462 -0.2878  0.0641  0.5775
  979MOL0     C29103   8.198  10.033   3.519 -0.3640 -0.4088  0.0121
  979MOL0     O29104   8.086  10.100   3.480  1.5494  0.5271 -0.0626
  979MOL0     C29105   8.035  10.086   3.341  0.5965  0.2752 -0.0853
  979MOL0     C29106   7.900  10.150   3.353 -0.0584  0.2938 -0.6114
  979MOL0     C29107   7.805  10.166   3.223 -0.1352  0.7026  0.0418
  979MOL0     C29108   7.850  10.274   3.124 -0.3686  0.2063 -0.6448
  979MOL0     C29109   7.727  10.335   3.047  0.6079  0.5633  0.8775
  979MOL0     C29110   7.677  10.458   3.129 -0.4577  0.1072  0.8563
  979MOL0     C29111   7.525  10.467   3.128 -0.5155  0.2841  0.2747
  979MOL0     C29112   7.463  10.368   3.218  0.1849  0.7695 -0.2439
  979MOL0     N29113   7.445  10.428   3.356 -0.3530 -0.4548 -0.4381
  979MOL0     C29114   7.552  10.451   3.443 -0.2301  0.2466  0.3863
  979MOL0     C29115   7.489  10.482   3.561 -0.0237  0.1947 -0.2242
  979MOL0     C29116   7.569  10.481   3.696 -0.7218 -0.1082  0.3678
  979MOL0     C29117   7.647  10.605   3.747  0.2855  0.8432  0.6951
  979MOL0     C29118   7.687  10.593   3.891 -0.1213  0.9989 -0.2430
  979MOL0     C29119   7.785  10.695   3.932  0.4535  0.1924  0.6161
  979MOL0     O29120   7.731  10.832   3.903 -0.2406 -0.1773 -0.2666
  979MOL0     C29121   7.805  10.914   3.830  0.7092 -0.0983  0.6905
  979MOL0     C29122   7.943  10.903   3.820 -0.2825 -0.1012  0.2187
  979MOL0     C29123   8.019  10.993   3.742  0.3496  0.7628 -0.0247
  979MOL0     C29124   7.956  11.074   3.652 -0.0822  0.4680  0.3077
  979MOL0     C29125   8.039  11.149   3.561  0.8487 -0.5275 -0.2215
  979MOL0     O29126   8.158  11.096   3.517  0.6275  0.1401  0.2959
  979MOL0     C29127   8.243  11.161   3.431 -0.0785  0.4599  0.1193
  979MOL0     C29128   8.370  11.212   3.471 -0.0227 -0.2666  0.8143
  979MOL0     C29129   8.455  11.280   3.383  0.4213  0.0665  0.2094
  979MOL0     C29130   8.433  11.283   3.242  0.2761  0.9606 -0.2322
  979MOL0     O29131   8.519  11.337   3.159 -0.2358  0.3493 -0.1780
  979MOL0     C29132   8.529  11.321   3.020  0.4143  0.0330  1.1960
  979MOL0     C29133   8.566  11.184   2.972  0.1698  0.0518 -0.2064
  979MOL0     C29134   8.719  11.161   2.961 -0.3413 -0.0541  1.1050
  979MOL0     C29135   8.810  11.192   3.082 -0.2542 -0.1812  0.3805
  979MOL0     C29136   8.949  11.134   3.052  1.0369 -0.5925  0.1039
  979MOL0     C29137   9.045  11.153   3.165  0.5192 -0.8597 -0.5490
  979MOL0     C29138   9.190  11.145   3.119  0.6556 -0.6299 -0.1341
  979MOL0     C29139   9.286  11.128   3.242  0.1660  0.2497  0.8301
  979MOL0    Cl29140   9.281  11.257   3.357  0.5147 -0.2188  0.1528
  979MOL0     C29141   8.317  11.209   3.205  0.2215 -0.9478  0.5724
  979MOL0     C29142   8.214  11.162   3.299 -0.3391  1.1026  0.1547
  979MOL0     O29143   7.992  11.253   3.517 -0.6384 -0.8208 -0.5099
  979MOL0     C29144   7.812  11.096   3.660 -0.6837 -0.8258  0.6274
  979MOL0     C29145   7.746  11.013   3.749  0.0427 -0.6462 -0.1622
  979MOL0     N29146   7.355  10.489   3.539 -0.1390  0.2741 -0.2924
  979MOL0     N29147   7.324  10.459   3.413 -0.5506  0.5100 -0.1103
  979MOL0     C29148   8.281  10.086   3.615 -0.3364 -0.5360  0.0011
  979MOL0     C29149   8.405  10.037   3.644  0.3658 -0.0968 -0.4255
  979MOL0     C29150   8.762   9.818   3.742 -0.0889 -0.8379  0.3808
  979MOL0     C29151   8.834   9.855   3.856  0.5036  0.1204 -0.6100
  979MOL0     C29152   8.965   9.819   3.887 -0.5228 -0.2943 -0.2616
  979MOL0     C29153   9.029   9.751   3.795  0.0793  0.2787  0.5340
  979MOL0     O29154   9.159   9.730   3.821 -0.1604  0.6772 -0.4299
  979MOL0     C29155   9.256   9.669   3.731  0.7873  0.5649 -0.1358
  979MOL0     C29156   9.371   9.607   3.814 -0.0677 -0.1444  0.6582
  979MOL0     C29157   9.308   9.508   3.914 -0.7449 -0.0740 -0.6958
  979MOL0     C29158   9.418   9.445   4.000 -0.3756  0.2251  0.0983
  979MOL0     C29159   9.504   9.356   3.930 -0.3616  0.9093  0.3176
  979MOL0     C29160   9.565   9.275   3.853 -0.2448 -0.5914 -0.0337
  979MOL0     C29161   8.972   9.718   3.673  0.3298 -0.9030  0.9542
  979MOL0     C29162   8.832   9.745   3.643 -0.3975  0.4599 -0.2688
  979MOL0     H29163   8.389   9.772   3.430  1.5268 -1.0469  1.3464
  979MOL0     H29164   8.186   9.836   3.400  4.1183 -3.2386  0.6756
  979MOL0     H29165   8.023   9.979   3.321 -0.1315  0.1061  1.1567
  979MOL0     H29166   8.105  10.133   3.272  2.6643 -2.5059 -0.0793
  979MOL0     H29167   7.911  10.248   3.402 -0.1996 -0.4613  0.9749
  979MOL0     H29168   7.847  10.089   3.427  0.1106 -3.0789 -3.0380
  979MOL0     H29169   7.708  10.198   3.263 -0.4671  0.8967 -0.8753
  979MOL0     H29170   7.790  10.071   3.172 -2.2088  1.6010 -1.1735
  979MOL0     H29171   7.913  10.353   3.165 -3.3080  2.9682 -1.0822
  979MOL0     H29172   7.909  10.231   3.042  2.8640  2.4109  0.3189
  979MOL0     H29173   7.643  10.266   3.040  1.7248 -0.8187  0.7508
  979MOL0     H29174   7.761  10.369   2.949 -0.0735  0.5242  0.6243
  979MOL0     H29175   7.721  10.544   3.076  0.8346 -1.0420 -0.0002
  979MOL0     H29176   7.706  10.457   3.234 -1.1959 -0.4743  1.0591
  979MOL0     H29177   7.506  10.570   3.160  3.1306  1.0377  0.3804
  979MOL0     H29178   7.481  10.461   3.028  0.3496  3.9238 -0.4697
  979MOL0     H29179   7.523  10.277   3.228 -2.9023 -1.2282  2.3624
  979MOL0     H29180   7.366  10.328   3.184  1.4698 -1.7845 -1.2402
  979MOL0     H29181   7.658  10.440   3.426 -0.7458 -0.1241 -3.1988
  979MOL0     H29182   7.652  10.411   3.685 -2.7623 -3.0584  2.1303
  979MOL0     H29183   7.521  10.433   3.782  1.9129  1.1423  2.7373
  979MOL0     H29184   7.577  10.688   3.732  0.2343  0.6934  0.0888
  979MOL0     H29185   7.732  10.622   3.680  1.0957 -1.4140  1.1002
  979MOL0     H29186   7.598  10.598   3.956  0.6176  0.2846  0.8601
  979MOL0     H29187   7.726  10.492   3.908  1.9457  2.0607  1.9254
  979MOL0     H29188   7.875  10.663   3.879 -1.0317 -1.4710 -1.0362
  979MOL0     H29189   7.811  10.684   4.037 -0.4848 -3.0067  0.6197
  979MOL0     H29190   7.999  10.832   3.880 -1.2236 -0.5560  0.5813
  979MOL0     H29191   8.125  10.983   3.762 -0.4017 -2.2731  3.5571
  979MOL0     H29192   8.394  11.189   3.574  1.2483  0.1163  0.6177
  979MOL0     H29193   8.534  11.341   3.425 -0.6457  2.1182 -0.6169
  979MOL0     H29194   8.587  11.400   2.971 -2.1182 -0.0543 -2.3239
  979MOL0     H29195   8.427  11.335   2.983  0.5174 -3.7463 -1.0075
  979MOL0     H29196   8.499  11.163   2.888 -0.0821 -0.6988  0.1743
  979MOL0     H29197   8.544  11.119   3.057  4.7759 -1.4253  0.1521
  979MOL0     H29198   8.743  11.217   2.870 -1.5754 -3.6698 -1.6629
  979MOL0     H29199   8.748  11.065   2.918 -0.4087  0.5605 -0.4081
  979MOL0     H29200   8.826  11.299   3.091  1.1136 -0.2925 -0.3309
  979MOL0     H29201   8.778  11.147   3.176  0.8368 -2.2420 -0.1709
  979MOL0     H29202   8.988  11.161   2.953  0.7156  2.1639  0.6498
  979MOL0     H29203   8.935  11.025   3.047  1.7703 -0.7375  0.8974
  979MOL0     H29204   9.030  11.078   3.242 -3.6415  1.1646  0.9306
  979MOL0     H29205   9.027  11.249   3.215  2.3943 -0.5658 -0.3909
  979MOL0     H29206   9.200  11.064   3.046 -0.6850  1.1681 -2.4753
  979MOL0     H29207   9.220  11.231   3.059  1.1535  0.4571  1.6285
  979MOL0     H29208   9.390  11.125   3.209 -0.1008 -1.5406  0.0146
  979MOL0     H29209   9.261  11.031   3.286 -0.5355 -0.3523 -0.8459
  979MOL0     H29210   8.293  11.197   3.100 -0.1680  1.5636  0.3066
  979MOL0     H29211   8.136  11.102   3.252 -0.0944 -1.6539  3.0370
  979MOL0     H29212   7.753  11.160   3.595 -3.5762 -2.7328  1.1596
  979MOL0     H29213   7.641  11.035   3.768  0.0497  2.4445 -2.9031
  979MOL0     H29214   8.252  10.180   3.661  0.0236  1.9241 -4.2731
  979MOL0     H29215   8.460  10.098   3.715  0.1486 -2.2510  1.6950
  979MOL0     H29216   8.785   9.905   3.939 -2.1765 -2.9092 -0.1856
  979MOL0     H29217   9.010   9.854   3.979  3.0066 -4.0330 -0.3279
  979MOL0     H29218   9.287   9.741   3.655 -1.0426 -0.9627 -2.4727
  979MOL0     H29219   9.213   9.587   3.673  2.5398 -1.0909  0.7831
  979MOL0     H29220   9.430   9.561   3.734 -0.0837 -0.3749  0.7788
  979MOL0     H29221   9.438   9.680   3.860 -0.3886  0.9476 -0.5466
  979MOL0     H29222   9.257   9.427   3.862 -1.7064  0.3079 -0.3633
  979MOL0     H29223   9.237   9.559   3.980 -0.0242 -0.1925  0.1922
  979MOL0     H29224   9.490   9.517   4.040  0.4536  0.4062 -1.6187
  979MOL0     H29225   9.369   9.397   4.085  0.1707 -1.8879 -0.7115
  979MOL0     H29226   9.623   9.220   3.782  1.4413  0.5910  0.3602
  979MOL0     H29227   9.036   9.681   3.594 -0.1952  0.9083 -0.4034
  979MOL0     H29228   8.780   9.706   3.557 -1.2690  1.7384 -0.3571
  980MOL0     O29229   2.781   8.814   1.676  0.2803 -0.3304  0.6710
  980MOL0     C29230   2.743   8.712   1.621 -0.3816 -0.7458 -0.5887
  980MOL0     O29231   2.791   8.592   1.651  0.1060 -0.4460  0.6972
  980MOL0     C29232   2.894   8.587   1.739 -0.0401 -0.2092 -0.4040
  980MOL0     C29233   2.884   8.619   1.879 -0.2251  1.2050 -0.4479
  980MOL0     C29234   2.995   8.624   1.962  0.1435  0.0258  0.4340
  980MOL0     C29235   3.116   8.587   1.923 -0.6830 -0.8109  1.2155
  980MOL0     O29236   3.207   8.586   2.023 -0.3526  0.6036 -0.4007
  980MOL0     C29237   3.333   8.545   1.990 -0.7267 -0.2222  0.1366
  980MOL0     C29238   3.416   8.540   2.120  1.1217 -0.0263  0.3837
  980MOL0     C29239   3.566   8.548   2.104  0.0901 -0.9445 -0.7704
  980MOL0     C29240   3.642   8.561   2.238  0.5700  0.0922 -0.1304
  980MOL0     C29241   3.790   8.582   2.210  0.0119 -0.3109  0.1395
  980MOL0     C29242   3.865   8.673   2.307  0.8207 -0.2389  0.4609
  980MOL0     C29243   4.008   8.718   2.258  1.3484  0.0013 -0.3470
  980MOL0     C29244   4.102   8.602   2.262  0.5273 -0.4732  0.0341
  980MOL0     N29245   4.235   8.639   2.206  0.5487 -0.1464  1.4325
  980MOL0     C29246   4.353   8.608   2.268 -0.0954  0.6725  0.0131
  980MOL0     C29247   4.449   8.639   2.180  0.7401 -0.0752 -0.6074
  980MOL0     C29248   4.600   8.619   2.217  0.5825  0.9634 -0.7692
  980MOL0     C29249   4.647   8.477   2.181 -0.1373 -0.8495 -0.8620
  980MOL0     C29250   4.681   8.437   2.041 -0.2540 -1.1391  0.4640
  980MOL0     C29251   4.727   8.564   1.963  0.2790  0.0273 -0.1940
  980MOL0     O29252   4.757   8.521   1.831 -0.2017  0.2791 -0.4389
  980MOL0     C29253   4.657   8.494   1.740 -0.1709  0.6424  0.5738
  980MOL0     C29254   4.693   8.423   1.627 -0.1624  0.3517 -0.0722
  980MOL0     C29255   4.614   8.393   1.516  0.8459  0.3080  0.2383
  980MOL0     C29256   4.476   8.420   1.535  1.5481  0.4293  0.0150
  980MOL0     C29257   4.370   8.374   1.438  0.9910 -0.2340  0.3621
  980MOL0     O29258   4.408   8.316   1.315  0.0908 -0.2209 -0.4110
  980MOL0     C29259   4.330   8.306   1.205  0.0248 -0.0209 -0.5096
  980MOL0     C29260   4.370   8.342   1.081 -0.5210 -0.2187 -0.2363
  980MOL0     C29261   4.293   8.313   0.973  0.8041 -0.1797 -0.0663
  980MOL0     C29262   4.155   8.275   0.983 -0.6488  0.7786  0.8876
  980MOL0     O29263   4.075   8.245   0.874 -0.4014  0.0067 -0.4192
  980MOL0     C29264   4.100   8.323   0.755 -0.8423  0.8606  0.2536
  980MOL0     C29265   3.993   8.306   0.646 -0.7486  0.2926 -0.1159
  980MOL0     C29266   3.993   8.154   0.612  0.0921 -0.5593  0.3428
  980MOL0     C29267   3.887   8.132   0.497 -0.2540 -0.2227  0.3276
  980MOL0     C29268   3.739   8.125   0.547  0.1205 -0.1904  1.0189
  980MOL0     C29269   3.641   8.051   0.449 -0.1110  0.2990  0.8210
  980MOL0     C29270   3.648   8.119   0.315 -0.6076  0.0686 -0.2115
  980MOL0     C29271   3.528   8.096   0.230 -0.8084  0.4937 -0.2290
  980MOL0    Cl29272   3.508   7.925   0.179  0.1763  0.1904  0.5846
  980MOL0     C29273   4.116   8.238   1.105  0.3986 -0.4157  0.5307
  980MOL0     C29274   4.199   8.258   1.214 -0.4583  0.4089  0.0481
  980MOL0     O29275   4.246   8.391   1.472 -0.0574  0.6509  0.3716
  980MOL0     C29276   4.437   8.505   1.651 -0.4524  0.0709  0.1891
  980MOL0     C29277   4.529   8.527   1.755 -1.2584 -0.0034  0.6707
  980MOL0     N29278   4.392   8.695   2.074  0.4530  0.3127  0.0765
  980MOL0     N29279   4.264   8.674   2.078  0.4024  0.2257 -0.6962
  980MOL0     C29280   3.133   8.558   1.788 -0.1914 -0.8815  0.6548
  980MOL0     C29281   3.028   8.569   1.694 -0.0853 -0.7869 -0.1575
  980MOL0     C29282   2.632   8.734   1.526  0.7014  0.3343 -0.6715
  980MOL0     C29283   2.643   8.849   1.448  0.6410 -0.7636 -0.4015
  980MOL0     C29284   2.545   8.876   1.356 -0.3515 -0.7809  0.4949
  980MOL0     C29285   2.453   8.776   1.323  0.6539  0.0520 -0.8651
  980MOL0     O29286   2.349   8.793   1.229 -0.9508  0.0644  0.3075
  980MOL0     C29287   2.293   8.913   1.184  0.0449  0.6551  0.1897
  980MOL0     C29288   2.130   8.908   1.198 -0.3746 -0.5368 -0.1771
  980MOL0     C29289   2.088   8.874   1.342 -0.0371  0.9089 -0.4383
  980MOL0     C29290   2.104   8.990   1.441 -0.0226  0.5643  0.2034
  980MOL0     C29291   1.997   9.082   1.416 -0.3198  0.0962 -0.4122
  980MOL0     C29292   1.905   9.161   1.396  0.0735  0.0385 -0.2515
  980MOL0     C29293   2.459   8.651   1.384  0.0208 -0.2051 -0.6511
  980MOL0     C29294   2.535   8.630   1.499 -0.0741 -0.0508  0.1742
  980MOL0     H29295   2.782   8.629   1.914 -0.8403  0.1188 -1.7895
  980MOL0     H29296   2.994   8.665   2.063  2.6647 -0.8818  0.8823
  980MOL0     H29297   3.371   8.621   1.921 -2.1457 -0.6321 -1.1525
  980MOL0     H29298   3.344   8.455   1.930  1.0908  1.1224 -1.7011
  980MOL0     H29299   3.394   8.450   2.178  1.1013 -1.0541 -1.1642
  980MOL0     H29300   3.384   8.624   2.182 -0.6186  0.4721 -1.0858
  980MOL0     H29301   3.585   8.636   2.042 -0.1243  0.5176  1.1407
  980MOL0     H29302   3.612   8.465   2.050  2.1996 -2.5898  3.1513
  980MOL0     H29303   3.609   8.653   2.288 -1.2483  0.6120 -2.1388
  980MOL0     H29304   3.624   8.472   2.299  2.6094 -0.2084  0.1035
  980MOL0     H29305   3.802   8.634   2.115  0.5283 -3.0054 -1.3706
  980MOL0     H29306   3.839   8.484   2.208  1.7684  0.4111  2.4325
  980MOL0     H29307   3.862   8.626   2.405  2.3726  1.0635  1.1840
  980MOL0     H29308   3.814   8.766   2.334 -1.8167 -1.0477 -1.4045
  980MOL0     H29309   4.002   8.756   2.156 -1.8655 -0.5989 -0.5090
  980MOL0     H29310   4.045   8.803   2.316  0.1786  0.5424 -0.3687
  980MOL0     H29311   4.059   8.530   2.191  0.0571 -2.0153  1.7992
  980MOL0     H29312   4.125   8.555   2.357 -0.6264 -1.3574 -0.1006
  980MOL0     H29313   4.379   8.566   2.365  0.8909  0.6666 -0.2384
  980MOL0     H29314   4.622   8.632   2.323 -1.5641  1.1194 -0.2842
  980MOL0     H29315   4.657   8.694   2.161  3.1666  2.0478  2.9717
  980MOL0     H29316   4.575   8.404   2.218  2.2888 -3.3761 -0.8326
  980MOL0     H29317   4.729   8.454   2.250 -1.2454 -1.6886  0.2317
  980MOL0     H29318   4.767   8.370   2.049 -0.4071 -1.3792  0.0808
  980MOL0     H29319   4.597   8.392   1.988  1.5405 -3.3821 -0.6656
  980MOL0     H29320   4.820   8.605   2.004  0.4617 -1.3694  0.8449
  980MOL0     H29321   4.648   8.640   1.959 -1.3555 -1.5956  0.0051
  980MOL0     H29322   4.801   8.408   1.618  0.0072  1.2198  0.3792
  980MOL0     H29323   4.636   8.343   1.422  0.0180 -1.8762  1.1381
  980MOL0     H29324   4.466   8.389   1.061 -1.0642  0.5444 -1.0392
  980MOL0     H29325   4.338   8.339   0.878  2.8528 -2.9523  0.0167
  980MOL0     H29326   4.200   8.294   0.725 -1.1950 -1.6953  1.2709
  980MOL0     H29327   4.105   8.427   0.790 -0.1240  1.4372 -1.4640
  980MOL0     H29328   4.027   8.373   0.566  0.6093  1.5976  1.4839
  980MOL0     H29329   3.897   8.340   0.684  1.3347  2.1789  4.1226
  980MOL0     H29330   3.975   8.079   0.690  1.7765 -3.2245 -1.6457
  980MOL0     H29331   4.092   8.125   0.575 -0.0180  1.6617 -1.9715
  980MOL0     H29332   3.900   8.209   0.420  1.6905 -0.3043  0.5294
  980MOL0     H29333   3.916   8.035   0.455  1.0488 -1.3737  3.5755
  980MOL0     H29334   3.707   8.228   0.567 -3.1063 -0.5045 -1.7235
  980MOL0     H29335   3.755   8.081   0.646  2.7147 -1.5160  0.1215
  980MOL0     H29336   3.543   8.064   0.495 -0.4459 -0.1097  0.2386
  980MOL0     H29337   3.671   7.947   0.436  0.6986  0.5356  0.6982
  980MOL0     H29338   3.669   8.226   0.321  1.7017 -0.4164  4.1969
  980MOL0     H29339   3.741   8.081   0.272  0.2350 -0.0938  1.6760
  980MOL0     H29340   3.547   8.161   0.144 -0.2671  0.7974  0.1134
  980MOL0     H29341   3.443   8.134   0.287 -2.3045 -1.6716 -0.9118
  980MOL0     H29342   4.014   8.204   1.120 -0.0278  0.2788 -0.6656
  980MOL0     H29343   4.158   8.229   1.310  2.2606  0.2803  1.2619
  980MOL0     H29344   4.334   8.539   1.663 -0.7994  0.1717 -2.4193
  980MOL0     H29345   4.496   8.591   1.836  1.8344  3.7586 -0.7197
  980MOL0     H29346   3.229   8.532   1.745 -1.4098  0.0642 -3.0541
  980MOL0     H29347   3.047   8.555   1.589  2.1560  0.6108 -0.0015
  980MOL0     H29348   2.721   8.923   1.465 -1.8561  2.1624 -0.8905
  980MOL0     H29349   2.543   8.966   1.296 -2.8461 -3.7130 -4.4702
  980MOL0     H29350   2.317   8.916   1.078 -3.1164  0.5946 -0.6393
  980MOL0     H29351   2.333   9.004   1.229  1.3360 -0.7012  1.9298
  980MOL0     H29352   2.094   9.010   1.183  2.7100  1.0607  2.1343
  980MOL0     H29353   2.088   8.840   1.123 -1.3728 -1.0209  0.7944
  980MOL0     H29354   2.143   8.786   1.377 -3.2371 -1.3325 -0.5794
  980MOL0     H29355   1.980   8.856   1.350 -0.1159  1.3465 -0.4957
  980MOL0     H29356   2.097   8.956   1.544 -2.0336 -0.5188 -0.2363
  980MOL0     H29357   2.203   9.034   1.425  0.7261 -1.3514 -0.8349
  980MOL0     H29358   1.825   9.232   1.399  0.2074  0.3861  5.3955
  980MOL0     H29359   2.395   8.574   1.342 -2.7189  1.3462  0.3949
  980MOL0     H29360   2.524   8.537   1.554  2.0976  1.6301  3.8427
  981MOL0     O29361   2.084   6.479  10.631 -0.7644 -0.5254  0.0984
  981MOL0     C29362   2.109   6.570  10.551 -0.2431  0.0319 -1.4678
  981MOL0     O29363   2.132   6.701  10.583 -0.9616  0.1080  0.2336
  981MOL0     C29364   2.145   6.737  10.716 -0.8577  0.5515  0.0466
  981MOL0     C29365   2.219   6.851  10.741 -0.0712  0.3948 -0.2861
  981MOL0     C29366   2.234   6.899  10.870  0.6153 -0.3137  0.5555
  981MOL0     C29367   2.178   6.829  10.974  0.7687 -0.6080 -0.0436
  981MOL0     O29368   2.215   6.849  11.109 -0.2025 -0.6776  0.1757
  981MOL0     C29369   2.144   6.929  11.203  0.7893  0.5807 -0.0904
  981MOL0     C29370   2.141   7.076  11.168 -0.2704  0.4227 -0.3687
  981MOL0     C29371   2.286   7.140  11.179 -0.0738  0.4429 -0.6075
  981MOL0     C29372   2.264   7.288  11.122 -0.1657 -0.1033  0.1347
  981MOL0     C29373   2.372   7.391  11.155  0.1942  0.0145  0.1527
  981MOL0     C29374   2.391   7.429  11.298 -0.0004 -0.0602  0.3461
  981MOL0     C29375   2.266   7.503  11.355  0.1053  0.9466  0.5013
  981MOL0     C29376   2.270   7.581  11.494  0.0025  0.5620 -0.2792
  981MOL0     N29377   2.391   7.536  11.566 -0.3428 -0.2273  0.4979
  981MOL0     C29378   2.386   7.465  11.686 -0.0988 -0.0252  0.4777
  981MOL0     C29379   2.487   7.520  11.760  0.5919 -0.2488  0.4822
  981MOL0     C29380   2.520   7.494  11.897 -0.6553  0.7147  0.1441
  981MOL0     C29381   2.406   7.536  11.998 -0.2064  0.3659  0.0238
  981MOL0     C29382   2.336   7.677  11.981  0.7788  0.4011 -1.3444
  981MOL0     C29383   2.415   7.768  12.074 -0.3615 -0.0392  0.5966
  981MOL0     O29384   2.381   7.901  12.025  0.0370 -0.6340  0.2221
  981MOL0     C29385   2.465   8.007  12.063 -1.0751  0.5814 -0.8178
  981MOL0     C29386   2.586   7.988  12.135 -0.9134  0.9743  0.3788
  981MOL0     C29387   2.657   8.106  12.181  0.0965 -0.7946 -0.4553
  981MOL0     C29388   2.617   8.238  12.141  0.0429  0.2959  0.0086
  981MOL0     C29389   2.692   8.362  12.169  0.1023 -0.2538 -0.1820
  981MOL0     O29390   2.784   8.341  12.266 -0.9494 -0.0606  1.0480
  981MOL0     C29391   2.891   8.417  12.293  0.3501  0.5870  0.0630
  981MOL0     C29392   2.976   8.391  12.411  0.4626  0.8341 -0.2526
  981MOL0     C29393   3.100   8.461  12.426 -0.7371  0.4691  0.3706
  981MOL0     C29394   3.145   8.537  12.319  0.2512  0.1277  0.3617
  981MOL0     O29395   3.267   8.599  12.327  0.7819 -0.4846  0.3382
  981MOL0     C29396   3.323   8.680  12.221 -0.3111  0.6138  0.0945
  981MOL0     C29397   3.457   8.734  12.282  0.1157  0.0971 -0.1854
  981MOL0     C29398   3.523   8.847  12.201  0.8612 -0.6481 -0.2864
  981MOL0     C29399   3.461   8.986  12.200 -0.5558  0.0312  0.0848
  981MOL0     C29400   3.571   9.085  12.224  0.4023 -0.9950 -0.4610
  981MOL0     C29401   3.532   9.228  12.207 -0.1011 -0.5095  0.2256
  981MOL0     C29402   3.651   9.320  12.216  0.6273  1.0852  0.2212
  981MOL0     C29403   3.625   9.463  12.203  0.9205  0.4175  0.5224
  981MOL0    Cl29404   3.511   9.523  12.318  0.1616 -0.2349 -0.2650
  981MOL0     C29405   3.065   8.556  12.206 -0.4130 -0.4527  0.5727
  981MOL0     C29406   2.938   8.504  12.193  0.4335  0.0267 -0.7653
  981MOL0     O29407   2.670   8.466  12.099  0.3390  0.3981 -0.3417
  981MOL0     C29408   2.507   8.248  12.058  0.4738 -0.2202  0.6871
  981MOL0     C29409   2.427   8.136  12.023  0.3897 -0.1234 -0.7534
  981MOL0     N29410   2.556   7.605  11.681  0.0448 -0.9255  0.4188
  981MOL0     N29411   2.506   7.605  11.564  0.6813  0.7041  0.1391
  981MOL0     C29412   2.089   6.735  10.951  0.8840 -0.3199 -1.0535
  981MOL0     C29413   2.074   6.681  10.824 -0.4027 -0.6617  0.5775
  981MOL0     C29414   2.129   6.532  10.408 -1.1173 -0.5129  0.5999
  981MOL0     C29415   2.112   6.397  10.375  0.4460  0.3013  0.7066
  981MOL0     C29416   2.118   6.359  10.239  0.6588  0.1611 -0.8595
  981MOL0     C29417   2.150   6.450  10.139  0.1032  0.1619 -0.1574
  981MOL0     O29418   2.160   6.411  10.010  0.4262  0.5485  0.4914
  981MOL0     C29419   2.090   6.485   9.913  0.2266  0.4367  0.0246
  981MOL0     C29420   2.055   6.387   9.802  0.1681  0.1982 -0.5204
  981MOL0     C29421   1.927   6.313   9.823  0.9097  0.1561 -0.0312
  981MOL0     C29422   1.910   6.196   9.729 -1.1272 -0.5000 -0.6091
  981MOL0     C29423   1.802   6.115   9.765 -0.7125  0.1646 -0.2096
  981MOL0     C29424   1.731   6.028   9.806  0.1713 -0.3932  0.3521
  981MOL0     C29425   2.156   6.585  10.169 -0.7095 -0.6010  0.4045
  981MOL0     C29426   2.140   6.628  10.305  0.1239 -0.0989  0.0867
  981MOL0     H29427   2.265   6.901  10.657  1.2855 -1.0595 -0.4475
  981MOL0     H29428   2.292   6.989  10.887 -0.0545  0.8686 -2.6717
  981MOL0     H29429   2.179   6.919  11.306  0.3355 -1.3393 -0.0728
  981MOL0     H29430   2.037   6.909  11.200  0.8621  0.1368 -3.2198
  981MOL0     H29431   2.067   7.121  11.234  1.4138 -0.3830  2.2493
  981MOL0     H29432   2.101   7.079  11.066  0.8372  1.1714 -0.8090
  981MOL0     H29433   2.351   7.071  11.126 -0.4470 -1.7269  1.5563
  981MOL0     H29434   2.309   7.152  11.285  1.8259  3.4335 -1.2350
  981MOL0     H29435   2.243   7.289  11.015  1.4569  0.7560 -0.2073
  981MOL0     H29436   2.176   7.329  11.172 -0.2060  0.5894 -0.5006
  981MOL0     H29437   2.333   7.482  11.110 -4.4686 -2.7841 -2.2274
  981MOL0     H29438   2.466   7.375  11.100  0.1074  1.5614 -0.4806
  981MOL0     H29439   2.479   7.492  11.309  0.5136 -0.6979 -0.0559
  981MOL0     H29440   2.426   7.344  11.356 -0.6411 -0.5614  0.0100
  981MOL0     H29441   2.249   7.569  11.269  2.0694 -1.2837 -1.7681
  981MOL0     H29442   2.179   7.437  11.350 -1.9458  3.5529 -2.4262
  981MOL0     H29443   2.173   7.570  11.543 -0.4874  1.4150 -1.0491
  981MOL0     H29444   2.281   7.686  11.466  2.5533  0.1172 -1.2148
  981MOL0     H29445   2.311   7.396  11.722  1.5749 -0.8076  2.6644
  981MOL0     H29446   2.618   7.532  11.924  0.2161 -1.8416  0.8516
  981MOL0     H29447   2.525   7.385  11.902 -4.5739  0.4171  3.2030
  981MOL0     H29448   2.458   7.528  12.094  0.7746  0.7928 -0.4602
  981MOL0     H29449   2.337   7.451  12.001 -0.3375  0.0489 -4.4024
  981MOL0     H29450   2.335   7.715  11.878  0.1230  1.4228 -0.9800
  981MOL0     H29451   2.230   7.676  12.009  1.0312  2.3000 -0.1619
  981MOL0     H29452   2.522   7.753  12.056 -0.0122  0.0701  2.4469
  981MOL0     H29453   2.406   7.745  12.180  0.2672 -1.4623  0.3554
  981MOL0     H29454   2.629   7.896  12.172 -1.5311  1.4716  2.5466
  981MOL0     H29455   2.750   8.105  12.237  0.8712  1.2602 -1.6023
  981MOL0     H29456   2.950   8.319  12.489  2.6667 -1.0223 -1.1240
  981MOL0     H29457   3.174   8.428  12.498  1.4687  0.8886 -1.5884
  981MOL0     H29458   3.258   8.766  12.202 -2.2062 -0.9234 -0.7326
  981MOL0     H29459   3.356   8.615  12.139 -1.2194 -1.4683  1.2852
  981MOL0     H29460   3.537   8.663  12.304  0.8971  1.5723  2.1718
  981MOL0     H29461   3.434   8.765  12.385  1.8810 -2.0041  0.9303
  981MOL0     H29462   3.540   8.808  12.100  1.6156 -0.3756 -0.2710
  981MOL0     H29463   3.626   8.856  12.237  1.0754 -1.2194 -0.7431
  981MOL0     H29464   3.406   9.016  12.110  3.9662  1.3887 -2.5660
  981MOL0     H29465   3.396   8.975  12.287 -1.0890  1.0031 -0.1743
  981MOL0     H29466   3.644   9.084  12.143  1.3406  0.3115  0.3129
  981MOL0     H29467   3.622   9.063  12.319  0.8589  4.1776  0.8014
  981MOL0     H29468   3.461   9.250  12.287 -0.6464 -0.0823 -0.3762
  981MOL0     H29469   3.468   9.227  12.119 -1.1675 -1.4816  0.9830
  981MOL0     H29470   3.690   9.293  12.314 -2.6367 -1.6697  0.9434
  981MOL0     H29471   3.712   9.280  12.134 -1.7383 -4.4529  0.7038
  981MOL0     H29472   3.589   9.480  12.102  0.6685 -0.6534  0.4131
  981MOL0     H29473   3.721   9.512  12.220  0.1645  2.2302 -0.2676
  981MOL0     H29474   3.097   8.620  12.124  0.1481  0.5448  1.5367
  981MOL0     H29475   2.879   8.530  12.106  1.0152  1.0331 -0.8753
  981MOL0     H29476   2.471   8.344  12.023  1.3349 -0.5232 -1.1801
  981MOL0     H29477   2.331   8.153  11.975  0.1285 -2.0570 -0.9806
  981MOL0     H29478   2.044   6.702  11.044  1.6856 -1.0918 -0.9281
  981MOL0     H29479   1.999   6.604  10.824 -1.3585  0.2220  1.8624
  981MOL0     H29480   2.080   6.330  10.454  2.5019 -0.1099  1.2291
  981MOL0     H29481   2.092   6.257  10.216  3.8812 -0.6529 -1.4106
  981MOL0     H29482   2.153   6.568   9.881  2.8765 -0.2286  2.9997
  981MOL0     H29483   1.995   6.513   9.960  1.4869  0.5878  2.6621
  981MOL0     H29484   2.040   6.441   9.708 -0.3071  0.3551 -0.3598
  981MOL0     H29485   2.137   6.316   9.786  0.3948  0.1262  0.8620
  981MOL0     H29486   1.842   6.382   9.819  1.2985  1.1747  4.0797
  981MOL0     H29487   1.920   6.276   9.926 -1.9056  0.2837 -0.0923
  981MOL0     H29488   1.884   6.234   9.630  0.1519  0.8921 -0.4632
  981MOL0     H29489   1.997   6.129   9.729  0.6087  1.6142 -0.1276
  981MOL0     H29490   1.669   5.952   9.849 -1.6759  0.1376 -1.2323
  981MOL0     H29491   2.186   6.660  10.097 -1.9325  1.5911  2.0753
  981MOL0     H29492   2.148   6.732  10.334  2.6947 -0.7422  2.1299
  982MOL0     O29493   7.042   5.262   6.468  0.2748 -0.3204 -0.4054
  982MOL0     C29494   7.105   5.175   6.404  0.2765 -0.1000 -1.9952
  982MOL0     O29495   7.064   5.034   6.406 -0.4460 -0.4885  1.0935
  982MOL0     C29496   6.955   5.000   6.466  0.4545 -0.5360  0.9572
  982MOL0     C29497   6.860   4.929   6.385 -0.2738 -0.8122 -0.2812
  982MOL0     C29498   6.744   4.885   6.438 -0.3267  0.6316  0.3598
  982MOL0     C29499   6.728   4.905   6.580  0.6654 -0.2449 -0.0570
  982MOL0     O29500   6.615   4.869   6.652 -0.1935  0.2223 -0.2559
  982MOL0     C29501   6.492   4.866   6.576  1.1273  0.0267 -0.0679
  982MOL0     C29502   6.381   4.804   6.665 -1.1038 -0.2016 -0.1077
  982MOL0     C29503   6.249   4.794   6.593 -0.3834  0.6910 -0.5387
  982MOL0     C29504   6.134   4.737   6.678  1.0909 -0.0009 -0.2104
  982MOL0     C29505   6.143   4.586   6.707 -0.5226  0.8804 -0.7034
  982MOL0     C29506   6.171   4.481   6.594  0.4135  0.6745 -0.3193
  982MOL0     C29507   6.172   4.333   6.651 -0.2629  0.0693 -0.5211
  982MOL0     C29508   6.182   4.225   6.553 -0.1222  1.1300 -0.3058
  982MOL0     N29509   6.186   4.094   6.620  0.2643  0.2517  0.0478
  982MOL0     C29510   6.086   4.024   6.684 -0.0115  0.5179 -0.5094
  982MOL0     C29511   6.128   3.904   6.717  0.2105  0.4011 -0.6686
  982MOL0     C29512   6.036   3.784   6.763  0.2204  0.3919 -0.3474
  982MOL0     C29513   5.950   3.730   6.654 -0.0704 -0.0100  0.0035
  982MOL0     C29514   6.014   3.607   6.584  0.2852  0.1962  0.0096
  982MOL0     C29515   6.135   3.612   6.503 -0.3566  0.0607  0.6005
  982MOL0     O29516   6.201   3.483   6.507 -0.2549 -0.3209 -0.3835
  982MOL0     C29517   6.339   3.475   6.491 -0.3041  0.1908 -0.4077
  982MOL0     C29518   6.382   3.375   6.402 -0.0493 -0.3355  0.3686
  982MOL0     C29519   6.517   3.363   6.379 -0.2608  0.4296  0.9976
  982MOL0     C29520   6.609   3.413   6.473  1.3110  1.3678  0.0860
  982MOL0     C29521   6.751   3.391   6.462  0.2074 -0.8556  0.1424
  982MOL0     O29522   6.805   3.355   6.341  0.3665  0.0620 -0.2360
  982MOL0     C29523   6.921   3.404   6.317  0.7120 -0.4159  0.4013
  982MOL0     C29524   7.040   3.327   6.300 -0.0503  0.3783  0.7753
  982MOL0     C29525   7.155   3.379   6.236 -0.3382 -0.5729 -0.5244
  982MOL0     C29526   7.163   3.508   6.193 -0.1030 -0.0900  0.5746
  982MOL0     O29527   7.284   3.549   6.135  0.2689 -1.0735 -0.3494
  982MOL0     C29528   7.259   3.628   6.015  0.4881 -0.0220  0.3211
  982MOL0     C29529   7.394   3.675   5.969  0.4126 -0.5324  0.5703
  982MOL0     C29530   7.479   3.757   6.066 -0.0664 -0.4251 -0.3611
  982MOL0     C29531   7.421   3.893   6.115 -0.0212  0.0479 -0.4332
  982MOL0     C29532   7.528   3.953   6.206 -0.3165 -0.0315  0.5987
  982MOL0     C29533   7.493   4.089   6.251 -0.4142 -0.3404 -0.6372
  982MOL0     C29534   7.449   4.183   6.138 -0.0100 -0.3713 -0.2220
  982MOL0     C29535   7.457   4.326   6.190  0.5396  0.1450  0.0797
  982MOL0    Cl29536   7.630   4.382   6.166  0.3795  0.2437  0.3122
  982MOL0     C29537   7.051   3.590   6.216  0.1381 -0.7776 -0.5220
  982MOL0     C29538   6.935   3.540   6.278 -0.4297 -0.2813  0.9184
  982MOL0     O29539   6.813   3.413   6.561  0.8527  0.2120 -0.0959
  982MOL0     C29540   6.560   3.503   6.575 -0.1010 -0.3202  0.3565
  982MOL0     C29541   6.425   3.534   6.580  0.0623  0.4379  0.5845
  982MOL0     N29542   6.258   3.891   6.660 -0.6869  0.5196  0.0933
  982MOL0     N29543   6.290   4.006   6.604  0.3082 -0.8134  0.1703
  982MOL0     C29544   6.832   4.950   6.657  0.6937 -0.3440  0.2809
  982MOL0     C29545   6.948   5.002   6.606  0.0715 -0.4896  0.5803
  982MOL0     C29546   7.217   5.219   6.323  0.1430  0.2276 -0.0352
  982MOL0     C29547   7.265   5.350   6.336  0.8764 -1.6237  0.8565
  982MOL0     C29548   7.388   5.387   6.281  0.5323  0.2535  0.0817
  982MOL0     C29549   7.457   5.288   6.198 -0.5982  0.1255  0.0650
  982MOL0     O29550   7.570   5.347   6.151 -0.5319 -0.0721  0.4063
  982MOL0     C29551   7.665   5.256   6.100 -1.1365  0.7330 -0.1616
  982MOL0     C29552   7.769   5.304   6.004 -0.0199  0.2737  0.0081
  982MOL0     C29553   7.857   5.413   6.065 -0.0026  1.0414 -1.0980
  982MOL0     C29554   7.972   5.453   5.973 -0.1308 -0.3058 -0.5430
  982MOL0     C29555   7.907   5.516   5.852 -0.0771 -0.7631  0.0241
  982MOL0     C29556   7.861   5.559   5.743 -0.7153  0.1077 -0.1483
  982MOL0     C29557   7.400   5.161   6.173 -0.2177  0.2853 -0.5597
  982MOL0     C29558   7.283   5.122   6.241 -1.1991  0.0251 -0.0242
  982MOL0     H29559   6.885   4.939   6.280 -2.1700 -0.4435 -0.7307
  982MOL0     H29560   6.678   4.828   6.373  0.1193  2.2058 -1.5726
  982MOL0     H29561   6.503   4.808   6.483 -2.6879 -0.6416 -0.2844
  982MOL0     H29562   6.460   4.966   6.548  0.6352 -0.3813 -1.0392
  982MOL0     H29563   6.373   4.849   6.765 -1.9726  1.1403 -0.7597
  982MOL0     H29564   6.418   4.701   6.676 -3.3617 -0.9044  1.6143
  982MOL0     H29565   6.263   4.734   6.502  2.7680 -0.8301  0.7892
  982MOL0     H29566   6.209   4.887   6.552  0.6722 -0.3680 -4.4861
  982MOL0     H29567   6.114   4.797   6.768  1.1866 -1.1951  0.6311
  982MOL0     H29568   6.038   4.750   6.627  1.7969  0.4724 -1.4471
  982MOL0     H29569   6.051   4.561   6.761 -1.4250  0.4191 -2.4070
  982MOL0     H29570   6.224   4.574   6.780  0.0936 -0.1766 -1.5383
  982MOL0     H29571   6.265   4.505   6.544  1.1864 -3.2219 -1.0817
  982MOL0     H29572   6.097   4.503   6.517  1.4049 -0.2255 -1.5717
  982MOL0     H29573   6.261   4.326   6.715 -2.6386  1.4460  3.2519
  982MOL0     H29574   6.081   4.315   6.708 -0.1223  4.9304  1.7159
  982MOL0     H29575   6.284   4.237   6.516  2.2250 -2.9994  3.8050
  982MOL0     H29576   6.113   4.240   6.470 -1.5929 -1.6424  0.2897
  982MOL0     H29577   5.980   4.045   6.682 -1.4553 -5.0634 -2.3016
  982MOL0     H29578   5.973   3.805   6.850  0.5004 -1.8936  0.4704
  982MOL0     H29579   6.097   3.705   6.807  0.7657  2.2191  2.4762
  982MOL0     H29580   5.930   3.811   6.582 -0.0137  1.0305  1.1193
  982MOL0     H29581   5.853   3.707   6.700 -2.4746  3.8892 -2.4750
  982MOL0     H29582   6.028   3.528   6.659 -1.6209 -0.6238 -0.4209
  982MOL0     H29583   5.940   3.571   6.512  0.6056 -1.7992  0.6076
  982MOL0     H29584   6.205   3.681   6.552  0.8287 -0.2643 -0.5787
  982MOL0     H29585   6.115   3.639   6.399 -0.4588 -2.4072 -0.0716
  982MOL0     H29586   6.317   3.317   6.337  1.0211  0.1579 -1.2113
  982MOL0     H29587   6.540   3.295   6.298 -2.7215 -0.0337  0.5854
  982MOL0     H29588   7.042   3.221   6.324  3.0015 -0.1729 -1.2802
  982MOL0     H29589   7.247   3.321   6.227  2.6633  3.6028  0.1523
  982MOL0     H29590   7.205   3.721   6.034  2.2755  1.0494  0.3783
  982MOL0     H29591   7.196   3.576   5.942 -0.8243  0.1196  1.3056
  982MOL0     H29592   7.402   3.730   5.874  1.8523  1.3920  1.7308
  982MOL0     H29593   7.444   3.580   5.949 -1.9917 -1.2376 -3.2196
  982MOL0     H29594   7.566   3.780   6.003 -0.1326  0.0333 -0.2861
  982MOL0     H29595   7.501   3.696   6.154  0.6599  1.1172  0.5751
  982MOL0     H29596   7.393   3.946   6.023  2.4294 -1.1818 -1.9747
  982MOL0     H29597   7.335   3.878   6.181  1.6594 -2.8411  1.2787
  982MOL0     H29598   7.619   3.976   6.149 -0.9820  0.5774 -0.2382
  982MOL0     H29599   7.548   3.891   6.294  0.6809  1.2783  1.3423
  982MOL0     H29600   7.585   4.127   6.297 -1.5586  0.9580  0.6698
  982MOL0     H29601   7.420   4.078   6.332  1.5342  1.8975  1.6265
  982MOL0     H29602   7.500   4.177   6.042  2.1445 -0.1971  0.8465
  982MOL0     H29603   7.342   4.170   6.123 -0.6748  1.8070  1.9443
  982MOL0     H29604   7.425   4.337   6.294 -3.3341 -0.6207 -0.8717
  982MOL0     H29605   7.396   4.386   6.121  1.3199 -1.9516 -2.5887
  982MOL0     H29606   7.052   3.694   6.185  2.9600  0.5997  3.3750
  982MOL0     H29607   6.846   3.603   6.275 -1.1138 -1.1748  1.7948
  982MOL0     H29608   6.629   3.558   6.638 -1.8016  1.0907  1.0925
  982MOL0     H29609   6.390   3.617   6.640 -0.4798  2.8213 -2.7490
  982MOL0     H29610   6.814   4.953   6.764  5.5853  3.6081  1.3993
  982MOL0     H29611   7.035   5.030   6.664  0.7156 -3.5449  1.2378
  982MOL0     H29612   7.224   5.433   6.392 -0.1591 -1.4322 -0.1570
  982MOL0     H29613   7.427   5.486   6.300  0.2011  0.4111 -0.0649
  982MOL0     H29614   7.612   5.187   6.033  0.6292 -1.4071  0.5297
  982MOL0     H29615   7.705   5.219   6.194 -1.6029  1.4180  0.3210
  982MOL0     H29616   7.825   5.220   5.962  1.0481  2.0461 -2.4060
  982MOL0     H29617   7.716   5.341   5.916  0.7947 -2.7419 -1.9315
  982MOL0     H29618   7.895   5.371   6.159 -0.8892  1.9357 -0.3150
  982MOL0     H29619   7.806   5.504   6.098 -0.4929 -0.2698  2.1360
  982MOL0     H29620   8.037   5.527   6.020  0.6649  2.0833 -4.9274
  982MOL0     H29621   8.029   5.362   5.954  3.1846  1.4680  0.2378
  982MOL0     H29622   7.823   5.619   5.663  0.2811  1.6501  0.4803
  982MOL0     H29623   7.451   5.085   6.115  1.7185  1.3349 -0.3437
  982MOL0     H29624   7.237   5.023   6.242 -0.5240 -0.3214  2.4414
  983MOL0     O29625  10.515   5.530  10.442 -0.8999 -0.0745  1.0270
  983MOL0     C29626  10.602   5.571  10.363 -0.2205 -0.8052 -0.1525
  983MOL0     O29627  10.732   5.527  10.372 -0.1143 -0.6363 -0.2647
  983MOL0     C29628  10.790   5.458  10.484 -0.8923  0.2457  0.2678
  983MOL0     C29629  10.905   5.390  10.448 -0.7084 -0.6570 -0.4155
  983MOL0     C29630  10.984   5.324  10.539 -0.7693 -0.3745 -0.9046
  983MOL0     C29631  10.939   5.316  10.675  1.2279  0.6967  0.1699
  983MOL0     O29632  11.012   5.253  10.769 -0.3010  0.4339 -0.5347
  983MOL0     C29633  11.135   5.194  10.733  0.9785 -0.2626  0.1325
  983MOL0     C29634  11.200   5.138  10.855  0.2231  0.3206  0.0030
  983MOL0     C29635  11.347   5.090  10.830 -0.0147 -0.2269 -0.2212
  983MOL0     C29636  11.421   5.049  10.954 -0.2538  0.8315  0.5430
  983MOL0     C29637  11.569   5.036  10.922 -0.0352 -0.1534  0.4301
  983MOL0     C29638  11.649   5.000  11.051 -1.1243 -0.1197  0.0417
  983MOL0     C29639  11.626   4.857  11.095  0.2080  0.5443 -0.7357
  983MOL0     C29640  11.741   4.806  11.177  0.1128  0.0445 -0.4077
  983MOL0     N29641  11.850   4.775  11.081 -0.1948 -0.4822  0.0143
  983MOL0     C29642  11.955   4.850  11.046  0.0780 -0.2076 -0.3304
  983MOL0     C29643  12.010   4.784  10.946 -0.7816 -0.5129 -0.1839
  983MOL0     C29644  12.147   4.817  10.877  1.2669 -0.2691  0.4461
  983MOL0     C29645  12.122   4.900  10.747 -0.5262  0.3569  0.3179
  983MOL0     C29646  12.046   4.828  10.632 -0.1125 -0.1932  0.3627
  983MOL0     C29647  12.063   4.902  10.491  0.5178  0.3021 -0.0170
  983MOL0     O29648  11.950   4.865  10.412  0.3432 -0.4681  0.5469
  983MOL0     C29649  11.832   4.946  10.414 -0.7707  0.5304 -0.1324
  983MOL0     C29650  11.794   5.019  10.522  0.4929 -0.7590  0.2950
  983MOL0     C29651  11.649   5.057  10.530 -0.9983  0.4164 -1.0081
  983MOL0     C29652  11.564   5.017  10.433 -0.1849  0.4406 -0.3084
  983MOL0     C29653  11.421   5.044  10.427 -0.3351 -0.1737  0.2807
  983MOL0     O29654  11.342   4.977  10.335  0.4472 -0.5228  0.0584
  983MOL0     C29655  11.217   5.020  10.308  0.8570 -1.2427 -0.3976
  983MOL0     C29656  11.196   5.150  10.251 -0.4984 -0.1823  0.0504
  983MOL0     C29657  11.065   5.200  10.222  0.7287  0.9018  1.0855
  983MOL0     C29658  10.960   5.110  10.232  0.6685 -0.4088  0.0322
  983MOL0     O29659  10.837   5.140  10.187  0.1566  0.2386  0.4290
  983MOL0     C29660  10.716   5.092  10.258  0.3732  0.5237 -0.0135
  983MOL0     C29661  10.604   5.191  10.227 -0.1857 -1.3497  0.1076
  983MOL0     C29662  10.479   5.177  10.307  0.8544 -1.1432  0.5964
  983MOL0     C29663  10.502   5.192  10.460 -0.4343  0.6306 -0.0905
  983MOL0     C29664  10.376   5.235  10.527  0.3580  0.4433 -0.2750
  983MOL0     C29665  10.393   5.274  10.677  0.5696  0.7917 -0.2056
  983MOL0     C29666  10.268   5.333  10.745  0.3878  0.3230  1.3542
  983MOL0     C29667  10.279   5.300  10.891  0.8510  0.2359 -0.2279
  983MOL0    Cl29668  10.419   5.366  10.974 -0.3679  0.0160 -0.0371
  983MOL0     C29669  10.979   4.983  10.284  0.2661  0.5908  0.3448
  983MOL0     C29670  11.103   4.942  10.334  0.0667  0.1473 -0.3700
  983MOL0     O29671  11.386   5.134  10.506  0.2209  0.2555  0.7671
  983MOL0     C29672  11.608   4.952  10.323 -0.2383 -0.1966 -0.1455
  983MOL0     C29673  11.743   4.914  10.316  0.8246  1.0427 -0.5832
  983MOL0     N29674  11.936   4.683  10.911 -0.1981  0.2956 -0.8692
  983MOL0     N29675  11.838   4.669  10.997 -0.2145 -0.3816 -0.5151
  983MOL0     C29676  10.809   5.368  10.704  0.1209  0.4883 -0.2518
  983MOL0     C29677  10.745   5.444  10.604  0.1826  0.3411 -0.3263
  983MOL0     C29678  10.564   5.667  10.264  0.3819 -0.3117 -0.7172
  983MOL0     C29679  10.439   5.714  10.249 -1.0013  1.1370 -0.3411
  983MOL0     C29680  10.412   5.810  10.150  0.1282 -0.1556 -0.2934
  983MOL0     C29681  10.508   5.847  10.053  0.5640 -0.5015 -0.1073
  983MOL0     O29682  10.478   5.940   9.956  0.0648 -0.6580  0.0283
  983MOL0     C29683  10.344   5.987   9.932  0.7543 -0.2083  0.5895
  983MOL0     C29684  10.336   6.083   9.806  0.4326  0.5913 -0.7122
  983MOL0     C29685  10.228   6.194   9.809 -0.5967 -0.2231  0.7844
  983MOL0     C29686  10.207   6.253   9.675 -0.4063 -0.1076  0.3293
  983MOL0     C29687  10.100   6.347   9.670 -0.4983 -0.0533  0.6359
  983MOL0     C29688  10.023   6.443   9.656  0.1519  0.0932  0.6927
  983MOL0     C29689  10.638   5.780  10.059  0.2920 -0.6769 -0.4651
  983MOL0     C29690  10.665   5.703  10.170  0.6394  0.2179 -0.1588
  983MOL0     H29691  10.950   5.396  10.349  0.6979  0.7000  0.2676
  983MOL0     H29692  11.082   5.302  10.498 -0.4042 -0.3193 -0.0855
  983MOL0     H29693  11.193   5.273  10.684  1.2774 -0.9605 -0.6825
  983MOL0     H29694  11.120   5.122  10.652  1.9767  1.7533 -1.9544
  983MOL0     H29695  11.131   5.059  10.888 -1.4382 -1.0331 -5.6935
  983MOL0     H29696  11.199   5.225  10.922 -0.1364 -0.6766  1.3300
  983MOL0     H29697  11.396   5.173  10.778 -1.5488  1.6524  1.1943
  983MOL0     H29698  11.338   5.005  10.761  1.3142 -0.7072  0.1467
  983MOL0     H29699  11.402   5.126  11.030 -0.3667  3.7592 -2.2208
  983MOL0     H29700  11.378   4.952  10.979  0.9023  0.7480  2.3754
  983MOL0     H29701  11.603   5.134  10.886 -0.0465 -0.8015 -1.4822
  983MOL0     H29702  11.578   4.958  10.846  1.6096 -1.7244  2.1435
  983MOL0     H29703  11.603   5.065  11.126 -0.8853  0.2369 -0.1188
  983MOL0     H29704  11.756   5.018  11.042 -0.9988 -1.1825 -0.9153
  983MOL0     H29705  11.537   4.864  11.157  2.5734  1.1005  2.9302
  983MOL0     H29706  11.601   4.784  11.018  0.8734  0.3724 -0.7970
  983MOL0     H29707  11.716   4.719  11.240 -2.6019  4.3775  5.4498
  983MOL0     H29708  11.790   4.880  11.241  1.7255 -1.1248 -0.2325
  983MOL0     H29709  11.993   4.928  11.111  1.0363 -0.1092 -0.9944
  983MOL0     H29710  12.199   4.722  10.865  2.6462  0.3045  1.6791
  983MOL0     H29711  12.203   4.879  10.948  3.1176 -1.5995  0.1940
  983MOL0     H29712  12.223   4.928  10.715  0.2632 -2.1562  0.4342
  983MOL0     H29713  12.074   4.998  10.759 -0.0166  0.7254 -0.5392
  983MOL0     H29714  12.085   4.727  10.615 -0.8823 -0.4912  0.3226
  983MOL0     H29715  11.941   4.832  10.662 -0.3741  0.9131 -0.6097
  983MOL0     H29716  12.145   4.849  10.443 -0.7839 -1.2577 -0.5989
  983MOL0     H29717  12.071   5.011  10.490 -1.0282  0.4371 -0.2523
  983MOL0     H29718  11.863   5.037  10.604 -2.6443  2.6784  2.4910
  983MOL0     H29719  11.615   5.107  10.620  0.1161 -1.3198  0.4492
  983MOL0     H29720  11.277   5.217  10.226 -1.4381  1.7455  1.8774
  983MOL0     H29721  11.049   5.295  10.173 -5.7729 -0.0441  0.5822
  983MOL0     H29722  10.738   5.080  10.364  1.8387  0.4150 -0.3074
  983MOL0     H29723  10.686   5.000  10.208 -1.5393  0.9825  0.2219
  983MOL0     H29724  10.590   5.181  10.119  1.6456  0.0448 -0.3059
  983MOL0     H29725  10.646   5.290  10.244  1.4295 -1.8067 -0.8624
  983MOL0     H29726  10.431   5.083  10.279 -2.9068  1.4417 -2.8013
  983MOL0     H29727  10.413   5.257  10.272 -1.8248 -2.4928  2.2332
  983MOL0     H29728  10.531   5.095  10.501 -3.3986 -0.2327  0.2202
  983MOL0     H29729  10.584   5.264  10.468  0.9724 -0.5924 -2.4325
  983MOL0     H29730  10.294   5.163  10.520  1.3078 -0.5968 -0.9347
  983MOL0     H29731  10.344   5.330  10.485  0.8100  0.6024 -0.2659
  983MOL0     H29732  10.477   5.342  10.690  0.3920  1.4082 -1.9943
  983MOL0     H29733  10.414   5.181  10.731 -1.8336 -0.0324 -0.5938
  983MOL0     H29734  10.263   5.440  10.722 -1.7113 -0.2198 -1.1615
  983MOL0     H29735  10.185   5.279  10.697  0.5736  0.4054  0.9416
  983MOL0     H29736  10.268   5.193  10.910  0.7839  0.4021  0.7023
  983MOL0     H29737  10.195   5.355  10.935  0.7353  1.2758 -1.6811
  983MOL0     H29738  10.890   4.921  10.292  1.8669 -1.9330 -0.3350
  983MOL0     H29739  11.103   4.845  10.381  0.7090  0.9224  1.2852
  983MOL0     H29740  11.546   4.927  10.238 -0.5040 -2.5093  0.6616
  983MOL0     H29741  11.764   4.838  10.241 -0.3130  0.4495 -0.3251
  983MOL0     H29742  10.757   5.368  10.799  1.1978  2.9918  0.4248
  983MOL0     H29743  10.653   5.492  10.635 -0.4960  0.3440 -2.2376
  983MOL0     H29744  10.353   5.675  10.304 -0.3049  0.1534  0.0785
  983MOL0     H29745  10.321   5.868  10.164  0.0482 -0.5646  0.9770
  983MOL0     H29746  10.308   6.042  10.020  0.1436 -1.8259  1.4021
  983MOL0     H29747  10.274   5.904   9.919  0.1612  0.5101 -1.1767
  983MOL0     H29748  10.427   6.139   9.785  2.4830 -1.1438  2.5715
  983MOL0     H29749  10.327   6.006   9.728  1.3659 -1.6248  1.2368
  983MOL0     H29750  10.264   6.267   9.882  1.4637 -1.8533  1.5017
  983MOL0     H29751  10.135   6.158   9.854 -0.7143  2.1152  2.6137
  983MOL0     H29752  10.296   6.313   9.656 -1.5420  1.5138 -0.1016
  983MOL0     H29753  10.214   6.181   9.593 -0.8270 -0.1177  0.3005
  983MOL0     H29754   9.949   6.521   9.651 -2.0708 -1.9920 -1.1011
  983MOL0     H29755  10.717   5.805   9.988 -0.4788  0.4129 -0.9735
  983MOL0     H29756  10.769   5.671  10.175  1.1593  1.9382  3.5352
  984MOL0     O29757   4.833   4.536   4.644  0.1871  0.1498 -0.2635
  984MOL0     C29758   4.906   4.633   4.628 -0.0826 -0.6822 -0.2935
  984MOL0     O29759   4.868   4.748   4.572 -0.0179  0.2727  0.5915
  984MOL0     C29760   4.745   4.754   4.507 -1.3745 -0.2492  0.1987
  984MOL0     C29761   4.628   4.740   4.581 -0.2784  0.3897  0.1860
  984MOL0     C29762   4.510   4.752   4.516  0.4320 -0.3682 -0.5267
  984MOL0     C29763   4.495   4.776   4.374  1.1151 -0.0618 -0.1958
  984MOL0     O29764   4.379   4.791   4.309  0.1840  0.5581 -0.7268
  984MOL0     C29765   4.251   4.790   4.378 -0.1363  0.1905  1.3509
  984MOL0     C29766   4.140   4.756   4.270  0.1867  0.4539  0.5087
  984MOL0     C29767   4.130   4.608   4.257  0.2065 -0.0503  0.7544
  984MOL0     C29768   4.022   4.560   4.152 -0.2275 -0.2867 -0.3639
  984MOL0     C29769   3.880   4.595   4.206 -0.4063  0.1819 -0.3872
  984MOL0     C29770   3.791   4.555   4.092  1.1610  0.4030 -0.0419
  984MOL0     C29771   3.641   4.571   4.118 -0.2979 -0.1038 -0.3794
  984MOL0     C29772   3.579   4.715   4.117 -0.0447  0.1469  0.5115
  984MOL0     N29773   3.649   4.802   4.020 -0.0227 -0.2293 -0.6376
  984MOL0     C29774   3.621   4.821   3.884 -0.0414 -0.0943  0.0088
  984MOL0     C29775   3.736   4.876   3.830  0.1334 -0.1377  0.3387
  984MOL0     C29776   3.763   4.888   3.678 -0.7024  0.1834 -1.7562
  984MOL0     C29777   3.913   4.915   3.649  0.2051 -0.3650  0.0914
  984MOL0     C29778   3.955   5.060   3.676 -0.5103  0.3222  0.6876
  984MOL0     C29779   4.096   5.095   3.622  0.7342 -0.2923  0.0483
  984MOL0     O29780   4.100   5.240   3.616 -0.1379 -0.7090  0.7367
  984MOL0     C29781   4.100   5.312   3.491  0.3883 -0.4820 -0.3031
  984MOL0     C29782   4.150   5.440   3.496 -0.5971 -0.1503 -0.4694
  984MOL0     C29783   4.158   5.519   3.381  0.3267  0.4766 -0.3209
  984MOL0     C29784   4.094   5.476   3.262 -0.7281 -0.9130  0.0099
  984MOL0     C29785   4.108   5.556   3.137 -0.0466 -0.0665  0.5243
  984MOL0     O29786   4.084   5.480   3.025 -0.6506 -0.3944 -0.7106
  984MOL0     C29787   4.099   5.556   2.908 -0.1410  0.1231  0.1575
  984MOL0     C29788   4.214   5.624   2.874 -0.1749  0.4468 -0.0510
  984MOL0     C29789   4.224   5.679   2.743  0.5674  0.9078 -0.2894
  984MOL0     C29790   4.120   5.672   2.659  0.1269 -0.7562 -0.0730
  984MOL0     O29791   4.122   5.743   2.540  0.1180 -0.8183  0.0415
  984MOL0     C29792   4.215   5.693   2.436 -0.6126 -0.1784  0.3680
  984MOL0     C29793   4.199   5.767   2.308 -0.3068 -0.4851 -0.1976
  984MOL0     C29794   4.216   5.921   2.328 -0.7100  1.5259  0.6349
  984MOL0     C29795   4.199   6.002   2.193 -0.1480 -0.0292 -1.1687
  984MOL0     C29796   4.315   5.985   2.100 -0.1005  0.2026 -0.2466
  984MOL0     C29797   4.310   6.088   1.990  0.0472 -0.3051 -0.1554
  984MOL0     C29798   4.442   6.093   1.915  0.7674 -0.0527  0.1551
  984MOL0     C29799   4.467   5.980   1.824 -0.5805  0.4850 -0.4170
  984MOL0    Cl29800   4.639   5.974   1.786  0.0764 -0.5375  0.2655
  984MOL0     C29801   3.995   5.625   2.695 -0.4116  0.2297 -0.2917
  984MOL0     C29802   3.988   5.561   2.824 -0.3866 -0.0693 -0.3314
  984MOL0     O29803   4.142   5.680   3.140 -0.5062  0.3131 -0.8863
  984MOL0     C29804   4.032   5.357   3.263 -0.3851  0.3876  0.0231
  984MOL0     C29805   4.030   5.274   3.380  0.4550 -0.3754 -0.6489
  984MOL0     N29806   3.814   4.893   3.937 -0.3879 -0.3885 -0.5742
  984MOL0     N29807   3.762   4.868   4.048  0.6011 -0.7623 -0.4344
  984MOL0     C29808   4.618   4.782   4.301  0.6645  0.6345 -0.5951
  984MOL0     C29809   4.741   4.773   4.368 -0.1084  0.2952 -0.6672
  984MOL0     C29810   5.047   4.629   4.666 -0.5611 -0.1091 -0.1602
  984MOL0     C29811   5.092   4.532   4.755  0.0897  0.1607 -0.0392
  984MOL0     C29812   5.228   4.516   4.776  0.6994 -0.5278 -0.3067
  984MOL0     C29813   5.322   4.609   4.723  0.6609  0.3755  0.6228
  984MOL0     O29814   5.456   4.599   4.740 -0.8955  0.2913 -0.0072
  984MOL0     C29815   5.499   4.517   4.856 -0.0097 -0.4442 -0.9551
  984MOL0     C29816   5.645   4.529   4.893 -0.2340  0.0512  0.2289
  984MOL0     C29817   5.737   4.454   4.796  0.0828 -0.3082  0.4937
  984MOL0     C29818   5.764   4.307   4.848  0.4817 -0.6242  0.2119
  984MOL0     C29819   5.876   4.244   4.782 -0.4826 -0.8043  0.1932
  984MOL0     C29820   5.978   4.195   4.736  0.7457 -0.0530  0.4359
  984MOL0     C29821   5.269   4.713   4.646 -0.3763  0.3150  0.1896
  984MOL0     C29822   5.138   4.725   4.621  0.1328  1.1101  0.1534
  984MOL0     H29823   4.632   4.715   4.687  1.1133 -0.4974 -0.0458
  984MOL0     H29824   4.419   4.750   4.576  2.1710 -1.5662  2.2751
  984MOL0     H29825   4.246   4.893   4.415  1.7411  0.4180  1.0788
  984MOL0     H29826   4.252   4.719   4.461  2.9093  0.6971  1.8531
  984MOL0     H29827   4.154   4.816   4.179 -0.8137  0.9989  0.6947
  984MOL0     H29828   4.048   4.793   4.318  0.8832  0.7471  1.6534
  984MOL0     H29829   4.103   4.556   4.350 -0.9894 -0.6740  0.0840
  984MOL0     H29830   4.229   4.582   4.219  0.2527  0.1008  0.7734
  984MOL0     H29831   4.043   4.599   4.052  1.3880  1.9279  0.7426
  984MOL0     H29832   4.025   4.451   4.158 -0.3358 -0.2522  4.5866
  984MOL0     H29833   3.853   4.698   4.232 -0.7703 -1.0744  5.7738
  984MOL0     H29834   3.856   4.543   4.300 -0.0226  0.7471  0.0290
  984MOL0     H29835   3.809   4.453   4.057  0.8586  1.1291 -2.5396
  984MOL0     H29836   3.829   4.616   4.010  2.2916 -3.5323 -2.7642
  984MOL0     H29837   3.596   4.529   4.027  0.0761  1.8259 -1.5247
  984MOL0     H29838   3.611   4.520   4.210 -1.5343  1.6865  0.2483
  984MOL0     H29839   3.606   4.772   4.206  3.5871  0.2205 -0.4941
  984MOL0     H29840   3.474   4.707   4.085  0.7511 -4.6833 -1.7255
  984MOL0     H29841   3.534   4.789   3.828 -1.0715  0.9882  0.9639
  984MOL0     H29842   3.691   4.959   3.635  1.3264  1.6192 -2.9459
  984MOL0     H29843   3.750   4.786   3.641  1.5553 -0.3042 -1.3240
  984MOL0     H29844   3.932   4.900   3.542 -1.3088  0.4467 -0.3293
  984MOL0     H29845   3.971   4.846   3.712  1.9878  0.4925 -0.5359
  984MOL0     H29846   3.888   5.132   3.627  0.7327  1.1053  0.0674
  984MOL0     H29847   3.946   5.074   3.784 -1.0632 -2.6365  1.0885
  984MOL0     H29848   4.124   5.056   3.524  0.1463  0.2631 -0.3552
  984MOL0     H29849   4.172   5.050   3.686  0.1621 -1.4955 -0.0979
  984MOL0     H29850   4.204   5.480   3.582 -0.0194  4.0805 -2.5185
  984MOL0     H29851   4.207   5.616   3.384  0.4980  0.3757  0.1922
  984MOL0     H29852   4.296   5.642   2.942 -2.1242  1.6877  2.1283
  984MOL0     H29853   4.308   5.741   2.713  1.9164 -0.1242  1.2156
  984MOL0     H29854   4.234   5.585   2.433  0.8253 -0.0125  1.7338
  984MOL0     H29855   4.305   5.742   2.473 -0.5527  0.5239 -0.6815
  984MOL0     H29856   4.101   5.752   2.263  0.8206  1.6123 -3.7006
  984MOL0     H29857   4.260   5.726   2.227  0.4681 -0.1633  0.2112
  984MOL0     H29858   4.319   5.935   2.364  0.7955 -2.6583 -1.2905
  984MOL0     H29859   4.142   5.948   2.403 -0.7585  0.0353  1.1677
  984MOL0     H29860   4.106   5.972   2.145 -0.0579  0.0212 -1.3753
  984MOL0     H29861   4.191   6.108   2.217 -2.5531 -0.9138  2.8587
  984MOL0     H29862   4.303   5.883   2.063 -1.6377 -0.0401  0.8189
  984MOL0     H29863   4.414   5.979   2.146 -1.0647 -0.5877  1.8675
  984MOL0     H29864   4.291   6.189   2.027  1.1595 -0.3618  0.6247
  984MOL0     H29865   4.224   6.070   1.925 -0.0269 -3.9228  0.7779
  984MOL0     H29866   4.440   6.185   1.856  2.2658  0.7376  1.2637
  984MOL0     H29867   4.529   6.111   1.979  0.0664  1.6192  0.6925
  984MOL0     H29868   4.420   6.000   1.727  1.6655  0.2799 -1.6114
  984MOL0     H29869   4.428   5.887   1.866 -0.4759 -0.5004 -2.3646
  984MOL0     H29870   3.906   5.627   2.633 -0.8840 -1.7598  0.2308
  984MOL0     H29871   3.898   5.515   2.863  0.7479 -0.9754  1.3647
  984MOL0     H29872   3.982   5.315   3.176  0.3110  0.2043 -0.2915
  984MOL0     H29873   3.984   5.178   3.362  0.3131 -0.5401  0.4998
  984MOL0     H29874   4.607   4.794   4.194 -0.5023  1.7404 -0.3912
  984MOL0     H29875   4.836   4.776   4.316  1.1225 -0.0919  1.4708
  984MOL0     H29876   5.018   4.463   4.794  0.6963 -0.4531  0.0345
  984MOL0     H29877   5.255   4.431   4.839 -0.8064  0.0850  1.2739
  984MOL0     H29878   5.476   4.411   4.841  2.0033 -1.5748  2.6584
  984MOL0     H29879   5.443   4.547   4.945 -1.7595 -4.6259 -0.4131
  984MOL0     H29880   5.678   4.632   4.909 -0.0453 -0.0738  0.6538
  984MOL0     H29881   5.655   4.491   4.995  2.4223 -1.1529 -0.3908
  984MOL0     H29882   5.832   4.507   4.781 -0.9544  1.4233 -0.2765
  984MOL0     H29883   5.696   4.454   4.695  0.6398  2.1098  0.2104
  984MOL0     H29884   5.780   4.304   4.956 -1.8028  1.1993  0.6962
  984MOL0     H29885   5.672   4.250   4.833 -2.7439  3.0632  3.5501
  984MOL0     H29886   6.075   4.171   4.695  0.6091  1.8228 -1.1138
  984MOL0     H29887   5.330   4.800   4.622 -2.4219  1.5171 -0.8668
  984MOL0     H29888   5.106   4.804   4.554  1.2818  3.4364  2.2235
  985MOL0     O29889   0.890   3.567   2.826  0.3848  0.2217  0.2269
  985MOL0     C29890   0.941   3.507   2.733  0.3888 -0.7716  0.3863
  985MOL0     O29891   0.969   3.570   2.610 -1.1624  0.3282  0.0500
  985MOL0     C29892   0.907   3.688   2.570  0.8490  0.6985 -0.2153
  985MOL0     C29893   0.788   3.672   2.498  0.0806  0.8600  0.0034
  985MOL0     C29894   0.717   3.791   2.451  0.0588  0.0977  0.1856
  985MOL0     C29895   0.762   3.917   2.494 -0.2450 -0.9816 -0.6507
  985MOL0     O29896   0.686   4.020   2.442  0.1915 -0.3754  0.0887
  985MOL0     C29897   0.718   4.148   2.494  0.0417 -0.5870  0.1521
  985MOL0     C29898   0.619   4.261   2.455  0.2407 -0.3206  0.4846
  985MOL0     C29899   0.612   4.291   2.307  0.3483  0.5353  0.6184
  985MOL0     C29900   0.547   4.423   2.279  0.2976 -0.2213 -0.1619
  985MOL0     C29901   0.560   4.447   2.126 -0.5385  0.4692  0.1299
  985MOL0     C29902   0.475   4.361   2.029 -0.2839 -0.4288  0.1903
  985MOL0     C29903   0.474   4.440   1.891  0.0451  0.5771  0.2001
  985MOL0     C29904   0.443   4.364   1.760 -0.4358  0.9684  0.2754
  985MOL0     N29905   0.537   4.259   1.750  0.1082 -0.0161 -0.8822
  985MOL0     C29906   0.545   4.124   1.780 -0.9692  0.1192 -0.4026
  985MOL0     C29907   0.678   4.088   1.743  0.4704  0.0275 -0.1649
  985MOL0     C29908   0.744   3.951   1.755  0.0141 -0.2355  0.1419
  985MOL0     C29909   0.845   3.951   1.876 -0.2360  0.3001 -0.2747
  985MOL0     C29910   0.763   3.972   2.003  0.1643 -0.4786  0.0580
  985MOL0     C29911   0.819   3.914   2.133  0.4418  0.8496  1.0380
  985MOL0     O29912   0.844   3.765   2.118  1.1851  0.4365 -0.3724
  985MOL0     C29913   0.945   3.700   2.188  0.3043 -0.0777 -0.2003
  985MOL0     C29914   0.953   3.563   2.166 -0.2434  0.1479 -0.1706
  985MOL0     C29915   1.052   3.484   2.219 -0.9460 -0.1118  0.4344
  985MOL0     C29916   1.152   3.549   2.294  0.4578 -0.1419 -0.7253
  985MOL0     C29917   1.263   3.469   2.355 -0.9961 -1.0045 -0.4784
  985MOL0     O29918   1.359   3.539   2.425  0.8928 -0.5615  0.0418
  985MOL0     C29919   1.459   3.476   2.487 -0.9078 -0.1301 -0.3234
  985MOL0     C29920   1.561   3.412   2.420  0.9960 -0.6358  0.3729
  985MOL0     C29921   1.666   3.336   2.475  1.1257 -0.3530 -0.3700
  985MOL0     C29922   1.651   3.309   2.613  0.4037 -1.2687  0.3144
  985MOL0     O29923   1.738   3.247   2.698  0.0028 -0.2243 -0.1676
  985MOL0     C29924   1.868   3.223   2.644 -1.2359 -0.1019 -0.2254
  985MOL0     C29925   1.956   3.161   2.765 -0.7269  0.6167  0.5025
  985MOL0     C29926   2.098   3.122   2.704  0.1368  0.5110 -0.9689
  985MOL0     C29927   2.188   3.051   2.813  0.2624 -0.2405  0.4657
  985MOL0     C29928   2.336   3.029   2.763  0.1370 -0.3503 -0.6891
  985MOL0     C29929   2.408   2.958   2.884  0.2329 -0.4638  0.3332
  985MOL0     C29930   2.529   2.877   2.844  0.0145 -0.6698  1.4488
  985MOL0     C29931   2.483   2.759   2.763 -0.9454 -0.3669  0.1344
  985MOL0    Cl29932   2.624   2.660   2.722 -0.1793 -0.1161 -0.5971
  985MOL0     C29933   1.557   3.375   2.685 -0.0333  0.6528  0.2789
  985MOL0     C29934   1.466   3.465   2.623 -0.4981 -0.3846  0.1216
  985MOL0     O29935   1.279   3.354   2.320  0.0844 -0.1552 -0.3112
  985MOL0     C29936   1.144   3.689   2.320 -0.3119  0.6241 -0.3764
  985MOL0     C29937   1.040   3.764   2.257 -0.9622 -0.0228  0.4207
  985MOL0     N29938   0.734   4.189   1.674 -0.2477  0.4329 -0.2008
  985MOL0     N29939   0.654   4.290   1.688 -0.8872  0.4717  0.3911
  985MOL0     C29940   0.879   3.938   2.571 -0.5815 -0.1265 -0.0273
  985MOL0     C29941   0.947   3.817   2.608 -0.0749  0.7917 -0.6724
  985MOL0     C29942   1.007   3.377   2.756  0.3755  0.2751  0.6446
  985MOL0     C29943   1.100   3.326   2.660 -0.1916  0.1578 -0.0422
  985MOL0     C29944   1.157   3.205   2.686  0.5179 -0.0916 -0.7442
  985MOL0     C29945   1.135   3.135   2.807  0.5004  0.5788  0.8776
  985MOL0     O29946   1.182   3.010   2.835  0.4860 -0.2844  0.6942
  985MOL0     C29947   1.311   2.985   2.782 -0.2392  0.4022  0.2962
  985MOL0     C29948   1.358   2.846   2.840  0.6649  0.4224 -0.1772
  985MOL0     C29949   1.282   2.720   2.791 -0.8122  0.0599  0.2197
  985MOL0     C29950   1.328   2.591   2.846  1.5259  0.4611  0.0882
  985MOL0     C29951   1.272   2.490   2.758  0.4783 -0.5869 -0.0430
  985MOL0     C29952   1.204   2.423   2.689  0.4862 -0.7064 -0.3264
  985MOL0     C29953   1.046   3.183   2.893  0.2939 -0.0442 -0.6313
  985MOL0     C29954   0.983   3.305   2.875  0.1733 -0.1967  0.1186
  985MOL0     H29955   0.772   3.572   2.460  0.5839  0.9569 -0.4728
  985MOL0     H29956   0.620   3.789   2.402 -0.1550  0.0988  0.6038
  985MOL0     H29957   0.817   4.176   2.456 -0.3949  1.1461  0.2318
  985MOL0     H29958   0.722   4.138   2.603 -0.7596 -0.6348  0.1836
  985MOL0     H29959   0.668   4.345   2.505  1.9151 -0.0557 -1.4812
  985MOL0     H29960   0.523   4.235   2.500 -0.2703 -0.3740 -0.6084
  985MOL0     H29961   0.565   4.206   2.256 -1.5889  2.8266 -1.6449
  985MOL0     H29962   0.715   4.300   2.271  0.2428 -0.1382  0.1229
  985MOL0     H29963   0.447   4.435   2.322 -0.3702 -1.1233 -1.3998
  985MOL0     H29964   0.617   4.499   2.316 -0.3105  0.8497 -1.1538
  985MOL0     H29965   0.663   4.430   2.096 -0.3562  2.4982 -0.5346
  985MOL0     H29966   0.528   4.551   2.114 -2.6480  0.2825  2.9369
  985MOL0     H29967   0.375   4.351   2.071 -1.5369  5.7424 -0.3214
  985MOL0     H29968   0.522   4.263   2.018  1.4458  0.0756  2.2859
  985MOL0     H29969   0.395   4.513   1.911 -0.5826 -0.7089  2.7676
  985MOL0     H29970   0.568   4.493   1.874  0.6694  0.1610  2.2061
  985MOL0     H29971   0.463   4.428   1.674  1.7983 -1.9489 -1.5711
  985MOL0     H29972   0.340   4.326   1.763 -1.2325  2.9357 -0.6372
  985MOL0     H29973   0.474   4.048   1.812 -0.8594  0.1364 -0.1173
  985MOL0     H29974   0.804   3.926   1.667 -1.0410  2.2484 -1.4008
  985MOL0     H29975   0.672   3.869   1.760 -1.2567  0.7328 -1.5229
  985MOL0     H29976   0.910   4.038   1.862 -0.5589  0.7984  1.1327
  985MOL0     H29977   0.892   3.853   1.870 -0.8977 -0.0374 -0.0920
  985MOL0     H29978   0.743   4.080   2.009 -0.0196 -0.4945 -0.2191
  985MOL0     H29979   0.664   3.929   1.990 -0.0930  0.4086 -1.1478
  985MOL0     H29980   0.738   3.933   2.205 -2.9949  0.4784 -2.4148
  985MOL0     H29981   0.910   3.970   2.155 -0.8330  3.3557  0.3137
  985MOL0     H29982   0.873   3.516   2.109 -1.7861  2.3232  0.0695
  985MOL0     H29983   1.055   3.378   2.194 -0.2897  0.0403 -0.1606
  985MOL0     H29984   1.555   3.436   2.314 -0.3501  1.9106  0.9641
  985MOL0     H29985   1.745   3.284   2.421 -1.4552 -4.4254 -0.5847
  985MOL0     H29986   1.919   3.315   2.615 -0.1571 -0.8901 -0.9092
  985MOL0     H29987   1.868   3.148   2.564  0.1765  1.5800 -1.9249
  985MOL0     H29988   1.904   3.069   2.795  0.6125 -0.5552 -0.5934
  985MOL0     H29989   1.978   3.233   2.844 -0.9396  0.8390  0.3560
  985MOL0     H29990   2.154   3.210   2.672  0.6499  0.5435 -0.0369
  985MOL0     H29991   2.086   3.045   2.628  0.7565 -1.6883  1.0446
  985MOL0     H29992   2.183   3.109   2.905 -3.6640  1.2649 -0.4901
  985MOL0     H29993   2.130   2.960   2.830 -1.1334  0.9077  2.2184
  985MOL0     H29994   2.375   3.130   2.750  4.5760 -1.2113  3.3345
  985MOL0     H29995   2.352   2.974   2.670 -1.0850 -4.5268  1.3049
  985MOL0     H29996   2.328   2.902   2.933 -0.4231  2.0096  2.2732
  985MOL0     H29997   2.449   3.030   2.956  0.2587 -0.6536  0.5082
  985MOL0     H29998   2.598   2.945   2.793 -2.1211 -0.2799 -1.1349
  985MOL0     H29999   2.574   2.834   2.934  1.0545  0.0773  1.3007
  985MOL0     H30000   2.443   2.781   2.663  5.2191 -2.4600 -3.3375
  985MOL0     H30001   2.415   2.708   2.832 -0.1342 -2.2737 -0.4088
  985MOL0     H30002   1.554   3.375   2.794  0.7577  3.1878  0.3605
  985MOL0     H30003   1.390   3.521   2.677 -0.3963 -2.1136  2.1925
  985MOL0     H30004   1.226   3.739   2.372 -0.5127  0.8284 -0.2573
  985MOL0     H30005   1.030   3.868   2.288 -0.8029 -0.1922  1.0487
  985MOL0     H30006   0.926   4.028   2.610 -0.3693  0.0426 -0.6596
  985MOL0     H30007   1.038   3.822   2.668  0.4573  0.6874 -1.4509
  985MOL0     H30008   1.130   3.375   2.568  2.2745  0.8917  1.0416
  985MOL0     H30009   1.229   3.164   2.615  0.1190 -0.9990 -0.6396
  985MOL0     H30010   1.374   3.067   2.817 -1.4182  1.1125  0.8133
  985MOL0     H30011   1.314   2.983   2.673 -0.1799  1.8028  0.2512
  985MOL0     H30012   1.464   2.834   2.816  1.6500 -6.4542  4.5786
  985MOL0     H30013   1.348   2.851   2.949  1.3105  1.2640 -0.1491
  985MOL0     H30014   1.278   2.715   2.682  0.2613  1.7658  0.0648
  985MOL0     H30015   1.183   2.742   2.834 -0.6764 -1.0333  1.1521
  985MOL0     H30016   1.436   2.572   2.851  0.9962 -3.4142  0.2965
  985MOL0     H30017   1.304   2.584   2.953  2.0954  1.7060  0.3113
  985MOL0     H30018   1.153   2.365   2.615  1.6429 -1.1757 -0.7766
  985MOL0     H30019   1.023   3.117   2.976  1.5319  0.2173 -0.0505
  985MOL0     H30020   0.914   3.347   2.948 -0.3863 -2.4076  0.9397
  986MOL0     O30021  11.231  11.286  11.005 -0.8998  0.0549 -0.3958
  986MOL0     C30022  11.192  11.198  10.919  0.1415 -0.9912 -0.0231
  986MOL0     O30023  11.186  11.226  10.783 -0.0350 -0.4627  0.2323
  986MOL0     C30024  11.213  11.354  10.725 -0.0022  0.4853 -0.1957
  986MOL0     C30025  11.113  11.401  10.635  0.0880  0.0280 -0.7505
  986MOL0     C30026  11.115  11.532  10.587 -0.5021  0.0602  0.4129
  986MOL0     C30027  11.223  11.619  10.611  0.1862  0.2162 -0.3974
  986MOL0     O30028  11.220  11.739  10.549 -0.7557 -0.0989  0.3204
  986MOL0     C30029  11.343  11.778  10.480 -0.1454  0.3047 -0.2117
  986MOL0     C30030  11.351  11.925  10.464  0.2365  0.7440 -0.5237
  986MOL0     C30031  11.491  11.968  10.401  0.6511  0.4903 -0.3431
  986MOL0     C30032  11.500  12.119  10.382  0.3641  0.4269 -0.3099
  986MOL0     C30033  11.640  12.153  10.315 -0.0921  0.0920  1.4208
  986MOL0     C30034  11.657  12.117  10.165  0.0843  0.5194 -0.6388
  986MOL0     C30035  11.796  12.139  10.111  1.0622 -0.2650 -0.6366
  986MOL0     C30036  11.828  12.137   9.964  0.9884 -0.2941  0.0018
  986MOL0     N30037  11.979  12.137   9.949  0.5356  0.5370 -0.4176
  986MOL0     C30038  12.067  12.241   9.969 -1.2763 -1.3482  0.5224
  986MOL0     C30039  12.187  12.185   9.955  0.8640 -1.3562 -0.7625
  986MOL0     C30040  12.313  12.255   9.986 -0.6388 -0.5275 -0.3366
  986MOL0     C30041  12.407  12.282   9.870  0.0488 -1.1408 -0.4005
  986MOL0     C30042  12.349  12.390   9.771  0.4704  0.1912  0.6841
  986MOL0     C30043  12.340  12.532   9.820 -0.2332  0.7341 -0.6916
  986MOL0     O30044  12.450  12.556   9.906  0.0980  0.5529  0.3304
  986MOL0     C30045  12.524  12.672   9.883 -0.8124  0.2551 -0.0257
  986MOL0     C30046  12.462  12.799   9.861 -0.3067 -0.3779  0.0616
  986MOL0     C30047  12.529  12.909   9.818 -0.5504  0.3075 -0.1949
  986MOL0     C30048  12.673  12.912   9.812 -1.2592 -0.1175  0.2342
  986MOL0     C30049  12.756  13.029   9.771  0.4425 -0.6506  0.9070
  986MOL0     O30050  12.693  13.121   9.688 -0.5607 -0.1772 -0.2038
  986MOL0     C30051  12.756  13.237   9.636  0.2431  0.1454  0.4460
  986MOL0     C30052  12.841  13.325   9.699  1.0162  0.6547  0.5402
  986MOL0     C30053  12.902  13.420   9.622  0.9312 -0.2356 -0.1940
  986MOL0     C30054  12.882  13.426   9.479 -0.7133 -0.0544  0.4454
  986MOL0     O30055  12.951  13.508   9.398 -0.6724  0.1758 -0.1912
  986MOL0     C30056  12.916  13.646   9.406 -0.8229 -0.0326 -0.1356
  986MOL0     C30057  12.793  13.666   9.323 -0.1567 -0.4096 -0.5571
  986MOL0     C30058  12.758  13.818   9.315 -0.4857  0.1879  0.3279
  986MOL0     C30059  12.651  13.825   9.208  0.2037 -0.2313  0.9503
  986MOL0     C30060  12.621  13.958   9.166 -0.3836 -0.6728 -0.1310
  986MOL0     C30061  12.520  13.982   9.056  0.0725 -0.1081 -0.4195
  986MOL0     C30062  12.375  13.933   9.073  1.1669 -0.5425 -0.6537
  986MOL0     C30063  12.300  13.981   9.199  1.3059 -0.9354  0.1448
  986MOL0    Cl30064  12.240  14.145   9.153 -0.2028 -0.1786 -0.3033
  986MOL0     C30065  12.803  13.340   9.417  0.1766 -0.9517 -0.3635
  986MOL0     C30066  12.743  13.247   9.505 -0.5379  0.0958 -0.1751
  986MOL0     O30067  12.872  13.027   9.788 -0.2751  0.1891 -0.4670
  986MOL0     C30068  12.735  12.790   9.844 -0.5482 -0.1459  0.4610
  986MOL0     C30069  12.664  12.670   9.870  0.8415  0.2228  0.2098
  986MOL0     N30070  12.166  12.054   9.927  0.3814 -0.0590  0.0225
  986MOL0     N30071  12.043  12.018   9.918  0.8782 -0.3599  0.3801
  986MOL0     C30072  11.321  11.568  10.706 -0.1998  0.1058  0.3781
  986MOL0     C30073  11.316  11.442  10.757 -0.5284 -0.3152 -0.5366
  986MOL0     C30074  11.132  11.069  10.958  0.2425 -0.6328  0.7089
  986MOL0     C30075  11.055  10.994  10.869 -0.7789  0.5827 -1.2898
  986MOL0     C30076  11.020  10.858  10.908  0.4897 -0.7568  0.7869
  986MOL0     C30077  11.041  10.818  11.035  1.0722 -0.0457  0.0176
  986MOL0     O30078  10.973  10.699  11.063  0.1082  0.4290 -0.5402
  986MOL0     C30079  10.909  10.697  11.190 -0.3560  0.9575  0.1101
  986MOL0     C30080  10.816  10.574  11.208 -0.0338  0.2879  0.2780
  986MOL0     C30081  10.899  10.452  11.260 -0.2647 -0.1662  0.8042
  986MOL0     C30082  10.844  10.316  11.219  0.5566 -0.1428  0.3826
  986MOL0     C30083  10.927  10.214  11.274  0.7393 -0.6611  0.0594
  986MOL0     C30084  10.987  10.121  11.318 -0.8799  0.2723 -0.4138
  986MOL0     C30085  11.113  10.892  11.124 -0.0023 -0.5017  0.0529
  986MOL0     C30086  11.162  11.015  11.085  0.8405  0.1448 -0.0092
  986MOL0     H30087  11.046  11.323  10.600 -0.7784  0.1341  0.6006
  986MOL0     H30088  11.037  11.558  10.516 -1.8167 -2.6960  0.7536
  986MOL0     H30089  11.323  11.741  10.379  0.1986  2.2154 -1.0321
  986MOL0     H30090  11.426  11.723  10.525  0.5937 -1.2967 -3.2847
  986MOL0     H30091  11.352  11.955  10.570  1.8008  0.6323 -0.4801
  986MOL0     H30092  11.263  11.969  10.415 -1.3402  1.6790  2.8334
  986MOL0     H30093  11.497  11.911  10.308  2.3651 -2.6104  1.4869
  986MOL0     H30094  11.569  11.933  10.470  2.7296 -0.1426 -2.8630
  986MOL0     H30095  11.432  12.159  10.306  1.7583  1.8863 -0.8553
  986MOL0     H30096  11.489  12.181  10.472 -2.1937 -0.9806  0.4384
  986MOL0     H30097  11.728  12.111  10.365  2.1918  1.0519 -1.4699
  986MOL0     H30098  11.650  12.262  10.320 -0.6520  0.1005  2.7456
  986MOL0     H30099  11.588  12.177  10.106 -0.7588 -1.5463 -1.8527
  986MOL0     H30100  11.630  12.014  10.141  1.2079  0.0663 -0.0569
  986MOL0     H30101  11.820  12.242  10.140 -4.1244  0.8689  0.5129
  986MOL0     H30102  11.854  12.058  10.156  1.4639  0.2954 -0.1168
  986MOL0     H30103  11.792  12.228   9.916  2.8445  0.8249  0.6423
  986MOL0     H30104  11.788  12.051   9.909  0.9537  0.1749 -0.7270
  986MOL0     H30105  12.049  12.340  10.010 -1.0354 -1.6447  1.3438
  986MOL0     H30106  12.365  12.199  10.065 -0.4807  1.3261  0.9187
  986MOL0     H30107  12.286  12.344  10.043  3.4595  0.1746  0.8113
  986MOL0     H30108  12.433  12.184   9.829 -1.0584 -1.2106 -0.9811
  986MOL0     H30109  12.500  12.314   9.918  0.6184 -4.7863  1.3373
  986MOL0     H30110  12.417  12.389   9.685  0.9384 -1.6477  1.0214
  986MOL0     H30111  12.249  12.350   9.755  0.0441  0.8074  1.6797
  986MOL0     H30112  12.252  12.548   9.882 -0.6755 -0.6402 -0.9271
  986MOL0     H30113  12.342  12.587   9.725 -0.9744 -1.0994 -1.8363
  986MOL0     H30114  12.357  12.811   9.889  0.4211 -0.0414  2.9231
  986MOL0     H30115  12.468  12.995   9.791 -0.1125 -0.2885 -3.5480
  986MOL0     H30116  12.846  13.326   9.807 -1.1466 -1.1522  0.7284
  986MOL0     H30117  12.942  13.503   9.679 -1.0695 -1.7423  3.8168
  986MOL0     H30118  12.999  13.710   9.374  0.4864 -1.7604 -0.3007
  986MOL0     H30119  12.883  13.675   9.506 -0.8003 -1.4951  0.3104
  986MOL0     H30120  12.716  13.609   9.376  0.5973 -0.3789  0.6047
  986MOL0     H30121  12.796  13.624   9.222 -0.3996  1.2948 -1.3105
  986MOL0     H30122  12.849  13.876   9.294  0.3757 -1.0315  0.5792
  986MOL0     H30123  12.720  13.856   9.410 -0.2841  0.8199  0.1610
  986MOL0     H30124  12.680  13.763   9.122  1.6542  1.8397 -0.1656
  986MOL0     H30125  12.553  13.796   9.244 -0.1983 -3.0660 -1.9783
  986MOL0     H30126  12.709  14.017   9.139  1.3572 -2.9496  0.3089
  986MOL0     H30127  12.582  13.999   9.259 -1.8494  0.1635 -1.0716
  986MOL0     H30128  12.549  13.921   8.970  0.2393 -0.8218  0.1280
  986MOL0     H30129  12.518  14.090   9.041 -0.0239 -0.1708 -0.8668
  986MOL0     H30130  12.321  13.975   8.988 -1.7631  1.5358  2.0031
  986MOL0     H30131  12.373  13.823   9.076  0.6627 -0.5196  0.1779
  986MOL0     H30132  12.354  13.987   9.294 -1.2662  2.4046  1.5725
  986MOL0     H30133  12.210  13.920   9.216  0.7579 -0.1333  0.1749
  986MOL0     H30134  12.780  13.350   9.312 -3.5437  1.4913  0.4683
  986MOL0     H30135  12.669  13.182   9.459 -0.3774  1.1128 -1.9489
  986MOL0     H30136  12.843  12.782   9.836 -0.6743 -4.4816  0.8169
  986MOL0     H30137  12.713  12.574   9.883 -0.6913 -0.6749 -0.4114
  986MOL0     H30138  11.404  11.632  10.735 -1.2498  1.8056 -0.1731
  986MOL0     H30139  11.396  11.424  10.828  0.0454  2.8622 -0.2465
  986MOL0     H30140  11.006  11.038  10.782  1.0293 -0.3902 -2.8624
  986MOL0     H30141  10.947  10.805  10.848 -0.7052  3.4675 -1.9250
  986MOL0     H30142  10.840  10.780  11.201  0.4151  1.3867  2.0914
  986MOL0     H30143  10.980  10.696  11.273 -0.6753  1.7373  0.3950
  986MOL0     H30144  10.735  10.597  11.278  1.8973  1.4306  2.3027
  986MOL0     H30145  10.772  10.556  11.110 -0.3175 -1.4808  0.7052
  986MOL0     H30146  10.906  10.466  11.368  0.7624  1.0948  0.5852
  986MOL0     H30147  11.001  10.452  11.222  0.3114  1.1291  2.2559
  986MOL0     H30148  10.741  10.302  11.252 -0.2329 -0.1399 -1.9297
  986MOL0     H30149  10.851  10.299  11.111 -2.0778 -0.5654  0.2320
  986MOL0     H30150  11.045  10.038  11.353 -0.9791 -0.5575 -2.1188
  986MOL0     H30151  11.138  10.866  11.226 -2.3014  3.2069  1.7938
  986MOL0     H30152  11.226  11.067  11.156  1.5682  0.6387 -0.9945
  987MOL0     O30153   4.764  10.371   9.825 -0.1851  0.1798  0.2073
  987MOL0     C30154   4.842  10.469   9.842 -0.0681 -0.6551  0.4518
  987MOL0     O30155   4.865  10.531   9.961 -0.9202  0.2011 -0.4412
  987MOL0     C30156   4.800  10.512  10.085  1.0147  0.0846 -1.3312
  987MOL0     C30157   4.873  10.523  10.207 -0.2098 -1.4904  0.9536
  987MOL0     C30158   4.822  10.475  10.327  0.1469 -0.3015 -0.0643
  987MOL0     C30159   4.690  10.424  10.329  0.9243  0.1458  0.0775
  987MOL0     O30160   4.620  10.392  10.452  0.2036 -0.8102 -0.4422
  987MOL0     C30161   4.510  10.305  10.442 -0.4803 -0.5461 -0.4116
  987MOL0     C30162   4.453  10.275  10.579  0.3398 -0.6229 -0.3799
  987MOL0     C30163   4.320  10.203  10.580  0.0000  0.7054  0.5727
  987MOL0     C30164   4.261  10.189  10.719  1.4849  0.4036 -0.1482
  987MOL0     C30165   4.127  10.115  10.709 -0.3611 -0.9166  0.3170
  987MOL0     C30166   4.060  10.103  10.852 -0.4916  0.0319  0.3400
  987MOL0     C30167   4.117  10.003  10.958 -0.3380 -1.4035 -0.0058
  987MOL0     C30168   4.019   9.898  11.010 -0.1579  0.3865 -0.9354
  987MOL0     N30169   3.914   9.936  11.097  0.8681  0.3006  0.3697
  987MOL0     C30170   3.926   9.945  11.234 -0.4860 -0.6520 -0.8815
  987MOL0     C30171   3.831  10.031  11.269 -0.3766  0.3299 -1.2219
  987MOL0     C30172   3.789  10.085  11.405  0.3900 -0.3419  0.3318
  987MOL0     C30173   3.892  10.153  11.497  0.3112  0.7197  0.7332
  987MOL0     C30174   3.856  10.166  11.646 -1.1663  0.2523  0.3833
  987MOL0     C30175   3.725  10.235  11.650 -0.2790  0.0614 -0.2140
  987MOL0     O30176   3.676  10.269  11.784 -0.1499 -0.3637  0.4219
  987MOL0     C30177   3.542  10.274  11.799  0.2407 -0.9087  0.2730
  987MOL0     C30178   3.468  10.168  11.853 -0.1398 -0.1406 -0.3887
  987MOL0     C30179   3.330  10.157  11.846  1.1619 -0.1936  0.0976
  987MOL0     C30180   3.256  10.275  11.810 -0.7302  0.1515 -0.0905
  987MOL0     C30181   3.107  10.289  11.829 -0.3311 -0.6699  0.2086
  987MOL0     O30182   3.033  10.188  11.889 -0.1722 -0.5786  0.5780
  987MOL0     C30183   2.934  10.213  11.973 -1.1966  0.5643 -0.5899
  987MOL0     C30184   2.800  10.189  11.936 -1.0925  0.5012 -0.0830
  987MOL0     C30185   2.699  10.210  12.029  0.1189  0.1411  1.5453
  987MOL0     C30186   2.732  10.223  12.164  0.1723 -0.0750 -0.0484
  987MOL0     O30187   2.629  10.229  12.253 -0.1240  0.8598 -0.4322
  987MOL0     C30188   2.569  10.096  12.273  0.1669 -0.2529 -0.3903
  987MOL0     C30189   2.641  10.001  12.372  0.6225 -0.7767  0.8722
  987MOL0     C30190   2.567   9.860  12.382  0.0977  0.5998 -0.8546
  987MOL0     C30191   2.651   9.772  12.478 -0.3847  0.1010 -0.5740
  987MOL0     C30192   2.790   9.735  12.418  0.2447 -0.2211 -0.5907
  987MOL0     C30193   2.826   9.603  12.477  0.1157 -1.1209  0.2081
  987MOL0     C30194   2.871   9.601  12.619  0.4469 -0.3938  0.5042
  987MOL0     C30195   3.000   9.679  12.652 -0.6858 -0.7270  1.1859
  987MOL0    Cl30196   3.150   9.614  12.566  0.3293 -0.2307  0.3275
  987MOL0     C30197   2.866  10.257  12.201 -0.7489  0.6930 -0.5507
  987MOL0     C30198   2.971  10.250  12.103 -0.0026 -0.2558 -0.4293
  987MOL0     O30199   3.065  10.398  11.802  0.5159  0.0048  1.0122
  987MOL0     C30200   3.327  10.389  11.757 -0.0492 -0.2228  0.3258
  987MOL0     C30201   3.472  10.379  11.747 -0.0570  0.1590 -0.9205
  987MOL0     N30202   3.754  10.063  11.157 -0.1570 -0.7157 -1.4472
  987MOL0     N30203   3.804  10.001  11.059 -0.7499 -0.4444  1.2823
  987MOL0     C30204   4.618  10.415  10.210 -0.7879 -0.5444  0.0580
  987MOL0     C30205   4.674  10.462  10.089 -0.2969  0.1927  0.1897
  987MOL0     C30206   4.889  10.551   9.727 -0.7611 -0.4470 -0.0074
  987MOL0     C30207   4.972  10.663   9.737  0.3110  0.0306 -0.7116
  987MOL0     C30208   5.027  10.735   9.624 -0.4922  0.5923 -0.6471
  987MOL0     C30209   5.005  10.688   9.498 -0.9246  0.3317  0.4882
  987MOL0     O30210   5.055  10.766   9.393 -0.8503  0.5359 -0.2047
  987MOL0     C30211   5.030  10.732   9.260  0.1111  0.4589  0.4770
  987MOL0     C30212   5.085  10.813   9.143  0.7620 -0.0491  0.7046
  987MOL0     C30213   5.023  10.952   9.138 -0.5095  0.5097  0.4052
  987MOL0     C30214   5.054  11.023   9.003  0.0421  0.0559 -0.0534
  987MOL0     C30215   5.027  11.170   9.026  0.0663  0.3669  0.3020
  987MOL0     C30216   5.028  11.293   9.050 -0.3037  0.1520 -0.2256
  987MOL0     C30217   4.919  10.582   9.480 -0.4371  0.4121  0.3874
  987MOL0     C30218   4.863  10.510   9.593 -0.0392 -0.6018  0.0683
  987MOL0     H30219   4.972  10.566  10.193 -0.5886 -0.7934  0.2907
  987MOL0     H30220   4.884  10.478  10.416 -2.2165 -2.1842  1.7873
  987MOL0     H30221   4.541  10.208  10.404 -0.2811 -1.0006  0.8577
  987MOL0     H30222   4.432  10.358  10.386  0.6193  0.1760 -1.2773
  987MOL0     H30223   4.440  10.367  10.636 -2.3164 -0.2239 -1.4907
  987MOL0     H30224   4.522  10.203  10.625  1.8222  1.0396  0.1349
  987MOL0     H30225   4.335  10.099  10.549 -0.1542  0.6781  0.5935
  987MOL0     H30226   4.260  10.257  10.507 -0.0693  0.2334  0.2796
  987MOL0     H30227   4.329  10.137  10.787  0.1492 -3.0727 -1.2305
  987MOL0     H30228   4.247  10.288  10.763 -2.0499 -1.3622  3.2602
  987MOL0     H30229   4.129  10.017  10.662 -0.4599  0.0539 -1.8593
  987MOL0     H30230   4.064  10.186  10.654  1.5267  1.8348  1.4492
  987MOL0     H30231   3.951  10.091  10.845 -0.6366  1.6906 -0.5986
  987MOL0     H30232   4.055  10.202  10.898  0.7842  1.5540 -2.5009
  987MOL0     H30233   4.203   9.960  10.906  0.7097  2.9584 -2.4083
  987MOL0     H30234   4.173  10.058  11.035 -1.2917 -1.8720  1.0514
  987MOL0     H30235   4.071   9.814  11.057  0.9939  1.3667 -0.4034
  987MOL0     H30236   3.971   9.852  10.923 -0.4862  0.7833 -0.9621
  987MOL0     H30237   4.007   9.910  11.298 -1.1528  1.4419  1.2400
  987MOL0     H30238   3.745  10.002  11.461 -3.8926  0.9180 -0.7880
  987MOL0     H30239   3.706  10.156  11.399 -0.2413 -0.9124  1.8308
  987MOL0     H30240   3.903  10.258  11.472 -2.1929  2.0549  4.2629
  987MOL0     H30241   3.989  10.107  11.479  0.4320  1.2912 -0.1155
  987MOL0     H30242   3.847  10.073  11.704  2.1609  0.2152  1.0345
  987MOL0     H30243   3.940  10.210  11.701  1.1305  1.1357 -3.4479
  987MOL0     H30244   3.653  10.164  11.611  0.7836 -1.8499  1.1339
  987MOL0     H30245   3.735  10.327  11.592  3.0578 -0.3942 -0.5521
  987MOL0     H30246   3.517  10.081  11.896 -0.7930  0.5705  1.9072
  987MOL0     H30247   3.275  10.069  11.877 -0.3682  1.1913  1.5329
  987MOL0     H30248   2.784  10.156  11.835  0.1787  2.0292 -0.8291
  987MOL0     H30249   2.593  10.197  12.006  0.3142 -4.0401  2.1238
  987MOL0     H30250   2.583  10.045  12.177  1.9628  1.9932 -1.4101
  987MOL0     H30251   2.462  10.101  12.293  0.0940 -1.7254 -0.2657
  987MOL0     H30252   2.637  10.036  12.475  2.2149  0.3532  0.5697
  987MOL0     H30253   2.745  10.005  12.339  0.4634  2.1684  0.4992
  987MOL0     H30254   2.552   9.803  12.291 -1.0566 -1.8170  0.7556
  987MOL0     H30255   2.467   9.882  12.422  0.2350 -0.6268  0.2290
  987MOL0     H30256   2.654   9.806  12.582 -3.3029 -3.0021  0.7066
  987MOL0     H30257   2.593   9.680  12.492 -0.9399  0.6028  0.6587
  987MOL0     H30258   2.871   9.806  12.437  1.4212 -0.6352 -3.4797
  987MOL0     H30259   2.792   9.727  12.309  0.8778  1.2173 -0.7018
  987MOL0     H30260   2.910   9.577  12.413 -0.6277 -0.3202 -1.1478
  987MOL0     H30261   2.748   9.529  12.455  3.1017 -3.4576 -3.9102
  987MOL0     H30262   2.791   9.647  12.678 -0.1994  2.3199 -2.2490
  987MOL0     H30263   2.885   9.496  12.646  1.8800 -0.3846 -0.1340
  987MOL0     H30264   3.025   9.672  12.758 -1.8385  2.0671  1.7406
  987MOL0     H30265   2.983   9.787  12.649  2.1380 -0.0859  3.7158
  987MOL0     H30266   2.882  10.280  12.306 -0.6740 -1.0877 -0.1357
  987MOL0     H30267   3.078  10.259  12.121 -0.2404 -0.8046  1.5036
  987MOL0     H30268   3.270  10.473  11.719 -2.0591 -1.5705  0.2148
  987MOL0     H30269   3.522  10.455  11.687  0.9762 -1.8346 -2.7053
  987MOL0     H30270   4.517  10.375  10.201 -2.2418  1.3338  5.0038
  987MOL0     H30271   4.613  10.444  10.001  0.8596 -2.3657 -0.1770
  987MOL0     H30272   4.986  10.715   9.832 -1.0055 -1.5324  0.3893
  987MOL0     H30273   5.070  10.833   9.643 -3.2452  1.3694  2.6965
  987MOL0     H30274   4.922  10.716   9.248  0.3499 -3.2476  1.9526
  987MOL0     H30275   5.077  10.637   9.232  0.5183  0.7389  0.2137
  987MOL0     H30276   5.193  10.807   9.157  0.8530  0.3829  0.1894
  987MOL0     H30277   5.073  10.756   9.050  2.6008  0.1083  0.3446
  987MOL0     H30278   5.062  11.008   9.224 -1.3104 -0.0138  1.1335
  987MOL0     H30279   4.918  10.940   9.166  0.1421 -1.7068  2.2659
  987MOL0     H30280   5.162  11.014   8.987 -0.0999  0.9816 -1.8916
  987MOL0     H30281   4.993  10.977   8.924 -1.3838  1.8474 -0.0337
  987MOL0     H30282   5.032  11.400   9.052 -2.1248  0.2584 -0.5859
  987MOL0     H30283   4.909  10.534   9.383  1.7863 -0.0106  0.3126
  987MOL0     H30284   4.803  10.424   9.567  0.1837 -0.7154 -0.0802
  988MOL0     O30285   7.603   3.964   0.213  0.2326  0.1713  0.1440
  988MOL0     C30286   7.538   3.925   0.307  0.3835 -0.1003  0.1745
  988MOL0     O30287   7.554   3.794   0.364  0.5074 -0.8144  0.2660
  988MOL0     C30288   7.648   3.701   0.308 -0.0378 -1.0749  1.0231
  988MOL0     C30289   7.773   3.732   0.264 -0.4889 -0.0693  0.1872
  988MOL0     C30290   7.866   3.637   0.218  0.6466  0.3996  0.0771
  988MOL0     C30291   7.837   3.509   0.212  0.4636  0.5682 -0.8414
  988MOL0     O30292   7.932   3.425   0.161  0.1766  0.2638 -0.1376
  988MOL0     C30293   7.889   3.292   0.159  0.0230  0.0354 -0.3404
  988MOL0     C30294   7.964   3.213   0.055  0.3419  0.2280  0.4397
  988MOL0     C30295   8.109   3.268   0.041  0.7890  0.5474 -0.0258
  988MOL0     C30296   8.217   3.164  -0.013  0.0413  0.7112 -0.8185
  988MOL0     C30297   8.271   3.067   0.090  0.5970  0.0925 -0.3603
  988MOL0     C30298   8.376   2.963   0.028 -0.6293 -0.3700 -0.3191
  988MOL0     C30299   8.487   3.035  -0.046  0.3345  0.0177  1.0156
  988MOL0     C30300   8.614   2.950  -0.074  0.1428 -0.7028 -0.8438
  988MOL0     N30301   8.597   2.826  -0.161 -0.1127  0.2919 -0.4115
  988MOL0     C30302   8.526   2.810  -0.275  0.3437 -0.3359  0.2391
  988MOL0     C30303   8.531   2.682  -0.310 -0.9051  0.2216  0.1253
  988MOL0     C30304   8.476   2.615  -0.432 -0.3007  0.1178  0.6799
  988MOL0     C30305   8.342   2.545  -0.409 -0.6644 -0.6920 -0.0464
  988MOL0     C30306   8.294   2.455  -0.516 -0.9237 -0.3141 -0.8894
  988MOL0     C30307   8.186   2.347  -0.478 -0.1459 -0.5793 -0.1242
  988MOL0     O30308   8.156   2.270  -0.588  0.4458  0.2743  0.9375
  988MOL0     C30309   8.079   2.307  -0.697  0.1631 -0.2100  0.8985
  988MOL0     C30310   8.056   2.209  -0.790 -0.6272 -0.5909 -0.2052
  988MOL0     C30311   7.987   2.239  -0.915 -0.3690 -0.3776 -0.1965
  988MOL0     C30312   7.933   2.362  -0.939  0.4936 -0.5407  0.1135
  988MOL0     C30313   7.842   2.388  -1.054 -0.7517  1.1803 -0.2947
  988MOL0     O30314   7.800   2.290  -1.141 -0.7561  0.6837 -0.2642
  988MOL0     C30315   7.701   2.313  -1.230  0.3552 -0.3806 -0.7912
  988MOL0     C30316   7.717   2.261  -1.350 -0.4825  1.1536  0.4651
  988MOL0     C30317   7.616   2.279  -1.450 -0.6412  0.4493 -0.2760
  988MOL0     C30318   7.497   2.347  -1.418  0.8449 -0.1728 -0.1007
  988MOL0     O30319   7.391   2.354  -1.501  0.1944  0.1396 -0.3287
  988MOL0     C30320   7.303   2.462  -1.486  0.0125  0.6032 -0.1585
  988MOL0     C30321   7.234   2.465  -1.620  0.2735 -0.4742 -0.1071
  988MOL0     C30322   7.320   2.536  -1.722  1.0644  0.1212 -0.5018
  988MOL0     C30323   7.315   2.690  -1.709 -0.3832 -0.5686 -0.1864
  988MOL0     C30324   7.335   2.750  -1.843  0.1522 -0.5079 -0.0590
  988MOL0     C30325   7.481   2.756  -1.892 -0.2929  0.0284  0.8229
  988MOL0     C30326   7.536   2.624  -1.959  0.8706  0.0322 -0.1169
  988MOL0     C30327   7.646   2.658  -2.057 -0.3709  0.3180 -0.4055
  988MOL0    Cl30328   7.716   2.505  -2.139  0.3876  0.2993  0.1215
  988MOL0     C30329   7.483   2.402  -1.285  0.4599 -0.8477  1.2774
  988MOL0     C30330   7.587   2.394  -1.203  0.0960  0.1985  0.1030
  988MOL0     O30331   7.803   2.503  -1.049  0.5328 -0.5078  0.4252
  988MOL0     C30332   7.969   2.463  -0.846 -0.4060 -0.6932  0.5154
  988MOL0     C30333   8.050   2.437  -0.734  0.4463 -0.4960  0.0206
  988MOL0     N30334   8.623   2.637  -0.210  0.3738  0.6158 -0.3416
  988MOL0     N30335   8.643   2.711  -0.113 -0.2588  0.9398  0.4924
  988MOL0     C30336   7.723   3.473   0.286  0.4792 -0.7995 -0.3640
  988MOL0     C30337   7.627   3.568   0.319 -0.3446  0.8580 -0.4422
  988MOL0     C30338   7.439   4.025   0.379 -0.3721  0.9117 -0.0395
  988MOL0     C30339   7.428   4.160   0.339  1.4297 -0.6167 -0.9298
  988MOL0     C30340   7.335   4.250   0.406 -0.8893  0.8367 -0.6227
  988MOL0     C30341   7.264   4.198   0.520 -0.4651 -0.7344 -0.3743
  988MOL0     O30342   7.172   4.282   0.586 -0.2980  0.5168  0.0318
  988MOL0     C30343   7.080   4.230   0.681 -0.1133  0.0625 -0.1993
  988MOL0     C30344   6.977   4.152   0.603 -0.2610 -0.0104  0.2233
  988MOL0     C30345   6.878   4.081   0.695  0.4242 -0.5888  0.5601
  988MOL0     C30346   6.775   4.002   0.625  0.2613  0.5490  0.3059
  988MOL0     C30347   6.835   3.890   0.558  0.2645 -0.2089  0.0201
  988MOL0     C30348   6.906   3.798   0.534  0.3619 -0.3486  0.6097
  988MOL0     C30349   7.289   4.072   0.571 -0.0266 -0.2473 -0.1212
  988MOL0     C30350   7.369   3.982   0.491  0.3775  0.1802 -0.4433
  988MOL0     H30351   7.807   3.834   0.278 -0.5418 -0.2610  1.9952
  988MOL0     H30352   7.964   3.674   0.187 -0.0560  1.1849 -1.3240
  988MOL0     H30353   7.780   3.290   0.144 -0.4169  2.0286  1.9514
  988MOL0     H30354   7.897   3.230   0.248  2.1075 -1.0915 -1.2314
  988MOL0     H30355   7.920   3.216  -0.045 -0.6296 -2.0199  0.7338
  988MOL0     H30356   7.968   3.111   0.095  1.0600  0.1651  0.2354
  988MOL0     H30357   8.140   3.309   0.138  0.3286  0.6388  0.0843
  988MOL0     H30358   8.102   3.347  -0.035 -0.6410  0.6078  0.1476
  988MOL0     H30359   8.191   3.110  -0.105  0.3783 -3.4915  1.3200
  988MOL0     H30360   8.293   3.238  -0.038 -1.5629  2.0999 -1.7761
  988MOL0     H30361   8.196   2.995   0.123  1.3441 -0.9730 -0.9276
  988MOL0     H30362   8.304   3.121   0.179 -0.5353 -1.3502  0.9937
  988MOL0     H30363   8.332   2.880  -0.028 -2.5756 -1.3823  2.5146
  988MOL0     H30364   8.428   2.904   0.104 -1.1155 -2.4717 -1.5189
  988MOL0     H30365   8.451   3.076  -0.140  0.5823 -0.6681  0.6167
  988MOL0     H30366   8.530   3.123   0.004  0.4484 -0.5330  1.9050
  988MOL0     H30367   8.658   2.929   0.024 -5.6010 -0.9383  2.1089
  988MOL0     H30368   8.683   3.010  -0.133  0.6631 -1.6043 -1.1721
  988MOL0     H30369   8.471   2.874  -0.343  1.1460 -1.0262 -1.0961
  988MOL0     H30370   8.549   2.534  -0.441  0.5593 -0.0137  5.6669
  988MOL0     H30371   8.479   2.679  -0.520 -1.0121 -3.0683 -1.8479
  988MOL0     H30372   8.271   2.628  -0.410  2.6181  2.4264  2.1669
  988MOL0     H30373   8.343   2.498  -0.310 -0.6031  1.8734  1.2321
  988MOL0     H30374   8.253   2.513  -0.599 -1.5401 -0.6244 -0.8044
  988MOL0     H30375   8.373   2.395  -0.563 -0.8109  0.2574 -1.4442
  988MOL0     H30376   8.097   2.401  -0.443 -1.0038 -2.4827  0.7879
  988MOL0     H30377   8.212   2.274  -0.401 -1.4194  2.1229  3.0871
  988MOL0     H30378   8.107   2.118  -0.760  2.4119  0.9168 -0.3962
  988MOL0     H30379   7.977   2.169  -0.997  1.1551 -1.9649  0.9014
  988MOL0     H30380   7.808   2.205  -1.374  0.6577  2.4242  1.6256
  988MOL0     H30381   7.629   2.234  -1.548  0.1561 -0.5917  0.2867
  988MOL0     H30382   7.359   2.552  -1.461  2.1081 -1.2340  2.3849
  988MOL0     H30383   7.226   2.451  -1.408  0.5397  0.6435  0.3747
  988MOL0     H30384   7.142   2.523  -1.605  0.8800  0.1845  1.2735
  988MOL0     H30385   7.210   2.360  -1.641  0.1006 -0.4153 -0.2107
  988MOL0     H30386   7.271   2.493  -1.809 -6.8929  1.9340  2.2047
  988MOL0     H30387   7.421   2.497  -1.712  0.0258 -3.7008 -2.8362
  988MOL0     H30388   7.222   2.735  -1.672  0.0149 -0.4544  0.7056
  988MOL0     H30389   7.386   2.722  -1.632  1.0350 -1.4267 -1.0868
  988MOL0     H30390   7.305   2.855  -1.838  3.4525  0.4977  1.2827
  988MOL0     H30391   7.275   2.693  -1.914 -2.4089 -0.1530  1.7022
  988MOL0     H30392   7.546   2.786  -1.809  3.1434 -1.0216 -1.2902
  988MOL0     H30393   7.487   2.837  -1.965 -0.6911  2.4704  3.3216
  988MOL0     H30394   7.568   2.550  -1.886  2.4953 -0.3957 -1.2076
  988MOL0     H30395   7.456   2.586  -2.023  1.8039  0.3688 -1.5306
  988MOL0     H30396   7.727   2.708  -2.004 -0.3416  2.1000 -2.0320
  988MOL0     H30397   7.620   2.734  -2.131 -3.6653 -0.9343 -0.7306
  988MOL0     H30398   7.389   2.448  -1.257  0.5566 -0.2919  0.6871
  988MOL0     H30399   7.586   2.441  -1.105  1.7275  1.6288 -0.5106
  988MOL0     H30400   7.949   2.569  -0.859  2.5471 -0.2999 -2.4006
  988MOL0     H30401   8.093   2.521  -0.680 -1.2659  1.7548 -1.8919
  988MOL0     H30402   7.699   3.370   0.312 -1.2756 -1.4823 -4.0524
  988MOL0     H30403   7.527   3.539   0.349 -0.5149  0.8667 -0.9921
  988MOL0     H30404   7.490   4.216   0.271  0.9683  3.2704  1.5135
  988MOL0     H30405   7.321   4.356   0.388  0.3447  0.8768 -1.4811
  988MOL0     H30406   7.028   4.311   0.733  1.6641  2.8412 -2.4702
  988MOL0     H30407   7.126   4.162   0.753  0.9400 -1.2946 -2.0514
  988MOL0     H30408   6.911   4.223   0.551 -1.8611  0.0019  2.1723
  988MOL0     H30409   7.010   4.091   0.519  1.1611  1.2701 -0.2119
  988MOL0     H30410   6.819   4.156   0.749  1.2848  0.5744 -0.0675
  988MOL0     H30411   6.929   4.012   0.762  2.3944 -3.9590 -3.8952
  988MOL0     H30412   6.702   3.955   0.691 -0.6180 -1.2302 -1.7999
  988MOL0     H30413   6.721   4.060   0.549 -2.2128 -1.3193  0.5156
  988MOL0     H30414   6.981   3.732   0.495  1.9196  1.0930  1.0099
  988MOL0     H30415   7.241   4.038   0.662  0.5718  2.4508  1.2960
  988MOL0     H30416   7.370   3.878   0.521 -0.7054  0.4487  0.6055
  989MOL0     O30417   5.163   5.895   3.848  0.0271  0.3196 -0.7287
  989MOL0     C30418   5.223   5.985   3.791 -0.2797  0.9758 -0.0592
  989MOL0     O30419   5.335   6.044   3.839 -0.7463 -0.7012  0.0007
  989MOL0     C30420   5.417   6.013   3.953  0.3280  1.2825  0.4514
  989MOL0     C30421   5.551   6.059   3.968 -1.0100  0.1571  0.6464
  989MOL0     C30422   5.611   6.057   4.095  0.3832 -1.3111 -0.1484
  989MOL0     C30423   5.541   6.004   4.197  0.6866 -0.2679 -1.0701
  989MOL0     O30424   5.595   5.987   4.319  0.1853 -0.3284 -0.1951
  989MOL0     C30425   5.621   6.115   4.386  0.6036 -0.4966 -1.3956
  989MOL0     C30426   5.632   6.086   4.546  0.1868 -0.2845  0.8285
  989MOL0     C30427   5.489   6.041   4.597  0.1624  0.5333 -0.6294
  989MOL0     C30428   5.385   6.157   4.615 -0.4564  0.6835  0.0256
  989MOL0     C30429   5.434   6.262   4.722 -0.3103  0.2196  0.6521
  989MOL0     C30430   5.433   6.213   4.862  0.2078  0.3639  0.0359
  989MOL0     C30431   5.462   6.329   4.959  0.0536  0.3087  0.2759
  989MOL0     C30432   5.530   6.290   5.084  0.4025  0.0778  0.2068
  989MOL0     N30433   5.658   6.232   5.060  0.2983 -0.6885  0.7099
  989MOL0     C30434   5.693   6.096   5.056 -0.2907 -0.2476 -0.2665
  989MOL0     C30435   5.811   6.091   4.994 -0.0800 -0.5328 -0.4495
  989MOL0     C30436   5.875   5.969   4.938 -0.6544  0.1160 -0.4701
  989MOL0     C30437   6.032   5.978   4.943 -0.1150  1.2082 -0.0945
  989MOL0     C30438   6.083   5.965   5.095 -0.9413  0.9329  0.1877
  989MOL0     C30439   6.062   6.091   5.175 -0.1436 -0.2530  0.3861
  989MOL0     O30440   6.146   6.086   5.290 -0.7673  0.4161 -0.5442
  989MOL0     C30441   6.155   6.182   5.379 -0.7553 -0.6810  0.2151
  989MOL0     C30442   6.096   6.304   5.363  0.3323  1.0284  0.4082
  989MOL0     C30443   6.120   6.400   5.462 -0.1776 -0.4352 -0.3539
  989MOL0     C30444   6.188   6.377   5.581  0.1845  0.3778 -0.1162
  989MOL0     C30445   6.197   6.482   5.686 -0.8158  0.1436  0.2686
  989MOL0     O30446   6.272   6.453   5.792  0.4398  0.1143 -0.6513
  989MOL0     C30447   6.290   6.545   5.897 -0.4482 -0.3571  0.2572
  989MOL0     C30448   6.332   6.675   5.891 -0.4379 -0.0609  0.5935
  989MOL0     C30449   6.381   6.744   6.002 -0.1478  0.4016 -0.3191
  989MOL0     C30450   6.396   6.683   6.130  0.0001 -0.1029  1.2404
  989MOL0     O30451   6.437   6.756   6.239 -0.7377 -0.0794  0.0684
  989MOL0     C30452   6.577   6.752   6.252 -0.5763 -0.5314 -0.3017
  989MOL0     C30453   6.620   6.829   6.377 -0.5129 -1.8664  0.7538
  989MOL0     C30454   6.593   6.751   6.504  0.2761 -0.2078 -0.1908
  989MOL0     C30455   6.625   6.838   6.631 -0.6187  0.5589 -0.3862
  989MOL0     C30456   6.607   6.743   6.749  0.6234 -0.3140  0.3207
  989MOL0     C30457   6.720   6.641   6.784 -0.5839  0.0333 -0.8427
  989MOL0     C30458   6.701   6.583   6.932  0.4715  0.4473  0.4992
  989MOL0     C30459   6.746   6.674   7.041  0.5850 -0.1400 -0.2855
  989MOL0    Cl30460   6.679   6.620   7.194 -0.1692 -0.2918 -0.8170
  989MOL0     C30461   6.348   6.549   6.139  0.1555 -0.0882 -0.0028
  989MOL0     C30462   6.300   6.484   6.022  0.1984 -0.8167  0.8465
  989MOL0     O30463   6.136   6.581   5.676  0.0304 -1.0017  0.9051
  989MOL0     C30464   6.251   6.255   5.587  0.7410 -0.0345 -0.5475
  989MOL0     C30465   6.238   6.163   5.487 -0.2179 -0.1998 -0.2508
  989MOL0     N30466   5.859   6.220   4.977 -0.1244  0.2323 -0.1257
  989MOL0     N30467   5.768   6.305   5.019  0.0426  0.0043  0.7295
  989MOL0     C30468   5.417   5.943   4.191 -0.2684 -0.3367  0.6849
  989MOL0     C30469   5.352   5.950   4.067 -0.7011 -0.0578  0.7598
  989MOL0     C30470   5.172   6.026   3.660  0.2603  0.1007 -0.3051
  989MOL0     C30471   5.225   5.967   3.547 -0.5069  0.3958 -0.0226
  989MOL0     C30472   5.191   6.017   3.416  0.2665 -0.8582  0.0397
  989MOL0     C30473   5.099   6.123   3.409  0.4295 -0.1223 -0.5378
  989MOL0     O30474   5.064   6.153   3.279 -1.0652 -0.5207 -0.3436
  989MOL0     C30475   4.953   6.238   3.247 -0.1558 -1.1707 -0.0503
  989MOL0     C30476   5.002   6.385   3.243 -0.6403 -0.4487  0.5615
  989MOL0     C30477   4.973   6.460   3.107  0.9856  0.9827 -0.1299
  989MOL0     C30478   5.031   6.601   3.113  0.2203 -0.2711  0.8972
  989MOL0     C30479   5.170   6.592   3.053  0.0267  0.7098 -0.8440
  989MOL0     C30480   5.276   6.551   3.028 -0.5785  0.8729  0.7948
  989MOL0     C30481   5.048   6.182   3.524  0.1625 -0.2215 -0.0394
  989MOL0     C30482   5.072   6.132   3.650 -0.3506 -0.1055  0.8245
  989MOL0     H30483   5.603   6.104   3.884  1.6155 -1.6132  1.2127
  989MOL0     H30484   5.715   6.084   4.113  0.1841 -1.0930  0.7003
  989MOL0     H30485   5.542   6.184   4.352 -0.1330 -1.1170 -0.9678
  989MOL0     H30486   5.716   6.158   4.354 -0.4036  1.3662 -2.0686
  989MOL0     H30487   5.660   6.175   4.604 -1.9009 -1.0112  3.1223
  989MOL0     H30488   5.698   6.000   4.552 -0.3544 -0.8573 -0.8845
  989MOL0     H30489   5.506   6.002   4.698  2.3429  1.5800 -0.5396
  989MOL0     H30490   5.443   5.968   4.529  0.6416 -1.3117  0.9606
  989MOL0     H30491   5.364   6.204   4.518 -0.8907 -4.5395 -2.7419
  989MOL0     H30492   5.293   6.112   4.652 -1.2057 -0.3871 -2.8853
  989MOL0     H30493   5.359   6.340   4.710  1.8066  2.0284 -2.3791
  989MOL0     H30494   5.537   6.294   4.703 -0.2071  1.0484  2.4390
  989MOL0     H30495   5.509   6.138   4.882 -2.2355 -1.4579  3.7594
  989MOL0     H30496   5.336   6.165   4.879 -1.0627  0.8495 -4.5419
  989MOL0     H30497   5.524   6.401   4.904  0.4301 -0.2477 -0.0453
  989MOL0     H30498   5.373   6.387   4.986 -0.5002 -0.8227  0.9711
  989MOL0     H30499   5.463   6.214   5.128 -2.0245  1.7681 -0.3718
  989MOL0     H30500   5.535   6.375   5.152  0.8421  0.2402 -0.0257
  989MOL0     H30501   5.634   6.011   5.090  0.2154 -0.8125 -0.7654
  989MOL0     H30502   5.833   5.960   4.838  0.1475 -1.0936 -0.7175
  989MOL0     H30503   5.837   5.883   4.995  1.1078 -0.2385  0.2595
  989MOL0     H30504   6.071   6.071   4.901  4.7879 -0.6245 -0.2618
  989MOL0     H30505   6.076   5.892   4.892 -1.7307 -0.6527  1.4912
  989MOL0     H30506   6.025   5.880   5.131 -1.5121 -0.8231 -4.2663
  989MOL0     H30507   6.186   5.930   5.105 -1.7837 -1.4694  1.0789
  989MOL0     H30508   5.960   6.115   5.204 -0.1519  0.0847  0.0927
  989MOL0     H30509   6.095   6.178   5.117  0.1866 -1.2785 -1.0356
  989MOL0     H30510   6.026   6.309   5.280  2.7065 -1.0383 -1.8855
  989MOL0     H30511   6.085   6.500   5.439  2.5232  1.5597  3.1685
  989MOL0     H30512   6.320   6.722   5.794  0.8073  0.0999  0.5113
  989MOL0     H30513   6.413   6.847   5.986  0.2393  0.9801  3.2983
  989MOL0     H30514   6.625   6.793   6.163 -2.3248  0.3215 -0.9038
  989MOL0     H30515   6.625   6.655   6.269  0.5679  0.4357  2.8064
  989MOL0     H30516   6.558   6.918   6.389  0.9776 -0.7139  0.1489
  989MOL0     H30517   6.724   6.862   6.376 -0.9270 -0.4392  1.7735
  989MOL0     H30518   6.656   6.662   6.506  1.1777  0.4268  0.5547
  989MOL0     H30519   6.490   6.715   6.502  0.3355 -0.4019 -2.0871
  989MOL0     H30520   6.732   6.856   6.641 -0.3577 -1.0805 -0.0338
  989MOL0     H30521   6.570   6.932   6.618  1.5443  1.6565 -2.1723
  989MOL0     H30522   6.515   6.685   6.737  0.4800  0.1653 -1.1558
  989MOL0     H30523   6.581   6.818   6.825 -0.6392 -1.1411  0.7447
  989MOL0     H30524   6.808   6.706   6.786 -0.9267  0.4882  0.8368
  989MOL0     H30525   6.720   6.558   6.713  2.0608  1.2374 -2.4088
  989MOL0     H30526   6.593   6.572   6.940 -0.0911  1.8506 -3.0077
  989MOL0     H30527   6.747   6.484   6.929  0.4526  0.4594 -0.9808
  989MOL0     H30528   6.714   6.776   7.017  1.3840  0.1034 -0.3471
  989MOL0     H30529   6.855   6.680   7.054  0.9594  3.9485 -3.4256
  989MOL0     H30530   6.352   6.501   6.237  0.2433 -1.6046 -0.7154
  989MOL0     H30531   6.273   6.379   6.023  0.4360 -0.8840  0.4023
  989MOL0     H30532   6.297   6.237   5.684 -4.5699  0.3722  2.4936
  989MOL0     H30533   6.291   6.069   5.493  1.6927  0.5712 -3.1271
  989MOL0     H30534   5.379   5.887   4.277  1.3570  1.1463  2.4507
  989MOL0     H30535   5.261   5.891   4.057 -0.2660 -0.4310 -1.6153
  989MOL0     H30536   5.303   5.892   3.557 -0.5810  0.3000 -0.1663
  989MOL0     H30537   5.233   5.985   3.321 -0.8715  2.1228 -1.6209
  989MOL0     H30538   4.885   6.223   3.331  0.6781 -1.6936  0.5466
  989MOL0     H30539   4.915   6.215   3.147  4.5544 -0.2332 -2.3603
  989MOL0     H30540   4.947   6.441   3.319 -1.8959 -1.4771  0.4381
  989MOL0     H30541   5.111   6.394   3.254 -0.4802  1.9906 -1.9198
  989MOL0     H30542   4.865   6.476   3.107  0.7411 -0.4477  1.2498
  989MOL0     H30543   5.000   6.408   3.014 -0.3876 -1.0311  0.5251
  989MOL0     H30544   4.969   6.666   3.051 -1.6602  0.1396  3.0623
  989MOL0     H30545   5.027   6.641   3.215  0.0510  0.9422  0.4397
  989MOL0     H30546   5.371   6.505   3.007 -0.1930  2.6459 -1.7443
  989MOL0     H30547   4.975   6.262   3.518 -0.4286 -0.8512 -3.4716
  989MOL0     H30548   5.038   6.170   3.746  1.6955 -1.0808  2.0116
  990MOL0     O30549   2.985   6.529  10.891 -0.2757 -0.1708  0.1069
  990MOL0     C30550   2.915   6.446  10.947  0.7436 -0.5535  0.2646
  990MOL0     O30551   2.850   6.337  10.894 -0.0374  0.2435  0.0341
  990MOL0     C30552   2.878   6.284  10.774 -0.6141  0.4260  0.2126
  990MOL0     C30553   3.008   6.269  10.726 -0.1971 -0.5303 -0.4851
  990MOL0     C30554   3.032   6.223  10.598 -0.3661  0.1560 -0.3129
  990MOL0     C30555   2.933   6.175  10.517  0.4405  0.6840 -0.0313
  990MOL0     O30556   2.958   6.113  10.395  0.7177 -0.5126 -0.3388
  990MOL0     C30557   2.865   6.110  10.291 -0.5154  0.1362 -0.5676
  990MOL0     C30558   2.914   6.050  10.161 -0.1924 -0.7030  0.5600
  990MOL0     C30559   2.790   6.018  10.086 -0.0819  0.7233  0.1671
  990MOL0     C30560   2.819   5.983   9.940  1.2536  0.3329  0.6582
  990MOL0     C30561   2.704   6.001   9.836  0.0977  0.9792 -0.4950
  990MOL0     C30562   2.571   5.929   9.877  0.0949  0.3153 -0.2386
  990MOL0     C30563   2.478   5.930   9.754  0.0505 -0.0993  0.0435
  990MOL0     C30564   2.357   5.828   9.767 -0.5623  0.4743 -0.6891
  990MOL0     N30565   2.264   5.846   9.663 -0.4588  0.9752 -0.0333
  990MOL0     C30566   2.282   5.924   9.552 -0.2130  0.3269  0.9638
  990MOL0     C30567   2.162   5.917   9.489 -0.5915 -0.4479 -0.9254
  990MOL0     C30568   2.155   5.987   9.355  0.4435 -0.5035 -0.2745
  990MOL0     C30569   2.012   6.015   9.307 -0.3612  0.0292 -0.1550
  990MOL0     C30570   2.026   6.067   9.168  0.3745 -1.2437 -0.4267
  990MOL0     C30571   1.904   6.055   9.085  0.2710  0.7148  0.4847
  990MOL0     O30572   1.856   5.916   9.072  0.4354  0.2537  0.1885
  990MOL0     C30573   1.770   5.884   8.970 -0.3740  0.8509  0.1698
  990MOL0     C30574   1.801   5.917   8.836  0.5420  0.3350 -1.0111
  990MOL0     C30575   1.711   5.893   8.735 -0.3833  0.4524 -0.1467
  990MOL0     C30576   1.585   5.839   8.761  0.3908  0.3349 -0.3137
  990MOL0     C30577   1.474   5.829   8.661  0.2610 -0.1651  0.0863
  990MOL0     O30578   1.353   5.795   8.713  0.8483  0.7753  0.4825
  990MOL0     C30579   1.254   5.778   8.615 -0.8396 -0.2929 -0.2193
  990MOL0     C30580   1.221   5.656   8.561 -0.9413  0.4588 -0.2031
  990MOL0     C30581   1.110   5.651   8.485 -0.3244 -0.0962 -1.0123
  990MOL0     C30582   1.033   5.766   8.454 -0.2008 -0.2246  0.0549
  990MOL0     O30583   0.925   5.766   8.374 -1.3003  0.0480  0.3067
  990MOL0     C30584   0.864   5.643   8.340 -0.3499 -1.1018  0.5906
  990MOL0     C30585   0.732   5.673   8.268  0.0088  1.0886  0.0821
  990MOL0     C30586   0.655   5.544   8.216 -0.8432 -0.4374 -0.7653
  990MOL0     C30587   0.526   5.571   8.136 -0.5453  0.6822  0.1897
  990MOL0     C30588   0.492   5.480   8.019  0.1484  0.2337 -0.5770
  990MOL0     C30589   0.454   5.348   8.089 -0.6565 -0.3555  0.2666
  990MOL0     C30590   0.555   5.238   8.105 -0.6060  0.6668  1.3755
  990MOL0     C30591   0.520   5.148   8.224 -0.0551 -0.4873  0.1268
  990MOL0    Cl30592   0.619   5.205   8.373 -0.1106 -0.1073 -0.1225
  990MOL0     C30593   1.079   5.886   8.499  0.5117  0.3296 -0.0497
  990MOL0     C30594   1.175   5.892   8.590 -0.6075  0.2727  0.4438
  990MOL0     O30595   1.494   5.862   8.544 -0.5067 -0.2472 -0.0967
  990MOL0     C30596   1.557   5.796   8.894  0.5053 -0.4643  0.1901
  990MOL0     C30597   1.648   5.817   8.994  0.5896 -0.1684 -0.8333
  990MOL0     N30598   2.075   5.840   9.557 -0.8270 -0.7431 -0.4086
  990MOL0     N30599   2.134   5.787   9.657  0.8506 -1.0782 -0.1812
  990MOL0     C30600   2.803   6.191  10.563 -0.0032 -0.3142 -0.1925
  990MOL0     C30601   2.777   6.256  10.684  1.0340  1.1826 -0.2075
  990MOL0     C30602   2.889   6.469  11.089 -0.1897 -0.5199  0.2903
  990MOL0     C30603   2.936   6.585  11.155  0.5331  0.9656 -0.0117
  990MOL0     C30604   2.925   6.596  11.299  0.0759 -1.0122 -0.8989
  990MOL0     C30605   2.862   6.488  11.375  0.3969  0.7926  1.2674
  990MOL0     O30606   2.867   6.496  11.513  0.1972  0.1966  0.4500
  990MOL0     C30607   2.842   6.379  11.591  0.6104 -0.1311 -0.2662
  990MOL0     C30608   2.908   6.400  11.732  0.7643 -0.2163 -0.2391
  990MOL0     C30609   3.061   6.446  11.711 -0.2768 -0.6008  0.2226
  990MOL0     C30610   3.150   6.391  11.828  0.8148  0.5101 -0.8316
  990MOL0     C30611   3.160   6.241  11.807  0.5359 -0.4782 -0.2828
  990MOL0     C30612   3.189   6.126  11.800 -0.7340  0.3931  0.1229
  990MOL0     C30613   2.819   6.376  11.306 -0.4752  0.1068  0.5421
  990MOL0     C30614   2.827   6.368  11.164  0.1153  0.7252  0.0697
  990MOL0     H30615   3.089   6.294  10.793 -1.8250  1.8794  0.7516
  990MOL0     H30616   3.134   6.208  10.563 -0.5954 -2.3563 -0.0531
  990MOL0     H30617   2.814   6.205  10.278  0.0857  0.2869 -1.9070
  990MOL0     H30618   2.796   6.035  10.332 -1.7583 -0.4224 -3.4332
  990MOL0     H30619   2.980   5.962  10.163  0.9934  0.0184 -2.1022
  990MOL0     H30620   2.970   6.133  10.119  0.8247 -0.6405  1.9574
  990MOL0     H30621   2.720   6.102  10.090 -0.5876  0.3347 -0.3864
  990MOL0     H30622   2.746   5.931  10.135  1.8619 -0.8935 -0.8102
  990MOL0     H30623   2.901   6.051   9.912 -0.5565  4.8555  4.8762
  990MOL0     H30624   2.847   5.877   9.940 -3.9144 -1.3048  1.8545
  990MOL0     H30625   2.739   5.977   9.735 -2.4608  2.7273 -1.9117
  990MOL0     H30626   2.699   6.110   9.826  0.5983  0.9128 -1.5468
  990MOL0     H30627   2.519   5.969   9.965 -2.5501 -2.5367 -0.3391
  990MOL0     H30628   2.588   5.823   9.896 -0.4071 -0.0206 -1.5546
  990MOL0     H30629   2.432   6.029   9.751 -2.6536 -1.0773  3.1310
  990MOL0     H30630   2.536   5.902   9.666 -0.3506 -3.1589  0.6412
  990MOL0     H30631   2.299   5.832   9.860 -2.3925 -0.2986 -1.7461
  990MOL0     H30632   2.389   5.726   9.747 -1.5914  0.5214 -2.8495
  990MOL0     H30633   2.373   5.975   9.521  0.2130 -0.5766  0.6895
  990MOL0     H30634   2.206   5.927   9.279  1.4615 -0.7054  0.5349
  990MOL0     H30635   2.200   6.087   9.364 -0.9264  0.1623 -0.6488
  990MOL0     H30636   1.963   6.085   9.375  3.2071  3.1695 -0.4470
  990MOL0     H30637   1.950   5.925   9.309  0.1938 -0.3570 -0.0366
  990MOL0     H30638   2.046   6.174   9.183 -1.1674 -0.9121 -0.5103
  990MOL0     H30639   2.111   6.026   9.114  1.4570 -0.6580  0.7720
  990MOL0     H30640   1.919   6.100   8.987 -3.1406 -2.4844 -1.7827
  990MOL0     H30641   1.818   6.100   9.136 -1.0344 -0.1511 -0.8701
  990MOL0     H30642   1.899   5.955   8.807  1.7735 -2.5695 -0.9173
  990MOL0     H30643   1.751   5.913   8.636 -1.1598  3.5793  0.0839
  990MOL0     H30644   1.274   5.572   8.605  0.4010  0.7665 -1.1713
  990MOL0     H30645   1.083   5.553   8.447 -0.4032  0.0538 -1.3490
  990MOL0     H30646   0.849   5.573   8.422  2.1960 -4.4169 -1.5175
  990MOL0     H30647   0.922   5.588   8.265 -0.7903 -1.2819  0.3767
  990MOL0     H30648   0.760   5.743   8.188  1.4223  1.0495  0.5000
  990MOL0     H30649   0.666   5.733   8.331 -0.3443  4.3707 -3.1348
  990MOL0     H30650   0.632   5.478   8.299 -0.1603 -1.4768 -1.3756
  990MOL0     H30651   0.720   5.482   8.153 -0.3883 -2.4915  1.5714
  990MOL0     H30652   0.451   5.588   8.213 -0.8692 -2.1567  0.6224
  990MOL0     H30653   0.546   5.668   8.090  1.4801  1.7347  3.0285
  990MOL0     H30654   0.573   5.465   7.947 -0.1021 -1.4353 -0.5414
  990MOL0     H30655   0.402   5.518   7.971 -0.0610 -0.3134 -0.6182
  990MOL0     H30656   0.375   5.306   8.027 -2.4564 -0.0100  2.2036
  990MOL0     H30657   0.398   5.376   8.179 -0.1571  2.2264 -0.1489
  990MOL0     H30658   0.554   5.180   8.012  1.6383  0.9138  1.1325
  990MOL0     H30659   0.658   5.272   8.116 -0.1875  0.7182 -1.7822
  990MOL0     H30660   0.551   5.045   8.201  1.0770  0.3292 -2.5167
  990MOL0     H30661   0.414   5.140   8.246 -0.1216  0.5929  0.2416
  990MOL0     H30662   1.015   5.970   8.472 -0.9970 -0.2140  1.6332
  990MOL0     H30663   1.205   5.984   8.639  0.2161 -0.1519  0.7651
  990MOL0     H30664   1.457   5.761   8.917  1.1625 -1.4047  1.7784
  990MOL0     H30665   1.628   5.792   9.098 -1.4790 -1.7943 -1.5560
  990MOL0     H30666   2.725   6.145  10.503  1.7800 -0.3585 -2.6360
  990MOL0     H30667   2.676   6.291  10.702  0.6169  0.1778 -0.4832
  990MOL0     H30668   2.987   6.667  11.106  3.3383  0.4569  1.8485
  990MOL0     H30669   2.960   6.683  11.354 -2.7366  0.8300 -1.7987
  990MOL0     H30670   2.872   6.288  11.539 -0.3889 -1.9845  2.2223
  990MOL0     H30671   2.736   6.363  11.612  0.2771 -0.0229 -1.7185
  990MOL0     H30672   2.857   6.489  11.770 -1.0025 -0.6926 -1.3599
  990MOL0     H30673   2.892   6.313  11.796 -3.5779 -1.2472 -2.3496
  990MOL0     H30674   3.052   6.554  11.725 -3.2330 -0.5017 -1.5938
  990MOL0     H30675   3.102   6.433  11.611 -1.4235  3.0177 -0.8637
  990MOL0     H30676   3.249   6.438  11.831  0.8992  0.2852  1.4392
  990MOL0     H30677   3.102   6.408  11.925 -2.0833  1.8216 -2.3634
  990MOL0     H30678   3.213   6.021  11.799 -1.1393  0.2645  1.8695
  990MOL0     H30679   2.772   6.300  11.367  0.0862 -0.9121 -0.2669
  990MOL0     H30680   2.789   6.273  11.128  0.8549  0.0010  1.1311
  991MOL0     O30681   4.194   0.474   8.201  1.3296  0.1007  0.4045
  991MOL0     C30682   4.099   0.447   8.278  0.7102 -0.2224 -0.4956
  991MOL0     O30683   4.033   0.329   8.286 -0.4685  0.9498  0.3372
  991MOL0     C30684   4.058   0.223   8.205  0.5188  0.1730  0.0431
  991MOL0     C30685   4.150   0.214   8.102 -0.6310  0.3174 -0.1836
  991MOL0     C30686   4.139   0.101   8.018 -0.1193  0.1839  0.3872
  991MOL0     C30687   4.059  -0.011   8.056 -0.4632  0.5824 -0.3358
  991MOL0     O30688   4.065  -0.132   7.989 -0.7486  0.8073  0.2197
  991MOL0     C30689   4.043  -0.256   8.070  0.0354 -0.2966 -0.7500
  991MOL0     C30690   4.111  -0.378   8.005  0.1410 -0.6225  0.3113
  991MOL0     C30691   4.043  -0.409   7.874 -0.8866  0.2994 -0.3262
  991MOL0     C30692   4.071  -0.556   7.831 -0.5709 -0.0595 -0.1018
  991MOL0     C30693   4.111  -0.578   7.687  0.5035  0.3114 -0.1930
  991MOL0     C30694   4.260  -0.526   7.671 -0.6666 -0.3272  0.0160
  991MOL0     C30695   4.300  -0.543   7.517  0.3088  0.4064  0.8990
  991MOL0     C30696   4.445  -0.474   7.492  0.0593 -0.6667  0.0161
  991MOL0     N30697   4.446  -0.433   7.352 -0.4739  0.1405 -0.2862
  991MOL0     C30698   4.533  -0.472   7.254 -0.1712  0.9210  0.3016
  991MOL0     C30699   4.522  -0.393   7.148  0.2664 -1.1375  0.1037
  991MOL0     C30700   4.580  -0.386   7.007 -0.1479 -0.7714 -0.5460
  991MOL0     C30701   4.475  -0.410   6.901  0.0234 -0.1539  0.6404
  991MOL0     C30702   4.528  -0.362   6.763  0.6448  0.8004 -0.3150
  991MOL0     C30703   4.439  -0.405   6.641  0.0321  0.5076  0.3553
  991MOL0     O30704   4.457  -0.534   6.600 -0.3378 -0.1314  0.2905
  991MOL0     C30705   4.564  -0.569   6.519  0.1419  0.2558  0.3341
  991MOL0     C30706   4.678  -0.491   6.479  0.8336 -0.5924  0.2409
  991MOL0     C30707   4.787  -0.545   6.417  1.0136  1.0910  0.1073
  991MOL0     C30708   4.783  -0.679   6.381  0.4163  0.1367 -0.7600
  991MOL0     C30709   4.899  -0.732   6.307  0.0726  0.5466  0.5412
  991MOL0     O30710   4.904  -0.870   6.287  0.3750 -0.0256  0.1243
  991MOL0     C30711   5.004  -0.923   6.211 -0.2525  0.2592  0.4103
  991MOL0     C30712   5.097  -1.019   6.265 -0.3283  0.1082 -0.0881
  991MOL0     C30713   5.197  -1.077   6.184  0.2066 -0.2430 -0.5969
  991MOL0     C30714   5.214  -1.030   6.058  0.3934  0.4375  0.7493
  991MOL0     O30715   5.318  -1.083   5.989 -0.2342  0.0644  0.4426
  991MOL0     C30716   5.400  -1.011   5.892 -0.1971  0.1402  0.8125
  991MOL0     C30717   5.408  -1.096   5.767  0.6223  0.6135  0.0731
  991MOL0     C30718   5.507  -1.045   5.662 -0.0898 -0.1165  0.3293
  991MOL0     C30719   5.462  -1.095   5.523 -0.9699 -0.4933 -1.4089
  991MOL0     C30720   5.523  -1.024   5.394 -0.0615 -0.0972 -0.1278
  991MOL0     C30721   5.669  -0.964   5.399  0.7952  0.0641  0.7974
  991MOL0     C30722   5.722  -0.905   5.267  0.4236  0.3624  0.3975
  991MOL0     C30723   5.871  -0.901   5.244 -0.5144  0.3337  0.3419
  991MOL0    Cl30724   5.906  -0.924   5.069 -0.3514 -0.0064  0.2734
  991MOL0     C30725   5.129  -0.931   6.001  0.0510  0.1426 -0.2872
  991MOL0     C30726   5.025  -0.879   6.087 -0.9060  0.2948  0.4266
  991MOL0     O30727   4.978  -0.649   6.270  0.1570 -0.2413 -0.1120
  991MOL0     C30728   4.665  -0.756   6.404 -0.8140 -0.6011 -0.1216
  991MOL0     C30729   4.564  -0.705   6.481 -0.3967  0.3678  0.3378
  991MOL0     N30730   4.422  -0.307   7.176 -0.9535 -0.3711 -0.2519
  991MOL0     N30731   4.379  -0.332   7.295  0.1806  0.5037  0.2884
  991MOL0     C30732   3.971   0.009   8.162  0.1537 -0.5476  0.9809
  991MOL0     C30733   3.965   0.129   8.229  0.0917  0.6407  0.1371
  991MOL0     C30734   4.040   0.558   8.347 -0.0643 -0.2984 -0.4063
  991MOL0     C30735   4.057   0.692   8.316 -0.4906  0.0553 -0.0521
  991MOL0     C30736   3.990   0.789   8.385 -0.4962 -0.3535 -0.1320
  991MOL0     C30737   3.883   0.762   8.470 -0.3605 -0.1594  0.2665
  991MOL0     O30738   3.797   0.852   8.519 -0.6640 -0.7956 -0.1058
  991MOL0     C30739   3.667   0.831   8.472 -0.8705 -0.1195  0.5120
  991MOL0     C30740   3.577   0.952   8.468  1.0666  0.1122  0.0350
  991MOL0     C30741   3.451   0.937   8.379  0.7185 -0.6763 -0.5041
  991MOL0     C30742   3.355   0.814   8.414  0.9335  0.0035 -0.1531
  991MOL0     C30743   3.348   0.788   8.555  1.0195  0.1206 -0.4925
  991MOL0     C30744   3.348   0.771   8.676 -0.1712 -0.1512 -0.6682
  991MOL0     C30745   3.866   0.630   8.510 -0.5729 -0.3373  0.1437
  991MOL0     C30746   3.948   0.531   8.450 -0.2577  0.3670  0.0952
  991MOL0     H30747   4.219   0.293   8.073 -1.4345  1.1761  0.1694
  991MOL0     H30748   4.202   0.101   7.930  2.2814 -0.4889  2.0014
  991MOL0     H30749   3.938  -0.276   8.096  0.5364 -1.3449  0.5938
  991MOL0     H30750   4.085  -0.253   8.171 -1.6107  0.6129 -0.0374
  991MOL0     H30751   4.079  -0.460   8.070 -0.5093 -2.1725 -1.8679
  991MOL0     H30752   4.220  -0.372   7.995  0.0292 -1.1068 -1.4338
  991MOL0     H30753   4.087  -0.335   7.807 -0.3833 -1.0253 -1.5058
  991MOL0     H30754   3.935  -0.391   7.883 -0.9599  0.9570 -2.1444
  991MOL0     H30755   4.137  -0.603   7.905 -4.0581 -1.1179  2.5760
  991MOL0     H30756   3.978  -0.611   7.846 -1.1448  0.8213 -0.3559
  991MOL0     H30757   4.042  -0.519   7.627  1.7461  2.2922  0.2299
  991MOL0     H30758   4.101  -0.684   7.663 -0.4445  0.7059 -1.6117
  991MOL0     H30759   4.338  -0.576   7.729  0.1001 -1.8383 -2.2019
  991MOL0     H30760   4.258  -0.421   7.703  2.0177 -0.4388  0.7814
  991MOL0     H30761   4.316  -0.646   7.486  3.6065  0.9985  0.2624
  991MOL0     H30762   4.220  -0.491   7.462 -0.9443  0.4316  2.6444
  991MOL0     H30763   4.517  -0.554   7.514 -1.3634 -1.8363  0.6203
  991MOL0     H30764   4.464  -0.392   7.562 -1.0455 -0.2904 -0.1100
  991MOL0     H30765   4.613  -0.544   7.268 -1.0113 -0.0021  0.4410
  991MOL0     H30766   4.655  -0.465   6.992  0.4939 -0.2082 -0.3226
  991MOL0     H30767   4.632  -0.292   6.990  0.7573 -1.4273 -1.5212
  991MOL0     H30768   4.380  -0.357   6.914  0.9447  1.8580 -0.2913
  991MOL0     H30769   4.461  -0.517   6.885  1.4608 -0.3242  0.4403
  991MOL0     H30770   4.524  -0.252   6.764  0.2335  0.8134  1.8824
  991MOL0     H30771   4.632  -0.389   6.744  0.7840  1.6234 -0.7905
  991MOL0     H30772   4.448  -0.341   6.553  1.2465 -0.3628 -0.1779
  991MOL0     H30773   4.337  -0.397   6.681 -1.3814  2.5611 -3.1716
  991MOL0     H30774   4.675  -0.386   6.508 -3.1088  0.4123 -2.8961
  991MOL0     H30775   4.875  -0.482   6.412  1.0467  1.1126  0.7666
  991MOL0     H30776   5.082  -1.043   6.370 -0.8164  0.2403 -0.1254
  991MOL0     H30777   5.272  -1.146   6.223 -1.1179 -1.0138  0.7329
  991MOL0     H30778   5.497  -0.986   5.936  0.2224  0.8177 -0.4271
  991MOL0     H30779   5.374  -0.913   5.851 -0.0513 -0.8089 -1.7628
  991MOL0     H30780   5.309  -1.115   5.725  0.9245 -2.6275  0.5181
  991MOL0     H30781   5.440  -1.196   5.798 -1.6684  0.5071  2.3721
  991MOL0     H30782   5.613  -1.071   5.671 -0.0015  0.6315  1.9894
  991MOL0     H30783   5.508  -0.937   5.677 -1.0477 -0.0501 -0.0452
  991MOL0     H30784   5.476  -1.203   5.520 -1.8627 -0.7962  1.6504
  991MOL0     H30785   5.354  -1.084   5.509 -1.7209 -3.3960  1.0532
  991MOL0     H30786   5.448  -0.953   5.358 -0.1973 -0.3067 -0.2573
  991MOL0     H30787   5.530  -1.104   5.320  1.0718 -0.5297  0.4195
  991MOL0     H30788   5.737  -1.044   5.431  1.9993  0.3553 -0.9064
  991MOL0     H30789   5.675  -0.890   5.480  1.9023  1.1175 -0.1951
  991MOL0     H30790   5.688  -0.978   5.193  0.5343 -0.1043  0.8014
  991MOL0     H30791   5.663  -0.815   5.246 -2.3405 -1.3745  0.0995
  991MOL0     H30792   5.924  -0.974   5.306  2.9606  1.9910 -0.4071
  991MOL0     H30793   5.913  -0.803   5.271 -0.1071  1.2178 -2.9984
  991MOL0     H30794   5.154  -0.881   5.908  0.0774 -0.3303 -0.5366
  991MOL0     H30795   4.963  -0.800   6.046 -1.1086 -0.7013 -1.3460
  991MOL0     H30796   4.654  -0.857   6.368  3.3976 -1.3131  0.0501
  991MOL0     H30797   4.485  -0.772   6.515 -0.3177  0.6035  1.0058
  991MOL0     H30798   3.904  -0.071   8.191  0.7338 -0.8217  1.5936
  991MOL0     H30799   3.892   0.139   8.309 -2.3362 -0.4736 -1.7948
  991MOL0     H30800   4.130   0.717   8.239  2.4964 -0.8115  2.2993
  991MOL0     H30801   4.004   0.894   8.362 -2.3977  0.0599  0.4163
  991MOL0     H30802   3.622   0.758   8.540  0.0416 -3.7704 -2.4552
  991MOL0     H30803   3.660   0.784   8.374  0.3428  0.7589 -0.0179
  991MOL0     H30804   3.547   0.985   8.568 -3.1334  2.9057 -1.8596
  991MOL0     H30805   3.638   1.031   8.425 -0.7298  0.9026 -1.2028
  991MOL0     H30806   3.487   0.938   8.276  0.0849 -2.5714 -0.7648
  991MOL0     H30807   3.397   1.032   8.381  1.1434 -0.2605 -3.6953
  991MOL0     H30808   3.257   0.834   8.368  1.2502  3.1950  0.3522
  991MOL0     H30809   3.394   0.721   8.371 -0.7283 -0.2092 -1.3015
  991MOL0     H30810   3.355   0.763   8.783 -1.5753  6.1340  0.2516
  991MOL0     H30811   3.789   0.594   8.576  0.4722 -2.8947  0.0932
  991MOL0     H30812   3.923   0.432   8.488 -1.2278  1.4781  2.5925
  992MOL0     O30813   8.418   9.670  11.104 -0.3218 -0.5881  0.0283
  992MOL0     C30814   8.309   9.714  11.113  1.3814 -0.4443 -0.4828
  992MOL0     O30815   8.224   9.723  11.014 -0.6029  0.1049 -0.4682
  992MOL0     C30816   8.286   9.723  10.889  0.4997 -0.2598 -0.1372
  992MOL0     C30817   8.341   9.842  10.841  0.2617 -0.1408 -0.9328
  992MOL0     C30818   8.400   9.850  10.716 -0.7338 -0.0045 -0.7083
  992MOL0     C30819   8.425   9.737  10.641  0.4059 -0.3409  0.8654
  992MOL0     O30820   8.469   9.744  10.509 -0.2655 -1.3079 -0.0320
  992MOL0     C30821   8.590   9.689  10.454 -0.0985  0.9060 -0.1336
  992MOL0     C30822   8.701   9.716  10.557 -0.7855 -0.0426  0.1260
  992MOL0     C30823   8.836   9.708  10.484 -0.5031 -0.1960 -0.1333
  992MOL0     C30824   8.945   9.752  10.584  0.0730  0.5616 -0.3676
  992MOL0     C30825   9.088   9.741  10.525  0.1605 -0.3274  0.0828
  992MOL0     C30826   9.194   9.769  10.640 -0.2332 -0.2076 -0.0451
  992MOL0     C30827   9.197   9.675  10.756  1.0787  0.5439 -0.8129
  992MOL0     C30828   9.334   9.612  10.751 -0.6236 -0.6489 -1.3312
  992MOL0     N30829   9.370   9.555  10.878  0.9470  0.6444  0.0379
  992MOL0     C30830   9.383   9.419  10.888  1.0288 -0.0345  0.7423
  992MOL0     C30831   9.395   9.391  11.023  0.3838 -0.5782  0.3974
  992MOL0     C30832   9.412   9.265  11.088 -0.2353  0.0188  0.0902
  992MOL0     C30833   9.536   9.198  11.017 -1.0140 -1.2759 -0.2810
  992MOL0     C30834   9.668   9.269  11.073  0.6758  0.0175  0.8191
  992MOL0     C30835   9.789   9.239  10.983  0.5019  1.0290  0.3760
  992MOL0     O30836   9.778   9.291  10.845 -0.3350  0.1569 -0.5903
  992MOL0     C30837   9.772   9.428  10.826 -0.6444  0.4000  0.5686
  992MOL0     C30838   9.752   9.473  10.689 -0.0551 -0.0852  0.1176
  992MOL0     C30839   9.721   9.605  10.654  0.4866  1.1643  0.1363
  992MOL0     C30840   9.717   9.703  10.753  0.0198  0.3572  0.0101
  992MOL0     C30841   9.694   9.854  10.728 -0.7998  0.9049 -0.9362
  992MOL0     O30842   9.629   9.925  10.815  0.1366  0.1067 -0.2444
  992MOL0     C30843   9.669  10.050  10.837 -1.3341 -0.7083  0.1028
  992MOL0     C30844   9.588  10.146  10.779 -0.9195 -0.0625 -0.8564
  992MOL0     C30845   9.618  10.289  10.793  0.5244 -0.3441 -0.2861
  992MOL0     C30846   9.723  10.328  10.881 -0.8077  0.4535  0.2972
  992MOL0     O30847   9.751  10.460  10.890  0.0852 -0.2118 -0.1680
  992MOL0     C30848   9.890  10.496  10.890 -0.1561  0.1940  0.8392
  992MOL0     C30849   9.929  10.633  10.821  0.4167  0.4584 -0.2695
  992MOL0     C30850  10.078  10.647  10.833  1.3635 -0.2648  0.1713
  992MOL0     C30851  10.120  10.797  10.826  0.3388 -0.1723  0.6849
  992MOL0     C30852  10.273  10.824  10.820  0.6678  1.3226 -0.8908
  992MOL0     C30853  10.294  10.974  10.804  0.1774  0.2192  0.4689
  992MOL0     C30854  10.298  11.040  10.945  0.6612 -0.0215 -0.0725
  992MOL0     C30855  10.435  11.092  10.978 -0.7020  0.0878 -0.7300
  992MOL0    Cl30856  10.545  10.948  11.031  0.0954  0.3567  0.1597
  992MOL0     C30857   9.811  10.225  10.941  0.4740 -0.3199  0.0318
  992MOL0     C30858   9.778  10.091  10.912 -0.4603 -0.6255 -0.6982
  992MOL0     O30859   9.743   9.897  10.622  0.0560 -0.0362  0.0984
  992MOL0     C30860   9.754   9.664  10.884 -0.4363  0.1896 -0.3351
  992MOL0     C30861   9.786   9.535  10.922 -0.3940  0.1832  0.1326
  992MOL0     N30862   9.391   9.513  11.087 -0.0702 -0.1898 -0.5227
  992MOL0     N30863   9.373   9.613  11.005 -0.0846  0.2331 -1.3998
  992MOL0     C30864   8.388   9.619  10.699  0.4412 -0.5163  0.3622
  992MOL0     C30865   8.317   9.608  10.826 -0.0373 -0.5092  1.2487
  992MOL0     C30866   8.269   9.787  11.239 -0.9049 -0.4632  0.0136
  992MOL0     C30867   8.130   9.811  11.253 -0.1883  1.5716  0.5690
  992MOL0     C30868   8.093   9.877  11.377 -0.1953 -0.1022 -0.1587
  992MOL0     C30869   8.189   9.915  11.466 -0.2716  0.2722  0.7535
  992MOL0     O30870   8.161   9.981  11.587 -0.4211 -0.1119 -0.3846
  992MOL0     C30871   8.039   9.952  11.643 -0.0397  0.3583 -0.3534
  992MOL0     C30872   8.018  10.016  11.778 -0.7210  0.0363 -0.5200
  992MOL0     C30873   8.036  10.169  11.771  0.7145 -0.6394  0.1276
  992MOL0     C30874   7.907  10.251  11.738 -0.5967  0.2039 -0.3494
  992MOL0     C30875   7.802  10.210  11.839 -0.4367  0.1787 -0.1175
  992MOL0     C30876   7.730  10.189  11.937  0.7576 -0.0813  0.2637
  992MOL0     C30877   8.317   9.891  11.446 -0.4905  0.0949 -0.3487
  992MOL0     C30878   8.357   9.830  11.337 -0.8490  0.3182 -0.6668
  992MOL0     H30879   8.321   9.931  10.900  1.7582 -0.4963  0.1670
  992MOL0     H30880   8.437   9.945  10.680  2.0209 -0.0884  1.5005
  992MOL0     H30881   8.600   9.731  10.353  0.7829 -0.5787 -0.6803
  992MOL0     H30882   8.571   9.583  10.438  1.5703  0.3376  1.3108
  992MOL0     H30883   8.697   9.636  10.631 -0.8792 -1.5252 -1.4122
  992MOL0     H30884   8.696   9.814  10.606  3.0233 -0.1342  1.0595
  992MOL0     H30885   8.852   9.775  10.399  2.3856 -0.4191  0.1377
  992MOL0     H30886   8.859   9.606  10.452  1.5467  0.4568 -0.9315
  992MOL0     H30887   8.925   9.856  10.612 -0.8972  1.0788 -2.7646
  992MOL0     H30888   8.941   9.703  10.682 -0.4049 -0.5835 -0.9471
  992MOL0     H30889   9.088   9.813  10.442 -1.4535  0.7950  1.0073
  992MOL0     H30890   9.108   9.642  10.484  3.2157  0.4447 -0.5451
  992MOL0     H30891   9.176   9.863  10.692  0.8985 -1.5796  3.0796
  992MOL0     H30892   9.285   9.778  10.579 -1.6690  2.0591 -1.9980
  992MOL0     H30893   9.171   9.731  10.846  0.3796  0.6253 -1.0589
  992MOL0     H30894   9.120   9.599  10.742  4.0990 -2.9363 -0.1508
  992MOL0     H30895   9.414   9.678  10.716 -1.0559  2.3054  2.5800
  992MOL0     H30896   9.326   9.537  10.672 -0.0636 -1.6291 -0.4661
  992MOL0     H30897   9.366   9.354  10.802  1.3206  1.5884 -0.5845
  992MOL0     H30898   9.328   9.195  11.095 -0.0280 -0.0978  1.6670
  992MOL0     H30899   9.435   9.291  11.192 -1.9547 -2.3852  1.1654
  992MOL0     H30900   9.531   9.213  10.909  1.2035 -2.3388 -0.6020
  992MOL0     H30901   9.546   9.090  11.032  0.5268 -0.8623  2.4021
  992MOL0     H30902   9.650   9.376  11.086 -0.1276 -0.1441  1.0959
  992MOL0     H30903   9.687   9.249  11.179  2.0478  1.5490  0.9155
  992MOL0     H30904   9.793   9.130  10.980  2.0846  1.0615  0.5367
  992MOL0     H30905   9.880   9.267  11.037  0.4870  2.3937 -0.2669
  992MOL0     H30906   9.755   9.398  10.612  1.2853 -2.0569  1.9536
  992MOL0     H30907   9.723   9.631  10.548 -0.9891 -0.6805 -0.4198
  992MOL0     H30908   9.491  10.117  10.741 -2.5820  0.8211  2.3938
  992MOL0     H30909   9.553  10.367  10.757 -0.5227 -0.4700  1.2489
  992MOL0     H30910   9.940  10.417  10.833 -0.2207  1.1916 -0.6600
  992MOL0     H30911   9.936  10.502  10.989  0.4026 -2.6748  0.8458
  992MOL0     H30912   9.884  10.707  10.887  1.1354 -0.4886  1.3178
  992MOL0     H30913   9.890  10.651  10.720  0.2210  1.3395 -0.0503
  992MOL0     H30914  10.130  10.597  10.751  1.6791  0.8617 -0.3403
  992MOL0     H30915  10.109  10.606  10.929 -0.7382 -0.1664  0.9612
  992MOL0     H30916  10.078  10.825  10.729 -0.9297 -2.2532  0.5733
  992MOL0     H30917  10.071  10.847  10.910 -1.6077 -1.5282  0.4331
  992MOL0     H30918  10.320  10.771  10.736 -3.8391  0.7467 -3.4128
  992MOL0     H30919  10.317  10.783  10.911 -1.8445  1.4816  0.4669
  992MOL0     H30920  10.219  11.007  10.731  2.1984  0.3064 -1.6763
  992MOL0     H30921  10.394  10.984  10.760 -0.6223  1.2424 -1.2373
  992MOL0     H30922  10.231  11.124  10.926  0.5032 -0.4057 -1.3421
  992MOL0     H30923  10.267  10.982  11.032  0.4723 -0.7493 -0.6100
  992MOL0     H30924  10.421  11.165  11.059  0.8423  1.3220 -1.5253
  992MOL0     H30925  10.468  11.142  10.887 -1.2849 -0.0252 -1.0093
  992MOL0     H30926   9.896  10.237  11.007 -0.2442 -1.1591  1.1467
  992MOL0     H30927   9.842  10.030  10.976 -0.5669 -0.0399 -0.0202
  992MOL0     H30928   9.767   9.746  10.953 -1.0190  0.7175 -0.8394
  992MOL0     H30929   9.819   9.524  11.025  0.5150 -1.0580 -0.2601
  992MOL0     H30930   8.409   9.531  10.639 -2.9961 -1.2249 -0.0248
  992MOL0     H30931   8.290   9.511  10.864 -1.7090 -0.4295  0.3763
  992MOL0     H30932   8.051   9.797  11.180  1.2215 -2.7539 -0.4132
  992MOL0     H30933   7.991   9.907  11.397 -0.6588 -2.0213  0.5427
  992MOL0     H30934   8.029   9.843  11.647  1.8380  0.1460  3.3182
  992MOL0     H30935   7.960   9.986  11.575 -1.4956  1.5500  1.7920
  992MOL0     H30936   7.922   9.997  11.826  0.5303 -0.2406  1.9751
  992MOL0     H30937   8.098   9.997  11.850 -2.2690  0.3198  1.3533
  992MOL0     H30938   8.115  10.201  11.702 -0.6282  0.6838 -0.8654
  992MOL0     H30939   8.074  10.210  11.865 -2.3023  2.0126  0.3580
  992MOL0     H30940   7.911  10.360  11.753 -2.3372 -0.0174  2.2813
  992MOL0     H30941   7.885  10.218  11.636  1.7399 -0.8663 -0.5782
  992MOL0     H30942   7.671  10.190  12.027  0.6738 -4.4066  0.4478
  992MOL0     H30943   8.394   9.910  11.520 -0.8347 -2.1797  0.6581
  992MOL0     H30944   8.463   9.834  11.315 -0.6029 -3.5337 -0.9863
  993MOL0     O30945   9.326   2.496   3.353  0.1514  0.6689 -0.5216
  993MOL0     C30946   9.382   2.516   3.246 -0.1853  0.1567 -0.0718
  993MOL0     O30947   9.514   2.553   3.219 -0.4247  1.0543 -0.1541
  993MOL0     C30948   9.595   2.571   3.328 -0.1246  0.6020  0.4867
  993MOL0     C30949   9.706   2.492   3.337 -1.0534  1.2422  0.4201
  993MOL0     C30950   9.788   2.494   3.455 -0.7678 -0.6902 -0.1274
  993MOL0     C30951   9.747   2.580   3.550  1.2372  0.9599  0.0811
  993MOL0     O30952   9.826   2.590   3.659  0.5932 -0.1367 -0.3026
  993MOL0     C30953   9.923   2.699   3.661  0.2336  0.0513 -0.4644
  993MOL0     C30954   9.882   2.807   3.769 -0.3548  0.0414  2.0782
  993MOL0     C30955   9.927   2.763   3.907 -0.4043  0.5726 -0.2242
  993MOL0     C30956   9.880   2.873   4.007 -0.4326  0.6169 -0.1968
  993MOL0     C30957   9.898   2.828   4.151  0.5617  0.2542 -0.0140
  993MOL0     C30958   9.860   2.927   4.264  0.1666 -0.2247 -0.4836
  993MOL0     C30959   9.909   3.070   4.263 -0.4863  0.3773  0.4022
  993MOL0     C30960  10.062   3.061   4.271  0.3618 -0.2037  0.5745
  993MOL0     N30961  10.126   3.177   4.197  1.4944 -0.5711  0.0405
  993MOL0     C30962  10.148   3.205   4.063  0.7400  0.0078  0.0811
  993MOL0     C30963  10.211   3.330   4.064 -0.6884  0.0944 -0.0783
  993MOL0     C30964  10.266   3.403   3.938 -0.0519 -0.5012 -0.0553
  993MOL0     C30965  10.169   3.487   3.854 -0.4060  0.5987  0.4907
  993MOL0     C30966  10.096   3.383   3.760  0.1755  0.0241 -0.2849
  993MOL0     C30967  10.002   3.456   3.653 -0.4937 -0.5283  0.6294
  993MOL0     O30968  10.077   3.559   3.578  0.4346  0.5811  0.1268
  993MOL0     C30969  10.142   3.523   3.462  0.1323  0.5496 -1.0274
  993MOL0     C30970  10.131   3.409   3.389  0.2899 -0.8209  0.0422
  993MOL0     C30971  10.211   3.400   3.273 -0.4327 -0.3963 -0.8515
  993MOL0     C30972  10.296   3.491   3.232 -0.3385 -0.6893 -0.4218
  993MOL0     C30973  10.361   3.477   3.098 -0.1570  0.0565 -0.6214
  993MOL0     O30974  10.470   3.549   3.071  0.8461 -0.3087  0.0328
  993MOL0     C30975  10.553   3.506   2.969 -1.1386 -0.3385 -0.9518
  993MOL0     C30976  10.692   3.500   3.003 -0.8714  1.3016  0.7135
  993MOL0     C30977  10.794   3.471   2.922  0.0236  0.6101  0.0501
  993MOL0     C30978  10.759   3.422   2.791  0.1698 -0.0210 -0.3247
  993MOL0     O30979  10.857   3.371   2.705 -0.3679  0.6231  0.3535
  993MOL0     C30980  10.989   3.353   2.759  0.7908 -0.3982  0.5758
  993MOL0     C30981  11.072   3.292   2.633 -0.3468  0.5003 -0.0676
  993MOL0     C30982  11.072   3.138   2.619 -0.5868 -0.5219 -0.7969
  993MOL0     C30983  11.175   3.093   2.500  0.0196 -0.6510  0.2793
  993MOL0     C30984  11.175   2.927   2.503 -0.6008  0.1300  1.0501
  993MOL0     C30985  11.106   2.871   2.378 -0.8540  0.2152 -1.4787
  993MOL0     C30986  10.952   2.832   2.388 -0.6417 -0.4171 -0.4862
  993MOL0     C30987  10.855   2.937   2.343 -0.0950 -0.6340 -0.4599
  993MOL0    Cl30988  10.894   2.982   2.172 -0.6971 -0.5033 -0.5111
  993MOL0     C30989  10.628   3.440   2.740 -0.7669 -0.0046  0.0425
  993MOL0     C30990  10.526   3.469   2.837 -0.1123  0.4729  0.2137
  993MOL0     O30991  10.305   3.401   3.014  0.1779  0.5297 -0.3750
  993MOL0     C30992  10.309   3.601   3.313  0.1064 -0.6434 -0.4829
  993MOL0     C30993  10.239   3.613   3.431  1.1031  0.3729 -0.0890
  993MOL0     N30994  10.225   3.373   4.194  0.7082 -0.6031  0.2069
  993MOL0     N30995  10.174   3.283   4.271  0.3246 -0.3166  0.4355
  993MOL0     C30996   9.641   2.669   3.540 -0.1818  0.2477  0.0980
  993MOL0     C30997   9.556   2.664   3.424 -0.6776  0.1686  0.1295
  993MOL0     C30998   9.304   2.490   3.118 -0.7094 -0.2287  0.5765
  993MOL0     C30999   9.367   2.536   2.995 -0.2634  0.6401  0.2306
  993MOL0     C31000   9.313   2.496   2.871 -0.8979  0.7408 -0.9456
  993MOL0     C31001   9.194   2.423   2.868  0.2037  0.3265  0.9324
  993MOL0     O31002   9.119   2.385   2.751 -1.4063  0.2300 -0.3763
  993MOL0     C31003   9.170   2.415   2.618  0.0633 -0.4820  0.2017
  993MOL0     C31004   9.057   2.408   2.516 -0.2993  0.7347 -0.3568
  993MOL0     C31005   8.927   2.496   2.550  0.0030 -0.6704 -0.1575
  993MOL0     C31006   8.952   2.646   2.581  0.8690  0.1038 -0.3409
  993MOL0     C31007   8.827   2.730   2.577  0.0001 -0.0161 -0.6370
  993MOL0     C31008   8.725   2.791   2.574 -0.3619 -0.3128 -0.6410
  993MOL0     C31009   9.123   2.392   2.985 -0.0859 -0.4685 -0.2502
  993MOL0     C31010   9.186   2.419   3.105  0.3185  1.0762  0.6501
  993MOL0     H31011   9.733   2.419   3.262  1.0337  2.8486 -0.4983
  993MOL0     H31012   9.872   2.426   3.467 -2.4717 -2.6504  1.4936
  993MOL0     H31013   9.942   2.745   3.564  2.1108 -1.2330 -0.7567
  993MOL0     H31014  10.020   2.655   3.685  1.1453  1.4284 -1.4942
  993MOL0     H31015   9.781   2.850   3.770  0.5084  2.2063  1.7792
  993MOL0     H31016   9.942   2.898   3.759 -1.6659  0.7940  0.4146
  993MOL0     H31017  10.033   2.742   3.925 -0.4927 -0.6768 -1.0135
  993MOL0     H31018   9.877   2.666   3.919  1.4796 -0.4658 -0.2859
  993MOL0     H31019   9.938   2.964   3.987  0.0069  0.7159  1.4090
  993MOL0     H31020   9.775   2.896   3.987  0.0918  3.9355  0.3228
  993MOL0     H31021  10.004   2.800   4.160  1.7383  3.4068 -2.3199
  993MOL0     H31022   9.826   2.748   4.171 -0.3702  1.7604  3.2432
  993MOL0     H31023   9.883   2.890   4.364 -0.1833  1.0433  0.0792
  993MOL0     H31024   9.752   2.944   4.263  0.3432  1.0837  0.3366
  993MOL0     H31025   9.885   3.114   4.166  1.7255 -1.7674 -1.2640
  993MOL0     H31026   9.864   3.124   4.347 -1.4122 -0.1585  0.2686
  993MOL0     H31027  10.104   2.973   4.221  1.2326  0.9453 -0.8142
  993MOL0     H31028  10.095   3.056   4.375 -0.6182  1.2398  0.9728
  993MOL0     H31029  10.131   3.131   3.985  1.1160  2.5560 -2.6085
  993MOL0     H31030  10.331   3.338   3.878  1.2427  0.0068  0.7582
  993MOL0     H31031  10.338   3.476   3.975 -1.3808 -0.5709  2.9963
  993MOL0     H31032  10.244   3.539   3.793 -1.0988  1.2602  0.1809
  993MOL0     H31033  10.108   3.555   3.915  0.3732  0.6766  1.2044
  993MOL0     H31034  10.170   3.328   3.701  0.4886 -1.1342  1.1309
  993MOL0     H31035  10.042   3.315   3.826  0.0055  1.3520  0.9875
  993MOL0     H31036   9.917   3.512   3.692  1.1516  2.5677  0.0840
  993MOL0     H31037   9.955   3.383   3.587  1.3152  0.6207 -2.1299
  993MOL0     H31038  10.063   3.333   3.425 -0.7896  1.2149  2.6188
  993MOL0     H31039  10.194   3.310   3.216 -1.2100 -0.8432  0.0665
  993MOL0     H31040  10.731   3.522   3.102 -0.2973 -1.2063  1.1225
  993MOL0     H31041  10.893   3.489   2.964  0.4358 -0.0677 -0.6109
  993MOL0     H31042  10.998   3.292   2.849 -0.3237  1.7595  2.2202
  993MOL0     H31043  11.029   3.447   2.795  3.2091 -1.7722  1.7109
  993MOL0     H31044  11.178   3.320   2.636 -0.2491  0.1914 -0.5369
  993MOL0     H31045  11.030   3.328   2.539  0.2124  0.0691 -0.4948
  993MOL0     H31046  10.969   3.119   2.590 -0.6017  1.2442 -2.0637
  993MOL0     H31047  11.092   3.091   2.716 -1.2592  5.3374  2.7172
  993MOL0     H31048  11.136   3.117   2.400 -1.4580 -0.3018  0.9267
  993MOL0     H31049  11.272   3.138   2.525 -0.5075  0.7966 -0.1571
  993MOL0     H31050  11.125   2.889   2.592 -0.4527 -0.4799  0.8760
  993MOL0     H31051  11.280   2.897   2.504 -0.8653 -0.9190 -0.1429
  993MOL0     H31052  11.143   2.771   2.354 -0.8973  0.6500 -3.5462
  993MOL0     H31053  11.132   2.943   2.301  0.2151  4.3527  2.3254
  993MOL0     H31054  10.934   2.750   2.318  0.2395 -1.0652  0.0437
  993MOL0     H31055  10.921   2.804   2.489  2.1447  1.3053  0.9612
  993MOL0     H31056  10.867   3.022   2.412  0.4008 -1.0682 -0.0025
  993MOL0     H31057  10.750   2.906   2.348 -0.9486  2.1384  1.7765
  993MOL0     H31058  10.607   3.421   2.635 -3.7002 -0.9454  0.6827
  993MOL0     H31059  10.423   3.478   2.803 -0.3237 -0.1984  0.6494
  993MOL0     H31060  10.379   3.677   3.281 -1.8414  1.8781  0.7995
  993MOL0     H31061  10.239   3.708   3.484 -3.8671  0.4209  0.2816
  993MOL0     H31062   9.605   2.727   3.625  0.2184  3.0340 -1.4966
  993MOL0     H31063   9.474   2.733   3.407 -1.1194 -0.7548 -1.7991
  993MOL0     H31064   9.468   2.577   2.991 -0.5731  1.4084 -3.5517
  993MOL0     H31065   9.365   2.522   2.779  0.9070 -3.2118 -1.2485
  993MOL0     H31066   9.253   2.351   2.587 -0.5261 -0.2623 -2.0578
  993MOL0     H31067   9.217   2.512   2.601  1.0826 -1.2348 -1.6312
  993MOL0     H31068   9.097   2.445   2.421  0.9466 -0.6322 -0.3997
  993MOL0     H31069   9.042   2.303   2.488 -1.5321  0.5390  0.9451
  993MOL0     H31070   8.873   2.447   2.631  2.4844 -1.3735  1.1720
  993MOL0     H31071   8.858   2.492   2.465  0.9347 -1.6760 -0.8967
  993MOL0     H31072   8.990   2.639   2.683  1.2607  1.9725 -0.3269
  993MOL0     H31073   9.023   2.696   2.515  0.5394  0.5394 -0.3739
  993MOL0     H31074   8.626   2.826   2.594 -0.2311 -0.1448 -0.2736
  993MOL0     H31075   9.030   2.338   2.999  0.9173 -1.9959  0.7917
  993MOL0     H31076   9.127   2.399   3.194 -0.2842 -0.6440 -0.1036
  994MOL0     O31077  10.031   1.038   7.507 -0.5029  0.4192  0.4631
  994MOL0     C31078   9.917   1.022   7.545  1.1487 -0.6265  0.0869
  994MOL0     O31079   9.857   0.902   7.563 -0.3762  0.7578  0.0990
  994MOL0     C31080   9.938   0.790   7.555  0.1438 -0.1263 -0.0908
  994MOL0     C31081  10.061   0.776   7.624  0.6743 -0.4393  1.0735
  994MOL0     C31082  10.127   0.649   7.628 -0.0407  0.7685  0.2623
  994MOL0     C31083  10.068   0.539   7.566  0.1289 -0.1980 -0.0299
  994MOL0     O31084  10.127   0.418   7.559 -0.7651 -0.4463  0.4083
  994MOL0     C31085  10.269   0.413   7.533 -0.6961  0.6613  0.3745
  994MOL0     C31086  10.311   0.457   7.384  0.2819 -0.3982 -0.5144
  994MOL0     C31087  10.372   0.601   7.357  0.8517 -0.6513 -0.8641
  994MOL0     C31088  10.486   0.642   7.444 -0.1597 -0.0740 -0.5609
  994MOL0     C31089  10.532   0.776   7.402 -0.3850  0.1241 -0.1828
  994MOL0     C31090  10.624   0.854   7.509  0.3245  0.2320  0.2762
  994MOL0     C31091  10.530   0.950   7.584  0.6241 -0.2888  0.6893
  994MOL0     C31092  10.514   1.093   7.516  0.4686 -0.6013 -0.7489
  994MOL0     N31093  10.446   1.192   7.604  0.6326 -0.4688 -0.3740
  994MOL0     C31094  10.384   1.178   7.727 -0.7838 -0.8780 -0.5650
  994MOL0     C31095  10.334   1.298   7.751 -0.2324  1.1533  0.8110
  994MOL0     C31096  10.267   1.338   7.877  0.1696  0.0267  0.3618
  994MOL0     C31097  10.138   1.396   7.840 -0.1022  0.6271  1.2907
  994MOL0     C31098  10.083   1.462   7.965  0.5567  0.5352  0.3144
  994MOL0     C31099   9.940   1.514   7.947 -0.7096  0.6065 -0.8080
  994MOL0     O31100   9.952   1.618   7.844 -0.1408 -0.0768  0.1808
  994MOL0     C31101   9.962   1.752   7.868  0.0180 -0.0098  0.1091
  994MOL0     C31102   9.964   1.842   7.762  1.1826  0.0236 -0.6176
  994MOL0     C31103   9.954   1.980   7.775 -0.2993  0.1580 -0.4983
  994MOL0     C31104   9.946   2.033   7.907  0.9008 -0.5667  0.4667
  994MOL0     C31105   9.929   2.175   7.937  0.3324  0.8100 -0.4479
  994MOL0     O31106   9.859   2.261   7.857 -0.1035  0.0139 -0.4429
  994MOL0     C31107   9.826   2.386   7.900  0.8267  0.5719  0.2077
  994MOL0     C31108   9.694   2.418   7.900  0.2523  0.3678 -0.8005
  994MOL0     C31109   9.651   2.541   7.948  0.0665 -0.2167 -0.0744
  994MOL0     C31110   9.743   2.641   7.993 -0.5557  0.6905  0.1667
  994MOL0     O31111   9.699   2.750   8.048  0.7996 -0.0705 -0.1032
  994MOL0     C31112   9.775   2.869   8.058  0.0280  1.7608 -0.2203
  994MOL0     C31113   9.676   2.983   8.087 -0.0643 -0.3265 -1.3652
  994MOL0     C31114   9.634   2.986   8.237 -0.1683  0.3056  0.3705
  994MOL0     C31115   9.595   2.856   8.311 -0.9458  0.2762  1.0249
  994MOL0     C31116   9.575   2.894   8.456 -0.0861  0.0265 -0.0464
  994MOL0     C31117   9.523   2.777   8.542  0.5802  0.0620 -0.2194
  994MOL0     C31118   9.407   2.819   8.643 -0.7192  0.0678  1.5555
  994MOL0     C31119   9.340   2.696   8.698  0.3546 -0.3243  1.7954
  994MOL0    Cl31120   9.247   2.612   8.566  0.8553 -0.1978 -0.6917
  994MOL0     C31121   9.878   2.604   7.974 -0.0472 -1.5705  0.3198
  994MOL0     C31122   9.921   2.478   7.937  0.2525  1.2809 -0.5003
  994MOL0     O31123   9.985   2.210   8.043 -0.1361  1.0103 -0.3771
  994MOL0     C31124   9.963   1.948   8.013 -0.2976  1.0137  1.1984
  994MOL0     C31125   9.957   1.809   7.995 -1.0661  0.4161  0.1245
  994MOL0     N31126  10.379   1.385   7.655  0.2911  0.1624 -0.8953
  994MOL0     N31127  10.437   1.323   7.567 -0.4415  0.1279 -0.6349
  994MOL0     C31128   9.953   0.557   7.492 -1.1229  0.3351 -0.1020
  994MOL0     C31129   9.892   0.678   7.484 -0.0126  0.2696  0.3574
  994MOL0     C31130   9.844   1.138   7.600  0.2567 -0.0603  0.9893
  994MOL0     C31131   9.877   1.270   7.586 -0.0194  0.2340 -0.0825
  994MOL0     C31132   9.808   1.375   7.636  0.8406  0.4890  0.1209
  994MOL0     C31133   9.690   1.347   7.715  0.2631 -0.4432 -0.4045
  994MOL0     O31134   9.615   1.447   7.784 -0.2604 -0.5988 -0.6330
  994MOL0     C31135   9.603   1.582   7.745 -0.3970  0.3644 -0.5064
  994MOL0     C31136   9.485   1.595   7.643  0.3742  0.1374 -0.5793
  994MOL0     C31137   9.526   1.586   7.490  0.0063  0.1426 -0.1622
  994MOL0     C31138   9.412   1.544   7.397  0.1089 -0.0473 -0.5421
  994MOL0     C31139   9.288   1.632   7.421  0.1811  0.2124  0.1340
  994MOL0     C31140   9.197   1.713   7.437  0.4832  0.1758 -0.3310
  994MOL0     C31141   9.646   1.220   7.721 -0.3210 -0.0217 -0.2907
  994MOL0     C31142   9.728   1.119   7.672 -0.3328 -0.3717  0.3849
  994MOL0     H31143  10.110   0.858   7.675 -1.1096  1.4195 -0.0560
  994MOL0     H31144  10.222   0.638   7.680 -0.3808  0.4646  0.8330
  994MOL0     H31145  10.307   0.310   7.535  1.9250  1.5620  1.6183
  994MOL0     H31146  10.327   0.457   7.614 -3.8678  1.3267  2.4307
  994MOL0     H31147  10.220   0.463   7.325 -0.2115 -0.3673  0.2405
  994MOL0     H31148  10.375   0.383   7.335 -0.0246  0.2282 -1.9121
  994MOL0     H31149  10.288   0.666   7.384 -0.7750 -2.4325 -1.4209
  994MOL0     H31150  10.391   0.623   7.252  0.3910  1.7770 -0.5115
  994MOL0     H31151  10.456   0.645   7.549  4.2367  1.1463  0.8795
  994MOL0     H31152  10.566   0.567   7.441 -0.3005 -0.4009  1.8504
  994MOL0     H31153  10.445   0.840   7.387 -1.9774 -0.0787  5.6328
  994MOL0     H31154  10.582   0.755   7.307 -3.7561 -1.5402 -1.7715
  994MOL0     H31155  10.696   0.908   7.447  1.6844  0.3854  1.9424
  994MOL0     H31156  10.663   0.775   7.573  0.4662  0.2659  0.2324
  994MOL0     H31157  10.432   0.902   7.580  0.5392 -0.0375 -1.5230
  994MOL0     H31158  10.565   0.969   7.686  1.3694  4.5353 -0.2022
  994MOL0     H31159  10.469   1.087   7.416 -2.1157 -0.9861  0.3661
  994MOL0     H31160  10.615   1.135   7.505 -0.4790  2.2708  0.6851
  994MOL0     H31161  10.368   1.093   7.792  1.2532  0.9298  2.5564
  994MOL0     H31162  10.325   1.413   7.932 -0.9519  1.7651 -0.7431
  994MOL0     H31163  10.245   1.247   7.933 -0.0906 -0.9621 -1.2945
  994MOL0     H31164  10.076   1.324   7.786  4.3134 -3.2042  0.7408
  994MOL0     H31165  10.164   1.472   7.765 -2.6166 -1.1356 -1.6306
  994MOL0     H31166  10.074   1.385   8.041  0.5705  0.6348  0.4172
  994MOL0     H31167  10.146   1.543   8.003  2.7193 -0.4058 -1.0932
  994MOL0     H31168   9.899   1.555   8.040  0.6258  4.1558 -1.6042
  994MOL0     H31169   9.880   1.427   7.919 -1.0723 -0.5779  2.9765
  994MOL0     H31170   9.964   1.789   7.667 -1.5136 -2.1997  0.4882
  994MOL0     H31171   9.959   2.055   7.697  1.5907  1.6309  0.9366
  994MOL0     H31172   9.631   2.339   7.860  1.5188 -0.7326 -0.6799
  994MOL0     H31173   9.548   2.573   7.936  0.2491  0.8359  0.9625
  994MOL0     H31174   9.829   2.885   7.965  1.3327 -0.4200  0.0954
  994MOL0     H31175   9.839   2.864   8.146 -2.0421  3.3848  1.5151
  994MOL0     H31176   9.576   2.966   8.046 -3.8746  1.6623  5.4303
  994MOL0     H31177   9.712   3.084   8.070  2.0282 -0.6788  0.4551
  994MOL0     H31178   9.554   3.060   8.248  0.2143  0.4673  2.6751
  994MOL0     H31179   9.720   3.019   8.296 -0.4443  1.2627  0.2548
  994MOL0     H31180   9.505   2.812   8.266 -0.3954  0.8252 -0.6566
  994MOL0     H31181   9.674   2.780   8.302 -2.6956 -1.5924  0.7256
  994MOL0     H31182   9.502   2.975   8.452 -2.3240 -1.9456 -2.2476
  994MOL0     H31183   9.671   2.919   8.501  0.4605 -0.6576 -0.8055
  994MOL0     H31184   9.604   2.736   8.602  0.3335 -0.2602 -0.1021
  994MOL0     H31185   9.485   2.697   8.478 -1.5661  0.7226  0.1440
  994MOL0     H31186   9.449   2.883   8.722 -0.2602 -0.1354  1.4828
  994MOL0     H31187   9.342   2.884   8.583  2.8206 -0.3593 -3.4157
  994MOL0     H31188   9.279   2.725   8.784  0.1585 -2.6211  2.5027
  994MOL0     H31189   9.415   2.624   8.731  1.5920 -0.9962 -1.9419
  994MOL0     H31190   9.957   2.673   8.002  0.3249 -1.6533 -0.4990
  994MOL0     H31191  10.025   2.452   7.920 -0.5645 -2.5921 -0.6205
  994MOL0     H31192   9.957   1.976   8.118 -0.6125  0.4811  1.3293
  994MOL0     H31193   9.954   1.745   8.083  2.2993  2.0670  1.6129
  994MOL0     H31194   9.895   0.475   7.450  1.3993 -1.1334 -0.9193
  994MOL0     H31195   9.797   0.700   7.437  0.7321  1.2664 -0.7219
  994MOL0     H31196   9.980   1.286   7.554  0.1866  1.1231  0.9581
  994MOL0     H31197   9.853   1.472   7.620  3.5587 -0.5086  1.2158
  994MOL0     H31198   9.699   1.609   7.701 -0.9621  1.9681 -0.8305
  994MOL0     H31199   9.584   1.650   7.829  2.2830  0.5779  0.0169
  994MOL0     H31200   9.400   1.528   7.658 -1.2244  2.4343  1.1785
  994MOL0     H31201   9.446   1.695   7.663  1.8001  0.5751  0.1918
  994MOL0     H31202   9.615   1.524   7.475  1.1134  2.3177 -4.3659
  994MOL0     H31203   9.559   1.686   7.460  1.4039 -0.3704 -0.4136
  994MOL0     H31204   9.448   1.549   7.294 -1.2785  0.9471 -1.0064
  994MOL0     H31205   9.383   1.442   7.423  0.2485 -0.3572 -1.5864
  994MOL0     H31206   9.107   1.771   7.431  0.4165  0.2505  0.9748
  994MOL0     H31207   9.548   1.209   7.766  0.6003 -1.5736  1.4468
  994MOL0     H31208   9.684   1.024   7.701  0.9413 -2.3195 -3.3581
  995MOL0     O31209   4.602   1.811   7.683  0.5369 -0.3946 -0.0010
  995MOL0     C31210   4.649   1.749   7.778  0.7194 -0.0724 -0.5750
  995MOL0     O31211   4.583   1.729   7.900  0.1843 -0.7749 -0.7371
  995MOL0     C31212   4.452   1.765   7.926 -0.8617 -0.3459  0.0761
  995MOL0     C31213   4.384   1.672   7.994 -0.0642 -0.7615  1.1667
  995MOL0     C31214   4.243   1.701   8.010  0.2498  0.6885  0.0505
  995MOL0     C31215   4.177   1.821   7.966 -0.5559  0.5919  0.1688
  995MOL0     O31216   4.044   1.839   7.998  0.3671  0.0798  0.2950
  995MOL0     C31217   3.949   1.905   7.908 -0.3690  0.4709  0.6635
  995MOL0     C31218   3.876   2.021   7.978 -0.6745  0.5040  0.3401
  995MOL0     C31219   3.766   2.066   7.886  0.1353 -0.7126  0.6235
  995MOL0     C31220   3.684   2.191   7.942 -0.6626  1.5092  0.4899
  995MOL0     C31221   3.695   2.332   7.869  0.3252  0.6676  0.0170
  995MOL0     C31222   3.825   2.387   7.932  0.7575 -0.9020  0.3805
  995MOL0     C31223   3.847   2.533   7.882 -0.2073  0.0932  0.5046
  995MOL0     C31224   3.742   2.633   7.933 -0.0407  0.0118  0.1345
  995MOL0     N31225   3.783   2.770   7.905  0.0419  0.5789  0.2347
  995MOL0     C31226   3.894   2.836   7.954 -0.9359  0.0206  0.3586
  995MOL0     C31227   3.912   2.949   7.883  0.9485 -0.2169  1.3194
  995MOL0     C31228   4.002   3.064   7.902 -0.8078  0.5605 -0.0076
  995MOL0     C31229   3.952   3.143   8.024  0.0715  0.7347 -0.5504
  995MOL0     C31230   4.043   3.267   8.069 -0.2143  0.3202 -0.1289
  995MOL0     C31231   4.024   3.305   8.218 -0.4089 -0.5188  0.2860
  995MOL0     O31232   4.076   3.186   8.293 -0.1224  0.4941  0.2302
  995MOL0     C31233   4.024   3.158   8.413  0.1219 -0.7478  0.2556
  995MOL0     C31234   3.940   3.234   8.495 -1.3522  0.0373  0.4909
  995MOL0     C31235   3.886   3.192   8.616 -0.2666  0.7706  0.0806
  995MOL0     C31236   3.912   3.061   8.655 -0.3221 -0.7244 -1.1277
  995MOL0     C31237   3.853   3.017   8.777  0.5446 -0.3303  0.1705
  995MOL0     O31238   3.763   3.103   8.834 -0.2222  0.4390 -0.3710
  995MOL0     C31239   3.696   3.069   8.949 -0.4168  1.2821  0.2983
  995MOL0     C31240   3.562   3.112   8.979  0.2607  0.1666  0.4083
  995MOL0     C31241   3.506   3.075   9.106 -0.1877  0.0028  1.1485
  995MOL0     C31242   3.578   3.000   9.197  0.3359  0.4805  0.6289
  995MOL0     O31243   3.510   2.980   9.316 -0.4443  0.1422  0.3081
  995MOL0     C31244   3.590   2.945   9.431 -0.4612  0.0617 -1.1191
  995MOL0     C31245   3.596   2.787   9.457  0.1395  0.0462 -0.4960
  995MOL0     C31246   3.450   2.727   9.493  0.1896 -0.3232  0.7689
  995MOL0     C31247   3.359   2.795   9.603 -0.4380 -0.5522  0.3461
  995MOL0     C31248   3.415   2.810   9.741 -0.0298 -0.3257 -0.2834
  995MOL0     C31249   3.307   2.835   9.855 -0.1305 -0.8009  0.9039
  995MOL0     C31250   3.243   2.969   9.846  1.2785 -0.4615 -0.1890
  995MOL0     C31251   3.202   3.031   9.985 -0.6388 -0.7127  0.6820
  995MOL0    Cl31252   3.081   3.170   9.958 -0.4075 -0.2572  0.0114
  995MOL0     C31253   3.705   2.956   9.170  0.3217 -0.2596  0.5859
  995MOL0     C31254   3.764   2.995   9.050  0.3474  0.4264 -0.5521
  995MOL0     O31255   3.876   2.905   8.813  0.1481  0.6295  0.1466
  995MOL0     C31256   3.996   2.976   8.581  0.5950  0.7421 -0.1661
  995MOL0     C31257   4.055   3.031   8.461  0.3757  0.2081 -0.1753
  995MOL0     N31258   3.810   2.949   7.786  0.1586  0.0482 -0.2626
  995MOL0     N31259   3.747   2.841   7.796  0.2478  0.4425  0.2993
  995MOL0     C31260   4.261   1.915   7.912 -0.6199 -0.5265 -0.2126
  995MOL0     C31261   4.398   1.890   7.888 -0.0643  0.3802  1.5057
  995MOL0     C31262   4.775   1.697   7.755 -0.9483 -0.1286 -0.5787
  995MOL0     C31263   4.801   1.613   7.643  0.3716 -0.2188  0.6466
  995MOL0     C31264   4.933   1.561   7.631  0.6518 -0.8443 -0.4408
  995MOL0     C31265   5.038   1.582   7.724  0.5240  0.1993 -1.0252
  995MOL0     O31266   5.156   1.520   7.686 -0.5408  0.2295  0.7678
  995MOL0     C31267   5.239   1.467   7.785 -1.1007 -0.2126 -0.3481
  995MOL0     C31268   5.373   1.437   7.716 -0.1652 -0.8992  0.0679
  995MOL0     C31269   5.361   1.339   7.602 -0.2868  0.9784 -0.3661
  995MOL0     C31270   5.350   1.414   7.470  0.3502 -0.7057  0.9866
  995MOL0     C31271   5.361   1.315   7.359 -0.7835  0.4953  0.3945
  995MOL0     C31272   5.360   1.232   7.263  0.4048 -0.6855 -0.0630
  995MOL0     C31273   5.009   1.674   7.820 -0.2719  0.9446 -0.6096
  995MOL0     C31274   4.886   1.738   7.833  0.2639 -0.4211  0.0694
  995MOL0     H31275   4.428   1.576   8.020  4.1500  1.2601  2.3046
  995MOL0     H31276   4.193   1.620   8.062  2.2059  0.1210  1.1487
  995MOL0     H31277   3.867   1.836   7.885  0.0147 -0.1519  1.1279
  995MOL0     H31278   3.996   1.945   7.818 -1.3223  0.4899  0.1566
  995MOL0     H31279   3.952   2.100   7.974 -0.0451 -0.0936 -3.2615
  995MOL0     H31280   3.833   1.995   8.075 -0.4430 -1.5483 -0.0711
  995MOL0     H31281   3.689   1.988   7.882 -1.8457  1.1265  0.9082
  995MOL0     H31282   3.790   2.094   7.783  1.6156  2.5059  1.7049
  995MOL0     H31283   3.585   2.152   7.916  0.0056  0.6270 -0.8574
  995MOL0     H31284   3.696   2.198   8.050 -2.9041 -1.2490  1.0322
  995MOL0     H31285   3.602   2.380   7.899 -0.3280  0.0448 -0.9526
  995MOL0     H31286   3.698   2.325   7.760  2.4687 -0.2541  0.0739
  995MOL0     H31287   3.905   2.317   7.906  1.6572  0.2823 -0.0928
  995MOL0     H31288   3.819   2.391   8.041  0.2524  1.3722  0.3162
  995MOL0     H31289   3.944   2.564   7.921 -0.7684  3.3249 -0.4027
  995MOL0     H31290   3.855   2.529   7.773  4.0102 -0.9746  0.6902
  995MOL0     H31291   3.722   2.623   8.040 -0.6223 -0.9037 -0.0477
  995MOL0     H31292   3.646   2.609   7.887  1.0761 -1.7506 -1.4165
  995MOL0     H31293   3.943   2.799   8.043 -1.5428 -2.8138 -0.4078
  995MOL0     H31294   4.007   3.122   7.810  3.0200  0.1295 -0.2305
  995MOL0     H31295   4.105   3.028   7.915  0.4825  2.8091 -2.8971
  995MOL0     H31296   3.945   3.082   8.114  1.1942  1.4361  0.0347
  995MOL0     H31297   3.844   3.160   8.018 -0.1322  0.6831  1.8119
  995MOL0     H31298   4.148   3.242   8.049 -0.1799  0.1015  0.3099
  995MOL0     H31299   4.023   3.352   8.003  0.0500 -1.3707 -2.5519
  995MOL0     H31300   3.922   3.340   8.233 -1.3953 -2.5489 -1.1423
  995MOL0     H31301   4.097   3.386   8.226  1.0444 -1.5409 -1.6421
  995MOL0     H31302   3.912   3.335   8.465 -2.6536  0.3769  2.5847
  995MOL0     H31303   3.836   3.272   8.669  3.1278  4.8760 -2.2972
  995MOL0     H31304   3.509   3.168   8.903  1.3351  1.3193  0.4797
  995MOL0     H31305   3.400   3.095   9.121 -0.2222  0.1740  0.6919
  995MOL0     H31306   3.532   2.983   9.515 -0.0314 -2.0464  0.2199
  995MOL0     H31307   3.687   2.994   9.442 -0.3109 -0.7347  1.7668
  995MOL0     H31308   3.656   2.774   9.548 -0.6189  1.2491  0.2090
  995MOL0     H31309   3.627   2.732   9.368  0.1571 -0.5566 -0.1208
  995MOL0     H31310   3.470   2.621   9.509 -0.4354 -0.4515  0.7351
  995MOL0     H31311   3.389   2.731   9.401 -1.3301  0.4075  1.7651
  995MOL0     H31312   3.318   2.888   9.564 -2.7527 -1.9588 -0.8370
  995MOL0     H31313   3.270   2.733   9.620  0.6243 -2.9498 -2.0048
  995MOL0     H31314   3.488   2.892   9.742 -0.6331  0.3123 -2.8600
  995MOL0     H31315   3.474   2.728   9.783  2.3401  2.2156  1.7442
  995MOL0     H31316   3.359   2.836   9.952  1.9324 -0.9039 -0.1317
  995MOL0     H31317   3.230   2.758   9.846 -2.4738  1.6017 -1.1565
  995MOL0     H31318   3.309   3.038   9.792  2.4497 -1.6661 -0.3360
  995MOL0     H31319   3.150   2.972   9.788 -0.4904 -1.3124  2.4480
  995MOL0     H31320   3.293   3.059  10.038 -0.7074 -0.1060  0.4845
  995MOL0     H31321   3.156   2.957  10.051 -0.8789 -0.7196  0.5080
  995MOL0     H31322   3.774   2.918   9.244 -0.6547 -0.3369  1.4829
  995MOL0     H31323   3.872   2.981   9.039  0.2803 -1.0148  0.3182
  995MOL0     H31324   4.016   2.871   8.599 -0.4064  0.7361  1.0468
  995MOL0     H31325   4.119   2.969   8.399 -0.1338 -1.4227  0.8602
  995MOL0     H31326   4.225   2.013   7.883  0.0188 -0.2365 -0.0406
  995MOL0     H31327   4.451   1.972   7.841 -0.0227 -1.1320 -1.2716
  995MOL0     H31328   4.724   1.582   7.573  0.6625  1.6211 -0.5466
  995MOL0     H31329   4.941   1.501   7.541 -2.8471 -3.1082  0.5350
  995MOL0     H31330   5.201   1.372   7.823 -0.3823 -0.3114  0.1260
  995MOL0     H31331   5.247   1.535   7.870 -2.2593 -2.9712  2.1404
  995MOL0     H31332   5.427   1.529   7.691  0.3016 -0.4205  2.5592
  995MOL0     H31333   5.435   1.397   7.798  0.6032 -0.2439 -0.1790
  995MOL0     H31334   5.277   1.275   7.627  1.2593 -1.3357 -0.7714
  995MOL0     H31335   5.443   1.267   7.596 -0.5173  0.5264  1.2724
  995MOL0     H31336   5.255   1.469   7.466 -0.9862 -2.9715 -0.3978
  995MOL0     H31337   5.432   1.485   7.458 -0.9328  1.2133  2.8435
  995MOL0     H31338   5.357   1.166   7.179 -0.9222  0.5077 -0.9919
  995MOL0     H31339   5.084   1.708   7.891 -0.6924  2.0318 -0.6765
  995MOL0     H31340   4.876   1.809   7.915 -0.0975  0.8533 -1.0456
  996MOL0     O31341   9.140   4.016   4.712  0.8187  0.1707  0.4974
  996MOL0     C31342   9.097   4.131   4.691 -0.3006 -0.0905 -0.2960
  996MOL0     O31343   9.124   4.208   4.574 -0.3662  0.4583  0.3449
  996MOL0     C31344   9.217   4.150   4.485 -0.0668 -0.0028 -0.4756
  996MOL0     C31345   9.173   4.114   4.355 -0.5046  0.1275  0.2610
  996MOL0     C31346   9.268   4.077   4.266  0.4475  0.2602  0.2808
  996MOL0     C31347   9.399   4.052   4.290 -0.4834  0.1079 -0.3631
  996MOL0     O31348   9.474   4.005   4.185 -0.4699  0.1932 -0.1416
  996MOL0     C31349   9.596   3.932   4.218 -0.4393 -0.8384  0.2237
  996MOL0     C31350   9.712   4.018   4.168  0.4817  0.1865 -0.5982
  996MOL0     C31351   9.838   3.940   4.145  0.0637 -0.0560 -1.5517
  996MOL0     C31352   9.931   3.988   4.040  1.5075 -0.0711  0.1020
  996MOL0     C31353  10.058   3.893   4.037  0.4669 -0.7099  0.5791
  996MOL0     C31354  10.199   3.958   3.990 -0.2078  0.4120 -0.0707
  996MOL0     C31355  10.181   4.032   3.852  0.4644  0.4049 -0.0815
  996MOL0     C31356  10.269   3.981   3.733  0.1312  0.1515  0.1764
  996MOL0     N31357  10.409   4.020   3.764  0.4754  0.9870 -0.8739
  996MOL0     C31358  10.496   3.970   3.863 -0.2493 -0.2957  0.2636
  996MOL0     C31359  10.604   4.054   3.863 -0.4259  0.3549  1.2866
  996MOL0     C31360  10.721   4.038   3.952 -0.4110  0.8149 -0.1174
  996MOL0     C31361  10.798   4.164   3.987 -0.6566 -1.4235 -0.5809
  996MOL0     C31362  10.706   4.279   4.030 -0.0889  0.2275 -0.0259
  996MOL0     C31363  10.782   4.408   4.067 -0.2083 -0.3956  0.1216
  996MOL0     O31364  10.830   4.467   3.943  0.2424 -0.1030 -0.1479
  996MOL0     C31365  10.757   4.569   3.890 -0.2950  0.1922  0.0575
  996MOL0     C31366  10.641   4.546   3.823  0.4835  0.0257 -0.0682
  996MOL0     C31367  10.569   4.664   3.778  0.3563 -0.0934 -0.0430
  996MOL0     C31368  10.625   4.793   3.796 -0.7101 -0.5464  0.2938
  996MOL0     C31369  10.579   4.915   3.715  0.1159  0.2584 -0.3431
  996MOL0     O31370  10.474   4.886   3.632  0.1815 -0.7261  0.2876
  996MOL0     C31371  10.459   4.935   3.510  0.4502 -0.1240 -0.4100
  996MOL0     C31372  10.541   5.035   3.457  0.7535 -0.3592 -0.1946
  996MOL0     C31373  10.505   5.088   3.328 -0.2286 -0.2443  0.4740
  996MOL0     C31374  10.406   5.026   3.253 -0.4068  0.0343 -0.3490
  996MOL0     O31375  10.363   5.074   3.130 -0.5233 -0.7209 -0.7140
  996MOL0     C31376  10.427   5.193   3.075  0.1102  0.3135 -0.3649
  996MOL0     C31377  10.352   5.239   2.941 -0.3307 -0.6056 -0.0237
  996MOL0     C31378  10.403   5.376   2.890  0.2937  0.1559 -0.4992
  996MOL0     C31379  10.326   5.418   2.756 -0.0672  0.2885  0.1703
  996MOL0     C31380  10.334   5.569   2.722 -0.6644 -0.1716 -0.0158
  996MOL0     C31381  10.457   5.617   2.661 -0.4388  0.0053  0.3356
  996MOL0     C31382  10.438   5.769   2.633 -0.3281  0.6312  0.0917
  996MOL0     C31383  10.575   5.825   2.588 -0.2961 -0.4776 -0.1314
  996MOL0    Cl31384  10.578   5.770   2.412 -0.5105  0.5265  0.1016
  996MOL0     C31385  10.345   4.914   3.304  0.6370 -0.5438  1.5487
  996MOL0     C31386  10.369   4.868   3.429 -0.1100  0.3136 -1.0704
  996MOL0     O31387  10.641   5.024   3.721  0.2357 -0.9863  0.4326
  996MOL0     C31388  10.736   4.804   3.879 -0.6069  0.7570  0.2591
  996MOL0     C31389  10.805   4.696   3.927  0.6623  0.1422 -0.3071
  996MOL0     N31390  10.580   4.154   3.766 -0.1380  0.1036 -0.2207
  996MOL0     N31391  10.468   4.125   3.710  0.0065 -0.2312 -0.3078
  996MOL0     C31392   9.447   4.098   4.410 -0.1372 -0.3164 -0.0729
  996MOL0     C31393   9.357   4.151   4.513  0.8042 -0.2790  0.3298
  996MOL0     C31394   9.017   4.200   4.794 -0.8064  0.0729 -1.0122
  996MOL0     C31395   9.003   4.337   4.796 -0.0976 -0.2201  0.5656
  996MOL0     C31396   8.934   4.402   4.886  0.3639 -0.8649  0.5431
  996MOL0     C31397   8.867   4.338   4.990 -0.2521  0.7084 -0.6776
  996MOL0     O31398   8.782   4.399   5.082  0.0343 -0.2323 -0.4609
  996MOL0     C31399   8.754   4.536   5.068 -0.0008 -0.0781 -0.2031
  996MOL0     C31400   8.625   4.570   5.143 -0.1969 -1.2270 -0.3929
  996MOL0     C31401   8.603   4.531   5.286 -0.6055 -0.6302 -0.9076
  996MOL0     C31402   8.705   4.596   5.383  0.7000 -0.2292 -0.7865
  996MOL0     C31403   8.837   4.546   5.372  0.1322 -0.6994  0.4805
  996MOL0     C31404   8.955   4.513   5.355  0.9907  0.8242  0.1317
  996MOL0     C31405   8.879   4.199   5.002 -0.6366  0.5817 -0.1558
  996MOL0     C31406   8.949   4.124   4.903  0.0380 -0.8848 -0.5981
  996MOL0     H31407   9.067   4.122   4.332 -0.3147  3.4293  0.0408
  996MOL0     H31408   9.241   4.049   4.164  1.7935 -2.7608  0.6491
  996MOL0     H31409   9.605   3.835   4.168  2.6782  1.0496 -3.4478
  996MOL0     H31410   9.597   3.914   4.326 -1.0404  2.5817  0.9389
  996MOL0     H31411   9.727   4.108   4.228  3.4555  1.3517 -2.8659
  996MOL0     H31412   9.680   4.053   4.069 -0.6531 -0.7843 -0.5994
  996MOL0     H31413   9.826   3.837   4.110  1.1028  0.3143 -3.0742
  996MOL0     H31414   9.893   3.943   4.240 -0.7363  0.3500 -1.0911
  996MOL0     H31415   9.884   3.989   3.941 -4.8439 -1.8756  2.5794
  996MOL0     H31416   9.962   4.090   4.066  0.6583  0.1651  0.2093
  996MOL0     H31417  10.033   3.800   3.985 -6.0781  0.1033  1.3857
  996MOL0     H31418  10.071   3.841   4.132 -1.7859 -2.3885  0.0655
  996MOL0     H31419  10.270   3.876   3.987 -1.7175 -0.9693  0.4730
  996MOL0     H31420  10.229   4.033   4.064  0.6336 -1.1344  1.2052
  996MOL0     H31421  10.078   4.019   3.816  0.0858 -1.8868  1.5809
  996MOL0     H31422  10.191   4.141   3.860 -0.7580  0.8001 -2.8822
  996MOL0     H31423  10.227   4.027   3.643 -1.0518 -3.8970 -1.5982
  996MOL0     H31424  10.265   3.874   3.712 -1.7044  0.5089 -1.5918
  996MOL0     H31425  10.481   3.881   3.923 -0.4610 -0.7364 -0.4287
  996MOL0     H31426  10.794   3.964   3.918 -0.7295  0.0374  0.8545
  996MOL0     H31427  10.678   3.993   4.042  1.3378 -1.4646 -0.3285
  996MOL0     H31428  10.853   4.191   3.897 -0.3270 -0.8003 -0.2043
  996MOL0     H31429  10.870   4.143   4.067 -1.1122  2.9296  1.2815
  996MOL0     H31430  10.630   4.290   3.953 -1.5929 -0.2616  1.3218
  996MOL0     H31431  10.651   4.236   4.115 -0.6819  0.8761 -0.0725
  996MOL0     H31432  10.858   4.383   4.142 -2.3536  0.5832  2.7914
  996MOL0     H31433  10.729   4.487   4.120  0.4806  0.0268  0.1958
  996MOL0     H31434  10.600   4.448   3.800  2.7917 -0.4407 -2.8592
  996MOL0     H31435  10.483   4.637   3.717  0.9882 -1.8253 -0.2302
  996MOL0     H31436  10.623   5.086   3.507 -0.5249  0.1205  1.5049
  996MOL0     H31437  10.556   5.174   3.285 -0.7367  1.8108  3.6180
  996MOL0     H31438  10.532   5.180   3.048 -0.7046 -4.0832 -2.2628
  996MOL0     H31439  10.415   5.276   3.145  3.1775 -0.7856  1.6888
  996MOL0     H31440  10.244   5.250   2.958 -0.7498 -4.6954  1.0655
  996MOL0     H31441  10.360   5.157   2.868 -1.3947 -0.4287 -0.3555
  996MOL0     H31442  10.511   5.381   2.870  0.5464  4.0249  0.9733
  996MOL0     H31443  10.382   5.455   2.963 -1.9732  0.7515 -1.6818
  996MOL0     H31444  10.374   5.362   2.675 -2.1350  0.2916 -1.1207
  996MOL0     H31445  10.223   5.383   2.762 -0.8460  2.2696 -0.8286
  996MOL0     H31446  10.308   5.615   2.818 -0.0518 -1.5428  0.8409
  996MOL0     H31447  10.255   5.595   2.652  0.5625 -2.2578 -2.3530
  996MOL0     H31448  10.474   5.556   2.571 -1.3092 -0.6114  0.5760
  996MOL0     H31449  10.542   5.597   2.727 -0.0269 -1.7171 -0.6417
  996MOL0     H31450  10.369   5.792   2.552  1.1225 -1.8167 -1.9679
  996MOL0     H31451  10.394   5.815   2.722 -0.7741 -2.8343  1.8627
  996MOL0     H31452  10.667   5.794   2.638 -0.5425  1.1870  1.4840
  996MOL0     H31453  10.568   5.933   2.606 -2.3558 -0.8596  1.9649
  996MOL0     H31454  10.286   4.856   3.234  1.2335 -0.5705  1.0546
  996MOL0     H31455  10.321   4.775   3.459  2.3387 -1.0404 -1.0183
  996MOL0     H31456  10.767   4.902   3.914 -0.4955  0.6951  0.3340
  996MOL0     H31457  10.886   4.714   3.997  0.3540  2.1968 -0.4116
  996MOL0     H31458   9.555   4.086   4.416 -0.0964  0.0240 -0.1215
  996MOL0     H31459   9.392   4.205   4.600  0.4372  0.1186  0.2339
  996MOL0     H31460   9.063   4.385   4.719 -0.9427 -0.2418 -0.1244
  996MOL0     H31461   8.927   4.510   4.871  0.9612  0.2308  5.9935
  996MOL0     H31462   8.760   4.573   4.966  0.3650 -0.7725 -0.4441
  996MOL0     H31463   8.830   4.602   5.112 -1.3972  2.8583 -1.8962
  996MOL0     H31464   8.596   4.675   5.132  1.7397 -0.7319 -1.2211
  996MOL0     H31465   8.552   4.512   5.087 -2.3589 -0.6472  1.6727
  996MOL0     H31466   8.591   4.423   5.297 -0.7282 -0.4000  1.8700
  996MOL0     H31467   8.504   4.572   5.306  0.1047  2.4704 -3.1117
  996MOL0     H31468   8.699   4.703   5.363 -1.1795 -0.3319 -1.0207
  996MOL0     H31469   8.668   4.575   5.484  0.8855  2.4158 -0.1075
  996MOL0     H31470   9.051   4.484   5.316  0.3141 -1.4844  0.0494
  996MOL0     H31471   8.851   4.145   5.091  1.1445  0.9750  0.6792
  996MOL0     H31472   8.944   4.016   4.904 -0.4821 -0.8980 -2.0261
  997MOL0     O31473   2.879   5.427   9.218 -0.0119 -0.1052  0.4921
  997MOL0     C31474   2.785   5.368   9.162 -0.0432 -0.3958 -1.0302
  997MOL0     O31475   2.780   5.340   9.030 -0.6705 -0.1981  0.0128
  997MOL0     C31476   2.882   5.364   8.955 -0.4842 -0.0228 -0.3811
  997MOL0     C31477   2.983   5.262   8.947  0.4145 -0.4104  1.0410
  997MOL0     C31478   3.101   5.291   8.886 -1.1443 -0.8400  0.1467
  997MOL0     C31479   3.116   5.412   8.821  0.8284 -0.0828  0.6031
  997MOL0     O31480   3.223   5.435   8.739  0.8285 -0.6882 -0.0223
  997MOL0     C31481   3.351   5.381   8.776  0.4393  0.1617  0.8980
  997MOL0     C31482   3.399   5.444   8.907  0.2829 -0.3409 -0.0403
  997MOL0     C31483   3.434   5.587   8.906  0.4538 -0.1905 -0.7734
  997MOL0     C31484   3.310   5.678   8.891  1.2217  0.2107 -1.1200
  997MOL0     C31485   3.346   5.819   8.922 -0.4214 -0.0870 -0.0669
  997MOL0     C31486   3.220   5.901   8.914 -0.7362 -0.0871 -0.3604
  997MOL0     C31487   3.119   5.867   9.028  0.7713 -0.2374  0.8193
  997MOL0     C31488   3.169   5.880   9.173 -0.3473  0.1537  0.8848
  997MOL0     N31489   3.220   5.755   9.224  0.1978  0.5939  0.4039
  997MOL0     C31490   3.156   5.637   9.230  0.8113 -0.3145 -0.8179
  997MOL0     C31491   3.239   5.550   9.301 -0.2264  0.6895  0.7829
  997MOL0     C31492   3.213   5.412   9.356  0.5593 -0.5568  0.1420
  997MOL0     C31493   3.293   5.310   9.277 -0.0988  0.3143 -0.5436
  997MOL0     C31494   3.262   5.172   9.329  0.0463  0.2410 -0.0879
  997MOL0     C31495   3.139   5.101   9.275 -0.1115  0.5073  0.7380
  997MOL0     O31496   3.014   5.149   9.314 -0.1067 -0.4233  0.1768
  997MOL0     C31497   2.940   5.075   9.403 -0.4963  0.0466  0.7615
  997MOL0     C31498   2.979   5.041   9.526 -0.6297  0.1960 -0.3508
  997MOL0     C31499   2.890   4.995   9.623 -0.4574  0.0936  1.0278
  997MOL0     C31500   2.748   4.974   9.587  0.0701 -0.4115 -0.5741
  997MOL0     C31501   2.654   4.938   9.676 -0.3421  0.1589 -0.5839
  997MOL0     O31502   2.524   4.974   9.655  0.1621  0.2794  0.5872
  997MOL0     C31503   2.430   4.959   9.758  0.2085 -0.5214  0.6284
  997MOL0     C31504   2.315   4.904   9.701  1.2321  0.4784 -0.1905
  997MOL0     C31505   2.208   4.893   9.780  0.4742 -0.5252 -0.5916
  997MOL0     C31506   2.206   4.943   9.916 -0.1268  0.2376 -0.5444
  997MOL0     O31507   2.088   4.923   9.984  0.4019 -0.1986  0.2030
  997MOL0     C31508   2.067   4.989  10.108  0.4412 -0.2497 -0.5856
  997MOL0     C31509   2.083   5.147  10.110 -0.7720  0.0116 -0.2741
  997MOL0     C31510   2.085   5.188  10.251 -0.2857 -0.4226  0.0583
  997MOL0     C31511   2.229   5.191  10.306 -0.5574 -0.1529  0.2261
  997MOL0     C31512   2.313   5.318  10.265 -0.4696 -0.1307  0.4560
  997MOL0     C31513   2.461   5.295  10.296 -0.8668 -0.6310  1.4621
  997MOL0     C31514   2.559   5.413  10.242 -0.4228  0.1154  0.2948
  997MOL0     C31515   2.628   5.376  10.113 -0.4345  0.8213 -0.2170
  997MOL0    Cl31516   2.504   5.337   9.976  0.4856  0.5307  0.0855
  997MOL0     C31517   2.326   5.004   9.966 -0.5320 -0.2544  0.7183
  997MOL0     C31518   2.442   5.013   9.883  0.6896 -0.3436 -0.3113
  997MOL0     O31519   2.696   4.873   9.780 -0.2184 -1.3115  0.3143
  997MOL0     C31520   2.715   5.017   9.458  0.2782  0.6935  0.3396
  997MOL0     C31521   2.810   5.064   9.368  0.8853  0.1376 -0.3750
  997MOL0     N31522   3.358   5.612   9.317 -0.2996 -0.0128  0.4283
  997MOL0     N31523   3.356   5.736   9.251  0.9602 -0.2727 -0.2145
  997MOL0     C31524   3.021   5.515   8.837  0.4130  0.5907  0.0640
  997MOL0     C31525   2.903   5.498   8.898 -0.2599  0.0053 -0.3362
  997MOL0     C31526   2.666   5.368   9.255 -0.1152 -0.2102  0.2896
  997MOL0     C31527   2.543   5.344   9.208 -0.5561  0.2983  0.0987
  997MOL0     C31528   2.437   5.310   9.294 -0.0242 -0.4902  0.4402
  997MOL0     C31529   2.446   5.307   9.431  0.0792 -0.4243  0.1510
  997MOL0     O31530   2.345   5.257   9.512  0.2285  0.6574  0.1988
  997MOL0     C31531   2.363   5.280   9.659 -0.2552  1.0497  0.4845
  997MOL0     C31532   2.234   5.238   9.718  0.5103  0.2950  0.0017
  997MOL0     C31533   2.114   5.330   9.673  0.0037  0.5656  0.3602
  997MOL0     C31534   2.104   5.472   9.731 -0.5830  0.3404  0.2381
  997MOL0     C31535   2.094   5.471   9.876  0.6621  0.4117 -0.2124
  997MOL0     C31536   2.085   5.489   9.991 -0.8793  0.2473  0.9584
  997MOL0     C31537   2.568   5.348   9.479 -0.9855 -1.2093 -0.3786
  997MOL0     C31538   2.678   5.382   9.394  0.4195  0.5325 -0.4952
  997MOL0     H31539   2.953   5.163   8.980 -0.6022 -0.0754  1.1429
  997MOL0     H31540   3.172   5.209   8.890 -1.9991 -1.5711  0.9557
  997MOL0     H31541   3.418   5.387   8.690 -1.5390 -1.7512 -0.9199
  997MOL0     H31542   3.354   5.272   8.779  1.6015  0.1650  0.1776
  997MOL0     H31543   3.496   5.394   8.918 -0.5048 -2.7390 -2.7765
  997MOL0     H31544   3.325   5.421   8.984  0.2000 -1.4356 -0.4220
  997MOL0     H31545   3.500   5.600   8.819 -0.6341 -0.9310 -1.7353
  997MOL0     H31546   3.496   5.614   8.992 -3.1895  2.2394  1.3346
  997MOL0     H31547   3.277   5.669   8.787  0.4472  0.5345 -0.9042
  997MOL0     H31548   3.239   5.650   8.969  2.0866  1.7246  0.2585
  997MOL0     H31549   3.416   5.853   8.845 -0.8756  2.3002  0.4758
  997MOL0     H31550   3.389   5.822   9.023  2.5993  1.0079 -1.2680
  997MOL0     H31551   3.171   5.868   8.822 -0.3177 -1.3738 -0.1364
  997MOL0     H31552   3.232   6.010   8.917 -1.8037  0.1263 -2.0637
  997MOL0     H31553   3.027   5.923   9.013 -1.3392 -3.5493  0.2813
  997MOL0     H31554   3.078   5.766   9.011  1.3335 -0.2734 -0.4418
  997MOL0     H31555   3.083   5.903   9.237 -2.1831 -1.5098 -0.8226
  997MOL0     H31556   3.249   5.954   9.179 -0.9369  1.0328 -1.1618
  997MOL0     H31557   3.052   5.611   9.212  1.6168 -2.3077 -3.2436
  997MOL0     H31558   3.108   5.384   9.345  0.1901  1.1212 -0.9879
  997MOL0     H31559   3.247   5.418   9.460 -0.3820  3.5335  0.4069
  997MOL0     H31560   3.401   5.323   9.286  0.3562 -3.2164  0.6001
  997MOL0     H31561   3.258   5.313   9.173 -0.2401  0.5128 -0.4899
  997MOL0     H31562   3.352   5.114   9.306 -0.6513 -0.8431 -0.1277
  997MOL0     H31563   3.250   5.168   9.438 -0.7181  2.4684 -0.0262
  997MOL0     H31564   3.158   5.000   9.312  3.5026  1.6781  2.5699
  997MOL0     H31565   3.133   5.108   9.166 -5.5469  1.7251  0.7888
  997MOL0     H31566   3.081   5.057   9.559 -0.3256  1.3187 -1.7060
  997MOL0     H31567   2.908   4.976   9.728  0.7844  1.9930  1.2067
  997MOL0     H31568   2.319   4.878   9.595  3.9231  0.8516 -0.2405
  997MOL0     H31569   2.114   4.867   9.733 -0.0023  1.6400 -0.9769
  997MOL0     H31570   2.146   4.955  10.176 -1.0289 -0.6360  0.9780
  997MOL0     H31571   1.974   4.967  10.161  2.1931  1.0232  3.4239
  997MOL0     H31572   1.989   5.186  10.069 -0.8349  0.5726  0.3848
  997MOL0     H31573   2.179   5.177  10.066  1.3945 -2.1831  2.5728
  997MOL0     H31574   2.023   5.131  10.321 -1.3609  1.2980  0.5599
  997MOL0     H31575   2.069   5.296  10.243  2.3321  0.0133 -0.4087
  997MOL0     H31576   2.221   5.189  10.415 -1.7199  3.9180  0.3847
  997MOL0     H31577   2.288   5.105  10.273  2.5213  1.7071  0.4829
  997MOL0     H31578   2.283   5.404  10.326  2.2809  1.3682 -0.1549
  997MOL0     H31579   2.290   5.347  10.162 -1.6530 -1.4966  0.3024
  997MOL0     H31580   2.484   5.198  10.252  2.3956  0.8489 -0.4710
  997MOL0     H31581   2.481   5.282  10.403 -1.8446 -2.5152  1.4514
  997MOL0     H31582   2.504   5.504  10.219 -1.5637 -1.3506 -3.4559
  997MOL0     H31583   2.634   5.429  10.320  2.8562  0.6834 -2.7209
  997MOL0     H31584   2.690   5.287  10.128  1.0494  2.0971  1.8220
  997MOL0     H31585   2.699   5.456  10.091  3.4964 -1.8083  1.7097
  997MOL0     H31586   2.331   5.050  10.064  1.5358  1.7348 -0.2305
  997MOL0     H31587   2.524   5.076   9.916  1.7042 -1.5754 -0.4128
  997MOL0     H31588   2.616   5.004   9.416  2.2893 -0.9161 -4.6501
  997MOL0     H31589   2.788   5.104   9.269  1.1063  0.2264 -0.3890
  997MOL0     H31590   3.035   5.613   8.793  0.8760 -0.1496 -1.5249
  997MOL0     H31591   2.835   5.581   8.914  0.2170  0.8763 -2.5131
  997MOL0     H31592   2.522   5.330   9.102 -0.3457  0.1918  0.0701
  997MOL0     H31593   2.339   5.300   9.248  0.0152 -1.1667  0.4934
  997MOL0     H31594   2.382   5.385   9.680  0.4395  0.5379  2.6717
  997MOL0     H31595   2.442   5.213   9.693 -2.1706 -0.2055  2.7867
  997MOL0     H31596   2.217   5.135   9.684 -0.2878  0.3595  0.1787
  997MOL0     H31597   2.235   5.245   9.828  1.9885  5.1341 -0.0872
  997MOL0     H31598   2.021   5.275   9.687  0.5304 -0.0883  1.4642
  997MOL0     H31599   2.119   5.347   9.566 -0.3488 -2.0101 -0.1384
  997MOL0     H31600   2.198   5.528   9.720  0.3298 -1.5022 -2.2574
  997MOL0     H31601   2.031   5.535   9.679  1.1482  3.2430  1.0469
  997MOL0     H31602   2.089   5.509  10.096  4.2791 -0.9182  1.2646
  997MOL0     H31603   2.598   5.353   9.583 -1.3234 -0.6928 -0.3009
  997MOL0     H31604   2.773   5.415   9.434  1.6543 -2.0393 -1.0996
  998MOL0     O31605   3.947   3.686   8.910 -0.3945  0.5512  0.1580
  998MOL0     C31606   3.938   3.797   8.859  0.4802  0.0996  0.3310
  998MOL0     O31607   3.839   3.890   8.900 -0.3985 -0.8114 -0.0237
  998MOL0     C31608   3.756   3.851   8.996  0.0077  0.5768 -0.3523
  998MOL0     C31609   3.795   3.840   9.133 -0.2066  1.2326  0.3623
  998MOL0     C31610   3.702   3.820   9.225 -0.2368 -0.5005  0.0955
  998MOL0     C31611   3.571   3.800   9.192 -0.6591  0.3731 -0.6030
  998MOL0     O31612   3.480   3.785   9.290  0.2962  0.8259 -0.3845
  998MOL0     C31613   3.412   3.904   9.324  0.6845  0.4564  0.3140
  998MOL0     C31614   3.477   3.945   9.454  1.1709 -0.0874  0.4639
  998MOL0     C31615   3.431   3.857   9.562  0.1138  1.0840  0.4316
  998MOL0     C31616   3.523   3.882   9.683  0.5344  0.8619  0.4243
  998MOL0     C31617   3.494   3.767   9.785  0.3423  0.6887 -0.9860
  998MOL0     C31618   3.577   3.800   9.907  0.6494 -0.3064 -0.4966
  998MOL0     C31619   3.526   3.744  10.050 -0.4981  0.3819  0.1718
  998MOL0     C31620   3.506   3.589  10.041  0.4437 -0.0153 -0.2431
  998MOL0     N31621   3.437   3.531  10.158  0.1636 -0.5256  1.0850
  998MOL0     C31622   3.313   3.473  10.150  0.4658  0.1335  0.9409
  998MOL0     C31623   3.275   3.464  10.278 -0.1463  0.2004  0.2510
  998MOL0     C31624   3.137   3.433  10.326 -0.0976 -1.0517  0.2785
  998MOL0     C31625   3.048   3.356  10.233  0.3176  0.3258  0.6047
  998MOL0     C31626   2.908   3.353  10.303 -0.5725  0.8297 -0.3266
  998MOL0     C31627   2.811   3.269  10.214  0.8660  0.1321 -0.1516
  998MOL0     O31628   2.692   3.221  10.276 -0.0062  1.3233  0.2955
  998MOL0     C31629   2.601   3.312  10.312 -0.6656  0.0900 -0.5055
  998MOL0     C31630   2.538   3.395  10.218  0.7743  0.1478 -0.2892
  998MOL0     C31631   2.440   3.493  10.246 -0.1291  0.1133  0.0638
  998MOL0     C31632   2.394   3.494  10.375 -0.2563 -0.5105 -0.6595
  998MOL0     C31633   2.305   3.603  10.414  0.3911 -0.5630 -0.1586
  998MOL0     O31634   2.290   3.615  10.550  0.0255  0.1279 -0.2575
  998MOL0     C31635   2.210   3.719  10.592 -0.9976 -0.7557 -0.1953
  998MOL0     C31636   2.263   3.836  10.658 -0.1505  0.1823  1.2774
  998MOL0     C31637   2.176   3.930  10.707  0.1983 -0.3791 -0.5007
  998MOL0     C31638   2.044   3.900  10.711  0.4467  0.1784  0.9667
  998MOL0     O31639   1.963   3.984  10.770  0.6232  0.1516  0.3111
  998MOL0     C31640   1.963   3.981  10.913 -0.7606  0.0636  0.2009
  998MOL0     C31641   1.827   3.959  10.975  0.7045  0.2381  0.1174
  998MOL0     C31642   1.766   3.823  10.943  0.4170  0.9454 -0.4250
  998MOL0     C31643   1.659   3.771  11.043 -0.2059  0.4249  0.5912
  998MOL0     C31644   1.593   3.638  10.991  0.0346 -0.2642  0.3474
  998MOL0     C31645   1.464   3.606  11.062  0.3445  0.1927  0.0530
  998MOL0     C31646   1.481   3.596  11.209  0.1244 -0.1046 -0.6851
  998MOL0     C31647   1.352   3.578  11.276 -0.1203  0.2885  0.3686
  998MOL0    Cl31648   1.285   3.411  11.252 -0.2734 -0.0878 -0.3122
  998MOL0     C31649   1.988   3.793  10.643 -1.1760  0.4767  0.0427
  998MOL0     C31650   2.074   3.693  10.593 -1.3146  0.5897  0.0888
  998MOL0     O31651   2.251   3.676  10.333 -0.7404 -0.4528 -0.0411
  998MOL0     C31652   2.461   3.415  10.470  0.4254 -0.0520  0.4313
  998MOL0     C31653   2.563   3.326  10.446  0.1382 -0.3078  0.4057
  998MOL0     N31654   3.377   3.511  10.354  0.1522  0.0896  0.6059
  998MOL0     N31655   3.479   3.548  10.289  0.3279 -0.2925  0.4149
  998MOL0     C31656   3.540   3.793   9.062  0.8673 -1.2030  1.1582
  998MOL0     C31657   3.624   3.830   8.961  0.8173 -0.9501  0.1888
  998MOL0     C31658   4.038   3.814   8.758 -0.5323  0.0638 -0.2784
  998MOL0     C31659   4.005   3.876   8.635  0.1671  1.2104 -0.0614
  998MOL0     C31660   4.097   3.892   8.532  0.0463  1.6502  0.2222
  998MOL0     C31661   4.227   3.838   8.533  0.0557  0.0650 -0.8464
  998MOL0     O31662   4.298   3.854   8.422 -0.3592  0.2533 -0.2313
  998MOL0     C31663   4.437   3.815   8.413  0.2295 -0.8930 -0.3289
  998MOL0     C31664   4.450   3.677   8.337 -0.2415  0.2975  0.5653
  998MOL0     C31665   4.377   3.663   8.198  1.0505 -0.2761  0.6405
  998MOL0     C31666   4.400   3.538   8.108 -0.0908 -0.9571 -0.1257
  998MOL0     C31667   4.344   3.553   7.976  0.3238 -0.3324  0.7272
  998MOL0     C31668   4.309   3.561   7.856 -0.8505 -0.2149 -0.1698
  998MOL0     C31669   4.253   3.766   8.652  0.2581 -0.3478  0.2429
  998MOL0     C31670   4.168   3.768   8.770  0.7834 -0.9570  0.0707
  998MOL0     H31671   3.900   3.852   9.160  0.9490 -0.8725 -2.7263
  998MOL0     H31672   3.727   3.820   9.331  1.4751  0.4854 -0.2761
  998MOL0     H31673   3.307   3.885   9.349  0.6464  0.2133 -0.0179
  998MOL0     H31674   3.401   3.984   9.250 -3.6319 -2.4920 -2.8099
  998MOL0     H31675   3.452   4.049   9.477  1.0054  0.0825 -0.4378
  998MOL0     H31676   3.585   3.947   9.435  1.1433 -0.2646  0.2873
  998MOL0     H31677   3.429   3.751   9.538 -1.6021  0.8977  1.2479
  998MOL0     H31678   3.326   3.876   9.588 -0.3562 -0.2782 -0.4296
  998MOL0     H31679   3.629   3.869   9.661  0.1067  0.3264 -1.5457
  998MOL0     H31680   3.506   3.985   9.717  2.3802  2.0530 -1.9184
  998MOL0     H31681   3.510   3.665   9.750  1.9676  1.2607 -2.0377
  998MOL0     H31682   3.389   3.780   9.810  0.9863  0.0371  2.5775
  998MOL0     H31683   3.583   3.906   9.932 -0.8922 -1.2229  5.5384
  998MOL0     H31684   3.677   3.767   9.876  0.4590 -1.1024 -0.2992
  998MOL0     H31685   3.605   3.752  10.125  1.1032  0.6978 -1.4909
  998MOL0     H31686   3.433   3.798  10.073 -1.0849  0.9190 -2.9938
  998MOL0     H31687   3.604   3.543  10.026  0.3509  0.4804 -2.7584
  998MOL0     H31688   3.444   3.568   9.953 -0.9607 -1.6643  1.0500
  998MOL0     H31689   3.268   3.457  10.053  0.9169  2.2152  0.3352
  998MOL0     H31690   3.085   3.523  10.361 -1.8805 -1.8120 -0.3142
  998MOL0     H31691   3.137   3.367  10.414 -0.7168 -3.5456 -1.4759
  998MOL0     H31692   3.096   3.258  10.222  0.8537  0.7612 -1.3282
  998MOL0     H31693   3.040   3.397  10.132 -0.5044 -4.1090 -1.3604
  998MOL0     H31694   2.917   3.319  10.406  0.4636  0.3883 -0.5454
  998MOL0     H31695   2.858   3.451  10.304 -3.1195 -0.2665 -3.1074
  998MOL0     H31696   2.865   3.178  10.185  2.3151  1.3973 -1.6371
  998MOL0     H31697   2.777   3.314  10.120  1.9971 -2.0728 -1.7147
  998MOL0     H31698   2.558   3.371  10.114  1.5307  0.2640 -0.1764
  998MOL0     H31699   2.375   3.551  10.182 -1.6752 -1.9256 -0.2925
  998MOL0     H31700   2.366   3.868  10.668 -0.5448  2.0602 -0.0839
  998MOL0     H31701   2.225   4.021  10.738 -0.3552 -0.4946  0.7741
  998MOL0     H31702   2.008   4.070  10.958 -0.1786 -0.2019  0.1577
  998MOL0     H31703   2.030   3.899  10.940 -0.0559 -1.5694 -5.2682
  998MOL0     H31704   1.758   4.038  10.944  0.6913  0.1549 -0.0671
  998MOL0     H31705   1.822   3.962  11.084 -3.1783 -0.3007  0.0950
  998MOL0     H31706   1.849   3.752  10.940  1.3707  1.6862  3.1853
  998MOL0     H31707   1.722   3.823  10.843 -0.3429 -2.2476 -0.1817
  998MOL0     H31708   1.712   3.766  11.139 -0.4367 -0.3057  0.6836
  998MOL0     H31709   1.588   3.852  11.065  2.1878  2.5879  0.8615
  998MOL0     H31710   1.656   3.549  10.986  2.0721  1.1473 -0.5433
  998MOL0     H31711   1.566   3.653  10.886 -0.5067 -0.2550  0.4824
  998MOL0     H31712   1.414   3.516  11.025 -1.1688  1.0568 -0.0527
  998MOL0     H31713   1.403   3.694  11.040 -1.7584 -1.4880 -1.1609
  998MOL0     H31714   1.539   3.511  11.248 -0.4743 -0.3698 -0.3547
  998MOL0     H31715   1.526   3.685  11.253 -0.3881  0.3191 -1.0148
  998MOL0     H31716   1.281   3.652  11.238  0.6177 -0.3851 -2.6456
  998MOL0     H31717   1.379   3.584  11.382  4.1133 -0.2676 -0.5084
  998MOL0     H31718   1.880   3.782  10.649 -1.3658  0.8997 -2.0078
  998MOL0     H31719   2.033   3.602  10.551  1.1037  0.2995 -1.8841
  998MOL0     H31720   2.436   3.431  10.574 -1.1286  0.4824 -0.0006
  998MOL0     H31721   2.601   3.266  10.528  1.5852  0.7134  0.5226
  998MOL0     H31722   3.433   3.779   9.048  0.4579  3.1774 -2.7844
  998MOL0     H31723   3.584   3.848   8.861 -1.0673  1.3443  1.2552
  998MOL0     H31724   3.901   3.905   8.625 -0.8604 -1.8718  0.5995
  998MOL0     H31725   4.063   3.956   8.452  0.5314  3.0263  1.0700
  998MOL0     H31726   4.492   3.821   8.507  2.0810 -2.4394 -1.2292
  998MOL0     H31727   4.479   3.893   8.349 -0.4499 -0.1210  0.1432
  998MOL0     H31728   4.555   3.659   8.314 -0.7218  0.6672 -2.3128
  998MOL0     H31729   4.423   3.589   8.396 -0.0018  1.1642  2.0182
  998MOL0     H31730   4.418   3.744   8.137  3.7239  0.1933  2.8875
  998MOL0     H31731   4.269   3.678   8.213  0.9709 -0.4563  0.2758
  998MOL0     H31732   4.505   3.509   8.117  0.7044  1.5473 -0.4137
  998MOL0     H31733   4.352   3.448   8.146 -1.9300 -0.6749 -1.6633
  998MOL0     H31734   4.282   3.569   7.753  3.6296  0.0879 -1.5288
  998MOL0     H31735   4.348   3.715   8.666 -0.3859 -2.2257 -1.6533
  998MOL0     H31736   4.184   3.725   8.869 -3.2803  0.0372  1.3319
  999MOL0     O31737  10.523   4.624   7.875 -0.4930 -0.8125 -0.3945
  999MOL0     C31738  10.412   4.582   7.895  0.0788  0.3534 -0.2040
  999MOL0     O31739  10.322   4.624   7.985  1.1112  0.4454  0.6008
  999MOL0     C31740  10.348   4.735   8.057  0.7899 -0.3773 -0.7613
  999MOL0     C31741  10.405   4.723   8.181  0.3669  0.3323 -0.0489
  999MOL0     C31742  10.427   4.832   8.268 -0.5193  0.2718 -0.4734
  999MOL0     C31743  10.390   4.957   8.226 -0.5993  0.3153 -0.7323
  999MOL0     O31744  10.402   5.057   8.312  0.0913 -0.3596  0.1960
  999MOL0     C31745  10.447   5.175   8.259 -0.2680 -0.4995  0.6043
  999MOL0     C31746  10.529   5.255   8.357 -0.6134  0.0125 -0.3826
  999MOL0     C31747  10.604   5.363   8.281 -0.1798 -0.0096 -0.3432
  999MOL0     C31748  10.636   5.489   8.371 -0.2697  0.3207  0.1682
  999MOL0     C31749  10.567   5.622   8.331  0.4946 -0.3827 -0.5752
  999MOL0     C31750  10.420   5.622   8.381  0.4566  0.1624 -0.4165
  999MOL0     C31751  10.341   5.746   8.331  0.2621 -0.0678  0.2234
  999MOL0     C31752  10.292   5.726   8.184 -0.2888  0.5354  0.0276
  999MOL0     N31753  10.190   5.624   8.177  0.4329 -0.3272 -0.7146
  999MOL0     C31754  10.056   5.627   8.218  0.0457 -0.0208  1.3700
  999MOL0     C31755  10.006   5.502   8.192  0.0080  0.1425 -0.0437
  999MOL0     C31756   9.871   5.443   8.217 -0.2360  0.7851 -0.3582
  999MOL0     C31757   9.858   5.408   8.364 -0.3670  0.4440 -0.3918
  999MOL0     C31758   9.948   5.307   8.431 -0.7462  0.2008 -0.3295
  999MOL0     C31759   9.943   5.167   8.353 -0.2192 -1.0520 -0.1261
  999MOL0     O31760   9.890   5.070   8.441  0.2500 -0.2702  0.9911
  999MOL0     C31761   9.972   4.983   8.517 -0.1829 -1.0220  0.0588
  999MOL0     C31762  10.112   4.987   8.528 -0.3616  0.1946  0.4379
  999MOL0     C31763  10.179   4.891   8.602  0.8647 -0.1695 -0.9067
  999MOL0     C31764  10.111   4.782   8.661  0.3534 -0.1240  0.0566
  999MOL0     C31765  10.192   4.663   8.699 -0.0180  0.3601  0.0584
  999MOL0     O31766  10.128   4.549   8.717 -0.0016  0.5128  0.4320
  999MOL0     C31767  10.197   4.428   8.746 -0.3779 -0.6754  0.1683
  999MOL0     C31768  10.294   4.417   8.847 -0.5672  0.3643 -1.3420
  999MOL0     C31769  10.357   4.305   8.893  0.7635  0.5335 -0.4015
  999MOL0     C31770  10.334   4.179   8.828  0.2801 -0.4804 -0.1450
  999MOL0     O31771  10.407   4.068   8.873 -0.0308 -0.4603 -0.7920
  999MOL0     C31772  10.400   3.931   8.831  0.3017  0.0396 -0.0427
  999MOL0     C31773  10.501   3.856   8.910 -0.7403 -0.0362  0.2928
  999MOL0     C31774  10.646   3.911   8.876  0.5105  0.4375  0.2969
  999MOL0     C31775  10.739   3.824   8.955  0.0309 -0.0604 -0.7407
  999MOL0     C31776  10.758   3.685   8.880 -0.0995  0.3858 -0.4992
  999MOL0     C31777  10.842   3.596   8.979  0.0826  0.4107  0.4722
  999MOL0     C31778  10.805   3.446   8.959  0.0122  0.1631 -0.1681
  999MOL0     C31779  10.912   3.353   9.009  0.7035 -0.3460 -0.5554
  999MOL0    Cl31780  10.866   3.184   8.985  0.1856  0.2852  0.1014
  999MOL0     C31781  10.232   4.175   8.726  0.7514  0.2553 -1.0329
  999MOL0     C31782  10.164   4.297   8.688 -0.7939 -0.1296  0.4863
  999MOL0     O31783  10.310   4.674   8.688 -1.0860  0.1579 -0.0945
  999MOL0     C31784   9.972   4.781   8.651  0.4665 -0.4104  0.1705
  999MOL0     C31785   9.898   4.880   8.578  0.2332 -0.4791  0.9708
  999MOL0     N31786  10.111   5.424   8.145  0.3916  0.0647 -0.6623
  999MOL0     N31787  10.222   5.500   8.135  0.5543 -0.6128 -1.0563
  999MOL0     C31788  10.322   4.962   8.099 -0.4079 -0.6403  0.6387
  999MOL0     C31789  10.311   4.858   8.013  0.5343  0.2968 -0.2160
  999MOL0     C31790  10.380   4.467   7.812  0.1383  0.4543 -0.5747
  999MOL0     C31791  10.442   4.444   7.688 -0.4651 -0.2715 -0.0630
  999MOL0     C31792  10.405   4.336   7.617 -0.3060  0.3102  0.0297
  999MOL0     C31793  10.296   4.260   7.650  0.0521 -0.3108  0.6742
  999MOL0     O31794  10.255   4.153   7.573 -0.1845  0.2878  0.7888
  999MOL0     C31795  10.170   4.180   7.455  0.9205  0.8537 -0.8056
  999MOL0     C31796  10.039   4.104   7.465  1.1090  0.8859  0.0459
  999MOL0     C31797  10.057   3.948   7.506  0.1394 -0.6748 -0.4868
  999MOL0     C31798   9.929   3.869   7.528 -0.0879  0.8101  0.0362
  999MOL0     C31799   9.844   3.845   7.411  0.3448 -0.9619 -0.1934
  999MOL0     C31800   9.750   3.839   7.346 -0.2418  0.9308  0.3724
  999MOL0     C31801  10.223   4.290   7.767 -0.0821  1.1582  0.5256
  999MOL0     C31802  10.263   4.395   7.849  0.0853  0.0849 -0.2224
  999MOL0     H31803  10.437   4.624   8.211  0.7127 -0.9985 -4.2587
  999MOL0     H31804  10.470   4.826   8.367  4.2787 -1.5611 -2.3965
  999MOL0     H31805  10.362   5.231   8.218  0.1491 -1.4449 -1.6641
  999MOL0     H31806  10.514   5.159   8.175 -0.7407  0.6802 -0.0302
  999MOL0     H31807  10.602   5.195   8.412  0.9983 -0.2988 -2.7109
  999MOL0     H31808  10.450   5.300   8.418  1.0515  1.3548  0.8931
  999MOL0     H31809  10.537   5.390   8.199  0.8345 -2.1991 -1.9701
  999MOL0     H31810  10.697   5.328   8.236 -1.6397 -2.1808 -1.8515
  999MOL0     H31811  10.623   5.456   8.474  0.4329 -1.7191 -0.3497
  999MOL0     H31812  10.744   5.491   8.357 -0.4087 -1.4605 -1.6420
  999MOL0     H31813  10.575   5.633   8.222 -0.5071  3.8217 -0.4009
  999MOL0     H31814  10.628   5.706   8.366 -0.5464 -0.7546  2.4200
  999MOL0     H31815  10.415   5.627   8.490  0.0976 -5.1306  0.0631
  999MOL0     H31816  10.380   5.527   8.346 -0.2229 -0.6147  2.1942
  999MOL0     H31817  10.263   5.777   8.401 -0.4672 -2.1273  0.3908
  999MOL0     H31818  10.417   5.824   8.339 -0.8380  1.1843 -0.8985
  999MOL0     H31819  10.379   5.685   8.133 -1.2087 -0.5980 -0.6698
  999MOL0     H31820  10.262   5.821   8.137 -2.6317  0.1313  0.5711
  999MOL0     H31821  10.006   5.706   8.274 -3.4440 -0.2115 -1.1734
  999MOL0     H31822   9.852   5.357   8.152  0.0968  0.0753  0.4707
  999MOL0     H31823   9.791   5.516   8.201 -0.7049  0.3195 -0.1780
  999MOL0     H31824   9.760   5.361   8.368  0.6229 -1.9250 -1.7448
  999MOL0     H31825   9.845   5.500   8.421 -2.3391  3.1331 -4.6439
  999MOL0     H31826  10.050   5.347   8.431 -0.9687  0.7910  0.4878
  999MOL0     H31827   9.907   5.293   8.532  1.9476 -2.2053  0.5895
  999MOL0     H31828  10.046   5.157   8.318 -0.3697  0.4415 -1.1144
  999MOL0     H31829   9.884   5.162   8.261 -0.9242 -1.1915  0.3245
  999MOL0     H31830  10.172   5.059   8.473 -2.0219  0.3472 -1.2770
  999MOL0     H31831  10.287   4.894   8.604  0.9335 -1.9213 -0.2370
  999MOL0     H31832  10.321   4.512   8.892 -3.2826 -0.3660  2.3520
  999MOL0     H31833  10.431   4.319   8.970  1.0458  3.0423 -1.0599
  999MOL0     H31834  10.416   3.923   8.723 -0.4680  0.2402 -0.1768
  999MOL0     H31835  10.298   3.896   8.848  1.2825 -3.3924 -0.5438
  999MOL0     H31836  10.490   3.749   8.890  0.4908  0.3017 -2.6363
  999MOL0     H31837  10.476   3.870   9.016 -0.7573  1.2028  0.1462
  999MOL0     H31838  10.658   4.011   8.918 -0.7242  0.7167  0.0015
  999MOL0     H31839  10.668   3.905   8.769 -1.8163 -1.6012 -0.1665
  999MOL0     H31840  10.836   3.870   8.970 -0.5552  0.4837  1.8153
  999MOL0     H31841  10.703   3.822   9.058  0.7807  2.9394 -0.3533
  999MOL0     H31842  10.819   3.698   8.791  2.0979 -1.3953  0.6490
  999MOL0     H31843  10.663   3.643   8.846 -1.0777  2.1819 -0.1183
  999MOL0     H31844  10.819   3.629   9.081  2.4509  5.0975 -0.2308
  999MOL0     H31845  10.940   3.635   8.950  0.4917 -0.3244  0.8461
  999MOL0     H31846  10.709   3.438   9.010  0.7490  3.0900  1.9090
  999MOL0     H31847  10.790   3.422   8.853 -2.7464 -3.5808  0.8568
  999MOL0     H31848  10.933   3.377   9.114 -1.2488 -0.1150 -0.1866
  999MOL0     H31849  10.996   3.384   8.946 -0.7171 -0.2321 -2.4730
  999MOL0     H31850  10.197   4.078   8.691 -3.3841  0.3640  1.9999
  999MOL0     H31851  10.081   4.290   8.619  0.4973 -3.3697 -0.9390
  999MOL0     H31852   9.920   4.700   8.700  2.3320  0.4798  3.9913
  999MOL0     H31853   9.792   4.855   8.572  0.2883 -0.9030  1.6552
  999MOL0     H31854  10.276   5.051   8.058  0.0427 -0.8937 -0.4573
  999MOL0     H31855  10.261   4.868   7.918  0.0121  0.2088  0.0420
  999MOL0     H31856  10.530   4.498   7.655  0.3583  0.4997  3.0547
  999MOL0     H31857  10.470   4.303   7.536  3.6367 -0.3506  3.1177
  999MOL0     H31858  10.232   4.154   7.369  0.0228  2.1758 -1.8910
  999MOL0     H31859  10.145   4.285   7.437  1.8802  1.0135 -1.2518
  999MOL0     H31860   9.981   4.163   7.536 -3.6822  0.0553 -2.7151
  999MOL0     H31861   9.989   4.111   7.367 -3.3004 -2.5759  1.6792
  999MOL0     H31862  10.114   3.949   7.599  0.4172  1.0216 -0.6418
  999MOL0     H31863  10.129   3.904   7.436  1.6468 -0.6201  0.9725
  999MOL0     H31864   9.946   3.771   7.572 -3.1237  1.5750  3.4672
  999MOL0     H31865   9.861   3.925   7.594  0.0554  0.2323  0.6815
  999MOL0     H31866   9.662   3.831   7.285 -0.4877  0.3675  0.7947
  999MOL0     H31867  10.138   4.226   7.791  0.3860  0.2127 -0.2324
  999MOL0     H31868  10.189   4.417   7.927 -0.0061  0.7657 -0.4984
 1000MOL0     O31869  10.417   8.964   6.492 -0.5086  0.1102  1.1753
 1000MOL0     C31870  10.483   9.068   6.507 -0.1332 -0.0661 -0.8640
 1000MOL0     O31871  10.508   9.124   6.623 -0.2406  0.1014  0.5711
 1000MOL0     C31872  10.463   9.071   6.740  0.0995 -0.7287 -0.6358
 1000MOL0     C31873  10.326   9.043   6.769  0.0879 -0.9369  0.0603
 1000MOL0     C31874  10.291   8.990   6.897 -0.2983 -0.3222 -0.5140
 1000MOL0     C31875  10.385   8.952   6.985 -0.6501  0.3783 -0.7133
 1000MOL0     O31876  10.332   8.894   7.095 -0.0334  0.3505 -0.4353
 1000MOL0     C31877  10.402   8.798   7.177  0.1854 -0.4324 -0.4838
 1000MOL0     C31878  10.450   8.679   7.091 -0.0364 -0.2057 -0.9501
 1000MOL0     C31879  10.508   8.584   7.189  0.3064 -0.1943  0.1065
 1000MOL0     C31880  10.575   8.454   7.118 -0.1065  0.3915 -0.4108
 1000MOL0     C31881  10.614   8.343   7.207  0.0521 -0.5450 -0.1379
 1000MOL0     C31882  10.666   8.396   7.343  0.0942 -0.6488  0.4017
 1000MOL0     C31883  10.708   8.280   7.433  0.3306  0.3418  0.5366
 1000MOL0     C31884  10.706   8.300   7.587  0.4823 -0.4021  0.2627
 1000MOL0     N31885  10.715   8.436   7.637 -0.2559  0.6481  0.0214
 1000MOL0     C31886  10.801   8.533   7.598  0.3289 -0.4714 -0.0367
 1000MOL0     C31887  10.758   8.640   7.663  0.0696  0.1477 -0.3323
 1000MOL0     C31888  10.794   8.782   7.635  0.1020  0.0654 -0.4542
 1000MOL0     C31889  10.911   8.807   7.728  0.5622 -0.3663  0.0367
 1000MOL0     C31890  10.974   8.946   7.695  0.0879  0.0961 -0.5709
 1000MOL0     C31891  10.886   9.072   7.688  0.1114  0.1688 -0.0824
 1000MOL0     O31892  10.829   9.114   7.814  0.4428 -0.1598  0.1549
 1000MOL0     C31893  10.914   9.169   7.907  0.2996  0.8412 -0.2328
 1000MOL0     C31894  10.883   9.154   8.040  1.1898 -0.1193  0.3429
 1000MOL0     C31895  10.965   9.184   8.144  0.2553  0.7153 -0.9757
 1000MOL0     C31896  11.083   9.259   8.118 -0.5735  0.5185  0.6551
 1000MOL0     C31897  11.152   9.324   8.236  0.0133  0.2286  0.7697
 1000MOL0     O31898  11.127   9.270   8.350 -0.5431 -0.1897 -0.3655
 1000MOL0     C31899  11.182   9.324   8.462  0.6326 -0.0356  0.2517
 1000MOL0     C31900  11.213   9.457   8.494 -0.0386 -0.2268 -0.9570
 1000MOL0     C31901  11.254   9.501   8.618  0.0396  0.7907  0.5499
 1000MOL0     C31902  11.258   9.413   8.732  0.6553 -0.1189 -0.3601
 1000MOL0     O31903  11.295   9.447   8.860 -0.8290  0.1620 -0.8075
 1000MOL0     C31904  11.385   9.562   8.873  0.0691  0.2288 -0.8133
 1000MOL0     C31905  11.442   9.582   9.008  0.0450  0.5406  0.2169
 1000MOL0     C31906  11.568   9.670   9.002  0.4872 -0.4875  0.1173
 1000MOL0     C31907  11.552   9.814   8.955  0.4094  0.0767 -0.8462
 1000MOL0     C31908  11.456   9.891   9.043 -0.3638 -1.2509 -0.5150
 1000MOL0     C31909  11.449  10.037   8.996 -0.5565 -0.4893  0.9885
 1000MOL0     C31910  11.575  10.125   9.004  0.6547  0.2579  0.6736
 1000MOL0     C31911  11.545  10.262   8.948 -0.6010 -0.7526  1.3734
 1000MOL0    Cl31912  11.511  10.244   8.771  0.1479 -0.1438 -0.0478
 1000MOL0     C31913  11.213   9.278   8.702 -0.2217 -0.2644 -0.9165
 1000MOL0     C31914  11.173   9.242   8.570  1.1186 -0.0104 -0.4988
 1000MOL0     O31915  11.239   9.410   8.212  0.8950  0.6553  0.5978
 1000MOL0     C31916  11.125   9.269   7.972  0.8054  0.1504 -0.5914
 1000MOL0     C31917  11.037   9.228   7.872  0.1362  0.0940 -0.2930
 1000MOL0     N31918  10.652   8.616   7.746 -0.1669 -0.5489 -0.3928
 1000MOL0     N31919  10.626   8.486   7.728 -0.0393  0.0493 -0.1689
 1000MOL0     C31920  10.514   8.954   6.949 -0.0824 -0.4224 -0.5297
 1000MOL0     C31921  10.556   9.009   6.831 -0.6507 -0.4267  0.2119
 1000MOL0     C31922  10.509   9.140   6.388  0.0249 -0.3648  0.2104
 1000MOL0     C31923  10.583   9.259   6.395  0.3728  0.0439  0.1041
 1000MOL0     C31924  10.601   9.347   6.286 -0.4770  0.0814  0.7925
 1000MOL0     C31925  10.529   9.318   6.165  0.1155 -0.4619  0.6170
 1000MOL0     O31926  10.548   9.402   6.060 -0.2643 -0.6028 -0.3702
 1000MOL0     C31927  10.442   9.431   5.969  0.0822 -0.2621 -0.3960
 1000MOL0     C31928  10.494   9.489   5.842 -0.3918 -0.3685  0.0399
 1000MOL0     C31929  10.381   9.556   5.762 -0.2713 -0.9320  0.1889
 1000MOL0     C31930  10.393   9.542   5.611 -0.8207 -0.3267 -0.0498
 1000MOL0     C31931  10.275   9.596   5.537 -0.6370  0.9969 -0.9809
 1000MOL0     C31932  10.197   9.656   5.465  0.1157 -0.2838 -0.7119
 1000MOL0     C31933  10.458   9.196   6.163 -0.4325  0.2059  0.3054
 1000MOL0     C31934  10.450   9.111   6.271  0.6304 -0.3931 -0.6328
 1000MOL0     H31935  10.256   9.074   6.693  3.0869  4.1778 -1.1234
 1000MOL0     H31936  10.189   8.966   6.926 -0.8622 -1.6180 -3.2626
 1000MOL0     H31937  10.333   8.768   7.257  0.5819  1.7257  0.7276
 1000MOL0     H31938  10.480   8.856   7.227  0.5152 -1.9855  0.8836
 1000MOL0     H31939  10.530   8.703   7.021  1.7586 -1.4301  0.5797
 1000MOL0     H31940  10.354   8.650   7.049 -1.3252  0.4585  1.3480
 1000MOL0     H31941  10.429   8.553   7.257  0.1960  0.1543  0.1412
 1000MOL0     H31942  10.591   8.626   7.248  0.0058  0.3315  0.1680
 1000MOL0     H31943  10.489   8.415   7.061 -1.8291  2.3438  0.7322
 1000MOL0     H31944  10.657   8.478   7.050  0.9326 -0.0462  0.6585
 1000MOL0     H31945  10.699   8.282   7.176  1.4323  1.3298 -0.2015
 1000MOL0     H31946  10.522   8.285   7.224 -0.1199  0.0216  0.9301
 1000MOL0     H31947  10.595   8.463   7.393 -0.2727 -1.1243  0.5319
 1000MOL0     H31948  10.753   8.458   7.319 -1.5594  0.3527 -3.7876
 1000MOL0     H31949  10.636   8.199   7.415 -0.8119  1.8089 -2.0453
 1000MOL0     H31950  10.807   8.240   7.406  0.4590  1.1210 -0.1860
 1000MOL0     H31951  10.784   8.239   7.634 -0.0339  1.0097  3.1826
 1000MOL0     H31952  10.612   8.261   7.628  0.5668 -0.1981  0.6544
 1000MOL0     H31953  10.878   8.536   7.522  0.4482 -1.9820  0.0004
 1000MOL0     H31954  10.708   8.849   7.651 -1.5030 -2.2935  1.5871
 1000MOL0     H31955  10.806   8.804   7.529 -0.5875 -0.7756 -0.7181
 1000MOL0     H31956  10.989   8.734   7.705 -0.1691 -0.5971 -1.9034
 1000MOL0     H31957  10.874   8.810   7.831 -1.0908 -0.4084 -0.5102
 1000MOL0     H31958  11.054   8.962   7.768 -0.4201  3.3015 -0.5883
 1000MOL0     H31959  11.020   8.941   7.596  1.3842 -0.6713  0.0387
 1000MOL0     H31960  10.797   9.045   7.630  1.0628 -2.2270 -0.5491
 1000MOL0     H31961  10.940   9.148   7.632  1.2736  0.1236  0.9297
 1000MOL0     H31962  10.785   9.110   8.058  0.5252  0.4065 -1.7155
 1000MOL0     H31963  10.932   9.165   8.245  0.1344 -2.7866 -1.5477
 1000MOL0     H31964  11.231   9.535   8.420  0.4931 -0.8414 -1.4968
 1000MOL0     H31965  11.298   9.599   8.635 -0.1810  0.7885  1.1523
 1000MOL0     H31966  11.312   9.642   8.858 -0.1462  0.2511  0.2356
 1000MOL0     H31967  11.469   9.565   8.803  1.3698  3.4828  0.6353
 1000MOL0     H31968  11.459   9.492   9.068  2.0295  2.4241  2.7060
 1000MOL0     H31969  11.370   9.638   9.068 -0.2803  0.6017 -0.2248
 1000MOL0     H31970  11.642   9.615   8.944  2.7196 -1.0443  3.2453
 1000MOL0     H31971  11.608   9.676   9.103  1.2922 -0.2691 -0.2090
 1000MOL0     H31972  11.655   9.851   8.958  1.6916 -3.1926  0.6195
 1000MOL0     H31973  11.511   9.809   8.854  0.9802  1.6866 -1.1784
 1000MOL0     H31974  11.477   9.878   9.149 -1.2807 -1.5250 -0.3586
 1000MOL0     H31975  11.355   9.854   9.024 -0.3490 -0.7888 -1.5578
 1000MOL0     H31976  11.379  10.095   9.056  1.1925  0.7004  1.9523
 1000MOL0     H31977  11.417  10.038   8.891  0.7327 -0.8695  0.5841
 1000MOL0     H31978  11.591  10.145   9.110 -1.3220  5.4240  0.3238
 1000MOL0     H31979  11.651  10.069   8.948 -2.3972 -2.7466 -0.7941
 1000MOL0     H31980  11.627  10.329   8.974 -0.6500  0.2308 -0.7688
 1000MOL0     H31981  11.453  10.303   8.988 -1.3859 -0.6979 -0.3779
 1000MOL0     H31982  11.196   9.202   8.777  3.7424 -1.2465 -0.8129
 1000MOL0     H31983  11.143   9.140   8.547 -2.5886  0.4258  1.5297
 1000MOL0     H31984  11.220   9.320   7.961  0.3543  1.6573  1.7292
 1000MOL0     H31985  11.055   9.251   7.767  1.5999 -1.2565 -0.3856
 1000MOL0     H31986  10.594   8.905   7.002  0.5392  2.2716  1.1893
 1000MOL0     H31987  10.659   9.017   6.799 -0.9387  1.3873 -0.3948
 1000MOL0     H31988  10.621   9.289   6.492  1.2807 -1.1222  0.1239
 1000MOL0     H31989  10.652   9.443   6.275 -0.1966 -0.2035 -0.6151
 1000MOL0     H31990  10.369   9.500   6.012 -0.4198 -0.9791 -0.0880
 1000MOL0     H31991  10.386   9.342   5.939 -1.8773  0.2781  1.4028
 1000MOL0     H31992  10.572   9.565   5.854 -1.8768  1.4172 -0.9233
 1000MOL0     H31993  10.532   9.409   5.779 -0.9090 -0.5181 -0.0894
 1000MOL0     H31994  10.379   9.660   5.797  1.4935 -1.0709  0.8162
 1000MOL0     H31995  10.282   9.513   5.781 -0.4185 -0.9445 -0.5805
 1000MOL0     H31996  10.483   9.596   5.583  0.5947 -2.0313  0.9681
 1000MOL0     H31997  10.403   9.436   5.585  2.0187  0.3490 -2.2169
 1000MOL0     H31998  10.109   9.699   5.423 -1.0206 -1.5219  0.3039
 1000MOL0     H31999  10.399   9.172   6.075 -0.4674  1.3765 -0.0084
 1000MOL0     H32000  10.390   9.023   6.252  0.2397 -0.8772  2.3321
 1001MOL0     O32001   6.189   7.057   2.780  0.4760  0.2079  0.2371
 1001MOL0     C32002   6.145   7.170   2.795 -0.6877 -0.0882 -1.1113
 1001MOL0     O32003   6.137   7.267   2.701 -0.3591 -0.0607 -0.2294
 1001MOL0     C32004   6.187   7.257   2.578 -0.3290  0.3996 -0.2563
 1001MOL0     C32005   6.318   7.300   2.556 -0.0778 -0.2950 -0.2684
 1001MOL0     C32006   6.373   7.275   2.433  1.4382  0.3684 -0.2368
 1001MOL0     C32007   6.290   7.234   2.325 -0.0445 -1.0209  0.2331
 1001MOL0     O32008   6.330   7.221   2.195 -0.5410 -0.5096  0.0804
 1001MOL0     C32009   6.405   7.322   2.129  0.1636  0.9955  0.6655
 1001MOL0     C32010   6.441   7.271   1.984  0.5492 -0.2401  0.1338
 1001MOL0     C32011   6.327   7.275   1.880 -0.3002  0.0425 -0.7452
 1001MOL0     C32012   6.289   7.403   1.826 -0.3457 -0.3643  0.5128
 1001MOL0     C32013   6.404   7.488   1.765  0.0978  0.6339  0.2726
 1001MOL0     C32014   6.366   7.630   1.755  0.1614  0.4867  0.2771
 1001MOL0     C32015   6.466   7.705   1.663  0.4713  0.5764  0.9564
 1001MOL0     C32016   6.483   7.843   1.695  0.8208 -0.4541  0.3757
 1001MOL0     N32017   6.579   7.908   1.603 -0.2692  0.2198  0.8637
 1001MOL0     C32018   6.680   7.847   1.529  0.4205  0.1687  0.3153
 1001MOL0     C32019   6.712   7.937   1.440  0.0206 -0.5246 -0.0529
 1001MOL0     C32020   6.807   7.905   1.335 -1.1229  0.3508  0.9010
 1001MOL0     C32021   6.758   7.850   1.210 -0.3267 -0.7177  0.3994
 1001MOL0     C32022   6.680   7.948   1.120  0.3785  0.4556 -0.3093
 1001MOL0     C32023   6.775   8.066   1.072  1.1691 -0.0677 -0.2744
 1001MOL0     O32024   6.888   8.013   0.998  0.1589  0.1024 -0.1337
 1001MOL0     C32025   6.978   8.105   0.959  0.5281 -0.3382 -0.7310
 1001MOL0     C32026   7.076   8.046   0.882  0.3733  0.6628 -0.4317
 1001MOL0     C32027   7.177   8.117   0.832 -0.0154  0.1227 -0.4544
 1001MOL0     C32028   7.179   8.256   0.850 -0.4153  0.1570 -0.0267
 1001MOL0     C32029   7.286   8.335   0.787 -0.2282 -0.6924  0.5260
 1001MOL0     O32030   7.265   8.472   0.795 -0.6167  0.4851  0.3435
 1001MOL0     C32031   7.355   8.568   0.752  0.0788  0.2327 -0.2718
 1001MOL0     C32032   7.322   8.708   0.765  1.2665  1.1802  0.6991
 1001MOL0     C32033   7.407   8.809   0.730  1.0399  0.0333  0.2672
 1001MOL0     C32034   7.533   8.775   0.685  1.2357  0.0901 -0.6585
 1001MOL0     O32035   7.618   8.875   0.645  0.5734  0.3123 -0.4621
 1001MOL0     C32036   7.567   8.984   0.563  0.5278 -0.1928 -0.4674
 1001MOL0     C32037   7.656   9.019   0.436  0.3137 -0.2396 -0.1876
 1001MOL0     C32038   7.642   9.174   0.382  0.4656 -0.1806  0.0274
 1001MOL0     C32039   7.775   9.232   0.326  1.1264  0.7497  0.0274
 1001MOL0     C32040   7.827   9.155   0.198  0.0573  0.8286  0.1142
 1001MOL0     C32041   7.727   9.147   0.083  0.6081 -0.9100  0.0553
 1001MOL0     C32042   7.805   9.081  -0.034 -0.1573  0.0071  0.7155
 1001MOL0     C32043   7.719   9.049  -0.147 -0.3702  0.1231  0.2192
 1001MOL0    Cl32044   7.629   9.198  -0.198 -0.0719 -0.4429 -0.0361
 1001MOL0     C32045   7.567   8.638   0.672 -0.3999 -0.1510 -0.1162
 1001MOL0     C32046   7.481   8.537   0.720 -0.7193  0.6583  0.2697
 1001MOL0     O32047   7.370   8.278   0.715  0.4753 -0.3463  0.1596
 1001MOL0     C32048   7.071   8.318   0.915  0.2525  0.0305 -0.4763
 1001MOL0     C32049   6.973   8.247   0.985  1.1308  0.8618  0.2761
 1001MOL0     N32050   6.640   8.051   1.456 -0.3491 -0.7107 -0.0365
 1001MOL0     N32051   6.554   8.036   1.555  0.2273 -0.0201 -0.6346
 1001MOL0     C32052   6.155   7.197   2.351 -0.8163 -0.7277  1.2275
 1001MOL0     C32053   6.106   7.201   2.482 -0.3052 -0.0364  0.1074
 1001MOL0     C32054   6.054   7.198   2.912 -0.3021  0.6110  0.2792
 1001MOL0     C32055   5.989   7.320   2.943  0.2506  0.1864 -0.4519
 1001MOL0     C32056   5.894   7.325   3.047  0.2004  0.6559 -0.1726
 1001MOL0     C32057   5.843   7.207   3.105 -1.1752  0.9443 -0.1654
 1001MOL0     O32058   5.739   7.219   3.189  0.2957 -0.8030 -0.4968
 1001MOL0     C32059   5.757   7.212   3.324 -0.5016  0.2417 -0.5698
 1001MOL0     C32060   5.691   7.323   3.406  0.4915  0.6339  0.2435
 1001MOL0     C32061   5.545   7.355   3.369 -0.6892  0.1318  0.0777
 1001MOL0     C32062   5.480   7.463   3.449 -0.1088 -0.2290 -0.2315
 1001MOL0     C32063   5.410   7.409   3.569  0.5141 -0.3077 -0.0705
 1001MOL0     C32064   5.355   7.379   3.674 -0.6691  0.6178 -0.2643
 1001MOL0     C32065   5.907   7.087   3.070  0.0745  0.3617  0.0101
 1001MOL0     C32066   6.003   7.083   2.977 -0.1157 -0.1696 -0.2047
 1001MOL0     H32067   6.379   7.350   2.630  1.5328  0.1089 -1.7884
 1001MOL0     H32068   6.479   7.297   2.422  1.3718 -0.2117 -2.4784
 1001MOL0     H32069   6.492   7.347   2.190  2.5564 -4.0369 -0.1139
 1001MOL0     H32070   6.342   7.409   2.110 -0.9964 -0.5433 -4.0596
 1001MOL0     H32071   6.493   7.175   1.982 -1.2134 -1.2319 -0.5425
 1001MOL0     H32072   6.518   7.346   1.960 -0.8044  1.6182  1.3338
 1001MOL0     H32073   6.236   7.228   1.920 -0.0577 -0.9461 -1.3164
 1001MOL0     H32074   6.356   7.216   1.792  0.7279 -0.1525 -0.2946
 1001MOL0     H32075   6.213   7.386   1.750 -0.3275  0.6417  0.2464
 1001MOL0     H32076   6.243   7.464   1.905 -0.3236  0.0078  0.2388
 1001MOL0     H32077   6.450   7.445   1.676  4.7864 -1.2379  3.2098
 1001MOL0     H32078   6.490   7.486   1.833 -1.3082 -2.4591  2.1878
 1001MOL0     H32079   6.369   7.671   1.856 -0.3733  0.6913  0.2138
 1001MOL0     H32080   6.268   7.650   1.711 -0.4605  0.3733  1.5750
 1001MOL0     H32081   6.564   7.661   1.685  0.5988  1.3886  2.0994
 1001MOL0     H32082   6.441   7.687   1.558  1.3687  1.2506  0.6143
 1001MOL0     H32083   6.512   7.857   1.800 -3.0059  0.5632  1.4704
 1001MOL0     H32084   6.392   7.903   1.699  1.6181  0.7592  2.9997
 1001MOL0     H32085   6.727   7.749   1.531  3.2292  1.2778 -2.5800
 1001MOL0     H32086   6.883   7.837   1.375 -1.0264 -0.7478 -1.0199
 1001MOL0     H32087   6.858   7.999   1.313 -1.3380  0.2755  0.0449
 1001MOL0     H32088   6.696   7.762   1.230 -0.7193 -0.5254  0.0547
 1001MOL0     H32089   6.841   7.811   1.151 -1.5542 -1.8576 -0.6726
 1001MOL0     H32090   6.660   7.902   1.023 -1.2918  1.2422 -0.3697
 1001MOL0     H32091   6.590   7.977   1.175 -1.6401 -0.4366 -2.9680
 1001MOL0     H32092   6.805   8.125   1.159  0.3333  0.8219 -0.5710
 1001MOL0     H32093   6.718   8.128   1.002  0.3309 -1.4717 -0.8856
 1001MOL0     H32094   7.079   7.938   0.883  0.8803  0.6594  1.2143
 1001MOL0     H32095   7.257   8.066   0.779  0.6674 -1.1146  1.6688
 1001MOL0     H32096   7.218   8.726   0.791  0.8123 -0.3535  0.0756
 1001MOL0     H32097   7.356   8.903   0.713 -0.8002 -1.1912 -1.6016
 1001MOL0     H32098   7.559   9.075   0.624 -3.0474  0.3529 -1.5554
 1001MOL0     H32099   7.469   8.963   0.521  0.9458  0.6283 -1.9268
 1001MOL0     H32100   7.647   8.939   0.361  0.6938 -0.0407 -0.4479
 1001MOL0     H32101   7.759   9.012   0.474  1.5737 -1.9880 -3.4699
 1001MOL0     H32102   7.621   9.244   0.463 -1.6452  0.6260 -1.1324
 1001MOL0     H32103   7.554   9.162   0.318 -0.4763 -3.5499  1.7031
 1001MOL0     H32104   7.747   9.334   0.297 -0.9151 -0.2049 -1.6735
 1001MOL0     H32105   7.848   9.240   0.406  0.0537  2.5300  0.8877
 1001MOL0     H32106   7.860   9.056   0.229 -3.5868 -0.6175 -0.0441
 1001MOL0     H32107   7.922   9.202   0.170  2.1191 -1.4802  2.7569
 1001MOL0     H32108   7.681   9.243   0.059 -1.9028 -2.3743 -1.4976
 1001MOL0     H32109   7.650   9.080   0.123 -1.1848  2.2830  2.3623
 1001MOL0     H32110   7.886   9.144  -0.071 -2.5947  2.4156 -0.9632
 1001MOL0     H32111   7.844   8.988   0.009 -0.0181 -0.9874 -1.4363
 1001MOL0     H32112   7.650   8.969  -0.120  2.0347 -1.2262  2.8238
 1001MOL0     H32113   7.780   9.011  -0.229 -0.4611  1.3708 -0.4538
 1001MOL0     H32114   7.670   8.625   0.639  0.1182  0.3692  1.2189
 1001MOL0     H32115   7.524   8.441   0.747 -1.9126  0.8230  3.1472
 1001MOL0     H32116   7.062   8.427   0.916 -1.8314 -0.0947 -0.7611
 1001MOL0     H32117   6.907   8.306   1.048  1.2621  1.3815 -0.0610
 1001MOL0     H32118   6.094   7.159   2.270  1.2698 -1.8076  0.1035
 1001MOL0     H32119   6.006   7.168   2.508 -0.8515  1.7137  0.3619
 1001MOL0     H32120   6.005   7.414   2.890 -2.0106  1.0017  0.1576
 1001MOL0     H32121   5.860   7.421   3.084  0.6906  1.4777 -1.7223
 1001MOL0     H32122   5.866   7.216   3.330 -0.3719  4.1487 -2.2745
 1001MOL0     H32123   5.712   7.121   3.364  1.3906 -0.7668 -0.6543
 1001MOL0     H32124   5.708   7.290   3.509  0.4537 -3.1697 -0.8206
 1001MOL0     H32125   5.753   7.412   3.391  0.5355  0.6186  0.3371
 1001MOL0     H32126   5.481   7.267   3.379 -2.4823  1.5811  2.1816
 1001MOL0     H32127   5.537   7.384   3.263 -1.7870 -1.0407 -0.1837
 1001MOL0     H32128   5.555   7.538   3.477  0.1923  1.4364 -4.6520
 1001MOL0     H32129   5.410   7.524   3.390 -1.5652 -1.7032 -0.0980
 1001MOL0     H32130   5.308   7.359   3.769  0.1500  0.2001  0.0628
 1001MOL0     H32131   5.870   7.000   3.124  0.0673 -0.6754 -1.6020
 1001MOL0     H32132   6.050   6.989   2.949 -1.2071 -0.6191 -0.5744
 1002MOL0     O32133   2.666   1.216   3.804  0.8120  0.2892 -0.6321
 1002MOL0     C32134   2.573   1.210   3.885 -0.2361  0.1367  0.3384
 1002MOL0     O32135   2.446   1.179   3.858  0.7368  0.9931 -0.1687
 1002MOL0     C32136   2.402   1.138   3.735 -0.4176 -0.3522 -0.1798
 1002MOL0     C32137   2.463   1.053   3.646  0.3537 -0.9318 -0.1860
 1002MOL0     C32138   2.410   1.027   3.522  0.4620 -0.6369  0.8658
 1002MOL0     C32139   2.282   1.080   3.485 -0.2350  0.1359  0.9633
 1002MOL0     O32140   2.227   1.057   3.365  0.1254  0.1978 -0.1140
 1002MOL0     C32141   2.084   1.024   3.358 -0.4164 -0.3672 -0.4364
 1002MOL0     C32142   2.015   1.127   3.267 -0.8022 -0.7878 -0.2918
 1002MOL0     C32143   1.874   1.081   3.216  0.0933  0.2866 -1.1545
 1002MOL0     C32144   1.877   0.969   3.110 -0.4718 -1.4966 -0.8472
 1002MOL0     C32145   1.874   1.021   2.969 -0.9715 -0.0977  0.9042
 1002MOL0     C32146   1.871   0.903   2.863 -0.2080 -0.4212  0.7639
 1002MOL0     C32147   1.744   0.817   2.877  0.7920  0.2815  0.4480
 1002MOL0     C32148   1.617   0.908   2.870 -0.9090 -0.5544 -0.9377
 1002MOL0     N32149   1.503   0.817   2.896 -0.0631  0.5802 -0.8634
 1002MOL0     C32150   1.433   0.760   2.800  0.3281  0.7387  0.3761
 1002MOL0     C32151   1.332   0.704   2.873 -0.7364 -0.2353 -0.5215
 1002MOL0     C32152   1.212   0.655   2.806  0.5603  0.7878 -0.3724
 1002MOL0     C32153   1.137   0.556   2.894 -0.4954  0.7366  0.4842
 1002MOL0     C32154   1.034   0.465   2.812 -0.2392  0.3112  0.4770
 1002MOL0     C32155   0.917   0.416   2.905  0.2710 -0.3584 -0.6071
 1002MOL0     O32156   0.815   0.335   2.842 -0.4775 -0.7107  0.0609
 1002MOL0     C32157   0.748   0.400   2.744 -0.7795  0.1660  0.7203
 1002MOL0     C32158   0.715   0.538   2.748 -1.0486  0.8690 -0.0457
 1002MOL0     C32159   0.640   0.587   2.646 -0.3181 -0.8694 -0.1766
 1002MOL0     C32160   0.588   0.501   2.543 -0.6044  0.3459 -0.4021
 1002MOL0     C32161   0.493   0.552   2.445 -1.3795  0.0021  1.2156
 1002MOL0     O32162   0.463   0.472   2.341  0.1689 -0.3147  0.2262
 1002MOL0     C32163   0.351   0.502   2.259  0.0600  0.0211 -0.9774
 1002MOL0     C32164   0.361   0.611   2.176 -1.4921  0.0043 -0.4845
 1002MOL0     C32165   0.240   0.653   2.106 -0.5877  0.6374  0.7271
 1002MOL0     C32166   0.121   0.583   2.134  0.9133  0.6597 -0.2182
 1002MOL0     O32167  -0.008   0.616   2.094  0.2202  0.2260  0.2899
 1002MOL0     C32168  -0.056   0.754   2.094  0.3377  0.0123  0.3094
 1002MOL0     C32169  -0.210   0.768   2.111 -0.1787 -0.4589  0.5635
 1002MOL0     C32170  -0.267   0.687   2.223  0.1565 -0.3967 -0.7132
 1002MOL0     C32171  -0.224   0.714   2.360  0.8544 -0.2119  0.0861
 1002MOL0     C32172  -0.093   0.646   2.400 -0.2974 -0.1015 -0.7841
 1002MOL0     C32173  -0.085   0.639   2.553  0.5475  0.1079 -0.6493
 1002MOL0     C32174   0.033   0.548   2.612 -0.1648  0.2969  0.1193
 1002MOL0     C32175   0.163   0.622   2.663 -0.3439  0.0429 -1.4247
 1002MOL0    Cl32176   0.108   0.745   2.793 -0.1631  0.4127  0.3057
 1002MOL0     C32177   0.116   0.469   2.213 -0.4846 -0.4214 -0.1774
 1002MOL0     C32178   0.241   0.427   2.275  0.6456  0.4909  0.3726
 1002MOL0     O32179   0.435   0.657   2.471  0.2737  0.4255 -0.5810
 1002MOL0     C32180   0.627   0.365   2.544 -0.5199  0.2809  0.0397
 1002MOL0     C32181   0.700   0.317   2.649  0.1992 -0.0296 -0.3856
 1002MOL0     N32182   1.359   0.704   3.005  1.1462  0.1982 -0.2317
 1002MOL0     N32183   1.463   0.770   3.019  0.0185  0.3820  0.1732
 1002MOL0     C32184   2.226   1.166   3.582 -0.1930 -0.2915 -0.3002
 1002MOL0     C32185   2.287   1.187   3.700  0.3940 -0.4448 -1.2579
 1002MOL0     C32186   2.608   1.242   4.024 -0.8940 -0.1492 -0.1373
 1002MOL0     C32187   2.499   1.271   4.110 -0.5930 -0.2297 -0.1952
 1002MOL0     C32188   2.536   1.308   4.247  0.5601  0.0331 -0.6681
 1002MOL0     C32189   2.672   1.330   4.287 -0.1479 -0.3508  0.2957
 1002MOL0     O32190   2.720   1.353   4.410  0.1533 -0.2016 -0.3728
 1002MOL0     C32191   2.628   1.402   4.517  0.0376  0.1936 -0.3222
 1002MOL0     C32192   2.614   1.554   4.513  0.1405 -0.0594 -0.6665
 1002MOL0     C32193   2.715   1.633   4.604 -0.7657 -0.0795 -0.1181
 1002MOL0     C32194   2.693   1.783   4.587 -0.4393  0.0175 -0.0960
 1002MOL0     C32195   2.744   1.837   4.465  0.8129 -0.1770  0.4149
 1002MOL0     C32196   2.794   1.888   4.362  0.3112  0.6155 -0.7062
 1002MOL0     C32197   2.769   1.300   4.189 -0.1488  0.2444  0.0319
 1002MOL0     C32198   2.740   1.267   4.057  0.6282  0.2538  0.5233
 1002MOL0     H32199   2.554   1.006   3.682 -0.4151 -1.6634  0.8604
 1002MOL0     H32200   2.450   0.967   3.442 -0.1411  1.0800 -0.7893
 1002MOL0     H32201   2.029   1.024   3.453 -0.0228  1.3630 -0.1620
 1002MOL0     H32202   2.073   0.925   3.314  0.5937 -0.7140  0.0591
 1002MOL0     H32203   2.082   1.148   3.183  2.4808  4.4096  3.0499
 1002MOL0     H32204   2.002   1.226   3.312 -2.4666 -0.0825 -2.1689
 1002MOL0     H32205   1.819   1.167   3.177  0.9361  0.4494 -2.0142
 1002MOL0     H32206   1.812   1.052   3.302  1.9421  0.6822  0.3745
 1002MOL0     H32207   1.966   0.911   3.139  0.9218  0.8400 -0.2266
 1002MOL0     H32208   1.787   0.910   3.131 -0.7758 -1.2835 -1.5372
 1002MOL0     H32209   1.971   1.071   2.955  0.2458 -2.3933  0.7599
 1002MOL0     H32210   1.787   1.083   2.945 -1.4246 -1.5967 -1.6277
 1002MOL0     H32211   1.968   0.856   2.884  0.9983  2.2675  1.5445
 1002MOL0     H32212   1.881   0.929   2.758 -0.7745 -1.3388  0.4643
 1002MOL0     H32213   1.735   0.745   2.794  0.0776  2.6905 -1.6925
 1002MOL0     H32214   1.731   0.757   2.967 -0.8410 -0.2375 -0.0942
 1002MOL0     H32215   1.609   0.973   2.782  0.9536  4.0698  1.9548
 1002MOL0     H32216   1.611   0.977   2.954 -1.9967 -0.1692 -1.3119
 1002MOL0     H32217   1.435   0.773   2.692  2.6407  0.4816  0.3504
 1002MOL0     H32218   1.240   0.595   2.719 -0.3991  0.9923 -0.8305
 1002MOL0     H32219   1.142   0.739   2.802 -0.9136  0.0012  3.7701
 1002MOL0     H32220   1.093   0.619   2.973 -0.8003 -1.7980  2.4822
 1002MOL0     H32221   1.212   0.489   2.937  0.2641  1.0771 -0.3049
 1002MOL0     H32222   0.994   0.532   2.735  1.8430 -0.9315 -1.8190
 1002MOL0     H32223   1.079   0.373   2.775 -0.8208  1.1277 -2.5788
 1002MOL0     H32224   0.883   0.501   2.965  0.3737 -0.2089 -0.7574
 1002MOL0     H32225   0.972   0.357   2.979  1.3801 -0.6335 -1.6253
 1002MOL0     H32226   0.755   0.605   2.824  1.0298  0.5892 -0.8208
 1002MOL0     H32227   0.616   0.692   2.645 -1.0002 -0.9496  2.2719
 1002MOL0     H32228   0.457   0.658   2.193 -1.9466  0.4783  0.9142
 1002MOL0     H32229   0.244   0.729   2.029  3.1383  1.6606  1.7561
 1002MOL0     H32230  -0.020   0.803   2.003  3.7503 -4.5590 -1.1758
 1002MOL0     H32231  -0.013   0.811   2.177 -0.7017  0.1639  0.7547
 1002MOL0     H32232  -0.247   0.737   2.012 -1.6181  0.0995  0.9044
 1002MOL0     H32233  -0.248   0.870   2.111  1.3221  0.1307  0.3931
 1002MOL0     H32234  -0.253   0.579   2.211  1.2920 -0.9994  3.9775
 1002MOL0     H32235  -0.374   0.708   2.216 -0.3992 -2.9792 -0.7838
 1002MOL0     H32236  -0.189   0.818   2.370  2.1829 -0.6757  0.4783
 1002MOL0     H32237  -0.310   0.682   2.420 -0.3152 -0.1042 -1.4710
 1002MOL0     H32238  -0.005   0.698   2.361  1.4450 -1.2528  1.3459
 1002MOL0     H32239  -0.094   0.547   2.355  1.3953 -0.2303 -0.6138
 1002MOL0     H32240  -0.179   0.607   2.598 -1.0995  5.5823  0.5855
 1002MOL0     H32241  -0.069   0.734   2.605  2.2079 -1.1375  1.2351
 1002MOL0     H32242   0.000   0.465   2.675  1.4102 -1.0525 -0.7728
 1002MOL0     H32243   0.071   0.501   2.521 -1.8226 -0.1106 -0.4017
 1002MOL0     H32244   0.217   0.678   2.586 -1.5194  5.3497  1.1458
 1002MOL0     H32245   0.233   0.553   2.711 -0.7156 -0.3921 -1.5062
 1002MOL0     H32246   0.024   0.413   2.225 -0.3392 -1.5976 -3.5784
 1002MOL0     H32247   0.233   0.334   2.330 -0.7104 -0.4812 -1.3505
 1002MOL0     H32248   0.606   0.290   2.468 -0.9854 -1.9743  2.2416
 1002MOL0     H32249   0.732   0.214   2.659 -1.2140 -0.4415  0.2981
 1002MOL0     H32250   2.136   1.222   3.558 -1.0531 -1.5643 -0.1032
 1002MOL0     H32251   2.235   1.246   3.774 -0.7019 -1.8744 -0.8386
 1002MOL0     H32252   2.392   1.266   4.092 -1.3185  0.5456  3.1374
 1002MOL0     H32253   2.458   1.320   4.321  2.4669  0.0960  1.4505
 1002MOL0     H32254   2.668   1.377   4.615  0.1960 -3.5380 -1.1679
 1002MOL0     H32255   2.535   1.345   4.515 -0.1205  0.4523 -1.7243
 1002MOL0     H32256   2.627   1.579   4.407  1.6825 -0.9399 -0.7237
 1002MOL0     H32257   2.512   1.586   4.536 -1.6564 -4.1599 -2.0364
 1002MOL0     H32258   2.816   1.602   4.578 -0.6661  0.5695 -0.5458
 1002MOL0     H32259   2.692   1.600   4.705 -0.0879  0.2317  0.1487
 1002MOL0     H32260   2.588   1.811   4.594 -0.3538  1.1753 -2.6548
 1002MOL0     H32261   2.762   1.815   4.666  3.2078 -4.5643 -0.8983
 1002MOL0     H32262   2.818   1.940   4.272  1.1919 -2.2073 -2.2134
 1002MOL0     H32263   2.871   1.306   4.227  0.6673 -3.1187 -1.2380
 1002MOL0     H32264   2.809   1.236   3.979 -2.4952 -1.5571 -1.7751
 1003MOL0     O32265   5.843   3.682   8.360 -0.2586  0.4433 -0.6952
 1003MOL0     C32266   5.870   3.653   8.246  0.3508  0.2205 -0.5384
 1003MOL0     O32267   5.982   3.700   8.176 -0.4104 -0.4554 -0.2128
 1003MOL0     C32268   6.075   3.789   8.227 -0.3601  0.6324  0.3516
 1003MOL0     C32269   6.174   3.747   8.317 -1.1416  0.2063 -0.1860
 1003MOL0     C32270   6.264   3.843   8.372  1.1479  0.9014  0.7294
 1003MOL0     C32271   6.273   3.974   8.316  0.2440 -0.0436  0.1324
 1003MOL0     O32272   6.352   4.068   8.371  0.7424 -0.5412  0.3401
 1003MOL0     C32273   6.487   4.029   8.375 -0.2964  0.2875 -1.1468
 1003MOL0     C32274   6.596   4.139   8.379 -0.5084 -0.8306  0.1836
 1003MOL0     C32275   6.741   4.080   8.389  0.5780 -0.2380  0.8700
 1003MOL0     C32276   6.844   4.189   8.424 -0.8068 -0.5273 -0.4451
 1003MOL0     C32277   6.993   4.159   8.409  0.0146  0.0552  0.1663
 1003MOL0     C32278   7.092   4.279   8.437 -0.6162  0.7565 -0.2408
 1003MOL0     C32279   7.073   4.383   8.330  0.3347 -0.8117 -0.1952
 1003MOL0     C32280   7.201   4.463   8.291 -1.4137  0.2227  0.0076
 1003MOL0     N32281   7.230   4.583   8.373 -0.4504  0.1130  0.9355
 1003MOL0     C32282   7.360   4.630   8.410 -0.2705  0.7952  0.7020
 1003MOL0     C32283   7.347   4.753   8.469  0.3491  0.1041  0.4187
 1003MOL0     C32284   7.454   4.831   8.522  0.3395  0.3466  0.1207
 1003MOL0     C32285   7.535   4.762   8.632  0.3563  0.2683 -0.4718
 1003MOL0     C32286   7.620   4.854   8.711  0.0794  0.2942  0.6241
 1003MOL0     C32287   7.724   4.940   8.638  0.2700 -0.4661  1.3685
 1003MOL0     O32288   7.779   4.854   8.535 -0.9007 -0.3740  0.3295
 1003MOL0     C32289   7.911   4.808   8.530  1.1208  0.0688  0.5193
 1003MOL0     C32290   7.918   4.707   8.436  1.0293 -0.3977 -0.3206
 1003MOL0     C32291   8.041   4.657   8.402 -0.6976  0.5295  0.0191
 1003MOL0     C32292   8.161   4.710   8.468  0.7813 -0.4653  0.3920
 1003MOL0     C32293   8.295   4.662   8.440  0.4676  0.0816  0.0901
 1003MOL0     O32294   8.307   4.586   8.324 -0.0726 -0.3154 -0.0839
 1003MOL0     C32295   8.434   4.569   8.300 -0.1687  0.1160 -0.5179
 1003MOL0     C32296   8.503   4.448   8.317 -0.0103  0.3771  0.1157
 1003MOL0     C32297   8.634   4.422   8.308 -0.4066 -0.1845  0.6841
 1003MOL0     C32298   8.722   4.530   8.278 -0.0630  0.4320 -0.4149
 1003MOL0     O32299   8.854   4.522   8.288 -0.0162  0.8776  0.2393
 1003MOL0     C32300   8.926   4.399   8.291  0.1124  0.3624 -0.6908
 1003MOL0     C32301   9.077   4.427   8.298 -0.8857 -0.2822 -0.2387
 1003MOL0     C32302   9.148   4.285   8.304 -0.3793  0.3314 -0.6857
 1003MOL0     C32303   9.301   4.284   8.287  0.2582 -0.0650 -0.5508
 1003MOL0     C32304   9.370   4.341   8.414  1.1468  0.3021  0.9437
 1003MOL0     C32305   9.516   4.349   8.379 -0.1311 -0.4631 -0.3632
 1003MOL0     C32306   9.606   4.359   8.504 -0.6017 -0.4989 -0.5152
 1003MOL0     C32307   9.587   4.480   8.601 -0.4647 -0.3052 -0.3843
 1003MOL0    Cl32308   9.646   4.627   8.519  0.0293  0.6281 -0.2741
 1003MOL0     C32309   8.663   4.658   8.252  0.3422 -0.0332 -0.7280
 1003MOL0     C32310   8.520   4.672   8.257 -0.8516 -0.6419  0.1792
 1003MOL0     O32311   8.378   4.678   8.523 -0.1171 -0.6017 -0.7707
 1003MOL0     C32312   8.143   4.812   8.559 -0.1494 -0.1979  0.2777
 1003MOL0     C32313   8.020   4.858   8.598 -0.0322 -0.1050  0.9124
 1003MOL0     N32314   7.209   4.773   8.482  0.0867  0.7965 -0.5282
 1003MOL0     N32315   7.143   4.669   8.435  0.6096  0.1607  0.3091
 1003MOL0     C32316   6.180   4.006   8.220 -0.0416 -0.1163 -0.9850
 1003MOL0     C32317   6.085   3.915   8.177  0.2042 -0.7653  0.0253
 1003MOL0     C32318   5.759   3.574   8.178 -0.2160 -0.0410 -0.0459
 1003MOL0     C32319   5.666   3.494   8.253  0.6505  0.0057 -0.1869
 1003MOL0     C32320   5.573   3.408   8.196  0.8729 -0.3324 -0.0082
 1003MOL0     C32321   5.563   3.402   8.055  1.8184  0.3167  0.3631
 1003MOL0     O32322   5.472   3.320   7.993 -0.3484 -0.3754  0.6811
 1003MOL0     C32323   5.344   3.379   7.981  0.6898  0.6716  0.2363
 1003MOL0     C32324   5.249   3.291   8.072 -0.5971  0.4015 -0.1348
 1003MOL0     C32325   5.117   3.362   8.094  0.7712 -0.8075 -0.2199
 1003MOL0     C32326   5.043   3.297   8.206  0.7392  0.0191  0.2138
 1003MOL0     C32327   4.997   3.165   8.171 -0.3140 -0.0993  1.0933
 1003MOL0     C32328   4.981   3.046   8.159 -0.8519  0.6057 -0.0951
 1003MOL0     C32329   5.657   3.480   7.981 -0.5153 -0.0019 -0.5185
 1003MOL0     C32330   5.750   3.557   8.037 -0.0708  0.9299 -0.1116
 1003MOL0     H32331   6.150   3.652   8.363  1.8342 -1.1721 -1.2638
 1003MOL0     H32332   6.328   3.812   8.454 -0.1819 -1.0082  1.1041
 1003MOL0     H32333   6.502   3.950   8.302  0.8522 -0.8573  0.2817
 1003MOL0     H32334   6.504   3.980   8.472 -4.4972 -2.6845 -1.6224
 1003MOL0     H32335   6.576   4.225   8.444 -0.5715  1.3088 -2.4541
 1003MOL0     H32336   6.586   4.190   8.283 -0.7422 -2.5051 -0.7180
 1003MOL0     H32337   6.750   4.050   8.284 -2.1984  0.4584  0.3276
 1003MOL0     H32338   6.747   3.994   8.456 -0.0169 -1.5959 -0.7429
 1003MOL0     H32339   6.817   4.264   8.350  1.6133  1.7179  0.8023
 1003MOL0     H32340   6.832   4.223   8.528  3.4718  0.7910 -0.1872
 1003MOL0     H32341   7.007   4.123   8.306 -0.7630 -1.5181  0.5848
 1003MOL0     H32342   7.026   4.074   8.470  1.0326  0.5439  0.3182
 1003MOL0     H32343   7.191   4.233   8.437 -0.8392  0.2305 -1.8487
 1003MOL0     H32344   7.064   4.336   8.526  1.3018  1.1182  0.1795
 1003MOL0     H32345   7.044   4.338   8.235 -0.8353 -1.9049  0.6584
 1003MOL0     H32346   6.997   4.452   8.370  0.0089 -1.7963  0.9300
 1003MOL0     H32347   7.184   4.481   8.184 -2.2638  0.5191  0.1853
 1003MOL0     H32348   7.283   4.392   8.303 -1.3482  0.1163 -0.9890
 1003MOL0     H32349   7.446   4.578   8.370 -0.4207  2.0703 -1.4347
 1003MOL0     H32350   7.412   4.926   8.555  1.8310  1.0505  0.0688
 1003MOL0     H32351   7.518   4.860   8.438  1.3294  0.8697  1.0322
 1003MOL0     H32352   7.591   4.682   8.584 -0.0583 -0.1886 -0.1933
 1003MOL0     H32353   7.469   4.700   8.693  1.6746 -2.6384 -1.8082
 1003MOL0     H32354   7.544   4.915   8.761  0.2733  0.9855  0.0860
 1003MOL0     H32355   7.661   4.797   8.795 -1.8144 -2.1012  0.0354
 1003MOL0     H32356   7.802   4.974   8.707 -0.3502 -0.6988  2.2012
 1003MOL0     H32357   7.679   5.025   8.587 -0.3830 -1.1929  0.7218
 1003MOL0     H32358   7.825   4.691   8.382  0.7661  0.9769 -0.3168
 1003MOL0     H32359   8.041   4.570   8.337 -0.9973 -2.8141  4.0411
 1003MOL0     H32360   8.440   4.365   8.347  1.1347 -0.6907 -0.3391
 1003MOL0     H32361   8.683   4.325   8.318 -4.9771 -2.7250  1.0340
 1003MOL0     H32362   8.913   4.328   8.209 -2.0868  2.2988 -2.1424
 1003MOL0     H32363   8.884   4.355   8.382 -2.9001  3.3269 -0.4300
 1003MOL0     H32364   9.101   4.488   8.385 -1.9663  0.3135 -0.3482
 1003MOL0     H32365   9.118   4.479   8.210  2.2653  1.5948  2.1256
 1003MOL0     H32366   9.109   4.237   8.213 -0.4338 -1.5182  0.2657
 1003MOL0     H32367   9.114   4.226   8.389  0.3775 -1.1520 -1.3805
 1003MOL0     H32368   9.343   4.185   8.270  0.8472  0.3871 -1.8336
 1003MOL0     H32369   9.333   4.349   8.206  2.1092 -1.2518 -0.8189
 1003MOL0     H32370   9.352   4.262   8.488 -2.0414 -0.7320 -0.7634
 1003MOL0     H32371   9.339   4.440   8.451  0.4466  1.3236 -2.1079
 1003MOL0     H32372   9.531   4.433   8.311 -2.1898 -0.7715 -1.2811
 1003MOL0     H32373   9.548   4.257   8.328 -0.6562 -1.8185  1.6179
 1003MOL0     H32374   9.582   4.267   8.559 -0.3839 -1.1370 -1.4565
 1003MOL0     H32375   9.712   4.356   8.477  1.2441 -0.1735  5.4018
 1003MOL0     H32376   9.651   4.470   8.689  1.9580  0.5169 -1.9493
 1003MOL0     H32377   9.482   4.491   8.630  0.0067 -0.3363  1.4311
 1003MOL0     H32378   8.717   4.749   8.228 -0.4877 -0.1024 -3.0242
 1003MOL0     H32379   8.483   4.770   8.230 -0.4426 -0.7548 -0.8453
 1003MOL0     H32380   8.230   4.850   8.612  2.3447 -1.7826 -2.3954
 1003MOL0     H32381   8.014   4.935   8.674  0.2138  1.6212 -0.7289
 1003MOL0     H32382   6.166   4.107   8.184  3.2790  0.9800  0.3775
 1003MOL0     H32383   6.032   3.963   8.095 -0.1587 -1.5705 -0.2251
 1003MOL0     H32384   5.655   3.505   8.361 -2.3084 -1.2472 -0.2622
 1003MOL0     H32385   5.513   3.335   8.249 -0.1791 -0.1277 -0.8837
 1003MOL0     H32386   5.307   3.364   7.879 -0.2711 -0.8784  0.7639
 1003MOL0     H32387   5.348   3.487   7.998 -0.3205  0.8377 -0.4422
 1003MOL0     H32388   5.234   3.199   8.015  2.2471 -0.7999  0.8880
 1003MOL0     H32389   5.296   3.270   8.169 -1.3020 -0.1865  0.0920
 1003MOL0     H32390   5.049   3.372   8.008 -0.1705 -1.4660  0.4271
 1003MOL0     H32391   5.134   3.460   8.138 -1.6775 -1.1171  1.6158
 1003MOL0     H32392   5.106   3.285   8.295  1.6684 -0.0210 -0.4438
 1003MOL0     H32393   4.948   3.347   8.229 -0.4865 -0.0185 -4.0225
 1003MOL0     H32394   4.971   2.940   8.148  2.4707  0.1142  0.4686
 1003MOL0     H32395   5.649   3.483   7.872 -1.2206  3.2491 -0.5032
 1003MOL0     H32396   5.816   3.604   7.966 -0.6747 -1.4770 -2.4242
 1004MOL0     O32397   8.923   4.781   9.186 -0.3474  0.0614 -1.2689
 1004MOL0     C32398   8.986   4.750   9.292 -0.6118 -0.9578  0.0204
 1004MOL0     O32399   9.069   4.838   9.363  0.4272 -0.5686  0.1398
 1004MOL0     C32400   9.042   4.977   9.349 -0.5451 -0.1202 -0.6598
 1004MOL0     C32401   8.920   5.043   9.356  0.5057 -0.1196  0.1538
 1004MOL0     C32402   8.911   5.179   9.357  0.0684 -0.7675 -0.0195
 1004MOL0     C32403   9.028   5.252   9.346  0.0639 -0.4734  0.2049
 1004MOL0     O32404   9.034   5.390   9.359  0.4725  0.2844 -0.4408
 1004MOL0     C32405   8.927   5.455   9.432 -0.0310  1.3864  0.0871
 1004MOL0     C32406   8.948   5.606   9.446  0.6724  0.7585 -0.6314
 1004MOL0     C32407   8.811   5.679   9.457 -0.1364 -0.6836 -0.1583
 1004MOL0     C32408   8.739   5.673   9.590 -0.4086 -0.2757  0.3117
 1004MOL0     C32409   8.836   5.686   9.706  0.7226 -0.1980  0.4183
 1004MOL0     C32410   8.761   5.690   9.837 -0.2351  0.5509  0.0385
 1004MOL0     C32411   8.866   5.683   9.953  0.0323 -0.7475  0.5435
 1004MOL0     C32412   8.819   5.630  10.086  0.0824  0.0071 -0.1302
 1004MOL0     N32413   8.928   5.645  10.188  0.3860 -0.0896  0.6636
 1004MOL0     C32414   9.044   5.580  10.179  0.5997 -0.1456  0.1369
 1004MOL0     C32415   9.118   5.624  10.283  1.0203  0.5379 -0.6645
 1004MOL0     C32416   9.250   5.562  10.307 -0.5377 -0.0343  0.5739
 1004MOL0     C32417   9.252   5.465  10.429  0.4197  0.3405 -0.5337
 1004MOL0     C32418   9.206   5.530  10.569  0.0662 -0.3231 -0.1989
 1004MOL0     C32419   9.277   5.457  10.676  0.2543  0.9258 -0.1963
 1004MOL0     O32420   9.420   5.458  10.649  0.2818  0.0673  0.3231
 1004MOL0     C32421   9.501   5.372  10.723 -0.2329  0.1414  0.5119
 1004MOL0     C32422   9.457   5.277  10.814  0.1098 -0.2851  1.3195
 1004MOL0     C32423   9.556   5.203  10.873  0.0152 -0.8221  0.2700
 1004MOL0     C32424   9.690   5.225  10.851  0.5217  0.3097 -0.5542
 1004MOL0     C32425   9.795   5.156  10.926  0.4922 -1.1195  0.8522
 1004MOL0     O32426   9.928   5.185  10.907  0.2840  0.5024  0.1622
 1004MOL0     C32427  10.016   5.113  10.970  0.1210  0.6025  0.6711
 1004MOL0     C32428  10.060   4.992  10.921  0.4803  0.9145  0.0963
 1004MOL0     C32429  10.139   4.916  10.999  0.3792  0.9261  0.5144
 1004MOL0     C32430  10.183   4.963  11.128 -0.1215 -0.0363  0.7838
 1004MOL0     O32431  10.284   4.895  11.187 -0.0255 -0.6436  0.1080
 1004MOL0     C32432  10.334   4.941  11.316 -0.7277  1.0105  0.9502
 1004MOL0     C32433  10.431   4.844  11.377 -0.1411  0.0886 -0.5037
 1004MOL0     C32434  10.500   4.909  11.501 -0.3806 -0.1919 -0.0733
 1004MOL0     C32435  10.611   4.817  11.561 -0.9886  0.9737  0.1015
 1004MOL0     C32436  10.677   4.874  11.686 -0.2154 -0.8387  0.1889
 1004MOL0     C32437  10.793   4.783  11.725  0.4134 -0.9936 -0.7042
 1004MOL0     C32438  10.915   4.778  11.624 -0.2688  0.3176 -0.2374
 1004MOL0     C32439  11.025   4.676  11.667  0.3735  0.2055  0.3678
 1004MOL0    Cl32440  11.166   4.662  11.555  0.1487 -0.2335  0.2023
 1004MOL0     C32441  10.133   5.083  11.176  0.1593 -0.4196  0.1070
 1004MOL0     C32442  10.047   5.151  11.100 -0.0279 -0.5362 -0.1297
 1004MOL0     O32443   9.752   5.085  11.015  0.3913 -0.2492  0.1003
 1004MOL0     C32444   9.733   5.321  10.761 -0.2446  0.2091 -0.2704
 1004MOL0     C32445   9.638   5.398  10.699 -0.4708  0.3534  0.1616
 1004MOL0     N32446   9.059   5.731  10.339 -0.4911  0.0285  0.4293
 1004MOL0     N32447   8.949   5.742  10.286  0.0181  0.9402 -0.2314
 1004MOL0     C32448   9.150   5.194   9.340  0.3795 -0.2747 -0.0373
 1004MOL0     C32449   9.163   5.057   9.324  0.0958  0.0812 -0.0390
 1004MOL0     C32450   8.985   4.618   9.349 -0.2333  0.3122  0.1199
 1004MOL0     C32451   9.029   4.582   9.482  0.5122 -0.0451 -0.8038
 1004MOL0     C32452   9.029   4.449   9.525 -0.4672 -0.8216  0.1640
 1004MOL0     C32453   8.970   4.347   9.448 -0.1309 -0.6920 -1.2936
 1004MOL0     O32454   8.962   4.227   9.510  0.3548  0.0904 -0.3582
 1004MOL0     C32455   8.928   4.107   9.431 -0.0092 -0.2282  0.5862
 1004MOL0     C32456   8.984   3.978   9.510  0.4461  0.0727  0.3565
 1004MOL0     C32457   8.966   3.842   9.440  0.6264 -0.4990 -0.8388
 1004MOL0     C32458   9.080   3.744   9.480 -0.1155  1.1546 -0.1867
 1004MOL0     C32459   9.072   3.723   9.627 -0.4014  0.2403 -0.3517
 1004MOL0     C32460   9.073   3.705   9.750 -0.7258  0.6645 -0.2296
 1004MOL0     C32461   8.924   4.380   9.320 -0.2443  0.7380  0.1776
 1004MOL0     C32462   8.938   4.507   9.268  0.4710 -0.2222 -0.0258
 1004MOL0     H32463   8.836   4.977   9.377  0.1184  0.4511  0.4328
 1004MOL0     H32464   8.814   5.225   9.375 -0.3554 -1.8526  0.6282
 1004MOL0     H32465   8.906   5.412   9.531 -1.7245  1.1460 -0.3420
 1004MOL0     H32466   8.831   5.440   9.382  1.1832 -2.9008 -1.3963
 1004MOL0     H32467   8.994   5.635   9.351 -0.5263  1.4040 -1.0476
 1004MOL0     H32468   9.011   5.630   9.532  2.0893  0.3568 -1.5263
 1004MOL0     H32469   8.750   5.658   9.369  0.4679  0.4004 -0.8546
 1004MOL0     H32470   8.838   5.784   9.439  1.9024 -0.8218  1.6183
 1004MOL0     H32471   8.659   5.748   9.591 -1.4573 -1.3373  2.1176
 1004MOL0     H32472   8.681   5.580   9.590 -0.1493 -0.4437  1.2828
 1004MOL0     H32473   8.882   5.783   9.691 -0.5741  0.2394 -0.9470
 1004MOL0     H32474   8.897   5.595   9.714 -1.8301 -2.0354  0.5795
 1004MOL0     H32475   8.681   5.616   9.832 -2.5341  2.9847 -1.9235
 1004MOL0     H32476   8.712   5.787   9.842 -0.0817  0.6601 -0.5263
 1004MOL0     H32477   8.952   5.621   9.926  2.0037  1.9391  0.2222
 1004MOL0     H32478   8.908   5.782   9.972 -1.2866  0.4990 -2.4157
 1004MOL0     H32479   8.782   5.527  10.074 -2.0168  0.7830 -0.6997
 1004MOL0     H32480   8.740   5.698  10.118 -0.9480 -1.5791  0.8463
 1004MOL0     H32481   9.072   5.499  10.113 -0.1416 -1.1849  1.0499
 1004MOL0     H32482   9.311   5.648  10.336 -0.0896  0.7259 -2.3533
 1004MOL0     H32483   9.299   5.515  10.222  2.7857  0.8696  1.8339
 1004MOL0     H32484   9.349   5.416  10.442  1.1840  1.9461  0.1718
 1004MOL0     H32485   9.184   5.383  10.404  0.8580 -0.8191  1.7712
 1004MOL0     H32486   9.235   5.635  10.572  1.3421 -0.6847  0.6680
 1004MOL0     H32487   9.096   5.528  10.564 -0.1328 -2.1410  2.6148
 1004MOL0     H32488   9.228   5.360  10.666  1.1319  0.3389  1.0409
 1004MOL0     H32489   9.260   5.490  10.779 -1.7703  2.1723 -0.8666
 1004MOL0     H32490   9.352   5.250  10.821 -1.5195  3.8610 -2.2859
 1004MOL0     H32491   9.510   5.131  10.940 -1.3043 -0.0752  0.2150
 1004MOL0     H32492  10.029   4.946  10.827  1.0376 -1.1243  0.8508
 1004MOL0     H32493  10.170   4.820  10.959 -2.3972  0.0092  0.3374
 1004MOL0     H32494  10.250   4.952  11.385  0.1724  1.1318  2.0529
 1004MOL0     H32495  10.384   5.038  11.305 -0.1817  0.5438 -1.2461
 1004MOL0     H32496  10.495   4.792  11.305 -0.2239  1.2248 -1.4214
 1004MOL0     H32497  10.384   4.749  11.406  1.9467 -1.6135 -2.3080
 1004MOL0     H32498  10.435   4.927  11.587  0.4458 -1.0678  0.7657
 1004MOL0     H32499  10.559   4.998  11.477  1.4289 -1.6678 -1.3945
 1004MOL0     H32500  10.564   4.719  11.577  0.2220 -0.5273 -4.0912
 1004MOL0     H32501  10.675   4.795  11.475  1.1719  2.8423  1.1435
 1004MOL0     H32502  10.597   4.879  11.761 -1.8742 -1.8284 -1.4206
 1004MOL0     H32503  10.708   4.979  11.678 -0.0042 -0.9061  0.1335
 1004MOL0     H32504  10.767   4.681  11.756 -0.6416 -0.6603 -0.4488
 1004MOL0     H32505  10.823   4.830  11.819 -1.8372  0.2658 -0.5297
 1004MOL0     H32506  10.885   4.775  11.519  0.3766  1.6162 -0.4960
 1004MOL0     H32507  10.961   4.878  11.617 -1.3121  0.6970 -5.1063
 1004MOL0     H32508  10.992   4.572  11.671 -0.5071  0.4970  1.3633
 1004MOL0     H32509  11.059   4.693  11.770  0.9864 -0.0556  0.2079
 1004MOL0     H32510  10.151   5.114  11.279  2.9767  1.6487 -0.8495
 1004MOL0     H32511  10.006   5.243  11.141 -0.6771 -1.8294  2.3575
 1004MOL0     H32512   9.839   5.339  10.747  0.4025 -3.0481 -0.3089
 1004MOL0     H32513   9.657   5.489  10.643  0.6628 -0.3263 -0.6020
 1004MOL0     H32514   9.234   5.263   9.334 -1.1697  1.6851 -0.0007
 1004MOL0     H32515   9.252   5.010   9.283  1.2302  0.8500  1.4410
 1004MOL0     H32516   9.081   4.654   9.545  3.1064 -0.7267 -2.0204
 1004MOL0     H32517   9.069   4.422   9.622 -2.4085  1.8542  1.8270
 1004MOL0     H32518   8.989   4.120   9.341 -0.2661  3.9249  0.7925
 1004MOL0     H32519   8.820   4.098   9.419 -0.1676 -1.4544  2.5426
 1004MOL0     H32520   9.093   3.987   9.518  0.6535 -1.9817  0.5207
 1004MOL0     H32521   8.940   3.966   9.610 -0.8764  0.9635 -0.0917
 1004MOL0     H32522   8.965   3.859   9.332  0.2367 -1.0063 -0.9126
 1004MOL0     H32523   8.876   3.787   9.468 -1.4960  2.0191 -2.2740
 1004MOL0     H32524   9.048   3.652   9.430  0.3420 -0.6460  2.5940
 1004MOL0     H32525   9.178   3.782   9.449  0.3490  1.4634  1.5220
 1004MOL0     H32526   9.070   3.686   9.855 -1.8293  0.4939 -0.2816
 1004MOL0     H32527   8.873   4.305   9.261  0.6069  0.2700  0.0228
 1004MOL0     H32528   8.892   4.528   9.172  0.9022  2.2877  0.2547
 1005MOL0     O32529   2.499   9.816   9.906 -0.1253 -0.5566  0.3509
 1005MOL0     C32530   2.619   9.839   9.914  0.4212 -0.2800 -0.0642
 1005MOL0     O32531   2.677   9.929   9.999 -0.1461  0.2401 -0.8194
 1005MOL0     C32532   2.608   9.968  10.109  0.5865 -0.9863  0.6383
 1005MOL0     C32533   2.556  10.097  10.124  0.8338  0.1184 -0.4271
 1005MOL0     C32534   2.503  10.137  10.251  0.2184 -0.1640  0.1269
 1005MOL0     C32535   2.499  10.053  10.359  0.0715  0.8038  0.5642
 1005MOL0     O32536   2.461  10.099  10.476  0.5011 -0.2345 -0.2008
 1005MOL0     C32537   2.313  10.103  10.479  0.0328  0.0633  0.0277
 1005MOL0     C32538   2.257  10.144  10.615 -0.7300 -0.7311  0.0952
 1005MOL0     C32539   2.304  10.277  10.669 -0.3766  0.4714 -0.2003
 1005MOL0     C32540   2.298  10.390  10.564 -0.8246  0.2167  0.6413
 1005MOL0     C32541   2.354  10.516  10.618 -0.5803  0.0072  0.1204
 1005MOL0     C32542   2.306  10.561  10.757 -0.1400 -0.0577 -0.8246
 1005MOL0     C32543   2.148  10.558  10.767  0.2102  0.5297 -0.0656
 1005MOL0     C32544   2.103  10.595  10.907 -0.4749 -0.9331  0.6514
 1005MOL0     N32545   2.029  10.726  10.914  0.0454  1.0095 -0.8723
 1005MOL0     C32546   1.900  10.738  10.880  0.2636 -0.5377 -1.1145
 1005MOL0     C32547   1.862  10.863  10.915  0.1004 -1.1039 -0.9194
 1005MOL0     C32548   1.728  10.929  10.893 -0.4774 -0.2803  0.0786
 1005MOL0     C32549   1.628  10.817  10.844 -0.3127  0.3812 -0.0266
 1005MOL0     C32550   1.480  10.857  10.812  0.6375 -0.1958  0.2339
 1005MOL0     C32551   1.389  10.735  10.775 -0.5929 -0.4232  0.8534
 1005MOL0     O32552   1.458  10.651  10.676 -0.3080  0.1390 -0.3824
 1005MOL0     C32553   1.386  10.542  10.629 -0.4042 -0.2620  0.0877
 1005MOL0     C32554   1.464  10.429  10.588 -0.4968  0.4582 -0.7873
 1005MOL0     C32555   1.406  10.309  10.553  0.4117 -0.1868 -0.1374
 1005MOL0     C32556   1.264  10.306  10.540 -0.2546  0.1991  0.2368
 1005MOL0     C32557   1.207  10.179  10.491 -0.5569  0.3300  0.5459
 1005MOL0     O32558   1.276  10.112  10.403  1.1852  0.0340  1.0217
 1005MOL0     C32559   1.216   9.999  10.345 -0.5349 -0.2459  0.0672
 1005MOL0     C32560   1.120  10.006  10.240 -0.1949 -1.3678 -0.2972
 1005MOL0     C32561   1.078   9.888  10.181  0.0614  0.6213  0.6687
 1005MOL0     C32562   1.115   9.759  10.229 -0.1269  0.5363 -0.3196
 1005MOL0     O32563   1.048   9.637  10.189  0.1064 -0.1259  0.6391
 1005MOL0     C32564   1.008   9.628  10.047  0.6011 -0.2012 -0.4248
 1005MOL0     C32565   1.016   9.481  10.003 -0.3887 -0.7138 -0.0667
 1005MOL0     C32566   0.916   9.383  10.082 -0.2641 -0.2605 -0.7539
 1005MOL0     C32567   0.920   9.242  10.034 -0.8712 -0.4067  0.4963
 1005MOL0     C32568   0.818   9.127  10.088 -0.0605 -0.2380  0.4463
 1005MOL0     C32569   0.691   9.192  10.145  0.6725 -0.0673  0.3122
 1005MOL0     C32570   0.614   9.085  10.219  0.6637  0.3981  0.3880
 1005MOL0     C32571   0.501   9.129  10.298  0.1048 -0.1426 -0.6425
 1005MOL0    Cl32572   0.418   8.983  10.347  0.4166  0.2257 -0.4697
 1005MOL0     C32573   1.206   9.746  10.338  0.3750 -0.7569 -0.7899
 1005MOL0     C32574   1.261   9.872  10.397  0.1819  0.5195  0.2910
 1005MOL0     O32575   1.096  10.148  10.534 -1.1034 -1.0474  0.8915
 1005MOL0     C32576   1.179  10.415  10.582 -0.3448 -0.3078  0.4791
 1005MOL0     C32577   1.245  10.529  10.626  0.5019 -0.4568 -0.4845
 1005MOL0     N32578   1.974  10.927  10.962 -1.0915 -0.1113  1.2753
 1005MOL0     N32579   2.068  10.841  10.967 -0.0885  0.3707 -0.3815
 1005MOL0     C32580   2.550   9.931  10.342  0.5843  0.9222 -0.3554
 1005MOL0     C32581   2.599   9.890  10.217  0.2913  0.2747  0.1043
 1005MOL0     C32582   2.718   9.746   9.855  0.0986 -0.6393  0.2564
 1005MOL0     C32583   2.854   9.758   9.875 -0.7512 -0.4812  0.2693
 1005MOL0     C32584   2.935   9.675   9.799  0.0502 -0.9635  0.1537
 1005MOL0     C32585   2.897   9.582   9.701 -0.2152 -1.2538 -0.2999
 1005MOL0     O32586   2.995   9.506   9.646 -0.4065 -0.4665  0.2441
 1005MOL0     C32587   2.965   9.417   9.531 -0.1287 -0.3281 -0.2760
 1005MOL0     C32588   2.964   9.505   9.407 -0.8311 -0.1110 -1.2250
 1005MOL0     C32589   2.924   9.407   9.281 -0.4189  0.1469 -0.0778
 1005MOL0     C32590   2.790   9.347   9.281  0.3810  0.3079  0.0179
 1005MOL0     C32591   2.783   9.203   9.325 -0.2812 -0.3128 -0.3650
 1005MOL0     C32592   2.779   9.085   9.361 -0.1405 -0.6239 -0.0443
 1005MOL0     C32593   2.762   9.572   9.683  1.1424  0.5740  0.1698
 1005MOL0     C32594   2.673   9.655   9.756 -0.8370 -0.4388  0.5547
 1005MOL0     H32595   2.553  10.159  10.035 -0.9273  0.7377  0.0381
 1005MOL0     H32596   2.468  10.238  10.270 -0.2440 -0.6386  1.9967
 1005MOL0     H32597   2.272  10.005  10.453  0.2518  0.0247 -0.1759
 1005MOL0     H32598   2.283  10.166  10.394 -1.0202 -2.0573 -1.2611
 1005MOL0     H32599   2.298  10.065  10.679  0.1685  0.1381  0.6133
 1005MOL0     H32600   2.147  10.139  10.614 -0.6856 -2.2762 -0.2007
 1005MOL0     H32601   2.411  10.264  10.689  0.0814  1.5684 -1.6913
 1005MOL0     H32602   2.245  10.292  10.759  1.8544  1.5455  1.1765
 1005MOL0     H32603   2.354  10.354  10.476 -3.3910  1.1787 -1.5124
 1005MOL0     H32604   2.195  10.413  10.534 -1.3756  1.0076  2.9733
 1005MOL0     H32605   2.324  10.593  10.546  0.0856  0.7284  0.5962
 1005MOL0     H32606   2.463  10.519  10.617 -0.4448  5.8609 -0.5397
 1005MOL0     H32607   2.327  10.668  10.756 -2.0847  0.3610 -1.0385
 1005MOL0     H32608   2.353  10.506  10.839  1.7046  1.5072 -0.7696
 1005MOL0     H32609   2.110  10.631  10.695 -1.2563  0.0368  0.1743
 1005MOL0     H32610   2.114  10.455  10.754  1.6469 -0.5331  3.3340
 1005MOL0     H32611   2.189  10.596  10.974  2.0385  1.3764 -2.3190
 1005MOL0     H32612   2.038  10.511  10.933 -3.8212  1.2445  0.0865
 1005MOL0     H32613   1.841  10.663  10.828  0.2027  0.7673 -3.0377
 1005MOL0     H32614   1.748  11.006  10.818  2.3041 -2.9141 -2.1034
 1005MOL0     H32615   1.696  10.981  10.984  0.8035  1.8657 -0.6102
 1005MOL0     H32616   1.632  10.742  10.923  1.1294  1.0765  0.6139
 1005MOL0     H32617   1.673  10.771  10.756  1.2302  5.0493 -1.9855
 1005MOL0     H32618   1.428  10.907  10.894  0.6746 -3.5034  2.4712
 1005MOL0     H32619   1.468  10.935  10.735 -0.0726  1.4812  1.9621
 1005MOL0     H32620   1.298  10.778  10.733  1.7545  3.0713 -1.1780
 1005MOL0     H32621   1.381  10.682  10.871  2.3464  0.4247  1.6700
 1005MOL0     H32622   1.573  10.426  10.595 -0.4678  0.6083 -1.1554
 1005MOL0     H32623   1.478  10.234  10.521  1.1174  1.0165 -1.5648
 1005MOL0     H32624   1.089  10.107  10.215  2.9203 -0.6548 -1.7378
 1005MOL0     H32625   1.009   9.883  10.098  0.5463 -0.4659  0.3123
 1005MOL0     H32626   1.080   9.681   9.984 -0.9918  3.2066  0.4064
 1005MOL0     H32627   0.907   9.666  10.033  0.5875 -0.3966 -0.8887
 1005MOL0     H32628   1.119   9.447  10.017  0.5353  0.1760 -3.6569
 1005MOL0     H32629   0.985   9.475   9.898  1.6149  1.8620 -0.9213
 1005MOL0     H32630   0.815   9.419  10.062 -1.8981 -2.5617  2.5278
 1005MOL0     H32631   0.942   9.390  10.188 -1.5540 -5.1245  0.0845
 1005MOL0     H32632   0.918   9.240   9.924  0.4476 -2.2027  0.4529
 1005MOL0     H32633   1.025   9.214  10.047 -0.1196  3.2883  5.1336
 1005MOL0     H32634   0.877   9.062  10.153  3.1609 -1.6643 -3.5513
 1005MOL0     H32635   0.801   9.063  10.002  0.2743  0.3118 -0.0337
 1005MOL0     H32636   0.631   9.239  10.067 -0.4876  2.0701  2.3763
 1005MOL0     H32637   0.714   9.272  10.216  0.1755  0.1017  0.2844
 1005MOL0     H32638   0.573   9.012  10.149 -0.9125  1.4942  0.1262
 1005MOL0     H32639   0.675   9.022  10.285 -0.3622 -3.1362 -1.7677
 1005MOL0     H32640   0.426   9.193  10.253  1.0622  1.6712  0.2363
 1005MOL0     H32641   0.540   9.182  10.386 -1.5563  1.2059 -0.6789
 1005MOL0     H32642   1.228   9.645  10.371 -2.5537 -0.9938  0.8035
 1005MOL0     H32643   1.324   9.875  10.485  1.1806 -0.6070 -0.3519
 1005MOL0     H32644   1.071  10.408  10.568 -0.1783  0.7754 -1.7607
 1005MOL0     H32645   1.191  10.613  10.667  2.8010  0.0129  1.8281
 1005MOL0     H32646   2.550   9.858  10.422 -0.4082  3.0789  1.7220
 1005MOL0     H32647   2.631   9.786  10.216 -6.7083 -2.4553 -2.1539
 1005MOL0     H32648   2.914   9.827   9.934 -0.5479  0.5011 -1.0385
 1005MOL0     H32649   3.042   9.672   9.819 -0.2927 -2.4682  2.0415
 1005MOL0     H32650   2.867   9.378   9.559  0.1301 -0.7840  0.0025
 1005MOL0     H32651   3.042   9.340   9.532  0.0644 -0.1786  1.8906
 1005MOL0     H32652   2.892   9.587   9.412  0.9713  1.4378  1.8592
 1005MOL0     H32653   3.064   9.546   9.392 -0.8963 -0.0193 -1.4161
 1005MOL0     H32654   3.011   9.341   9.274 -1.4913 -1.1680 -1.6863
 1005MOL0     H32655   2.930   9.466   9.189 -1.9719 -0.8904 -0.8815
 1005MOL0     H32656   2.725   9.408   9.343  0.9268 -0.6162  1.5481
 1005MOL0     H32657   2.761   9.350   9.175 -0.9780 -2.2661  0.2315
 1005MOL0     H32658   2.758   8.983   9.387  0.1671 -0.5680  0.4334
 1005MOL0     H32659   2.715   9.499   9.618  1.6337 -1.6016  2.1034
 1005MOL0     H32660   2.565   9.653   9.745 -1.1942  0.5636  3.1436
 1006MOL0     O32661   5.936   2.422  10.571  0.4234  0.1225  0.0629
 1006MOL0     C32662   5.821   2.454  10.548 -0.6794 -0.5395  0.7096
 1006MOL0     O32663   5.772   2.580  10.583 -0.4516  0.6777  0.5842
 1006MOL0     C32664   5.866   2.681  10.596  0.3772  0.7290 -0.4035
 1006MOL0     C32665   5.936   2.720  10.479  0.1296  1.1393 -0.7468
 1006MOL0     C32666   6.040   2.814  10.494  0.3685  0.3011  0.1559
 1006MOL0     C32667   6.069   2.862  10.626 -0.2510  0.1444 -0.5207
 1006MOL0     O32668   6.186   2.934  10.637  0.7179 -0.0253 -0.6860
 1006MOL0     C32669   6.202   3.015  10.747 -0.2490  0.9856  0.2151
 1006MOL0     C32670   6.287   3.136  10.697  0.2057 -0.3074 -0.3366
 1006MOL0     C32671   6.292   3.258  10.798  0.9350  0.2544 -0.7906
 1006MOL0     C32672   6.367   3.381  10.753 -0.3428 -0.0879  0.1496
 1006MOL0     C32673   6.517   3.382  10.732  0.1946  0.2100 -0.3377
 1006MOL0     C32674   6.608   3.363  10.852 -0.7970 -0.3680 -0.6883
 1006MOL0     C32675   6.764   3.404  10.827  1.0954  0.2407  0.2333
 1006MOL0     C32676   6.850   3.327  10.933 -0.0674 -0.3588  0.2800
 1006MOL0     N32677   6.837   3.376  11.069 -0.0772 -0.0709  0.9466
 1006MOL0     C32678   6.911   3.472  11.137 -0.7862  0.1871 -0.1368
 1006MOL0     C32679   6.860   3.471  11.260  0.1590 -0.2190  0.4639
 1006MOL0     C32680   6.914   3.583  11.350 -0.6200 -0.1994  0.7289
 1006MOL0     C32681   6.990   3.526  11.462 -0.4472  0.9274  0.0978
 1006MOL0     C32682   6.990   3.622  11.583 -0.9275 -0.3656  0.1345
 1006MOL0     C32683   7.073   3.754  11.555  0.6206  0.4730 -0.1769
 1006MOL0     O32684   7.038   3.850  11.654  0.0348  0.2533 -0.2025
 1006MOL0     C32685   6.957   3.952  11.614 -0.3957  0.5445  0.0741
 1006MOL0     C32686   7.003   4.085  11.633 -0.0100 -0.3704  0.1539
 1006MOL0     C32687   6.928   4.189  11.593 -0.2198  0.2229 -0.1101
 1006MOL0     C32688   6.796   4.174  11.549  1.4791  0.3768 -0.4288
 1006MOL0     C32689   6.715   4.291  11.515  1.0214  0.1428  0.2391
 1006MOL0     O32690   6.773   4.400  11.449  0.7006 -0.2737 -0.4438
 1006MOL0     C32691   6.715   4.520  11.427 -0.0710  0.7311 -0.0744
 1006MOL0     C32692   6.754   4.598  11.314 -0.4091  0.0163 -0.6957
 1006MOL0     C32693   6.705   4.726  11.294  0.8567 -0.4274 -0.0597
 1006MOL0     C32694   6.627   4.784  11.395  0.2173  0.0432 -1.6020
 1006MOL0     O32695   6.578   4.908  11.405  0.3585  0.5854  0.5665
 1006MOL0     C32696   6.658   5.020  11.375  0.3616  0.5065  0.6713
 1006MOL0     C32697   6.773   5.039  11.472 -0.0329  0.4881  0.4752
 1006MOL0     C32698   6.892   4.939  11.464 -0.4694  0.1837 -0.4872
 1006MOL0     C32699   6.998   4.960  11.571  0.0349  0.4397  0.6501
 1006MOL0     C32700   6.963   4.909  11.710 -0.4357  0.1090  0.4967
 1006MOL0     C32701   6.903   4.762  11.714  0.0125 -0.8090 -1.1837
 1006MOL0     C32702   6.998   4.657  11.658 -0.4233 -0.2061 -0.0755
 1006MOL0     C32703   7.025   4.541  11.754  0.3498 -0.6788  0.9594
 1006MOL0    Cl32704   6.880   4.452  11.809 -0.2605  0.0089 -0.5982
 1006MOL0     C32705   6.586   4.706  11.506 -0.2070 -0.0865 -0.7737
 1006MOL0     C32706   6.633   4.573  11.521 -0.3064 -0.9299  0.1902
 1006MOL0     O32707   6.594   4.282  11.543  0.2173  0.4111  0.2080
 1006MOL0     C32708   6.753   4.043  11.541  0.2983 -0.0955  0.0959
 1006MOL0     C32709   6.831   3.936  11.567 -0.0754 -0.6591  0.5057
 1006MOL0     N32710   6.756   3.381  11.269 -0.8223 -0.6764  0.5911
 1006MOL0     N32711   6.746   3.322  11.156  0.9272  0.5866 -0.3045
 1006MOL0     C32712   5.992   2.823  10.739 -0.0158  0.1540 -0.2260
 1006MOL0     C32713   5.881   2.732  10.722 -0.5595 -1.1388 -0.1427
 1006MOL0     C32714   5.737   2.343  10.506  0.4763  0.1319  0.1793
 1006MOL0     C32715   5.632   2.378  10.420 -0.2549  0.7617 -0.3744
 1006MOL0     C32716   5.542   2.278  10.375  0.6666 -0.0833 -0.7885
 1006MOL0     C32717   5.562   2.140  10.409 -0.4599 -1.2231  0.2966
 1006MOL0     O32718   5.493   2.041  10.350 -0.1157  0.4023 -0.0333
 1006MOL0     C32719   5.496   2.052  10.208  0.2591  0.2491 -0.0070
 1006MOL0     C32720   5.610   1.960  10.153  1.1371 -0.0605 -0.2336
 1006MOL0     C32721   5.644   1.997  10.005  0.1009  0.0993 -0.3742
 1006MOL0     C32722   5.531   1.959   9.907  0.4682 -0.7194 -1.0698
 1006MOL0     C32723   5.568   1.997   9.768  0.0512 -0.1709 -0.2257
 1006MOL0     C32724   5.592   2.039   9.654  0.6960 -0.0944 -0.4020
 1006MOL0     C32725   5.671   2.114  10.494  0.7978 -1.0354  1.0014
 1006MOL0     C32726   5.754   2.215  10.550  0.5630  0.0289 -0.0683
 1006MOL0     H32727   5.917   2.676  10.382  0.4055 -0.3238 -0.1657
 1006MOL0     H32728   6.107   2.827  10.409  0.6111 -0.0714  0.2895
 1006MOL0     H32729   6.247   2.965  10.833  2.6182 -0.6398 -2.0238
 1006MOL0     H32730   6.104   3.051  10.778  0.5163  0.9224  2.8995
 1006MOL0     H32731   6.245   3.181  10.606  0.0752  1.1920  0.4366
 1006MOL0     H32732   6.389   3.105  10.670  0.2224  1.3932 -2.5412
 1006MOL0     H32733   6.342   3.215  10.885 -2.2401  4.7723  3.8054
 1006MOL0     H32734   6.199   3.287  10.847  1.4636 -2.7929  2.4293
 1006MOL0     H32735   6.319   3.409  10.659 -0.3006  0.4701  0.2932
 1006MOL0     H32736   6.351   3.463  10.823 -0.5316 -0.5208  0.6246
 1006MOL0     H32737   6.537   3.479  10.687 -1.4530  0.0591 -1.4915
 1006MOL0     H32738   6.546   3.318  10.648  3.5159  0.1431  0.6871
 1006MOL0     H32739   6.593   3.256  10.870  0.1547 -0.4582 -0.3634
 1006MOL0     H32740   6.562   3.419  10.934 -0.9986 -1.1064 -0.2892
 1006MOL0     H32741   6.786   3.386  10.722 -0.7143  2.2814 -0.5550
 1006MOL0     H32742   6.780   3.511  10.839  5.8556  0.1925 -3.1039
 1006MOL0     H32743   6.952   3.319  10.896 -0.3451  0.2930 -0.6870
 1006MOL0     H32744   6.812   3.225  10.925 -2.5608  0.4577  0.7742
 1006MOL0     H32745   6.994   3.525  11.092  1.4800 -3.3016 -0.4270
 1006MOL0     H32746   6.837   3.647  11.395 -0.4568 -0.0110  0.7390
 1006MOL0     H32747   6.981   3.656  11.304 -2.5038  1.2304  0.1010
 1006MOL0     H32748   7.090   3.498  11.426 -1.3465  0.3751 -2.1647
 1006MOL0     H32749   6.950   3.434  11.505  3.8735 -1.9379 -1.3420
 1006MOL0     H32750   6.885   3.650  11.597 -0.2743  3.5230 -1.4817
 1006MOL0     H32751   7.033   3.587  11.678 -3.0116 -2.1642  0.5163
 1006MOL0     H32752   7.058   3.791  11.453 -1.2231 -2.8957 -1.2957
 1006MOL0     H32753   7.181   3.735  11.551  0.3972 -0.8516 -0.4118
 1006MOL0     H32754   7.093   4.109  11.689 -1.2387  3.5246  0.7647
 1006MOL0     H32755   6.975   4.287  11.604  3.2996 -1.3400  0.0974
 1006MOL0     H32756   6.816   4.558  11.235 -0.7306 -0.6730 -0.5990
 1006MOL0     H32757   6.711   4.779  11.200 -1.7250 -1.4615 -0.8840
 1006MOL0     H32758   6.588   5.103  11.387  0.5099  1.0911 -1.8777
 1006MOL0     H32759   6.688   5.019  11.269 -1.6726  3.7600 -0.0872
 1006MOL0     H32760   6.728   5.046  11.571  0.9320 -2.9496  1.2931
 1006MOL0     H32761   6.802   5.143  11.457  1.6284 -0.0303 -0.1575
 1006MOL0     H32762   6.935   4.945  11.363 -3.7628  2.6340 -1.9318
 1006MOL0     H32763   6.863   4.835  11.476 -2.9044  0.9662  1.1591
 1006MOL0     H32764   7.087   4.909  11.531 -1.2352 -1.2733 -0.1182
 1006MOL0     H32765   7.044   5.058  11.587  1.9037 -0.3365  0.2923
 1006MOL0     H32766   6.891   4.976  11.756 -0.1479 -0.3590  1.6525
 1006MOL0     H32767   7.058   4.923  11.762 -0.9417  5.7501  0.5191
 1006MOL0     H32768   6.804   4.742  11.673 -0.3421 -3.5813  0.7334
 1006MOL0     H32769   6.894   4.748  11.823  2.3254 -1.1907 -0.9874
 1006MOL0     H32770   6.960   4.619  11.562 -2.0159 -1.5805  1.0289
 1006MOL0     H32771   7.088   4.711  11.629  0.0890 -2.3930 -3.0325
 1006MOL0     H32772   7.075   4.580  11.844 -0.1337  2.4682 -0.0258
 1006MOL0     H32773   7.085   4.465  11.703  0.9243  0.7687 -0.5792
 1006MOL0     H32774   6.514   4.759  11.568  0.9708  3.1652 -1.9745
 1006MOL0     H32775   6.615   4.513  11.609  2.6004  1.1349  2.3925
 1006MOL0     H32776   6.655   4.009  11.508  2.0338 -6.6755  0.2389
 1006MOL0     H32777   6.779   3.843  11.547 -0.5256 -1.0803  3.2870
 1006MOL0     H32778   6.010   2.866  10.837 -0.3298  0.0187 -0.1074
 1006MOL0     H32779   5.827   2.706  10.812 -2.3617  1.0641 -0.4971
 1006MOL0     H32780   5.619   2.482  10.392 -1.0630  0.5049 -0.9837
 1006MOL0     H32781   5.462   2.296  10.305 -0.3381  0.8170  0.5588
 1006MOL0     H32782   5.500   2.153  10.166 -0.9582  0.7305  0.9694
 1006MOL0     H32783   5.408   2.002  10.167  0.8419 -2.0568  1.3591
 1006MOL0     H32784   5.694   1.996  10.213  1.7703  0.2372 -1.2755
 1006MOL0     H32785   5.579   1.855  10.164  0.5352  0.2575  1.4409
 1006MOL0     H32786   5.729   1.936   9.974 -0.3591 -0.9528  0.3771
 1006MOL0     H32787   5.659   2.105  10.005  0.1956  0.0939 -1.0828
 1006MOL0     H32788   5.514   1.852   9.922 -0.0859 -0.6601 -1.2448
 1006MOL0     H32789   5.437   2.011   9.929  0.4443 -1.7178  1.5371
 1006MOL0     H32790   5.617   2.068   9.554  3.5745 -2.0848 -0.3505
 1006MOL0     H32791   5.696   2.014  10.527  1.7355 -0.2121  2.9642
 1006MOL0     H32792   5.835   2.187  10.617 -1.3878 -0.4926  2.1830
 1007MOL0     O32793   5.115   9.821   7.776  0.0764  0.3865 -1.0310
 1007MOL0     C32794   5.002   9.825   7.826  0.2029 -0.5987 -0.4572
 1007MOL0     O32795   4.968   9.802   7.961 -0.9391 -0.3685  0.1326
 1007MOL0     C32796   5.073   9.805   8.054  0.1527 -0.3529 -0.2582
 1007MOL0     C32797   5.190   9.723   8.031 -0.0314  0.2465 -0.3325
 1007MOL0     C32798   5.285   9.731   8.124  0.4685 -0.3059 -0.0331
 1007MOL0     C32799   5.278   9.801   8.248 -0.9180  0.5643  0.3953
 1007MOL0     O32800   5.384   9.784   8.332  0.7368 -0.2958 -0.6710
 1007MOL0     C32801   5.375   9.834   8.467 -0.2261 -0.3432  0.8174
 1007MOL0     C32802   5.300   9.746   8.570 -0.3235 -1.5788  0.1077
 1007MOL0     C32803   5.338   9.798   8.707 -0.3798 -0.0088 -0.4546
 1007MOL0     C32804   5.242   9.751   8.824  0.5326 -0.0392 -0.6033
 1007MOL0     C32805   5.278   9.826   8.955  0.5651  0.2673  1.1583
 1007MOL0     C32806   5.195   9.791   9.072 -0.6068  0.7433 -0.4921
 1007MOL0     C32807   5.177   9.641   9.095  0.4829 -0.4631 -0.7186
 1007MOL0     C32808   5.160   9.610   9.250  0.5101  0.1575  0.1879
 1007MOL0     N32809   5.012   9.600   9.277  0.0316 -0.3404  0.5823
 1007MOL0     C32810   4.902   9.679   9.235 -0.4454 -0.7540 -1.5369
 1007MOL0     C32811   4.790   9.623   9.284  0.6755 -0.0889 -0.3722
 1007MOL0     C32812   4.649   9.683   9.240 -0.7469  0.5779 -1.0402
 1007MOL0     C32813   4.570   9.582   9.153 -0.0726 -0.0323  0.1686
 1007MOL0     C32814   4.428   9.629   9.128 -0.7739 -0.9380 -0.0406
 1007MOL0     C32815   4.339   9.641   9.246 -0.0471 -0.2842 -0.1932
 1007MOL0     O32816   4.210   9.630   9.195  0.4936 -0.2980 -0.0094
 1007MOL0     C32817   4.115   9.615   9.289 -0.3138 -0.0553  0.3366
 1007MOL0     C32818   4.009   9.534   9.262 -0.5695  0.7976  0.7817
 1007MOL0     C32819   3.901   9.515   9.348  0.1889 -0.0509  0.0355
 1007MOL0     C32820   3.896   9.577   9.471  0.0264  0.0951  0.0398
 1007MOL0     C32821   3.784   9.560   9.563  0.7018 -0.1925 -0.8425
 1007MOL0     O32822   3.704   9.454   9.551  0.2884  0.5407 -0.0058
 1007MOL0     C32823   3.603   9.430   9.638  0.1960 -0.6133  0.1663
 1007MOL0     C32824   3.467   9.474   9.604 -0.1188  0.9143  0.7257
 1007MOL0     C32825   3.363   9.457   9.702  0.0096  0.3441 -1.3587
 1007MOL0     C32826   3.387   9.395   9.829  0.1443 -0.2127  1.1495
 1007MOL0     O32827   3.295   9.363   9.924  0.1804  0.0530  0.5643
 1007MOL0     C32828   3.283   9.443  10.032 -0.2639 -0.3837 -0.1757
 1007MOL0     C32829   3.163   9.390  10.108 -0.1513 -0.4788  0.5277
 1007MOL0     C32830   3.111   9.495  10.204  0.1982  0.6985 -0.2804
 1007MOL0     C32831   3.025   9.600  10.131  0.2543 -0.6641 -0.1288
 1007MOL0     C32832   2.950   9.700  10.223  0.0571  0.0398 -0.6112
 1007MOL0     C32833   3.040   9.798  10.300 -0.9025 -0.3415 -1.0113
 1007MOL0     C32834   2.957   9.911  10.344  0.2628 -1.1136  0.2349
 1007MOL0     C32835   3.049  10.028  10.386 -0.4645  0.5177 -0.5012
 1007MOL0    Cl32836   2.945  10.173  10.386  0.3199 -0.4279  0.1187
 1007MOL0     C32837   3.519   9.352   9.858  1.2794 -0.9090  0.0054
 1007MOL0     C32838   3.628   9.369   9.767 -0.0457 -0.6470 -0.2549
 1007MOL0     O32839   3.781   9.645   9.651  0.6425 -0.0019 -0.1449
 1007MOL0     C32840   4.018   9.643   9.518  0.3006 -0.1507 -0.0140
 1007MOL0     C32841   4.117   9.658   9.425  0.2839  0.3485  0.3748
 1007MOL0     N32842   4.827   9.509   9.350  0.7469  0.2751  0.0211
 1007MOL0     N32843   4.956   9.500   9.355 -0.1008  0.3994  0.4969
 1007MOL0     C32844   5.168   9.882   8.269  0.5802  0.4616 -0.2792
 1007MOL0     C32845   5.062   9.878   8.175  0.5194 -0.2549  1.0016
 1007MOL0     C32846   4.888   9.836   7.730  0.3168 -0.2724 -1.2450
 1007MOL0     C32847   4.760   9.804   7.781  0.6682 -0.0147  0.2979
 1007MOL0     C32848   4.650   9.823   7.701 -0.4310 -1.6816 -0.4022
 1007MOL0     C32849   4.663   9.878   7.571 -0.6653  0.4134  0.0259
 1007MOL0     O32850   4.542   9.901   7.509  0.0747 -0.1597  0.4444
 1007MOL0     C32851   4.472   9.779   7.460 -1.2566  0.1434  0.3104
 1007MOL0     C32852   4.338   9.755   7.519  0.5132 -0.6830 -1.0370
 1007MOL0     C32853   4.276   9.630   7.482 -0.3842  0.2660 -0.0188
 1007MOL0     C32854   4.142   9.611   7.557 -0.5018 -0.7269 -0.3577
 1007MOL0     C32855   4.093   9.485   7.493  0.0815 -0.9257  0.4113
 1007MOL0     C32856   4.041   9.385   7.449  0.1811  0.5501  0.4421
 1007MOL0     C32857   4.790   9.886   7.515  0.6499 -0.6069  0.3111
 1007MOL0     C32858   4.902   9.877   7.599 -0.8779  0.3342  0.9216
 1007MOL0     H32859   5.222   9.671   7.941 -1.5346  2.4499 -2.2929
 1007MOL0     H32860   5.365   9.658   8.119  1.3237  0.0892  4.1255
 1007MOL0     H32861   5.340   9.937   8.476  1.3788  0.8445 -3.8091
 1007MOL0     H32862   5.479   9.828   8.501  0.3703  1.8356 -0.4380
 1007MOL0     H32863   5.338   9.643   8.568  2.5523 -0.5768 -1.8515
 1007MOL0     H32864   5.196   9.754   8.537  0.4038 -0.9381 -2.1943
 1007MOL0     H32865   5.357   9.906   8.705  2.8577 -0.4758 -2.1569
 1007MOL0     H32866   5.435   9.760   8.739  1.2878  0.7291 -4.0862
 1007MOL0     H32867   5.141   9.760   8.784  0.8915  3.8196 -1.0969
 1007MOL0     H32868   5.259   9.645   8.846  3.0098  1.0014  3.9032
 1007MOL0     H32869   5.274   9.934   8.942 -1.5671  0.0508 -0.4272
 1007MOL0     H32870   5.381   9.806   8.986  0.4778 -1.0393  0.6766
 1007MOL0     H32871   5.091   9.825   9.074 -1.6407 -2.1356  1.3028
 1007MOL0     H32872   5.239   9.840   9.160  0.4996  0.6782 -0.9879
 1007MOL0     H32873   5.085   9.606   9.047 -0.2009 -2.8351  2.0498
 1007MOL0     H32874   5.267   9.586   9.067  3.0921  2.7432  0.8015
 1007MOL0     H32875   5.195   9.692   9.313  0.9314  2.5451 -2.9000
 1007MOL0     H32876   5.216   9.520   9.276  0.5481 -0.8071 -2.7946
 1007MOL0     H32877   4.895   9.769   9.175 -0.0212 -1.2328 -2.3233
 1007MOL0     H32878   4.664   9.766   9.170  0.8614 -0.8718 -2.4946
 1007MOL0     H32879   4.588   9.718   9.325 -4.5222 -2.0521 -2.3945
 1007MOL0     H32880   4.576   9.481   9.195  0.9352 -0.3017 -0.5722
 1007MOL0     H32881   4.621   9.585   9.056  1.7797  3.4263  1.0552
 1007MOL0     H32882   4.430   9.725   9.077  2.0363 -0.0877  1.4870
 1007MOL0     H32883   4.381   9.565   9.052 -0.2397  0.8372 -1.9497
 1007MOL0     H32884   4.358   9.739   9.291 -0.8726 -0.8504  1.4939
 1007MOL0     H32885   4.368   9.563   9.317 -1.5165 -1.7653 -1.1390
 1007MOL0     H32886   4.011   9.503   9.158 -2.8088  3.1050 -0.0394
 1007MOL0     H32887   3.817   9.450   9.322 -0.0980  1.0066 -1.8139
 1007MOL0     H32888   3.443   9.537   9.519  1.8816  1.0651  0.2024
 1007MOL0     H32889   3.270   9.502   9.670 -0.6488 -0.9858 -1.4000
 1007MOL0     H32890   3.277   9.551  10.016 -0.8471 -0.6026 -1.5750
 1007MOL0     H32891   3.371   9.425  10.093  0.1843 -0.2083 -0.7611
 1007MOL0     H32892   3.188   9.299  10.165 -2.9123 -1.4105  0.3936
 1007MOL0     H32893   3.091   9.345  10.038 -2.5410  0.5756  2.1884
 1007MOL0     H32894   3.203   9.542  10.238  1.1166 -0.1458 -1.5212
 1007MOL0     H32895   3.059   9.450  10.289  2.4644  1.2707  1.5082
 1007MOL0     H32896   3.074   9.663  10.056  2.5803 -2.9984 -0.7092
 1007MOL0     H32897   2.957   9.535  10.076  0.2368 -1.2013  0.5216
 1007MOL0     H32898   2.886   9.641  10.288  0.0734  1.1873  0.4941
 1007MOL0     H32899   2.892   9.756  10.149  2.0587 -0.2579 -2.5020
 1007MOL0     H32900   3.125   9.840  10.245  0.2530  1.7594  2.1342
 1007MOL0     H32901   3.077   9.748  10.390  0.7416  0.9369 -0.9251
 1007MOL0     H32902   2.907   9.948  10.255 -0.7168  0.4878  1.4024
 1007MOL0     H32903   2.879   9.894  10.419  2.0915 -1.3384  2.2132
 1007MOL0     H32904   3.138  10.032  10.322  2.3254 -2.0268  2.8037
 1007MOL0     H32905   3.084  10.017  10.489  0.6507 -0.2268 -0.9407
 1007MOL0     H32906   3.525   9.300   9.953  1.1937  1.4382  1.3549
 1007MOL0     H32907   3.727   9.328   9.787  1.0530  1.3248 -1.4359
 1007MOL0     H32908   4.045   9.691   9.612  0.3795  2.2391 -1.1723
 1007MOL0     H32909   4.198   9.725   9.452 -0.3340  1.9926 -1.6067
 1007MOL0     H32910   5.167   9.942   8.359  0.6083 -1.1154  0.8190
 1007MOL0     H32911   4.972   9.935   8.196  0.6789 -0.6658  3.0236
 1007MOL0     H32912   4.754   9.751   7.876 -1.0012 -0.6232 -0.1170
 1007MOL0     H32913   4.551   9.812   7.743 -0.9760  2.0496 -0.4399
 1007MOL0     H32914   4.523   9.687   7.488 -1.4833  0.3363  1.4068
 1007MOL0     H32915   4.452   9.792   7.353 -1.8895  4.3032  0.7698
 1007MOL0     H32916   4.333   9.776   7.626  2.9582  4.2553 -1.6181
 1007MOL0     H32917   4.275   9.831   7.472  3.4852  2.6954  0.0438
 1007MOL0     H32918   4.340   9.545   7.506  0.4288  1.1165  0.8886
 1007MOL0     H32919   4.261   9.634   7.373 -0.4403  0.9922  0.0068
 1007MOL0     H32920   4.164   9.595   7.663  0.3003  0.0079 -0.3977
 1007MOL0     H32921   4.080   9.699   7.541  1.6775  0.5660 -2.2597
 1007MOL0     H32922   3.981   9.300   7.422  1.1353 -0.7246  2.1508
 1007MOL0     H32923   4.802   9.887   7.407  0.1430  1.7077  0.2384
 1007MOL0     H32924   5.004   9.879   7.561 -0.7425  0.3689  1.2872
 1008MOL0     O32925   7.510   7.064   6.277  0.5558  0.0589  0.5004
 1008MOL0     C32926   7.426   6.988   6.323 -0.3300  0.3605  0.3621
 1008MOL0     O32927   7.335   6.916   6.249 -0.7331  0.4215 -0.6801
 1008MOL0     C32928   7.308   6.971   6.120 -0.6183  0.3362  0.1853
 1008MOL0     C32929   7.203   7.053   6.106 -0.4724 -1.1549  0.3904
 1008MOL0     C32930   7.148   7.096   5.986 -0.3796  0.2138  1.0755
 1008MOL0     C32931   7.216   7.064   5.863  0.1344 -0.7963  0.1382
 1008MOL0     O32932   7.179   7.119   5.740  0.0511  0.1995  0.3453
 1008MOL0     C32933   7.047   7.177   5.738  0.8767 -0.1747  0.5554
 1008MOL0     C32934   7.014   7.256   5.607  0.0314 -0.1663  0.1950
 1008MOL0     C32935   6.889   7.344   5.635 -0.6567 -0.7601 -0.5446
 1008MOL0     C32936   6.760   7.266   5.661  0.3927 -0.8550  0.6633
 1008MOL0     C32937   6.631   7.361   5.650  0.2997 -0.5666  0.1322
 1008MOL0     C32938   6.557   7.348   5.517  0.6795 -0.0091  0.7561
 1008MOL0     C32939   6.412   7.403   5.518 -0.2296  0.6178  0.9108
 1008MOL0     C32940   6.340   7.387   5.380 -0.5403 -0.4427  0.1772
 1008MOL0     N32941   6.219   7.460   5.394  0.1166 -0.4015 -0.0717
 1008MOL0     C32942   6.182   7.548   5.301 -0.8142 -0.6205  0.3656
 1008MOL0     C32943   6.054   7.583   5.325 -0.1972 -0.8067  0.0024
 1008MOL0     C32944   5.955   7.684   5.249  0.6928  0.4031  0.2160
 1008MOL0     C32945   5.918   7.801   5.341 -1.4230  1.0478 -0.2354
 1008MOL0     C32946   5.813   7.894   5.287 -0.5045  0.5907 -0.5039
 1008MOL0     C32947   5.721   7.970   5.383 -0.8411  0.4849  0.3284
 1008MOL0     O32948   5.804   8.031   5.486  0.0439  0.5945 -0.4179
 1008MOL0     C32949   5.731   8.094   5.584  0.0706 -0.0783  0.2544
 1008MOL0     C32950   5.797   8.130   5.699 -0.4976 -0.3379  0.1597
 1008MOL0     C32951   5.745   8.195   5.808 -0.3225 -0.3475 -0.1023
 1008MOL0     C32952   5.610   8.236   5.803  0.4495 -0.4073  0.5072
 1008MOL0     C32953   5.558   8.336   5.889 -0.1534  0.1187 -0.1157
 1008MOL0     O32954   5.422   8.369   5.878 -0.0789 -1.2319  0.0804
 1008MOL0     C32955   5.367   8.462   5.960  1.1082 -0.1681  0.0938
 1008MOL0     C32956   5.411   8.588   6.009 -0.0071 -0.6513  1.1506
 1008MOL0     C32957   5.329   8.688   6.060 -1.1850 -0.5187  0.2682
 1008MOL0     C32958   5.195   8.663   6.080 -0.3914 -1.2996  0.0614
 1008MOL0     O32959   5.115   8.760   6.137 -0.3358  0.7008  0.7909
 1008MOL0     C32960   4.977   8.738   6.143  0.7735  0.2248 -0.0449
 1008MOL0     C32961   4.916   8.873   6.184 -0.4023  0.6535 -0.0317
 1008MOL0     C32962   4.773   8.868   6.229  1.3473 -0.1620  0.6190
 1008MOL0     C32963   4.764   8.818   6.370 -0.2654  0.4643 -0.6804
 1008MOL0     C32964   4.624   8.832   6.433  0.2183 -0.5031  0.4120
 1008MOL0     C32965   4.521   8.748   6.346 -0.2929  0.0959  0.2968
 1008MOL0     C32966   4.383   8.737   6.421  0.2354 -0.2393 -0.7910
 1008MOL0     C32967   4.284   8.644   6.342 -0.4108  0.1602 -0.1046
 1008MOL0    Cl32968   4.327   8.473   6.362  0.2691 -0.6480 -0.1685
 1008MOL0     C32969   5.151   8.538   6.037  0.7665 -0.5288 -0.2139
 1008MOL0     C32970   5.234   8.445   5.972  0.7505 -0.4020 -0.4575
 1008MOL0     O32971   5.630   8.379   5.976  0.2730 -0.4921  0.3108
 1008MOL0     C32972   5.530   8.190   5.692 -0.7958 -0.8331  1.2052
 1008MOL0     C32973   5.597   8.121   5.583  0.7127 -0.1299 -0.2455
 1008MOL0     N32974   6.014   7.504   5.434  0.8121 -0.1171 -0.2656
 1008MOL0     N32975   6.115   7.433   5.475 -0.8712  0.5379  0.6888
 1008MOL0     C32976   7.337   6.982   5.874 -0.5833 -0.3950  0.5063
 1008MOL0     C32977   7.376   6.934   6.001 -0.1250 -0.1943 -0.6473
 1008MOL0     C32978   7.421   6.971   6.474 -0.1402  0.8674 -0.4506
 1008MOL0     C32979   7.498   7.057   6.557 -0.2282 -0.1665  0.2680
 1008MOL0     C32980   7.505   7.038   6.698  0.5656 -0.4551  1.3957
 1008MOL0     C32981   7.432   6.930   6.751 -0.1484 -0.6091 -0.6826
 1008MOL0     O32982   7.440   6.908   6.889  0.2042  0.5931  0.5818
 1008MOL0     C32983   7.338   6.965   6.968 -0.1073 -0.2295  0.3440
 1008MOL0     C32984   7.391   7.056   7.077 -0.5667  0.1068 -0.6106
 1008MOL0     C32985   7.429   6.993   7.212 -0.0805  0.0845 -0.7091
 1008MOL0     C32986   7.498   6.862   7.207 -0.1031  0.4036 -0.3799
 1008MOL0     C32987   7.540   6.821   7.345  0.0317 -0.0835  0.0159
 1008MOL0     C32988   7.567   6.788   7.459  1.5665  0.1135 -0.7623
 1008MOL0     C32989   7.361   6.845   6.666  1.2512 -0.0802 -0.1010
 1008MOL0     C32990   7.352   6.880   6.537  0.2748  0.6806 -0.0220
 1008MOL0     H32991   7.164   7.083   6.202  2.1322 -0.3393  1.2523
 1008MOL0     H32992   7.060   7.158   5.995  0.6030  2.1649 -1.5250
 1008MOL0     H32993   7.049   7.257   5.812 -0.0746  1.1510 -0.7861
 1008MOL0     H32994   6.963   7.116   5.773 -0.6600  1.4522 -0.1132
 1008MOL0     H32995   6.982   7.184   5.531  1.5194 -2.1439  1.3484
 1008MOL0     H32996   7.099   7.313   5.569 -2.3126  3.5705  0.0353
 1008MOL0     H32997   6.875   7.408   5.548 -1.0953 -1.1373 -0.7551
 1008MOL0     H32998   6.897   7.415   5.718  1.3617 -0.4099 -0.9802
 1008MOL0     H32999   6.751   7.196   5.578 -1.6240 -1.3480  1.2507
 1008MOL0     H33000   6.763   7.205   5.751 -1.9072 -0.7923  0.8446
 1008MOL0     H33001   6.644   7.465   5.679 -0.5469 -0.4777  0.2228
 1008MOL0     H33002   6.551   7.317   5.712 -2.0522 -0.1245 -2.3932
 1008MOL0     H33003   6.551   7.242   5.488 -3.2560  0.4293 -0.6222
 1008MOL0     H33004   6.599   7.401   5.430 -1.3760  2.7031  1.2986
 1008MOL0     H33005   6.364   7.360   5.605  2.5605  0.9010  2.7286
 1008MOL0     H33006   6.428   7.511   5.530  2.2799  0.8361 -2.6018
 1008MOL0     H33007   6.315   7.280   5.382 -1.3736 -0.2665  2.1197
 1008MOL0     H33008   6.406   7.422   5.300 -0.0797  0.6175  0.9872
 1008MOL0     H33009   6.244   7.586   5.220 -3.0527  2.9668  0.1240
 1008MOL0     H33010   5.867   7.621   5.233  1.8662 -1.5035  0.9139
 1008MOL0     H33011   5.997   7.717   5.155  2.2865  1.4893  1.2712
 1008MOL0     H33012   6.004   7.863   5.370 -0.5891  0.2884 -1.0147
 1008MOL0     H33013   5.890   7.770   5.442  0.7938  3.5599  1.2922
 1008MOL0     H33014   5.856   7.979   5.232 -1.4465  3.6954  3.1156
 1008MOL0     H33015   5.754   7.830   5.223  0.7464 -0.6976 -0.4165
 1008MOL0     H33016   5.638   7.909   5.419  0.8553 -0.2112  3.3944
 1008MOL0     H33017   5.671   8.039   5.314 -1.8931 -0.0403  0.5470
 1008MOL0     H33018   5.904   8.108   5.696 -0.2663  0.4529  1.6787
 1008MOL0     H33019   5.812   8.214   5.891 -1.5332  0.2319  0.7683
 1008MOL0     H33020   5.508   8.637   6.003 -0.6961  0.6536  0.3041
 1008MOL0     H33021   5.368   8.784   6.093 -0.3986 -1.4355  2.1219
 1008MOL0     H33022   4.960   8.660   6.219  0.5638 -0.8746 -1.1893
 1008MOL0     H33023   4.938   8.705   6.047 -2.2093 -1.3504  1.5715
 1008MOL0     H33024   4.916   8.940   6.098 -2.1961 -0.1767 -0.7310
 1008MOL0     H33025   4.981   8.921   6.257  3.2375  1.7794 -3.6223
 1008MOL0     H33026   4.713   8.802   6.166 -0.0357  1.3498  0.2789
 1008MOL0     H33027   4.729   8.967   6.217  1.3907 -0.1194  0.8166
 1008MOL0     H33028   4.783   8.710   6.364 -0.2917  0.2756  1.7304
 1008MOL0     H33029   4.831   8.862   6.443 -0.5890  0.1498 -0.1834
 1008MOL0     H33030   4.589   8.935   6.430  2.3869  0.2681 -1.0563
 1008MOL0     H33031   4.633   8.807   6.539  0.4534 -0.8820  0.3053
 1008MOL0     H33032   4.567   8.651   6.323  0.4022  0.6957 -0.9052
 1008MOL0     H33033   4.509   8.801   6.251  1.2405  0.1431  0.1084
 1008MOL0     H33034   4.386   8.700   6.523 -0.3915 -0.8778 -0.9936
 1008MOL0     H33035   4.330   8.833   6.420  0.2565 -0.2284 -0.9390
 1008MOL0     H33036   4.282   8.683   6.240 -0.9914  7.3424  2.0569
 1008MOL0     H33037   4.183   8.653   6.382 -0.7499  1.8295 -1.2537
 1008MOL0     H33038   5.048   8.509   6.053  0.6023  1.7594  4.5886
 1008MOL0     H33039   5.172   8.363   5.935 -3.8120  0.8907  3.3052
 1008MOL0     H33040   5.425   8.216   5.679 -0.5158  1.2026  2.5387
 1008MOL0     H33041   5.530   8.098   5.501 -0.0625  1.5336 -0.1271
 1008MOL0     H33042   7.389   6.964   5.780 -0.5681 -1.1305  0.6548
 1008MOL0     H33043   7.466   6.872   6.007  1.6199  1.7972 -3.4367
 1008MOL0     H33044   7.557   7.139   6.518 -0.1683  0.3069  1.3183
 1008MOL0     H33045   7.561   7.096   6.771  3.2415 -0.4526 -0.5157
 1008MOL0     H33046   7.274   6.891   7.019  1.0815 -0.0789  2.1316
 1008MOL0     H33047   7.268   7.012   6.899  1.3683 -0.0580 -1.0943
 1008MOL0     H33048   7.480   7.109   7.041 -0.4571  1.7269  1.8271
 1008MOL0     H33049   7.313   7.127   7.104  0.1756  0.5340  0.4443
 1008MOL0     H33050   7.343   6.965   7.273  0.9350 -1.8168 -0.0521
 1008MOL0     H33051   7.488   7.071   7.261 -1.8145  0.6863  0.5165
 1008MOL0     H33052   7.432   6.781   7.173 -0.2393 -0.2913  1.4477
 1008MOL0     H33053   7.585   6.881   7.144 -0.7418  1.8321 -0.8693
 1008MOL0     H33054   7.592   6.751   7.556  3.5064 -1.6982 -1.8586
 1008MOL0     H33055   7.289   6.773   6.704 -1.2166  2.1291 -0.2971
 1008MOL0     H33056   7.294   6.809   6.479 -1.0750 -2.3796  4.4645
 1009MOL0     O33057   4.393  10.479   6.792 -0.1923  0.3429 -0.7296
 1009MOL0     C33058   4.415  10.565   6.876 -0.3550  0.3509 -0.6519
 1009MOL0     O33059   4.548  10.631   6.903  0.2082  0.9111 -0.2725
 1009MOL0     C33060   4.655  10.576   6.843  1.5596  0.3777  0.4901
 1009MOL0     C33061   4.737  10.670   6.782 -0.6834 -0.0283 -0.4329
 1009MOL0     C33062   4.843  10.629   6.703  0.1110 -0.1816 -0.4706
 1009MOL0     C33063   4.879  10.492   6.684 -0.8990 -0.5271  0.2592
 1009MOL0     O33064   4.998  10.453   6.626 -0.7253  0.1457 -0.3200
 1009MOL0     C33065   5.116  10.520   6.672  0.8682 -0.3406  0.5855
 1009MOL0     C33066   5.248  10.457   6.607  0.6034  0.3961  0.3599
 1009MOL0     C33067   5.386  10.524   6.633  0.7217 -0.2594  0.6369
 1009MOL0     C33068   5.502  10.426   6.641  0.1342 -0.0805  0.7524
 1009MOL0     C33069   5.604  10.434   6.532  0.1554  0.5499  0.2442
 1009MOL0     C33070   5.545  10.409   6.380 -0.3730 -0.0560  0.1928
 1009MOL0     C33071   5.465  10.511   6.291 -0.7484  0.3921 -0.1747
 1009MOL0     C33072   5.552  10.629   6.270  0.2176 -0.0790 -0.2092
 1009MOL0     N33073   5.483  10.702   6.168 -0.3289 -0.2307  0.2336
 1009MOL0     C33074   5.366  10.777   6.183 -0.2923 -0.0084 -0.0662
 1009MOL0     C33075   5.337  10.816   6.061  0.2363 -0.3230  0.3495
 1009MOL0     C33076   5.215  10.896   6.017  0.3635  0.6539  0.1826
 1009MOL0     C33077   5.248  11.040   6.013  0.4325 -0.2338 -0.5057
 1009MOL0     C33078   5.118  11.123   5.985  0.6990 -0.0215 -0.7390
 1009MOL0     C33079   5.046  11.149   6.111  0.7722  0.0092 -0.0700
 1009MOL0     O33080   4.925  11.230   6.094 -0.5172 -0.0448  0.1616
 1009MOL0     C33081   4.804  11.168   6.094  0.1928  0.9552 -0.4981
 1009MOL0     C33082   4.702  11.264   6.119  0.2631  0.2375  1.3480
 1009MOL0     C33083   4.581  11.227   6.144  0.0958  0.2207 -1.2360
 1009MOL0     C33084   4.539  11.087   6.132 -0.3585 -0.2895 -0.3321
 1009MOL0     C33085   4.394  11.037   6.144  0.2238 -0.1896  0.1736
 1009MOL0     O33086   4.318  11.120   6.219  0.3673 -0.0244  0.4073
 1009MOL0     C33087   4.191  11.089   6.238  0.1144  0.6341  0.8002
 1009MOL0     C33088   4.138  11.129   6.357 -0.4562  0.5102  0.0279
 1009MOL0     C33089   4.000  11.118   6.388 -0.1118 -0.5290  0.0253
 1009MOL0     C33090   3.909  11.055   6.301 -0.1492  0.0778  0.3306
 1009MOL0     O33091   3.775  11.027   6.316  0.5892  0.3657  0.4738
 1009MOL0     C33092   3.699  11.107   6.411 -0.5555 -0.4234  0.4896
 1009MOL0     C33093   3.555  11.084   6.358  0.0463  0.6700  0.2087
 1009MOL0     C33094   3.439  11.136   6.452  0.1802 -0.2368  0.0128
 1009MOL0     C33095   3.456  11.076   6.591  0.4940 -0.1601 -0.0297
 1009MOL0     C33096   3.330  11.063   6.691 -1.1399 -1.0765  0.8060
 1009MOL0     C33097   3.378  10.979   6.820 -0.1182  0.1771 -0.3567
 1009MOL0     C33098   3.270  11.007   6.929  0.0729 -0.5398 -0.1490
 1009MOL0     C33099   3.255  10.894   7.037  0.1927  0.6037 -0.4369
 1009MOL0    Cl33100   3.167  10.762   6.976 -0.1268 -0.5488 -0.3176
 1009MOL0     C33101   3.960  11.013   6.176 -0.1585  0.1773 -0.0487
 1009MOL0     C33102   4.102  11.028   6.148  0.3712  0.1970  0.5240
 1009MOL0     O33103   4.365  10.925   6.097 -0.5687 -0.0687 -1.1345
 1009MOL0     C33104   4.640  10.993   6.120 -1.0930 -0.4869 -0.6402
 1009MOL0     C33105   4.779  11.033   6.109 -0.0146  0.1845  0.0711
 1009MOL0     N33106   5.433  10.775   5.972 -0.4557 -0.0434 -0.6989
 1009MOL0     N33107   5.519  10.705   6.039 -0.1767  0.8634  0.0158
 1009MOL0     C33108   4.810  10.399   6.767 -0.0197  0.3235  0.3167
 1009MOL0     C33109   4.699  10.441   6.837  0.5406 -0.3584  0.4045
 1009MOL0     C33110   4.303  10.599   6.963 -0.3434 -0.0808  0.7689
 1009MOL0     C33111   4.175  10.532   6.976 -0.0625 -0.8193 -0.2161
 1009MOL0     C33112   4.070  10.567   7.071  0.8264  0.3911 -0.0367
 1009MOL0     C33113   4.103  10.667   7.153 -0.4058  0.1736  0.3310
 1009MOL0     O33114   4.024  10.696   7.268  0.2567  0.1222  0.6798
 1009MOL0     C33115   3.883  10.701   7.237  0.0045  0.2049  0.0658
 1009MOL0     C33116   3.811  10.828   7.305 -0.8084  0.2901 -0.3838
 1009MOL0     C33117   3.774  10.805   7.449 -0.3601 -0.2854  0.2896
 1009MOL0     C33118   3.643  10.881   7.481  0.0711 -0.7055  0.0666
 1009MOL0     C33119   3.606  10.839   7.615  0.7455 -0.1281  0.2164
 1009MOL0     C33120   3.582  10.822   7.737  0.0214 -0.3058  0.3631
 1009MOL0     C33121   4.218  10.742   7.150 -0.7033  0.6143 -0.1729
 1009MOL0     C33122   4.320  10.711   7.051 -0.5498 -0.6851 -0.4541
 1009MOL0     H33123   4.722  10.776   6.800  0.6202  0.0105  0.6134
 1009MOL0     H33124   4.900  10.710   6.658 -0.2802  0.4892  0.2226
 1009MOL0     H33125   5.121  10.512   6.781 -2.0608  0.4830  0.8515
 1009MOL0     H33126   5.107  10.627   6.654 -0.5446 -0.5772 -0.2971
 1009MOL0     H33127   5.226  10.455   6.500 -1.7007 -1.8292  0.7779
 1009MOL0     H33128   5.252  10.352   6.634 -0.3083 -0.5361 -2.7305
 1009MOL0     H33129   5.380  10.558   6.737 -1.0936 -3.0904  1.5526
 1009MOL0     H33130   5.408  10.596   6.553 -0.7536 -1.4615 -0.9306
 1009MOL0     H33131   5.558  10.448   6.732  0.9515 -1.8753  0.7467
 1009MOL0     H33132   5.453  10.331   6.663  0.3114 -0.7469 -1.4392
 1009MOL0     H33133   5.682  10.364   6.565 -3.7139 -3.0827  2.6597
 1009MOL0     H33134   5.654  10.531   6.536  0.6803  0.2709  0.5505
 1009MOL0     H33135   5.476  10.325   6.388 -2.1904  1.3808  0.1817
 1009MOL0     H33136   5.630  10.379   6.318  0.6601 -3.0036  2.7733
 1009MOL0     H33137   5.442  10.463   6.195 -0.8907 -2.5917  1.2306
 1009MOL0     H33138   5.372  10.540   6.340 -1.0028 -1.6727  0.6591
 1009MOL0     H33139   5.641  10.572   6.243 -2.0481 -4.9821  1.4295
 1009MOL0     H33140   5.571  10.675   6.368  2.4926 -0.8676 -0.2205
 1009MOL0     H33141   5.315  10.799   6.276 -0.3212  1.6232 -0.4395
 1009MOL0     H33142   5.130  10.876   6.083 -0.8997  3.8104 -0.3234
 1009MOL0     H33143   5.189  10.869   5.915 -0.7214 -2.0383  1.0886
 1009MOL0     H33144   5.318  11.059   5.931 -0.9753  1.3426 -1.4178
 1009MOL0     H33145   5.285  11.070   6.111  0.5158  0.9376 -0.8676
 1009MOL0     H33146   5.130  11.217   5.931 -2.8133 -0.3632 -2.4056
 1009MOL0     H33147   5.045  11.073   5.921  0.4645 -2.1937  1.0884
 1009MOL0     H33148   5.125  11.202   6.166 -0.3056 -3.0989  5.2193
 1009MOL0     H33149   5.031  11.062   6.176  0.4522  0.0805 -0.0459
 1009MOL0     H33150   4.735  11.367   6.128 -1.1142  1.2859 -3.0748
 1009MOL0     H33151   4.508  11.306   6.153 -1.3232 -0.9145 -2.2609
 1009MOL0     H33152   4.206  11.173   6.429  0.3544 -0.9818  0.2059
 1009MOL0     H33153   3.966  11.158   6.483 -0.1122  1.3909 -0.7492
 1009MOL0     H33154   3.730  11.209   6.391 -0.3689 -0.4360  0.7075
 1009MOL0     H33155   3.708  11.069   6.514 -0.6262 -0.2937  0.5432
 1009MOL0     H33156   3.546  10.975   6.347  4.8162 -0.2603  2.8437
 1009MOL0     H33157   3.560  11.130   6.259 -0.4940  2.4595  0.9767
 1009MOL0     H33158   3.340  11.109   6.415  0.2349 -0.8094  0.2774
 1009MOL0     H33159   3.463  11.243   6.461  2.0762 -0.6623  0.4752
 1009MOL0     H33160   3.488  10.972   6.585 -1.7232 -0.9584  0.8101
 1009MOL0     H33161   3.533  11.138   6.637 -1.0555  4.1783 -2.7240
 1009MOL0     H33162   3.248  11.012   6.639 -1.9495  1.8350 -1.0570
 1009MOL0     H33163   3.297  11.164   6.719  1.6282 -0.9102  4.0640
 1009MOL0     H33164   3.471  11.010   6.869 -0.2981  0.7968 -0.4055
 1009MOL0     H33165   3.390  10.875   6.787 -0.3058  0.8823 -2.8617
 1009MOL0     H33166   3.296  11.092   6.993 -1.5015 -0.5591  0.5531
 1009MOL0     H33167   3.171  11.027   6.888 -0.5964  2.5569  2.5718
 1009MOL0     H33168   3.198  10.929   7.123 -1.1587 -0.0720 -1.0180
 1009MOL0     H33169   3.355  10.861   7.066  1.0243  2.1969 -1.3527
 1009MOL0     H33170   3.898  10.973   6.096 -1.4409  1.0837  0.4639
 1009MOL0     H33171   4.140  10.989   6.055  2.8588  4.3005 -0.4561
 1009MOL0     H33172   4.613  10.888   6.117 -2.5929 -0.1433  0.0381
 1009MOL0     H33173   4.858  10.958   6.108 -0.7939 -0.9043  3.5769
 1009MOL0     H33174   4.827  10.291   6.764 -0.0394  0.3499 -1.0548
 1009MOL0     H33175   4.640  10.359   6.874  0.3594  0.3604  1.7515
 1009MOL0     H33176   4.146  10.457   6.904  0.9408 -0.6899 -0.7700
 1009MOL0     H33177   3.989  10.497   7.088  1.4653 -0.5629 -0.8415
 1009MOL0     H33178   3.831  10.610   7.269  0.9390 -0.0789  0.8138
 1009MOL0     H33179   3.863  10.704   7.129 -0.8589  2.3127  0.2553
 1009MOL0     H33180   3.870  10.920   7.300 -3.0380  1.9648  1.4796
 1009MOL0     H33181   3.722  10.856   7.248 -3.7282 -2.3661  2.4246
 1009MOL0     H33182   3.849  10.841   7.521  0.1374  2.4500 -1.4439
 1009MOL0     H33183   3.752  10.703   7.482  3.4581 -1.0534  1.0073
 1009MOL0     H33184   3.652  10.989   7.487 -2.1715 -0.5455  2.0355
 1009MOL0     H33185   3.574  10.848   7.402  2.6041  2.1702 -3.7041
 1009MOL0     H33186   3.559  10.821   7.842 -0.0482 -1.9394  0.3565
 1009MOL0     H33187   4.237  10.825   7.218  2.7006 -0.3124  0.2245
 1009MOL0     H33188   4.414  10.761   7.070  0.3292 -2.0536 -1.0566
 1010MOL0     O33189   2.590   5.411   3.263 -0.0485 -0.4217 -0.9404
 1010MOL0     C33190   2.700   5.393   3.324  0.3275  0.0665  0.3361
 1010MOL0     O33191   2.757   5.479   3.409  0.4872 -0.6844  0.4164
 1010MOL0     C33192   2.706   5.604   3.450 -0.1411 -0.7653  0.5123
 1010MOL0     C33193   2.616   5.698   3.385 -0.3202  0.8867  0.2470
 1010MOL0     C33194   2.565   5.807   3.442 -0.2904  0.2763 -0.4092
 1010MOL0     C33195   2.619   5.850   3.572 -0.3151  0.2299 -0.3821
 1010MOL0     O33196   2.585   5.959   3.650 -0.3450  0.2806  0.4127
 1010MOL0     C33197   2.466   6.041   3.616  0.4506  0.1508 -0.0129
 1010MOL0     C33198   2.461   6.156   3.722  0.3470  0.2680  0.2236
 1010MOL0     C33199   2.357   6.251   3.677 -0.4733  0.5068  0.7422
 1010MOL0     C33200   2.343   6.364   3.773 -1.5698  1.1297 -1.1123
 1010MOL0     C33201   2.213   6.445   3.751  0.6220 -0.8119 -0.1742
 1010MOL0     C33202   2.205   6.504   3.608  0.6631 -0.0920 -0.1286
 1010MOL0     C33203   2.112   6.625   3.602  0.2505  0.4362  0.7251
 1010MOL0     C33204   2.159   6.713   3.482  0.1045  0.7895 -0.6145
 1010MOL0     N33205   2.136   6.671   3.340 -0.1377  0.7791  0.2597
 1010MOL0     C33206   2.014   6.651   3.292 -1.0673 -0.5332  0.5590
 1010MOL0     C33207   2.036   6.574   3.179  1.3115 -0.4783 -0.7811
 1010MOL0     C33208   1.929   6.534   3.073  0.3525 -0.4599  0.2180
 1010MOL0     C33209   1.981   6.525   2.926  0.2471  0.0307 -0.2825
 1010MOL0     C33210   2.066   6.646   2.883 -0.1206 -0.1074 -0.8407
 1010MOL0     C33211   2.093   6.653   2.738 -1.4064  2.0841 -0.1847
 1010MOL0     O33212   1.977   6.709   2.674 -0.5285  0.0180  0.0053
 1010MOL0     C33213   1.962   6.677   2.542 -0.0190 -0.0550 -0.5853
 1010MOL0     C33214   1.841   6.636   2.494  0.9110 -0.1453 -0.8279
 1010MOL0     C33215   1.820   6.601   2.361  0.3377  0.0831  0.4405
 1010MOL0     C33216   1.924   6.599   2.269  0.4745  0.9871 -0.4521
 1010MOL0     C33217   1.908   6.547   2.136 -0.3742 -0.0227  0.9328
 1010MOL0     O33218   2.026   6.506   2.073  0.5185 -0.3554 -0.1242
 1010MOL0     C33219   2.039   6.439   1.954  0.1889 -0.4711 -0.1031
 1010MOL0     C33220   2.143   6.343   1.937  0.9727 -0.1761 -0.1673
 1010MOL0     C33221   2.161   6.291   1.810 -0.2757  0.5041  0.4573
 1010MOL0     C33222   2.097   6.341   1.701 -0.6133  0.2824  0.0538
 1010MOL0     O33223   2.135   6.283   1.575 -0.4186 -0.0645  0.0792
 1010MOL0     C33224   2.086   6.356   1.460 -0.1289 -0.6542  0.3710
 1010MOL0     C33225   1.946   6.333   1.411 -0.1707  0.3269 -0.0872
 1010MOL0     C33226   1.914   6.192   1.342 -0.8424  0.2834 -0.2012
 1010MOL0     C33227   1.967   6.172   1.201 -0.7944 -0.1583 -0.5333
 1010MOL0     C33228   1.923   6.047   1.124 -0.3656  0.1887  0.0473
 1010MOL0     C33229   1.932   5.911   1.195 -0.1127  0.8092 -1.2018
 1010MOL0     C33230   1.862   5.800   1.114  0.3092 -0.5857  0.1500
 1010MOL0     C33231   1.957   5.745   1.009  0.0407 -0.3738  0.2280
 1010MOL0    Cl33232   1.854   5.612   0.920 -0.4765  0.4443 -0.1336
 1010MOL0     C33233   2.006   6.445   1.718  0.5268 -0.1638  0.5878
 1010MOL0     C33234   1.964   6.481   1.853  0.3266 -0.2396 -0.5462
 1010MOL0     O33235   1.792   6.529   2.096 -0.0359  0.3503  0.5849
 1010MOL0     C33236   2.054   6.632   2.316  0.1207  0.8057 -0.1275
 1010MOL0     C33237   2.069   6.682   2.448  0.0224  1.0123 -1.2354
 1010MOL0     N33238   2.175   6.558   3.159  0.3549  0.0886  0.3735
 1010MOL0     N33239   2.224   6.609   3.261  0.0850 -0.2520  0.6152
 1010MOL0     C33240   2.706   5.766   3.639  0.3679  0.7956 -0.3332
 1010MOL0     C33241   2.757   5.644   3.575  0.2164 -0.2757  0.5980
 1010MOL0     C33242   2.757   5.259   3.301  0.5828  0.2638  0.0815
 1010MOL0     C33243   2.885   5.231   3.345 -0.1834 -0.8359  0.1361
 1010MOL0     C33244   2.935   5.107   3.336 -0.4376 -0.1939  0.4218
 1010MOL0     C33245   2.857   4.996   3.289  0.5084  0.4162  1.0370
 1010MOL0     O33246   2.916   4.877   3.260 -0.3675  0.2234  0.5403
 1010MOL0     C33247   2.995   4.878   3.139  0.2971  0.3807  0.3929
 1010MOL0     C33248   2.942   4.782   3.031  1.2077 -0.1038 -0.3779
 1010MOL0     C33249   3.027   4.785   2.900 -0.4808 -0.0103 -0.0454
 1010MOL0     C33250   2.963   4.718   2.773 -0.4441  0.1307  1.0992
 1010MOL0     C33251   2.918   4.579   2.803 -0.3457  0.8260 -0.5540
 1010MOL0     C33252   2.884   4.459   2.823 -0.5350 -0.9827 -0.2057
 1010MOL0     C33253   2.722   5.021   3.245  0.9187 -0.4120 -0.3576
 1010MOL0     C33254   2.670   5.154   3.263 -0.1510  0.5000 -0.3705
 1010MOL0     H33255   2.588   5.674   3.283  0.8786  2.8410 -0.6201
 1010MOL0     H33256   2.486   5.853   3.384 -0.2184  0.8499 -0.0605
 1010MOL0     H33257   2.377   5.979   3.607  0.7953  0.0020 -4.7469
 1010MOL0     H33258   2.484   6.078   3.515 -1.4485  0.9176 -0.1136
 1010MOL0     H33259   2.556   6.210   3.729 -0.1191  1.2578 -0.7882
 1010MOL0     H33260   2.428   6.102   3.811 -2.3273 -1.1547 -1.4836
 1010MOL0     H33261   2.258   6.210   3.656 -0.6123  2.2195 -2.6142
 1010MOL0     H33262   2.383   6.273   3.573  0.9356 -2.6784  0.3338
 1010MOL0     H33263   2.326   6.313   3.869 -0.7139  2.1621 -0.3913
 1010MOL0     H33264   2.438   6.417   3.759 -0.2667 -1.2914 -2.1389
 1010MOL0     H33265   2.206   6.526   3.825 -0.9914 -2.3857  1.5016
 1010MOL0     H33266   2.125   6.379   3.756 -1.0402  1.2455 -0.5949
 1010MOL0     H33267   2.157   6.426   3.548 -0.8396  0.0877  0.7903
 1010MOL0     H33268   2.306   6.533   3.576 -0.2580  0.9434 -2.2745
 1010MOL0     H33269   2.006   6.597   3.600 -0.2398  2.1645  0.9055
 1010MOL0     H33270   2.121   6.672   3.701 -1.3545 -0.0951  1.1568
 1010MOL0     H33271   2.263   6.747   3.488  0.2424  0.3580 -0.5360
 1010MOL0     H33272   2.111   6.811   3.492  2.0950  1.7976 -0.3318
 1010MOL0     H33273   1.928   6.684   3.349  0.3170  2.8680  0.9212
 1010MOL0     H33274   1.839   6.596   3.082  0.6863  0.0513  0.1196
 1010MOL0     H33275   1.907   6.433   3.107 -0.6041  0.4360  2.4021
 1010MOL0     H33276   1.900   6.510   2.855  0.8834 -0.7236 -0.8690
 1010MOL0     H33277   2.041   6.435   2.911 -0.1524  0.1714 -3.5392
 1010MOL0     H33278   2.032   6.743   2.921 -0.3936 -0.4322 -0.2508
 1010MOL0     H33279   2.169   6.635   2.917  0.6084  0.8772 -2.6205
 1010MOL0     H33280   2.110   6.552   2.699  0.4380  2.2946 -0.0349
 1010MOL0     H33281   2.181   6.715   2.719 -1.2383  1.2974 -2.1749
 1010MOL0     H33282   1.755   6.650   2.558  0.0501 -0.6746 -1.8449
 1010MOL0     H33283   1.725   6.571   2.318 -0.2308  1.8339  0.3917
 1010MOL0     H33284   2.192   6.313   2.029  1.3251  1.5282  0.2434
 1010MOL0     H33285   2.237   6.214   1.802 -1.1146 -0.3335  0.4036
 1010MOL0     H33286   2.154   6.340   1.376 -0.6301 -0.3877 -0.0959
 1010MOL0     H33287   2.095   6.462   1.483  0.4096 -0.7024  0.3926
 1010MOL0     H33288   1.929   6.409   1.334 -0.9704  1.2251  0.9484
 1010MOL0     H33289   1.872   6.352   1.488  0.2362  0.9665  0.1595
 1010MOL0     H33290   1.805   6.197   1.332 -1.1832 -1.5123  1.9277
 1010MOL0     H33291   1.939   6.112   1.411 -0.0950 -0.6761 -1.5412
 1010MOL0     H33292   1.933   6.255   1.137 -2.1845 -2.1503 -2.5195
 1010MOL0     H33293   2.076   6.178   1.206 -0.7783  0.7016 -1.4569
 1010MOL0     H33294   1.977   6.052   1.029  0.2700  2.2791  0.4670
 1010MOL0     H33295   1.820   6.050   1.089 -0.9032 -1.1537  1.4111
 1010MOL0     H33296   1.893   5.914   1.297  4.7021 -2.6054  1.1636
 1010MOL0     H33297   2.039   5.895   1.209 -0.0017  0.2655 -2.4788
 1010MOL0     H33298   1.838   5.718   1.183  1.6046  1.4688  3.2752
 1010MOL0     H33299   1.770   5.834   1.067  1.0839 -1.1513 -1.8768
 1010MOL0     H33300   2.043   5.693   1.050  0.0488 -0.4299  0.1393
 1010MOL0     H33301   2.001   5.823   0.946  0.4960 -1.5304 -0.9266
 1010MOL0     H33302   1.948   6.485   1.635  0.2443 -1.1497  0.3049
 1010MOL0     H33303   1.890   6.559   1.867  2.0326  1.1570  1.1715
 1010MOL0     H33304   2.147   6.617   2.261  0.3459  2.6724 -0.3151
 1010MOL0     H33305   2.169   6.716   2.473  0.8579 -1.9869 -0.1269
 1010MOL0     H33306   2.745   5.799   3.735 -0.5309  3.8884 -0.9222
 1010MOL0     H33307   2.832   5.588   3.630 -0.3257 -1.1825  0.4246
 1010MOL0     H33308   2.948   5.306   3.391 -1.4467 -0.7382  1.7813
 1010MOL0     H33309   3.043   5.100   3.345 -0.6064 -0.3884  3.0657
 1010MOL0     H33310   3.099   4.851   3.163 -0.2243 -0.9328  1.2810
 1010MOL0     H33311   2.999   4.967   3.076 -0.1590 -0.2256 -0.5256
 1010MOL0     H33312   2.943   4.683   3.077  1.1116  1.2793  2.8870
 1010MOL0     H33313   2.839   4.811   3.007  0.7251  2.6276  3.8739
 1010MOL0     H33314   3.127   4.745   2.919 -0.0038  0.8056 -0.7863
 1010MOL0     H33315   3.053   4.889   2.882  0.6435 -0.3456 -0.4318
 1010MOL0     H33316   2.877   4.775   2.737 -0.7489 -0.2898  1.1587
 1010MOL0     H33317   3.033   4.729   2.689 -3.7972  0.1357 -1.9394
 1010MOL0     H33318   2.833   4.364   2.817 -2.6469 -0.0412  1.3882
 1010MOL0     H33319   2.664   4.933   3.221  0.4674 -0.6816  1.5100
 1010MOL0     H33320   2.567   5.185   3.245 -0.9656 -1.5873  0.4492
 1011MOL0     O33321   8.619  11.203   6.615 -0.0642 -0.2878 -0.7013
 1011MOL0     C33322   8.530  11.285   6.653  0.7306 -0.1316 -0.5441
 1011MOL0     O33323   8.396  11.269   6.642 -0.3687  0.4430  0.2566
 1011MOL0     C33324   8.350  11.159   6.570 -1.1802  0.3533  0.0468
 1011MOL0     C33325   8.252  11.089   6.642  0.7080  0.3496  0.1894
 1011MOL0     C33326   8.205  10.973   6.600 -0.0504 -0.0481  0.3822
 1011MOL0     C33327   8.245  10.919   6.482  0.4157 -0.5496 -0.0478
 1011MOL0     O33328   8.218  10.798   6.426 -0.0067 -0.2698  0.2787
 1011MOL0     C33329   8.123  10.714   6.486  0.1732  0.0544 -0.7830
 1011MOL0     C33330   8.122  10.579   6.425 -0.0519  0.9305  0.2222
 1011MOL0     C33331   7.984  10.507   6.446 -1.7411  0.3447  0.0801
 1011MOL0     C33332   7.970  10.376   6.366  0.0284  0.4651 -0.5606
 1011MOL0     C33333   7.922  10.405   6.225 -0.0407 -0.5098 -0.3737
 1011MOL0     C33334   7.935  10.283   6.135 -0.5163  0.1452  0.0185
 1011MOL0     C33335   7.912  10.311   5.984 -0.0603 -0.8546  0.0812
 1011MOL0     C33336   8.023  10.401   5.906  0.7783 -0.2130  0.1316
 1011MOL0     N33337   7.987  10.423   5.767  0.1077 -0.1682 -0.0604
 1011MOL0     C33338   7.862  10.424   5.716  0.6772 -0.0329 -0.0284
 1011MOL0     C33339   7.884  10.452   5.589  0.3928 -0.3311  0.1294
 1011MOL0     C33340   7.774  10.476   5.497  0.2023  0.4460 -0.8082
 1011MOL0     C33341   7.715  10.350   5.434  0.0935 -0.1760 -0.3206
 1011MOL0     C33342   7.600  10.378   5.340  1.2438 -0.1813  0.9224
 1011MOL0     C33343   7.559  10.249   5.268  1.4765  0.8511  1.4670
 1011MOL0     O33344   7.485  10.161   5.349  0.0758  0.6144 -0.3571
 1011MOL0     C33345   7.395  10.062   5.297  0.5746 -0.9839  0.6582
 1011MOL0     C33346   7.425   9.983   5.176 -0.1960  0.1973 -0.3991
 1011MOL0     C33347   7.350   9.877   5.135  0.7299 -0.5194 -0.2832
 1011MOL0     C33348   7.230   9.853   5.203  0.8066  0.4331 -0.5299
 1011MOL0     C33349   7.129   9.754   5.163  0.8566 -0.3341  0.7598
 1011MOL0     O33350   7.018   9.721   5.235  0.5808  0.6557  0.3569
 1011MOL0     C33351   6.919   9.640   5.189 -0.3574  0.9150  0.1354
 1011MOL0     C33352   6.911   9.550   5.076  0.7166 -0.0545 -0.6595
 1011MOL0     C33353   6.792   9.483   5.043 -0.1557 -0.2884  0.1143
 1011MOL0     C33354   6.681   9.506   5.124  0.0654  0.0188  0.8193
 1011MOL0     O33355   6.572   9.453   5.077 -0.1363  0.2033 -0.0177
 1011MOL0     C33356   6.464   9.415   5.168 -0.1054 -0.1409  0.3076
 1011MOL0     C33357   6.498   9.288   5.241  0.2755  0.9028 -0.3308
 1011MOL0     C33358   6.382   9.228   5.338 -0.2877 -0.5041  0.1793
 1011MOL0     C33359   6.433   9.161   5.465  0.3364  0.2860 -0.0904
 1011MOL0     C33360   6.323   9.053   5.504 -0.5815  0.5564 -0.4241
 1011MOL0     C33361   6.367   8.980   5.635 -0.1826 -0.0463  0.0032
 1011MOL0     C33362   6.247   8.962   5.731 -0.0715  0.3256 -0.7556
 1011MOL0     C33363   6.223   9.083   5.832 -0.1460  0.5727 -0.3968
 1011MOL0    Cl33364   6.271   9.245   5.766  0.4200  0.3679  0.0743
 1011MOL0     C33365   6.682   9.588   5.238  0.2591  0.7713  0.6010
 1011MOL0     C33366   6.798   9.646   5.266  0.1787 -1.0638 -0.8969
 1011MOL0     O33367   7.148   9.717   5.044  0.2355 -0.4503 -0.9732
 1011MOL0     C33368   7.188   9.927   5.320  0.1814 -0.7711  0.4558
 1011MOL0     C33369   7.276  10.026   5.371 -0.0384 -0.5196 -0.7378
 1011MOL0     N33370   8.020  10.442   5.559  0.8638 -0.1736 -0.3296
 1011MOL0     N33371   8.086  10.432   5.674 -0.5618  0.0590  0.2540
 1011MOL0     C33372   8.345  10.980   6.406 -0.4495 -0.8542 -0.2289
 1011MOL0     C33373   8.388  11.106   6.443 -0.8592 -0.1646 -0.4968
 1011MOL0     C33374   8.585  11.420   6.701  0.0074  0.5608  1.0779
 1011MOL0     C33375   8.719  11.458   6.701 -0.1148  0.2140  0.4877
 1011MOL0     C33376   8.761  11.574   6.758 -1.2957  0.1815  0.4392
 1011MOL0     C33377   8.673  11.659   6.822 -0.4138  0.7535 -0.5749
 1011MOL0     O33378   8.714  11.771   6.893 -0.2417  0.0587 -0.3340
 1011MOL0     C33379   8.681  11.889   6.826 -1.0350 -0.1339  0.2205
 1011MOL0     C33380   8.778  11.998   6.866 -0.7648  0.7620  0.0410
 1011MOL0     C33381   8.713  12.125   6.836  0.6309  0.1046 -0.7751
 1011MOL0     C33382   8.796  12.252   6.868 -0.7938 -0.2260 -0.2872
 1011MOL0     C33383   8.800  12.258   7.014 -0.0123 -0.4456 -0.0092
 1011MOL0     C33384   8.803  12.269   7.138  0.9980 -0.7697  0.3059
 1011MOL0     C33385   8.542  11.616   6.847 -0.1627 -1.0494 -0.0917
 1011MOL0     C33386   8.506  11.503   6.783 -0.2327 -0.3454  1.1037
 1011MOL0     H33387   8.225  11.122   6.742  0.8114 -0.0399  0.3472
 1011MOL0     H33388   8.127  10.924   6.658  0.2469 -1.8227 -0.6217
 1011MOL0     H33389   8.026  10.764   6.478 -0.3128 -0.4271  1.3610
 1011MOL0     H33390   8.144  10.697   6.592  1.3522  1.4756 -0.7716
 1011MOL0     H33391   8.199  10.520   6.476 -3.2202 -3.2116  0.8268
 1011MOL0     H33392   8.138  10.588   6.317 -2.7520  2.2512 -0.1582
 1011MOL0     H33393   7.902  10.572   6.413 -1.0907  0.1880 -2.0426
 1011MOL0     H33394   7.966  10.489   6.552 -1.0926 -2.6645 -0.2325
 1011MOL0     H33395   8.064  10.319   6.373  0.6585  1.5879  0.4236
 1011MOL0     H33396   7.887  10.320   6.410  0.2671 -1.5057 -2.4649
 1011MOL0     H33397   7.973  10.494   6.186 -1.6413 -0.5278 -2.7202
 1011MOL0     H33398   7.816  10.432   6.235  0.0781 -0.3015  0.4424
 1011MOL0     H33399   7.863  10.207   6.164  1.8721 -1.9912  0.6862
 1011MOL0     H33400   8.035  10.238   6.141  0.3243  1.5132 -2.2240
 1011MOL0     H33401   7.917  10.212   5.939  1.3763 -1.2039  0.9335
 1011MOL0     H33402   7.808  10.343   5.976  0.6174  1.7383  0.4627
 1011MOL0     H33403   8.125  10.360   5.912  0.8883  0.0073 -0.2325
 1011MOL0     H33404   8.022  10.499   5.955  2.0352  0.9562 -2.0460
 1011MOL0     H33405   7.763  10.405   5.755  0.7486 -1.3639 -0.4324
 1011MOL0     H33406   7.797  10.530   5.404  0.5982 -2.3989 -2.4946
 1011MOL0     H33407   7.695  10.534   5.546  0.9537 -0.6472  1.8739
 1011MOL0     H33408   7.686  10.273   5.507  2.2116 -2.4964 -1.7840
 1011MOL0     H33409   7.783  10.306   5.361  2.5438  2.4389  0.1936
 1011MOL0     H33410   7.509  10.417   5.385 -0.5440 -3.0776  0.0793
 1011MOL0     H33411   7.648  10.436   5.260  0.0128 -2.6147 -1.7655
 1011MOL0     H33412   7.641  10.190   5.227  0.5857  0.2306  0.5022
 1011MOL0     H33413   7.483  10.273   5.192 -0.7229 -3.2396  2.0965
 1011MOL0     H33414   7.507  10.013   5.112  0.2034  2.2268  0.9896
 1011MOL0     H33415   7.388   9.809   5.060  0.1140 -1.2113  0.0128
 1011MOL0     H33416   7.000   9.543   5.014  2.0444 -1.1794  1.2843
 1011MOL0     H33417   6.779   9.417   4.958  0.3871 -0.3171  0.0501
 1011MOL0     H33418   6.375   9.393   5.107 -0.1734 -1.3232  0.8087
 1011MOL0     H33419   6.434   9.497   5.233 -0.7835  1.8135 -2.3172
 1011MOL0     H33420   6.582   9.307   5.309 -1.1417 -1.0677  2.0813
 1011MOL0     H33421   6.528   9.208   5.173 -0.3980 -0.3563  0.8275
 1011MOL0     H33422   6.323   9.156   5.281  2.7542 -2.2479 -1.0180
 1011MOL0     H33423   6.326   9.318   5.366 -0.5838 -0.3570 -0.8364
 1011MOL0     H33424   6.534   9.121   5.455 -0.4630 -1.3784 -2.1560
 1011MOL0     H33425   6.437   9.222   5.556  0.6358 -1.6398  1.2579
 1011MOL0     H33426   6.315   8.982   5.420  0.6365  3.5259 -3.2501
 1011MOL0     H33427   6.230   9.108   5.517 -1.5041 -1.1830  0.7983
 1011MOL0     H33428   6.440   9.044   5.684 -0.8602  0.5127  0.3095
 1011MOL0     H33429   6.408   8.880   5.616 -0.5974 -0.8503  2.8214
 1011MOL0     H33430   6.154   8.927   5.685  1.1666 -0.0695 -3.1260
 1011MOL0     H33431   6.272   8.886   5.806  0.0711  3.1582  2.3436
 1011MOL0     H33432   6.279   9.054   5.922  0.5151  1.1176 -0.6288
 1011MOL0     H33433   6.120   9.066   5.867  1.3970 -2.9290  3.2321
 1011MOL0     H33434   6.596   9.596   5.305  0.6383 -0.9046  1.3544
 1011MOL0     H33435   6.794   9.712   5.352 -4.1769 -0.4525 -1.3553
 1011MOL0     H33436   7.091   9.916   5.369 -0.4579  0.9213 -0.3468
 1011MOL0     H33437   7.261  10.092   5.456  0.4209  0.3381 -1.3109
 1011MOL0     H33438   8.378  10.923   6.320 -1.1761 -2.7548  0.7036
 1011MOL0     H33439   8.462  11.162   6.386  0.4573 -1.1057  0.2290
 1011MOL0     H33440   8.791  11.393   6.653 -1.8285 -2.2323  1.0275
 1011MOL0     H33441   8.865  11.605   6.746 -1.5455 -0.1453 -3.6990
 1011MOL0     H33442   8.582  11.914   6.865 -1.2870 -1.6992  0.6336
 1011MOL0     H33443   8.680  11.861   6.721 -1.1871  0.8716 -0.0567
 1011MOL0     H33444   8.791  11.982   6.973 -0.2310 -4.0746 -0.5413
 1011MOL0     H33445   8.876  11.989   6.819 -1.7925  0.5584 -2.1952
 1011MOL0     H33446   8.624  12.124   6.900  2.0260 -1.7409  1.3024
 1011MOL0     H33447   8.681  12.132   6.732  1.3971  2.3538 -0.9180
 1011MOL0     H33448   8.897  12.239   6.828 -0.7050 -2.2815  0.4740
 1011MOL0     H33449   8.747  12.343   6.833 -0.6308 -0.6761 -1.8022
 1011MOL0     H33450   8.814  12.284   7.244 -1.2620  1.8258  0.2749
 1011MOL0     H33451   8.466  11.673   6.900  0.0805 -1.3384  0.5785
 1011MOL0     H33452   8.406  11.464   6.800  1.8471 -5.9885  2.5572
 1012MOL0     O33453  11.300   7.552   9.469  0.6862 -0.1501  0.2998
 1012MOL0     C33454  11.369   7.455   9.440  0.2723  0.1730  0.3077
 1012MOL0     O33455  11.514   7.449   9.443  0.5132 -0.3599 -0.7792
 1012MOL0     C33456  11.584   7.551   9.499  0.2151 -0.0626  0.9280
 1012MOL0     C33457  11.559   7.605   9.633 -0.8209  0.5022  0.5991
 1012MOL0     C33458  11.635   7.706   9.697 -0.1957 -0.2123 -0.3552
 1012MOL0     C33459  11.745   7.773   9.624 -0.4458  0.0592  0.6354
 1012MOL0     O33460  11.827   7.879   9.657 -0.0293  0.4615 -0.1732
 1012MOL0     C33461  11.800   7.956   9.770  0.7170  1.3984  1.0671
 1012MOL0     C33462  11.905   8.067   9.778  0.3930  0.2410 -0.4068
 1012MOL0     C33463  11.837   8.183   9.842 -0.5205 -0.6903 -0.2335
 1012MOL0     C33464  11.933   8.309   9.848  0.2370  0.3773  1.3561
 1012MOL0     C33465  11.891   8.405   9.966 -0.5029  0.4638  0.3952
 1012MOL0     C33466  11.884   8.340  10.099  0.1322 -0.5283  0.0326
 1012MOL0     C33467  12.023   8.279  10.148 -0.3488  0.2649  0.7985
 1012MOL0     C33468  12.019   8.228  10.291 -0.2687  0.8419 -0.4773
 1012MOL0     N33469  11.928   8.115  10.305  0.2969  0.0565  0.0303
 1012MOL0     C33470  11.961   7.978  10.294 -1.2298 -0.5814 -0.1488
 1012MOL0     C33471  11.845   7.918  10.308  0.1756 -0.2855  0.3911
 1012MOL0     C33472  11.841   7.767  10.316 -0.2791 -0.6928 -0.4478
 1012MOL0     C33473  11.841   7.704  10.177  0.6343  0.0744 -0.7061
 1012MOL0     C33474  11.953   7.746  10.088  0.2514 -0.8669  0.2195
 1012MOL0     C33475  11.950   7.674   9.951  0.1826  0.0690 -0.0044
 1012MOL0     O33476  12.003   7.543   9.955  0.0953 -0.1471  0.1493
 1012MOL0     C33477  12.042   7.498   9.832  0.1940 -0.1340 -1.0443
 1012MOL0     C33478  12.169   7.425   9.824  0.5677 -0.0350  0.4803
 1012MOL0     C33479  12.215   7.391   9.696 -0.1494  1.0093 -0.2884
 1012MOL0     C33480  12.145   7.427   9.582 -0.7942  0.8427  0.7909
 1012MOL0     C33481  12.200   7.393   9.453  0.8754 -0.5777 -0.0103
 1012MOL0     O33482  12.167   7.476   9.348  0.4996  0.6847  0.0531
 1012MOL0     C33483  12.231   7.440   9.230 -0.1603 -0.1775 -0.0419
 1012MOL0     C33484  12.369   7.422   9.224  0.1368  0.5660  0.8444
 1012MOL0     C33485  12.413   7.370   9.107  0.1984 -0.3907  0.9653
 1012MOL0     C33486  12.343   7.346   8.995  0.5465 -0.4195  1.0367
 1012MOL0     O33487  12.407   7.288   8.895 -0.7077 -0.2543  0.6780
 1012MOL0     C33488  12.505   7.371   8.827 -0.4810 -0.1303  0.3258
 1012MOL0     C33489  12.444   7.487   8.739 -0.6344 -0.3981 -1.1918
 1012MOL0     C33490  12.354   7.451   8.639  0.5047 -0.2955 -0.0094
 1012MOL0     C33491  12.281   7.556   8.552  1.2140  0.4104 -0.2756
 1012MOL0     C33492  12.172   7.490   8.463 -0.0332 -1.3221 -0.6771
 1012MOL0     C33493  12.050   7.430   8.544  0.7898 -0.8434  0.3964
 1012MOL0     C33494  11.913   7.462   8.465 -0.6050  0.0391  0.0814
 1012MOL0     C33495  11.802   7.386   8.520  0.0921 -0.4956 -0.0252
 1012MOL0    Cl33496  11.668   7.446   8.432  0.1451  0.1127  0.3338
 1012MOL0     C33497  12.207   7.374   9.000  0.1552  1.0226 -0.3561
 1012MOL0     C33498  12.157   7.412   9.120  0.1717 -0.0269 -0.8553
 1012MOL0     O33499  12.270   7.288   9.450 -0.1585  0.8926  0.1445
 1012MOL0     C33500  12.034   7.516   9.592  0.1260 -0.8804 -1.0034
 1012MOL0     C33501  11.981   7.548   9.717  0.1651 -0.2797  0.7078
 1012MOL0     N33502  11.753   8.008  10.344 -0.5259  0.2917 -0.6429
 1012MOL0     N33503  11.795   8.127  10.337 -0.2552 -0.1173  0.5131
 1012MOL0     C33504  11.765   7.726   9.493  1.0105 -0.5197  0.1125
 1012MOL0     C33505  11.693   7.611   9.438  1.1143 -0.3178 -0.1232
 1012MOL0     C33506  11.302   7.329   9.401 -0.4682  0.1701 -0.0955
 1012MOL0     C33507  11.163   7.312   9.419  0.4976 -0.3350  0.4554
 1012MOL0     C33508  11.105   7.186   9.376 -0.9524 -0.1060 -0.6174
 1012MOL0     C33509  11.181   7.087   9.313 -0.0063 -0.2996 -0.5912
 1012MOL0     O33510  11.147   6.950   9.305 -0.4040  0.8881 -0.5614
 1012MOL0     C33511  11.013   6.911   9.357 -0.4245 -0.5043 -0.1652
 1012MOL0     C33512  11.015   6.766   9.384 -0.5424  0.5082  0.7209
 1012MOL0     C33513  11.158   6.726   9.448 -0.0693 -0.1923  0.1149
 1012MOL0     C33514  11.164   6.583   9.504 -0.3346  0.1948 -0.5217
 1012MOL0     C33515  11.059   6.551   9.610  0.1498  0.7220 -0.0234
 1012MOL0     C33516  10.979   6.548   9.699  0.1776 -0.3109 -0.5843
 1012MOL0     C33517  11.313   7.114   9.293 -0.5999 -0.6100 -1.1996
 1012MOL0     C33518  11.375   7.229   9.335  0.2420 -0.0371 -1.0518
 1012MOL0     H33519  11.465   7.570   9.675 -1.5057 -1.7984 -2.4880
 1012MOL0     H33520  11.605   7.741   9.796  4.1646  2.6658  0.2439
 1012MOL0     H33521  11.790   7.897   9.861 -3.0727 -2.0236 -1.1994
 1012MOL0     H33522  11.711   8.011   9.736  1.1232  1.8896  0.7839
 1012MOL0     H33523  11.921   8.121   9.684  1.7393  4.3278  1.9380
 1012MOL0     H33524  11.996   8.024   9.820 -0.2967 -1.3982 -0.4939
 1012MOL0     H33525  11.804   8.159   9.943  1.3099 -0.1075  0.5485
 1012MOL0     H33526  11.751   8.215   9.782 -1.6534  2.7996  2.8739
 1012MOL0     H33527  12.038   8.283   9.862 -0.1836 -1.4253  1.4274
 1012MOL0     H33528  11.921   8.356   9.750  5.0627  0.0846  0.3694
 1012MOL0     H33529  11.796   8.452   9.938 -0.0397  1.5039  0.4984
 1012MOL0     H33530  11.971   8.480   9.961  1.1878 -1.2411  1.0393
 1012MOL0     H33531  11.798   8.272  10.108  0.1117 -0.3590  1.2474
 1012MOL0     H33532  11.857   8.417  10.172  1.0393  2.4674 -2.5811
 1012MOL0     H33533  12.062   8.192  10.094 -0.8848 -0.3672  1.4135
 1012MOL0     H33534  12.091   8.364  10.158  0.8734 -0.3905 -1.2857
 1012MOL0     H33535  11.988   8.306  10.361 -1.1885 -1.1637  1.4775
 1012MOL0     H33536  12.117   8.194  10.323  1.0233  2.2217 -2.7170
 1012MOL0     H33537  12.052   7.928  10.262 -2.3370 -1.3805 -2.2206
 1012MOL0     H33538  11.745   7.757  10.367 -0.3291  1.9981  0.1359
 1012MOL0     H33539  11.929   7.732  10.372 -0.3567 -3.5070 -1.9024
 1012MOL0     H33540  11.739   7.725  10.144  0.3287  4.5305  2.2335
 1012MOL0     H33541  11.849   7.597  10.201  1.6211  0.5623  1.3588
 1012MOL0     H33542  11.952   7.854  10.073  2.1451 -1.0987 -2.1062
 1012MOL0     H33543  12.051   7.731  10.133 -0.1686 -1.8341  0.8497
 1012MOL0     H33544  12.004   7.738   9.880 -0.2085 -1.9201 -2.2457
 1012MOL0     H33545  11.844   7.657   9.929  0.3390 -0.2177 -0.5549
 1012MOL0     H33546  12.217   7.390   9.914 -0.7660 -1.6559  0.6102
 1012MOL0     H33547  12.314   7.346   9.686 -0.3378 -0.3842  2.8525
 1012MOL0     H33548  12.429   7.446   9.312  0.4086 -0.9919  1.1128
 1012MOL0     H33549  12.512   7.328   9.097  1.2136  1.8175  1.0829
 1012MOL0     H33550  12.553   7.298   8.761  0.3677 -0.6439  1.4813
 1012MOL0     H33551  12.582   7.417   8.890  0.8174  1.4494 -2.2376
 1012MOL0     H33552  12.529   7.550   8.711 -0.0989  0.3636  1.7235
 1012MOL0     H33553  12.403   7.551   8.818  0.2834 -0.2509 -0.8219
 1012MOL0     H33554  12.280   7.386   8.687 -0.5999  1.6798  1.1004
 1012MOL0     H33555  12.408   7.388   8.568 -0.1263  2.4188 -3.1381
 1012MOL0     H33556  12.245   7.629   8.624  0.6350  0.1669 -0.3172
 1012MOL0     H33557  12.350   7.607   8.485 -0.9347  3.5245 -0.3079
 1012MOL0     H33558  12.210   7.416   8.392 -3.7485 -1.9224 -2.2531
 1012MOL0     H33559  12.138   7.576   8.405  0.5433 -1.6340 -1.4945
 1012MOL0     H33560  12.057   7.483   8.639  1.1224  0.8474 -0.5368
 1012MOL0     H33561  12.073   7.326   8.567  0.0165 -0.8135  1.4010
 1012MOL0     H33562  11.908   7.570   8.478 -0.7367 -0.1599  1.8821
 1012MOL0     H33563  11.933   7.433   8.361  1.0230 -0.1169  0.4140
 1012MOL0     H33564  11.787   7.393   8.628 -0.5367  1.4062 -0.1946
 1012MOL0     H33565  11.819   7.279   8.504 -1.2642 -0.6795 -0.3594
 1012MOL0     H33566  12.153   7.355   8.908  3.0767  0.7320 -2.1503
 1012MOL0     H33567  12.049   7.415   9.129  0.0423 -1.7718 -1.3978
 1012MOL0     H33568  11.977   7.547   9.504 -3.4158  0.9596  1.6693
 1012MOL0     H33569  11.890   7.606   9.722 -0.5745 -1.4415  1.1751
 1012MOL0     H33570  11.836   7.768   9.422 -1.2111 -2.8282 -3.7967
 1012MOL0     H33571  11.726   7.569   9.344  2.5967 -1.7804  1.0082
 1012MOL0     H33572  11.120   7.400   9.465 -1.9189 -0.1119 -1.9706
 1012MOL0     H33573  10.996   7.177   9.380 -0.8352 -1.1781  1.2729
 1012MOL0     H33574  10.932   6.934   9.287  0.2637 -0.2476 -0.8978
 1012MOL0     H33575  10.995   6.949   9.457  0.3340 -0.3244 -0.0900
 1012MOL0     H33576  10.940   6.748   9.462 -1.2639 -0.8640 -0.2418
 1012MOL0     H33577  10.994   6.703   9.297  3.1039 -1.5273  1.1098
 1012MOL0     H33578  11.170   6.782   9.541 -2.0786 -1.9606  1.5363
 1012MOL0     H33579  11.249   6.727   9.388  1.0714  0.4086  1.8006
 1012MOL0     H33580  11.174   6.505   9.429  1.6515  0.3179 -0.4247
 1012MOL0     H33581  11.261   6.584   9.555 -1.4697  1.9624  1.8442
 1012MOL0     H33582  10.889   6.537   9.756 -0.5885 -4.8752 -2.1694
 1012MOL0     H33583  11.357   7.025   9.250 -3.1456 -3.3985  1.4458
 1012MOL0     H33584  11.482   7.242   9.318  0.6032  0.7418  1.4141
 1013MOL0     O33585   9.805   7.033   7.507 -0.0084 -0.8188 -0.6270
 1013MOL0     C33586   9.778   7.135   7.570 -0.1595 -0.4033  0.7696
 1013MOL0     O33587   9.703   7.243   7.522 -0.1968  0.2215 -0.2379
 1013MOL0     C33588   9.724   7.296   7.399 -0.6012 -0.8044  1.0201
 1013MOL0     C33589   9.784   7.423   7.386 -0.6593 -0.3156  0.0020
 1013MOL0     C33590   9.797   7.486   7.258  0.9344  0.2635  0.1232
 1013MOL0     C33591   9.737   7.424   7.143 -0.0604  0.1211 -0.5094
 1013MOL0     O33592   9.747   7.495   7.030  0.5502  0.5620 -0.8527
 1013MOL0     C33593   9.632   7.557   6.993 -0.0119 -0.0049  0.5720
 1013MOL0     C33594   9.645   7.563   6.841  0.3242 -0.7458  0.0220
 1013MOL0     C33595   9.516   7.615   6.776  0.7956 -1.6439  0.2623
 1013MOL0     C33596   9.426   7.716   6.841  0.5040 -0.8062  0.1858
 1013MOL0     C33597   9.301   7.754   6.758  0.0535  0.5109  0.1574
 1013MOL0     C33598   9.350   7.867   6.654 -0.0592 -0.4679 -0.4588
 1013MOL0     C33599   9.343   8.011   6.716 -0.1311 -0.9295 -0.6070
 1013MOL0     C33600   9.382   8.120   6.619  0.4690 -0.6460 -0.5311
 1013MOL0     N33601   9.409   8.241   6.697 -0.2924 -0.5025 -1.0854
 1013MOL0     C33602   9.306   8.319   6.753 -0.5674  0.4281 -0.4528
 1013MOL0     C33603   9.369   8.429   6.805  0.4246  0.6892 -0.0079
 1013MOL0     C33604   9.295   8.531   6.876 -0.4853 -0.0402  0.1574
 1013MOL0     C33605   9.235   8.495   7.015  0.3042 -0.5740  0.2888
 1013MOL0     C33606   9.176   8.614   7.100  0.8797  0.2929  0.7700
 1013MOL0     C33607   9.078   8.700   7.015 -0.4002 -0.0541 -1.2210
 1013MOL0     O33608   9.011   8.802   7.096 -0.6632 -0.5508  0.5797
 1013MOL0     C33609   8.915   8.762   7.189 -0.2154 -0.7305  0.4870
 1013MOL0     C33610   8.784   8.741   7.145  0.5050  0.7974  0.7462
 1013MOL0     C33611   8.693   8.695   7.232 -0.4825  0.3430  1.5656
 1013MOL0     C33612   8.721   8.681   7.373 -0.1641 -0.2065  0.9834
 1013MOL0     C33613   8.608   8.646   7.474  0.7791  0.1171  0.5645
 1013MOL0     O33614   8.479   8.671   7.428 -0.4925  0.4395  0.2827
 1013MOL0     C33615   8.377   8.652   7.515 -0.0639  0.2151  0.1427
 1013MOL0     C33616   8.261   8.581   7.478 -0.1814 -0.0602 -0.1607
 1013MOL0     C33617   8.151   8.570   7.569 -0.3454  0.3506 -0.0903
 1013MOL0     C33618   8.159   8.639   7.693 -0.2074 -0.0517 -0.1011
 1013MOL0     O33619   8.057   8.621   7.790 -0.8210  0.2131 -0.8909
 1013MOL0     C33620   8.078   8.668   7.922  0.0684  0.6823 -0.1305
 1013MOL0     C33621   7.993   8.587   8.015  0.0728  0.0413  0.8227
 1013MOL0     C33622   8.006   8.626   8.164  1.0489  0.8479  0.0149
 1013MOL0     C33623   7.934   8.520   8.254  0.1118 -0.5132 -0.0877
 1013MOL0     C33624   7.889   8.595   8.379 -0.9458  0.5588 -0.3471
 1013MOL0     C33625   7.992   8.675   8.462  0.2426  0.2393 -0.3899
 1013MOL0     C33626   7.932   8.780   8.561 -0.3295 -0.2088 -1.1656
 1013MOL0     C33627   8.044   8.850   8.647  0.0196 -0.0308  0.0332
 1013MOL0    Cl33628   7.962   8.939   8.776 -0.1008 -0.0177 -0.5570
 1013MOL0     C33629   8.260   8.729   7.718 -0.6857 -0.1295  0.4641
 1013MOL0     C33630   8.372   8.734   7.635 -0.3381  0.0662 -0.2348
 1013MOL0     O33631   8.638   8.604   7.583 -0.8527 -1.0937 -0.2450
 1013MOL0     C33632   8.854   8.699   7.420  0.3185 -0.0359  0.0027
 1013MOL0     C33633   8.948   8.737   7.324 -1.2373 -0.0636  0.9511
 1013MOL0     N33634   9.503   8.405   6.797 -0.0151  0.1225  0.1321
 1013MOL0     N33635   9.522   8.304   6.723  0.1089  0.0777 -0.2941
 1013MOL0     C33636   9.682   7.295   7.156 -1.1997  0.5349  0.2755
 1013MOL0     C33637   9.686   7.232   7.278  0.0814  0.1470 -0.0669
 1013MOL0     C33638   9.827   7.119   7.709  0.5757 -0.3175  1.0824
 1013MOL0     C33639   9.933   7.193   7.750 -0.8769  0.9911 -0.0282
 1013MOL0     C33640   9.980   7.190   7.881 -0.2794  0.3504 -0.2404
 1013MOL0     C33641   9.921   7.107   7.975 -0.6838  0.6203 -0.6000
 1013MOL0     O33642   9.952   7.088   8.110  1.2573  0.8777 -0.2980
 1013MOL0     C33643  10.058   7.161   8.166 -0.3989 -0.9115 -0.5665
 1013MOL0     C33644  10.149   7.077   8.254 -0.2625  0.8278  0.0827
 1013MOL0     C33645  10.083   7.064   8.393 -0.7839 -0.1447  0.1571
 1013MOL0     C33646  10.159   6.965   8.485  0.7787  1.0832 -0.2464
 1013MOL0     C33647  10.063   6.893   8.569 -1.1994  0.2347 -0.2252
 1013MOL0     C33648   9.976   6.836   8.630  0.0501 -1.0378  0.4703
 1013MOL0     C33649   9.828   7.018   7.928  0.0752 -0.0829  0.5372
 1013MOL0     C33650   9.777   7.020   7.800 -0.0940 -0.7627  0.0807
 1013MOL0     H33651   9.832   7.475   7.467  0.3942 -1.0972 -0.1078
 1013MOL0     H33652   9.846   7.582   7.245 -0.4113  1.1343  1.2556
 1013MOL0     H33653   9.638   7.657   7.037 -0.1635  0.2414  0.0307
 1013MOL0     H33654   9.548   7.492   7.020  2.1999 -3.3005  0.1553
 1013MOL0     H33655   9.655   7.461   6.804  0.1995 -0.0304 -2.0698
 1013MOL0     H33656   9.737   7.616   6.817  0.2039  0.4506  1.9179
 1013MOL0     H33657   9.456   7.527   6.753 -2.2887  0.9579 -2.7976
 1013MOL0     H33658   9.545   7.649   6.676 -2.0741  0.2962 -0.0158
 1013MOL0     H33659   9.388   7.659   6.926  0.5892  1.2546  1.6932
 1013MOL0     H33660   9.474   7.806   6.882  1.6480 -1.2913 -0.0574
 1013MOL0     H33661   9.221   7.797   6.819 -1.0560 -0.2655 -0.7011
 1013MOL0     H33662   9.256   7.674   6.698 -0.3023  0.2212  0.8042
 1013MOL0     H33663   9.286   7.868   6.565  0.3110 -1.4587 -0.7515
 1013MOL0     H33664   9.455   7.847   6.630  0.9635  2.7494  0.7821
 1013MOL0     H33665   9.246   8.038   6.759  1.0867  0.9040  1.1168
 1013MOL0     H33666   9.419   8.017   6.794  0.9003 -0.2085 -1.6271
 1013MOL0     H33667   9.303   8.145   6.547  0.3228  0.8647  0.1040
 1013MOL0     H33668   9.476   8.091   6.572  0.4372 -2.3775  0.4144
 1013MOL0     H33669   9.200   8.297   6.756 -0.9929  2.3002 -0.8917
 1013MOL0     H33670   9.217   8.559   6.805 -0.4421  3.5261  1.3189
 1013MOL0     H33671   9.374   8.606   6.886  3.4707 -3.8336  0.2695
 1013MOL0     H33672   9.312   8.441   7.071  2.0203  0.1414 -1.2613
 1013MOL0     H33673   9.148   8.431   6.999  0.2290 -0.0181 -1.7877
 1013MOL0     H33674   9.109   8.567   7.173 -1.6149  2.3007 -0.0744
 1013MOL0     H33675   9.261   8.674   7.133 -0.0101  1.0375  1.7622
 1013MOL0     H33676   9.004   8.637   6.965 -1.0516  0.2230 -0.6167
 1013MOL0     H33677   9.139   8.753   6.941  3.0490  0.3025  1.5990
 1013MOL0     H33678   8.756   8.756   7.041  2.0747 -2.5458 -0.2783
 1013MOL0     H33679   8.589   8.688   7.199  0.7131 -0.2030 -2.7019
 1013MOL0     H33680   8.266   8.529   7.383  1.5731 -0.3988  0.0915
 1013MOL0     H33681   8.062   8.513   7.548 -0.2138 -0.3548  1.1719
 1013MOL0     H33682   8.034   8.768   7.919  0.0930  0.6748 -0.8098
 1013MOL0     H33683   8.181   8.665   7.960 -0.7152 -1.0567  2.0871
 1013MOL0     H33684   8.018   8.481   8.006 -0.9905 -0.2228  0.8142
 1013MOL0     H33685   7.886   8.598   7.994  0.3316 -1.7755 -2.1528
 1013MOL0     H33686   7.965   8.726   8.177  1.4242  0.8858  1.0652
 1013MOL0     H33687   8.114   8.619   8.183  1.3854 -3.2036 -2.2347
 1013MOL0     H33688   7.847   8.470   8.209 -0.8227  1.6139 -0.7879
 1013MOL0     H33689   8.004   8.439   8.274 -1.4944 -2.0632 -0.3951
 1013MOL0     H33690   7.857   8.513   8.444  0.6065 -1.1760 -1.6625
 1013MOL0     H33691   7.800   8.654   8.355 -1.2736  0.2136 -0.0057
 1013MOL0     H33692   8.057   8.727   8.390  4.9375 -2.8747  1.1567
 1013MOL0     H33693   8.048   8.599   8.517 -2.4101  0.0896  2.3492
 1013MOL0     H33694   7.876   8.858   8.510 -0.0758  2.4348  2.1999
 1013MOL0     H33695   7.867   8.730   8.633 -3.4015 -2.4654 -5.1118
 1013MOL0     H33696   8.112   8.912   8.588  1.5684 -0.9758  0.7717
 1013MOL0     H33697   8.104   8.775   8.698  0.2603  0.9558  1.2521
 1013MOL0     H33698   8.261   8.787   7.810 -1.5230 -1.7760  1.5631
 1013MOL0     H33699   8.448   8.808   7.657 -2.9584  3.2600 -1.1205
 1013MOL0     H33700   8.864   8.697   7.528 -0.3181 -1.5323  0.0624
 1013MOL0     H33701   9.048   8.763   7.356  0.6401 -2.0153 -2.7119
 1013MOL0     H33702   9.648   7.239   7.069  0.2728 -0.8968  0.5669
 1013MOL0     H33703   9.653   7.129   7.273  1.1728 -0.1970 -0.4517
 1013MOL0     H33704   9.976   7.262   7.678 -1.6527  2.5102  0.9126
 1013MOL0     H33705  10.050   7.264   7.917 -2.1504  0.5346  3.4799
 1013MOL0     H33706  10.015   7.246   8.220 -0.6694 -1.6207  0.3602
 1013MOL0     H33707  10.124   7.207   8.092 -1.4350 -0.7374 -1.4128
 1013MOL0     H33708  10.155   6.983   8.199  0.6868  1.7265 -1.4102
 1013MOL0     H33709  10.243   7.128   8.274 -0.0209  0.4157  0.0005
 1013MOL0     H33710   9.984   7.022   8.377 -1.0672  0.3729  0.5125
 1013MOL0     H33711  10.077   7.160   8.446  1.0703 -2.0742  4.2755
 1013MOL0     H33712  10.209   6.890   8.423  1.1716 -1.0549  2.4941
 1013MOL0     H33713  10.230   7.023   8.545  0.9338 -1.0022  1.6810
 1013MOL0     H33714   9.899   6.778   8.677 -1.2552 -0.3861 -0.7894
 1013MOL0     H33715   9.783   6.958   8.006  2.1701  0.6052  2.4110
 1013MOL0     H33716   9.694   6.954   7.777 -1.3832  0.8407 -0.0870
 1014MOL0     O33717   6.025   0.648   2.210 -0.7124 -0.8665  0.8885
 1014MOL0     C33718   5.992   0.691   2.097 -0.1659 -0.6507  0.3323
 1014MOL0     O33719   5.981   0.609   1.988  0.5258  0.3631 -0.5171
 1014MOL0     C33720   5.923   0.487   2.023 -0.0632  0.4634  0.6284
 1014MOL0     C33721   5.990   0.374   1.982 -0.6276  0.7668 -0.1354
 1014MOL0     C33722   5.959   0.243   2.024 -0.5276 -1.2121  0.8035
 1014MOL0     C33723   5.835   0.226   2.102 -0.7817 -0.6074 -0.5478
 1014MOL0     O33724   5.825   0.104   2.170  0.1639 -0.2426  0.1517
 1014MOL0     C33725   5.735   0.084   2.274  0.2913 -0.7123  0.4324
 1014MOL0     C33726   5.586   0.096   2.239  0.5596 -0.1576  0.3867
 1014MOL0     C33727   5.503   0.061   2.362  0.4049  0.4482 -0.5016
 1014MOL0     C33728   5.351   0.078   2.347 -0.9065  0.2148  0.6829
 1014MOL0     C33729   5.285   0.055   2.485 -0.4604 -0.1610  0.2959
 1014MOL0     C33730   5.140   0.075   2.490  0.7723  0.1830 -0.6669
 1014MOL0     C33731   5.070   0.096   2.632  0.1653  0.3219  0.8425
 1014MOL0     C33732   4.920   0.125   2.628  1.2058  0.3480  0.0622
 1014MOL0     N33733   4.883   0.227   2.528 -0.1973  1.0830 -0.0599
 1014MOL0     C33734   4.825   0.198   2.403 -0.9719 -0.4205 -0.8171
 1014MOL0     C33735   4.809   0.319   2.348  0.3578 -0.0099  0.3469
 1014MOL0     C33736   4.763   0.359   2.208 -0.3402  0.6037 -0.6018
 1014MOL0     C33737   4.842   0.262   2.106  0.7843  0.3589 -0.2732
 1014MOL0     C33738   4.807   0.300   1.972  0.6907 -0.2535  0.6026
 1014MOL0     C33739   4.904   0.407   1.920 -0.5083  0.0726  0.3642
 1014MOL0     O33740   4.893   0.446   1.785  0.6752 -0.3107 -0.9070
 1014MOL0     C33741   4.952   0.572   1.760  0.3581  1.0002 -0.3286
 1014MOL0     C33742   4.883   0.686   1.784 -0.8240 -0.7903  0.8582
 1014MOL0     C33743   4.950   0.818   1.763 -0.0905  0.2291  1.5027
 1014MOL0     C33744   5.085   0.826   1.728 -0.8006  0.9167  0.4259
 1014MOL0     C33745   5.161   0.955   1.723  0.7737  0.1776 -0.9063
 1014MOL0     O33746   5.093   1.072   1.758 -0.2318 -0.4687  0.0470
 1014MOL0     C33747   5.168   1.187   1.749 -0.7104 -1.3946 -0.2018
 1014MOL0     C33748   5.109   1.299   1.701  0.3788 -0.3720 -0.8538
 1014MOL0     C33749   5.162   1.433   1.712  0.4497 -0.1222  0.7732
 1014MOL0     C33750   5.278   1.451   1.790  0.6869  0.3410  0.9392
 1014MOL0     O33751   5.333   1.575   1.819  0.0514  0.2501  0.3719
 1014MOL0     C33752   5.236   1.653   1.898 -0.4392  0.5673  0.6445
 1014MOL0     C33753   5.303   1.679   2.030 -0.3941 -0.1427 -0.1975
 1014MOL0     C33754   5.201   1.673   2.151  0.4456 -0.5424  0.9464
 1014MOL0     C33755   5.263   1.687   2.292  0.0653  0.5052  0.4146
 1014MOL0     C33756   5.158   1.685   2.409 -0.0288  0.3862 -0.4266
 1014MOL0     C33757   5.207   1.747   2.539 -0.4205  0.1316  0.0028
 1014MOL0     C33758   5.351   1.718   2.586 -0.1243 -0.4276  0.1677
 1014MOL0     C33759   5.370   1.578   2.639 -0.5829  0.3691 -0.6737
 1014MOL0    Cl33760   5.543   1.566   2.700  0.3664  0.1079 -0.1750
 1014MOL0     C33761   5.342   1.345   1.840  1.1401  0.3828 -0.3614
 1014MOL0     C33762   5.289   1.213   1.818  0.3767  0.8238  1.0352
 1014MOL0     O33763   5.287   0.947   1.711 -0.3017 -0.2196 -0.8883
 1014MOL0     C33764   5.155   0.700   1.702  0.1306 -0.3950 -0.2546
 1014MOL0     C33765   5.078   0.578   1.714 -1.0686 -0.0955 -0.7794
 1014MOL0     N33766   4.852   0.418   2.440 -0.1598 -0.1583  1.1775
 1014MOL0     N33767   4.896   0.362   2.545 -0.1543  0.4204 -0.1602
 1014MOL0     C33768   5.762   0.345   2.145 -0.5992 -1.1540  0.1325
 1014MOL0     C33769   5.805   0.473   2.102 -0.4492 -0.3435 -0.5228
 1014MOL0     C33770   6.014   0.829   2.070  0.4376 -0.1026 -1.3077
 1014MOL0     C33771   6.011   0.919   2.175 -0.0170 -0.3240  0.4300
 1014MOL0     C33772   6.049   1.059   2.154  0.2812  0.6140  0.5373
 1014MOL0     C33773   6.075   1.099   2.021  0.8544 -0.3777 -0.6754
 1014MOL0     O33774   6.099   1.237   2.014 -0.0872 -0.3421  0.4373
 1014MOL0     C33775   6.152   1.288   1.886  0.0158 -0.7083  0.0785
 1014MOL0     C33776   6.205   1.426   1.915  0.7054 -0.3372  0.1073
 1014MOL0     C33777   6.304   1.430   2.027 -0.9709 -0.1258 -0.1633
 1014MOL0     C33778   6.377   1.565   2.042  0.8140 -0.1289 -0.0039
 1014MOL0     C33779   6.494   1.545   2.138  0.1859  0.2409  0.9142
 1014MOL0     C33780   6.568   1.532   2.228 -0.9915  0.3711 -0.3678
 1014MOL0     C33781   6.083   1.006   1.921 -0.0853 -0.6961  0.0346
 1014MOL0     C33782   6.042   0.881   1.946  0.1568 -0.5038  0.4894
 1014MOL0     H33783   6.080   0.394   1.925  0.7554 -0.0614  1.6560
 1014MOL0     H33784   6.022   0.161   1.991 -0.1478  0.5637 -3.6482
 1014MOL0     H33785   5.754   0.147   2.361 -1.9566  2.1972 -1.0052
 1014MOL0     H33786   5.750  -0.022   2.297  2.8007 -0.9710 -1.8896
 1014MOL0     H33787   5.553   0.030   2.159 -2.2619  2.6781 -1.0129
 1014MOL0     H33788   5.555   0.194   2.202  3.3337  0.2247 -1.2370
 1014MOL0     H33789   5.539   0.138   2.431  0.8668  0.0575 -0.3004
 1014MOL0     H33790   5.535  -0.038   2.397  2.3040  0.9526 -0.7441
 1014MOL0     H33791   5.327   0.177   2.308 -1.5809 -0.3704 -0.4653
 1014MOL0     H33792   5.327   0.004   2.270  2.8340 -1.2196  0.6737
 1014MOL0     H33793   5.328   0.115   2.566  4.5731  0.3175 -2.3331
 1014MOL0     H33794   5.303  -0.052   2.499 -0.1213 -0.2669 -0.8575
 1014MOL0     H33795   5.092  -0.009   2.439 -0.4955  0.6752 -0.3433
 1014MOL0     H33796   5.112   0.161   2.428 -0.6086 -2.4126 -3.9568
 1014MOL0     H33797   5.095   0.005   2.686  1.4982  1.3963  2.1056
 1014MOL0     H33798   5.133   0.170   2.681  2.2501  0.7826 -2.2462
 1014MOL0     H33799   4.885   0.159   2.726 -0.3368 -0.7364 -0.0762
 1014MOL0     H33800   4.865   0.033   2.605  1.8217  0.0141 -0.0952
 1014MOL0     H33801   4.798   0.106   2.352 -1.6622 -0.2355 -0.7982
 1014MOL0     H33802   4.787   0.464   2.188 -2.4601  0.8743 -2.0851
 1014MOL0     H33803   4.656   0.345   2.190 -0.4533 -0.5387  0.7613
 1014MOL0     H33804   4.822   0.155   2.116  1.7634  0.0595 -1.2265
 1014MOL0     H33805   4.951   0.265   2.121  0.6783 -0.3616  0.6990
 1014MOL0     H33806   4.808   0.211   1.908 -0.9049 -0.5668  0.9537
 1014MOL0     H33807   4.704   0.335   1.961  0.4940 -0.5171  1.5136
 1014MOL0     H33808   5.008   0.375   1.937 -0.3670 -0.2360 -0.9620
 1014MOL0     H33809   4.885   0.498   1.978  0.0281 -0.8033  1.9907
 1014MOL0     H33810   4.782   0.670   1.820 -1.2801 -0.3097 -0.1538
 1014MOL0     H33811   4.893   0.911   1.765  1.3562  1.2747 -1.1606
 1014MOL0     H33812   5.023   1.291   1.635  0.3786  3.0534 -1.4375
 1014MOL0     H33813   5.118   1.522   1.669  1.5749 -0.3513 -0.9960
 1014MOL0     H33814   5.146   1.592   1.910 -1.2311  1.5181 -0.2720
 1014MOL0     H33815   5.195   1.745   1.855  1.1150  1.1490  0.3436
 1014MOL0     H33816   5.351   1.776   2.016 -2.2001  0.6517 -1.1967
 1014MOL0     H33817   5.373   1.602   2.062 -1.2237 -0.4977  0.8509
 1014MOL0     H33818   5.136   1.585   2.150 -0.6792  0.1754 -2.6405
 1014MOL0     H33819   5.140   1.764   2.145 -1.4654 -1.8570 -0.7623
 1014MOL0     H33820   5.340   1.611   2.310  1.3410  1.1190 -2.0040
 1014MOL0     H33821   5.318   1.782   2.293  0.3699  0.3251  1.5145
 1014MOL0     H33822   5.132   1.584   2.442 -3.7774  0.7471 -1.7715
 1014MOL0     H33823   5.062   1.730   2.383 -1.5300 -1.4937  1.5303
 1014MOL0     H33824   5.137   1.725   2.620 -0.1708 -0.2567  0.1148
 1014MOL0     H33825   5.200   1.856   2.534  0.2629  0.2898  1.7406
 1014MOL0     H33826   5.422   1.742   2.507  1.4949 -0.5514  1.5358
 1014MOL0     H33827   5.374   1.785   2.669  2.2854  3.5719 -3.3051
 1014MOL0     H33828   5.348   1.517   2.551  1.2135 -0.7845 -0.3972
 1014MOL0     H33829   5.301   1.561   2.722  0.0123 -2.1248 -0.6041
 1014MOL0     H33830   5.430   1.346   1.904  0.1028 -0.1006  1.1484
 1014MOL0     H33831   5.338   1.127   1.864  2.4707  0.8285 -1.0653
 1014MOL0     H33832   5.261   0.704   1.681 -0.0420 -0.3338 -1.1407
 1014MOL0     H33833   5.118   0.477   1.708 -2.7441 -0.9084  0.7468
 1014MOL0     H33834   5.681   0.346   2.217  1.3958  2.9713  2.7083
 1014MOL0     H33835   5.758   0.568   2.125 -0.1536 -0.6558  1.5911
 1014MOL0     H33836   5.971   0.884   2.269 -2.9095  0.0365 -0.5777
 1014MOL0     H33837   6.052   1.128   2.238  2.4941  1.4673 -0.1864
 1014MOL0     H33838   6.075   1.287   1.808  2.3230 -1.2130 -2.3223
 1014MOL0     H33839   6.233   1.222   1.856  0.2416 -1.1843  1.6102
 1014MOL0     H33840   6.253   1.452   1.820 -1.2661 -4.2464 -2.2201
 1014MOL0     H33841   6.127   1.494   1.948  0.0288  0.1034 -2.2148
 1014MOL0     H33842   6.383   1.357   2.005  0.1823  1.4354 -1.5029
 1014MOL0     H33843   6.253   1.408   2.121 -0.4786  2.5738  0.8285
 1014MOL0     H33844   6.407   1.599   1.943  0.8205  1.3453  0.4781
 1014MOL0     H33845   6.304   1.638   2.080  1.6594  1.4212 -1.2264
 1014MOL0     H33846   6.644   1.504   2.298  0.4915  3.0632 -0.7588
 1014MOL0     H33847   6.097   1.030   1.816  3.3684  0.8795  0.7230
 1014MOL0     H33848   6.050   0.821   1.856  1.0385  2.3255 -1.4601
 1015MOL0     O33849   2.085   5.745   6.065 -0.4088 -0.2159  0.3944
 1015MOL0     C33850   2.076   5.650   5.993 -0.3002 -1.2494 -0.0707
 1015MOL0     O33851   1.995   5.635   5.885 -0.1821 -0.4933 -0.7886
 1015MOL0     C33852   1.931   5.750   5.840  0.8723  0.4465 -0.4205
 1015MOL0     C33853   2.007   5.852   5.780 -0.1936 -0.0838  0.5794
 1015MOL0     C33854   1.953   5.967   5.735 -0.2391  0.9868 -0.2209
 1015MOL0     C33855   1.816   5.990   5.743  0.4990  0.8874 -0.0506
 1015MOL0     O33856   1.754   6.115   5.714  0.0145  0.7181  0.8471
 1015MOL0     C33857   1.828   6.232   5.661 -0.6508 -0.8911 -0.4585
 1015MOL0     C33858   1.839   6.211   5.510 -0.3008  0.9262  0.1356
 1015MOL0     C33859   1.707   6.215   5.434  0.2167 -0.7825 -0.0194
 1015MOL0     C33860   1.631   6.352   5.456  0.0612 -0.2905  0.2963
 1015MOL0     C33861   1.540   6.373   5.339 -0.4365 -0.4082 -0.1009
 1015MOL0     C33862   1.432   6.261   5.342  0.0195  0.2837 -0.4830
 1015MOL0     C33863   1.327   6.290   5.240 -0.0645  0.2022  0.3962
 1015MOL0     C33864   1.227   6.386   5.300  0.2757  0.4984  0.0982
 1015MOL0     N33865   1.097   6.367   5.224  0.3020 -0.5073  0.0814
 1015MOL0     C33866   1.004   6.274   5.248  0.4828 -0.8914 -0.7111
 1015MOL0     C33867   0.904   6.301   5.164  0.5958 -1.4138  0.0697
 1015MOL0     C33868   0.777   6.213   5.142  0.3309  0.5538 -0.2610
 1015MOL0     C33869   0.670   6.279   5.052  0.3416  0.8172  0.9447
 1015MOL0     C33870   0.628   6.423   5.076  0.0699 -0.1153  0.2892
 1015MOL0     C33871   0.579   6.451   5.222 -0.2685  0.4516  0.2512
 1015MOL0     O33872   0.526   6.340   5.303  0.0770  0.5433 -0.2227
 1015MOL0     C33873   0.520   6.360   5.438  0.3648  0.0302 -0.0713
 1015MOL0     C33874   0.518   6.246   5.521  0.1160 -0.2110  0.8681
 1015MOL0     C33875   0.514   6.256   5.658 -0.0125 -0.3708 -0.1725
 1015MOL0     C33876   0.518   6.380   5.718  0.1528 -0.1676 -0.7910
 1015MOL0     C33877   0.528   6.401   5.864  0.6527  1.1512  0.1137
 1015MOL0     O33878   0.590   6.517   5.904  0.1786  0.8642 -0.2337
 1015MOL0     C33879   0.592   6.552   6.037  0.1116  0.3555  0.2570
 1015MOL0     C33880   0.501   6.644   6.080  0.9349 -0.2614 -0.3727
 1015MOL0     C33881   0.514   6.698   6.208  0.8204  0.3872 -0.9516
 1015MOL0     C33882   0.618   6.652   6.300 -0.2247 -0.5308 -0.6620
 1015MOL0     O33883   0.644   6.702   6.427 -0.6292  0.2037 -0.2295
 1015MOL0     C33884   0.547   6.695   6.528  0.0758 -0.6835  1.1603
 1015MOL0     C33885   0.593   6.750   6.655 -0.6964  0.8901 -0.9927
 1015MOL0     C33886   0.493   6.725   6.773 -0.4011 -0.9779  0.0193
 1015MOL0     C33887   0.452   6.582   6.804 -0.0832 -0.2291 -0.8663
 1015MOL0     C33888   0.558   6.485   6.851 -0.1463 -0.1832  0.0772
 1015MOL0     C33889   0.617   6.522   6.982  0.2328 -0.3076 -0.2062
 1015MOL0     C33890   0.679   6.407   7.056 -0.2143  0.3094  0.5592
 1015MOL0     C33891   0.742   6.445   7.187 -0.0100  0.2295 -0.5296
 1015MOL0    Cl33892   0.894   6.532   7.146 -0.3578  0.0715  0.0491
 1015MOL0     C33893   0.699   6.550   6.250  0.1684 -0.3145 -0.2081
 1015MOL0     C33894   0.690   6.506   6.117 -0.9333  0.2589  0.4039
 1015MOL0     O33895   0.516   6.304   5.937  0.2042 -0.2046 -0.2736
 1015MOL0     C33896   0.520   6.494   5.647 -0.1011  0.0160 -0.2458
 1015MOL0     C33897   0.509   6.480   5.506 -0.0146 -0.3728 -0.1294
 1015MOL0     N33898   0.947   6.415   5.089  0.4539 -0.6008 -0.0102
 1015MOL0     N33899   1.054   6.463   5.135 -0.6517  0.4538  0.2931
 1015MOL0     C33900   1.734   5.892   5.793 -0.4552 -0.2460 -0.1074
 1015MOL0     C33901   1.790   5.776   5.852 -0.4292  0.8359  0.8819
 1015MOL0     C33902   2.163   5.542   6.023  0.2817  0.4565 -0.2243
 1015MOL0     C33903   2.188   5.435   5.939 -0.8791 -0.9068  0.0380
 1015MOL0     C33904   2.277   5.327   5.972  0.3433  0.8339  0.4758
 1015MOL0     C33905   2.344   5.320   6.094  0.4271  0.1414  0.9947
 1015MOL0     O33906   2.445   5.232   6.134  0.1291 -0.7254 -0.6181
 1015MOL0     C33907   2.553   5.212   6.039 -0.1789 -0.7139 -0.2219
 1015MOL0     C33908   2.687   5.284   6.085  0.5856  0.1576  0.0745
 1015MOL0     C33909   2.726   5.246   6.228  0.0565 -0.0149 -0.2242
 1015MOL0     C33910   2.846   5.341   6.278  1.2203  0.6272  0.4282
 1015MOL0     C33911   2.893   5.268   6.406 -1.0818 -0.9639  0.1950
 1015MOL0     C33912   2.924   5.207   6.506 -0.1627  1.6231 -0.2023
 1015MOL0     C33913   2.303   5.421   6.185  0.3917  0.2918  0.3757
 1015MOL0     C33914   2.219   5.529   6.152 -0.1253 -0.7542  0.7235
 1015MOL0     H33915   2.116   5.856   5.788 -0.1388  0.6630 -0.3646
 1015MOL0     H33916   2.010   6.037   5.675 -1.0397 -0.1087 -2.3680
 1015MOL0     H33917   1.934   6.230   5.690 -0.7745 -2.9560  0.0304
 1015MOL0     H33918   1.776   6.322   5.694 -1.3648 -2.0160  1.7571
 1015MOL0     H33919   1.887   6.115   5.491 -1.7001  0.2263  0.0025
 1015MOL0     H33920   1.893   6.297   5.469 -3.1276  1.7200 -2.2576
 1015MOL0     H33921   1.647   6.127   5.458 -0.4110 -0.2828  0.2901
 1015MOL0     H33922   1.727   6.192   5.329 -0.9821 -0.7188 -0.2775
 1015MOL0     H33923   1.572   6.348   5.549  0.5634  0.4982  0.6674
 1015MOL0     H33924   1.695   6.440   5.461  2.1067 -1.6130 -1.3025
 1015MOL0     H33925   1.596   6.376   5.245  0.8880 -2.7767  0.5286
 1015MOL0     H33926   1.490   6.468   5.357 -1.8710 -1.3766  1.3228
 1015MOL0     H33927   1.392   6.247   5.443  0.0144 -1.5285 -0.6984
 1015MOL0     H33928   1.464   6.160   5.316  0.2726 -0.3328  1.9748
 1015MOL0     H33929   1.368   6.329   5.147  3.0406 -0.6651  1.2921
 1015MOL0     H33930   1.274   6.197   5.221 -1.0193  0.5390  1.2773
 1015MOL0     H33931   1.277   6.483   5.288  0.5483  1.4506  5.8923
 1015MOL0     H33932   1.213   6.366   5.407  1.6249 -2.3228 -0.1783
 1015MOL0     H33933   1.006   6.194   5.322  0.7172 -0.8486 -0.6724
 1015MOL0     H33934   0.736   6.198   5.242  0.9561  0.5046 -0.0034
 1015MOL0     H33935   0.817   6.120   5.100  2.6268  1.2388  0.2319
 1015MOL0     H33936   0.580   6.218   5.039 -0.2283  1.7719  0.3531
 1015MOL0     H33937   0.704   6.268   4.948  0.5171 -2.8009  1.2520
 1015MOL0     H33938   0.709   6.492   5.051 -0.6741  0.7205  0.1390
 1015MOL0     H33939   0.549   6.445   5.004  1.6152 -0.3977 -1.5873
 1015MOL0     H33940   0.514   6.538   5.230  0.2917  0.7533  1.7042
 1015MOL0     H33941   0.668   6.485   5.274 -0.4851  1.4640 -0.0186
 1015MOL0     H33942   0.515   6.148   5.474 -1.1164  1.2850 -2.5052
 1015MOL0     H33943   0.524   6.177   5.732  1.3000  1.0892  1.2852
 1015MOL0     H33944   0.415   6.670   6.019  0.6908 -1.5010 -0.5656
 1015MOL0     H33945   0.450   6.780   6.240 -0.4616 -0.5421 -1.0431
 1015MOL0     H33946   0.522   6.591   6.552 -3.3102 -0.2691 -0.0736
 1015MOL0     H33947   0.453   6.742   6.498  0.6942  0.4445  0.9350
 1015MOL0     H33948   0.602   6.859   6.647 -2.0326  0.9988 -1.1540
 1015MOL0     H33949   0.684   6.700   6.691 -0.5729  1.9246  0.1711
 1015MOL0     H33950   0.404   6.789   6.769  1.5844  1.9785  0.2934
 1015MOL0     H33951   0.537   6.761   6.866 -2.2109  0.9264  0.2142
 1015MOL0     H33952   0.386   6.587   6.891 -0.2786  2.6289 -1.0657
 1015MOL0     H33953   0.407   6.527   6.721 -1.0687 -4.7406  2.3398
 1015MOL0     H33954   0.632   6.472   6.772  2.7770  2.2522  2.1735
 1015MOL0     H33955   0.497   6.396   6.866 -0.9040  0.7655  3.6721
 1015MOL0     H33956   0.535   6.566   7.041  2.5010  2.4576  1.1357
 1015MOL0     H33957   0.688   6.602   6.961  0.0728  0.0581  0.5814
 1015MOL0     H33958   0.608   6.326   7.073  1.1106 -0.8762  0.6845
 1015MOL0     H33959   0.754   6.356   6.995 -2.6094 -1.0843 -1.4137
 1015MOL0     H33960   0.771   6.358   7.246 -3.4784 -1.7664 -1.4613
 1015MOL0     H33961   0.668   6.501   7.247  0.0598 -0.8634  0.6083
 1015MOL0     H33962   0.774   6.505   6.315  0.8169 -2.0735 -2.0929
 1015MOL0     H33963   0.764   6.430   6.093  0.1716  1.0376  1.2262
 1015MOL0     H33964   0.528   6.593   5.690 -3.6232  1.1815 -1.8597
 1015MOL0     H33965   0.520   6.571   5.447  1.6957 -1.6701 -1.9600
 1015MOL0     H33966   1.626   5.904   5.801 -0.8513 -4.1431  4.8368
 1015MOL0     H33967   1.734   5.694   5.895  0.6071  0.6333  1.8934
 1015MOL0     H33968   2.134   5.421   5.846 -2.4133  0.3470  0.6948
 1015MOL0     H33969   2.299   5.263   5.887  0.7578  0.4006  0.9070
 1015MOL0     H33970   2.520   5.248   5.941 -0.5711  0.5050  0.3368
 1015MOL0     H33971   2.580   5.108   6.019  1.4445 -0.1720 -1.1013
 1015MOL0     H33972   2.755   5.253   6.006  0.1625 -2.3066  0.5994
 1015MOL0     H33973   2.676   5.393   6.088 -0.9110  0.0196  1.1440
 1015MOL0     H33974   2.779   5.150   6.221  2.3212  1.2507 -3.9845
 1015MOL0     H33975   2.643   5.245   6.299 -1.7958 -0.9321 -2.2915
 1015MOL0     H33976   2.924   5.360   6.204 -0.2508  1.0459 -1.0828
 1015MOL0     H33977   2.797   5.436   6.299  0.3002 -0.0691  1.5502
 1015MOL0     H33978   2.935   5.127   6.576 -2.1087 -0.7573 -2.4116
 1015MOL0     H33979   2.362   5.418   6.277 -0.2856  0.6603  0.8240
 1015MOL0     H33980   2.215   5.599   6.234 -0.2953 -1.1904  1.0925
 1016MOL0     O33981   2.520   6.685   1.357 -0.2978  0.7901  0.3185
 1016MOL0     C33982   2.424   6.643   1.419  0.1578  0.4447  0.2351
 1016MOL0     O33983   2.318   6.570   1.367 -0.0468  0.7075  0.0920
 1016MOL0     C33984   2.290   6.567   1.235 -1.2537 -1.1917  0.6510
 1016MOL0     C33985   2.376   6.538   1.123 -0.5750  0.5975  0.5641
 1016MOL0     C33986   2.339   6.533   0.990  0.6957 -0.0103 -0.0202
 1016MOL0     C33987   2.197   6.532   0.972 -0.0155  0.6473  0.4758
 1016MOL0     O33988   2.153   6.531   0.844  0.5798 -0.1210 -1.1736
 1016MOL0     C33989   2.175   6.406   0.768  0.9641 -0.6387  0.2634
 1016MOL0     C33990   2.053   6.320   0.797  0.3961 -0.7912  0.3907
 1016MOL0     C33991   2.027   6.226   0.675  0.0000  0.6205 -1.1983
 1016MOL0     C33992   1.973   6.090   0.718  0.2004  0.3093 -0.1471
 1016MOL0     C33993   1.938   5.998   0.602 -0.8371 -0.1913 -0.1504
 1016MOL0     C33994   1.915   5.851   0.659  0.0316 -0.4934 -1.2301
 1016MOL0     C33995   1.909   5.751   0.538 -0.3029 -0.9226  0.3588
 1016MOL0     C33996   1.768   5.732   0.490 -0.1924  0.1260  0.1754
 1016MOL0     N33997   1.692   5.620   0.558  1.0844  0.0022  0.1192
 1016MOL0     C33998   1.607   5.640   0.667  0.1907  0.7113 -0.2510
 1016MOL0     C33999   1.574   5.515   0.702  0.6090 -0.0602  0.6919
 1016MOL0     C34000   1.475   5.500   0.825  0.0216  0.3871  0.1910
 1016MOL0     C34001   1.330   5.511   0.775  0.5793  0.2331 -1.1545
 1016MOL0     C34002   1.315   5.404   0.667  0.0444  0.1280  1.0977
 1016MOL0     C34003   1.159   5.400   0.635 -0.1836  0.5271  0.3524
 1016MOL0     O34004   1.106   5.534   0.595  0.3395  0.0319 -0.0271
 1016MOL0     C34005   1.006   5.535   0.503 -0.9138  0.2926  0.5078
 1016MOL0     C34006   0.970   5.668   0.473  0.3655  1.5802 -0.3576
 1016MOL0     C34007   0.865   5.683   0.378 -0.2947 -0.2511 -0.2477
 1016MOL0     C34008   0.799   5.576   0.316  0.5534  0.3635 -1.0785
 1016MOL0     C34009   0.692   5.604   0.220 -0.1563 -0.3511  0.2043
 1016MOL0     O34010   0.642   5.494   0.152  0.5519  0.2503 -0.8048
 1016MOL0     C34011   0.535   5.508   0.068  0.6864  1.2650 -0.5063
 1016MOL0     C34012   0.409   5.537   0.109  0.2153 -0.0926 -0.1250
 1016MOL0     C34013   0.300   5.538   0.035  0.4791  0.5917  0.6486
 1016MOL0     C34014   0.310   5.493  -0.103 -0.5283 -0.2373 -1.1072
 1016MOL0     O34015   0.193   5.455  -0.159  0.7834 -0.4909 -0.8563
 1016MOL0     C34016   0.189   5.470  -0.299  0.2480 -0.4708 -0.1619
 1016MOL0     C34017   0.053   5.412  -0.366 -0.5389  0.2594 -0.5225
 1016MOL0     C34018  -0.057   5.515  -0.365 -0.3275 -0.0233 -0.3346
 1016MOL0     C34019  -0.064   5.597  -0.499 -0.5927  0.2681 -0.3300
 1016MOL0     C34020  -0.198   5.683  -0.495  1.4982  0.2962  0.7282
 1016MOL0     C34021  -0.320   5.599  -0.536 -0.1360 -0.2105  0.2411
 1016MOL0     C34022  -0.441   5.692  -0.583 -0.6799  0.5445  0.2917
 1016MOL0     C34023  -0.488   5.786  -0.482  1.0133 -0.1538 -0.7974
 1016MOL0    Cl34024  -0.501   5.702  -0.327 -0.3639  0.1374 -0.4990
 1016MOL0     C34025   0.443   5.474  -0.156 -1.4338 -0.3837 -0.5018
 1016MOL0     C34026   0.554   5.480  -0.066 -0.3620  0.1541 -0.5277
 1016MOL0     O34027   0.656   5.723   0.209  1.2088 -0.8989 -0.6127
 1016MOL0     C34028   0.828   5.446   0.359  0.0935  0.4477 -0.1098
 1016MOL0     C34029   0.936   5.427   0.445 -0.1463  0.3034  0.1351
 1016MOL0     N34030   1.651   5.425   0.634 -0.7063  0.6362 -0.6402
 1016MOL0     N34031   1.727   5.483   0.554  1.5848 -0.5879 -0.2196
 1016MOL0     C34032   2.108   6.564   1.081 -0.1359 -0.0855  0.6903
 1016MOL0     C34033   2.159   6.586   1.205  0.2858 -0.5155 -0.2577
 1016MOL0     C34034   2.405   6.680   1.561 -0.1760 -0.2725 -0.1067
 1016MOL0     C34035   2.463   6.800   1.608 -0.4176  0.2029  0.1072
 1016MOL0     C34036   2.455   6.832   1.747  0.3710  0.1655 -0.2382
 1016MOL0     C34037   2.384   6.746   1.845 -0.1591 -0.6913  1.3009
 1016MOL0     O34038   2.381   6.786   1.973 -0.0159 -0.2169 -0.3802
 1016MOL0     C34039   2.434   6.682   2.062  0.6817 -0.8833  1.0936
 1016MOL0     C34040   2.591   6.666   2.060  0.3594 -1.1993  0.2458
 1016MOL0     C34041   2.663   6.796   2.090  0.5551  0.0747 -0.8426
 1016MOL0     C34042   2.615   6.874   2.213 -0.4795  0.5096 -0.1941
 1016MOL0     C34043   2.643   6.815   2.347  1.0605  0.2739  0.3561
 1016MOL0     C34044   2.656   6.771   2.451  0.7339  0.3535  0.4964
 1016MOL0     C34045   2.315   6.636   1.788 -0.2018 -0.1839 -0.6551
 1016MOL0     C34046   2.328   6.600   1.651  0.2532 -0.5534  0.8412
 1016MOL0     H34047   2.479   6.522   1.152 -0.8351 -0.5420  0.9169
 1016MOL0     H34048   2.411   6.520   0.910  0.3988  0.7592 -0.4240
 1016MOL0     H34049   2.268   6.352   0.788  3.1803  2.5196 -0.7831
 1016MOL0     H34050   2.165   6.439   0.664  4.7371  1.2475  0.3234
 1016MOL0     H34051   1.961   6.375   0.817  0.4130 -0.8676  0.6879
 1016MOL0     H34052   2.064   6.265   0.891  1.4232 -0.2785  0.5846
 1016MOL0     H34053   2.121   6.206   0.623 -0.7107 -1.2430 -1.8207
 1016MOL0     H34054   1.955   6.273   0.607 -4.9386 -2.4872  1.2941
 1016MOL0     H34055   2.041   6.038   0.786  2.0956  1.5665 -0.9878
 1016MOL0     H34056   1.881   6.109   0.774 -0.4401  0.8124 -1.3204
 1016MOL0     H34057   2.015   5.996   0.525 -0.9567  0.6966 -0.3048
 1016MOL0     H34058   1.846   6.029   0.551 -2.7190 -0.7217  2.6865
 1016MOL0     H34059   1.823   5.837   0.716  0.9704 -2.2827 -0.0503
 1016MOL0     H34060   1.997   5.813   0.721 -0.8116 -1.7931 -0.8628
 1016MOL0     H34061   1.973   5.765   0.451 -0.9710 -0.9608 -0.1456
 1016MOL0     H34062   1.945   5.651   0.566  1.4024 -0.1740  0.9306
 1016MOL0     H34063   1.774   5.692   0.388 -2.1481  1.1764 -0.3879
 1016MOL0     H34064   1.710   5.824   0.485 -0.4969  0.0169  1.2718
 1016MOL0     H34065   1.560   5.727   0.710  2.3670  0.9288  1.8874
 1016MOL0     H34066   1.494   5.570   0.907 -0.5239 -0.9817  1.5416
 1016MOL0     H34067   1.498   5.408   0.880  0.0767  0.4278  0.2362
 1016MOL0     H34068   1.311   5.610   0.734 -0.4323 -0.2727 -1.9620
 1016MOL0     H34069   1.264   5.505   0.862  2.2144 -1.4302  0.0660
 1016MOL0     H34070   1.365   5.424   0.572  3.0506 -0.6584  2.4211
 1016MOL0     H34071   1.347   5.306   0.702  0.5955  0.3164  1.1288
 1016MOL0     H34072   1.103   5.372   0.725 -1.2494  2.8349  0.4775
 1016MOL0     H34073   1.142   5.326   0.557 -0.4740  1.9030 -0.9353
 1016MOL0     H34074   1.020   5.748   0.528 -0.0637  1.5233  0.1224
 1016MOL0     H34075   0.839   5.786   0.355  1.1045 -0.0686 -1.0771
 1016MOL0     H34076   0.408   5.570   0.213 -0.8701 -0.3196 -0.0487
 1016MOL0     H34077   0.204   5.562   0.079  0.3194 -0.1869  0.7323
 1016MOL0     H34078   0.275   5.423  -0.349  0.2223 -1.6359  0.8353
 1016MOL0     H34079   0.203   5.576  -0.324 -3.2802 -0.1478 -1.3246
 1016MOL0     H34080   0.027   5.321  -0.311  1.9374  0.5721  1.3190
 1016MOL0     H34081   0.075   5.382  -0.469 -0.2196  0.7341 -0.5934
 1016MOL0     H34082  -0.036   5.579  -0.278  0.4693 -3.4465  2.2102
 1016MOL0     H34083  -0.157   5.474  -0.347 -0.2720 -0.8014 -1.6657
 1016MOL0     H34084   0.033   5.638  -0.529 -1.1397 -0.5700 -3.6039
 1016MOL0     H34085  -0.077   5.519  -0.574 -0.9657 -3.4682  3.2854
 1016MOL0     H34086  -0.189   5.769  -0.561  3.4465  1.0372  1.8697
 1016MOL0     H34087  -0.206   5.709  -0.389  2.5708 -3.0683  1.7873
 1016MOL0     H34088  -0.342   5.539  -0.447 -2.1745  1.0196  0.6178
 1016MOL0     H34089  -0.287   5.540  -0.623  1.7993 -0.2218  0.9266
 1016MOL0     H34090  -0.407   5.753  -0.667 -1.4326 -0.0085 -0.4278
 1016MOL0     H34091  -0.517   5.619  -0.612 -1.3248  1.4200 -0.2575
 1016MOL0     H34092  -0.584   5.830  -0.509  1.1872  0.8645  0.1572
 1016MOL0     H34093  -0.424   5.875  -0.481 -1.7644  1.9650 -0.5106
 1016MOL0     H34094   0.470   5.446  -0.257  1.0363 -3.0698  0.7528
 1016MOL0     H34095   0.649   5.469  -0.118 -1.1869 -2.0286 -1.7177
 1016MOL0     H34096   0.771   5.369   0.309  0.8774 -0.3545  0.2170
 1016MOL0     H34097   0.964   5.324   0.465  2.2388  0.8565 -0.0727
 1016MOL0     H34098   2.001   6.561   1.062  0.1802  0.4353 -1.3376
 1016MOL0     H34099   2.085   6.619   1.277 -0.5517  2.0765 -2.1424
 1016MOL0     H34100   2.527   6.865   1.549  0.2644 -2.3542 -2.1806
 1016MOL0     H34101   2.495   6.924   1.788 -1.6498  1.1437 -0.3494
 1016MOL0     H34102   2.374   6.592   2.045  2.5786 -1.7208 -1.9734
 1016MOL0     H34103   2.408   6.711   2.164 -1.8423  0.1058  0.2572
 1016MOL0     H34104   2.618   6.591   2.136 -2.6694 -3.7425 -0.9475
 1016MOL0     H34105   2.634   6.629   1.966 -0.9264 -3.7572  0.5683
 1016MOL0     H34106   2.662   6.865   2.005  2.5185 -0.8584 -1.7014
 1016MOL0     H34107   2.769   6.772   2.104  0.5408  0.4374 -0.0670
 1016MOL0     H34108   2.670   6.968   2.209  0.3288  0.0175 -1.6521
 1016MOL0     H34109   2.509   6.900   2.209 -0.8976 -0.9334  0.8057
 1016MOL0     H34110   2.681   6.711   2.536 -0.2755 -0.0047  0.5511
 1016MOL0     H34111   2.253   6.573   1.850 -1.4711  2.6421  1.1789
 1016MOL0     H34112   2.280   6.508   1.619 -1.3580  1.3935 -2.8259
 1017MOL0     O34113   9.785   9.026   2.858 -0.3638  1.0286 -0.1146
 1017MOL0     C34114   9.704   8.933   2.828 -0.3075  0.2679  0.9366
 1017MOL0     O34115   9.562   8.940   2.805 -1.0749  0.5113 -0.0610
 1017MOL0     C34116   9.503   9.057   2.836 -0.5927 -1.0034 -0.1383
 1017MOL0     C34117   9.470   9.078   2.975 -0.4180  0.4635  0.2869
 1017MOL0     C34118   9.414   9.193   3.015 -0.0012 -0.2877 -0.5996
 1017MOL0     C34119   9.399   9.297   2.926 -0.3746 -0.9299  0.6889
 1017MOL0     O34120   9.337   9.413   2.977 -0.3106  0.2912 -0.1259
 1017MOL0     C34121   9.411   9.531   2.959 -0.5229  0.1214  0.4300
 1017MOL0     C34122   9.422   9.607   3.092  0.1387  0.6864  0.0682
 1017MOL0     C34123   9.520   9.537   3.185 -0.3913  1.5715 -0.2039
 1017MOL0     C34124   9.562   9.608   3.317  0.1906 -0.5989 -1.0164
 1017MOL0     C34125   9.638   9.494   3.398 -0.1009 -0.4377  0.5667
 1017MOL0     C34126   9.696   9.536   3.533 -0.2257 -0.0418 -0.8394
 1017MOL0     C34127   9.743   9.420   3.629  0.6286 -0.8886 -0.8913
 1017MOL0     C34128   9.862   9.340   3.575 -0.5875 -0.2368  0.0698
 1017MOL0     N34129   9.911   9.232   3.660 -0.1044  0.2519 -1.2122
 1017MOL0     C34130   9.968   9.240   3.784 -0.1015 -0.0217  0.0846
 1017MOL0     C34131  10.008   9.122   3.831  0.0805  0.2540 -0.4238
 1017MOL0     C34132  10.084   9.097   3.948 -0.4693 -0.4603 -0.1728
 1017MOL0     C34133   9.999   9.046   4.068  0.1593 -0.4621  0.0762
 1017MOL0     C34134  10.074   9.050   4.208  0.0895  0.4176  0.8927
 1017MOL0     C34135   9.975   9.067   4.322  0.1266  0.3153  0.6037
 1017MOL0     O34136   9.908   8.944   4.332  0.0900  0.3207  0.7810
 1017MOL0     C34137   9.818   8.919   4.431 -0.0006 -0.1156 -0.8086
 1017MOL0     C34138   9.783   8.784   4.454  0.0034  0.3727 -0.7616
 1017MOL0     C34139   9.695   8.765   4.555  0.3570  0.4188 -0.2764
 1017MOL0     C34140   9.624   8.864   4.626 -0.6254 -0.8817 -0.6283
 1017MOL0     C34141   9.509   8.831   4.721  0.2495 -0.3424 -0.7439
 1017MOL0     O34142   9.471   8.928   4.812  0.5892 -0.0437  0.3711
 1017MOL0     C34143   9.362   8.904   4.894  0.2236  0.3280 -0.0763
 1017MOL0     C34144   9.301   9.018   4.936 -0.8871 -0.5714 -0.2379
 1017MOL0     C34145   9.183   9.016   5.002 -0.6240 -0.1800  0.1925
 1017MOL0     C34146   9.121   8.897   5.029 -0.3833  0.2204 -0.7736
 1017MOL0     O34147   8.988   8.905   5.074 -0.2913  0.3749  0.5405
 1017MOL0     C34148   8.922   8.800   5.129  0.3251  0.8069 -0.5192
 1017MOL0     C34149   8.808   8.864   5.209  0.1521 -0.0766  0.4477
 1017MOL0     C34150   8.705   8.931   5.118  0.6901 -0.2214 -0.7586
 1017MOL0     C34151   8.609   9.003   5.207 -0.2561  0.5991 -0.6229
 1017MOL0     C34152   8.506   9.092   5.127  0.2581 -0.2501  0.1161
 1017MOL0     C34153   8.428   9.011   5.024 -0.0960 -0.0732 -0.8866
 1017MOL0     C34154   8.351   9.111   4.937  0.1207 -0.3586 -1.0881
 1017MOL0     C34155   8.263   9.059   4.825 -0.3631  0.0749 -0.1324
 1017MOL0    Cl34156   8.175   9.196   4.741 -0.4618 -0.7255  0.2427
 1017MOL0     C34157   9.188   8.779   5.008  0.7102  0.0560  0.1938
 1017MOL0     C34158   9.312   8.784   4.944 -0.9011  0.2203  0.7412
 1017MOL0     O34159   9.462   8.722   4.703 -0.0138  0.3900  0.6290
 1017MOL0     C34160   9.658   9.000   4.605  0.6931  0.2534 -0.3173
 1017MOL0     C34161   9.759   9.028   4.515 -1.4872 -0.6920 -0.8190
 1017MOL0     N34162   9.942   9.038   3.737 -0.5635 -0.0495  0.1172
 1017MOL0     N34163   9.890   9.105   3.635 -1.1227  0.7326  0.0501
 1017MOL0     C34164   9.444   9.283   2.798 -0.0449 -0.3436  0.3120
 1017MOL0     C34165   9.495   9.162   2.747 -0.9180 -0.0795 -0.4070
 1017MOL0     C34166   9.767   8.805   2.826  0.4093 -1.4742  0.5513
 1017MOL0     C34167   9.705   8.708   2.753  0.2767  0.7202  0.1800
 1017MOL0     C34168   9.783   8.603   2.714 -1.0355 -0.1902 -0.1446
 1017MOL0     C34169   9.914   8.585   2.766  0.3585  0.4571  0.2987
 1017MOL0     O34170   9.982   8.468   2.727 -0.0378 -0.5078  0.2715
 1017MOL0     C34171  10.000   8.392   2.847  0.2112  0.6939  0.4400
 1017MOL0     C34172   9.878   8.319   2.905 -0.2160  0.4480  0.4381
 1017MOL0     C34173   9.797   8.248   2.794 -0.2126 -0.5083  0.0392
 1017MOL0     C34174   9.678   8.175   2.851 -0.0514 -0.3831 -0.1445
 1017MOL0     C34175   9.624   8.071   2.767 -0.3186 -0.6094 -0.1976
 1017MOL0     C34176   9.585   7.986   2.695 -0.0014 -0.2151 -0.1124
 1017MOL0     C34177   9.978   8.681   2.848  0.6332 -0.7613  0.1800
 1017MOL0     C34178   9.901   8.794   2.876  0.6813 -0.5199  0.1503
 1017MOL0     H34179   9.467   8.994   3.044  0.5039 -0.7660 -1.1214
 1017MOL0     H34180   9.390   9.229   3.114  0.9932  4.6419 -1.8499
 1017MOL0     H34181   9.360   9.591   2.883 -2.3237  1.2405  2.3961
 1017MOL0     H34182   9.512   9.507   2.925  0.4839  2.0532  1.8543
 1017MOL0     H34183   9.323   9.618   3.137 -0.2263 -1.5162 -0.0972
 1017MOL0     H34184   9.455   9.707   3.063 -0.4563  0.2583 -2.2626
 1017MOL0     H34185   9.608   9.512   3.127  0.3616 -0.3817  1.6222
 1017MOL0     H34186   9.488   9.435   3.209  0.9562  1.5548  1.8301
 1017MOL0     H34187   9.613   9.704   3.307 -1.7853  0.6595  0.2016
 1017MOL0     H34188   9.466   9.624   3.367  0.8647 -0.3495  0.2273
 1017MOL0     H34189   9.720   9.460   3.335 -0.0615  4.1773 -2.3591
 1017MOL0     H34190   9.561   9.417   3.413 -1.8569  1.2068  0.3592
 1017MOL0     H34191   9.628   9.609   3.577 -0.7148 -0.4547 -0.8959
 1017MOL0     H34192   9.783   9.602   3.520  0.0748  0.3586  2.4023
 1017MOL0     H34193   9.744   9.444   3.736  0.5956 -4.2758 -0.0136
 1017MOL0     H34194   9.662   9.346   3.620 -0.4353  0.2572 -0.9457
 1017MOL0     H34195   9.941   9.414   3.560 -0.8285  0.5787  2.4249
 1017MOL0     H34196   9.847   9.281   3.484 -0.7052  0.0327 -0.0864
 1017MOL0     H34197   9.997   9.333   3.834  0.9626 -2.6742  5.1183
 1017MOL0     H34198  10.141   9.186   3.976 -2.1181  0.2121  1.2251
 1017MOL0     H34199  10.158   9.023   3.916  0.6051  0.7016 -0.4425
 1017MOL0     H34200   9.950   8.948   4.059 -1.3286  0.2489  0.0240
 1017MOL0     H34201   9.908   9.106   4.078 -0.4602 -1.5138  0.9886
 1017MOL0     H34202  10.110   8.947   4.220 -1.7521 -0.4957 -0.8089
 1017MOL0     H34203  10.152   9.126   4.208 -0.2219  0.7433  0.4038
 1017MOL0     H34204   9.913   9.154   4.299 -2.3842 -1.0022  1.9390
 1017MOL0     H34205  10.020   9.085   4.421  1.4418 -1.8067  0.4626
 1017MOL0     H34206   9.820   8.707   4.386 -0.3678 -0.3771 -0.1235
 1017MOL0     H34207   9.667   8.662   4.573  0.0911  0.6872  0.9315
 1017MOL0     H34208   9.332   9.115   4.898  1.4446 -1.1599  0.0501
 1017MOL0     H34209   9.133   9.109   5.026  2.5158  2.8154 -3.4384
 1017MOL0     H34210   8.981   8.743   5.201 -1.3237  1.2449  1.2506
 1017MOL0     H34211   8.884   8.741   5.044  1.5604  0.9949 -1.2269
 1017MOL0     H34212   8.858   8.936   5.274  1.9525 -1.2819  0.4782
 1017MOL0     H34213   8.757   8.789   5.271  0.0737  2.6184  3.9330
 1017MOL0     H34214   8.660   8.852   5.058  3.0844 -2.7255  0.5218
 1017MOL0     H34215   8.752   9.006   5.054  0.1543  0.0192 -0.8793
 1017MOL0     H34216   8.554   8.935   5.273 -1.8162 -0.5401 -2.9424
 1017MOL0     H34217   8.655   9.075   5.275 -2.7762  1.2555  0.4875
 1017MOL0     H34218   8.562   9.178   5.088  1.0298  0.3850  2.4859
 1017MOL0     H34219   8.436   9.134   5.200  2.0098  0.4941  1.4291
 1017MOL0     H34220   8.368   8.933   5.072  2.4560 -2.4420 -1.2698
 1017MOL0     H34221   8.501   8.967   4.954 -0.9072 -0.9874 -1.1927
 1017MOL0     H34222   8.291   9.178   4.999 -0.1093 -0.5874 -1.0652
 1017MOL0     H34223   8.426   9.175   4.888 -0.5176  0.8551 -0.5254
 1017MOL0     H34224   8.181   9.000   4.866 -0.0370  0.1893  0.6939
 1017MOL0     H34225   8.324   9.008   4.750  0.7409 -1.9814  2.0348
 1017MOL0     H34226   9.143   8.683   5.033  0.8891 -0.5007 -1.5029
 1017MOL0     H34227   9.360   8.686   4.935 -1.3340  0.1178 -0.6996
 1017MOL0     H34228   9.609   9.078   4.661  0.3442  0.6370 -1.1441
 1017MOL0     H34229   9.791   9.128   4.490  2.2206 -1.2201  1.0855
 1017MOL0     H34230   9.433   9.369   2.733  0.4758  1.0561  2.0077
 1017MOL0     H34231   9.525   9.158   2.642 -2.5336 -2.4964 -0.8604
 1017MOL0     H34232   9.608   8.719   2.705  1.2648 -0.2657 -2.1759
 1017MOL0     H34233   9.746   8.535   2.638 -0.8760 -1.0688  0.5401
 1017MOL0     H34234  10.042   8.450   2.930  2.1107  0.5691 -0.4019
 1017MOL0     H34235  10.075   8.319   2.816 -1.0643  0.1065 -1.4447
 1017MOL0     H34236   9.911   8.248   2.982 -0.7909 -2.2342 -1.5989
 1017MOL0     H34237   9.818   8.401   2.945  0.1833  1.0095 -0.0921
 1017MOL0     H34238   9.869   8.178   2.750  2.4545  2.3162 -0.3858
 1017MOL0     H34239   9.770   8.320   2.716  1.1265 -0.1022 -0.0713
 1017MOL0     H34240   9.714   8.140   2.948  2.6866 -3.7148 -2.1487
 1017MOL0     H34241   9.596   8.246   2.871 -2.5692 -3.7656  3.0269
 1017MOL0     H34242   9.557   7.913   2.623  0.5694 -2.8664  2.1746
 1017MOL0     H34243  10.084   8.666   2.869  0.8207 -1.6366 -1.2645
 1017MOL0     H34244   9.950   8.887   2.903  1.1188 -0.6295 -0.2552
 1018MOL0     O34245   5.044   4.317   3.283  1.2200 -0.8581 -0.3422
 1018MOL0     C34246   5.104   4.372   3.376 -0.6801 -0.0309 -0.4340
 1018MOL0     O34247   5.098   4.510   3.406  0.2400  0.0176  0.2981
 1018MOL0     C34248   5.009   4.578   3.323 -0.0767 -0.5281  0.4424
 1018MOL0     C34249   5.074   4.667   3.238 -0.4509  1.0700 -0.5239
 1018MOL0     C34250   4.994   4.753   3.165 -0.3723  0.8070 -0.3019
 1018MOL0     C34251   4.857   4.737   3.172 -0.4483 -0.6658  0.7278
 1018MOL0     O34252   4.798   4.824   3.095 -0.1063 -0.7176 -0.0523
 1018MOL0     C34253   4.658   4.815   3.062 -0.8721 -0.3226  0.2056
 1018MOL0     C34254   4.624   4.927   2.962 -0.6225 -0.2365  0.1304
 1018MOL0     C34255   4.700   4.925   2.842 -0.4906  0.2393 -0.1361
 1018MOL0     C34256   4.638   5.023   2.736 -0.0911  0.0222 -0.5451
 1018MOL0     C34257   4.733   5.138   2.705 -0.0077  0.2325 -0.5491
 1018MOL0     C34258   4.805   5.109   2.572 -0.5233  0.1468 -0.0915
 1018MOL0     C34259   4.920   5.209   2.529 -0.2537 -0.0826  0.0644
 1018MOL0     C34260   4.886   5.352   2.541  0.5260  0.9788  0.1494
 1018MOL0     N34261   4.995   5.431   2.477 -0.3343 -0.1110 -0.7989
 1018MOL0     C34262   4.996   5.482   2.349  1.2627  0.4793 -0.2193
 1018MOL0     C34263   5.109   5.560   2.340  0.2748 -0.1381  0.9471
 1018MOL0     C34264   5.161   5.624   2.215 -0.6813 -0.5066 -0.9095
 1018MOL0     C34265   5.099   5.605   2.081  0.3879 -0.0554  0.4624
 1018MOL0     C34266   5.163   5.659   1.946  0.0772 -0.1031 -0.7945
 1018MOL0     C34267   5.119   5.572   1.833  0.3877  0.0022 -0.9845
 1018MOL0     O34268   4.989   5.614   1.785 -0.4777  0.2704 -0.6511
 1018MOL0     C34269   4.875   5.575   1.852  0.4296 -1.2658 -0.2465
 1018MOL0     C34270   4.857   5.456   1.921  1.0466  0.2147 -0.2813
 1018MOL0     C34271   4.754   5.435   2.007  0.4883 -0.3623  0.3075
 1018MOL0     C34272   4.655   5.525   2.036  0.5049 -0.1853 -0.1754
 1018MOL0     C34273   4.542   5.510   2.142  0.1492 -0.3463 -0.2211
 1018MOL0     O34274   4.506   5.384   2.191 -0.3652  0.3318 -0.5453
 1018MOL0     C34275   4.371   5.354   2.215 -0.9772  0.7021 -0.4415
 1018MOL0     C34276   4.361   5.242   2.300  0.6073  0.5306 -0.5568
 1018MOL0     C34277   4.223   5.198   2.334 -0.8070 -0.1130 -0.4530
 1018MOL0     C34278   4.108   5.248   2.276 -0.6024 -0.1503  1.2012
 1018MOL0     O34279   3.983   5.185   2.292  0.0211  0.3528  0.0510
 1018MOL0     C34280   3.938   5.194   2.430  0.1852  0.7573  0.2488
 1018MOL0     C34281   3.792   5.175   2.446  0.6302 -0.3534 -0.6572
 1018MOL0     C34282   3.766   5.024   2.436  0.4196  0.2831 -0.0688
 1018MOL0     C34283   3.617   5.009   2.405 -0.3785  0.9473  0.3250
 1018MOL0     C34284   3.579   4.859   2.434  0.3612 -0.0351  0.2672
 1018MOL0     C34285   3.595   4.775   2.570  0.2153 -0.1352 -0.0935
 1018MOL0     C34286   3.549   4.846   2.697  0.5488  1.4765 -0.3342
 1018MOL0     C34287   3.406   4.823   2.732 -0.0322  0.8835  0.4681
 1018MOL0    Cl34288   3.322   4.971   2.708 -0.1977  0.4413 -0.0478
 1018MOL0     C34289   4.127   5.352   2.184  0.1360 -1.0055  0.7090
 1018MOL0     C34290   4.253   5.405   2.163  0.0352  0.7458 -0.6767
 1018MOL0     O34291   4.483   5.615   2.175 -0.3177  0.3943  0.8887
 1018MOL0     C34292   4.668   5.645   1.961  0.5811 -0.3466  0.2469
 1018MOL0     C34293   4.775   5.671   1.872  0.0838 -0.1729  0.1096
 1018MOL0     N34294   5.172   5.576   2.467  0.6526  0.7567  0.0752
 1018MOL0     N34295   5.111   5.484   2.537 -0.4794  0.3059 -1.0008
 1018MOL0     C34296   4.802   4.647   3.252 -0.0183 -0.1657 -0.0308
 1018MOL0     C34297   4.873   4.563   3.335 -0.3633  0.9761 -0.2728
 1018MOL0     C34298   5.187   4.297   3.473  0.5865  0.3946  0.1608
 1018MOL0     C34299   5.232   4.174   3.441  0.4206 -0.5603 -0.6735
 1018MOL0     C34300   5.317   4.108   3.520  0.0230 -0.4479 -0.6507
 1018MOL0     C34301   5.380   4.174   3.630  0.5410 -0.3026  0.7539
 1018MOL0     O34302   5.474   4.113   3.709 -0.6675 -0.2517  0.2595
 1018MOL0     C34303   5.566   4.008   3.664 -0.4973 -0.2434 -0.1424
 1018MOL0     C34304   5.661   4.060   3.552  0.4588  0.3859  0.3313
 1018MOL0     C34305   5.741   3.942   3.481 -0.4871  0.9241  0.0456
 1018MOL0     C34306   5.883   3.979   3.430  0.0059  0.4926  0.8292
 1018MOL0     C34307   5.885   4.089   3.331 -0.4901  0.7434 -0.2010
 1018MOL0     C34308   5.918   4.179   3.254  0.0739  0.1674  0.1544
 1018MOL0     C34309   5.335   4.301   3.665  0.4501 -0.0667 -0.5317
 1018MOL0     C34310   5.223   4.356   3.595 -0.4904 -0.3235 -0.0048
 1018MOL0     H34311   5.181   4.655   3.229 -0.5109  1.7913 -2.7413
 1018MOL0     H34312   5.052   4.823   3.105 -0.4944  0.3051 -1.0300
 1018MOL0     H34313   4.612   4.811   3.160  2.1536 -1.8850  1.7178
 1018MOL0     H34314   4.636   4.720   3.011  0.7608 -0.4855 -0.2581
 1018MOL0     H34315   4.636   5.025   3.009 -0.2015  0.4131 -1.2464
 1018MOL0     H34316   4.523   4.911   2.925 -0.8058  1.5961 -0.3005
 1018MOL0     H34317   4.696   4.826   2.795  4.0496  0.9592 -2.5291
 1018MOL0     H34318   4.803   4.951   2.868 -0.1586 -3.1463  2.6211
 1018MOL0     H34319   4.600   4.964   2.652  0.9285 -3.2669  1.1386
 1018MOL0     H34320   4.553   5.077   2.778 -1.8353 -1.3052 -2.1724
 1018MOL0     H34321   4.810   5.142   2.784  1.7087 -3.5565 -1.7811
 1018MOL0     H34322   4.682   5.234   2.690  1.5703  0.9139 -1.9279
 1018MOL0     H34323   4.738   5.119   2.486  3.0937  0.4023 -3.1320
 1018MOL0     H34324   4.839   5.006   2.569  0.9317  0.5980  0.3285
 1018MOL0     H34325   5.017   5.184   2.574  0.4300  1.4818 -0.4474
 1018MOL0     H34326   4.943   5.180   2.426  0.3887 -1.6387  0.6150
 1018MOL0     H34327   4.847   5.386   2.637 -2.3231 -1.1774 -0.0987
 1018MOL0     H34328   4.797   5.350   2.477  0.2926 -0.1920  0.4908
 1018MOL0     H34329   4.913   5.466   2.281 -0.4173 -0.5172  1.9439
 1018MOL0     H34330   5.268   5.600   2.221 -1.1028 -2.4184  4.4802
 1018MOL0     H34331   5.174   5.731   2.237 -2.5558 -0.8876  2.8323
 1018MOL0     H34332   4.995   5.635   2.097  0.3533 -0.4978  1.0870
 1018MOL0     H34333   5.096   5.498   2.059 -1.2205  0.2697 -1.2187
 1018MOL0     H34334   5.142   5.765   1.929  1.5545  0.5875  1.2569
 1018MOL0     H34335   5.272   5.650   1.950  0.2241  1.3775 -1.0156
 1018MOL0     H34336   5.121   5.465   1.858 -0.9540 -0.3105 -2.0949
 1018MOL0     H34337   5.197   5.578   1.758  1.2894 -0.0782 -0.0760
 1018MOL0     H34338   4.915   5.370   1.890 -0.5459 -0.9494 -0.1874
 1018MOL0     H34339   4.751   5.337   2.054  1.4201 -0.0811  0.9653
 1018MOL0     H34340   4.440   5.209   2.367  1.6867 -0.9641 -2.4484
 1018MOL0     H34341   4.224   5.111   2.400  0.2030  0.9377  0.9720
 1018MOL0     H34342   3.961   5.290   2.476 -0.9439  0.2355  1.9951
 1018MOL0     H34343   3.978   5.114   2.493  0.3631 -0.3569 -1.2113
 1018MOL0     H34344   3.739   5.233   2.370 -0.7322 -0.9880 -0.2265
 1018MOL0     H34345   3.752   5.211   2.541 -0.4194 -0.9313 -0.8612
 1018MOL0     H34346   3.804   4.972   2.524  0.4914 -1.5936 -1.1499
 1018MOL0     H34347   3.819   4.977   2.352 -0.0850  3.1632 -2.1374
 1018MOL0     H34348   3.559   5.063   2.481  2.2124 -1.3711  4.3286
 1018MOL0     H34349   3.596   5.041   2.303  0.1052 -1.5787 -0.6455
 1018MOL0     H34350   3.624   4.806   2.349 -1.9705  0.6294 -1.4959
 1018MOL0     H34351   3.471   4.846   2.427  0.4169 -0.9488  0.8798
 1018MOL0     H34352   3.702   4.758   2.586  0.1902  0.0689  0.2909
 1018MOL0     H34353   3.551   4.676   2.557 -1.3766  0.2067  2.1983
 1018MOL0     H34354   3.609   4.809   2.781  0.2821 -1.9449 -1.4757
 1018MOL0     H34355   3.590   4.948   2.695  4.4334  0.2503  2.8375
 1018MOL0     H34356   3.402   4.780   2.833 -2.4815  2.0915  0.9464
 1018MOL0     H34357   3.354   4.752   2.668 -1.6896  1.8140  0.7305
 1018MOL0     H34358   4.045   5.403   2.134  2.7065  1.4190 -1.3607
 1018MOL0     H34359   4.264   5.493   2.101 -0.3845  0.2359 -1.4929
 1018MOL0     H34360   4.596   5.724   1.978  1.6530  1.0063 -1.2249
 1018MOL0     H34361   4.775   5.769   1.825 -1.1285 -0.5212 -0.6507
 1018MOL0     H34362   4.694   4.652   3.255  0.0343  2.8237 -0.2240
 1018MOL0     H34363   4.833   4.478   3.390 -1.6541  1.7623  0.0426
 1018MOL0     H34364   5.188   4.121   3.357 -0.2478  0.6096 -1.0696
 1018MOL0     H34365   5.336   4.001   3.513 -2.0168 -1.1211  2.1740
 1018MOL0     H34366   5.508   3.917   3.644 -2.5185  0.8155  0.5931
 1018MOL0     H34367   5.636   3.984   3.745 -0.4364  0.0084 -0.1212
 1018MOL0     H34368   5.597   4.094   3.470  0.9476  1.5759  0.4202
 1018MOL0     H34369   5.712   4.149   3.588 -2.3646  1.5629  1.7170
 1018MOL0     H34370   5.683   3.891   3.405 -2.9373 -0.6441  2.7617
 1018MOL0     H34371   5.752   3.867   3.560 -2.0102  1.1833  0.5339
 1018MOL0     H34372   5.948   4.007   3.513  0.3435  0.2443  0.6546
 1018MOL0     H34373   5.934   3.899   3.376 -2.0540  1.0234 -2.1756
 1018MOL0     H34374   5.942   4.265   3.195  2.0322  1.0674  2.1143
 1018MOL0     H34375   5.365   4.349   3.758  1.5392  1.4180 -1.5941
 1018MOL0     H34376   5.185   4.451   3.631 -0.7731 -0.7842  0.9431
 1019MOL0     O34377   0.362   5.299  10.861 -0.5083 -0.2837  0.2271
 1019MOL0     C34378   0.460   5.346  10.797  0.4523 -0.1153 -0.7228
 1019MOL0     O34379   0.455   5.432  10.685 -0.0596  0.4656  0.1502
 1019MOL0     C34380   0.336   5.463  10.627 -0.6776  0.9980  0.4959
 1019MOL0     C34381   0.208   5.484  10.685 -0.4299 -0.3246  0.0803
 1019MOL0     C34382   0.090   5.501  10.609  0.1036 -0.7343  0.0883
 1019MOL0     C34383   0.088   5.492  10.471 -0.3810  0.4955  0.6720
 1019MOL0     O34384  -0.029   5.507  10.392  0.2710  0.2067  0.9461
 1019MOL0     C34385  -0.152   5.545  10.460  0.3585 -0.2843  0.2698
 1019MOL0     C34386  -0.240   5.624  10.357  1.0125 -0.4884 -1.2246
 1019MOL0     C34387  -0.162   5.734  10.277 -0.4828  0.6428 -0.4458
 1019MOL0     C34388  -0.240   5.783  10.163  0.3068  0.0268 -0.0577
 1019MOL0     C34389  -0.184   5.913  10.106  0.4952 -0.0196  0.2114
 1019MOL0     C34390  -0.262   5.965   9.980  0.5497 -0.7583  0.0881
 1019MOL0     C34391  -0.378   6.063  10.001 -1.0286 -0.8417 -1.0166
 1019MOL0     C34392  -0.353   6.183  10.097  0.4533  0.4434  0.1073
 1019MOL0     N34393  -0.230   6.252  10.067  0.6438 -0.0473  0.3021
 1019MOL0     C34394  -0.192   6.303   9.951  0.4531 -0.2407  0.8897
 1019MOL0     C34395  -0.089   6.380   9.982  0.1846  0.0120  0.0387
 1019MOL0     C34396   0.002   6.455   9.888 -0.2528 -0.2624  0.8781
 1019MOL0     C34397  -0.018   6.602   9.906 -0.4022  0.2796 -0.0007
 1019MOL0     C34398  -0.163   6.648   9.871 -1.2059  0.4351  0.2201
 1019MOL0     C34399  -0.183   6.797   9.878 -0.0031  0.7470  0.4397
 1019MOL0     O34400  -0.319   6.822   9.853 -0.1710 -0.3216  0.2990
 1019MOL0     C34401  -0.353   6.954   9.831 -0.1472  0.5322 -0.8673
 1019MOL0     C34402  -0.465   6.974   9.755  0.9889  0.8288  0.1198
 1019MOL0     C34403  -0.520   7.094   9.715 -0.0171 -0.4333  0.3847
 1019MOL0     C34404  -0.457   7.214   9.762  0.2379  0.3200  0.7680
 1019MOL0     C34405  -0.522   7.344   9.728 -0.3984 -0.1811 -0.8885
 1019MOL0     O34406  -0.455   7.452   9.799  0.1082 -0.1992  0.1575
 1019MOL0     C34407  -0.484   7.586   9.773  0.3180  0.0629  0.1296
 1019MOL0     C34408  -0.609   7.653   9.793 -0.7109  0.2708 -0.0237
 1019MOL0     C34409  -0.634   7.788   9.756 -0.3846 -0.1383 -0.3229
 1019MOL0     C34410  -0.526   7.862   9.697  0.8736  0.3258  0.4113
 1019MOL0     O34411  -0.544   7.991   9.657  0.1076  0.0866  0.1888
 1019MOL0     C34412  -0.633   8.081   9.733 -0.0665 -0.1501  0.4936
 1019MOL0     C34413  -0.588   8.090   9.881 -0.1568  0.2987  0.9132
 1019MOL0     C34414  -0.659   8.202   9.954 -0.0286 -0.6171  0.2330
 1019MOL0     C34415  -0.604   8.202  10.099  1.6011 -0.0501 -0.9008
 1019MOL0     C34416  -0.658   8.310  10.197 -0.4590 -0.2873 -0.5179
 1019MOL0     C34417  -0.803   8.304  10.208 -0.2759 -0.9805  0.2690
 1019MOL0     C34418  -0.866   8.373  10.330 -0.4896  0.1092  0.6460
 1019MOL0     C34419  -0.870   8.529  10.309 -1.1175  0.0036  0.6022
 1019MOL0    Cl34420  -0.721   8.604  10.370  0.1252 -0.0313  0.1214
 1019MOL0     C34421  -0.400   7.800   9.682  0.2741 -0.1676 -0.0177
 1019MOL0     C34422  -0.376   7.669   9.722 -0.6854 -0.2373 -0.6744
 1019MOL0     O34423  -0.618   7.360   9.651  0.9818  0.3054 -0.2462
 1019MOL0     C34424  -0.343   7.202   9.832  0.1171 -1.0606  0.7533
 1019MOL0     C34425  -0.288   7.078   9.869 -0.6314 -0.0186 -0.6477
 1019MOL0     N34426  -0.065   6.377  10.117  0.0518 -0.8434 -0.7094
 1019MOL0     N34427  -0.154   6.303  10.167 -0.1733  0.3922  0.5773
 1019MOL0     C34428   0.214   5.468  10.414 -0.2473  0.3171 -0.3750
 1019MOL0     C34429   0.328   5.438  10.487 -0.7673 -0.5026 -0.2766
 1019MOL0     C34430   0.603   5.311  10.840  1.0054  0.2752 -1.0977
 1019MOL0     C34431   0.615   5.220  10.940 -0.1767 -0.9431 -0.0597
 1019MOL0     C34432   0.735   5.190  10.999  1.4380  0.6995 -0.7626
 1019MOL0     C34433   0.858   5.230  10.950  0.7066 -0.5778 -0.4164
 1019MOL0     O34434   0.975   5.191  11.009  0.0359 -0.4978 -0.6309
 1019MOL0     C34435   1.094   5.182  10.921  0.5805  0.5125  0.5832
 1019MOL0     C34436   1.210   5.124  10.989 -0.9485  0.3704 -0.2097
 1019MOL0     C34437   1.284   5.217  11.094 -0.0990 -0.1175 -0.0037
 1019MOL0     C34438   1.409   5.148  11.148  0.6073 -0.4934  0.6713
 1019MOL0     C34439   1.523   5.136  11.062 -0.0737 -0.0729  0.9082
 1019MOL0     C34440   1.634   5.130  11.007  0.2253 -0.0060 -0.2511
 1019MOL0     C34441   0.848   5.319  10.847 -0.1895 -0.4705  0.8582
 1019MOL0     C34442   0.724   5.358  10.789 -0.1918  0.1204 -0.4108
 1019MOL0     H34443   0.202   5.485  10.794 -1.4897  1.0021  0.0431
 1019MOL0     H34444  -0.003   5.534  10.656 -1.8119 -1.3717 -2.9680
 1019MOL0     H34445  -0.132   5.619  10.538  2.1812 -0.3986 -0.0525
 1019MOL0     H34446  -0.200   5.454  10.498  0.8634 -0.3630  0.7367
 1019MOL0     H34447  -0.320   5.683  10.403  3.3955  2.7511 -0.8506
 1019MOL0     H34448  -0.286   5.551  10.291  2.2146 -0.7656 -1.7871
 1019MOL0     H34449  -0.064   5.700  10.240  0.2779  0.3136  1.7371
 1019MOL0     H34450  -0.143   5.826  10.334  0.8731  2.3116 -3.3379
 1019MOL0     H34451  -0.242   5.700  10.092 -1.3062 -1.1430  1.2601
 1019MOL0     H34452  -0.346   5.797  10.190  1.1186  2.3312  2.3190
 1019MOL0     H34453  -0.082   5.886  10.075  1.1682 -0.1669  2.3602
 1019MOL0     H34454  -0.178   5.979  10.193 -2.4537 -1.9336  2.0824
 1019MOL0     H34455  -0.306   5.878   9.931 -0.6128  0.5859 -1.3884
 1019MOL0     H34456  -0.187   6.014   9.917 -1.4918  0.9493 -1.1912
 1019MOL0     H34457  -0.405   6.101   9.902 -1.7124  1.3373 -0.0583
 1019MOL0     H34458  -0.466   6.008  10.037  0.0775 -1.6194  0.6099
 1019MOL0     H34459  -0.341   6.144  10.198  2.7199 -1.3636 -0.7669
 1019MOL0     H34460  -0.442   6.246  10.091 -1.1498 -1.6570  0.7809
 1019MOL0     H34461  -0.251   6.290   9.860  1.3581  0.7382  0.1429
 1019MOL0     H34462  -0.025   6.430   9.785 -1.9990  1.9804  0.7141
 1019MOL0     H34463   0.108   6.431   9.904 -0.5977 -0.8091  2.5094
 1019MOL0     H34464   0.050   6.649   9.835  2.2854  0.4777  2.4961
 1019MOL0     H34465   0.001   6.629  10.010 -1.2893 -1.6642  0.7157
 1019MOL0     H34466  -0.188   6.600   9.776 -1.7384 -2.4573  1.7107
 1019MOL0     H34467  -0.235   6.603   9.940 -0.5125  2.4591  2.4202
 1019MOL0     H34468  -0.118   6.838   9.800 -0.4829  1.7086  0.5288
 1019MOL0     H34469  -0.146   6.839   9.972 -1.1243 -0.1054  1.2891
 1019MOL0     H34470  -0.503   6.882   9.711  0.1361  1.2837 -0.1048
 1019MOL0     H34471  -0.618   7.107   9.669  0.0536 -0.8657  0.1087
 1019MOL0     H34472  -0.678   7.587   9.843 -1.0173  1.0177  0.5523
 1019MOL0     H34473  -0.732   7.833   9.767 -0.8630 -0.6433 -2.1954
 1019MOL0     H34474  -0.737   8.047   9.731 -0.1476  0.1130 -0.5291
 1019MOL0     H34475  -0.637   8.177   9.679 -3.6835  0.8024  2.1469
 1019MOL0     H34476  -0.483   8.119   9.876 -0.1179  0.0103 -0.0882
 1019MOL0     H34477  -0.599   7.991   9.927  2.5021 -0.9592 -0.9600
 1019MOL0     H34478  -0.768   8.192   9.960 -1.0265  6.2330  2.0807
 1019MOL0     H34479  -0.637   8.296   9.902  0.1082 -0.6911  0.1574
 1019MOL0     H34480  -0.636   8.110  10.148  1.3704  1.5286  2.0998
 1019MOL0     H34481  -0.496   8.186  10.100  1.3951 -2.2251  2.6926
 1019MOL0     H34482  -0.631   8.412  10.169 -0.8579 -0.0092  0.0890
 1019MOL0     H34483  -0.602   8.294  10.289  0.5257 -3.0316 -1.4840
 1019MOL0     H34484  -0.815   8.196  10.218  0.4801 -1.0822  0.1231
 1019MOL0     H34485  -0.856   8.341  10.120  2.2080  0.0743 -0.8770
 1019MOL0     H34486  -0.967   8.332  10.343  0.5561 -2.6842  0.4812
 1019MOL0     H34487  -0.802   8.344  10.413  1.3182  2.5508  0.2293
 1019MOL0     H34488  -0.950   8.560  10.376  0.3925 -2.5807  3.9134
 1019MOL0     H34489  -0.891   8.545  10.203 -0.9317  0.8869  0.6970
 1019MOL0     H34490  -0.322   7.842   9.619 -2.0404 -0.7029 -3.5521
 1019MOL0     H34491  -0.281   7.622   9.700  1.0044  3.1003 -1.1025
 1019MOL0     H34492  -0.299   7.285   9.888 -0.4253  1.2762 -2.0448
 1019MOL0     H34493  -0.195   7.070   9.925 -1.9206 -1.1180  1.4443
 1019MOL0     H34494   0.224   5.456  10.307  1.9668 -2.5539  0.0386
 1019MOL0     H34495   0.408   5.392  10.430 -0.9890  0.3383 -1.2988
 1019MOL0     H34496   0.523   5.181  10.983  0.1700  0.3219  1.9740
 1019MOL0     H34497   0.728   5.127  11.087  2.0170  4.4040  2.1621
 1019MOL0     H34498   1.124   5.277  10.876 -0.7251  0.5178 -0.3035
 1019MOL0     H34499   1.073   5.124  10.831  0.6120  1.4916 -0.0690
 1019MOL0     H34500   1.191   5.025  11.032 -0.1277  0.2923 -0.0004
 1019MOL0     H34501   1.280   5.103  10.908 -0.9580 -0.7579  0.0529
 1019MOL0     H34502   1.207   5.243  11.167  0.0149  1.4019 -0.3834
 1019MOL0     H34503   1.300   5.316  11.049 -0.7916  0.8838  1.8607
 1019MOL0     H34504   1.450   5.216  11.223  2.4040  2.9430 -3.0374
 1019MOL0     H34505   1.377   5.049  11.183 -3.1612  0.3964  0.1883
 1019MOL0     H34506   1.725   5.125  10.951 -0.5862  0.5822 -1.6568
 1019MOL0     H34507   0.932   5.369  10.799 -0.8021  0.4240  0.6988
 1019MOL0     H34508   0.724   5.427  10.705  0.2732  0.6631  0.0310
 1020MOL0     O34509   2.550   6.008   4.043  0.0121  0.0191 -0.2906
 1020MOL0     C34510   2.513   5.885   4.025 -0.2113  0.0327  0.1513
 1020MOL0     O34511   2.383   5.843   4.031  0.0412  0.8967  0.9501
 1020MOL0     C34512   2.277   5.917   4.062  1.0719  0.8138 -0.9293
 1020MOL0     C34513   2.156   5.844   4.072  0.3277  0.8063 -0.2346
 1020MOL0     C34514   2.037   5.910   4.107 -0.3399  0.1575  0.1718
 1020MOL0     C34515   2.033   6.046   4.130 -0.4066 -0.3482  0.0426
 1020MOL0     O34516   1.921   6.102   4.166  0.1239  0.3988  0.0378
 1020MOL0     C34517   1.811   6.034   4.234  0.1107 -0.2369 -0.8231
 1020MOL0     C34518   1.713   6.146   4.288  0.6168  0.1772 -0.2482
 1020MOL0     C34519   1.761   6.231   4.411 -0.3911 -0.4070  0.3857
 1020MOL0     C34520   1.679   6.360   4.395 -0.3829  0.3158  0.0957
 1020MOL0     C34521   1.728   6.475   4.485  0.0025 -0.7173 -1.2996
 1020MOL0     C34522   1.672   6.607   4.421 -0.1783 -0.4800  0.2973
 1020MOL0     C34523   1.704   6.732   4.502  0.5283  0.4899  0.1337
 1020MOL0     C34524   1.677   6.865   4.430  0.0542  0.6443  0.5404
 1020MOL0     N34525   1.715   6.987   4.492 -0.2314 -0.4075 -0.3910
 1020MOL0     C34526   1.840   7.033   4.525 -0.2148  0.3635 -0.9319
 1020MOL0     C34527   1.823   7.152   4.565 -0.4790 -0.6502  0.1495
 1020MOL0     C34528   1.932   7.226   4.609 -0.2418 -0.2466 -0.3137
 1020MOL0     C34529   1.965   7.366   4.542 -0.3653  0.7649  0.4231
 1020MOL0     C34530   2.072   7.364   4.442 -1.1593 -0.2088  0.9451
 1020MOL0     C34531   2.206   7.402   4.500 -0.2217  0.2778 -0.0556
 1020MOL0     O34532   2.292   7.382   4.390  0.3593  0.0562  0.4810
 1020MOL0     C34533   2.400   7.470   4.380 -0.2810  0.4471 -0.0627
 1020MOL0     C34534   2.445   7.497   4.254  0.3582 -0.0809  0.5084
 1020MOL0     C34535   2.558   7.578   4.234  0.5789 -0.2503  0.7599
 1020MOL0     C34536   2.615   7.652   4.344  0.2609 -0.1124  0.8832
 1020MOL0     C34537   2.728   7.740   4.327 -0.7839 -0.2936  0.0843
 1020MOL0     O34538   2.788   7.772   4.441 -0.2534  0.4171  0.0472
 1020MOL0     C34539   2.858   7.891   4.444 -0.1322  0.1083 -0.1719
 1020MOL0     C34540   2.968   7.916   4.356 -0.0865  0.3309 -0.3364
 1020MOL0     C34541   3.050   8.022   4.377  0.0543  0.0661 -0.3898
 1020MOL0     C34542   3.033   8.105   4.481 -0.7492 -0.6510 -0.1088
 1020MOL0     O34543   3.126   8.203   4.505 -0.1542 -0.1068  0.0826
 1020MOL0     C34544   3.269   8.180   4.490 -1.0097 -0.0778  0.7355
 1020MOL0     C34545   3.334   8.318   4.452 -0.2367 -0.2626  0.7265
 1020MOL0     C34546   3.482   8.317   4.479 -0.1445  0.2527 -0.5163
 1020MOL0     C34547   3.541   8.457   4.460 -0.3545  0.1278 -0.6358
 1020MOL0     C34548   3.689   8.477   4.474 -0.6406 -0.5421 -0.0511
 1020MOL0     C34549   3.778   8.404   4.372  0.4834  0.9083  0.0885
 1020MOL0     C34550   3.927   8.437   4.372 -0.1116  0.0397 -0.8811
 1020MOL0     C34551   3.997   8.320   4.311 -0.4005  0.1880 -0.7544
 1020MOL0    Cl34552   4.177   8.335   4.308 -0.1048 -0.1500  0.3391
 1020MOL0     C34553   2.915   8.107   4.559 -0.1470  1.1349 -0.4462
 1020MOL0     C34554   2.831   7.992   4.544  0.0086  0.7473 -0.4982
 1020MOL0     O34555   2.737   7.799   4.217  0.2119  0.2299 -0.5773
 1020MOL0     C34556   2.573   7.616   4.473 -0.0991  0.2108 -0.1313
 1020MOL0     C34557   2.473   7.519   4.488  0.0414 -0.4077  0.1276
 1020MOL0     N34558   1.692   7.183   4.580 -0.9960 -0.0879 -0.4212
 1020MOL0     N34559   1.629   7.081   4.536  0.5800  0.5979 -0.2478
 1020MOL0     C34560   2.150   6.121   4.115  1.0515 -0.3986 -0.2112
 1020MOL0     C34561   2.270   6.056   4.085 -0.2925 -0.1422  0.6369
 1020MOL0     C34562   2.621   5.788   4.004  0.0591 -0.2614  0.5596
 1020MOL0     C34563   2.600   5.662   3.936  0.3415 -0.5877 -1.1516
 1020MOL0     C34564   2.702   5.566   3.923  0.3616 -0.0213 -0.0458
 1020MOL0     C34565   2.832   5.601   3.976  0.1797 -0.1189 -0.0816
 1020MOL0     O34566   2.938   5.518   3.971  0.4794 -0.2310  0.7293
 1020MOL0     C34567   2.918   5.390   3.914 -0.0891  0.8325  0.9111
 1020MOL0     C34568   3.049   5.324   3.917 -0.1306  0.1056  0.7862
 1020MOL0     C34569   3.054   5.194   3.835 -0.0442 -0.3343  0.4613
 1020MOL0     C34570   3.125   5.190   3.695 -0.8417  0.4831  0.7060
 1020MOL0     C34571   3.139   5.043   3.657 -0.5992 -0.1965 -0.2379
 1020MOL0     C34572   3.144   4.927   3.622  0.4589  0.1041  0.4220
 1020MOL0     C34573   2.851   5.726   4.031  0.4903 -1.2420 -0.5197
 1020MOL0     C34574   2.750   5.815   4.056  1.1496 -0.7725  0.3951
 1020MOL0     H34575   2.154   5.735   4.066 -1.0544  0.8930 -2.6417
 1020MOL0     H34576   1.944   5.854   4.112 -0.4307  0.2935  0.0571
 1020MOL0     H34577   1.838   5.975   4.322 -1.6889 -2.1429 -1.4721
 1020MOL0     H34578   1.751   5.973   4.167 -0.7232  1.4662 -1.6881
 1020MOL0     H34579   1.618   6.096   4.311  0.1096  0.1562 -2.1754
 1020MOL0     H34580   1.690   6.210   4.202 -1.5527  2.4546  1.8730
 1020MOL0     H34581   1.867   6.250   4.393 -0.1764 -1.7963  0.0299
 1020MOL0     H34582   1.743   6.184   4.508  0.0257  0.0147  0.6717
 1020MOL0     H34583   1.683   6.392   4.291  1.8363 -0.3518 -0.0776
 1020MOL0     H34584   1.573   6.345   4.419 -1.0661 -0.1260 -2.8453
 1020MOL0     H34585   1.833   6.488   4.515 -1.0405  2.1655  1.7883
 1020MOL0     H34586   1.678   6.465   4.582  1.4479  1.2690 -0.2735
 1020MOL0     H34587   1.563   6.603   4.419 -0.2403  0.8647 -1.2076
 1020MOL0     H34588   1.715   6.614   4.320 -1.3530 -0.5085 -0.2203
 1020MOL0     H34589   1.639   6.728   4.590 -0.4866  0.1227 -0.6081
 1020MOL0     H34590   1.810   6.722   4.528  0.5227 -0.9512 -0.2877
 1020MOL0     H34591   1.576   6.864   4.389  0.3459  0.7066 -0.1824
 1020MOL0     H34592   1.735   6.855   4.338 -0.0339 -0.1276  0.5580
 1020MOL0     H34593   1.930   6.973   4.527 -0.6145 -0.2400  1.5141
 1020MOL0     H34594   2.023   7.166   4.614 -0.4496 -0.4970  0.7598
 1020MOL0     H34595   1.910   7.249   4.714  1.3085 -0.7707  0.1583
 1020MOL0     H34596   1.990   7.437   4.621  0.2804 -0.9267  1.7986
 1020MOL0     H34597   1.871   7.397   4.496 -0.7332 -1.6703 -0.6465
 1020MOL0     H34598   2.083   7.265   4.397  2.7917  0.0243  1.0165
 1020MOL0     H34599   2.054   7.438   4.364  1.4681  0.3446  0.7582
 1020MOL0     H34600   2.227   7.337   4.585 -1.8857  2.8416  2.5215
 1020MOL0     H34601   2.206   7.499   4.551 -0.5255  0.5031 -0.4726
 1020MOL0     H34602   2.391   7.467   4.165  0.0137 -1.2306  1.0957
 1020MOL0     H34603   2.591   7.607   4.135 -1.2468  2.9768  0.9242
 1020MOL0     H34604   2.987   7.847   4.275 -0.8988 -0.4077  0.0831
 1020MOL0     H34605   3.132   8.047   4.310  1.4707  0.1484  1.2879
 1020MOL0     H34606   3.304   8.109   4.414 -0.2519  4.0751 -3.2627
 1020MOL0     H34607   3.316   8.163   4.587  0.4794 -2.0076 -0.2661
 1020MOL0     H34608   3.277   8.397   4.503 -0.2932  0.9564 -1.1339
 1020MOL0     H34609   3.324   8.343   4.346 -1.3705  4.2977  1.6821
 1020MOL0     H34610   3.518   8.247   4.404 -0.0038  0.6874 -0.8600
 1020MOL0     H34611   3.496   8.279   4.580  0.0579 -0.9465 -0.9827
 1020MOL0     H34612   3.507   8.501   4.366 -1.6698  1.4455  0.4257
 1020MOL0     H34613   3.499   8.526   4.533  1.8028  1.5636 -0.6609
 1020MOL0     H34614   3.722   8.453   4.576  0.5138  3.0053  0.5804
 1020MOL0     H34615   3.703   8.582   4.446 -1.1026 -0.8257 -1.4145
 1020MOL0     H34616   3.742   8.410   4.269  1.9333 -1.9373 -0.6967
 1020MOL0     H34617   3.776   8.301   4.411 -0.0741  0.5109 -0.9576
 1020MOL0     H34618   3.952   8.528   4.317  2.4279 -0.9918 -1.6120
 1020MOL0     H34619   3.968   8.457   4.472 -0.0326  3.7620 -1.5130
 1020MOL0     H34620   3.949   8.301   4.214 -2.6150  0.5899  0.1939
 1020MOL0     H34621   3.977   8.235   4.378  1.8669 -0.8444 -1.2995
 1020MOL0     H34622   2.903   8.186   4.633 -2.5734 -1.5735  2.2979
 1020MOL0     H34623   2.732   7.991   4.588  0.1904  2.0328 -0.0061
 1020MOL0     H34624   2.646   7.640   4.550  0.4374  2.7849 -1.3546
 1020MOL0     H34625   2.452   7.492   4.591  0.4942  2.3255  1.0310
 1020MOL0     H34626   2.150   6.228   4.137 -3.1038 -0.4981  1.3165
 1020MOL0     H34627   2.354   6.123   4.094  0.1100 -0.6252  0.5385
 1020MOL0     H34628   2.498   5.636   3.907 -0.0374  0.3009 -0.6499
 1020MOL0     H34629   2.683   5.473   3.871  0.9089  0.0960 -0.4700
 1020MOL0     H34630   2.887   5.397   3.809  3.0555 -1.6051 -0.3538
 1020MOL0     H34631   2.850   5.322   3.966 -1.7039  0.2908 -1.6751
 1020MOL0     H34632   3.137   5.384   3.892  0.2558 -0.4610  0.7706
 1020MOL0     H34633   3.070   5.309   4.023  1.9423 -0.4016  0.3564
 1020MOL0     H34634   2.953   5.150   3.833 -0.1563 -0.1334  1.4641
 1020MOL0     H34635   3.119   5.129   3.893  1.2180 -0.2597 -0.8161
 1020MOL0     H34636   3.051   5.232   3.627  1.1642  2.4305 -0.4204
 1020MOL0     H34637   3.220   5.242   3.678 -1.8008  1.3975 -2.5446
 1020MOL0     H34638   3.143   4.824   3.590  3.6329  0.3629 -0.8277
 1020MOL0     H34639   2.954   5.749   4.057 -0.6336  3.5160  0.7234
 1020MOL0     H34640   2.768   5.912   4.103  0.7399 -1.0348  1.1060
 1021MOL0     O34641   9.179   3.291   2.421 -0.1488 -0.0287 -0.3783
 1021MOL0     C34642   9.137   3.262   2.531 -0.2713  0.4293  0.3105
 1021MOL0     O34643   9.133   3.134   2.581  0.4730 -0.3063  0.5240
 1021MOL0     C34644   9.157   3.035   2.488 -0.4665  0.2978  0.2415
 1021MOL0     C34645   9.082   3.010   2.375 -0.3366  0.1479 -0.6607
 1021MOL0     C34646   9.105   2.894   2.296  0.1294  0.5159 -0.8627
 1021MOL0     C34647   9.198   2.796   2.345 -1.3134  1.6136 -0.7688
 1021MOL0     O34648   9.209   2.666   2.295 -0.0858 -0.4622  0.2047
 1021MOL0     C34649   9.217   2.659   2.156  0.3954  0.8614  0.3849
 1021MOL0     C34650   9.095   2.609   2.084 -0.0901  0.0373 -0.0094
 1021MOL0     C34651   9.031   2.493   2.155 -0.0402  0.1335 -0.7485
 1021MOL0     C34652   8.904   2.440   2.100  0.5186  0.1600 -0.3572
 1021MOL0     C34653   8.886   2.301   2.183 -0.7452 -0.5619 -0.5518
 1021MOL0     C34654   8.758   2.228   2.138  0.2483  0.1058 -1.0877
 1021MOL0     C34655   8.768   2.081   2.146  0.1245  0.4652  0.9951
 1021MOL0     C34656   8.641   1.994   2.160  0.1264 -0.9837 -0.2368
 1021MOL0     N34657   8.574   2.031   2.293  0.1540 -0.1529 -0.8631
 1021MOL0     C34658   8.633   2.009   2.420  1.0852  0.3128  0.9094
 1021MOL0     C34659   8.583   2.102   2.491  0.3049 -0.4582 -0.0765
 1021MOL0     C34660   8.607   2.122   2.637 -1.2676  0.5564  0.3140
 1021MOL0     C34661   8.734   2.204   2.672  0.2532  0.3700 -0.0510
 1021MOL0     C34662   8.750   2.231   2.817 -0.0905 -0.6003 -0.2739
 1021MOL0     C34663   8.789   2.110   2.906 -0.7213 -0.0151  0.6264
 1021MOL0     O34664   8.925   2.067   2.864  0.1117 -0.2842  0.4835
 1021MOL0     C34665   8.964   1.942   2.910  0.2935 -0.5042 -0.3231
 1021MOL0     C34666   9.067   1.939   3.000  0.5900  0.5502  0.2062
 1021MOL0     C34667   9.101   1.818   3.068 -0.4989 -0.7839 -0.4112
 1021MOL0     C34668   9.046   1.698   3.030  0.6548 -0.1723 -0.1333
 1021MOL0     C34669   9.083   1.569   3.102  0.1394 -1.0083 -0.1550
 1021MOL0     O34670   8.993   1.464   3.086  0.2152 -0.2889  0.0311
 1021MOL0     C34671   9.006   1.352   3.160  0.0159 -0.7277 -0.2821
 1021MOL0     C34672   8.995   1.226   3.101 -0.9347  0.9601  0.5006
 1021MOL0     C34673   9.014   1.109   3.186 -0.0593 -0.5978  0.7877
 1021MOL0     C34674   9.052   1.121   3.316  0.4289 -0.5551 -0.5598
 1021MOL0     O34675   9.074   1.010   3.384  0.1361 -0.3195  0.9352
 1021MOL0     C34676   8.972   0.919   3.409  0.2331 -0.6033 -0.1137
 1021MOL0     C34677   9.013   0.786   3.478  0.2916 -0.4477  0.6025
 1021MOL0     C34678   9.088   0.702   3.373 -0.0180 -0.4460  0.7173
 1021MOL0     C34679   9.123   0.566   3.415  0.0257  0.0359  0.2350
 1021MOL0     C34680   9.248   0.516   3.340  0.4573  0.4318  0.4204
 1021MOL0     C34681   9.293   0.376   3.354 -0.7350 -0.7103 -1.1348
 1021MOL0     C34682   9.335   0.330   3.491  0.7319  0.4070 -0.1593
 1021MOL0     C34683   9.404   0.197   3.490 -1.6452 -0.7797  0.4089
 1021MOL0    Cl34684   9.474   0.192   3.656 -0.4109  0.2922 -0.1023
 1021MOL0     C34685   9.056   1.248   3.375 -0.4750  0.0487 -0.2694
 1021MOL0     C34686   9.033   1.357   3.300  0.4700 -0.9988  0.2313
 1021MOL0     O34687   9.195   1.563   3.157  0.5828  0.3126  0.1496
 1021MOL0     C34688   8.958   1.704   2.926 -0.4487 -0.4646 -0.0171
 1021MOL0     C34689   8.916   1.826   2.864 -0.3650  0.5159  0.2329
 1021MOL0     N34690   8.499   2.190   2.427 -0.1175  0.3529  0.4330
 1021MOL0     N34691   8.476   2.129   2.316 -0.1022 -0.3221 -0.1999
 1021MOL0     C34692   9.276   2.826   2.455  0.8407  0.5719  0.0726
 1021MOL0     C34693   9.253   2.945   2.522  0.3148 -0.1986 -0.7593
 1021MOL0     C34694   9.109   3.369   2.621  1.0524 -1.0538  0.3224
 1021MOL0     C34695   9.075   3.502   2.570 -0.4664  0.5698  0.0160
 1021MOL0     C34696   9.058   3.605   2.666 -0.4006 -0.1906 -0.0624
 1021MOL0     C34697   9.064   3.587   2.804  1.5654 -0.8540  0.1104
 1021MOL0     O34698   9.013   3.669   2.900 -0.1830  0.1769  0.1280
 1021MOL0     C34699   8.982   3.804   2.872  0.2588 -0.1829 -0.1082
 1021MOL0     C34700   8.837   3.816   2.815 -0.6939  0.5948 -0.6453
 1021MOL0     C34701   8.822   3.951   2.744 -0.1832  0.8381  0.5387
 1021MOL0     C34702   8.684   3.957   2.675  0.0885 -0.4593  0.1980
 1021MOL0     C34703   8.668   3.886   2.542 -0.3195 -0.5476 -1.3003
 1021MOL0     C34704   8.677   3.832   2.433  0.4986 -0.4926  0.5567
 1021MOL0     C34705   9.090   3.458   2.852  0.4957 -0.1022  0.1110
 1021MOL0     C34706   9.115   3.357   2.767  0.0763  0.3968  0.9089
 1021MOL0     H34707   8.998   3.074   2.351  0.2937  0.7530 -1.3004
 1021MOL0     H34708   9.040   2.863   2.214  3.2559 -1.3208 -2.8473
 1021MOL0     H34709   9.296   2.585   2.140  0.5351  0.7517  1.5032
 1021MOL0     H34710   9.242   2.750   2.100 -2.5504  1.2375 -0.5120
 1021MOL0     H34711   9.116   2.580   1.981 -2.4008 -1.6978 -0.0533
 1021MOL0     H34712   9.023   2.691   2.075 -0.8271 -0.7935 -2.1682
 1021MOL0     H34713   9.013   2.526   2.257  0.0110 -0.5434 -0.5124
 1021MOL0     H34714   9.099   2.407   2.159  0.3371  0.3440 -1.9761
 1021MOL0     H34715   8.821   2.511   2.109  0.0625 -0.5515  1.4784
 1021MOL0     H34716   8.911   2.426   1.992 -0.6499  2.4316 -0.7801
 1021MOL0     H34717   8.878   2.323   2.289  0.7273  0.1168 -0.5475
 1021MOL0     H34718   8.977   2.241   2.180  2.6207  3.9491 -4.0577
 1021MOL0     H34719   8.755   2.255   2.032  5.8682  1.8510 -1.1146
 1021MOL0     H34720   8.666   2.253   2.192 -0.4459 -2.2437 -1.0889
 1021MOL0     H34721   8.835   2.039   2.070  2.5739  1.8971  2.2353
 1021MOL0     H34722   8.818   2.058   2.241  1.6156  0.7645  0.3092
 1021MOL0     H34723   8.669   1.889   2.171  2.1106 -0.5268 -0.6391
 1021MOL0     H34724   8.565   2.002   2.081  0.5725 -0.8395 -0.6547
 1021MOL0     H34725   8.697   1.927   2.449 -0.1050 -1.4713 -1.1857
 1021MOL0     H34726   8.618   2.025   2.687  1.4994  1.4918  1.7019
 1021MOL0     H34727   8.521   2.180   2.672 -2.7307 -1.3146  0.0010
 1021MOL0     H34728   8.708   2.301   2.628  3.5390  1.3927  0.0172
 1021MOL0     H34729   8.825   2.156   2.633 -0.9190 -1.3524 -0.8003
 1021MOL0     H34730   8.821   2.313   2.835 -1.2210  0.4673 -0.5384
 1021MOL0     H34731   8.655   2.266   2.859 -0.3771 -1.5602 -0.0999
 1021MOL0     H34732   8.709   2.036   2.897 -0.5838 -0.2089  0.9754
 1021MOL0     H34733   8.789   2.152   3.007 -0.4365 -0.5184  0.8389
 1021MOL0     H34734   9.124   2.030   3.019 -0.8347  1.1396  1.9483
 1021MOL0     H34735   9.161   1.814   3.158 -1.8765  1.1169  0.6704
 1021MOL0     H34736   8.950   1.211   3.003 -0.6507 -1.0374  0.6378
 1021MOL0     H34737   8.989   1.023   3.124 -2.9651  0.6096  0.0830
 1021MOL0     H34738   8.920   0.889   3.318 -1.0877 -1.0848  0.7729
 1021MOL0     H34739   8.895   0.968   3.468 -0.2705  1.6537 -2.5111
 1021MOL0     H34740   8.926   0.732   3.516  0.2286  0.0237  1.1448
 1021MOL0     H34741   9.079   0.815   3.561  0.5441  2.9222 -0.6562
 1021MOL0     H34742   9.188   0.745   3.361 -0.2161 -0.4650 -1.2661
 1021MOL0     H34743   9.025   0.699   3.284  0.6837  3.1293 -0.0691
 1021MOL0     H34744   9.154   0.573   3.520  2.8348  1.2265 -0.5692
 1021MOL0     H34745   9.053   0.483   3.407 -0.6986  0.4807  1.5471
 1021MOL0     H34746   9.329   0.577   3.379  0.6184  2.2600 -2.5154
 1021MOL0     H34747   9.250   0.534   3.232 -0.2858 -0.2828  0.2755
 1021MOL0     H34748   9.385   0.374   3.294  1.3520 -0.1796  1.8029
 1021MOL0     H34749   9.219   0.305   3.316  0.2669 -3.6688  1.9389
 1021MOL0     H34750   9.398   0.402   3.545  0.2357  0.4021  0.4274
 1021MOL0     H34751   9.242   0.318   3.546 -1.9228  3.3913 -3.4936
 1021MOL0     H34752   9.468   0.187   3.402 -0.5931  2.3582  0.6624
 1021MOL0     H34753   9.317   0.131   3.488 -1.8424 -0.5338  0.6820
 1021MOL0     H34754   9.081   1.245   3.480 -1.4063 -0.8423 -0.0471
 1021MOL0     H34755   9.029   1.450   3.357 -1.0794 -2.4957  2.7509
 1021MOL0     H34756   8.903   1.616   2.894 -0.1774 -0.3251 -0.9002
 1021MOL0     H34757   8.852   1.826   2.776  0.3659  2.5897 -0.3701
 1021MOL0     H34758   9.342   2.757   2.506 -0.3881  0.2264  1.2462
 1021MOL0     H34759   9.317   2.959   2.610 -0.3020  0.8060 -0.4526
 1021MOL0     H34760   9.047   3.515   2.466 -0.3423 -0.1494 -0.1125
 1021MOL0     H34761   9.025   3.702   2.629  0.5073 -1.1002 -3.6467
 1021MOL0     H34762   9.052   3.841   2.796  2.5639 -1.9604  0.9914
 1021MOL0     H34763   8.994   3.853   2.968  0.5357 -2.8493  1.3332
 1021MOL0     H34764   8.826   3.738   2.739  1.2990  1.9641 -2.4684
 1021MOL0     H34765   8.755   3.802   2.886 -0.7280  0.6940 -0.6643
 1021MOL0     H34766   8.891   3.963   2.660 -2.2488 -1.4053 -1.6505
 1021MOL0     H34767   8.836   4.032   2.816 -0.3486  2.1856 -0.9009
 1021MOL0     H34768   8.602   3.921   2.738 -0.8337  3.6529  1.7059
 1021MOL0     H34769   8.663   4.062   2.652  0.1861 -0.6893 -0.9915
 1021MOL0     H34770   8.698   3.783   2.340 -1.2116  0.7262 -0.5383
 1021MOL0     H34771   9.084   3.457   2.960 -0.6583 -1.0948  0.0620
 1021MOL0     H34772   9.142   3.257   2.800  0.5534  1.5027  4.1535
 1022MOL0     O34773   7.596   6.974  11.400  0.0822  0.2170  0.0891
 1022MOL0     C34774   7.646   6.968  11.288  0.2233  1.2446 -0.7022
 1022MOL0     O34775   7.576   7.000  11.171 -0.3669 -0.4470 -0.4549
 1022MOL0     C34776   7.451   7.045  11.196 -0.2577  0.0209 -0.0691
 1022MOL0     C34777   7.425   7.166  11.267  0.3504  0.2339  0.0835
 1022MOL0     C34778   7.293   7.206  11.292 -0.5161  0.6975  0.7807
 1022MOL0     C34779   7.186   7.135  11.230 -0.0976  1.1235 -0.9054
 1022MOL0     O34780   7.066   7.195  11.217 -0.5785 -0.3825  0.1012
 1022MOL0     C34781   6.947   7.125  11.253  0.3172 -1.4230  0.1973
 1022MOL0     C34782   6.832   7.221  11.279 -0.6964 -0.2649 -0.6880
 1022MOL0     C34783   6.699   7.139  11.289 -0.5707  0.1391  0.5988
 1022MOL0     C34784   6.687   7.037  11.407  0.1935 -0.2026  1.1857
 1022MOL0     C34785   6.536   7.004  11.416 -0.5023  0.0573  0.4253
 1022MOL0     C34786   6.501   6.886  11.517 -0.4581  0.6479  0.5355
 1022MOL0     C34787   6.364   6.835  11.484 -0.2317  0.1029  0.2455
 1022MOL0     C34788   6.300   6.762  11.613 -0.4388  0.3233 -0.9717
 1022MOL0     N34789   6.301   6.831  11.743 -0.7417  0.4434 -0.0032
 1022MOL0     C34790   6.357   6.794  11.859 -0.4657 -0.1372 -0.1049
 1022MOL0     C34791   6.325   6.881  11.955 -0.2253 -0.6033  0.1682
 1022MOL0     C34792   6.361   6.876  12.101 -0.5400 -0.1180  0.4643
 1022MOL0     C34793   6.295   6.770  12.190 -0.1542  0.9265  0.5321
 1022MOL0     C34794   6.162   6.825  12.240  0.0875 -1.0908  0.5900
 1022MOL0     C34795   6.079   6.716  12.310  0.0708  0.2926  0.0391
 1022MOL0     O34796   5.953   6.770  12.345  0.1283 -0.4887 -0.7268
 1022MOL0     C34797   5.916   6.741  12.474  0.2745 -0.2920  0.5502
 1022MOL0     C34798   5.851   6.627  12.521  0.0405  0.1960 -0.3962
 1022MOL0     C34799   5.818   6.603  12.658  0.0235 -0.1546  0.1874
 1022MOL0     C34800   5.856   6.695  12.748  0.3304  0.3075 -0.0231
 1022MOL0     C34801   5.837   6.680  12.896  0.0857 -0.5355 -0.0967
 1022MOL0     O34802   5.828   6.549  12.936  0.0441  0.2719  0.1759
 1022MOL0     C34803   5.839   6.527  13.071  0.0693  0.3166  0.8695
 1022MOL0     C34804   5.726   6.504  13.150 -0.5216 -0.4875  0.5870
 1022MOL0     C34805   5.742   6.484  13.292 -0.5008  0.2903 -0.4746
 1022MOL0     C34806   5.868   6.475  13.349 -1.4995 -0.0230 -1.1658
 1022MOL0     O34807   5.897   6.454  13.483 -0.7480  0.5451  0.4690
 1022MOL0     C34808   5.779   6.433  13.573  0.9042  0.6596  0.5364
 1022MOL0     C34809   5.829   6.367  13.696 -0.5845  0.1506 -0.6038
 1022MOL0     C34810   5.730   6.370  13.809 -0.5924 -0.3395  0.3279
 1022MOL0     C34811   5.773   6.265  13.913  0.1882 -1.0245  0.0217
 1022MOL0     C34812   5.684   6.275  14.045 -0.0121 -0.2296  0.0356
 1022MOL0     C34813   5.744   6.212  14.167 -0.4398 -0.1459 -0.3971
 1022MOL0     C34814   5.637   6.210  14.279 -0.1441  0.3034 -0.5283
 1022MOL0     C34815   5.633   6.337  14.361 -0.1060 -1.2085 -0.9527
 1022MOL0    Cl34816   5.779   6.349  14.476  0.0401  0.0861  0.4747
 1022MOL0     C34817   5.978   6.492  13.269  0.5890 -0.3135  0.1834
 1022MOL0     C34818   5.965   6.519  13.134  0.2838 -0.9526  0.1654
 1022MOL0     O34819   5.810   6.780  12.962  0.1082  0.4242 -0.2060
 1022MOL0     C34820   5.934   6.806  12.714  0.8135 -0.4609  0.4081
 1022MOL0     C34821   5.952   6.835  12.576 -0.1594  0.2247 -0.5901
 1022MOL0     N34822   6.245   6.976  11.891  0.2565 -1.3289 -0.2460
 1022MOL0     N34823   6.229   6.948  11.771 -0.1055  0.6682  0.6305
 1022MOL0     C34824   7.215   7.028  11.153  0.4491  0.8154  0.3432
 1022MOL0     C34825   7.345   6.980  11.139 -0.7875  1.1542 -0.3909
 1022MOL0     C34826   7.784   6.911  11.282  0.2933 -0.4196 -0.0958
 1022MOL0     C34827   7.840   6.841  11.390  0.6672  0.1158  0.0610
 1022MOL0     C34828   7.975   6.796  11.388  0.5482  0.4383 -0.5964
 1022MOL0     C34829   8.054   6.817  11.278 -0.0545  0.8405 -0.6813
 1022MOL0     O34830   8.189   6.792  11.295  0.8404 -0.5677 -1.0102
 1022MOL0     C34831   8.289   6.836  11.208 -0.0928 -0.5808  1.1257
 1022MOL0     C34832   8.363   6.718  11.151 -0.0613  0.0894  0.1869
 1022MOL0     C34833   8.476   6.756  11.054  0.0095  0.9795 -0.1999
 1022MOL0     C34834   8.420   6.776  10.912 -0.4788  0.3051 -0.1101
 1022MOL0     C34835   8.517   6.838  10.827 -0.3413 -0.2366  0.1410
 1022MOL0     C34836   8.599   6.885  10.753  0.8391 -1.0763 -0.3600
 1022MOL0     C34837   7.987   6.880  11.170  0.1571  0.3291  0.0510
 1022MOL0     C34838   7.859   6.920  11.170  0.3183 -0.2881 -0.1313
 1022MOL0     H34839   7.508   7.224  11.305  0.1882 -0.0909  0.9518
 1022MOL0     H34840   7.287   7.303  11.340  0.9694  1.6586 -0.8368
 1022MOL0     H34841   6.973   7.059  11.336  2.8506 -0.2784  0.4225
 1022MOL0     H34842   6.914   7.064  11.168 -0.5910 -0.9145  0.1757
 1022MOL0     H34843   6.817   7.284  11.190 -3.4767  1.0650  0.5916
 1022MOL0     H34844   6.850   7.280  11.369  3.1572 -3.0365  0.6247
 1022MOL0     H34845   6.664   7.117  11.187  2.3073  2.2314 -1.0068
 1022MOL0     H34846   6.629   7.219  11.316  0.5498  1.0901  0.7865
 1022MOL0     H34847   6.735   6.942  11.380 -2.0376 -1.2825  0.7633
 1022MOL0     H34848   6.727   7.080  11.499 -1.7814  1.4338  1.3291
 1022MOL0     H34849   6.507   6.981  11.313  0.7525  2.1251 -0.4563
 1022MOL0     H34850   6.482   7.089  11.460  3.2200  1.4804  2.7068
 1022MOL0     H34851   6.517   6.912  11.622 -0.6160 -0.0985  0.7471
 1022MOL0     H34852   6.567   6.799  11.505 -0.1782  0.8590  0.5431
 1022MOL0     H34853   6.295   6.912  11.448 -0.4389  0.4710  1.3693
 1022MOL0     H34854   6.366   6.756  11.408 -0.5142 -0.3898  0.7392
 1022MOL0     H34855   6.356   6.668  11.618  0.0553  0.6494 -0.2577
 1022MOL0     H34856   6.196   6.734  11.594 -0.5739  0.6502 -0.7216
 1022MOL0     H34857   6.421   6.708  11.871 -3.0588 -1.8497  3.1900
 1022MOL0     H34858   6.337   6.973  12.144 -0.7105  0.1025 -0.1293
 1022MOL0     H34859   6.467   6.852  12.090 -0.6979 -0.7717  0.2541
 1022MOL0     H34860   6.369   6.750  12.269 -0.2763  2.4960  1.0835
 1022MOL0     H34861   6.281   6.673  12.141 -1.6412  1.3212  0.1290
 1022MOL0     H34862   6.179   6.915  12.299 -2.1743 -0.1471 -0.0842
 1022MOL0     H34863   6.114   6.858  12.148  2.2154 -0.0573 -0.2144
 1022MOL0     H34864   6.130   6.687  12.403  0.3673  0.2033 -0.1517
 1022MOL0     H34865   6.082   6.634  12.238 -2.2479 -0.0735  0.2925
 1022MOL0     H34866   5.812   6.550  12.455  2.4411  0.7053 -2.5504
 1022MOL0     H34867   5.740   6.530  12.677 -0.5197 -0.7312 -3.4966
 1022MOL0     H34868   5.625   6.507  13.111 -1.9882  1.4649  4.1000
 1022MOL0     H34869   5.656   6.480  13.359  0.2412 -2.2434  0.4529
 1022MOL0     H34870   5.712   6.362  13.524  3.1071 -0.7543 -0.5641
 1022MOL0     H34871   5.744   6.534  13.597  2.2367  0.5509  3.4049
 1022MOL0     H34872   5.922   6.416  13.726 -0.3438 -1.0295  0.7033
 1022MOL0     H34873   5.865   6.265  13.679 -2.0026 -1.0633  2.8589
 1022MOL0     H34874   5.633   6.346  13.766 -1.7434  3.1406  0.6229
 1022MOL0     H34875   5.719   6.473  13.844  1.8920 -0.6438  2.3411
 1022MOL0     H34876   5.770   6.170  13.860  1.7923 -0.2059 -1.6767
 1022MOL0     H34877   5.875   6.294  13.941  1.1240 -0.8438 -3.1904
 1022MOL0     H34878   5.586   6.229  14.030 -0.8156 -0.2717  4.1001
 1022MOL0     H34879   5.662   6.381  14.062 -0.9381  0.1898 -3.2201
 1022MOL0     H34880   5.835   6.264  14.198 -2.1132  1.5284  2.0679
 1022MOL0     H34881   5.766   6.108  14.140 -1.6763 -0.3528 -0.6838
 1022MOL0     H34882   5.541   6.190  14.231  0.2928 -0.5078 -1.0806
 1022MOL0     H34883   5.657   6.129  14.350  3.1946  0.6924 -0.8710
 1022MOL0     H34884   5.548   6.335  14.429  3.3629  0.7276  4.0461
 1022MOL0     H34885   5.622   6.423  14.294  0.5918 -0.3981 -0.0584
 1022MOL0     H34886   6.075   6.470  13.313  0.5077 -2.7803 -0.7286
 1022MOL0     H34887   6.043   6.537  13.061  1.3781 -0.7430  1.3521
 1022MOL0     H34888   5.959   6.889  12.778 -0.2295  3.2047 -3.4484
 1022MOL0     H34889   6.002   6.920  12.530  5.1594 -2.8045 -1.2484
 1022MOL0     H34890   7.139   6.995  11.084  0.3995  1.6270 -0.0039
 1022MOL0     H34891   7.372   6.914  11.057 -2.7529 -0.3614  0.1151
 1022MOL0     H34892   7.774   6.815  11.473  1.8814  3.5571  2.3366
 1022MOL0     H34893   8.012   6.745  11.476 -0.2545  2.7649  1.2170
 1022MOL0     H34894   8.358   6.900  11.265 -0.3175 -1.1842  2.0938
 1022MOL0     H34895   8.244   6.895  11.128 -2.6984 -1.5631  1.7863
 1022MOL0     H34896   8.416   6.676  11.237 -0.7024  1.1836  1.1536
 1022MOL0     H34897   8.285   6.653  11.110  1.4561 -1.9316  0.3721
 1022MOL0     H34898   8.540   6.668  11.067 -0.8761 -0.3647 -3.8514
 1022MOL0     H34899   8.535   6.842  11.086  1.2170 -0.6631  2.4144
 1022MOL0     H34900   8.396   6.681  10.864  3.2087 -1.0356  0.3310
 1022MOL0     H34901   8.335   6.842  10.931  1.1574  1.6665  3.2306
 1022MOL0     H34902   8.665   6.921  10.676 -2.2588  2.0366 -1.8612
 1022MOL0     H34903   8.034   6.903  11.075 -0.6048 -2.4813 -1.1049
 1022MOL0     H34904   7.818   6.948  11.073 -0.4034 -1.0999 -0.0707
 1023MOL0     O34905   7.774   2.048   8.269 -0.2324 -1.7182 -0.3048
 1023MOL0     C34906   7.790   2.174   8.278  0.0735  0.5801  0.2135
 1023MOL0     O34907   7.914   2.235   8.272  0.1315  0.4440 -0.3943
 1023MOL0     C34908   7.992   2.194   8.169  0.0246 -0.7712  0.9889
 1023MOL0     C34909   8.130   2.218   8.169 -0.6277 -0.3779 -0.0367
 1023MOL0     C34910   8.215   2.179   8.065 -1.1545  1.1686 -0.1884
 1023MOL0     C34911   8.161   2.118   7.950  0.5914  0.7285  0.2372
 1023MOL0     O34912   8.228   2.077   7.838 -0.3445  0.0014  0.3409
 1023MOL0     C34913   8.360   2.020   7.873 -0.7268  0.0581  1.2131
 1023MOL0     C34914   8.356   1.888   7.788  0.3205 -0.7706 -0.1172
 1023MOL0     C34915   8.348   1.900   7.636 -0.8475 -0.3323  0.0933
 1023MOL0     C34916   8.372   1.773   7.555  0.5569 -0.3713  0.6772
 1023MOL0     C34917   8.383   1.805   7.400  0.3100 -1.2905 -1.1873
 1023MOL0     C34918   8.436   1.674   7.320  0.2429 -1.0237  0.3170
 1023MOL0     C34919   8.472   1.697   7.173 -0.4146  1.0737 -0.0465
 1023MOL0     C34920   8.595   1.782   7.151  0.0270 -0.5809 -0.2083
 1023MOL0     N34921   8.667   1.769   7.022  0.0476 -0.2517  0.9495
 1023MOL0     C34922   8.649   1.847   6.902 -0.4527 -0.1162  0.5563
 1023MOL0     C34923   8.702   1.772   6.805  0.0184  0.2267 -0.3956
 1023MOL0     C34924   8.720   1.819   6.661 -0.5353 -0.7160 -1.4368
 1023MOL0     C34925   8.878   1.836   6.645 -0.3321 -0.2485 -0.1491
 1023MOL0     C34926   8.907   1.823   6.495  0.4934 -0.1309 -0.0400
 1023MOL0     C34927   8.860   1.948   6.425 -0.5034 -0.3513 -0.6320
 1023MOL0     O34928   8.884   1.945   6.289 -0.2417  0.1120 -0.4720
 1023MOL0     C34929   8.999   2.010   6.245  0.0911 -0.9960 -0.0401
 1023MOL0     C34930   8.988   2.065   6.111 -0.3619  0.0709 -0.5948
 1023MOL0     C34931   9.095   2.122   6.044 -1.4001  0.1020  0.4185
 1023MOL0     C34932   9.226   2.108   6.107  0.0054  0.1539 -0.3106
 1023MOL0     C34933   9.346   2.150   6.028 -0.2684 -1.0016 -0.0226
 1023MOL0     O34934   9.342   2.229   5.916  0.8565 -0.1164  0.0711
 1023MOL0     C34935   9.457   2.245   5.845  0.0656 -0.3233  0.4050
 1023MOL0     C34936   9.540   2.140   5.790 -0.1964  0.3522 -0.9464
 1023MOL0     C34937   9.661   2.158   5.723  0.1917  0.5193 -0.4477
 1023MOL0     C34938   9.696   2.287   5.691 -0.3780  0.7786  0.2558
 1023MOL0     O34939   9.794   2.317   5.606 -0.3879  0.1996  0.2480
 1023MOL0     C34940   9.895   2.385   5.676  0.3355 -0.2985  0.2086
 1023MOL0     C34941   9.977   2.468   5.580 -0.5993  0.4667  0.2756
 1023MOL0     C34942  10.108   2.499   5.630 -1.1310  0.6887 -0.1507
 1023MOL0     C34943  10.192   2.579   5.524  0.1490  0.7459 -0.5434
 1023MOL0     C34944  10.315   2.648   5.579 -0.8745  0.1831  0.4406
 1023MOL0     C34945  10.377   2.750   5.480  0.0577 -0.6071 -0.1702
 1023MOL0     C34946  10.450   2.677   5.364  0.5014 -0.0373 -0.4616
 1023MOL0     C34947  10.498   2.789   5.273  0.7593 -0.9675 -0.2402
 1023MOL0    Cl34948  10.368   2.864   5.173 -0.1841 -0.0869  0.1170
 1023MOL0     C34949   9.622   2.393   5.743  0.3607  0.0708 -0.3091
 1023MOL0     C34950   9.499   2.375   5.817 -0.2685  1.4505 -0.9286
 1023MOL0     O34951   9.453   2.109   6.078  1.7614  0.3798 -0.3671
 1023MOL0     C34952   9.241   2.059   6.239 -0.8792  0.8683 -0.6267
 1023MOL0     C34953   9.127   2.015   6.308 -0.3650 -0.3795  0.2195
 1023MOL0     N34954   8.752   1.656   6.868  0.7898  0.3897  0.4716
 1023MOL0     N34955   8.720   1.655   6.993  0.3589  0.8412  0.2193
 1023MOL0     C34956   8.016   2.098   7.950  0.0210  0.1376  0.4523
 1023MOL0     C34957   7.936   2.133   8.054 -0.0383 -0.2644 -0.3165
 1023MOL0     C34958   7.672   2.265   8.310 -0.7596 -0.8310 -0.0688
 1023MOL0     C34959   7.547   2.212   8.312 -0.3614  0.0858  0.1463
 1023MOL0     C34960   7.438   2.303   8.321  0.3267  0.2864  0.2402
 1023MOL0     C34961   7.451   2.436   8.335  0.5015  0.6443 -0.1873
 1023MOL0     O34962   7.338   2.508   8.338  0.5767 -0.2516 -0.9698
 1023MOL0     C34963   7.356   2.646   8.370  0.3451 -0.2703 -1.1516
 1023MOL0     C34964   7.228   2.677   8.447  0.7685  0.2693  0.3897
 1023MOL0     C34965   7.231   2.602   8.583 -0.7527 -0.3881  0.1630
 1023MOL0     C34966   7.199   2.696   8.691  0.9675  0.1834 -0.0226
 1023MOL0     C34967   7.083   2.786   8.676 -0.0834 -0.4015  0.0284
 1023MOL0     C34968   6.993   2.865   8.656 -0.3581  1.1699  0.0158
 1023MOL0     C34969   7.580   2.485   8.346  0.6417  0.1459  0.1696
 1023MOL0     C34970   7.689   2.396   8.342 -0.7647  0.3133 -0.0863
 1023MOL0     H34971   8.169   2.266   8.258  2.5347 -0.4094 -1.2773
 1023MOL0     H34972   8.323   2.188   8.080 -0.9831 -1.5908  0.6906
 1023MOL0     H34973   8.372   1.995   7.979 -1.1221  0.6473  1.3944
 1023MOL0     H34974   8.434   2.093   7.839 -3.3273  0.6402 -4.0919
 1023MOL0     H34975   8.264   1.836   7.818 -1.8920  1.7461 -2.1358
 1023MOL0     H34976   8.442   1.822   7.803  2.0291  1.0634 -1.3675
 1023MOL0     H34977   8.433   1.967   7.618 -1.3536  0.1310 -0.5685
 1023MOL0     H34978   8.261   1.956   7.602 -1.3305  1.4056  3.6450
 1023MOL0     H34979   8.459   1.715   7.589  1.0041  0.3495  0.7929
 1023MOL0     H34980   8.285   1.710   7.576 -0.1647  1.0524  2.1907
 1023MOL0     H34981   8.448   1.893   7.395 -2.2109  0.6301 -1.9013
 1023MOL0     H34982   8.289   1.846   7.363  0.7485 -0.1186 -1.0590
 1023MOL0     H34983   8.368   1.589   7.332  0.9901 -1.4822  1.4786
 1023MOL0     H34984   8.529   1.645   7.369 -0.6315 -1.8416  1.5524
 1023MOL0     H34985   8.491   1.601   7.124 -2.0250 -0.3755  2.0106
 1023MOL0     H34986   8.381   1.741   7.131 -2.0616 -3.6920 -2.2982
 1023MOL0     H34987   8.673   1.776   7.227  0.4902  2.2397 -0.3761
 1023MOL0     H34988   8.554   1.882   7.158  0.0535 -0.6783  2.0812
 1023MOL0     H34989   8.609   1.948   6.893  1.9600  1.1426  2.7130
 1023MOL0     H34990   8.661   1.910   6.647 -1.4853 -0.6952  1.7449
 1023MOL0     H34991   8.701   1.731   6.599  3.2099 -2.4607 -0.4470
 1023MOL0     H34992   8.931   1.757   6.697  2.4695  2.0960  0.7931
 1023MOL0     H34993   8.913   1.933   6.681 -1.9761  0.3038  0.0633
 1023MOL0     H34994   9.013   1.795   6.490  0.4373 -0.6759  1.3548
 1023MOL0     H34995   8.851   1.738   6.455 -2.3639  0.7099  1.8830
 1023MOL0     H34996   8.901   2.039   6.469  2.0776 -0.9082 -1.6873
 1023MOL0     H34997   8.751   1.951   6.433 -0.7086  2.0096 -2.9903
 1023MOL0     H34998   8.899   2.044   6.053 -1.8395  2.8630  0.5064
 1023MOL0     H34999   9.095   2.154   5.940  0.7645 -0.6385  0.1438
 1023MOL0     H35000   9.522   2.035   5.811  2.7618 -0.1067 -0.3020
 1023MOL0     H35001   9.725   2.073   5.704  1.5488  1.0122  1.5696
 1023MOL0     H35002   9.968   2.324   5.729  1.3747  0.7569  0.0191
 1023MOL0     H35003   9.865   2.449   5.760  0.9971 -0.1145  0.3069
 1023MOL0     H35004   9.916   2.555   5.551 -0.8693 -0.0176 -0.6335
 1023MOL0     H35005   9.993   2.408   5.490 -0.5844  2.6397 -1.2576
 1023MOL0     H35006  10.174   2.414   5.653 -2.8008  0.0354  2.6742
 1023MOL0     H35007  10.108   2.550   5.726  3.0115 -1.6910  1.3864
 1023MOL0     H35008  10.206   2.511   5.440 -3.8824 -2.1205  0.7872
 1023MOL0     H35009  10.141   2.664   5.478 -1.9930  1.9716  3.6251
 1023MOL0     H35010  10.394   2.577   5.605  0.1618  0.2010 -2.2964
 1023MOL0     H35011  10.279   2.710   5.661 -0.4437  2.4290 -0.9757
 1023MOL0     H35012  10.444   2.824   5.526 -0.3898 -1.3387  1.7754
 1023MOL0     H35013  10.294   2.806   5.436  0.6046 -0.0441 -0.5210
 1023MOL0     H35014  10.537   2.621   5.401 -0.7904 -1.3256  0.7477
 1023MOL0     H35015  10.391   2.606   5.304 -2.7920  2.9356 -1.0644
 1023MOL0     H35016  10.567   2.744   5.201 -1.1666 -2.2976 -1.3353
 1023MOL0     H35017  10.543   2.864   5.339 -0.6814  1.7517 -2.0958
 1023MOL0     H35018   9.653   2.497   5.736 -0.2972  0.2024 -1.4871
 1023MOL0     H35019   9.447   2.465   5.848 -1.7202  0.5082 -0.4786
 1023MOL0     H35020   9.339   2.057   6.285 -2.7906  1.8333  4.1565
 1023MOL0     H35021   9.139   1.993   6.414  3.0378 -0.3610 -0.0674
 1023MOL0     H35022   7.983   2.058   7.854  4.3756 -0.1164 -1.1894
 1023MOL0     H35023   7.829   2.123   8.040 -0.0571 -2.8972  1.1201
 1023MOL0     H35024   7.524   2.107   8.296 -1.5761 -0.4130  4.1226
 1023MOL0     H35025   7.336   2.267   8.313  1.1029 -2.5598  1.5523
 1023MOL0     H35026   7.354   2.714   8.285 -3.2704  3.7735  1.7236
 1023MOL0     H35027   7.434   2.672   8.442 -1.4207 -0.9354  1.1419
 1023MOL0     H35028   7.215   2.786   8.451  0.5605  0.2137  1.9009
 1023MOL0     H35029   7.145   2.634   8.390  1.8139 -4.8515  2.2474
 1023MOL0     H35030   7.321   2.543   8.598  0.1653  0.0547 -2.8777
 1023MOL0     H35031   7.143   2.537   8.581 -0.5667 -0.6380 -0.7393
 1023MOL0     H35032   7.198   2.649   8.790 -1.3276  0.6165  0.2238
 1023MOL0     H35033   7.283   2.766   8.690  3.0336 -2.1239  0.7610
 1023MOL0     H35034   6.904   2.916   8.627 -3.6792 -3.7792  0.2138
 1023MOL0     H35035   7.600   2.589   8.368  0.8464 -0.0544  0.9758
 1023MOL0     H35036   7.789   2.432   8.361 -0.9554  0.5601  0.4623
 1024MOL0     O35037   0.908   6.008   4.211  0.5440  0.8593 -0.2997
 1024MOL0     C35038   0.815   5.936   4.175 -0.1082  0.3819  0.9156
 1024MOL0     O35039   0.679   5.962   4.175 -0.0575  0.1859  0.3204
 1024MOL0     C35040   0.635   6.085   4.178  0.2395 -0.5048  0.6079
 1024MOL0     C35041   0.681   6.195   4.099  1.9618  0.9241  1.1529
 1024MOL0     C35042   0.621   6.314   4.115  0.7410  0.4817 -0.3724
 1024MOL0     C35043   0.540   6.339   4.220 -1.4147  0.1258 -0.2813
 1024MOL0     O35044   0.499   6.471   4.213 -0.1392 -0.5829 -0.0656
 1024MOL0     C35045   0.431   6.530   4.321  0.9235 -0.2978 -0.3147
 1024MOL0     C35046   0.439   6.686   4.321 -0.3675  0.2748 -1.4163
 1024MOL0     C35047   0.537   6.736   4.421  0.2039 -0.5195 -0.6674
 1024MOL0     C35048   0.553   6.886   4.431 -0.3212 -1.1412  0.7658
 1024MOL0     C35049   0.610   6.939   4.555 -0.3962  0.1567  0.8293
 1024MOL0     C35050   0.631   7.091   4.535 -0.2900 -0.3191  0.1582
 1024MOL0     C35051   0.734   7.147   4.637  0.0148  0.1329  0.7896
 1024MOL0     C35052   0.674   7.179   4.769  0.2011  0.2573 -0.2940
 1024MOL0     N35053   0.761   7.259   4.846 -0.2772  0.0292 -0.4941
 1024MOL0     C35054   0.875   7.206   4.893 -0.3669 -0.4994  0.3291
 1024MOL0     C35055   0.943   7.315   4.929 -0.4269  0.0753 -0.0986
 1024MOL0     C35056   1.087   7.305   4.984  0.9531 -0.0034 -0.3030
 1024MOL0     C35057   1.189   7.379   4.894  0.6484  0.6174  0.2066
 1024MOL0     C35058   1.337   7.333   4.896  0.8939 -0.3679  0.2934
 1024MOL0     C35059   1.425   7.392   4.791  0.3734 -0.7019 -0.3898
 1024MOL0     O35060   1.546   7.457   4.844 -0.3435 -0.4488  0.1404
 1024MOL0     C35061   1.631   7.512   4.748  1.3417 -0.5329  0.1924
 1024MOL0     C35062   1.740   7.575   4.801  0.3721  0.2861 -0.8535
 1024MOL0     C35063   1.834   7.654   4.733 -0.0850  0.1942  0.0984
 1024MOL0     C35064   1.809   7.671   4.593 -1.2242 -0.1921  0.3855
 1024MOL0     C35065   1.911   7.731   4.512 -0.1892  0.0919  1.0189
 1024MOL0     O35066   1.993   7.821   4.579 -1.2046 -0.6025 -0.0216
 1024MOL0     C35067   2.098   7.889   4.525  0.3038 -0.0176 -0.1477
 1024MOL0     C35068   2.234   7.837   4.524 -0.8384 -0.0005 -0.0211
 1024MOL0     C35069   2.335   7.915   4.473  0.3116  0.0231  1.9215
 1024MOL0     C35070   2.311   8.047   4.422 -0.5308 -0.0347 -0.0418
 1024MOL0     O35071   2.403   8.144   4.366 -0.2845 -0.4184 -0.3083
 1024MOL0     C35072   2.531   8.099   4.332  0.1136 -0.1185  0.3353
 1024MOL0     C35073   2.595   8.199   4.241  0.2120 -0.8476 -0.0786
 1024MOL0     C35074   2.739   8.161   4.193 -0.0986  0.3757  0.4882
 1024MOL0     C35075   2.798   8.259   4.108 -0.6355  0.8979  1.3480
 1024MOL0     C35076   2.933   8.200   4.042 -0.6237  0.3218 -0.0018
 1024MOL0     C35077   3.017   8.298   3.963  0.1616 -0.8222 -0.0928
 1024MOL0     C35078   3.138   8.219   3.902  0.1134 -0.0187 -0.0536
 1024MOL0     C35079   3.230   8.170   4.007 -0.5857  0.1310 -0.2664
 1024MOL0    Cl35080   3.355   8.058   3.931 -0.1644  0.3282 -0.0579
 1024MOL0     C35081   2.181   8.100   4.427 -0.9728 -0.5623  0.9482
 1024MOL0     C35082   2.076   8.015   4.473  0.0325 -0.6733  0.4140
 1024MOL0     O35083   1.913   7.705   4.392 -0.3127 -0.3786 -0.7617
 1024MOL0     C35084   1.698   7.611   4.529  0.8797  0.4019  0.1896
 1024MOL0     C35085   1.610   7.534   4.608 -0.3533  0.4622 -0.0239
 1024MOL0     N35086   0.870   7.432   4.908 -0.1473  0.2571  0.1068
 1024MOL0     N35087   0.756   7.396   4.854 -0.2635 -0.3475 -0.3197
 1024MOL0     C35088   0.503   6.230   4.296  0.0555 -0.0446 -0.0887
 1024MOL0     C35089   0.540   6.096   4.276 -0.1968 -0.5337  0.3918
 1024MOL0     C35090   0.849   5.806   4.111 -0.0330 -0.4879 -0.3076
 1024MOL0     C35091   0.974   5.776   4.067 -0.7230  0.8444  0.6901
 1024MOL0     C35092   1.007   5.650   4.016  0.2531  0.2407  0.5198
 1024MOL0     C35093   0.901   5.563   3.989 -0.0386  0.2262 -0.7282
 1024MOL0     O35094   0.905   5.438   3.927  0.0994 -0.2541 -0.1559
 1024MOL0     C35095   1.043   5.398   3.906  0.8378  0.6161  0.2524
 1024MOL0     C35096   1.056   5.247   3.894 -0.5103 -0.0774  0.4519
 1024MOL0     C35097   1.061   5.179   4.038  1.0622 -0.6553  0.4315
 1024MOL0     C35098   1.043   5.025   4.021  0.0487 -0.0140  0.2153
 1024MOL0     C35099   1.101   4.935   4.118  0.5804 -0.2978  0.6315
 1024MOL0     C35100   1.143   4.853   4.200 -0.1592  0.8758  0.1233
 1024MOL0     C35101   0.778   5.593   4.034  0.6372  0.0128  0.0871
 1024MOL0     C35102   0.744   5.710   4.094  0.4284 -0.3073  0.0899
 1024MOL0     H35103   0.748   6.181   4.014  0.3889  0.8143 -0.1154
 1024MOL0     H35104   0.649   6.385   4.037 -0.7274 -1.4490 -2.8238
 1024MOL0     H35105   0.476   6.486   4.410 -0.3568 -1.4009 -0.1749
 1024MOL0     H35106   0.325   6.500   4.320  0.2635  1.8302 -0.2502
 1024MOL0     H35107   0.340   6.712   4.358  0.8347  0.5919  1.9538
 1024MOL0     H35108   0.457   6.739   4.227  1.4993  1.3108 -0.5336
 1024MOL0     H35109   0.633   6.687   4.407 -0.6578 -2.5944  0.2107
 1024MOL0     H35110   0.505   6.701   4.520 -2.9003 -1.0425 -1.7545
 1024MOL0     H35111   0.626   6.893   4.350 -0.5868  0.0034  0.6090
 1024MOL0     H35112   0.464   6.946   4.406  1.3829  0.3425 -2.3517
 1024MOL0     H35113   0.691   6.878   4.596 -1.5268 -0.3782  2.3809
 1024MOL0     H35114   0.536   6.915   4.632 -0.3898 -3.6363 -0.1597
 1024MOL0     H35115   0.534   7.139   4.544  0.8496  2.1964 -0.0553
 1024MOL0     H35116   0.675   7.112   4.437  2.6059  1.7661  1.7443
 1024MOL0     H35117   0.806   7.066   4.652  0.0769 -0.0987 -0.6497
 1024MOL0     H35118   0.777   7.237   4.591 -1.0497  0.1346 -0.2713
 1024MOL0     H35119   0.659   7.080   4.814 -0.3997 -0.6344 -2.3296
 1024MOL0     H35120   0.576   7.227   4.759 -0.4009 -0.4854  1.5873
 1024MOL0     H35121   0.904   7.102   4.906 -0.4926 -0.3537  2.0925
 1024MOL0     H35122   1.115   7.200   4.985 -1.2207 -0.6540  1.9040
 1024MOL0     H35123   1.086   7.343   5.086  1.7591  0.2739 -0.3873
 1024MOL0     H35124   1.191   7.481   4.933 -0.8927  0.8125 -0.1346
 1024MOL0     H35125   1.142   7.387   4.795  0.4460  0.4999  0.2926
 1024MOL0     H35126   1.386   7.352   4.992  0.1563  0.9594  0.4324
 1024MOL0     H35127   1.323   7.225   4.886 -0.7165 -0.3634  2.0333
 1024MOL0     H35128   1.373   7.472   4.737 -0.5008  0.2719  1.7855
 1024MOL0     H35129   1.470   7.316   4.727 -2.3793 -4.0322  1.3192
 1024MOL0     H35130   1.752   7.562   4.909 -0.4489 -1.2818 -0.9152
 1024MOL0     H35131   1.925   7.674   4.789 -0.1653  1.3351 -0.1451
 1024MOL0     H35132   2.245   7.737   4.565 -0.1076  0.2035  0.2918
 1024MOL0     H35133   2.441   7.893   4.461  0.1911  0.2137  0.2237
 1024MOL0     H35134   2.528   8.010   4.269 -1.0498  0.4512 -0.4425
 1024MOL0     H35135   2.590   8.098   4.425  0.8963  0.9746 -0.1324
 1024MOL0     H35136   2.593   8.292   4.300 -1.0394 -0.9693  0.1051
 1024MOL0     H35137   2.538   8.203   4.148  0.9269 -2.0557 -0.5970
 1024MOL0     H35138   2.725   8.070   4.133 -1.5640  0.8423  0.0766
 1024MOL0     H35139   2.811   8.144   4.274  0.0558  2.8619  0.9546
 1024MOL0     H35140   2.721   8.285   4.035  0.0583 -0.9330 -0.1162
 1024MOL0     H35141   2.828   8.344   4.171  3.6397  0.2117  0.5749
 1024MOL0     H35142   2.908   8.107   3.991 -0.4006 -0.9400  2.0644
 1024MOL0     H35143   2.993   8.161   4.124 -2.5832 -2.1162  0.3964
 1024MOL0     H35144   3.053   8.378   4.029 -0.0715  2.5805 -3.6533
 1024MOL0     H35145   2.977   8.357   3.880  2.5616  0.2856 -0.5582
 1024MOL0     H35146   3.099   8.137   3.840 -3.4650 -1.2220  3.3838
 1024MOL0     H35147   3.198   8.294   3.849  1.5077  0.6558  2.3710
 1024MOL0     H35148   3.185   8.113   4.088 -0.0775 -2.2616 -1.5884
 1024MOL0     H35149   3.275   8.254   4.061  1.8678 -1.9161  1.0585
 1024MOL0     H35150   2.167   8.200   4.387  0.0840 -0.0161  1.8857
 1024MOL0     H35151   1.972   8.045   4.459  0.6367  0.8783 -1.0167
 1024MOL0     H35152   1.680   7.621   4.423 -1.8972  1.9238  0.6932
 1024MOL0     H35153   1.523   7.487   4.563 -0.1710 -0.5169  0.6226
 1024MOL0     H35154   0.423   6.240   4.368 -2.3051  1.2006 -2.7203
 1024MOL0     H35155   0.497   6.015   4.334  0.9715 -2.0944 -0.8268
 1024MOL0     H35156   1.058   5.844   4.078 -0.7281  1.0947 -0.7318
 1024MOL0     H35157   1.105   5.626   3.974 -0.8047 -1.1745 -1.3243
 1024MOL0     H35158   1.104   5.403   3.996  0.6127 -3.1354  0.7727
 1024MOL0     H35159   1.084   5.457   3.823  0.7789  1.7359  1.0078
 1024MOL0     H35160   0.978   5.211   3.827  1.0028 -2.1057 -0.3125
 1024MOL0     H35161   1.151   5.238   3.840 -0.1479  1.2699  0.8124
 1024MOL0     H35162   0.985   5.217   4.107 -1.4446 -4.3223 -0.0303
 1024MOL0     H35163   1.157   5.193   4.089  1.3650  0.1126 -0.3258
 1024MOL0     H35164   0.936   5.003   4.013 -0.0661 -1.1259  3.2550
 1024MOL0     H35165   1.098   4.997   3.931  6.7132  0.7087  3.4317
 1024MOL0     H35166   1.158   4.786   4.283 -3.1693 -2.5568 -1.8222
 1024MOL0     H35167   0.698   5.521   4.018 -0.0842  0.0344  3.0302
 1024MOL0     H35168   0.644   5.745   4.118  1.1310  1.1978  0.9922
  11.42570  11.42570  11.42570
